<event>
 6    1  0.1097339E-002  0.1835838E+03  0.7546771E-02  0.1067595E+00
        -11   -1    0    0    0    0  0.00000000000E+00  0.00000000000E+00  0.18250000000E+03  0.18250000000E+03  0.00000000000E+00 0. -1.
         11   -1    0    0    0    0 -0.00000000000E+00 -0.00000000000E+00 -0.18250000000E+03  0.18250000000E+03  0.00000000000E+00 0.  1.
        -11    1    1    2    0    0 -0.34362560256E+00 -0.25330187234E+01  0.18139819052E+03  0.18141620046E+03  0.00000000000E+00 0. -1.
         11    1    1    2    0    0 -0.60974752003E+01 -0.18713378589E+01 -0.14500837257E+03  0.14514857637E+03  0.00000000000E+00 0.  1.
        -15    1    1    2    0    0  0.24664792582E+01 -0.78603727014E+00 -0.29239155993E+01  0.42904994993E+01  0.17770000000E+01 0.  1.
         15    1    1    2    0    0  0.39746215446E+01  0.51903938525E+01 -0.33465902360E+02  0.34144723671E+02  0.17770000000E+01 0. -1.
</event>
<event>
 6    1  0.1351233E-002  0.1946995E+03  0.7546771E-02  0.1059138E+00
        -11   -1    0    0    0    0  0.00000000000E+00  0.00000000000E+00  0.18250000000E+03  0.18250000000E+03  0.00000000000E+00 0. -1.
         11   -1    0    0    0    0 -0.00000000000E+00 -0.00000000000E+00 -0.18250000000E+03  0.18250000000E+03  0.00000000000E+00 0.  1.
        -11    1    1    2    0    0 -0.21029880760E+01 -0.23578886911E+01  0.13701209467E+03  0.13704851799E+03  0.00000000000E+00 0. -1.
         11    1    1    2    0    0  0.11141754714E+02 -0.59993712698E+01 -0.16982973254E+03  0.17030052615E+03  0.00000000000E+00 0.  1.
        -15    1    1    2    0    0  0.14188094456E+01  0.39916721763E+01  0.42434404902E+02  0.42682348991E+02  0.17770000000E+01 0. -1.
         15    1    1    2    0    0 -0.10457576083E+02  0.43655877845E+01 -0.96167670375E+01  0.14968606866E+02  0.17770000000E+01 0.  1.
</event>
<event>
 6    1  0.1097339E-002  0.1926583E+03  0.7546771E-02  0.1060645E+00
        -11   -1    0    0    0    0  0.00000000000E+00  0.00000000000E+00  0.18250000000E+03  0.18250000000E+03  0.00000000000E+00 0.  1.
         11   -1    0    0    0    0 -0.00000000000E+00 -0.00000000000E+00 -0.18250000000E+03  0.18250000000E+03  0.00000000000E+00 0. -1.
        -11    1    1    2    0    0  0.94810976698E+00 -0.31327798754E+01  0.17231057682E+03  0.17234166097E+03  0.00000000000E+00 0.  1.
         11    1    1    2    0    0 -0.17045084646E+02 -0.12814576500E+02 -0.14272439937E+03  0.14430870541E+03  0.00000000000E+00 0. -1.
        -15    1    1    2    0    0  0.70701359814E+01  0.21938279674E+02 -0.29359429580E+02  0.37368553252E+02  0.17770000000E+01 0. -1.
         15    1    1    2    0    0  0.90268388974E+01 -0.59909232985E+01 -0.22674787176E+00  0.10981080368E+02  0.17770000000E+01 0.  1.
</event>
<event>
 6    1  0.1097339E-002  0.1836136E+03  0.7546771E-02  0.1067572E+00
        -11   -1    0    0    0    0  0.00000000000E+00  0.00000000000E+00  0.18250000000E+03  0.18250000000E+03  0.00000000000E+00 0.  1.
         11   -1    0    0    0    0 -0.00000000000E+00 -0.00000000000E+00 -0.18250000000E+03  0.18250000000E+03  0.00000000000E+00 0. -1.
        -11    1    1    2    0    0 -0.85936374065E+01 -0.44296085776E+01  0.18112858733E+03  0.18138643054E+03  0.00000000000E+00 0.  1.
         11    1    1    2    0    0  0.26991932265E+01  0.14411125758E+00 -0.11993721722E+03  0.11996767267E+03  0.00000000000E+00 0. -1.
        -15    1    1    2    0    0 -0.56743047687E-01 -0.36701547515E+01 -0.45407795327E+01  0.61032502356E+01  0.17770000000E+01 0.  1.
         15    1    1    2    0    0  0.59511872276E+01  0.79556520716E+01 -0.56650590581E+02  0.57542646546E+02  0.17770000000E+01 0. -1.
</event>
<event>
 6    1  0.1097339E-002  0.1831360E+03  0.7546771E-02  0.1067950E+00
        -11   -1    0    0    0    0  0.00000000000E+00  0.00000000000E+00  0.18250000000E+03  0.18250000000E+03  0.00000000000E+00 0. -1.
         11   -1    0    0    0    0 -0.00000000000E+00 -0.00000000000E+00 -0.18250000000E+03  0.18250000000E+03  0.00000000000E+00 0. -1.
        -11    1    1    2    0    0  0.23272951430E+01  0.10253464392E+01  0.14667440569E+03  0.14669645163E+03  0.00000000000E+00 0. -1.
         11    1    1    2    0    0  0.26093858328E+01  0.61592872570E+00 -0.18184426138E+03  0.18186402520E+03  0.00000000000E+00 0. -1.
        -15    1    1    2    0    0 -0.61492915637E+01 -0.26286517823E+01  0.29392950288E+02  0.30196470862E+02  0.17770000000E+01 0.  1.
         15    1    1    2    0    0  0.12126105879E+01  0.98737661742E+00  0.57769054103E+01  0.62430523097E+01  0.17770000000E+01 0.  1.
</event>
<event>
 6    1  0.1097339E-002  0.1844387E+03  0.7546771E-02  0.1066922E+00
        -11   -1    0    0    0    0  0.00000000000E+00  0.00000000000E+00  0.18250000000E+03  0.18250000000E+03  0.00000000000E+00 0. -1.
         11   -1    0    0    0    0 -0.00000000000E+00 -0.00000000000E+00 -0.18250000000E+03  0.18250000000E+03  0.00000000000E+00 0. -1.
        -11    1    1    2    0    0  0.36993218880E+01  0.12919621800E+01  0.31117899486E+02  0.31363638455E+02  0.00000000000E+00 0. -1.
         11    1    1    2    0    0 -0.43037597061E+01  0.29456670385E+00 -0.18050972708E+03  0.18056126575E+03  0.00000000000E+00 0. -1.
        -15    1    1    2    0    0  0.55033644619E+00 -0.64427891320E+01  0.44659380197E+01  0.80569680028E+01  0.17770000000E+01 0.  1.
         15    1    1    2    0    0  0.54101371899E-01  0.48562602481E+01  0.14492588958E+03  0.14501812779E+03  0.17770000000E+01 0. -1.
</event>
<event>
 6    1  0.1097339E-002  0.1827035E+03  0.7546771E-02  0.1068293E+00
        -11   -1    0    0    0    0  0.00000000000E+00  0.00000000000E+00  0.18250000000E+03  0.18250000000E+03  0.00000000000E+00 0.  1.
         11   -1    0    0    0    0 -0.00000000000E+00 -0.00000000000E+00 -0.18250000000E+03  0.18250000000E+03  0.00000000000E+00 0. -1.
        -11    1    1    2    0    0  0.46222462474E+00 -0.68500252291E+00  0.56504869248E+02  0.56510911590E+02  0.00000000000E+00 0.  1.
         11    1    1    2    0    0 -0.30040017877E+01 -0.20093123938E+01 -0.18226064111E+03  0.18229646914E+03  0.00000000000E+00 0. -1.
        -15    1    1    2    0    0  0.73473695077E+00  0.91898900792E+00  0.55214983062E+01  0.59185345931E+01  0.17770000000E+01 0. -1.
         15    1    1    2    0    0  0.18070402122E+01  0.17753259088E+01  0.12023427356E+03  0.12027408467E+03  0.17770000000E+01 0.  1.
</event>
<event>
 6    1  0.1097339E-002  0.1962283E+03  0.7546771E-02  0.1058024E+00
        -11   -1    0    0    0    0  0.00000000000E+00  0.00000000000E+00  0.18250000000E+03  0.18250000000E+03  0.00000000000E+00 0.  1.
         11   -1    0    0    0    0 -0.00000000000E+00 -0.00000000000E+00 -0.18250000000E+03  0.18250000000E+03  0.00000000000E+00 0.  1.
        -11    1    1    2    0    0 -0.60137800076E+00  0.13868830088E+02  0.16819983013E+03  0.16877170663E+03  0.00000000000E+00 0.  1.
         11    1    1    2    0    0 -0.21074164709E+01  0.38076307875E+00 -0.15832763678E+03  0.15834211933E+03  0.00000000000E+00 0.  1.
        -15    1    1    2    0    0  0.12084323559E+01 -0.16673101747E+02  0.87580395451E+01  0.18955569532E+02  0.17770000000E+01 0. -1.
         15    1    1    2    0    0  0.15003621158E+01  0.24235085797E+01 -0.18630232894E+02  0.18930604507E+02  0.17770000000E+01 0.  1.
</event>
<event>
 6    1  0.1097339E-002  0.1827403E+03  0.7546771E-02  0.1068264E+00
        -11   -1    0    0    0    0  0.00000000000E+00  0.00000000000E+00  0.18250000000E+03  0.18250000000E+03  0.00000000000E+00 0.  1.
         11   -1    0    0    0    0 -0.00000000000E+00 -0.00000000000E+00 -0.18250000000E+03  0.18250000000E+03  0.00000000000E+00 0.  1.
        -11    1    1    2    0    0  0.31500952796E+01  0.55005946281E+01  0.18214947069E+03  0.18225973037E+03  0.00000000000E+00 0.  1.
         11    1    1    2    0    0 -0.33599739501E+01 -0.21537894834E+01 -0.46858538656E+02  0.47028192385E+02  0.00000000000E+00 0.  1.
        -15    1    1    2    0    0  0.34145018243E+01  0.17861535317E+01 -0.44267930225E+02  0.44470850482E+02  0.17770000000E+01 0.  1.
         15    1    1    2    0    0 -0.32046231539E+01 -0.51329586764E+01 -0.91023001809E+02  0.91241226765E+02  0.17770000000E+01 0.  1.
</event>
<event>
 6    1  0.1097339E-002  0.1831817E+03  0.7546771E-02  0.1067913E+00
        -11   -1    0    0    0    0  0.00000000000E+00  0.00000000000E+00  0.18250000000E+03  0.18250000000E+03  0.00000000000E+00 0. -1.
         11   -1    0    0    0    0 -0.00000000000E+00 -0.00000000000E+00 -0.18250000000E+03  0.18250000000E+03  0.00000000000E+00 0.  1.
        -11    1    1    2    0    0 -0.27105762839E+00  0.24522012508E+01  0.16012003256E+03  0.16013903831E+03  0.00000000000E+00 0. -1.
         11    1    1    2    0    0 -0.34159420269E+01  0.81823732591E-01 -0.18178616750E+03  0.18181827754E+03  0.00000000000E+00 0.  1.
        -15    1    1    2    0    0  0.11532450013E+01 -0.73311103089E+00  0.17069277401E+02  0.17215846938E+02  0.17770000000E+01 0.  1.
         15    1    1    2    0    0  0.25337546539E+01 -0.18009139525E+01  0.45968575346E+01  0.58268372127E+01  0.17770000000E+01 0. -1.
</event>
<event>
 6    1  0.1097339E-002  0.1831974E+03  0.7546771E-02  0.1067901E+00
        -11   -1    0    0    0    0  0.00000000000E+00  0.00000000000E+00  0.18250000000E+03  0.18250000000E+03  0.00000000000E+00 0.  1.
         11   -1    0    0    0    0 -0.00000000000E+00 -0.00000000000E+00 -0.18250000000E+03  0.18250000000E+03  0.00000000000E+00 0. -1.
        -11    1    1    2    0    0 -0.30048326009E+01 -0.25236509413E+00  0.18177759878E+03  0.18180260759E+03  0.00000000000E+00 0.  1.
         11    1    1    2    0    0 -0.44560845415E+00 -0.17650331858E+01 -0.12751040872E+03  0.12752340272E+03  0.00000000000E+00 0. -1.
        -15    1    1    2    0    0  0.18254488344E+01  0.15224221168E+00 -0.18107925936E+01  0.31292395170E+01  0.17770000000E+01 0.  1.
         15    1    1    2    0    0  0.16249922207E+01  0.18651560683E+01 -0.52456397466E+02  0.52544750175E+02  0.17770000000E+01 0. -1.
</event>
<event>
 6    1  0.1097339E-002  0.1835948E+03  0.7546771E-02  0.1067587E+00
        -11   -1    0    0    0    0  0.00000000000E+00  0.00000000000E+00  0.18250000000E+03  0.18250000000E+03  0.00000000000E+00 0.  1.
         11   -1    0    0    0    0 -0.00000000000E+00 -0.00000000000E+00 -0.18250000000E+03  0.18250000000E+03  0.00000000000E+00 0. -1.
        -11    1    1    2    0    0 -0.33653521656E+01  0.18650318162E+00  0.15394689384E+03  0.15398378649E+03  0.00000000000E+00 0.  1.
         11    1    1    2    0    0  0.35042221757E+01 -0.17741140409E+01 -0.18136264357E+03  0.18140516954E+03  0.00000000000E+00 0. -1.
        -15    1    1    2    0    0  0.37825586319E+01  0.24888614606E+01  0.58821703573E+01  0.76328132616E+01  0.17770000000E+01 0.  1.
         15    1    1    2    0    0 -0.39214286420E+01 -0.90125060132E+00  0.21533579377E+02  0.21978230708E+02  0.17770000000E+01 0. -1.
</event>
<event>
 6    1  0.1097339E-002  0.1829215E+03  0.7546771E-02  0.1068120E+00
        -11   -1    0    0    0    0  0.00000000000E+00  0.00000000000E+00  0.18250000000E+03  0.18250000000E+03  0.00000000000E+00 0. -1.
         11   -1    0    0    0    0 -0.00000000000E+00 -0.00000000000E+00 -0.18250000000E+03  0.18250000000E+03  0.00000000000E+00 0.  1.
        -11    1    1    2    0    0 -0.37800486897E+01 -0.11173491536E+01  0.14571664598E+03  0.14576994942E+03  0.00000000000E+00 0. -1.
         11    1    1    2    0    0  0.15329182199E+01 -0.22608299448E+01 -0.18205802301E+03  0.18207851310E+03  0.00000000000E+00 0.  1.
        -15    1    1    2    0    0  0.40026739010E+01  0.17655494831E+01  0.20938974906E+02  0.21464784240E+02  0.17770000000E+01 0.  1.
         15    1    1    2    0    0 -0.17555434311E+01  0.16126296154E+01  0.15402402122E+02  0.15686753237E+02  0.17770000000E+01 0. -1.
</event>
<event>
 6    1  0.1097339E-002  0.1880187E+03  0.7546771E-02  0.1064145E+00
        -11   -1    0    0    0    0  0.00000000000E+00  0.00000000000E+00  0.18250000000E+03  0.18250000000E+03  0.00000000000E+00 0. -1.
         11   -1    0    0    0    0 -0.00000000000E+00 -0.00000000000E+00 -0.18250000000E+03  0.18250000000E+03  0.00000000000E+00 0.  1.
        -11    1    1    2    0    0  0.46436984356E+01  0.45618632390E+01  0.17122988681E+03  0.17135357793E+03  0.00000000000E+00 0. -1.
         11    1    1    2    0    0 -0.37911016065E+01  0.25824658316E+01 -0.17692184235E+03  0.17698129812E+03  0.00000000000E+00 0.  1.
        -15    1    1    2    0    0 -0.14704334793E+01 -0.11919641937E+00  0.85459175190E+01  0.88525034677E+01  0.17770000000E+01 0. -1.
         15    1    1    2    0    0  0.61783665020E+00 -0.70251326513E+01 -0.28539619768E+01  0.78126204861E+01  0.17770000000E+01 0.  1.
</event>
<event>
 6    1  0.1097339E-002  0.1843807E+03  0.7546771E-02  0.1066968E+00
        -11   -1    0    0    0    0  0.00000000000E+00  0.00000000000E+00  0.18250000000E+03  0.18250000000E+03  0.00000000000E+00 0.  1.
         11   -1    0    0    0    0 -0.00000000000E+00 -0.00000000000E+00 -0.18250000000E+03  0.18250000000E+03  0.00000000000E+00 0.  1.
        -11    1    1    2    0    0  0.79504217283E+01 -0.32217447869E+01  0.73393053689E+02  0.73892686884E+02  0.00000000000E+00 0.  1.
         11    1    1    2    0    0  0.25778297310E+01  0.68404557578E+01 -0.18047133015E+03  0.18061931803E+03  0.00000000000E+00 0.  1.
        -15    1    1    2    0    0  0.17061137964E+01 -0.95409412995E+01  0.19551473042E+02  0.21894250667E+02  0.17770000000E+01 0. -1.
         15    1    1    2    0    0 -0.12234365256E+02  0.59222303286E+01  0.87526803414E+02  0.88593744419E+02  0.17770000000E+01 0.  1.
</event>
<event>
 6    1  0.1097339E-002  0.1847722E+03  0.7546771E-02  0.1066660E+00
        -11   -1    0    0    0    0  0.00000000000E+00  0.00000000000E+00  0.18250000000E+03  0.18250000000E+03  0.00000000000E+00 0. -1.
         11   -1    0    0    0    0 -0.00000000000E+00 -0.00000000000E+00 -0.18250000000E+03  0.18250000000E+03  0.00000000000E+00 0. -1.
        -11    1    1    2    0    0  0.28760965754E+01  0.36910365637E+01  0.17274016047E+03  0.17280352635E+03  0.00000000000E+00 0. -1.
         11    1    1    2    0    0  0.20427114489E+01 -0.44601329087E+01 -0.18016105213E+03  0.18022782849E+03  0.00000000000E+00 0. -1.
        -15    1    1    2    0    0 -0.30341288621E+01  0.37364948911E+01  0.26274219514E+01  0.57644086543E+01  0.17770000000E+01 0. -1.
         15    1    1    2    0    0 -0.18846791621E+01 -0.29673985462E+01  0.47934697167E+01  0.62042365043E+01  0.17770000000E+01 0.  1.
</event>
<event>
 6    1  0.1097339E-002  0.1940607E+03  0.7546771E-02  0.1059608E+00
        -11   -1    0    0    0    0  0.00000000000E+00  0.00000000000E+00  0.18250000000E+03  0.18250000000E+03  0.00000000000E+00 0. -1.
         11   -1    0    0    0    0 -0.00000000000E+00 -0.00000000000E+00 -0.18250000000E+03  0.18250000000E+03  0.00000000000E+00 0.  1.
        -11    1    1    2    0    0  0.10800728093E+02  0.15541055883E+01  0.12944733336E+03  0.12990643974E+03  0.00000000000E+00 0. -1.
         11    1    1    2    0    0 -0.87350382256E+01  0.24728408733E+01 -0.17069803801E+03  0.17093927581E+03  0.00000000000E+00 0.  1.
        -15    1    1    2    0    0 -0.14089657918E+02 -0.12780540579E+02  0.44849575972E+02  0.48749388423E+02  0.17770000000E+01 0.  1.
         15    1    1    2    0    0  0.12023968051E+02  0.87535941178E+01 -0.35988713243E+01  0.15404896023E+02  0.17770000000E+01 0. -1.
</event>
<event>
 6    1  0.1097339E-002  0.1775122E+03  0.7546771E-02  0.1072496E+00
        -11   -1    0    0    0    0  0.00000000000E+00  0.00000000000E+00  0.18250000000E+03  0.18250000000E+03  0.00000000000E+00 0.  1.
         11   -1    0    0    0    0 -0.00000000000E+00 -0.00000000000E+00 -0.18250000000E+03  0.18250000000E+03  0.00000000000E+00 0.  1.
        -11    1    1    2    0    0 -0.31185136290E+01 -0.15004332993E+01  0.17740264554E+03  0.17743639725E+03  0.00000000000E+00 0.  1.
         11    1    1    2    0    0  0.22210832624E+01 -0.45803916805E+01 -0.17756826221E+03  0.17764121409E+03  0.00000000000E+00 0.  1.
        -15    1    1    2    0    0  0.26979173360E+01  0.65280994362E+01  0.63333197508E+00  0.73112022672E+01  0.17770000000E+01 0. -1.
         15    1    1    2    0    0 -0.18004869693E+01 -0.44727445640E+00 -0.46771530247E+00  0.26111863913E+01  0.17770000000E+01 0.  1.
</event>
<event>
 6    1  0.1097339E-002  0.1840538E+03  0.7546771E-02  0.1067225E+00
        -11   -1    0    0    0    0  0.00000000000E+00  0.00000000000E+00  0.18250000000E+03  0.18250000000E+03  0.00000000000E+00 0.  1.
         11   -1    0    0    0    0 -0.00000000000E+00 -0.00000000000E+00 -0.18250000000E+03  0.18250000000E+03  0.00000000000E+00 0. -1.
        -11    1    1    2    0    0 -0.67070237512E+01  0.37764602026E+01  0.18078238499E+03  0.18094617029E+03  0.00000000000E+00 0.  1.
         11    1    1    2    0    0 -0.30821543961E+01  0.19840406314E+01 -0.13255665796E+03  0.13260732885E+03  0.00000000000E+00 0. -1.
        -15    1    1    2    0    0 -0.31685332089E+01 -0.25702780640E+01 -0.12485295574E+02  0.13254669614E+02  0.17770000000E+01 0.  1.
         15    1    1    2    0    0  0.12957711356E+02 -0.31902227700E+01 -0.35740431452E+02  0.38191831251E+02  0.17770000000E+01 0. -1.
</event>
<event>
 6    1  0.1097339E-002  0.1843841E+03  0.7546771E-02  0.1066965E+00
        -11   -1    0    0    0    0  0.00000000000E+00  0.00000000000E+00  0.18250000000E+03  0.18250000000E+03  0.00000000000E+00 0. -1.
         11   -1    0    0    0    0 -0.00000000000E+00 -0.00000000000E+00 -0.18250000000E+03  0.18250000000E+03  0.00000000000E+00 0. -1.
        -11    1    1    2    0    0  0.34969019529E+01 -0.25240352972E+01  0.18056435916E+03  0.18061585444E+03  0.00000000000E+00 0. -1.
         11    1    1    2    0    0 -0.19498027341E+00  0.66175092636E+01 -0.10396393791E+03  0.10417451623E+03  0.00000000000E+00 0. -1.
        -15    1    1    2    0    0 -0.75751288812E+01 -0.10211076899E+02 -0.65310487979E+02  0.66560245178E+02  0.17770000000E+01 0. -1.
         15    1    1    2    0    0  0.42732072017E+01  0.61176029328E+01 -0.11289933266E+02  0.13649384147E+02  0.17770000000E+01 0.  1.
</event>
<event>
 6    1  0.1097339E-002  0.1888735E+03  0.7546771E-02  0.1063492E+00
        -11   -1    0    0    0    0  0.00000000000E+00  0.00000000000E+00  0.18250000000E+03  0.18250000000E+03  0.00000000000E+00 0. -1.
         11   -1    0    0    0    0 -0.00000000000E+00 -0.00000000000E+00 -0.18250000000E+03  0.18250000000E+03  0.00000000000E+00 0. -1.
        -11    1    1    2    0    0  0.16098515301E+01 -0.31624538552E+01  0.16769156162E+03  0.16772910474E+03  0.00000000000E+00 0. -1.
         11    1    1    2    0    0  0.27851463506E+01  0.10071570596E+01 -0.17610163614E+03  0.17612653877E+03  0.00000000000E+00 0. -1.
        -15    1    1    2    0    0 -0.11738519769E+01 -0.41443100508E-01 -0.58651359611E+01  0.62399675349E+01  0.17770000000E+01 0.  1.
         15    1    1    2    0    0 -0.32211459038E+01  0.21967398961E+01  0.14275210481E+02  0.14904388964E+02  0.17770000000E+01 0.  1.
</event>
<event>
 6    1  0.1097339E-002  0.2002515E+03  0.7546771E-02  0.1055142E+00
        -11   -1    0    0    0    0  0.00000000000E+00  0.00000000000E+00  0.18250000000E+03  0.18250000000E+03  0.00000000000E+00 0.  1.
         11   -1    0    0    0    0 -0.00000000000E+00 -0.00000000000E+00 -0.18250000000E+03  0.18250000000E+03  0.00000000000E+00 0.  1.
        -11    1    1    2    0    0  0.41062641339E+01  0.70440449299E+00  0.15599664808E+03  0.15605227266E+03  0.00000000000E+00 0.  1.
         11    1    1    2    0    0  0.67428715498E+01 -0.31029677886E+01 -0.16458123406E+03  0.16474852755E+03  0.00000000000E+00 0.  1.
        -15    1    1    2    0    0  0.12620484317E+02 -0.10395763208E+02  0.48733716285E+01  0.17153891602E+02  0.17770000000E+01 0. -1.
         15    1    1    2    0    0 -0.23469620000E+02  0.12794326504E+02  0.37112143547E+01  0.27045308181E+02  0.17770000000E+01 0.  1.
</event>
<event>
 6    1  0.1097339E-002  0.1709510E+03  0.7546771E-02  0.1078038E+00
        -11   -1    0    0    0    0  0.00000000000E+00  0.00000000000E+00  0.18250000000E+03  0.18250000000E+03  0.00000000000E+00 0.  1.
         11   -1    0    0    0    0 -0.00000000000E+00 -0.00000000000E+00 -0.18250000000E+03  0.18250000000E+03  0.00000000000E+00 0.  1.
        -11    1    1    2    0    0  0.86136169502E+00  0.69450327827E+01  0.17070733125E+03  0.17085071954E+03  0.00000000000E+00 0.  1.
         11    1    1    2    0    0 -0.23799105153E+01  0.12140407811E+02 -0.17114060714E+03  0.17158718160E+03  0.00000000000E+00 0.  1.
        -15    1    1    2    0    0  0.17632804049E+01 -0.19675410954E+02  0.22257393282E+01  0.19958521953E+02  0.17770000000E+01 0. -1.
         15    1    1    2    0    0 -0.24473158457E+00  0.58997036035E+00 -0.17924634355E+01  0.26035769131E+01  0.17770000000E+01 0.  1.
</event>
<event>
 6    1  0.1097339E-002  0.1931720E+03  0.7546771E-02  0.1060264E+00
        -11   -1    0    0    0    0  0.00000000000E+00  0.00000000000E+00  0.18250000000E+03  0.18250000000E+03  0.00000000000E+00 0.  1.
         11   -1    0    0    0    0 -0.00000000000E+00 -0.00000000000E+00 -0.18250000000E+03  0.18250000000E+03  0.00000000000E+00 0. -1.
        -11    1    1    2    0    0  0.35354340393E+01  0.84567918883E+00  0.17178955654E+03  0.17182801344E+03  0.00000000000E+00 0.  1.
         11    1    1    2    0    0  0.30455982182E+01  0.15510179512E+01 -0.16155415354E+03  0.16159030246E+03  0.00000000000E+00 0. -1.
        -15    1    1    2    0    0  0.91335359206E-01 -0.17638029707E+01 -0.19694584056E+02  0.19853304844E+02  0.17770000000E+01 0.  1.
         15    1    1    2    0    0 -0.66723676168E+01 -0.63289416938E+00  0.94591810571E+01  0.11728379254E+02  0.17770000000E+01 0.  1.
</event>
<event>
 6    1  0.1097339E-002  0.1833785E+03  0.7546771E-02  0.1067758E+00
        -11   -1    0    0    0    0  0.00000000000E+00  0.00000000000E+00  0.18250000000E+03  0.18250000000E+03  0.00000000000E+00 0.  1.
         11   -1    0    0    0    0 -0.00000000000E+00 -0.00000000000E+00 -0.18250000000E+03  0.18250000000E+03  0.00000000000E+00 0. -1.
        -11    1    1    2    0    0 -0.36814087130E+01 -0.52937358907E+00  0.18158338531E+03  0.18162147127E+03  0.00000000000E+00 0.  1.
         11    1    1    2    0    0  0.56520852025E+00  0.41320052545E+01 -0.16236377188E+03  0.16241732466E+03  0.00000000000E+00 0. -1.
        -15    1    1    2    0    0  0.62991756522E+00  0.51127157401E+00 -0.13584098216E+01  0.23793278473E+01  0.17770000000E+01 0. -1.
         15    1    1    2    0    0  0.24862826275E+01 -0.41139032394E+01 -0.17861203600E+02  0.18581876230E+02  0.17770000000E+01 0. -1.
</event>
<event>
 6    1  0.1097339E-002  0.1675632E+03  0.7546771E-02  0.1081008E+00
        -11   -1    0    0    0    0  0.00000000000E+00  0.00000000000E+00  0.18250000000E+03  0.18250000000E+03  0.00000000000E+00 0. -1.
         11   -1    0    0    0    0 -0.00000000000E+00 -0.00000000000E+00 -0.18250000000E+03  0.18250000000E+03  0.00000000000E+00 0.  1.
        -11    1    1    2    0    0  0.76073344366E+01 -0.12830259132E+01  0.16788416969E+03  0.16806133442E+03  0.00000000000E+00 0. -1.
         11    1    1    2    0    0 -0.13621622942E+00  0.64840683454E+01 -0.16706377502E+03  0.16718961278E+03  0.00000000000E+00 0.  1.
        -15    1    1    2    0    0 -0.17992050578E+01  0.13135181273E+01 -0.13781144543E+02  0.14072673613E+02  0.17770000000E+01 0. -1.
         15    1    1    2    0    0 -0.56719131493E+01 -0.65145605595E+01  0.12960749873E+02  0.15676379184E+02  0.17770000000E+01 0.  1.
</event>
<event>
 6    1  0.1097339E-002  0.1921203E+03  0.7546771E-02  0.1061045E+00
        -11   -1    0    0    0    0  0.00000000000E+00  0.00000000000E+00  0.18250000000E+03  0.18250000000E+03  0.00000000000E+00 0.  1.
         11   -1    0    0    0    0 -0.00000000000E+00 -0.00000000000E+00 -0.18250000000E+03  0.18250000000E+03  0.00000000000E+00 0.  1.
        -11    1    1    2    0    0 -0.98643597946E+01  0.15485747600E+02  0.17190192118E+03  0.17287968209E+03  0.00000000000E+00 0.  1.
         11    1    1    2    0    0  0.70392793796E+01  0.39435552432E+01 -0.13762208591E+03  0.13785841146E+03  0.00000000000E+00 0.  1.
        -15    1    1    2    0    0  0.14956185171E+02 -0.11869158600E+00 -0.27533838359E+01  0.15311447159E+02  0.17770000000E+01 0.  1.
         15    1    1    2    0    0 -0.12131104756E+02 -0.19310611257E+02 -0.31526451437E+02  0.38950459290E+02  0.17770000000E+01 0. -1.
</event>
<event>
 6    1  0.1097339E-002  0.1838079E+03  0.7546771E-02  0.1067418E+00
        -11   -1    0    0    0    0  0.00000000000E+00  0.00000000000E+00  0.18250000000E+03  0.18250000000E+03  0.00000000000E+00 0.  1.
         11   -1    0    0    0    0 -0.00000000000E+00 -0.00000000000E+00 -0.18250000000E+03  0.18250000000E+03  0.00000000000E+00 0.  1.
        -11    1    1    2    0    0 -0.23107001494E+01  0.22332115891E+01  0.17448903155E+03  0.17451861993E+03  0.00000000000E+00 0.  1.
         11    1    1    2    0    0  0.28211025998E+01 -0.39127593764E+01 -0.18112786578E+03  0.18119208610E+03  0.00000000000E+00 0.  1.
        -15    1    1    2    0    0 -0.14448804601E+00  0.34822357576E+01  0.35890887698E+01  0.53090611095E+01  0.17770000000E+01 0.  1.
         15    1    1    2    0    0 -0.36591440439E+00 -0.18026879703E+01  0.30497454542E+01  0.39802328581E+01  0.17770000000E+01 0. -1.
</event>
<event>
 6    1  0.1097339E-002  0.1868941E+03  0.7546771E-02  0.1065010E+00
        -11   -1    0    0    0    0  0.00000000000E+00  0.00000000000E+00  0.18250000000E+03  0.18250000000E+03  0.00000000000E+00 0.  1.
         11   -1    0    0    0    0 -0.00000000000E+00 -0.00000000000E+00 -0.18250000000E+03  0.18250000000E+03  0.00000000000E+00 0.  1.
        -11    1    1    2    0    0  0.14716078381E+00 -0.71263724363E+01  0.17796316199E+03  0.17810585017E+03  0.00000000000E+00 0.  1.
         11    1    1    2    0    0 -0.46664181794E+01  0.44690109656E+01 -0.11402120784E+03  0.11420413020E+03  0.00000000000E+00 0.  1.
        -15    1    1    2    0    0  0.67015398031E+01 -0.10259053793E+01 -0.66851037439E+02  0.67217423733E+02  0.17770000000E+01 0.  1.
         15    1    1    2    0    0 -0.21822824074E+01  0.36832668499E+01  0.29090832974E+01  0.54725958945E+01  0.17770000000E+01 0. -1.
</event>
<event>
 6    1  0.1097339E-002  0.1827794E+03  0.7546771E-02  0.1068233E+00
        -11   -1    0    0    0    0  0.00000000000E+00  0.00000000000E+00  0.18250000000E+03  0.18250000000E+03  0.00000000000E+00 0. -1.
         11   -1    0    0    0    0 -0.00000000000E+00 -0.00000000000E+00 -0.18250000000E+03  0.18250000000E+03  0.00000000000E+00 0. -1.
        -11    1    1    2    0    0  0.23806669738E+01 -0.23007628714E+00  0.13253636430E+03  0.13255794345E+03  0.00000000000E+00 0. -1.
         11    1    1    2    0    0 -0.14998939311E+01  0.42579621675E+01 -0.18216468978E+03  0.18222061938E+03  0.00000000000E+00 0. -1.
        -15    1    1    2    0    0 -0.10145830270E+01 -0.10196060992E+01  0.38243950330E+02  0.38312223130E+02  0.17770000000E+01 0. -1.
         15    1    1    2    0    0  0.13380998424E+00 -0.30082797812E+01  0.11384375152E+02  0.11909214036E+02  0.17770000000E+01 0.  1.
</event>
<event>
 6    1  0.1097339E-002  0.1882024E+03  0.7546771E-02  0.1064004E+00
        -11   -1    0    0    0    0  0.00000000000E+00  0.00000000000E+00  0.18250000000E+03  0.18250000000E+03  0.00000000000E+00 0.  1.
         11   -1    0    0    0    0 -0.00000000000E+00 -0.00000000000E+00 -0.18250000000E+03  0.18250000000E+03  0.00000000000E+00 0. -1.
        -11    1    1    2    0    0 -0.83225597136E+00 -0.42168072201E+00  0.68969514938E+02  0.68975825152E+02  0.00000000000E+00 0.  1.
         11    1    1    2    0    0 -0.27076115007E+01  0.30806962134E+01 -0.17675006539E+03  0.17679764553E+03  0.00000000000E+00 0. -1.
        -15    1    1    2    0    0  0.36068223090E+01  0.52544815720E+01  0.11048025227E+03  0.11067819394E+03  0.17770000000E+01 0.  1.
         15    1    1    2    0    0 -0.66954836933E-01 -0.79134970633E+01 -0.26997018163E+01  0.85483353712E+01  0.17770000000E+01 0. -1.
</event>
<event>
 6    1  0.1097339E-002  0.1833236E+03  0.7546771E-02  0.1067801E+00
        -11   -1    0    0    0    0  0.00000000000E+00  0.00000000000E+00  0.18250000000E+03  0.18250000000E+03  0.00000000000E+00 0.  1.
         11   -1    0    0    0    0 -0.00000000000E+00 -0.00000000000E+00 -0.18250000000E+03  0.18250000000E+03  0.00000000000E+00 0.  1.
        -11    1    1    2    0    0 -0.15002134980E+00  0.12020805373E+01  0.12641629860E+02  0.12699539738E+02  0.00000000000E+00 0.  1.
         11    1    1    2    0    0  0.40562709321E+01  0.31278608818E+01 -0.18160421932E+03  0.18167644130E+03  0.00000000000E+00 0.  1.
        -15    1    1    2    0    0  0.35152190999E+01 -0.38985818382E+01  0.15101475844E+03  0.15111641440E+03  0.17770000000E+01 0.  1.
         15    1    1    2    0    0 -0.74214686821E+01 -0.43135958085E+00  0.17947831021E+02  0.19507604564E+02  0.17770000000E+01 0. -1.
</event>
<event>
 6    1  0.1097339E-002  0.1777204E+03  0.7546771E-02  0.1072324E+00
        -11   -1    0    0    0    0  0.00000000000E+00  0.00000000000E+00  0.18250000000E+03  0.18250000000E+03  0.00000000000E+00 0.  1.
         11   -1    0    0    0    0 -0.00000000000E+00 -0.00000000000E+00 -0.18250000000E+03  0.18250000000E+03  0.00000000000E+00 0.  1.
        -11    1    1    2    0    0 -0.30451111472E+01 -0.50452148415E+00  0.17882670035E+03  0.17885333657E+03  0.00000000000E+00 0.  1.
         11    1    1    2    0    0  0.17124999050E+00 -0.26620706917E+01 -0.17659999460E+03  0.17662014052E+03  0.00000000000E+00 0.  1.
        -15    1    1    2    0    0 -0.10083442807E+01  0.23548101705E+01 -0.37903014540E+01  0.49077493049E+01  0.17770000000E+01 0. -1.
         15    1    1    2    0    0  0.38822054374E+01  0.81178200537E+00  0.15635956985E+01  0.46187736024E+01  0.17770000000E+01 0. -1.
</event>
<event>
 6    1  0.1097339E-002  0.1880633E+03  0.7546771E-02  0.1064111E+00
        -11   -1    0    0    0    0  0.00000000000E+00  0.00000000000E+00  0.18250000000E+03  0.18250000000E+03  0.00000000000E+00 0.  1.
         11   -1    0    0    0    0 -0.00000000000E+00 -0.00000000000E+00 -0.18250000000E+03  0.18250000000E+03  0.00000000000E+00 0.  1.
        -11    1    1    2    0    0 -0.71542240072E+01  0.12627867240E+01  0.17678753012E+03  0.17693673547E+03  0.00000000000E+00 0.  1.
         11    1    1    2    0    0  0.30463440170E+01 -0.18707164891E+01 -0.16898147125E+03  0.16901928120E+03  0.00000000000E+00 0.  1.
        -15    1    1    2    0    0  0.60284311321E+01 -0.12281558441E+01  0.34978771497E+01  0.72967953409E+01  0.17770000000E+01 0.  1.
         15    1    1    2    0    0 -0.19205511419E+01  0.18360856092E+01 -0.11303936024E+02  0.11747187991E+02  0.17770000000E+01 0.  1.
</event>
<event>
 6    1  0.1097339E-002  0.1836976E+03  0.7546771E-02  0.1067505E+00
        -11   -1    0    0    0    0  0.00000000000E+00  0.00000000000E+00  0.18250000000E+03  0.18250000000E+03  0.00000000000E+00 0.  1.
         11   -1    0    0    0    0 -0.00000000000E+00 -0.00000000000E+00 -0.18250000000E+03  0.18250000000E+03  0.00000000000E+00 0. -1.
        -11    1    1    2    0    0 -0.15535489522E+01  0.24952443501E+01  0.18127854039E+03  0.18130236889E+03  0.00000000000E+00 0.  1.
         11    1    1    2    0    0 -0.30030171709E+01  0.45513239346E+00 -0.16483750107E+03  0.16486548158E+03  0.00000000000E+00 0. -1.
        -15    1    1    2    0    0  0.21326552490E+01 -0.19838505808E+01 -0.18060329572E+01  0.38604877387E+01  0.17770000000E+01 0. -1.
         15    1    1    2    0    0  0.24239108741E+01 -0.96652616277E+00 -0.14635006365E+02  0.14971661800E+02  0.17770000000E+01 0. -1.
</event>
<event>
 6    1  0.1861754E-002  0.1640075E+03  0.7546771E-02  0.1084209E+00
        -11   -1    0    0    0    0  0.00000000000E+00  0.00000000000E+00  0.18250000000E+03  0.18250000000E+03  0.00000000000E+00 0.  1.
         11   -1    0    0    0    0 -0.00000000000E+00 -0.00000000000E+00 -0.18250000000E+03  0.18250000000E+03  0.00000000000E+00 0. -1.
        -11    1    1    2    0    0 -0.14538619188E+01 -0.76793358856E+01  0.16325135582E+03  0.16343834034E+03  0.00000000000E+00 0.  1.
         11    1    1    2    0    0  0.18085209073E+02  0.16189942238E+01 -0.16405305912E+03  0.16505484584E+03  0.00000000000E+00 0. -1.
        -15    1    1    2    0    0 -0.13260368057E+01  0.47508845501E+01  0.14767225899E+02  0.15670289320E+02  0.17770000000E+01 0.  1.
         15    1    1    2    0    0 -0.15305310348E+02  0.13094571117E+01 -0.13965522601E+02  0.20836524502E+02  0.17770000000E+01 0. -1.
</event>
<event>
 6    1  0.1097339E-002  0.1870817E+03  0.7546771E-02  0.1064865E+00
        -11   -1    0    0    0    0  0.00000000000E+00  0.00000000000E+00  0.18250000000E+03  0.18250000000E+03  0.00000000000E+00 0. -1.
         11   -1    0    0    0    0 -0.00000000000E+00 -0.00000000000E+00 -0.18250000000E+03  0.18250000000E+03  0.00000000000E+00 0.  1.
        -11    1    1    2    0    0 -0.28041525684E+01  0.67975078432E+01  0.17776632975E+03  0.17791834469E+03  0.00000000000E+00 0. -1.
         11    1    1    2    0    0  0.16398755012E+01  0.11760271350E+01 -0.14836842286E+03  0.14838214560E+03  0.00000000000E+00 0.  1.
        -15    1    1    2    0    0 -0.83503238033E+00  0.11131309046E+01 -0.29136420071E+02  0.29223706867E+02  0.17770000000E+01 0. -1.
         15    1    1    2    0    0  0.19993094475E+01 -0.90866658829E+01 -0.26148682238E+00  0.94758028415E+01  0.17770000000E+01 0. -1.
</event>
<event>
 6    1  0.1097339E-002  0.1829250E+03  0.7546771E-02  0.1068117E+00
        -11   -1    0    0    0    0  0.00000000000E+00  0.00000000000E+00  0.18250000000E+03  0.18250000000E+03  0.00000000000E+00 0. -1.
         11   -1    0    0    0    0 -0.00000000000E+00 -0.00000000000E+00 -0.18250000000E+03  0.18250000000E+03  0.00000000000E+00 0. -1.
        -11    1    1    2    0    0  0.27525735299E+00 -0.20769467740E+01  0.12826631064E+03  0.12828342028E+03  0.00000000000E+00 0. -1.
         11    1    1    2    0    0  0.24578736225E+01 -0.18846889983E+01 -0.18204866940E+03  0.18207501538E+03  0.00000000000E+00 0. -1.
        -15    1    1    2    0    0  0.50573358171E+00 -0.86903498433E+00  0.40180127276E+01  0.45070104880E+01  0.17770000000E+01 0. -1.
         15    1    1    2    0    0 -0.32388645572E+01  0.48306707567E+01  0.49764346037E+02  0.50134553843E+02  0.17770000000E+01 0. -1.
</event>
<event>
 6    1  0.1097339E-002  0.1828329E+03  0.7546771E-02  0.1068190E+00
        -11   -1    0    0    0    0  0.00000000000E+00  0.00000000000E+00  0.18250000000E+03  0.18250000000E+03  0.00000000000E+00 0.  1.
         11   -1    0    0    0    0 -0.00000000000E+00 -0.00000000000E+00 -0.18250000000E+03  0.18250000000E+03  0.00000000000E+00 0.  1.
        -11    1    1    2    0    0  0.15885617387E+01 -0.13053535920E+01  0.13378001455E+03  0.13379581372E+03  0.00000000000E+00 0.  1.
         11    1    1    2    0    0  0.28422153636E+01 -0.65079985586E+00 -0.18214373251E+03  0.18216706898E+03  0.00000000000E+00 0.  1.
        -15    1    1    2    0    0 -0.25733419803E+01  0.28582711360E+01  0.15751901336E+02  0.16311711361E+02  0.17770000000E+01 0.  1.
         15    1    1    2    0    0 -0.18574351220E+01 -0.90211768816E+00  0.32611816618E+02  0.32725405936E+02  0.17770000000E+01 0. -1.
</event>
<event>
 6    1  0.1097339E-002  0.1846759E+03  0.7546771E-02  0.1066736E+00
        -11   -1    0    0    0    0  0.00000000000E+00  0.00000000000E+00  0.18250000000E+03  0.18250000000E+03  0.00000000000E+00 0.  1.
         11   -1    0    0    0    0 -0.00000000000E+00 -0.00000000000E+00 -0.18250000000E+03  0.18250000000E+03  0.00000000000E+00 0. -1.
        -11    1    1    2    0    0  0.22246005520E+01 -0.31834639995E+01  0.16224358450E+03  0.16229006131E+03  0.00000000000E+00 0.  1.
         11    1    1    2    0    0  0.11130960960E+00  0.93484104016E+01 -0.18008157281E+03  0.18032409166E+03  0.00000000000E+00 0. -1.
        -15    1    1    2    0    0 -0.33654405665E+01 -0.22602264918E+01  0.17397841277E+02  0.17952086901E+02  0.17770000000E+01 0.  1.
         15    1    1    2    0    0  0.10295304050E+01 -0.39047199103E+01  0.44014704026E+00  0.44337601254E+01  0.17770000000E+01 0. -1.
</event>
<event>
 6    1  0.1097339E-002  0.1829273E+03  0.7546771E-02  0.1068115E+00
        -11   -1    0    0    0    0  0.00000000000E+00  0.00000000000E+00  0.18250000000E+03  0.18250000000E+03  0.00000000000E+00 0.  1.
         11   -1    0    0    0    0 -0.00000000000E+00 -0.00000000000E+00 -0.18250000000E+03  0.18250000000E+03  0.00000000000E+00 0.  1.
        -11    1    1    2    0    0 -0.32070059046E+01  0.18698241114E+00  0.16079791017E+03  0.16082999647E+03  0.00000000000E+00 0.  1.
         11    1    1    2    0    0  0.27765705405E+01 -0.35657493536E+01 -0.18201663084E+03  0.18207272672E+03  0.00000000000E+00 0.  1.
        -15    1    1    2    0    0 -0.88122519401E+00  0.21919957232E+01  0.61762594689E+01  0.68472850912E+01  0.17770000000E+01 0. -1.
         15    1    1    2    0    0  0.13116605580E+01  0.11867712193E+01  0.15042461202E+02  0.15249991717E+02  0.17770000000E+01 0.  1.
</event>
<event>
 6    1  0.1097339E-002  0.1831037E+03  0.7546771E-02  0.1067975E+00
        -11   -1    0    0    0    0  0.00000000000E+00  0.00000000000E+00  0.18250000000E+03  0.18250000000E+03  0.00000000000E+00 0. -1.
         11   -1    0    0    0    0 -0.00000000000E+00 -0.00000000000E+00 -0.18250000000E+03  0.18250000000E+03  0.00000000000E+00 0.  1.
        -11    1    1    2    0    0  0.24975309703E+01  0.19629809076E+00  0.18187907046E+03  0.18189632340E+03  0.00000000000E+00 0. -1.
         11    1    1    2    0    0  0.57178540968E+00 -0.13252921807E+01 -0.43773702371E+02  0.43797492591E+02  0.00000000000E+00 0.  1.
        -15    1    1    2    0    0 -0.16306570201E+01  0.51822504969E+01 -0.12855834697E+03  0.12868535685E+03  0.17770000000E+01 0. -1.
         15    1    1    2    0    0 -0.14386593599E+01 -0.40532564070E+01 -0.95470211209E+01  0.10620827159E+02  0.17770000000E+01 0.  1.
</event>
<event>
 6    1  0.1097339E-002  0.1846360E+03  0.7546771E-02  0.1066767E+00
        -11   -1    0    0    0    0  0.00000000000E+00  0.00000000000E+00  0.18250000000E+03  0.18250000000E+03  0.00000000000E+00 0.  1.
         11   -1    0    0    0    0 -0.00000000000E+00 -0.00000000000E+00 -0.18250000000E+03  0.18250000000E+03  0.00000000000E+00 0. -1.
        -11    1    1    2    0    0 -0.42122819257E+01  0.16678908400E+00  0.18031469550E+03  0.18036396689E+03  0.00000000000E+00 0.  1.
         11    1    1    2    0    0  0.10883438234E+01  0.22180795371E+01 -0.15027328018E+03  0.15029358970E+03  0.00000000000E+00 0. -1.
        -15    1    1    2    0    0  0.54224969539E+01  0.12121223827E+01 -0.23851672015E+01  0.63023380951E+01  0.17770000000E+01 0.  1.
         15    1    1    2    0    0 -0.22985588516E+01 -0.35969910038E+01 -0.27656248116E+02  0.28040105313E+02  0.17770000000E+01 0.  1.
</event>
<event>
 6    1  0.1097339E-002  0.1868469E+03  0.7546771E-02  0.1065046E+00
        -11   -1    0    0    0    0  0.00000000000E+00  0.00000000000E+00  0.18250000000E+03  0.18250000000E+03  0.00000000000E+00 0.  1.
         11   -1    0    0    0    0 -0.00000000000E+00 -0.00000000000E+00 -0.18250000000E+03  0.18250000000E+03  0.00000000000E+00 0. -1.
        -11    1    1    2    0    0 -0.13629248668E+01  0.78484996672E+01  0.17797496302E+03  0.17815314752E+03  0.00000000000E+00 0.  1.
         11    1    1    2    0    0  0.42469343792E+01  0.93766341225E+00 -0.14820961426E+03  0.14827341442E+03  0.00000000000E+00 0. -1.
        -15    1    1    2    0    0  0.23614631604E+00 -0.25756525675E+01 -0.31115788795E+02  0.31273627749E+02  0.17770000000E+01 0. -1.
         15    1    1    2    0    0 -0.31201558285E+01 -0.62105105119E+01  0.13504400370E+01  0.72998103062E+01  0.17770000000E+01 0.  1.
</event>
<event>
 6    1  0.1097339E-002  0.1838767E+03  0.7546771E-02  0.1067364E+00
        -11   -1    0    0    0    0  0.00000000000E+00  0.00000000000E+00  0.18250000000E+03  0.18250000000E+03  0.00000000000E+00 0. -1.
         11   -1    0    0    0    0 -0.00000000000E+00 -0.00000000000E+00 -0.18250000000E+03  0.18250000000E+03  0.00000000000E+00 0. -1.
        -11    1    1    2    0    0  0.57436397267E+00 -0.25086884209E+01  0.17117147393E+03  0.17119082014E+03  0.00000000000E+00 0. -1.
         11    1    1    2    0    0 -0.23737594866E+01  0.60593212421E+00 -0.18110672918E+03  0.18112329845E+03  0.00000000000E+00 0. -1.
        -15    1    1    2    0    0  0.92038825713E+00  0.23336218763E+01  0.10187712972E+02  0.10641434593E+02  0.17770000000E+01 0.  1.
         15    1    1    2    0    0  0.87900725679E+00 -0.43086557961E+00 -0.25245772465E+00  0.20444468220E+01  0.17770000000E+01 0. -1.
</event>
<event>
 6    1  0.1688765E-002  0.1852835E+03  0.7546771E-02  0.1066260E+00
        -11   -1    0    0    0    0  0.00000000000E+00  0.00000000000E+00  0.18250000000E+03  0.18250000000E+03  0.00000000000E+00 0.  1.
         11   -1    0    0    0    0 -0.00000000000E+00 -0.00000000000E+00 -0.18250000000E+03  0.18250000000E+03  0.00000000000E+00 0. -1.
        -11    1    1    2    0    0  0.27594946189E+01 -0.21392714443E+00  0.17969515655E+03  0.17971647076E+03  0.00000000000E+00 0.  1.
         11    1    1    2    0    0 -0.47022919115E+01 -0.14386594698E+01 -0.15115492437E+03  0.15123489165E+03  0.00000000000E+00 0. -1.
        -15    1    1    2    0    0  0.32896085520E+01  0.20309253342E+01 -0.30657074028E+02  0.30950930505E+02  0.17770000000E+01 0.  1.
         15    1    1    2    0    0 -0.13468112594E+01 -0.37833871994E+00  0.21168418538E+01  0.30977070858E+01  0.17770000000E+01 0. -1.
</event>
<event>
 6    1  0.1097339E-002  0.1909860E+03  0.7546771E-02  0.1061894E+00
        -11   -1    0    0    0    0  0.00000000000E+00  0.00000000000E+00  0.18250000000E+03  0.18250000000E+03  0.00000000000E+00 0.  1.
         11   -1    0    0    0    0 -0.00000000000E+00 -0.00000000000E+00 -0.18250000000E+03  0.18250000000E+03  0.00000000000E+00 0. -1.
        -11    1    1    2    0    0  0.38880837608E+00 -0.30983962695E+01  0.17398594014E+03  0.17401396093E+03  0.00000000000E+00 0.  1.
         11    1    1    2    0    0  0.10206481932E+01 -0.41370030682E+01 -0.15337317646E+03  0.15343235570E+03  0.00000000000E+00 0. -1.
        -15    1    1    2    0    0  0.88877616559E+01 -0.35832795975E+01 -0.20289675599E+02  0.22509128478E+02  0.17770000000E+01 0.  1.
         15    1    1    2    0    0 -0.10297218225E+02  0.10818678935E+02 -0.32308807431E+00  0.15044554895E+02  0.17770000000E+01 0. -1.
</event>
<event>
 6    1  0.1097339E-002  0.1855863E+03  0.7546771E-02  0.1066024E+00
        -11   -1    0    0    0    0  0.00000000000E+00  0.00000000000E+00  0.18250000000E+03  0.18250000000E+03  0.00000000000E+00 0.  1.
         11   -1    0    0    0    0 -0.00000000000E+00 -0.00000000000E+00 -0.18250000000E+03  0.18250000000E+03  0.00000000000E+00 0. -1.
        -11    1    1    2    0    0 -0.65895280407E+00  0.73670743232E+01  0.17926114175E+03  0.17941366990E+03  0.00000000000E+00 0.  1.
         11    1    1    2    0    0  0.18056984260E+01  0.11146538839E+01 -0.14924695053E+03  0.14926203550E+03  0.00000000000E+00 0. -1.
        -15    1    1    2    0    0 -0.40091523759E+00  0.15534167634E+01 -0.24682720559E+02  0.24798553584E+02  0.17770000000E+01 0.  1.
         15    1    1    2    0    0 -0.74583038430E+00 -0.10035144971E+02 -0.53314706664E+01  0.11525741018E+02  0.17770000000E+01 0. -1.
</event>
<event>
 6    1  0.1097339E-002  0.1846589E+03  0.7546771E-02  0.1066749E+00
        -11   -1    0    0    0    0  0.00000000000E+00  0.00000000000E+00  0.18250000000E+03  0.18250000000E+03  0.00000000000E+00 0.  1.
         11   -1    0    0    0    0 -0.00000000000E+00 -0.00000000000E+00 -0.18250000000E+03  0.18250000000E+03  0.00000000000E+00 0. -1.
        -11    1    1    2    0    0 -0.14856990942E+01 -0.35808357410E+01  0.18029940682E+03  0.18034108181E+03  0.00000000000E+00 0.  1.
         11    1    1    2    0    0  0.50666513389E+01  0.16888422340E+01 -0.10968065036E+03  0.10981060152E+03  0.00000000000E+00 0. -1.
        -15    1    1    2    0    0  0.11180266309E+01  0.49247298348E+01 -0.16098736321E+01  0.55903818836E+01  0.17770000000E+01 0.  1.
         15    1    1    2    0    0 -0.46989788756E+01 -0.30327363278E+01 -0.69008882833E+02  0.69257934787E+02  0.17770000000E+01 0. -1.
</event>
<event>
 6    1  0.1097339E-002  0.1833990E+03  0.7546771E-02  0.1067741E+00
        -11   -1    0    0    0    0  0.00000000000E+00  0.00000000000E+00  0.18250000000E+03  0.18250000000E+03  0.00000000000E+00 0.  1.
         11   -1    0    0    0    0 -0.00000000000E+00 -0.00000000000E+00 -0.18250000000E+03  0.18250000000E+03  0.00000000000E+00 0. -1.
        -11    1    1    2    0    0  0.22030251722E+01 -0.37079412145E+01  0.18154979292E+03  0.18160101722E+03  0.00000000000E+00 0.  1.
         11    1    1    2    0    0 -0.31552256287E+01  0.16743729815E+00 -0.17112891738E+03  0.17115808437E+03  0.00000000000E+00 0. -1.
        -15    1    1    2    0    0  0.24175520589E+01  0.21035499180E+01 -0.52750229329E+01  0.64228557634E+01  0.17770000000E+01 0. -1.
         15    1    1    2    0    0 -0.14653516024E+01  0.14369539983E+01 -0.51458526075E+01  0.58180426408E+01  0.17770000000E+01 0.  1.
</event>
<event>
 6    1  0.1097339E-002  0.1839081E+03  0.7546771E-02  0.1067339E+00
        -11   -1    0    0    0    0  0.00000000000E+00  0.00000000000E+00  0.18250000000E+03  0.18250000000E+03  0.00000000000E+00 0.  1.
         11   -1    0    0    0    0 -0.00000000000E+00 -0.00000000000E+00 -0.18250000000E+03  0.18250000000E+03  0.00000000000E+00 0.  1.
        -11    1    1    2    0    0  0.34474296679E+01 -0.17087828494E+01  0.17062863218E+03  0.17067200951E+03  0.00000000000E+00 0.  1.
         11    1    1    2    0    0 -0.80033068449E+00  0.32402185685E+01 -0.18106111064E+03  0.18109186987E+03  0.00000000000E+00 0.  1.
        -15    1    1    2    0    0  0.83954995057E+00 -0.30354786663E+00 -0.40077818742E-01  0.19890501900E+01  0.17770000000E+01 0.  1.
         15    1    1    2    0    0 -0.34866489340E+01 -0.12278878524E+01  0.10472556282E+02  0.11247070438E+02  0.17770000000E+01 0. -1.
</event>
<event>
 6    1  0.1097339E-002  0.1827376E+03  0.7546771E-02  0.1068266E+00
        -11   -1    0    0    0    0  0.00000000000E+00  0.00000000000E+00  0.18250000000E+03  0.18250000000E+03  0.00000000000E+00 0. -1.
         11   -1    0    0    0    0 -0.00000000000E+00 -0.00000000000E+00 -0.18250000000E+03  0.18250000000E+03  0.00000000000E+00 0.  1.
        -11    1    1    2    0    0  0.26093242851E+01 -0.25275214114E+01  0.11791786329E+03  0.11797380820E+03  0.00000000000E+00 0. -1.
         11    1    1    2    0    0 -0.24505429283E+01  0.49547279439E+00 -0.18224526599E+03  0.18226241420E+03  0.00000000000E+00 0.  1.
        -15    1    1    2    0    0  0.29382401366E+01  0.11244203398E+01  0.39440104770E+02  0.39605266941E+02  0.17770000000E+01 0. -1.
         15    1    1    2    0    0 -0.30970214934E+01  0.90762827722E+00  0.24887297932E+02  0.25158510659E+02  0.17770000000E+01 0. -1.
</event>
<event>
 6    1  0.1097339E-002  0.1734817E+03  0.7546771E-02  0.1075869E+00
        -11   -1    0    0    0    0  0.00000000000E+00  0.00000000000E+00  0.18250000000E+03  0.18250000000E+03  0.00000000000E+00 0.  1.
         11   -1    0    0    0    0 -0.00000000000E+00 -0.00000000000E+00 -0.18250000000E+03  0.18250000000E+03  0.00000000000E+00 0.  1.
        -11    1    1    2    0    0  0.38361467736E+01  0.64992143218E+00  0.17377403073E+03  0.17381758305E+03  0.00000000000E+00 0.  1.
         11    1    1    2    0    0  0.16694742549E+01  0.18384886001E+01 -0.17318106326E+03  0.17319886794E+03  0.00000000000E+00 0.  1.
        -15    1    1    2    0    0  0.84481047141E+00 -0.50396192383E+00  0.72600174426E+01  0.75387840279E+01  0.17770000000E+01 0.  1.
         15    1    1    2    0    0 -0.63504314999E+01 -0.19844481085E+01 -0.78529849141E+01  0.10444764985E+02  0.17770000000E+01 0.  1.
</event>
<event>
 6    1  0.1097339E-002  0.1848908E+03  0.7546771E-02  0.1066567E+00
        -11   -1    0    0    0    0  0.00000000000E+00  0.00000000000E+00  0.18250000000E+03  0.18250000000E+03  0.00000000000E+00 0.  1.
         11   -1    0    0    0    0 -0.00000000000E+00 -0.00000000000E+00 -0.18250000000E+03  0.18250000000E+03  0.00000000000E+00 0. -1.
        -11    1    1    2    0    0 -0.11841417530E+02  0.48021608743E+01  0.12763990539E+03  0.12827792236E+03  0.00000000000E+00 0.  1.
         11    1    1    2    0    0 -0.16667693462E+01  0.31331594052E+01 -0.18007419252E+03  0.18010916028E+03  0.00000000000E+00 0. -1.
        -15    1    1    2    0    0  0.61308160013E+01  0.37207803495E+01  0.20060367499E+02  0.21377726363E+02  0.17770000000E+01 0. -1.
         15    1    1    2    0    0  0.73773708747E+01 -0.11656100629E+02  0.32373919632E+02  0.35235190992E+02  0.17770000000E+01 0.  1.
</event>
<event>
 6    1  0.1097339E-002  0.1764725E+03  0.7546771E-02  0.1073357E+00
        -11   -1    0    0    0    0  0.00000000000E+00  0.00000000000E+00  0.18250000000E+03  0.18250000000E+03  0.00000000000E+00 0.  1.
         11   -1    0    0    0    0 -0.00000000000E+00 -0.00000000000E+00 -0.18250000000E+03  0.18250000000E+03  0.00000000000E+00 0. -1.
        -11    1    1    2    0    0  0.27182468222E+01  0.94069052118E+00  0.17826630498E+03  0.17828950966E+03  0.00000000000E+00 0.  1.
         11    1    1    2    0    0  0.33731816958E+01  0.20350259356E+01 -0.17469421720E+03  0.17473863112E+03  0.00000000000E+00 0. -1.
        -15    1    1    2    0    0 -0.58540233377E+01 -0.55446194522E+01 -0.30167617010E+01  0.87903910191E+01  0.17770000000E+01 0. -1.
         15    1    1    2    0    0 -0.23740518030E+00  0.25689029954E+01 -0.55532608215E+00  0.31814681952E+01  0.17770000000E+01 0.  1.
</event>
<event>
 6    1  0.1097339E-002  0.1828628E+03  0.7546771E-02  0.1068166E+00
        -11   -1    0    0    0    0  0.00000000000E+00  0.00000000000E+00  0.18250000000E+03  0.18250000000E+03  0.00000000000E+00 0.  1.
         11   -1    0    0    0    0 -0.00000000000E+00 -0.00000000000E+00 -0.18250000000E+03  0.18250000000E+03  0.00000000000E+00 0. -1.
        -11    1    1    2    0    0  0.95480066085E+00  0.17731861907E+01  0.94998803980E+02  0.95020148343E+02  0.00000000000E+00 0.  1.
         11    1    1    2    0    0 -0.11736850202E+01 -0.26461620303E+01 -0.18211423452E+03  0.18213723980E+03  0.00000000000E+00 0. -1.
        -15    1    1    2    0    0  0.44992586354E+00 -0.32259517107E+01  0.71575227937E+02  0.71671334444E+02  0.17770000000E+01 0.  1.
         15    1    1    2    0    0 -0.23104150423E+00  0.40989275504E+01  0.15540202599E+02  0.16171277410E+02  0.17770000000E+01 0.  1.
</event>
<event>
 6    1  0.1097339E-002  0.1827064E+03  0.7546771E-02  0.1068291E+00
        -11   -1    0    0    0    0  0.00000000000E+00  0.00000000000E+00  0.18250000000E+03  0.18250000000E+03  0.00000000000E+00 0. -1.
         11   -1    0    0    0    0 -0.00000000000E+00 -0.00000000000E+00 -0.18250000000E+03  0.18250000000E+03  0.00000000000E+00 0.  1.
        -11    1    1    2    0    0  0.60788342312E+00  0.37570309114E+01  0.12604214380E+03  0.12609959087E+03  0.00000000000E+00 0. -1.
         11    1    1    2    0    0 -0.72600874409E+00 -0.39813917485E+01 -0.18224867218E+03  0.18229360131E+03  0.00000000000E+00 0.  1.
        -15    1    1    2    0    0 -0.19238568262E+01 -0.80919797771E-01  0.10601675963E+02  0.10920670095E+02  0.17770000000E+01 0.  1.
         15    1    1    2    0    0  0.20419821472E+01  0.30528063483E+00  0.45604852415E+02  0.45686137724E+02  0.17770000000E+01 0. -1.
</event>
<event>
 6    1  0.1097339E-002  0.1825641E+03  0.7546771E-02  0.1068404E+00
        -11   -1    0    0    0    0  0.00000000000E+00  0.00000000000E+00  0.18250000000E+03  0.18250000000E+03  0.00000000000E+00 0.  1.
         11   -1    0    0    0    0 -0.00000000000E+00 -0.00000000000E+00 -0.18250000000E+03  0.18250000000E+03  0.00000000000E+00 0. -1.
        -11    1    1    2    0    0  0.47985026831E+00 -0.17166640364E+01  0.90165110096E+02  0.90182727117E+02  0.00000000000E+00 0.  1.
         11    1    1    2    0    0 -0.17435527882E+01  0.37200625603E+01 -0.18238962078E+03  0.18243588630E+03  0.00000000000E+00 0. -1.
        -15    1    1    2    0    0  0.74944997566E+00 -0.19655764623E+01  0.76310932017E+02  0.76360600053E+02  0.17770000000E+01 0. -1.
         15    1    1    2    0    0  0.51425254420E+00 -0.37822061693E-01  0.15913578665E+02  0.16020786532E+02  0.17770000000E+01 0. -1.
</event>
<event>
 6    1  0.1097339E-002  0.1826872E+03  0.7546771E-02  0.1068306E+00
        -11   -1    0    0    0    0  0.00000000000E+00  0.00000000000E+00  0.18250000000E+03  0.18250000000E+03  0.00000000000E+00 0.  1.
         11   -1    0    0    0    0 -0.00000000000E+00 -0.00000000000E+00 -0.18250000000E+03  0.18250000000E+03  0.00000000000E+00 0. -1.
        -11    1    1    2    0    0 -0.29418277892E+01 -0.21075483894E+00  0.74508713855E+02  0.74567065174E+02  0.00000000000E+00 0.  1.
         11    1    1    2    0    0 -0.35933209801E+01 -0.13545312128E+01 -0.18227231968E+03  0.18231276760E+03  0.00000000000E+00 0. -1.
        -15    1    1    2    0    0  0.95186117227E+00  0.13748392218E+01  0.50086182606E+02  0.50145584448E+02  0.17770000000E+01 0.  1.
         15    1    1    2    0    0  0.55832875970E+01  0.19044682991E+00  0.57677423214E+02  0.57974582776E+02  0.17770000000E+01 0.  1.
</event>
<event>
 6    1  0.1097339E-002  0.1741567E+03  0.7546771E-02  0.1075297E+00
        -11   -1    0    0    0    0  0.00000000000E+00  0.00000000000E+00  0.18250000000E+03  0.18250000000E+03  0.00000000000E+00 0.  1.
         11   -1    0    0    0    0 -0.00000000000E+00 -0.00000000000E+00 -0.18250000000E+03  0.18250000000E+03  0.00000000000E+00 0. -1.
        -11    1    1    2    0    0  0.23835184676E+01 -0.28292391505E+01  0.17527212987E+03  0.17531116697E+03  0.00000000000E+00 0.  1.
         11    1    1    2    0    0 -0.43158524912E+01  0.11915522743E+02 -0.17267143441E+03  0.17313587301E+03  0.00000000000E+00 0. -1.
        -15    1    1    2    0    0  0.64655299404E+01 -0.59120134092E+01  0.19757935675E+01  0.91551334880E+01  0.17770000000E+01 0. -1.
         15    1    1    2    0    0 -0.45331959168E+01 -0.31742701830E+01 -0.45764890357E+01  0.73978265260E+01  0.17770000000E+01 0.  1.
</event>
<event>
 6    1  0.1097339E-002  0.2276656E+03  0.7546771E-02  0.1037288E+00
        -11   -1    0    0    0    0  0.00000000000E+00  0.00000000000E+00  0.18250000000E+03  0.18250000000E+03  0.00000000000E+00 0.  1.
         11   -1    0    0    0    0 -0.00000000000E+00 -0.00000000000E+00 -0.18250000000E+03  0.18250000000E+03  0.00000000000E+00 0. -1.
        -11    1    1    2    0    0 -0.36557117018E+00 -0.23866789997E+01  0.10248276493E+03  0.10251120420E+03  0.00000000000E+00 0.  1.
         11    1    1    2    0    0 -0.21538070621E+02  0.46515657601E+01 -0.13555520908E+03  0.13733441033E+03  0.00000000000E+00 0. -1.
        -15    1    1    2    0    0  0.28345626608E+02  0.28634655733E+02 -0.32867696052E+02  0.52027504548E+02  0.17770000000E+01 0. -1.
         15    1    1    2    0    0 -0.64419848165E+01 -0.30899542493E+02  0.65940140203E+02  0.73126880924E+02  0.17770000000E+01 0.  1.
</event>
<event>
 6    1  0.1097339E-002  0.1835499E+03  0.7546771E-02  0.1067622E+00
        -11   -1    0    0    0    0  0.00000000000E+00  0.00000000000E+00  0.18250000000E+03  0.18250000000E+03  0.00000000000E+00 0. -1.
         11   -1    0    0    0    0 -0.00000000000E+00 -0.00000000000E+00 -0.18250000000E+03  0.18250000000E+03  0.00000000000E+00 0. -1.
        -11    1    1    2    0    0 -0.19798623790E+01  0.20848725873E+01  0.18142735548E+03  0.18145013603E+03  0.00000000000E+00 0. -1.
         11    1    1    2    0    0  0.17813527478E+01  0.72025283669E+00 -0.14107926475E+03  0.14109234893E+03  0.00000000000E+00 0. -1.
        -15    1    1    2    0    0  0.36287739978E+01  0.11031216416E+01 -0.43360282080E+01  0.60285775854E+01  0.17770000000E+01 0.  1.
         15    1    1    2    0    0 -0.34302643666E+01 -0.39082470656E+01 -0.36012062517E+02  0.36428937460E+02  0.17770000000E+01 0. -1.
</event>
<event>
 6    1  0.1097339E-002  0.1872512E+03  0.7546771E-02  0.1064735E+00
        -11   -1    0    0    0    0  0.00000000000E+00  0.00000000000E+00  0.18250000000E+03  0.18250000000E+03  0.00000000000E+00 0.  1.
         11   -1    0    0    0    0 -0.00000000000E+00 -0.00000000000E+00 -0.18250000000E+03  0.18250000000E+03  0.00000000000E+00 0.  1.
        -11    1    1    2    0    0  0.71547390303E+01 -0.24189268956E+01  0.17758824062E+03  0.17774876851E+03  0.00000000000E+00 0.  1.
         11    1    1    2    0    0 -0.16399680505E+01 -0.45080893721E+01 -0.14657858037E+03  0.14665705775E+03  0.00000000000E+00 0.  1.
        -15    1    1    2    0    0 -0.60449392624E+01  0.43372292817E+01  0.16121189099E+01  0.78172568659E+01  0.17770000000E+01 0. -1.
         15    1    1    2    0    0  0.53016828264E+00  0.25897869860E+01 -0.32621779161E+02  0.32776916872E+02  0.17770000000E+01 0.  1.
</event>
<event>
 6    1  0.1097339E-002  0.1876809E+03  0.7546771E-02  0.1064404E+00
        -11   -1    0    0    0    0  0.00000000000E+00  0.00000000000E+00  0.18250000000E+03  0.18250000000E+03  0.00000000000E+00 0.  1.
         11   -1    0    0    0    0 -0.00000000000E+00 -0.00000000000E+00 -0.18250000000E+03  0.18250000000E+03  0.00000000000E+00 0.  1.
        -11    1    1    2    0    0  0.63188188606E+00  0.10769241446E+02  0.15487732858E+03  0.15525257725E+03  0.00000000000E+00 0.  1.
         11    1    1    2    0    0 -0.47538343395E+01  0.25086512828E+01 -0.17723761585E+03  0.17731910429E+03  0.00000000000E+00 0.  1.
        -15    1    1    2    0    0  0.26366264067E+01 -0.10550558582E+02  0.25429465041E+02  0.27714283438E+02  0.17770000000E+01 0.  1.
         15    1    1    2    0    0  0.14853260468E+01 -0.27273341469E+01 -0.30691777700E+01  0.47140350229E+01  0.17770000000E+01 0. -1.
</event>
<event>
 6    1  0.1097339E-002  0.1836634E+03  0.7546771E-02  0.1067533E+00
        -11   -1    0    0    0    0  0.00000000000E+00  0.00000000000E+00  0.18250000000E+03  0.18250000000E+03  0.00000000000E+00 0. -1.
         11   -1    0    0    0    0 -0.00000000000E+00 -0.00000000000E+00 -0.18250000000E+03  0.18250000000E+03  0.00000000000E+00 0.  1.
        -11    1    1    2    0    0 -0.28328102091E+01 -0.25347368443E+01  0.18129676500E+03  0.18133661159E+03  0.00000000000E+00 0. -1.
         11    1    1    2    0    0  0.18477711697E+01 -0.14917290065E+01 -0.17538999487E+03  0.17540607120E+03  0.00000000000E+00 0.  1.
        -15    1    1    2    0    0  0.93925409997E+00  0.21774998744E+01 -0.19688768015E+01  0.35577955010E+01  0.17770000000E+01 0.  1.
         15    1    1    2    0    0  0.45784939361E-01  0.18489659763E+01 -0.39378933291E+01  0.46995217112E+01  0.17770000000E+01 0. -1.
</event>
<event>
 6    1  0.1097339E-002  0.1834887E+03  0.7546771E-02  0.1067671E+00
        -11   -1    0    0    0    0  0.00000000000E+00  0.00000000000E+00  0.18250000000E+03  0.18250000000E+03  0.00000000000E+00 0.  1.
         11   -1    0    0    0    0 -0.00000000000E+00 -0.00000000000E+00 -0.18250000000E+03  0.18250000000E+03  0.00000000000E+00 0.  1.
        -11    1    1    2    0    0 -0.37465275560E+01  0.72993527589E+00  0.18147120747E+03  0.18151134514E+03  0.00000000000E+00 0.  1.
         11    1    1    2    0    0 -0.12170229642E+01  0.36866226738E+01 -0.11365121411E+03  0.11371750437E+03  0.00000000000E+00 0.  1.
        -15    1    1    2    0    0  0.47298496580E+01  0.32921395698E+01 -0.12397417722E+02  0.13786346721E+02  0.17770000000E+01 0. -1.
         15    1    1    2    0    0  0.23370086215E+00 -0.77086975195E+01 -0.55422575640E+02  0.55984803769E+02  0.17770000000E+01 0. -1.
</event>
<event>
 6    1  0.1097339E-002  0.1852021E+03  0.7546771E-02  0.1066324E+00
        -11   -1    0    0    0    0  0.00000000000E+00  0.00000000000E+00  0.18250000000E+03  0.18250000000E+03  0.00000000000E+00 0. -1.
         11   -1    0    0    0    0 -0.00000000000E+00 -0.00000000000E+00 -0.18250000000E+03  0.18250000000E+03  0.00000000000E+00 0.  1.
        -11    1    1    2    0    0  0.49913074093E+01  0.15980724851E+01  0.16941747439E+03  0.16949851803E+03  0.00000000000E+00 0. -1.
         11    1    1    2    0    0 -0.72706970591E+00 -0.66525682582E+01 -0.17967329485E+03  0.17979788146E+03  0.00000000000E+00 0.  1.
        -15    1    1    2    0    0 -0.56267946636E+01  0.49705617850E+00  0.84414518000E+01  0.10311339415E+02  0.17770000000E+01 0.  1.
         15    1    1    2    0    0  0.13625569602E+01  0.45574395947E+01  0.18143686556E+01  0.53922610979E+01  0.17770000000E+01 0. -1.
</event>
<event>
 6    1  0.1097339E-002  0.1840224E+03  0.7546771E-02  0.1067249E+00
        -11   -1    0    0    0    0  0.00000000000E+00  0.00000000000E+00  0.18250000000E+03  0.18250000000E+03  0.00000000000E+00 0. -1.
         11   -1    0    0    0    0 -0.00000000000E+00 -0.00000000000E+00 -0.18250000000E+03  0.18250000000E+03  0.00000000000E+00 0. -1.
        -11    1    1    2    0    0  0.92827065796E+01 -0.50495864550E+00  0.12331124242E+03  0.12366117471E+03  0.00000000000E+00 0. -1.
         11    1    1    2    0    0  0.52753032068E+01  0.79200406160E+00 -0.18089899276E+03  0.18097762756E+03  0.00000000000E+00 0. -1.
        -15    1    1    2    0    0 -0.10764637183E+02  0.14676790859E+01  0.52039497633E+02  0.53191150942E+02  0.17770000000E+01 0. -1.
         15    1    1    2    0    0 -0.37933726032E+01 -0.17547245020E+01  0.55482527113E+01  0.71700467873E+01  0.17770000000E+01 0.  1.
</event>
<event>
 6    1  0.1097339E-002  0.1831536E+03  0.7546771E-02  0.1067936E+00
        -11   -1    0    0    0    0  0.00000000000E+00  0.00000000000E+00  0.18250000000E+03  0.18250000000E+03  0.00000000000E+00 0.  1.
         11   -1    0    0    0    0 -0.00000000000E+00 -0.00000000000E+00 -0.18250000000E+03  0.18250000000E+03  0.00000000000E+00 0.  1.
        -11    1    1    2    0    0 -0.27345344189E+01  0.64803731146E+01  0.18171034684E+03  0.18184642713E+03  0.00000000000E+00 0.  1.
         11    1    1    2    0    0 -0.32519192341E+01 -0.22973399532E+01 -0.90064316391E+02  0.90152281372E+02  0.00000000000E+00 0.  1.
        -15    1    1    2    0    0  0.78253209916E+00 -0.40958312896E+01 -0.81609244314E+01  0.93352347059E+01  0.17770000000E+01 0. -1.
         15    1    1    2    0    0  0.52039215539E+01 -0.87201871880E-01 -0.83485106012E+02  0.83666056789E+02  0.17770000000E+01 0.  1.
</event>
<event>
 6    1  0.1097339E-002  0.2125830E+03  0.7546771E-02  0.1046749E+00
        -11   -1    0    0    0    0  0.00000000000E+00  0.00000000000E+00  0.18250000000E+03  0.18250000000E+03  0.00000000000E+00 0. -1.
         11   -1    0    0    0    0 -0.00000000000E+00 -0.00000000000E+00 -0.18250000000E+03  0.18250000000E+03  0.00000000000E+00 0. -1.
        -11    1    1    2    0    0  0.31932518530E+01 -0.10206673092E+01  0.13257220292E+03  0.13261458294E+03  0.00000000000E+00 0. -1.
         11    1    1    2    0    0  0.17354589287E+01 -0.72816452895E+01 -0.15223306041E+03  0.15241699006E+03  0.00000000000E+00 0. -1.
        -15    1    1    2    0    0  0.83359850518E+00  0.10361588903E+02 -0.29017687033E+02  0.30874606083E+02  0.17770000000E+01 0. -1.
         15    1    1    2    0    0 -0.57623092870E+01 -0.20592763047E+01  0.48678544521E+02  0.49093820924E+02  0.17770000000E+01 0.  1.
</event>
<event>
 6    1  0.1097339E-002  0.1829804E+03  0.7546771E-02  0.1068073E+00
        -11   -1    0    0    0    0  0.00000000000E+00  0.00000000000E+00  0.18250000000E+03  0.18250000000E+03  0.00000000000E+00 0.  1.
         11   -1    0    0    0    0 -0.00000000000E+00 -0.00000000000E+00 -0.18250000000E+03  0.18250000000E+03  0.00000000000E+00 0. -1.
        -11    1    1    2    0    0  0.38754193425E+01  0.10752050652E+02  0.18166043579E+03  0.18201961268E+03  0.00000000000E+00 0.  1.
         11    1    1    2    0    0 -0.12730337328E+01  0.21590893796E+00 -0.35175334605E+02  0.35199025500E+02  0.00000000000E+00 0. -1.
        -15    1    1    2    0    0  0.23969489416E+01 -0.12736512673E+02 -0.12008247812E+03  0.12079289466E+03  0.17770000000E+01 0. -1.
         15    1    1    2    0    0 -0.49993345514E+01  0.17685530831E+01 -0.26402623065E+02  0.26988467160E+02  0.17770000000E+01 0.  1.
</event>
<event>
 6    1  0.1097339E-002  0.1944479E+03  0.7546771E-02  0.1059323E+00
        -11   -1    0    0    0    0  0.00000000000E+00  0.00000000000E+00  0.18250000000E+03  0.18250000000E+03  0.00000000000E+00 0.  1.
         11   -1    0    0    0    0 -0.00000000000E+00 -0.00000000000E+00 -0.18250000000E+03  0.18250000000E+03  0.00000000000E+00 0.  1.
        -11    1    1    2    0    0 -0.15773322146E+01  0.17017973712E+01  0.16330312214E+03  0.16331960627E+03  0.00000000000E+00 0.  1.
         11    1    1    2    0    0 -0.43648648018E+01 -0.20825499361E+01 -0.17048352444E+03  0.17055210689E+03  0.00000000000E+00 0.  1.
        -15    1    1    2    0    0  0.10062930409E+02  0.29602207470E+01 -0.91281274897E+01  0.14018056776E+02  0.17770000000E+01 0. -1.
         15    1    1    2    0    0 -0.41207333929E+01 -0.25794681822E+01  0.16308529794E+02  0.17110230064E+02  0.17770000000E+01 0.  1.
</event>
<event>
 6    1  0.1097339E-002  0.1835879E+03  0.7546771E-02  0.1067592E+00
        -11   -1    0    0    0    0  0.00000000000E+00  0.00000000000E+00  0.18250000000E+03  0.18250000000E+03  0.00000000000E+00 0.  1.
         11   -1    0    0    0    0 -0.00000000000E+00 -0.00000000000E+00 -0.18250000000E+03  0.18250000000E+03  0.00000000000E+00 0.  1.
        -11    1    1    2    0    0 -0.29482257375E+01 -0.60324384445E+00  0.13843497773E+03  0.13846768214E+03  0.00000000000E+00 0.  1.
         11    1    1    2    0    0  0.21195427887E+01 -0.24524022741E+01 -0.18138316513E+03  0.18141212564E+03  0.00000000000E+00 0.  1.
        -15    1    1    2    0    0 -0.11622845093E+01  0.65657253614E+01  0.37409878468E+02  0.38040983042E+02  0.17770000000E+01 0. -1.
         15    1    1    2    0    0  0.19909674580E+01 -0.35100792429E+01  0.55383089332E+01  0.70792091755E+01  0.17770000000E+01 0.  1.
</event>
<event>
 6    1  0.1097339E-002  0.1825860E+03  0.7546771E-02  0.1068386E+00
        -11   -1    0    0    0    0  0.00000000000E+00  0.00000000000E+00  0.18250000000E+03  0.18250000000E+03  0.00000000000E+00 0. -1.
         11   -1    0    0    0    0 -0.00000000000E+00 -0.00000000000E+00 -0.18250000000E+03  0.18250000000E+03  0.00000000000E+00 0.  1.
        -11    1    1    2    0    0  0.29523846288E+01 -0.53550991989E+01  0.18231143876E+03  0.18241396428E+03  0.00000000000E+00 0. -1.
         11    1    1    2    0    0 -0.33000658589E+00  0.72781082533E+00 -0.22106613632E+02  0.22121052850E+02  0.00000000000E+00 0.  1.
        -15    1    1    2    0    0 -0.71987796634E+00  0.52271053706E+01 -0.70171397003E+02  0.70391928097E+02  0.17770000000E+01 0. -1.
         15    1    1    2    0    0 -0.19025000766E+01 -0.59981699700E+00 -0.90033428125E+02  0.90073054771E+02  0.17770000000E+01 0.  1.
</event>
<event>
 6    1  0.1097339E-002  0.1825792E+03  0.7546771E-02  0.1068392E+00
        -11   -1    0    0    0    0  0.00000000000E+00  0.00000000000E+00  0.18250000000E+03  0.18250000000E+03  0.00000000000E+00 0. -1.
         11   -1    0    0    0    0 -0.00000000000E+00 -0.00000000000E+00 -0.18250000000E+03  0.18250000000E+03  0.00000000000E+00 0.  1.
        -11    1    1    2    0    0 -0.19019669981E+01 -0.26436797363E+01  0.18239170382E+03  0.18242077772E+03  0.00000000000E+00 0. -1.
         11    1    1    2    0    0  0.32638934269E+00  0.61839351506E+00 -0.10788252377E+02  0.10810889412E+02  0.00000000000E+00 0.  1.
        -15    1    1    2    0    0  0.17472894497E+01  0.40418233179E+01 -0.12119485060E+03  0.12128783491E+03  0.17770000000E+01 0.  1.
         15    1    1    2    0    0 -0.17171179435E+00 -0.20165370967E+01 -0.50408600836E+02  0.50480497957E+02  0.17770000000E+01 0.  1.
</event>
<event>
 6    1  0.1097339E-002  0.1835009E+03  0.7546771E-02  0.1067661E+00
        -11   -1    0    0    0    0  0.00000000000E+00  0.00000000000E+00  0.18250000000E+03  0.18250000000E+03  0.00000000000E+00 0.  1.
         11   -1    0    0    0    0 -0.00000000000E+00 -0.00000000000E+00 -0.18250000000E+03  0.18250000000E+03  0.00000000000E+00 0. -1.
        -11    1    1    2    0    0 -0.19609536597E+01 -0.15197330585E+01  0.18148215926E+03  0.18149911586E+03  0.00000000000E+00 0.  1.
         11    1    1    2    0    0  0.31378983040E+01 -0.11511705143E+01 -0.14996768902E+03  0.15000493108E+03  0.00000000000E+00 0. -1.
        -15    1    1    2    0    0  0.34690977713E+01  0.13037062924E+01 -0.49436279737E+01  0.64289560572E+01  0.17770000000E+01 0.  1.
         15    1    1    2    0    0 -0.46460424155E+01  0.13671972804E+01 -0.26570842271E+02  0.27066996999E+02  0.17770000000E+01 0. -1.
</event>
<event>
 6    1  0.1097339E-002  0.1825627E+03  0.7546771E-02  0.1068405E+00
        -11   -1    0    0    0    0  0.00000000000E+00  0.00000000000E+00  0.18250000000E+03  0.18250000000E+03  0.00000000000E+00 0.  1.
         11   -1    0    0    0    0 -0.00000000000E+00 -0.00000000000E+00 -0.18250000000E+03  0.18250000000E+03  0.00000000000E+00 0.  1.
        -11    1    1    2    0    0 -0.21608115141E+01  0.38854508184E+01  0.18238312834E+03  0.18243730796E+03  0.00000000000E+00 0.  1.
         11    1    1    2    0    0  0.11907298104E+01  0.69724908280E+00 -0.30664593711E+02  0.30695623487E+02  0.00000000000E+00 0.  1.
        -15    1    1    2    0    0 -0.75336438399E+00 -0.60684831574E+00 -0.49317430654E+02  0.49358915285E+02  0.17770000000E+01 0.  1.
         15    1    1    2    0    0  0.17234460877E+01 -0.39758515855E+01 -0.10240110397E+03  0.10250815327E+03  0.17770000000E+01 0.  1.
</event>
<event>
 6    1  0.1097339E-002  0.1837913E+03  0.7546771E-02  0.1067432E+00
        -11   -1    0    0    0    0  0.00000000000E+00  0.00000000000E+00  0.18250000000E+03  0.18250000000E+03  0.00000000000E+00 0. -1.
         11   -1    0    0    0    0 -0.00000000000E+00 -0.00000000000E+00 -0.18250000000E+03  0.18250000000E+03  0.00000000000E+00 0. -1.
        -11    1    1    2    0    0 -0.30462328051E+00  0.26890384301E+01  0.18118847500E+03  0.18120868410E+03  0.00000000000E+00 0. -1.
         11    1    1    2    0    0  0.70835929825E+00  0.28869671090E+01 -0.17215237909E+03  0.17217804151E+03  0.00000000000E+00 0. -1.
        -15    1    1    2    0    0  0.11793289996E+01 -0.24296355087E+01 -0.51151028089E+01  0.60511115789E+01  0.17770000000E+01 0. -1.
         15    1    1    2    0    0 -0.15830650174E+01 -0.31463700304E+01 -0.39209930988E+01  0.55621628076E+01  0.17770000000E+01 0.  1.
</event>
<event>
 6    1  0.1097339E-002  0.1842295E+03  0.7546771E-02  0.1067086E+00
        -11   -1    0    0    0    0  0.00000000000E+00  0.00000000000E+00  0.18250000000E+03  0.18250000000E+03  0.00000000000E+00 0.  1.
         11   -1    0    0    0    0 -0.00000000000E+00 -0.00000000000E+00 -0.18250000000E+03  0.18250000000E+03  0.00000000000E+00 0.  1.
        -11    1    1    2    0    0 -0.42979159980E+01  0.12027442435E+01  0.18071538949E+03  0.18077049172E+03  0.00000000000E+00 0.  1.
         11    1    1    2    0    0 -0.29859429117E+01 -0.27480864883E+00 -0.14810802270E+03  0.14813837371E+03  0.00000000000E+00 0.  1.
        -15    1    1    2    0    0  0.68197336031E+01 -0.18036428189E+01 -0.33187434052E+02  0.33975364631E+02  0.17770000000E+01 0.  1.
         15    1    1    2    0    0  0.46412530651E+00  0.87570722426E+00  0.58006726421E+00  0.21157699482E+01  0.17770000000E+01 0.  1.
</event>
<event>
 6    1  0.1097339E-002  0.1856135E+03  0.7546771E-02  0.1066003E+00
        -11   -1    0    0    0    0  0.00000000000E+00  0.00000000000E+00  0.18250000000E+03  0.18250000000E+03  0.00000000000E+00 0. -1.
         11   -1    0    0    0    0 -0.00000000000E+00 -0.00000000000E+00 -0.18250000000E+03  0.18250000000E+03  0.00000000000E+00 0. -1.
        -11    1    1    2    0    0  0.29649010612E+01 -0.28652219885E+01  0.17933906176E+03  0.17938645213E+03  0.00000000000E+00 0. -1.
         11    1    1    2    0    0 -0.97986723504E+00 -0.64328083523E+01 -0.16951287356E+03  0.16963771829E+03  0.00000000000E+00 0. -1.
        -15    1    1    2    0    0  0.15960016261E+01  0.76575490595E+01 -0.48017510245E+01  0.93487871240E+01  0.17770000000E+01 0. -1.
         15    1    1    2    0    0 -0.35810354523E+01  0.16404812814E+01 -0.50244371799E+01  0.66270424565E+01  0.17770000000E+01 0.  1.
</event>
<event>
 6    1  0.1097339E-002  0.1903903E+03  0.7546771E-02  0.1062342E+00
        -11   -1    0    0    0    0  0.00000000000E+00  0.00000000000E+00  0.18250000000E+03  0.18250000000E+03  0.00000000000E+00 0. -1.
         11   -1    0    0    0    0 -0.00000000000E+00 -0.00000000000E+00 -0.18250000000E+03  0.18250000000E+03  0.00000000000E+00 0.  1.
        -11    1    1    2    0    0  0.52206416142E+01  0.14891593896E+01  0.11878256385E+03  0.11890656067E+03  0.00000000000E+00 0. -1.
         11    1    1    2    0    0  0.10714415511E+01 -0.94038599870E+01 -0.17435300651E+03  0.17460971178E+03  0.00000000000E+00 0.  1.
        -15    1    1    2    0    0 -0.12116199856E+02  0.31510619694E+01  0.60831829512E+02  0.62132122942E+02  0.17770000000E+01 0. -1.
         15    1    1    2    0    0  0.58241166907E+01  0.47636386280E+01 -0.52613868555E+01  0.93516046136E+01  0.17770000000E+01 0.  1.
</event>
<event>
 6    1  0.1097339E-002  0.1896029E+03  0.7546771E-02  0.1062937E+00
        -11   -1    0    0    0    0  0.00000000000E+00  0.00000000000E+00  0.18250000000E+03  0.18250000000E+03  0.00000000000E+00 0.  1.
         11   -1    0    0    0    0 -0.00000000000E+00 -0.00000000000E+00 -0.18250000000E+03  0.18250000000E+03  0.00000000000E+00 0.  1.
        -11    1    1    2    0    0 -0.24228895295E+01  0.79682657435E+01  0.17519925417E+03  0.17539709894E+03  0.00000000000E+00 0.  1.
         11    1    1    2    0    0  0.58221513561E+01  0.11815326271E+01 -0.14424733744E+03  0.14436962223E+03  0.00000000000E+00 0.  1.
        -15    1    1    2    0    0 -0.98902815562E+01 -0.56445027578E+01  0.17544570424E+01  0.11658212949E+02  0.17770000000E+01 0. -1.
         15    1    1    2    0    0  0.64910197296E+01 -0.35052956128E+01 -0.32706373775E+02  0.33575065882E+02  0.17770000000E+01 0.  1.
</event>
<event>
 6    1  0.1097339E-002  0.1830966E+03  0.7546771E-02  0.1067981E+00
        -11   -1    0    0    0    0  0.00000000000E+00  0.00000000000E+00  0.18250000000E+03  0.18250000000E+03  0.00000000000E+00 0.  1.
         11   -1    0    0    0    0 -0.00000000000E+00 -0.00000000000E+00 -0.18250000000E+03  0.18250000000E+03  0.00000000000E+00 0. -1.
        -11    1    1    2    0    0 -0.33930699952E+01 -0.97336014779E+00  0.76991962687E+02  0.77072840043E+02  0.00000000000E+00 0.  1.
         11    1    1    2    0    0  0.54664889081E+01 -0.54550511684E+01 -0.18173935718E+03  0.18190336454E+03  0.00000000000E+00 0. -1.
        -15    1    1    2    0    0 -0.56291144663E+01  0.73541350612E+00  0.82590159258E+02  0.82804105563E+02  0.17770000000E+01 0.  1.
         15    1    1    2    0    0  0.35556955534E+01  0.56929978101E+01  0.22157235230E+02  0.23219689855E+02  0.17770000000E+01 0. -1.
</event>
<event>
 6    1  0.1097339E-002  0.1835176E+03  0.7546771E-02  0.1067648E+00
        -11   -1    0    0    0    0  0.00000000000E+00  0.00000000000E+00  0.18250000000E+03  0.18250000000E+03  0.00000000000E+00 0.  1.
         11   -1    0    0    0    0 -0.00000000000E+00 -0.00000000000E+00 -0.18250000000E+03  0.18250000000E+03  0.00000000000E+00 0.  1.
        -11    1    1    2    0    0 -0.10894964293E+01 -0.20869675024E+01  0.14378304382E+03  0.14380231614E+03  0.00000000000E+00 0.  1.
         11    1    1    2    0    0 -0.51144568281E+01  0.29532043270E+01 -0.18138624041E+03  0.18148236083E+03  0.00000000000E+00 0.  1.
        -15    1    1    2    0    0  0.27176293372E+01 -0.46677663119E+01  0.28820842282E+02  0.29376388996E+02  0.17770000000E+01 0. -1.
         15    1    1    2    0    0  0.34863239202E+01  0.38015294873E+01  0.87823543038E+01  0.10338934038E+02  0.17770000000E+01 0.  1.
</event>
<event>
 6    1  0.1097339E-002  0.1760684E+03  0.7546771E-02  0.1073693E+00
        -11   -1    0    0    0    0  0.00000000000E+00  0.00000000000E+00  0.18250000000E+03  0.18250000000E+03  0.00000000000E+00 0.  1.
         11   -1    0    0    0    0 -0.00000000000E+00 -0.00000000000E+00 -0.18250000000E+03  0.18250000000E+03  0.00000000000E+00 0.  1.
        -11    1    1    2    0    0  0.37565501223E+00 -0.37477417279E+01  0.17420938225E+03  0.17425009483E+03  0.00000000000E+00 0.  1.
         11    1    1    2    0    0 -0.35211942784E+01 -0.39027095864E+01 -0.17792580643E+03  0.17800343408E+03  0.00000000000E+00 0.  1.
        -15    1    1    2    0    0  0.25909694717E+01  0.51787591244E+00  0.43014755561E+01  0.53517977562E+01  0.17770000000E+01 0. -1.
         15    1    1    2    0    0  0.55456979450E+00  0.71325754019E+01 -0.58505137883E+00  0.73946733286E+01  0.17770000000E+01 0.  1.
</event>
<event>
 6    1  0.1097339E-002  0.1962433E+03  0.7546771E-02  0.1058013E+00
        -11   -1    0    0    0    0  0.00000000000E+00  0.00000000000E+00  0.18250000000E+03  0.18250000000E+03  0.00000000000E+00 0. -1.
         11   -1    0    0    0    0 -0.00000000000E+00 -0.00000000000E+00 -0.18250000000E+03  0.18250000000E+03  0.00000000000E+00 0.  1.
        -11    1    1    2    0    0  0.20874387370E+01  0.79429314230E+00  0.13401664823E+03  0.13403525770E+03  0.00000000000E+00 0. -1.
         11    1    1    2    0    0  0.75328128216E+01 -0.58551373581E+01 -0.16848678584E+03  0.16875669737E+03  0.00000000000E+00 0.  1.
        -15    1    1    2    0    0 -0.10907465910E+02  0.48745043620E+01 -0.11207569686E+02  0.16477285961E+02  0.17770000000E+01 0.  1.
         15    1    1    2    0    0  0.12872143517E+01  0.18633985378E+00  0.45677707299E+02  0.45730758975E+02  0.17770000000E+01 0. -1.
</event>
<event>
 6    1  0.1097339E-002  0.1829956E+03  0.7546771E-02  0.1068061E+00
        -11   -1    0    0    0    0  0.00000000000E+00  0.00000000000E+00  0.18250000000E+03  0.18250000000E+03  0.00000000000E+00 0.  1.
         11   -1    0    0    0    0 -0.00000000000E+00 -0.00000000000E+00 -0.18250000000E+03  0.18250000000E+03  0.00000000000E+00 0. -1.
        -11    1    1    2    0    0  0.12326933894E+01  0.27106862306E+01  0.11563560076E+03  0.11567393620E+03  0.00000000000E+00 0.  1.
         11    1    1    2    0    0  0.26770111211E+01 -0.28868839538E+01 -0.18196183055E+03  0.18200441826E+03  0.00000000000E+00 0. -1.
        -15    1    1    2    0    0 -0.21474896032E+01  0.10772341800E+01  0.42887203502E+01  0.52271403575E+01  0.17770000000E+01 0.  1.
         15    1    1    2    0    0 -0.17622149073E+01 -0.90103645675E+00  0.62037509437E+02  0.62094505185E+02  0.17770000000E+01 0. -1.
</event>
<event>
 6    1  0.1097339E-002  0.1832983E+03  0.7546771E-02  0.1067821E+00
        -11   -1    0    0    0    0  0.00000000000E+00  0.00000000000E+00  0.18250000000E+03  0.18250000000E+03  0.00000000000E+00 0. -1.
         11   -1    0    0    0    0 -0.00000000000E+00 -0.00000000000E+00 -0.18250000000E+03  0.18250000000E+03  0.00000000000E+00 0.  1.
        -11    1    1    2    0    0  0.23767208307E+01  0.82964107363E+01  0.18149666179E+03  0.18170172667E+03  0.00000000000E+00 0. -1.
         11    1    1    2    0    0 -0.40585231728E+01  0.55445413992E+00 -0.11664657021E+03  0.11671847057E+03  0.00000000000E+00 0.  1.
        -15    1    1    2    0    0  0.39643787320E+01 -0.25290510084E+01 -0.49185964148E+02  0.49442180331E+02  0.17770000000E+01 0.  1.
         15    1    1    2    0    0 -0.22825763900E+01 -0.63218138678E+01 -0.15664127431E+02  0.17137622435E+02  0.17770000000E+01 0. -1.
</event>
<event>
 6    1  0.1097339E-002  0.1859789E+03  0.7546771E-02  0.1065719E+00
        -11   -1    0    0    0    0  0.00000000000E+00  0.00000000000E+00  0.18250000000E+03  0.18250000000E+03  0.00000000000E+00 0. -1.
         11   -1    0    0    0    0 -0.00000000000E+00 -0.00000000000E+00 -0.18250000000E+03  0.18250000000E+03  0.00000000000E+00 0.  1.
        -11    1    1    2    0    0  0.60077446025E+01  0.19524166744E+01  0.17104639197E+03  0.17116300165E+03  0.00000000000E+00 0. -1.
         11    1    1    2    0    0 -0.53286387732E+01 -0.20603019321E+01 -0.17892994724E+03  0.17902113075E+03  0.00000000000E+00 0.  1.
        -15    1    1    2    0    0 -0.13869514044E+01  0.16174709858E+01  0.10721892101E+02  0.11075041572E+02  0.17770000000E+01 0. -1.
         15    1    1    2    0    0  0.70784557505E+00 -0.15095857280E+01 -0.28383368276E+01  0.37408260285E+01  0.17770000000E+01 0.  1.
</event>
<event>
 6    1  0.1097339E-002  0.1839264E+03  0.7546771E-02  0.1067325E+00
        -11   -1    0    0    0    0  0.00000000000E+00  0.00000000000E+00  0.18250000000E+03  0.18250000000E+03  0.00000000000E+00 0.  1.
         11   -1    0    0    0    0 -0.00000000000E+00 -0.00000000000E+00 -0.18250000000E+03  0.18250000000E+03  0.00000000000E+00 0.  1.
        -11    1    1    2    0    0  0.21973522403E+01 -0.30916653715E+01  0.18103385507E+03  0.18107358569E+03  0.00000000000E+00 0.  1.
         11    1    1    2    0    0 -0.19033493302E+01 -0.72202678080E+01 -0.78295982202E+02  0.78651229075E+02  0.00000000000E+00 0.  1.
        -15    1    1    2    0    0  0.69701139540E+01  0.12659396400E+02 -0.54828101068E+02  0.56728486684E+02  0.17770000000E+01 0. -1.
         15    1    1    2    0    0 -0.72641168641E+01 -0.23474632206E+01 -0.47909771802E+02  0.48546698554E+02  0.17770000000E+01 0.  1.
</event>
<event>
 6    1  0.1097339E-002  0.1779543E+03  0.7546771E-02  0.1072132E+00
        -11   -1    0    0    0    0  0.00000000000E+00  0.00000000000E+00  0.18250000000E+03  0.18250000000E+03  0.00000000000E+00 0.  1.
         11   -1    0    0    0    0 -0.00000000000E+00 -0.00000000000E+00 -0.18250000000E+03  0.18250000000E+03  0.00000000000E+00 0.  1.
        -11    1    1    2    0    0 -0.62926087329E+01  0.15187424740E+00  0.17774188264E+03  0.17785330145E+03  0.00000000000E+00 0.  1.
         11    1    1    2    0    0  0.59087603035E+00 -0.27041919980E+01 -0.17808876780E+03  0.17811027765E+03  0.00000000000E+00 0.  1.
        -15    1    1    2    0    0  0.81700203427E-01  0.23155483510E+01  0.10337251189E+01  0.30975402678E+01  0.17770000000E+01 0. -1.
         15    1    1    2    0    0  0.56200324991E+01  0.23676939958E+00 -0.68683996000E+00  0.59388806327E+01  0.17770000000E+01 0.  1.
</event>
<event>
 6    1  0.1097339E-002  0.1898362E+03  0.7546771E-02  0.1062761E+00
        -11   -1    0    0    0    0  0.00000000000E+00  0.00000000000E+00  0.18250000000E+03  0.18250000000E+03  0.00000000000E+00 0. -1.
         11   -1    0    0    0    0 -0.00000000000E+00 -0.00000000000E+00 -0.18250000000E+03  0.18250000000E+03  0.00000000000E+00 0. -1.
        -11    1    1    2    0    0  0.32818824893E+01  0.18739097316E+01  0.95945235565E+02  0.96019636106E+02  0.00000000000E+00 0. -1.
         11    1    1    2    0    0 -0.25139363100E+01 -0.18051867452E+01 -0.17513645313E+03  0.17516379703E+03  0.00000000000E+00 0. -1.
        -15    1    1    2    0    0  0.99301612144E+01 -0.12489566396E+01 -0.32383519513E+01  0.10668301027E+02  0.17770000000E+01 0.  1.
         15    1    1    2    0    0 -0.10698107394E+02  0.11802336531E+01  0.82429569513E+02  0.83148265841E+02  0.17770000000E+01 0. -1.
</event>
<event>
 6    1  0.1097339E-002  0.1829064E+03  0.7546771E-02  0.1068132E+00
        -11   -1    0    0    0    0  0.00000000000E+00  0.00000000000E+00  0.18250000000E+03  0.18250000000E+03  0.00000000000E+00 0.  1.
         11   -1    0    0    0    0 -0.00000000000E+00 -0.00000000000E+00 -0.18250000000E+03  0.18250000000E+03  0.00000000000E+00 0. -1.
        -11    1    1    2    0    0  0.23702800610E+01 -0.57191217087E+00  0.13886962634E+03  0.13889103078E+03  0.00000000000E+00 0.  1.
         11    1    1    2    0    0 -0.16114738339E+01 -0.21283636082E+01 -0.18207406623E+03  0.18209363628E+03  0.00000000000E+00 0. -1.
        -15    1    1    2    0    0 -0.25671541425E+01  0.39945454939E+01  0.34140925350E+02  0.34515318148E+02  0.17770000000E+01 0.  1.
         15    1    1    2    0    0  0.18083479154E+01 -0.12942697148E+01  0.90635145380E+01  0.95000147925E+01  0.17770000000E+01 0. -1.
</event>
<event>
 6    1  0.1097339E-002  0.1863110E+03  0.7546771E-02  0.1065461E+00
        -11   -1    0    0    0    0  0.00000000000E+00  0.00000000000E+00  0.18250000000E+03  0.18250000000E+03  0.00000000000E+00 0. -1.
         11   -1    0    0    0    0 -0.00000000000E+00 -0.00000000000E+00 -0.18250000000E+03  0.18250000000E+03  0.00000000000E+00 0.  1.
        -11    1    1    2    0    0 -0.47080182149E+00 -0.25204560295E+01  0.16998917601E+03  0.17000851247E+03  0.00000000000E+00 0. -1.
         11    1    1    2    0    0  0.17949328295E+01 -0.27005143432E+01 -0.17865960064E+03  0.17868902446E+03  0.00000000000E+00 0.  1.
        -15    1    1    2    0    0 -0.34759788453E+01 -0.15889776236E+01 -0.81891064055E+00  0.42936723744E+01  0.17770000000E+01 0. -1.
         15    1    1    2    0    0  0.21518478372E+01  0.68099479963E+01  0.94893352782E+01  0.12008790690E+02  0.17770000000E+01 0.  1.
</event>
<event>
 6    1  0.1097339E-002  0.1832458E+03  0.7546771E-02  0.1067863E+00
        -11   -1    0    0    0    0  0.00000000000E+00  0.00000000000E+00  0.18250000000E+03  0.18250000000E+03  0.00000000000E+00 0. -1.
         11   -1    0    0    0    0 -0.00000000000E+00 -0.00000000000E+00 -0.18250000000E+03  0.18250000000E+03  0.00000000000E+00 0.  1.
        -11    1    1    2    0    0 -0.34051174173E+01  0.11894686283E+01  0.16277134074E+03  0.16281129883E+03  0.00000000000E+00 0. -1.
         11    1    1    2    0    0  0.23203409794E+01  0.13594155711E+01 -0.18173431126E+03  0.18175420733E+03  0.00000000000E+00 0.  1.
        -15    1    1    2    0    0  0.36429233722E+01 -0.16022386711E+01  0.10930842318E+02  0.11767714402E+02  0.17770000000E+01 0.  1.
         15    1    1    2    0    0 -0.25581469344E+01 -0.94664552835E+00  0.80321282002E+01  0.86667794433E+01  0.17770000000E+01 0. -1.
</event>
<event>
 6    1  0.1097339E-002  0.1872616E+03  0.7546771E-02  0.1064727E+00
        -11   -1    0    0    0    0  0.00000000000E+00  0.00000000000E+00  0.18250000000E+03  0.18250000000E+03  0.00000000000E+00 0.  1.
         11   -1    0    0    0    0 -0.00000000000E+00 -0.00000000000E+00 -0.18250000000E+03  0.18250000000E+03  0.00000000000E+00 0. -1.
        -11    1    1    2    0    0  0.17659347728E+01 -0.58789567097E+01  0.17763238032E+03  0.17773841227E+03  0.00000000000E+00 0.  1.
         11    1    1    2    0    0 -0.37636103547E+01 -0.21285029770E+01 -0.16022825278E+03  0.16028658171E+03  0.00000000000E+00 0. -1.
        -15    1    1    2    0    0  0.53029991301E+00 -0.25709143351E+01  0.26850151450E+01  0.41542573157E+01  0.17770000000E+01 0. -1.
         15    1    1    2    0    0  0.14673756689E+01  0.10578374022E+02 -0.20089142688E+02  0.22820748700E+02  0.17770000000E+01 0.  1.
</event>
<event>
 6    1  0.1097339E-002  0.1831168E+03  0.7546771E-02  0.1067965E+00
        -11   -1    0    0    0    0  0.00000000000E+00  0.00000000000E+00  0.18250000000E+03  0.18250000000E+03  0.00000000000E+00 0.  1.
         11   -1    0    0    0    0 -0.00000000000E+00 -0.00000000000E+00 -0.18250000000E+03  0.18250000000E+03  0.00000000000E+00 0.  1.
        -11    1    1    2    0    0 -0.31887020441E+00  0.79694355840E+01  0.18170824073E+03  0.18188319969E+03  0.00000000000E+00 0.  1.
         11    1    1    2    0    0  0.23589369166E+00 -0.99273255217E+00 -0.75077077052E+02  0.75084010697E+02  0.00000000000E+00 0.  1.
        -15    1    1    2    0    0 -0.22581611059E+01  0.42901407133E+01 -0.21628709346E+02  0.22236532910E+02  0.17770000000E+01 0. -1.
         15    1    1    2    0    0  0.23411376186E+01 -0.11266843745E+02 -0.85002454328E+02  0.85796256702E+02  0.17770000000E+01 0.  1.
</event>
<event>
 6    1  0.1097339E-002  0.1880540E+03  0.7546771E-02  0.1064118E+00
        -11   -1    0    0    0    0  0.00000000000E+00  0.00000000000E+00  0.18250000000E+03  0.18250000000E+03  0.00000000000E+00 0. -1.
         11   -1    0    0    0    0 -0.00000000000E+00 -0.00000000000E+00 -0.18250000000E+03  0.18250000000E+03  0.00000000000E+00 0. -1.
        -11    1    1    2    0    0 -0.51021680246E+01 -0.34871224520E+01  0.54065590314E+02  0.54417646012E+02  0.00000000000E+00 0. -1.
         11    1    1    2    0    0  0.12816888671E+02  0.59299283527E+00 -0.17648021686E+03  0.17694601216E+03  0.00000000000E+00 0. -1.
        -15    1    1    2    0    0  0.56624862038E+01 -0.32255714519E+01  0.11797475516E+03  0.11816796793E+03  0.17770000000E+01 0. -1.
         15    1    1    2    0    0 -0.13377206850E+02  0.61197010686E+01  0.44398713861E+01  0.15468373903E+02  0.17770000000E+01 0.  1.
</event>
<event>
 6    1  0.1097339E-002  0.1816248E+03  0.7546771E-02  0.1069154E+00
        -11   -1    0    0    0    0  0.00000000000E+00  0.00000000000E+00  0.18250000000E+03  0.18250000000E+03  0.00000000000E+00 0.  1.
         11   -1    0    0    0    0 -0.00000000000E+00 -0.00000000000E+00 -0.18250000000E+03  0.18250000000E+03  0.00000000000E+00 0.  1.
        -11    1    1    2    0    0 -0.11126924535E+01 -0.41875583782E+01  0.18210569847E+03  0.18215723742E+03  0.00000000000E+00 0.  1.
         11    1    1    2    0    0  0.56491332453E+00 -0.56153375303E+00 -0.21251113016E+01  0.22694812765E+01  0.00000000000E+00 0.  1.
        -15    1    1    2    0    0 -0.55261218081E+01 -0.68124527080E-02 -0.46971874394E+02  0.47329195870E+02  0.17770000000E+01 0.  1.
         15    1    1    2    0    0  0.60739009370E+01  0.47559045840E+01 -0.13300871277E+03  0.13324408543E+03  0.17770000000E+01 0. -1.
</event>
<event>
 6    1  0.1097339E-002  0.1851158E+03  0.7546771E-02  0.1066391E+00
        -11   -1    0    0    0    0  0.00000000000E+00  0.00000000000E+00  0.18250000000E+03  0.18250000000E+03  0.00000000000E+00 0.  1.
         11   -1    0    0    0    0 -0.00000000000E+00 -0.00000000000E+00 -0.18250000000E+03  0.18250000000E+03  0.00000000000E+00 0.  1.
        -11    1    1    2    0    0  0.22947313869E+01  0.15246406153E+01  0.17986308942E+03  0.17988418845E+03  0.00000000000E+00 0.  1.
         11    1    1    2    0    0  0.30775177416E+01  0.10240361816E+01 -0.17577755628E+03  0.17580747725E+03  0.00000000000E+00 0.  1.
        -15    1    1    2    0    0 -0.36828206655E+01 -0.36785910665E+01 -0.18496505300E+01  0.58029420445E+01  0.17770000000E+01 0.  1.
         15    1    1    2    0    0 -0.16894284630E+01  0.11299142696E+01 -0.22358826036E+01  0.35053922470E+01  0.17770000000E+01 0. -1.
</event>
<event>
 6    1  0.1097339E-002  0.1836507E+03  0.7546771E-02  0.1067543E+00
        -11   -1    0    0    0    0  0.00000000000E+00  0.00000000000E+00  0.18250000000E+03  0.18250000000E+03  0.00000000000E+00 0.  1.
         11   -1    0    0    0    0 -0.00000000000E+00 -0.00000000000E+00 -0.18250000000E+03  0.18250000000E+03  0.00000000000E+00 0.  1.
        -11    1    1    2    0    0 -0.19369610509E+01  0.22823283057E+01  0.18132460065E+03  0.18134930836E+03  0.00000000000E+00 0.  1.
         11    1    1    2    0    0  0.16499340281E+01  0.21720084456E+01 -0.15927874528E+03  0.15930209855E+03  0.00000000000E+00 0.  1.
        -15    1    1    2    0    0  0.58482716274E-01 -0.68381250375E+00 -0.19204694184E+02  0.19298938507E+02  0.17770000000E+01 0. -1.
         15    1    1    2    0    0  0.22854430657E+00 -0.37705242475E+01 -0.28411611830E+01  0.50496545890E+01  0.17770000000E+01 0.  1.
</event>
<event>
 6    1  0.1097339E-002  0.1843853E+03  0.7546771E-02  0.1066964E+00
        -11   -1    0    0    0    0  0.00000000000E+00  0.00000000000E+00  0.18250000000E+03  0.18250000000E+03  0.00000000000E+00 0. -1.
         11   -1    0    0    0    0 -0.00000000000E+00 -0.00000000000E+00 -0.18250000000E+03  0.18250000000E+03  0.00000000000E+00 0. -1.
        -11    1    1    2    0    0  0.30451410127E+01 -0.36087620543E+01  0.18055301383E+03  0.18061474704E+03  0.00000000000E+00 0. -1.
         11    1    1    2    0    0 -0.47905899723E+00 -0.53183311176E+01 -0.15752878358E+03  0.15761926214E+03  0.00000000000E+00 0. -1.
        -15    1    1    2    0    0 -0.16289102998E+01  0.19223282704E+01 -0.53977685442E+00  0.31301410186E+01  0.17770000000E+01 0.  1.
         15    1    1    2    0    0 -0.93717171571E+00  0.70047649015E+01 -0.22484453394E+02  0.23635849796E+02  0.17770000000E+01 0. -1.
</event>
<event>
 6    1  0.1097339E-002  0.2146114E+03  0.7546771E-02  0.1045427E+00
        -11   -1    0    0    0    0  0.00000000000E+00  0.00000000000E+00  0.18250000000E+03  0.18250000000E+03  0.00000000000E+00 0. -1.
         11   -1    0    0    0    0 -0.00000000000E+00 -0.00000000000E+00 -0.18250000000E+03  0.18250000000E+03  0.00000000000E+00 0.  1.
        -11    1    1    2    0    0  0.21585082892E+00  0.21570763334E+01  0.15037298912E+03  0.15038861468E+03  0.00000000000E+00 0. -1.
         11    1    1    2    0    0  0.18258564131E+02  0.14304553381E+02 -0.95196864718E+02  0.97981827211E+02  0.00000000000E+00 0.  1.
        -15    1    1    2    0    0  0.59028350776E+01 -0.42588623066E+01  0.28050517247E+02  0.29033956274E+02  0.17770000000E+01 0. -1.
         15    1    1    2    0    0 -0.24377250037E+02 -0.12202767408E+02 -0.83226641646E+02  0.87595601833E+02  0.17770000000E+01 0.  1.
</event>
<event>
 6    1  0.1097339E-002  0.1836959E+03  0.7546771E-02  0.1067507E+00
        -11   -1    0    0    0    0  0.00000000000E+00  0.00000000000E+00  0.18250000000E+03  0.18250000000E+03  0.00000000000E+00 0.  1.
         11   -1    0    0    0    0 -0.00000000000E+00 -0.00000000000E+00 -0.18250000000E+03  0.18250000000E+03  0.00000000000E+00 0. -1.
        -11    1    1    2    0    0 -0.91913160770E+00  0.39059811205E+01  0.18125973798E+03  0.18130414806E+03  0.00000000000E+00 0.  1.
         11    1    1    2    0    0 -0.21562749158E+01  0.21899617754E+01 -0.15678872595E+03  0.15681884466E+03  0.00000000000E+00 0. -1.
        -15    1    1    2    0    0  0.90214859005E+00  0.15154030808E-01 -0.15692731561E+02  0.15818775382E+02  0.17770000000E+01 0.  1.
         15    1    1    2    0    0  0.21732579335E+01 -0.61110969267E+01 -0.87782804701E+01  0.11058231898E+02  0.17770000000E+01 0. -1.
</event>
<event>
 6    1  0.1097339E-002  0.1826602E+03  0.7546771E-02  0.1068327E+00
        -11   -1    0    0    0    0  0.00000000000E+00  0.00000000000E+00  0.18250000000E+03  0.18250000000E+03  0.00000000000E+00 0. -1.
         11   -1    0    0    0    0 -0.00000000000E+00 -0.00000000000E+00 -0.18250000000E+03  0.18250000000E+03  0.00000000000E+00 0. -1.
        -11    1    1    2    0    0 -0.83934572813E+00 -0.33483789522E+01  0.18230715772E+03  0.18233983629E+03  0.00000000000E+00 0. -1.
         11    1    1    2    0    0 -0.23064091541E+01  0.79933739726E+00 -0.11722010586E+03  0.11724551881E+03  0.00000000000E+00 0. -1.
        -15    1    1    2    0    0  0.94709399316E+00  0.25877190067E+01 -0.46310698740E+02  0.46426628388E+02  0.17770000000E+01 0.  1.
         15    1    1    2    0    0  0.21986608890E+01 -0.38677451821E-01 -0.18776353117E+02  0.18988016511E+02  0.17770000000E+01 0. -1.
</event>
<event>
 6    1  0.1097339E-002  0.1755595E+03  0.7546771E-02  0.1074118E+00
        -11   -1    0    0    0    0  0.00000000000E+00  0.00000000000E+00  0.18250000000E+03  0.18250000000E+03  0.00000000000E+00 0. -1.
         11   -1    0    0    0    0 -0.00000000000E+00 -0.00000000000E+00 -0.18250000000E+03  0.18250000000E+03  0.00000000000E+00 0. -1.
        -11    1    1    2    0    0 -0.28314181329E+01 -0.26101654331E+01  0.17741469315E+03  0.17745648266E+03  0.00000000000E+00 0. -1.
         11    1    1    2    0    0 -0.53300431758E+01 -0.15478002076E+00 -0.17370593145E+03  0.17378775544E+03  0.00000000000E+00 0. -1.
        -15    1    1    2    0    0  0.86012182360E+01  0.12538466908E+01  0.54059184777E+00  0.88883662848E+01  0.17770000000E+01 0. -1.
         15    1    1    2    0    0 -0.43975692725E+00  0.15110987631E+01 -0.42493535412E+01  0.48673956224E+01  0.17770000000E+01 0.  1.
</event>
<event>
 6    1  0.1097339E-002  0.1873915E+03  0.7546771E-02  0.1064627E+00
        -11   -1    0    0    0    0  0.00000000000E+00  0.00000000000E+00  0.18250000000E+03  0.18250000000E+03  0.00000000000E+00 0. -1.
         11   -1    0    0    0    0 -0.00000000000E+00 -0.00000000000E+00 -0.18250000000E+03  0.18250000000E+03  0.00000000000E+00 0. -1.
        -11    1    1    2    0    0  0.33501652383E+01  0.40379592214E+00  0.17534621279E+03  0.17537867886E+03  0.00000000000E+00 0. -1.
         11    1    1    2    0    0 -0.27802935439E+01 -0.22645954302E-01 -0.17758677432E+03  0.17760853853E+03  0.00000000000E+00 0. -1.
        -15    1    1    2    0    0  0.33268206390E+01 -0.42062559372E+01 -0.45782443170E+00  0.56681263910E+01  0.17770000000E+01 0. -1.
         15    1    1    2    0    0 -0.38966923334E+01  0.38251059694E+01  0.26983859635E+01  0.63446562260E+01  0.17770000000E+01 0.  1.
</event>
<event>
 6    1  0.1097339E-002  0.1839009E+03  0.7546771E-02  0.1067345E+00
        -11   -1    0    0    0    0  0.00000000000E+00  0.00000000000E+00  0.18250000000E+03  0.18250000000E+03  0.00000000000E+00 0. -1.
         11   -1    0    0    0    0 -0.00000000000E+00 -0.00000000000E+00 -0.18250000000E+03  0.18250000000E+03  0.00000000000E+00 0. -1.
        -11    1    1    2    0    0  0.12809215563E+00  0.26723216243E+01  0.18107932168E+03  0.18109908462E+03  0.00000000000E+00 0. -1.
         11    1    1    2    0    0 -0.26629007225E+01  0.72255518977E+00 -0.13053010002E+03  0.13055925910E+03  0.00000000000E+00 0. -1.
        -15    1    1    2    0    0  0.38989723252E+01  0.31311647869E+01 -0.42099544526E+02  0.42432717994E+02  0.17770000000E+01 0. -1.
         15    1    1    2    0    0 -0.13641637583E+01 -0.65260416009E+01 -0.84496771331E+01  0.10908938280E+02  0.17770000000E+01 0. -1.
</event>
<event>
 6    1  0.1097339E-002  0.1825342E+03  0.7546771E-02  0.1068428E+00
        -11   -1    0    0    0    0  0.00000000000E+00  0.00000000000E+00  0.18250000000E+03  0.18250000000E+03  0.00000000000E+00 0.  1.
         11   -1    0    0    0    0 -0.00000000000E+00 -0.00000000000E+00 -0.18250000000E+03  0.18250000000E+03  0.00000000000E+00 0. -1.
        -11    1    1    2    0    0  0.22926001515E+00 -0.30110342010E+01  0.18244077348E+03  0.18246576313E+03  0.00000000000E+00 0.  1.
         11    1    1    2    0    0 -0.74827738432E+00  0.12923944514E+00 -0.51669602222E+02  0.51675181815E+02  0.00000000000E+00 0. -1.
        -15    1    1    2    0    0 -0.37854140929E+00  0.15939677743E+01 -0.62453515948E+02  0.62500267280E+02  0.17770000000E+01 0.  1.
         15    1    1    2    0    0  0.89755877846E+00  0.12878269815E+01 -0.68317655309E+02  0.68358787775E+02  0.17770000000E+01 0. -1.
</event>
<event>
 6    1  0.1097339E-002  0.1784949E+03  0.7546771E-02  0.1071688E+00
        -11   -1    0    0    0    0  0.00000000000E+00  0.00000000000E+00  0.18250000000E+03  0.18250000000E+03  0.00000000000E+00 0. -1.
         11   -1    0    0    0    0 -0.00000000000E+00 -0.00000000000E+00 -0.18250000000E+03  0.18250000000E+03  0.00000000000E+00 0. -1.
        -11    1    1    2    0    0  0.22217498050E+01 -0.13143400949E+01  0.17907519110E+03  0.17909379590E+03  0.00000000000E+00 0. -1.
         11    1    1    2    0    0  0.14107314743E+01 -0.22143257557E+01 -0.17791435746E+03  0.17793372922E+03  0.00000000000E+00 0. -1.
        -15    1    1    2    0    0 -0.35568071034E+01  0.42673231452E+01 -0.14870837209E+01  0.60191420144E+01  0.17770000000E+01 0.  1.
         15    1    1    2    0    0 -0.75674175891E-01 -0.73865729464E+00  0.32625008578E+00  0.19533328693E+01  0.17770000000E+01 0.  1.
</event>
<event>
 6    1  0.1097339E-002  0.1911773E+03  0.7546771E-02  0.1061750E+00
        -11   -1    0    0    0    0  0.00000000000E+00  0.00000000000E+00  0.18250000000E+03  0.18250000000E+03  0.00000000000E+00 0. -1.
         11   -1    0    0    0    0 -0.00000000000E+00 -0.00000000000E+00 -0.18250000000E+03  0.18250000000E+03  0.00000000000E+00 0.  1.
        -11    1    1    2    0    0  0.15510095348E+01 -0.96367068580E+01  0.17354840117E+03  0.17382266624E+03  0.00000000000E+00 0. -1.
         11    1    1    2    0    0 -0.58450390177E+01 -0.52249674146E+01 -0.15332592193E+03  0.15352622936E+03  0.00000000000E+00 0.  1.
        -15    1    1    2    0    0  0.11517246819E+01  0.15500194946E+02 -0.26272227124E+02  0.30577281765E+02  0.17770000000E+01 0.  1.
         15    1    1    2    0    0  0.31423048010E+01 -0.63852067329E+00  0.60497478861E+01  0.70738226298E+01  0.17770000000E+01 0. -1.
</event>
<event>
 6    1  0.1097339E-002  0.1619837E+03  0.7546771E-02  0.1086070E+00
        -11   -1    0    0    0    0  0.00000000000E+00  0.00000000000E+00  0.18250000000E+03  0.18250000000E+03  0.00000000000E+00 0.  1.
         11   -1    0    0    0    0 -0.00000000000E+00 -0.00000000000E+00 -0.18250000000E+03  0.18250000000E+03  0.00000000000E+00 0.  1.
        -11    1    1    2    0    0 -0.33100181759E+01  0.19312972695E+01  0.16620300521E+03  0.16624718064E+03  0.00000000000E+00 0.  1.
         11    1    1    2    0    0 -0.22389962726E+02 -0.26251588488E+01 -0.15725434077E+03  0.15886198281E+03  0.00000000000E+00 0.  1.
        -15    1    1    2    0    0  0.19486919979E+02  0.10904037562E+01 -0.19413148284E+02  0.27585450620E+02  0.17770000000E+01 0.  1.
         15    1    1    2    0    0  0.62130609221E+01 -0.39654217688E+00  0.10464483847E+02  0.12305385931E+02  0.17770000000E+01 0. -1.
</event>
<event>
 6    1  0.1097339E-002  0.1831295E+03  0.7546771E-02  0.1067955E+00
        -11   -1    0    0    0    0  0.00000000000E+00  0.00000000000E+00  0.18250000000E+03  0.18250000000E+03  0.00000000000E+00 0.  1.
         11   -1    0    0    0    0 -0.00000000000E+00 -0.00000000000E+00 -0.18250000000E+03  0.18250000000E+03  0.00000000000E+00 0.  1.
        -11    1    1    2    0    0 -0.12649533638E+01 -0.88253912055E+00  0.10163570255E+03  0.10164740535E+03  0.00000000000E+00 0.  1.
         11    1    1    2    0    0  0.33096966224E+01  0.10826258704E+01 -0.18183717797E+03  0.18187051840E+03  0.00000000000E+00 0.  1.
        -15    1    1    2    0    0  0.14443586810E+01  0.41025478614E+01  0.65545764567E+02  0.65713941083E+02  0.17770000000E+01 0. -1.
         15    1    1    2    0    0 -0.34891019397E+01 -0.43026346113E+01  0.14655710853E+02  0.15768135164E+02  0.17770000000E+01 0.  1.
</event>
<event>
 6    1  0.1097339E-002  0.1826658E+03  0.7546771E-02  0.1068323E+00
        -11   -1    0    0    0    0  0.00000000000E+00  0.00000000000E+00  0.18250000000E+03  0.18250000000E+03  0.00000000000E+00 0. -1.
         11   -1    0    0    0    0 -0.00000000000E+00 -0.00000000000E+00 -0.18250000000E+03  0.18250000000E+03  0.00000000000E+00 0.  1.
        -11    1    1    2    0    0 -0.92789290505E+00  0.60343949513E+00  0.17417694815E+02  0.17452828342E+02  0.00000000000E+00 0. -1.
         11    1    1    2    0    0  0.99737624946E+00 -0.62425099726E+01 -0.18222454788E+03  0.18233416998E+03  0.00000000000E+00 0.  1.
        -15    1    1    2    0    0  0.10710684056E+01 -0.20840095235E+01  0.24138075609E+02  0.24316552106E+02  0.17770000000E+01 0. -1.
         15    1    1    2    0    0 -0.11405517500E+01  0.77230800009E+01  0.14066877746E+03  0.14089644958E+03  0.17770000000E+01 0. -1.
</event>
<event>
 6    1  0.1097339E-002  0.1833533E+03  0.7546771E-02  0.1067778E+00
        -11   -1    0    0    0    0  0.00000000000E+00  0.00000000000E+00  0.18250000000E+03  0.18250000000E+03  0.00000000000E+00 0. -1.
         11   -1    0    0    0    0 -0.00000000000E+00 -0.00000000000E+00 -0.18250000000E+03  0.18250000000E+03  0.00000000000E+00 0.  1.
        -11    1    1    2    0    0 -0.27089390228E+01 -0.47169668899E+01  0.18156526925E+03  0.18164673167E+03  0.00000000000E+00 0. -1.
         11    1    1    2    0    0  0.93575224356E+00  0.15871584129E+01 -0.15755264421E+02  0.15862630963E+02  0.00000000000E+00 0.  1.
        -15    1    1    2    0    0 -0.60920693436E+01  0.15357622504E+01 -0.13885527554E+02  0.15343972075E+02  0.17770000000E+01 0. -1.
         15    1    1    2    0    0  0.78652561229E+01  0.15940462266E+01 -0.15192447727E+03  0.15214666530E+03  0.17770000000E+01 0.  1.
</event>
<event>
 6    1  0.1097339E-002  0.1960268E+03  0.7546771E-02  0.1058170E+00
        -11   -1    0    0    0    0  0.00000000000E+00  0.00000000000E+00  0.18250000000E+03  0.18250000000E+03  0.00000000000E+00 0.  1.
         11   -1    0    0    0    0 -0.00000000000E+00 -0.00000000000E+00 -0.18250000000E+03  0.18250000000E+03  0.00000000000E+00 0.  1.
        -11    1    1    2    0    0  0.14883421523E+02 -0.21883049711E+02  0.16688784827E+03  0.16897318722E+03  0.00000000000E+00 0.  1.
         11    1    1    2    0    0  0.35349162142E+01  0.57416666271E+01 -0.13443676014E+03  0.13460573853E+03  0.00000000000E+00 0.  1.
        -15    1    1    2    0    0 -0.56974377396E+01  0.13381184847E+02  0.94992459131E+01  0.17461681094E+02  0.17770000000E+01 0. -1.
         15    1    1    2    0    0 -0.12720899997E+02  0.27601982372E+01 -0.41950334044E+02  0.43959393154E+02  0.17770000000E+01 0.  1.
</event>
<event>
 6    1  0.1097339E-002  0.1832003E+03  0.7546771E-02  0.1067899E+00
        -11   -1    0    0    0    0  0.00000000000E+00  0.00000000000E+00  0.18250000000E+03  0.18250000000E+03  0.00000000000E+00 0.  1.
         11   -1    0    0    0    0 -0.00000000000E+00 -0.00000000000E+00 -0.18250000000E+03  0.18250000000E+03  0.00000000000E+00 0.  1.
        -11    1    1    2    0    0 -0.16327159477E+01  0.36542324115E+01  0.18175563761E+03  0.18179970016E+03  0.00000000000E+00 0.  1.
         11    1    1    2    0    0  0.14786448342E+01  0.26472910977E+01 -0.15529948547E+03  0.15532908526E+03  0.00000000000E+00 0.  1.
        -15    1    1    2    0    0  0.56486481578E+00 -0.85342235052E+00 -0.24883858714E+01  0.32244682063E+01  0.17770000000E+01 0.  1.
         15    1    1    2    0    0 -0.41079370228E+00 -0.54481011587E+01 -0.23967766271E+02  0.24646746372E+02  0.17770000000E+01 0. -1.
</event>
<event>
 6    1  0.1159970E-002  0.1837286E+03  0.7546771E-02  0.1067481E+00
        -11   -1    0    0    0    0  0.00000000000E+00  0.00000000000E+00  0.18250000000E+03  0.18250000000E+03  0.00000000000E+00 0. -1.
         11   -1    0    0    0    0 -0.00000000000E+00 -0.00000000000E+00 -0.18250000000E+03  0.18250000000E+03  0.00000000000E+00 0.  1.
        -11    1    1    2    0    0  0.62530622419E+00 -0.23618045455E+01  0.18125494442E+03  0.18127140979E+03  0.00000000000E+00 0. -1.
         11    1    1    2    0    0 -0.21283595441E+01  0.13172694090E+01 -0.16910962277E+03  0.16912814557E+03  0.00000000000E+00 0.  1.
        -15    1    1    2    0    0 -0.11516149701E+01  0.10737700093E+01 -0.37422085910E+00  0.24035326758E+01  0.17770000000E+01 0.  1.
         15    1    1    2    0    0  0.26546682900E+01 -0.29234872870E-01 -0.11771100799E+02  0.12196911963E+02  0.17770000000E+01 0. -1.
</event>
<event>
 6    1  0.1097339E-002  0.1833419E+03  0.7546771E-02  0.1067787E+00
        -11   -1    0    0    0    0  0.00000000000E+00  0.00000000000E+00  0.18250000000E+03  0.18250000000E+03  0.00000000000E+00 0. -1.
         11   -1    0    0    0    0 -0.00000000000E+00 -0.00000000000E+00 -0.18250000000E+03  0.18250000000E+03  0.00000000000E+00 0.  1.
        -11    1    1    2    0    0 -0.73538049874E+00  0.23654274216E+01  0.18164121468E+03  0.18165810442E+03  0.00000000000E+00 0. -1.
         11    1    1    2    0    0  0.37129133151E+00  0.28054874324E+01 -0.98198896791E+02  0.98239665858E+02  0.00000000000E+00 0.  1.
        -15    1    1    2    0    0  0.24734825714E+01 -0.12533148319E+01 -0.77016420375E+02  0.77086805943E+02  0.17770000000E+01 0.  1.
         15    1    1    2    0    0 -0.21093934042E+01 -0.39176000221E+01 -0.64258975145E+01  0.80154237776E+01  0.17770000000E+01 0.  1.
</event>
<event>
 6    1  0.1097339E-002  0.1826382E+03  0.7546771E-02  0.1068345E+00
        -11   -1    0    0    0    0  0.00000000000E+00  0.00000000000E+00  0.18250000000E+03  0.18250000000E+03  0.00000000000E+00 0.  1.
         11   -1    0    0    0    0 -0.00000000000E+00 -0.00000000000E+00 -0.18250000000E+03  0.18250000000E+03  0.00000000000E+00 0.  1.
        -11    1    1    2    0    0 -0.32372696068E+00 -0.28093789256E+01  0.18233985595E+03  0.18236178458E+03  0.00000000000E+00 0.  1.
         11    1    1    2    0    0 -0.11944612392E+01 -0.15560872211E+01 -0.10234917612E+03  0.10236797349E+03  0.00000000000E+00 0.  1.
        -15    1    1    2    0    0  0.22619743654E+01  0.35158669411E+01 -0.50111244562E+02  0.50316720967E+02  0.17770000000E+01 0. -1.
         15    1    1    2    0    0 -0.74378616546E+00  0.84959920565E+00 -0.29879435268E+02  0.29953520955E+02  0.17770000000E+01 0.  1.
</event>
<event>
 6    1  0.1097339E-002  0.1829234E+03  0.7546771E-02  0.1068118E+00
        -11   -1    0    0    0    0  0.00000000000E+00  0.00000000000E+00  0.18250000000E+03  0.18250000000E+03  0.00000000000E+00 0. -1.
         11   -1    0    0    0    0 -0.00000000000E+00 -0.00000000000E+00 -0.18250000000E+03  0.18250000000E+03  0.00000000000E+00 0. -1.
        -11    1    1    2    0    0 -0.40010433185E+01 -0.75217796188E+00  0.31340806751E+02  0.31604118199E+02  0.00000000000E+00 0. -1.
         11    1    1    2    0    0 -0.26259942693E+01  0.12909915844E+01 -0.18205305193E+03  0.18207656692E+03  0.00000000000E+00 0. -1.
        -15    1    1    2    0    0  0.65776981553E+01  0.23689382844E+01  0.13700365359E+03  0.13719342844E+03  0.17770000000E+01 0. -1.
         15    1    1    2    0    0  0.49339432609E-01 -0.29077519069E+01  0.13708591586E+02  0.14125886443E+02  0.17770000000E+01 0.  1.
</event>
<event>
 6    1  0.1097339E-002  0.1831092E+03  0.7546771E-02  0.1067971E+00
        -11   -1    0    0    0    0  0.00000000000E+00  0.00000000000E+00  0.18250000000E+03  0.18250000000E+03  0.00000000000E+00 0.  1.
         11   -1    0    0    0    0 -0.00000000000E+00 -0.00000000000E+00 -0.18250000000E+03  0.18250000000E+03  0.00000000000E+00 0. -1.
        -11    1    1    2    0    0  0.22057489149E+01  0.60265747454E+00  0.14226297238E+03  0.14228134746E+03  0.00000000000E+00 0.  1.
         11    1    1    2    0    0 -0.36532848580E+01  0.10878955681E+00 -0.18185411321E+03  0.18189083764E+03  0.00000000000E+00 0. -1.
        -15    1    1    2    0    0 -0.15578972318E+01  0.20203380984E+01  0.45708119715E+01  0.55280069551E+01  0.17770000000E+01 0.  1.
         15    1    1    2    0    0  0.30054331749E+01 -0.27317851298E+01  0.35020328864E+02  0.35299807950E+02  0.17770000000E+01 0. -1.
</event>
<event>
 6    1  0.1097339E-002  0.1861048E+03  0.7546771E-02  0.1065621E+00
        -11   -1    0    0    0    0  0.00000000000E+00  0.00000000000E+00  0.18250000000E+03  0.18250000000E+03  0.00000000000E+00 0.  1.
         11   -1    0    0    0    0 -0.00000000000E+00 -0.00000000000E+00 -0.18250000000E+03  0.18250000000E+03  0.00000000000E+00 0.  1.
        -11    1    1    2    0    0 -0.18106411942E+01 -0.24499862718E+01  0.15584507599E+03  0.15587484905E+03  0.00000000000E+00 0.  1.
         11    1    1    2    0    0 -0.10265029249E+02  0.50829769258E+01 -0.17852808238E+03  0.17889517511E+03  0.00000000000E+00 0.  1.
        -15    1    1    2    0    0  0.57280506543E+01  0.35712690825E+01  0.19372069673E+02  0.20591244246E+02  0.17770000000E+01 0.  1.
         15    1    1    2    0    0  0.63476197891E+01 -0.62042597366E+01  0.33109367145E+01  0.96387315967E+01  0.17770000000E+01 0. -1.
</event>
<event>
 6    1  0.1097339E-002  0.1828061E+03  0.7546771E-02  0.1068211E+00
        -11   -1    0    0    0    0  0.00000000000E+00  0.00000000000E+00  0.18250000000E+03  0.18250000000E+03  0.00000000000E+00 0. -1.
         11   -1    0    0    0    0 -0.00000000000E+00 -0.00000000000E+00 -0.18250000000E+03  0.18250000000E+03  0.00000000000E+00 0. -1.
        -11    1    1    2    0    0 -0.44960143329E+01  0.10922727506E+01  0.15337394243E+03  0.15344371418E+03  0.00000000000E+00 0. -1.
         11    1    1    2    0    0  0.33685616665E+01  0.21436477631E+01 -0.18215012758E+03  0.18219388412E+03  0.00000000000E+00 0. -1.
        -15    1    1    2    0    0  0.11618206692E+01 -0.77917813651E+00  0.18800906187E+02  0.18936439694E+02  0.17770000000E+01 0.  1.
         15    1    1    2    0    0 -0.34368002798E-01 -0.24567423772E+01  0.99752789618E+01  0.10425962000E+02  0.17770000000E+01 0. -1.
</event>
<event>
 6    1  0.1097339E-002  0.1830805E+03  0.7546771E-02  0.1067994E+00
        -11   -1    0    0    0    0  0.00000000000E+00  0.00000000000E+00  0.18250000000E+03  0.18250000000E+03  0.00000000000E+00 0. -1.
         11   -1    0    0    0    0 -0.00000000000E+00 -0.00000000000E+00 -0.18250000000E+03  0.18250000000E+03  0.00000000000E+00 0. -1.
        -11    1    1    2    0    0  0.73817678924E-01 -0.59208001515E+01  0.18182313446E+03  0.18191952493E+03  0.00000000000E+00 0. -1.
         11    1    1    2    0    0 -0.20307864763E+01 -0.17801834648E+01 -0.13867943360E+03  0.13870572609E+03  0.00000000000E+00 0. -1.
        -15    1    1    2    0    0 -0.45127642448E+00  0.44248550123E+00 -0.36532005877E+01  0.41113315804E+01  0.17770000000E+01 0.  1.
         15    1    1    2    0    0  0.24082452219E+01  0.72584981151E+01 -0.39490500280E+02  0.40263417407E+02  0.17770000000E+01 0. -1.
</event>
<event>
 6    1  0.1097339E-002  0.1869512E+03  0.7546771E-02  0.1064966E+00
        -11   -1    0    0    0    0  0.00000000000E+00  0.00000000000E+00  0.18250000000E+03  0.18250000000E+03  0.00000000000E+00 0. -1.
         11   -1    0    0    0    0 -0.00000000000E+00 -0.00000000000E+00 -0.18250000000E+03  0.18250000000E+03  0.00000000000E+00 0. -1.
        -11    1    1    2    0    0 -0.44223679399E+01 -0.72280124904E+01  0.17784708141E+03  0.17804883001E+03  0.00000000000E+00 0. -1.
         11    1    1    2    0    0  0.22193558855E+01  0.69517509083E+00 -0.16838402073E+03  0.16840008090E+03  0.00000000000E+00 0. -1.
        -15    1    1    2    0    0 -0.18159433086E+01 -0.27178215019E+01 -0.71376398779E+01  0.80490891312E+01  0.17770000000E+01 0. -1.
         15    1    1    2    0    0  0.40189553630E+01  0.92506589014E+01 -0.23254208022E+01  0.10501999963E+02  0.17770000000E+01 0.  1.
</event>
<event>
 6    1  0.1097339E-002  0.2155362E+03  0.7546771E-02  0.1044830E+00
        -11   -1    0    0    0    0  0.00000000000E+00  0.00000000000E+00  0.18250000000E+03  0.18250000000E+03  0.00000000000E+00 0. -1.
         11   -1    0    0    0    0 -0.00000000000E+00 -0.00000000000E+00 -0.18250000000E+03  0.18250000000E+03  0.00000000000E+00 0.  1.
        -11    1    1    2    0    0  0.94784013641E+01  0.96758771203E+00  0.10268881626E+03  0.10312986620E+03  0.00000000000E+00 0. -1.
         11    1    1    2    0    0 -0.53368792226E+01 -0.68642829555E+01 -0.14921069217E+03  0.14946381274E+03  0.00000000000E+00 0.  1.
        -15    1    1    2    0    0 -0.15296432521E+02 -0.60288577374E+01  0.76476252069E+02  0.78243867702E+02  0.17770000000E+01 0.  1.
         15    1    1    2    0    0  0.11154910379E+02  0.11925552981E+02 -0.29954376155E+02  0.34162453356E+02  0.17770000000E+01 0. -1.
</event>
<event>
 6    1  0.1097339E-002  0.1862969E+03  0.7546771E-02  0.1065472E+00
        -11   -1    0    0    0    0  0.00000000000E+00  0.00000000000E+00  0.18250000000E+03  0.18250000000E+03  0.00000000000E+00 0.  1.
         11   -1    0    0    0    0 -0.00000000000E+00 -0.00000000000E+00 -0.18250000000E+03  0.18250000000E+03  0.00000000000E+00 0.  1.
        -11    1    1    2    0    0 -0.42790001852E+01 -0.70088795878E+01  0.17851432116E+03  0.17870309761E+03  0.00000000000E+00 0.  1.
         11    1    1    2    0    0  0.65832569180E+01  0.95350931356E+00 -0.15109845249E+03  0.15124480420E+03  0.00000000000E+00 0.  1.
        -15    1    1    2    0    0  0.75370279270E+01  0.33351515757E+01 -0.37721321632E+01  0.92367059097E+01  0.17770000000E+01 0. -1.
         15    1    1    2    0    0 -0.98412846599E+01  0.27202186986E+01 -0.23643736508E+02  0.25815392280E+02  0.17770000000E+01 0.  1.
</event>
<event>
 6    1  0.1097339E-002  0.1874673E+03  0.7546771E-02  0.1064568E+00
        -11   -1    0    0    0    0  0.00000000000E+00  0.00000000000E+00  0.18250000000E+03  0.18250000000E+03  0.00000000000E+00 0.  1.
         11   -1    0    0    0    0 -0.00000000000E+00 -0.00000000000E+00 -0.18250000000E+03  0.18250000000E+03  0.00000000000E+00 0. -1.
        -11    1    1    2    0    0 -0.36153265873E+01  0.99237408740E+00  0.16543663843E+03  0.16547911266E+03  0.00000000000E+00 0.  1.
         11    1    1    2    0    0 -0.17267389684E+01  0.24083092785E+01 -0.17750794155E+03  0.17753267557E+03  0.00000000000E+00 0. -1.
        -15    1    1    2    0    0  0.15248828770E+01 -0.84088424050E+01  0.12705087536E+02  0.15414631902E+02  0.17770000000E+01 0.  1.
         15    1    1    2    0    0  0.38171826787E+01  0.50081590391E+01 -0.63378441854E+00  0.65735798659E+01  0.17770000000E+01 0. -1.
</event>
<event>
 6    1  0.1097339E-002  0.1827702E+03  0.7546771E-02  0.1068240E+00
        -11   -1    0    0    0    0  0.00000000000E+00  0.00000000000E+00  0.18250000000E+03  0.18250000000E+03  0.00000000000E+00 0.  1.
         11   -1    0    0    0    0 -0.00000000000E+00 -0.00000000000E+00 -0.18250000000E+03  0.18250000000E+03  0.00000000000E+00 0.  1.
        -11    1    1    2    0    0 -0.25470200353E+01  0.17134201569E+01  0.18220390405E+03  0.18222976094E+03  0.00000000000E+00 0.  1.
         11    1    1    2    0    0  0.30543439438E+01 -0.11526995361E+01 -0.15062060628E+03  0.15065598153E+03  0.00000000000E+00 0.  1.
        -15    1    1    2    0    0 -0.13034379897E+01 -0.11846912108E+01 -0.67819132036E+01  0.72287287650E+01  0.17770000000E+01 0.  1.
         15    1    1    2    0    0  0.79611408119E+00  0.62397059000E+00 -0.24801384563E+02  0.24885528770E+02  0.17770000000E+01 0.  1.
</event>
<event>
 6    1  0.1097339E-002  0.1826262E+03  0.7546771E-02  0.1068354E+00
        -11   -1    0    0    0    0  0.00000000000E+00  0.00000000000E+00  0.18250000000E+03  0.18250000000E+03  0.00000000000E+00 0. -1.
         11   -1    0    0    0    0 -0.00000000000E+00 -0.00000000000E+00 -0.18250000000E+03  0.18250000000E+03  0.00000000000E+00 0. -1.
        -11    1    1    2    0    0  0.11917916814E+01 -0.59911839537E+00  0.90279814690E+02  0.90289668571E+02  0.00000000000E+00 0. -1.
         11    1    1    2    0    0  0.20863436967E+01  0.18378558437E+01 -0.18235258861E+03  0.18237378407E+03  0.00000000000E+00 0. -1.
        -15    1    1    2    0    0 -0.42822622451E+01 -0.21601114603E+00  0.66688893538E+02  0.66850210778E+02  0.17770000000E+01 0. -1.
         15    1    1    2    0    0  0.10041268670E+01 -0.10227263023E+01  0.25383880383E+02  0.25486336577E+02  0.17770000000E+01 0. -1.
</event>
<event>
 6    1  0.1097339E-002  0.1760877E+03  0.7546771E-02  0.1073677E+00
        -11   -1    0    0    0    0  0.00000000000E+00  0.00000000000E+00  0.18250000000E+03  0.18250000000E+03  0.00000000000E+00 0.  1.
         11   -1    0    0    0    0 -0.00000000000E+00 -0.00000000000E+00 -0.18250000000E+03  0.18250000000E+03  0.00000000000E+00 0. -1.
        -11    1    1    2    0    0 -0.16916337020E+01 -0.32586220900E+01  0.17535150882E+03  0.17538994238E+03  0.00000000000E+00 0.  1.
         11    1    1    2    0    0 -0.25759993597E+01  0.15278054867E+01 -0.17679312334E+03  0.17681849005E+03  0.00000000000E+00 0. -1.
        -15    1    1    2    0    0  0.15883429291E+00 -0.27400380029E+01 -0.34806345670E+01  0.47755190900E+01  0.17770000000E+01 0. -1.
         15    1    1    2    0    0  0.41087987688E+01  0.44708546061E+01  0.49222490890E+01  0.80160484858E+01  0.17770000000E+01 0.  1.
</event>
<event>
 6    1  0.1097339E-002  0.1833577E+03  0.7546771E-02  0.1067774E+00
        -11   -1    0    0    0    0  0.00000000000E+00  0.00000000000E+00  0.18250000000E+03  0.18250000000E+03  0.00000000000E+00 0.  1.
         11   -1    0    0    0    0 -0.00000000000E+00 -0.00000000000E+00 -0.18250000000E+03  0.18250000000E+03  0.00000000000E+00 0.  1.
        -11    1    1    2    0    0 -0.75789075410E+00  0.52294406599E+01  0.18156543574E+03  0.18164231033E+03  0.00000000000E+00 0.  1.
         11    1    1    2    0    0 -0.21997332986E+01 -0.63057870223E+01 -0.11084361592E+03  0.11104462601E+03  0.00000000000E+00 0.  1.
        -15    1    1    2    0    0 -0.19621941784E+00 -0.59041975132E+00 -0.45978960068E+00  0.19381003636E+01  0.17770000000E+01 0.  1.
         15    1    1    2    0    0  0.31538434705E+01  0.16667661137E+01 -0.70262030224E+02  0.70374963290E+02  0.17770000000E+01 0. -1.
</event>
<event>
 6    1  0.1097339E-002  0.1926935E+03  0.7546771E-02  0.1060618E+00
        -11   -1    0    0    0    0  0.00000000000E+00  0.00000000000E+00  0.18250000000E+03  0.18250000000E+03  0.00000000000E+00 0.  1.
         11   -1    0    0    0    0 -0.00000000000E+00 -0.00000000000E+00 -0.18250000000E+03  0.18250000000E+03  0.00000000000E+00 0.  1.
        -11    1    1    2    0    0 -0.42304823108E+01 -0.18095768545E+01  0.14033995437E+03  0.14041536363E+03  0.00000000000E+00 0.  1.
         11    1    1    2    0    0 -0.58546674410E+01 -0.10864947028E+01 -0.17220357671E+03  0.17230649852E+03  0.00000000000E+00 0.  1.
        -15    1    1    2    0    0  0.13069714031E+02  0.65425216216E+01 -0.46334098791E+01  0.15435291709E+02  0.17770000000E+01 0.  1.
         15    1    1    2    0    0 -0.29845642794E+01 -0.36464500642E+01  0.36497032216E+02  0.36842846138E+02  0.17770000000E+01 0. -1.
</event>
<event>
 6    1  0.1097339E-002  0.1855641E+03  0.7546771E-02  0.1066042E+00
        -11   -1    0    0    0    0  0.00000000000E+00  0.00000000000E+00  0.18250000000E+03  0.18250000000E+03  0.00000000000E+00 0. -1.
         11   -1    0    0    0    0 -0.00000000000E+00 -0.00000000000E+00 -0.18250000000E+03  0.18250000000E+03  0.00000000000E+00 0.  1.
        -11    1    1    2    0    0 -0.82349658476E+01  0.21421005286E+01  0.17923402947E+03  0.17943589546E+03  0.00000000000E+00 0. -1.
         11    1    1    2    0    0 -0.45420140730E+01 -0.20581213719E+01 -0.13442038502E+03  0.13451284572E+03  0.00000000000E+00 0.  1.
        -15    1    1    2    0    0  0.68160234578E+01  0.26314990974E+01 -0.21074382452E+01  0.78090965056E+01  0.17770000000E+01 0.  1.
         15    1    1    2    0    0  0.59609564628E+01 -0.27154782540E+01 -0.42706206208E+02  0.43242162316E+02  0.17770000000E+01 0.  1.
</event>
<event>
 6    1  0.1097339E-002  0.1912739E+03  0.7546771E-02  0.1061678E+00
        -11   -1    0    0    0    0  0.00000000000E+00  0.00000000000E+00  0.18250000000E+03  0.18250000000E+03  0.00000000000E+00 0.  1.
         11   -1    0    0    0    0 -0.00000000000E+00 -0.00000000000E+00 -0.18250000000E+03  0.18250000000E+03  0.00000000000E+00 0.  1.
        -11    1    1    2    0    0 -0.89846715649E+01 -0.15002310876E+00  0.16962102224E+03  0.16985887677E+03  0.00000000000E+00 0.  1.
         11    1    1    2    0    0  0.10066820172E+02  0.37375193675E+01 -0.17339392001E+03  0.17372611035E+03  0.00000000000E+00 0.  1.
        -15    1    1    2    0    0 -0.81551355229E+01 -0.81188449608E+01 -0.82944845965E+00  0.11673371092E+02  0.17770000000E+01 0. -1.
         15    1    1    2    0    0  0.70729869160E+01  0.45313487021E+01  0.46023462305E+01  0.97416417918E+01  0.17770000000E+01 0.  1.
</event>
<event>
 6    1  0.1097339E-002  0.1842343E+03  0.7546771E-02  0.1067083E+00
        -11   -1    0    0    0    0  0.00000000000E+00  0.00000000000E+00  0.18250000000E+03  0.18250000000E+03  0.00000000000E+00 0. -1.
         11   -1    0    0    0    0 -0.00000000000E+00 -0.00000000000E+00 -0.18250000000E+03  0.18250000000E+03  0.00000000000E+00 0. -1.
        -11    1    1    2    0    0 -0.16398286307E+01 -0.38784342036E+01  0.18071660456E+03  0.18076565618E+03  0.00000000000E+00 0. -1.
         11    1    1    2    0    0  0.26851050376E+01  0.32143614964E+01 -0.10392334985E+03  0.10400771392E+03  0.00000000000E+00 0. -1.
        -15    1    1    2    0    0  0.84441179160E+00  0.29500209189E+00 -0.77489960047E+02  0.77515493255E+02  0.17770000000E+01 0.  1.
         15    1    1    2    0    0 -0.18896881985E+01  0.36907061527E+00  0.69670534215E+00  0.27111366510E+01  0.17770000000E+01 0. -1.
</event>
<event>
 6    1  0.1457621E-002  0.1829957E+03  0.7546771E-02  0.1068061E+00
        -11   -1    0    0    0    0  0.00000000000E+00  0.00000000000E+00  0.18250000000E+03  0.18250000000E+03  0.00000000000E+00 0.  1.
         11   -1    0    0    0    0 -0.00000000000E+00 -0.00000000000E+00 -0.18250000000E+03  0.18250000000E+03  0.00000000000E+00 0. -1.
        -11    1    1    2    0    0 -0.19505119603E+01  0.16316693279E+01  0.18198654958E+03  0.18200431607E+03  0.00000000000E+00 0.  1.
         11    1    1    2    0    0 -0.10648900533E+01 -0.39614463967E+00 -0.38277152116E+02  0.38294011223E+02  0.00000000000E+00 0. -1.
        -15    1    1    2    0    0 -0.36626604885E-02 -0.19041145294E+01 -0.31078030849E+01  0.40548532119E+01  0.17770000000E+01 0.  1.
         15    1    1    2    0    0  0.30190646741E+01  0.66858984113E+00 -0.14060159438E+03  0.14064681949E+03  0.17770000000E+01 0. -1.
</event>
<event>
 6    1  0.1097339E-002  0.1841572E+03  0.7546771E-02  0.1067143E+00
        -11   -1    0    0    0    0  0.00000000000E+00  0.00000000000E+00  0.18250000000E+03  0.18250000000E+03  0.00000000000E+00 0.  1.
         11   -1    0    0    0    0 -0.00000000000E+00 -0.00000000000E+00 -0.18250000000E+03  0.18250000000E+03  0.00000000000E+00 0.  1.
        -11    1    1    2    0    0 -0.24005885173E+01  0.37105246949E+01  0.18078880425E+03  0.18084281175E+03  0.00000000000E+00 0.  1.
         11    1    1    2    0    0  0.21217334051E+01  0.26836557654E+01 -0.16988019214E+03  0.16991463575E+03  0.00000000000E+00 0.  1.
        -15    1    1    2    0    0 -0.47638376424E+00  0.52279587563E+00 -0.30202136654E+01  0.35748673546E+01  0.17770000000E+01 0.  1.
         15    1    1    2    0    0  0.75523887643E+00 -0.69169763360E+01 -0.78883984398E+01  0.10667685144E+02  0.17770000000E+01 0.  1.
</event>
<event>
 6    1  0.1097339E-002  0.1837945E+03  0.7546771E-02  0.1067429E+00
        -11   -1    0    0    0    0  0.00000000000E+00  0.00000000000E+00  0.18250000000E+03  0.18250000000E+03  0.00000000000E+00 0.  1.
         11   -1    0    0    0    0 -0.00000000000E+00 -0.00000000000E+00 -0.18250000000E+03  0.18250000000E+03  0.00000000000E+00 0. -1.
        -11    1    1    2    0    0 -0.87763394857E+00  0.21816115725E+01  0.13922741143E+03  0.13924726842E+03  0.00000000000E+00 0.  1.
         11    1    1    2    0    0  0.10856538675E+02 -0.63974445097E+01 -0.18076682866E+03  0.18120551336E+03  0.00000000000E+00 0. -1.
        -15    1    1    2    0    0 -0.41946955119E+01  0.24004605169E+01  0.35280415718E+02  0.35654216348E+02  0.17770000000E+01 0.  1.
         15    1    1    2    0    0 -0.57842092146E+01  0.18153724204E+01  0.62590015177E+01  0.88930018701E+01  0.17770000000E+01 0. -1.
</event>
<event>
 6    1  0.1097339E-002  0.1878565E+03  0.7546771E-02  0.1064269E+00
        -11   -1    0    0    0    0  0.00000000000E+00  0.00000000000E+00  0.18250000000E+03  0.18250000000E+03  0.00000000000E+00 0. -1.
         11   -1    0    0    0    0 -0.00000000000E+00 -0.00000000000E+00 -0.18250000000E+03  0.18250000000E+03  0.00000000000E+00 0. -1.
        -11    1    1    2    0    0  0.25792460797E+01  0.77946252613E-01  0.17712465714E+03  0.17714345247E+03  0.00000000000E+00 0. -1.
         11    1    1    2    0    0  0.30492376276E+01  0.43458633560E+01 -0.16317906148E+03  0.16326539891E+03  0.00000000000E+00 0. -1.
        -15    1    1    2    0    0 -0.43970637617E+01  0.28967279548E+01  0.27743247317E+01  0.62112647090E+01  0.17770000000E+01 0.  1.
         15    1    1    2    0    0 -0.12314199457E+01 -0.73205375635E+01 -0.16719920397E+02  0.18379883906E+02  0.17770000000E+01 0. -1.
</event>
<event>
 6    1  0.1097339E-002  0.1730320E+03  0.7546771E-02  0.1076252E+00
        -11   -1    0    0    0    0  0.00000000000E+00  0.00000000000E+00  0.18250000000E+03  0.18250000000E+03  0.00000000000E+00 0.  1.
         11   -1    0    0    0    0 -0.00000000000E+00 -0.00000000000E+00 -0.18250000000E+03  0.18250000000E+03  0.00000000000E+00 0.  1.
        -11    1    1    2    0    0 -0.36796072950E+01 -0.15106024353E+01  0.17559454926E+03  0.17563959451E+03  0.00000000000E+00 0.  1.
         11    1    1    2    0    0  0.29327083699E+00 -0.84430482511E+01 -0.17041350707E+03  0.17062278413E+03  0.00000000000E+00 0.  1.
        -15    1    1    2    0    0 -0.35886764522E+01  0.55861681810E+01 -0.73300572733E+01  0.10048449744E+02  0.17770000000E+01 0.  1.
         15    1    1    2    0    0  0.69750129102E+01  0.43674825054E+01  0.21490150843E+01  0.86891716156E+01  0.17770000000E+01 0. -1.
</event>
<event>
 6    1  0.1097339E-002  0.1887790E+03  0.7546771E-02  0.1063564E+00
        -11   -1    0    0    0    0  0.00000000000E+00  0.00000000000E+00  0.18250000000E+03  0.18250000000E+03  0.00000000000E+00 0. -1.
         11   -1    0    0    0    0 -0.00000000000E+00 -0.00000000000E+00 -0.18250000000E+03  0.18250000000E+03  0.00000000000E+00 0.  1.
        -11    1    1    2    0    0 -0.19789253840E+01  0.15935825038E+01  0.16726046693E+03  0.16727976402E+03  0.00000000000E+00 0. -1.
         11    1    1    2    0    0 -0.25451966268E+01 -0.83061665307E-01 -0.17620260127E+03  0.17622100221E+03  0.00000000000E+00 0.  1.
        -15    1    1    2    0    0  0.27406019633E+01 -0.94441210781E+01  0.10827281358E+01  0.10051485028E+02  0.17770000000E+01 0. -1.
         15    1    1    2    0    0  0.17835200475E+01  0.79336002396E+01  0.78594062026E+01  0.11447748747E+02  0.17770000000E+01 0.  1.
</event>
<event>
 6    1  0.1097339E-002  0.1882867E+03  0.7546771E-02  0.1063940E+00
        -11   -1    0    0    0    0  0.00000000000E+00  0.00000000000E+00  0.18250000000E+03  0.18250000000E+03  0.00000000000E+00 0.  1.
         11   -1    0    0    0    0 -0.00000000000E+00 -0.00000000000E+00 -0.18250000000E+03  0.18250000000E+03  0.00000000000E+00 0. -1.
        -11    1    1    2    0    0  0.26693710007E+01 -0.20321215660E+01  0.17668149957E+03  0.17671334797E+03  0.00000000000E+00 0.  1.
         11    1    1    2    0    0 -0.16691079495E+01  0.32826386305E+01 -0.17374783102E+03  0.17378685342E+03  0.00000000000E+00 0. -1.
        -15    1    1    2    0    0  0.59161791681E+01 -0.25702221519E+01 -0.62868812404E-01  0.66909565346E+01  0.17770000000E+01 0.  1.
         15    1    1    2    0    0 -0.69164422193E+01  0.13197050875E+01 -0.28707997420E+01  0.78088420812E+01  0.17770000000E+01 0. -1.
</event>
<event>
 6    1  0.1097339E-002  0.1839681E+03  0.7546771E-02  0.1067292E+00
        -11   -1    0    0    0    0  0.00000000000E+00  0.00000000000E+00  0.18250000000E+03  0.18250000000E+03  0.00000000000E+00 0.  1.
         11   -1    0    0    0    0 -0.00000000000E+00 -0.00000000000E+00 -0.18250000000E+03  0.18250000000E+03  0.00000000000E+00 0.  1.
        -11    1    1    2    0    0  0.13284106018E+01 -0.60112543226E+01  0.16091038811E+03  0.16102811200E+03  0.00000000000E+00 0.  1.
         11    1    1    2    0    0 -0.24504740658E+01 -0.36183110158E+00 -0.18101495799E+03  0.18103190537E+03  0.00000000000E+00 0.  1.
        -15    1    1    2    0    0  0.84916028542E+00  0.76009456560E+00  0.14985303329E+02  0.15133270030E+02  0.17770000000E+01 0. -1.
         15    1    1    2    0    0  0.27290317857E+00  0.56129908586E+01  0.51192665548E+01  0.78067125977E+01  0.17770000000E+01 0.  1.
</event>
<event>
 6    1  0.1097339E-002  0.1868280E+03  0.7546771E-02  0.1065061E+00
        -11   -1    0    0    0    0  0.00000000000E+00  0.00000000000E+00  0.18250000000E+03  0.18250000000E+03  0.00000000000E+00 0. -1.
         11   -1    0    0    0    0 -0.00000000000E+00 -0.00000000000E+00 -0.18250000000E+03  0.18250000000E+03  0.00000000000E+00 0. -1.
        -11    1    1    2    0    0 -0.51707018325E+01  0.64868290004E+00  0.17809579943E+03  0.17817202564E+03  0.00000000000E+00 0. -1.
         11    1    1    2    0    0 -0.96602092287E+00  0.57229037673E+01 -0.15907844007E+03  0.15918427974E+03  0.00000000000E+00 0. -1.
        -15    1    1    2    0    0 -0.22295326313E+01  0.42818718550E+01 -0.10083907367E+02  0.11320254376E+02  0.17770000000E+01 0.  1.
         15    1    1    2    0    0  0.83662553867E+01 -0.10653458522E+02 -0.89334519956E+01  0.16323440239E+02  0.17770000000E+01 0. -1.
</event>
<event>
 6    1  0.1097339E-002  0.1837160E+03  0.7546771E-02  0.1067491E+00
        -11   -1    0    0    0    0  0.00000000000E+00  0.00000000000E+00  0.18250000000E+03  0.18250000000E+03  0.00000000000E+00 0. -1.
         11   -1    0    0    0    0 -0.00000000000E+00 -0.00000000000E+00 -0.18250000000E+03  0.18250000000E+03  0.00000000000E+00 0.  1.
        -11    1    1    2    0    0 -0.40266107370E+00 -0.28910412876E+01  0.17321422235E+03  0.17323881517E+03  0.00000000000E+00 0. -1.
         11    1    1    2    0    0  0.23543215777E+01 -0.75292584728E+00 -0.18126714782E+03  0.18128399986E+03  0.00000000000E+00 0.  1.
        -15    1    1    2    0    0 -0.15591999286E+01  0.41816622152E+01  0.56857649296E+01  0.74433228557E+01  0.17770000000E+01 0. -1.
         15    1    1    2    0    0 -0.39246057544E+00 -0.53769508036E+00  0.23671605398E+01  0.30338621136E+01  0.17770000000E+01 0.  1.
</event>
<event>
 6    1  0.1097339E-002  0.1827203E+03  0.7546771E-02  0.1068280E+00
        -11   -1    0    0    0    0  0.00000000000E+00  0.00000000000E+00  0.18250000000E+03  0.18250000000E+03  0.00000000000E+00 0. -1.
         11   -1    0    0    0    0 -0.00000000000E+00 -0.00000000000E+00 -0.18250000000E+03  0.18250000000E+03  0.00000000000E+00 0.  1.
        -11    1    1    2    0    0  0.15206183456E+01 -0.20132317550E+01  0.18226227030E+03  0.18227973161E+03  0.00000000000E+00 0. -1.
         11    1    1    2    0    0 -0.45100144337E+01  0.18155814655E+01 -0.98243286606E+02  0.98363509135E+02  0.00000000000E+00 0.  1.
        -15    1    1    2    0    0  0.23127681290E+01 -0.26932116901E+01 -0.52013237609E+02  0.52164517646E+02  0.17770000000E+01 0. -1.
         15    1    1    2    0    0  0.67662795917E+00  0.28908619796E+01 -0.32005746083E+02  0.32192241607E+02  0.17770000000E+01 0.  1.
</event>
<event>
 6    1  0.1097339E-002  0.1826622E+03  0.7546771E-02  0.1068326E+00
        -11   -1    0    0    0    0  0.00000000000E+00  0.00000000000E+00  0.18250000000E+03  0.18250000000E+03  0.00000000000E+00 0. -1.
         11   -1    0    0    0    0 -0.00000000000E+00 -0.00000000000E+00 -0.18250000000E+03  0.18250000000E+03  0.00000000000E+00 0. -1.
        -11    1    1    2    0    0 -0.31521401691E+00  0.14600530566E+01  0.71152523517E+02  0.71168200185E+02  0.00000000000E+00 0. -1.
         11    1    1    2    0    0  0.30992736621E+01  0.27356215491E+01 -0.18229097392E+03  0.18233784109E+03  0.00000000000E+00 0. -1.
        -15    1    1    2    0    0 -0.47287678264E+01 -0.35436751134E+01  0.79806826552E+02  0.80045025902E+02  0.17770000000E+01 0. -1.
         15    1    1    2    0    0  0.19447081813E+01 -0.65199949226E+00  0.31331623851E+02  0.31448932818E+02  0.17770000000E+01 0. -1.
</event>
<event>
 6    1  0.1097339E-002  0.1845623E+03  0.7546771E-02  0.1066825E+00
        -11   -1    0    0    0    0  0.00000000000E+00  0.00000000000E+00  0.18250000000E+03  0.18250000000E+03  0.00000000000E+00 0. -1.
         11   -1    0    0    0    0 -0.00000000000E+00 -0.00000000000E+00 -0.18250000000E+03  0.18250000000E+03  0.00000000000E+00 0. -1.
        -11    1    1    2    0    0 -0.45213480039E+01 -0.94298120021E-01  0.15834611912E+03  0.15841068436E+03  0.00000000000E+00 0. -1.
         11    1    1    2    0    0 -0.21264786752E+01  0.49933782185E+01 -0.18035602172E+03  0.18043766322E+03  0.00000000000E+00 0. -1.
        -15    1    1    2    0    0  0.69599921117E+01 -0.71835810838E+01  0.20484406357E+02  0.22865125414E+02  0.17770000000E+01 0. -1.
         15    1    1    2    0    0 -0.31216543269E+00  0.22845009853E+01  0.15254962400E+01  0.32865270100E+01  0.17770000000E+01 0. -1.
</event>
<event>
 6    1  0.1097339E-002  0.1835073E+03  0.7546771E-02  0.1067656E+00
        -11   -1    0    0    0    0  0.00000000000E+00  0.00000000000E+00  0.18250000000E+03  0.18250000000E+03  0.00000000000E+00 0.  1.
         11   -1    0    0    0    0 -0.00000000000E+00 -0.00000000000E+00 -0.18250000000E+03  0.18250000000E+03  0.00000000000E+00 0.  1.
        -11    1    1    2    0    0 -0.47279800483E+01  0.14635442784E+01  0.14021801731E+03  0.14030533894E+03  0.00000000000E+00 0.  1.
         11    1    1    2    0    0 -0.27250813850E+01 -0.70264591205E+00 -0.18147092319E+03  0.18149274295E+03  0.00000000000E+00 0.  1.
        -15    1    1    2    0    0 -0.71749637647E+00  0.12348528106E+01  0.20446958254E+01  0.30623802070E+01  0.17770000000E+01 0.  1.
         15    1    1    2    0    0  0.81705578098E+01 -0.19957511770E+01  0.39208210057E+02  0.40139537897E+02  0.17770000000E+01 0.  1.
</event>
<event>
 6    1  0.1097339E-002  0.1848176E+03  0.7546771E-02  0.1066625E+00
        -11   -1    0    0    0    0  0.00000000000E+00  0.00000000000E+00  0.18250000000E+03  0.18250000000E+03  0.00000000000E+00 0. -1.
         11   -1    0    0    0    0 -0.00000000000E+00 -0.00000000000E+00 -0.18250000000E+03  0.18250000000E+03  0.00000000000E+00 0. -1.
        -11    1    1    2    0    0  0.60022490916E+00  0.15723498336E+01  0.11701755679E+03  0.11702965928E+03  0.00000000000E+00 0. -1.
         11    1    1    2    0    0 -0.23839394694E+00  0.55310271903E+01 -0.18009732035E+03  0.18018239062E+03  0.00000000000E+00 0. -1.
        -15    1    1    2    0    0 -0.85812589945E+01  0.32878592645E+01  0.13427879153E+02  0.16368069282E+02  0.17770000000E+01 0.  1.
         15    1    1    2    0    0  0.82194280323E+01 -0.10391236288E+02  0.49651884410E+02  0.51419880817E+02  0.17770000000E+01 0. -1.
</event>
<event>
 6    1  0.1097339E-002  0.1904590E+03  0.7546771E-02  0.1062290E+00
        -11   -1    0    0    0    0  0.00000000000E+00  0.00000000000E+00  0.18250000000E+03  0.18250000000E+03  0.00000000000E+00 0. -1.
         11   -1    0    0    0    0 -0.00000000000E+00 -0.00000000000E+00 -0.18250000000E+03  0.18250000000E+03  0.00000000000E+00 0. -1.
        -11    1    1    2    0    0  0.75836778785E+00  0.36534265037E+01  0.87278753349E+02  0.87358476595E+02  0.00000000000E+00 0. -1.
         11    1    1    2    0    0 -0.35832703214E+01 -0.16605681895E+01 -0.17449634038E+03  0.17454102704E+03  0.00000000000E+00 0. -1.
        -15    1    1    2    0    0  0.20617047212E+02  0.11505715940E+01  0.86423241807E+01  0.22455154130E+02  0.17770000000E+01 0. -1.
         15    1    1    2    0    0 -0.17792144679E+02 -0.31434299082E+01  0.78575262850E+02  0.80645342239E+02  0.17770000000E+01 0.  1.
</event>
<event>
 6    1  0.1097339E-002  0.1837355E+03  0.7546771E-02  0.1067476E+00
        -11   -1    0    0    0    0  0.00000000000E+00  0.00000000000E+00  0.18250000000E+03  0.18250000000E+03  0.00000000000E+00 0. -1.
         11   -1    0    0    0    0 -0.00000000000E+00 -0.00000000000E+00 -0.18250000000E+03  0.18250000000E+03  0.00000000000E+00 0. -1.
        -11    1    1    2    0    0  0.17507891148E+01  0.18980120438E+01  0.14020136296E+03  0.14022514000E+03  0.00000000000E+00 0. -1.
         11    1    1    2    0    0  0.11587990355E+01  0.32755494645E+01 -0.18123119485E+03  0.18126449743E+03  0.00000000000E+00 0. -1.
        -15    1    1    2    0    0  0.27665626518E+00  0.26041123592E+01  0.24962178498E+01  0.40307285225E+01  0.17770000000E+01 0. -1.
         15    1    1    2    0    0 -0.31862444155E+01 -0.77776738675E+01  0.38533614041E+02  0.39479634045E+02  0.17770000000E+01 0. -1.
</event>
<event>
 6    1  0.1097339E-002  0.1912090E+03  0.7546771E-02  0.1061726E+00
        -11   -1    0    0    0    0  0.00000000000E+00  0.00000000000E+00  0.18250000000E+03  0.18250000000E+03  0.00000000000E+00 0. -1.
         11   -1    0    0    0    0 -0.00000000000E+00 -0.00000000000E+00 -0.18250000000E+03  0.18250000000E+03  0.00000000000E+00 0.  1.
        -11    1    1    2    0    0  0.30635639045E+01  0.81409965694E+01  0.13943664636E+03  0.13970769340E+03  0.00000000000E+00 0. -1.
         11    1    1    2    0    0  0.25924059395E+01  0.61965853029E+01 -0.17366117995E+03  0.17379103447E+03  0.00000000000E+00 0.  1.
        -15    1    1    2    0    0 -0.19176545057E+01 -0.55586657152E+01  0.39824749975E+02  0.40295714449E+02  0.17770000000E+01 0. -1.
         15    1    1    2    0    0 -0.37383153383E+01 -0.87789161571E+01 -0.56002163780E+01  0.11205557681E+02  0.17770000000E+01 0.  1.
</event>
<event>
 6    1  0.1097339E-002  0.1828855E+03  0.7546771E-02  0.1068148E+00
        -11   -1    0    0    0    0  0.00000000000E+00  0.00000000000E+00  0.18250000000E+03  0.18250000000E+03  0.00000000000E+00 0. -1.
         11   -1    0    0    0    0 -0.00000000000E+00 -0.00000000000E+00 -0.18250000000E+03  0.18250000000E+03  0.00000000000E+00 0. -1.
        -11    1    1    2    0    0 -0.12584372552E+01 -0.44239570667E-01  0.64115571301E+02  0.64127935447E+02  0.00000000000E+00 0. -1.
         11    1    1    2    0    0 -0.32386111566E+01  0.52014675208E+00 -0.18208491066E+03  0.18211445260E+03  0.00000000000E+00 0. -1.
        -15    1    1    2    0    0  0.61326648835E+01 -0.28804561121E+01  0.33743555083E+02  0.34462905343E+02  0.17770000000E+01 0.  1.
         15    1    1    2    0    0 -0.16356164716E+01  0.24045489307E+01  0.84225784277E+02  0.84294706612E+02  0.17770000000E+01 0. -1.
</event>
<event>
 6    1  0.1097339E-002  0.1826728E+03  0.7546771E-02  0.1068317E+00
        -11   -1    0    0    0    0  0.00000000000E+00  0.00000000000E+00  0.18250000000E+03  0.18250000000E+03  0.00000000000E+00 0. -1.
         11   -1    0    0    0    0 -0.00000000000E+00 -0.00000000000E+00 -0.18250000000E+03  0.18250000000E+03  0.00000000000E+00 0. -1.
        -11    1    1    2    0    0  0.21806451984E+01 -0.11446221443E+01  0.18231051972E+03  0.18232715369E+03  0.00000000000E+00 0. -1.
         11    1    1    2    0    0  0.21456233136E+01  0.14343022158E+01 -0.94760434224E+02  0.94795573824E+02  0.00000000000E+00 0. -1.
        -15    1    1    2    0    0  0.20727714608E+00 -0.17126087167E+01 -0.32272726013E+02  0.32367616003E+02  0.17770000000E+01 0. -1.
         15    1    1    2    0    0 -0.45335456581E+01  0.14229286451E+01 -0.55277359483E+02  0.55509656480E+02  0.17770000000E+01 0. -1.
</event>
<event>
 6    1  0.1097339E-002  0.1873940E+03  0.7546771E-02  0.1064625E+00
        -11   -1    0    0    0    0  0.00000000000E+00  0.00000000000E+00  0.18250000000E+03  0.18250000000E+03  0.00000000000E+00 0.  1.
         11   -1    0    0    0    0 -0.00000000000E+00 -0.00000000000E+00 -0.18250000000E+03  0.18250000000E+03  0.00000000000E+00 0.  1.
        -11    1    1    2    0    0 -0.33820628581E+00 -0.34580779464E+01  0.17757205114E+03  0.17760604166E+03  0.00000000000E+00 0.  1.
         11    1    1    2    0    0  0.19881041961E+00  0.26386366907E+01 -0.17593848488E+03  0.17595838255E+03  0.00000000000E+00 0.  1.
        -15    1    1    2    0    0  0.97905958000E-01  0.23211130334E+01  0.42211156065E+01  0.51354354493E+01  0.17770000000E+01 0. -1.
         15    1    1    2    0    0  0.41489908206E-01 -0.15016717778E+01 -0.58546818702E+01  0.63001403430E+01  0.17770000000E+01 0. -1.
</event>
<event>
 6    1  0.1097339E-002  0.1832914E+03  0.7546771E-02  0.1067827E+00
        -11   -1    0    0    0    0  0.00000000000E+00  0.00000000000E+00  0.18250000000E+03  0.18250000000E+03  0.00000000000E+00 0.  1.
         11   -1    0    0    0    0 -0.00000000000E+00 -0.00000000000E+00 -0.18250000000E+03  0.18250000000E+03  0.00000000000E+00 0.  1.
        -11    1    1    2    0    0 -0.27911668986E+01  0.13862902705E+01  0.15519377163E+03  0.15522505972E+03  0.00000000000E+00 0.  1.
         11    1    1    2    0    0  0.90115441264E+00  0.45992423271E+01 -0.18164818133E+03  0.18170863186E+03  0.00000000000E+00 0.  1.
        -15    1    1    2    0    0  0.87550864912E+00 -0.32932940792E+01  0.22660549581E+02  0.22984136651E+02  0.17770000000E+01 0.  1.
         15    1    1    2    0    0  0.10145038368E+01 -0.26922385184E+01  0.37938601221E+01  0.50821717701E+01  0.17770000000E+01 0. -1.
</event>
<event>
 6    1  0.1097339E-002  0.1839900E+03  0.7546771E-02  0.1067275E+00
        -11   -1    0    0    0    0  0.00000000000E+00  0.00000000000E+00  0.18250000000E+03  0.18250000000E+03  0.00000000000E+00 0.  1.
         11   -1    0    0    0    0 -0.00000000000E+00 -0.00000000000E+00 -0.18250000000E+03  0.18250000000E+03  0.00000000000E+00 0.  1.
        -11    1    1    2    0    0 -0.24942031012E+01 -0.12119878079E+02  0.18058651794E+03  0.18100995264E+03  0.00000000000E+00 0.  1.
         11    1    1    2    0    0  0.63854540960E+01 -0.77099563885E+00 -0.13590996911E+03  0.13606207466E+03  0.00000000000E+00 0.  1.
        -15    1    1    2    0    0 -0.58357819384E+01  0.12918472087E+02 -0.40900625431E+02  0.43323921354E+02  0.17770000000E+01 0.  1.
         15    1    1    2    0    0  0.19445309436E+01 -0.27598368814E-01 -0.37759233964E+01  0.46040513416E+01  0.17770000000E+01 0.  1.
</event>
<event>
 6    1  0.1097339E-002  0.1964984E+03  0.7546771E-02  0.1057828E+00
        -11   -1    0    0    0    0  0.00000000000E+00  0.00000000000E+00  0.18250000000E+03  0.18250000000E+03  0.00000000000E+00 0. -1.
         11   -1    0    0    0    0 -0.00000000000E+00 -0.00000000000E+00 -0.18250000000E+03  0.18250000000E+03  0.00000000000E+00 0. -1.
        -11    1    1    2    0    0  0.11759959204E+01  0.31998408483E+01  0.16846710757E+03  0.16850159726E+03  0.00000000000E+00 0. -1.
         11    1    1    2    0    0 -0.90217667593E+00 -0.12138922347E+02 -0.12181186541E+03  0.12241853583E+03  0.00000000000E+00 0. -1.
        -15    1    1    2    0    0 -0.18824814868E+01 -0.15204348581E+01  0.13063841221E+02  0.13404370002E+02  0.17770000000E+01 0. -1.
         15    1    1    2    0    0  0.16086622423E+01  0.10459516357E+02 -0.59719083376E+02  0.60675496907E+02  0.17770000000E+01 0. -1.
</event>
<event>
 6    1  0.1097339E-002  0.1828875E+03  0.7546771E-02  0.1068147E+00
        -11   -1    0    0    0    0  0.00000000000E+00  0.00000000000E+00  0.18250000000E+03  0.18250000000E+03  0.00000000000E+00 0.  1.
         11   -1    0    0    0    0 -0.00000000000E+00 -0.00000000000E+00 -0.18250000000E+03  0.18250000000E+03  0.00000000000E+00 0.  1.
        -11    1    1    2    0    0 -0.10461172433E+01 -0.37188023953E+01  0.14561017693E+03  0.14566141382E+03  0.00000000000E+00 0.  1.
         11    1    1    2    0    0  0.17139783296E+01 -0.21797068480E+01 -0.18209138517E+03  0.18211249654E+03  0.00000000000E+00 0.  1.
        -15    1    1    2    0    0 -0.12880266787E+01  0.24431230847E+01  0.20860854628E+02  0.21117785110E+02  0.17770000000E+01 0.  1.
         15    1    1    2    0    0  0.62016559232E+00  0.34553861586E+01  0.15620353611E+02  0.16108304529E+02  0.17770000000E+01 0. -1.
</event>
<event>
 6    1  0.1097339E-002  0.2002304E+03  0.7546771E-02  0.1055157E+00
        -11   -1    0    0    0    0  0.00000000000E+00  0.00000000000E+00  0.18250000000E+03  0.18250000000E+03  0.00000000000E+00 0. -1.
         11   -1    0    0    0    0 -0.00000000000E+00 -0.00000000000E+00 -0.18250000000E+03  0.18250000000E+03  0.00000000000E+00 0.  1.
        -11    1    1    2    0    0  0.47574917645E+01 -0.21451233299E+01  0.15677524295E+03  0.15686207982E+03  0.00000000000E+00 0. -1.
         11    1    1    2    0    0 -0.78408124930E+01 -0.45798869209E+00 -0.16458226098E+03  0.16476956249E+03  0.00000000000E+00 0.  1.
        -15    1    1    2    0    0  0.92702763883E+01  0.89769314333E+00 -0.16026932166E+02  0.18621604682E+02  0.17770000000E+01 0.  1.
         15    1    1    2    0    0 -0.61869556599E+01  0.17054188787E+01  0.23833950193E+02  0.24746753013E+02  0.17770000000E+01 0.  1.
</event>
<event>
 6    1  0.1097339E-002  0.1832353E+03  0.7546771E-02  0.1067871E+00
        -11   -1    0    0    0    0  0.00000000000E+00  0.00000000000E+00  0.18250000000E+03  0.18250000000E+03  0.00000000000E+00 0.  1.
         11   -1    0    0    0    0 -0.00000000000E+00 -0.00000000000E+00 -0.18250000000E+03  0.18250000000E+03  0.00000000000E+00 0. -1.
        -11    1    1    2    0    0 -0.15940278788E+01 -0.21267525693E+01  0.18174524741E+03  0.18176468017E+03  0.00000000000E+00 0.  1.
         11    1    1    2    0    0  0.22945378828E+01  0.39474626474E+00 -0.15351734992E+03  0.15353500400E+03  0.00000000000E+00 0. -1.
        -15    1    1    2    0    0  0.18949239477E+01  0.36332631316E+01 -0.22163581157E+02  0.22609144089E+02  0.17770000000E+01 0. -1.
         15    1    1    2    0    0 -0.25954339518E+01 -0.19012568271E+01 -0.60643163372E+01  0.70911717338E+01  0.17770000000E+01 0. -1.
</event>
<event>
 6    1  0.1097339E-002  0.1856871E+03  0.7546771E-02  0.1065946E+00
        -11   -1    0    0    0    0  0.00000000000E+00  0.00000000000E+00  0.18250000000E+03  0.18250000000E+03  0.00000000000E+00 0. -1.
         11   -1    0    0    0    0 -0.00000000000E+00 -0.00000000000E+00 -0.18250000000E+03  0.18250000000E+03  0.00000000000E+00 0. -1.
        -11    1    1    2    0    0  0.26952099524E+01  0.28423372704E+01  0.17927014194E+03  0.17931292990E+03  0.00000000000E+00 0. -1.
         11    1    1    2    0    0 -0.16961186284E+00 -0.11823546351E+02 -0.16440657324E+03  0.16483126627E+03  0.00000000000E+00 0. -1.
        -15    1    1    2    0    0  0.29871145999E+01  0.67313912172E+01 -0.46151702286E+01  0.88708515144E+01  0.17770000000E+01 0. -1.
         15    1    1    2    0    0 -0.55127126895E+01  0.22498178635E+01 -0.10248398477E+02  0.11984952314E+02  0.17770000000E+01 0.  1.
</event>
<event>
 6    1  0.1097339E-002  0.1830204E+03  0.7546771E-02  0.1068041E+00
        -11   -1    0    0    0    0  0.00000000000E+00  0.00000000000E+00  0.18250000000E+03  0.18250000000E+03  0.00000000000E+00 0.  1.
         11   -1    0    0    0    0 -0.00000000000E+00 -0.00000000000E+00 -0.18250000000E+03  0.18250000000E+03  0.00000000000E+00 0. -1.
        -11    1    1    2    0    0  0.29945967074E+01  0.22879031700E+01  0.13801291277E+03  0.13806435529E+03  0.00000000000E+00 0.  1.
         11    1    1    2    0    0 -0.12821575498E+01  0.24655391439E+01 -0.18195834299E+03  0.18197956312E+03  0.00000000000E+00 0. -1.
        -15    1    1    2    0    0  0.14560371980E+01 -0.36421193861E+01  0.11339618067E+02  0.12129705060E+02  0.17770000000E+01 0.  1.
         15    1    1    2    0    0 -0.31684763556E+01 -0.11113229278E+01  0.32605812150E+02  0.32826376529E+02  0.17770000000E+01 0. -1.
</event>
<event>
 6    1  0.1097339E-002  0.1827961E+03  0.7546771E-02  0.1068219E+00
        -11   -1    0    0    0    0  0.00000000000E+00  0.00000000000E+00  0.18250000000E+03  0.18250000000E+03  0.00000000000E+00 0. -1.
         11   -1    0    0    0    0 -0.00000000000E+00 -0.00000000000E+00 -0.18250000000E+03  0.18250000000E+03  0.00000000000E+00 0.  1.
        -11    1    1    2    0    0 -0.65340236814E+01 -0.93683160354E+00  0.18208426320E+03  0.18220386940E+03  0.00000000000E+00 0. -1.
         11    1    1    2    0    0 -0.69766008204E+00  0.33067950271E+01 -0.38539858509E+02  0.38687754094E+02  0.00000000000E+00 0.  1.
        -15    1    1    2    0    0  0.84522772675E+01 -0.37286143157E+01 -0.87119149857E+02  0.87625610164E+02  0.17770000000E+01 0. -1.
         15    1    1    2    0    0 -0.12205935041E+01  0.13586508922E+01 -0.56425254838E+02  0.56482766339E+02  0.17770000000E+01 0.  1.
</event>
<event>
 6    1  0.1097339E-002  0.1922019E+03  0.7546771E-02  0.1060984E+00
        -11   -1    0    0    0    0  0.00000000000E+00  0.00000000000E+00  0.18250000000E+03  0.18250000000E+03  0.00000000000E+00 0. -1.
         11   -1    0    0    0    0 -0.00000000000E+00 -0.00000000000E+00 -0.18250000000E+03  0.18250000000E+03  0.00000000000E+00 0.  1.
        -11    1    1    2    0    0  0.84738533265E+01  0.10203169766E+02  0.15372787506E+03  0.15429896446E+03  0.00000000000E+00 0. -1.
         11    1    1    2    0    0 -0.18385216471E+01  0.81251816142E+01 -0.17259714405E+03  0.17279806965E+03  0.00000000000E+00 0.  1.
        -15    1    1    2    0    0 -0.34821666026E+01  0.39009096336E+01  0.13734189469E+02  0.14802981780E+02  0.17770000000E+01 0.  1.
         15    1    1    2    0    0 -0.31531650769E+01 -0.22229261014E+02  0.51350795280E+01  0.23099984112E+02  0.17770000000E+01 0.  1.
</event>
<event>
 6    1  0.1097339E-002  0.1958844E+03  0.7546771E-02  0.1058273E+00
        -11   -1    0    0    0    0  0.00000000000E+00  0.00000000000E+00  0.18250000000E+03  0.18250000000E+03  0.00000000000E+00 0.  1.
         11   -1    0    0    0    0 -0.00000000000E+00 -0.00000000000E+00 -0.18250000000E+03  0.18250000000E+03  0.00000000000E+00 0. -1.
        -11    1    1    2    0    0 -0.31281864095E+01 -0.36680293713E+01  0.15959960917E+03  0.15967239973E+03  0.00000000000E+00 0.  1.
         11    1    1    2    0    0  0.46803028078E+01  0.38961811445E+01 -0.16900591288E+03  0.16911559375E+03  0.00000000000E+00 0. -1.
        -15    1    1    2    0    0  0.25202984812E+01  0.16851723872E+02  0.27538762089E+01  0.17351485961E+02  0.17770000000E+01 0. -1.
         15    1    1    2    0    0 -0.40724148795E+01 -0.17079875645E+02  0.66524275054E+01  0.18860520558E+02  0.17770000000E+01 0.  1.
</event>
<event>
 6    1  0.3439281E-002  0.1827241E+03  0.7546771E-02  0.1068277E+00
        -11   -1    0    0    0    0  0.00000000000E+00  0.00000000000E+00  0.18250000000E+03  0.18250000000E+03  0.00000000000E+00 0.  1.
         11   -1    0    0    0    0 -0.00000000000E+00 -0.00000000000E+00 -0.18250000000E+03  0.18250000000E+03  0.00000000000E+00 0. -1.
        -11    1    1    2    0    0  0.27264321957E+01  0.21977722041E+01  0.18224221168E+03  0.18227585510E+03  0.00000000000E+00 0.  1.
         11    1    1    2    0    0 -0.47129668083E+00 -0.45098535910E+00 -0.40336689602E+02  0.40341963715E+02  0.00000000000E+00 0. -1.
        -15    1    1    2    0    0 -0.69044113864E+00  0.11673429802E+01 -0.12670734525E+03  0.12672706289E+03  0.17770000000E+01 0. -1.
         15    1    1    2    0    0 -0.15646943762E+01 -0.29141298251E+01 -0.15198176825E+02  0.15655118298E+02  0.17770000000E+01 0.  1.
</event>
<event>
 6    1  0.1097339E-002  0.1849910E+03  0.7546771E-02  0.1066489E+00
        -11   -1    0    0    0    0  0.00000000000E+00  0.00000000000E+00  0.18250000000E+03  0.18250000000E+03  0.00000000000E+00 0. -1.
         11   -1    0    0    0    0 -0.00000000000E+00 -0.00000000000E+00 -0.18250000000E+03  0.18250000000E+03  0.00000000000E+00 0.  1.
        -11    1    1    2    0    0 -0.89845610718E-01 -0.20203569243E+01  0.41573404472E+02  0.41622564478E+02  0.00000000000E+00 0. -1.
         11    1    1    2    0    0  0.81701017409E+01  0.39422997726E+01 -0.17978027204E+03  0.18000899562E+03  0.00000000000E+00 0.  1.
        -15    1    1    2    0    0  0.10859057272E+02  0.41762858054E+01  0.95477970961E+02  0.96200629706E+02  0.17770000000E+01 0. -1.
         15    1    1    2    0    0 -0.18939313402E+02 -0.60982286537E+01  0.42728896604E+02  0.47167810197E+02  0.17770000000E+01 0.  1.
</event>
<event>
 6    1  0.1097339E-002  0.1949403E+03  0.7546771E-02  0.1058962E+00
        -11   -1    0    0    0    0  0.00000000000E+00  0.00000000000E+00  0.18250000000E+03  0.18250000000E+03  0.00000000000E+00 0.  1.
         11   -1    0    0    0    0 -0.00000000000E+00 -0.00000000000E+00 -0.18250000000E+03  0.18250000000E+03  0.00000000000E+00 0.  1.
        -11    1    1    2    0    0 -0.70626480073E+01 -0.36757325408E+01  0.16987325464E+03  0.17005973847E+03  0.00000000000E+00 0.  1.
         11    1    1    2    0    0  0.50363161435E+01  0.10473478920E+02 -0.15425615224E+03  0.15469330543E+03  0.00000000000E+00 0.  1.
        -15    1    1    2    0    0 -0.37985550915E+00  0.13638789237E+02  0.91709274697E+00  0.13789838656E+02  0.17770000000E+01 0.  1.
         15    1    1    2    0    0  0.24061873729E+01 -0.20436535616E+02 -0.16534195143E+02  0.26457117448E+02  0.17770000000E+01 0. -1.
</event>
<event>
 6    1  0.1097339E-002  0.1923863E+03  0.7546771E-02  0.1060847E+00
        -11   -1    0    0    0    0  0.00000000000E+00  0.00000000000E+00  0.18250000000E+03  0.18250000000E+03  0.00000000000E+00 0. -1.
         11   -1    0    0    0    0 -0.00000000000E+00 -0.00000000000E+00 -0.18250000000E+03  0.18250000000E+03  0.00000000000E+00 0. -1.
        -11    1    1    2    0    0  0.24279219414E+01  0.79599462445E+00  0.16242186629E+03  0.16244196214E+03  0.00000000000E+00 0. -1.
         11    1    1    2    0    0  0.38316872450E+01  0.89119756640E+01 -0.17234092505E+03  0.17261372942E+03  0.00000000000E+00 0. -1.
        -15    1    1    2    0    0  0.66355958613E+00  0.49351402224E+01  0.12383139500E+02  0.13464612628E+02  0.17770000000E+01 0. -1.
         15    1    1    2    0    0 -0.69231687725E+01 -0.14643110511E+02 -0.24640807447E+01  0.16479695816E+02  0.17770000000E+01 0.  1.
</event>
<event>
 6    1  0.1097339E-002  0.1208146E+03  0.7546771E-02  0.1132018E+00
        -11   -1    0    0    0    0  0.00000000000E+00  0.00000000000E+00  0.18250000000E+03  0.18250000000E+03  0.00000000000E+00 0.  1.
         11   -1    0    0    0    0 -0.00000000000E+00 -0.00000000000E+00 -0.18250000000E+03  0.18250000000E+03  0.00000000000E+00 0. -1.
        -11    1    1    2    0    0  0.12531390418E+02 -0.16153144250E+02  0.20384122940E+02  0.28869920038E+02  0.00000000000E+00 0.  1.
         11    1    1    2    0    0  0.15158698727E+01  0.15724511909E+01 -0.85130538437E+02  0.85158552352E+02  0.00000000000E+00 0. -1.
        -15    1    1    2    0    0 -0.53094589367E+02  0.28740807716E+02 -0.80075173219E+02  0.10030085016E+03  0.17770000000E+01 0. -1.
         15    1    1    2    0    0  0.39047329077E+02 -0.14160114657E+02  0.14482158872E+03  0.15067067745E+03  0.17770000000E+01 0.  1.
</event>
<event>
 6    1  0.1447689E-002  0.1838874E+03  0.7546771E-02  0.1067356E+00
        -11   -1    0    0    0    0  0.00000000000E+00  0.00000000000E+00  0.18250000000E+03  0.18250000000E+03  0.00000000000E+00 0.  1.
         11   -1    0    0    0    0 -0.00000000000E+00 -0.00000000000E+00 -0.18250000000E+03  0.18250000000E+03  0.00000000000E+00 0.  1.
        -11    1    1    2    0    0  0.17395914440E+00 -0.31325981830E+01  0.18108538544E+03  0.18111256239E+03  0.00000000000E+00 0.  1.
         11    1    1    2    0    0  0.36912326098E+01  0.40434782648E+01 -0.12800264728E+03  0.12811968087E+03  0.00000000000E+00 0.  1.
        -15    1    1    2    0    0  0.52103173244E+00  0.33095730023E+01 -0.19896033490E+01  0.42826391408E+01  0.17770000000E+01 0. -1.
         15    1    1    2    0    0 -0.43862234866E+01 -0.42204530841E+01 -0.51093134815E+02  0.51485117606E+02  0.17770000000E+01 0.  1.
</event>
<event>
 6    1  0.1097339E-002  0.1844958E+03  0.7546771E-02  0.1066877E+00
        -11   -1    0    0    0    0  0.00000000000E+00  0.00000000000E+00  0.18250000000E+03  0.18250000000E+03  0.00000000000E+00 0.  1.
         11   -1    0    0    0    0 -0.00000000000E+00 -0.00000000000E+00 -0.18250000000E+03  0.18250000000E+03  0.00000000000E+00 0. -1.
        -11    1    1    2    0    0 -0.20800068920E+01  0.16384826660E+01  0.18048478975E+03  0.18050421154E+03  0.00000000000E+00 0.  1.
         11    1    1    2    0    0  0.25232233190E+01  0.74945783932E+01 -0.14536846613E+03  0.14558339983E+03  0.00000000000E+00 0. -1.
        -15    1    1    2    0    0  0.52840259965E+01 -0.92104959797E+01 -0.22657520268E+02  0.25085356697E+02  0.17770000000E+01 0. -1.
         15    1    1    2    0    0 -0.57272424235E+01  0.77434920564E-01 -0.12458803349E+02  0.13827031924E+02  0.17770000000E+01 0.  1.
</event>
<event>
 6    1  0.1097339E-002  0.1872702E+03  0.7546771E-02  0.1064720E+00
        -11   -1    0    0    0    0  0.00000000000E+00  0.00000000000E+00  0.18250000000E+03  0.18250000000E+03  0.00000000000E+00 0. -1.
         11   -1    0    0    0    0 -0.00000000000E+00 -0.00000000000E+00 -0.18250000000E+03  0.18250000000E+03  0.00000000000E+00 0.  1.
        -11    1    1    2    0    0 -0.13208229749E+02  0.31109051799E+01  0.11263965847E+03  0.11345407760E+03  0.00000000000E+00 0. -1.
         11    1    1    2    0    0  0.71165960190E+01 -0.30074854077E+01 -0.17756177443E+03  0.17772977985E+03  0.00000000000E+00 0.  1.
        -15    1    1    2    0    0  0.55644883827E+01  0.37762023652E+00  0.69033210203E+02  0.69280935097E+02  0.17770000000E+01 0. -1.
         15    1    1    2    0    0  0.52714534674E+00 -0.48104000875E+00 -0.41110942466E+01  0.45352074496E+01  0.17770000000E+01 0.  1.
</event>
<event>
 6    1  0.1097339E-002  0.1834419E+03  0.7546771E-02  0.1067708E+00
        -11   -1    0    0    0    0  0.00000000000E+00  0.00000000000E+00  0.18250000000E+03  0.18250000000E+03  0.00000000000E+00 0. -1.
         11   -1    0    0    0    0 -0.00000000000E+00 -0.00000000000E+00 -0.18250000000E+03  0.18250000000E+03  0.00000000000E+00 0.  1.
        -11    1    1    2    0    0  0.11601917575E+01  0.21189934269E+01  0.16096555748E+03  0.16098368511E+03  0.00000000000E+00 0. -1.
         11    1    1    2    0    0 -0.50047322829E+01  0.45110932473E+00 -0.18148856537E+03  0.18155811799E+03  0.00000000000E+00 0.  1.
        -15    1    1    2    0    0  0.27818414442E+01 -0.37738979571E+01  0.63827269675E+01  0.81165189677E+01  0.17770000000E+01 0. -1.
         15    1    1    2    0    0  0.10626990812E+01  0.12037952055E+01  0.14140280927E+02  0.14341677933E+02  0.17770000000E+01 0.  1.
</event>
<event>
 6    1  0.1097339E-002  0.1848266E+03  0.7546771E-02  0.1066618E+00
        -11   -1    0    0    0    0  0.00000000000E+00  0.00000000000E+00  0.18250000000E+03  0.18250000000E+03  0.00000000000E+00 0.  1.
         11   -1    0    0    0    0 -0.00000000000E+00 -0.00000000000E+00 -0.18250000000E+03  0.18250000000E+03  0.00000000000E+00 0.  1.
        -11    1    1    2    0    0  0.29779840331E+01  0.21775825365E+01  0.17369057463E+03  0.17372974981E+03  0.00000000000E+00 0.  1.
         11    1    1    2    0    0  0.18082039944E+01 -0.29325637631E+01 -0.18014043581E+03  0.18017337801E+03  0.00000000000E+00 0.  1.
        -15    1    1    2    0    0 -0.36562419479E+01  0.34678776224E+01  0.26148629434E+01  0.59489089418E+01  0.17770000000E+01 0.  1.
         15    1    1    2    0    0 -0.11299460796E+01 -0.27128963958E+01  0.38349982379E+01  0.51479632363E+01  0.17770000000E+01 0. -1.
</event>
<event>
 6    1  0.1097339E-002  0.1829722E+03  0.7546771E-02  0.1068080E+00
        -11   -1    0    0    0    0  0.00000000000E+00  0.00000000000E+00  0.18250000000E+03  0.18250000000E+03  0.00000000000E+00 0.  1.
         11   -1    0    0    0    0 -0.00000000000E+00 -0.00000000000E+00 -0.18250000000E+03  0.18250000000E+03  0.00000000000E+00 0. -1.
        -11    1    1    2    0    0 -0.55514770740E+01  0.15799797620E+00  0.12613133253E+03  0.12625354216E+03  0.00000000000E+00 0.  1.
         11    1    1    2    0    0  0.17832154243E+01 -0.56076449988E+01 -0.18193261918E+03  0.18202775464E+03  0.00000000000E+00 0. -1.
        -15    1    1    2    0    0  0.34274585027E+01  0.41384858598E+01  0.52016663721E+02  0.52323661671E+02  0.17770000000E+01 0.  1.
         15    1    1    2    0    0  0.34080314699E+00  0.13111611628E+01  0.37846229204E+01  0.43950415276E+01  0.17770000000E+01 0. -1.
</event>
<event>
 6    1  0.1097339E-002  0.1876049E+03  0.7546771E-02  0.1064462E+00
        -11   -1    0    0    0    0  0.00000000000E+00  0.00000000000E+00  0.18250000000E+03  0.18250000000E+03  0.00000000000E+00 0.  1.
         11   -1    0    0    0    0 -0.00000000000E+00 -0.00000000000E+00 -0.18250000000E+03  0.18250000000E+03  0.00000000000E+00 0.  1.
        -11    1    1    2    0    0  0.39690463755E+01 -0.26097306994E+00  0.17735046313E+03  0.17739506252E+03  0.00000000000E+00 0.  1.
         11    1    1    2    0    0 -0.10554726975E+00  0.69800010854E+00 -0.50125371826E+02  0.50130342558E+02  0.00000000000E+00 0.  1.
        -15    1    1    2    0    0 -0.11375658631E+02 -0.37159542204E+00 -0.12903281701E+03  0.12954601224E+03  0.17770000000E+01 0.  1.
         15    1    1    2    0    0  0.75121595250E+01 -0.65431616565E-01  0.18077257077E+01  0.79285826766E+01  0.17770000000E+01 0. -1.
</event>
<event>
 6    1  0.1097339E-002  0.1845131E+03  0.7546771E-02  0.1066864E+00
        -11   -1    0    0    0    0  0.00000000000E+00  0.00000000000E+00  0.18250000000E+03  0.18250000000E+03  0.00000000000E+00 0. -1.
         11   -1    0    0    0    0 -0.00000000000E+00 -0.00000000000E+00 -0.18250000000E+03  0.18250000000E+03  0.00000000000E+00 0. -1.
        -11    1    1    2    0    0  0.80832504188E+00 -0.25504055263E+01  0.16371065321E+03  0.16373251337E+03  0.00000000000E+00 0. -1.
         11    1    1    2    0    0  0.19845207102E+00  0.60890790956E+01 -0.18038407204E+03  0.18048692394E+03  0.00000000000E+00 0. -1.
        -15    1    1    2    0    0 -0.44010527437E+01 -0.21317127631E+01  0.15762028967E+02  0.16598576767E+02  0.17770000000E+01 0. -1.
         15    1    1    2    0    0  0.33942756308E+01 -0.14069608062E+01  0.91138986381E+00  0.41819859220E+01  0.17770000000E+01 0.  1.
</event>
<event>
 6    1  0.1097339E-002  0.1815018E+03  0.7546771E-02  0.1069252E+00
        -11   -1    0    0    0    0  0.00000000000E+00  0.00000000000E+00  0.18250000000E+03  0.18250000000E+03  0.00000000000E+00 0.  1.
         11   -1    0    0    0    0 -0.00000000000E+00 -0.00000000000E+00 -0.18250000000E+03  0.18250000000E+03  0.00000000000E+00 0. -1.
        -11    1    1    2    0    0 -0.12513912424E+01  0.81175325464E+00  0.17866124565E+01  0.23274250702E+01  0.00000000000E+00 0.  1.
         11    1    1    2    0    0  0.34943259493E+01 -0.36936493305E+01 -0.18200544516E+03  0.18207645490E+03  0.00000000000E+00 0. -1.
        -15    1    1    2    0    0  0.34039339888E+01 -0.16587748891E+01  0.59295264162E+02  0.59442614191E+02  0.17770000000E+01 0. -1.
         15    1    1    2    0    0 -0.56468686957E+01  0.45406709650E+01  0.12092356854E+03  0.12115350584E+03  0.17770000000E+01 0.  1.
</event>
<event>
 6    1  0.1097339E-002  0.1832203E+03  0.7546771E-02  0.1067883E+00
        -11   -1    0    0    0    0  0.00000000000E+00  0.00000000000E+00  0.18250000000E+03  0.18250000000E+03  0.00000000000E+00 0.  1.
         11   -1    0    0    0    0 -0.00000000000E+00 -0.00000000000E+00 -0.18250000000E+03  0.18250000000E+03  0.00000000000E+00 0. -1.
        -11    1    1    2    0    0 -0.30023743654E+01 -0.37066077439E+01  0.18171711283E+03  0.18177970813E+03  0.00000000000E+00 0.  1.
         11    1    1    2    0    0 -0.92307031546E+00 -0.22001894084E+01 -0.12502717175E+03  0.12504993629E+03  0.00000000000E+00 0. -1.
        -15    1    1    2    0    0  0.35981062119E+01 -0.55482855708E+00 -0.39659776819E+02  0.39866148916E+02  0.17770000000E+01 0. -1.
         15    1    1    2    0    0  0.32733846894E+00  0.64616257094E+01 -0.17030164269E+02  0.18304206656E+02  0.17770000000E+01 0.  1.
</event>
<event>
 6    1  0.1097339E-002  0.1856212E+03  0.7546771E-02  0.1065997E+00
        -11   -1    0    0    0    0  0.00000000000E+00  0.00000000000E+00  0.18250000000E+03  0.18250000000E+03  0.00000000000E+00 0.  1.
         11   -1    0    0    0    0 -0.00000000000E+00 -0.00000000000E+00 -0.18250000000E+03  0.18250000000E+03  0.00000000000E+00 0. -1.
        -11    1    1    2    0    0 -0.36553658411E+01  0.48991105653E+00  0.17934086116E+03  0.17937877855E+03  0.00000000000E+00 0.  1.
         11    1    1    2    0    0  0.75662857766E+00  0.56670406068E+01 -0.40795626146E+02  0.41194307236E+02  0.00000000000E+00 0. -1.
        -15    1    1    2    0    0  0.17084579892E+02 -0.32491598740E+01 -0.11765415784E+03  0.11894577965E+03  0.17770000000E+01 0. -1.
         15    1    1    2    0    0 -0.14185842629E+02 -0.29077917893E+01 -0.20891077177E+02  0.25481134567E+02  0.17770000000E+01 0.  1.
</event>
<event>
 6    1  0.1434779E-002  0.1863296E+03  0.7546771E-02  0.1065447E+00
        -11   -1    0    0    0    0  0.00000000000E+00  0.00000000000E+00  0.18250000000E+03  0.18250000000E+03  0.00000000000E+00 0. -1.
         11   -1    0    0    0    0 -0.00000000000E+00 -0.00000000000E+00 -0.18250000000E+03  0.18250000000E+03  0.00000000000E+00 0.  1.
        -11    1    1    2    0    0 -0.21798386949E+01  0.13059954552E+01  0.17865234299E+03  0.17867041439E+03  0.00000000000E+00 0. -1.
         11    1    1    2    0    0 -0.18647070599E+01 -0.14900245048E+01 -0.13604726232E+03  0.13606819941E+03  0.00000000000E+00 0.  1.
        -15    1    1    2    0    0  0.12737175150E+01 -0.13448076191E+01  0.33180814923E+01  0.41950277269E+01  0.17770000000E+01 0.  1.
         15    1    1    2    0    0  0.27708282399E+01  0.15288366688E+01 -0.45923162165E+02  0.46066358473E+02  0.17770000000E+01 0.  1.
</event>
<event>
 6    1  0.1097339E-002  0.1912025E+03  0.7546771E-02  0.1061731E+00
        -11   -1    0    0    0    0  0.00000000000E+00  0.00000000000E+00  0.18250000000E+03  0.18250000000E+03  0.00000000000E+00 0.  1.
         11   -1    0    0    0    0 -0.00000000000E+00 -0.00000000000E+00 -0.18250000000E+03  0.18250000000E+03  0.00000000000E+00 0. -1.
        -11    1    1    2    0    0 -0.20816006517E+01  0.33340462939E+01  0.17166726094E+03  0.17171225176E+03  0.00000000000E+00 0.  1.
         11    1    1    2    0    0  0.27428073594E+01 -0.75550524116E+00 -0.17377425648E+03  0.17379754312E+03  0.00000000000E+00 0. -1.
        -15    1    1    2    0    0 -0.13491354365E+01  0.13161182427E+01 -0.80446398540E+01  0.84514077547E+01  0.17770000000E+01 0. -1.
         15    1    1    2    0    0  0.68792872876E+00 -0.38946592954E+01  0.10151635393E+02  0.11038797358E+02  0.17770000000E+01 0.  1.
</event>
<event>
 6    1  0.1097339E-002  0.1833073E+03  0.7546771E-02  0.1067814E+00
        -11   -1    0    0    0    0  0.00000000000E+00  0.00000000000E+00  0.18250000000E+03  0.18250000000E+03  0.00000000000E+00 0. -1.
         11   -1    0    0    0    0 -0.00000000000E+00 -0.00000000000E+00 -0.18250000000E+03  0.18250000000E+03  0.00000000000E+00 0.  1.
        -11    1    1    2    0    0 -0.73777374424E+01  0.28879453700E+01  0.18151987481E+03  0.18169269713E+03  0.00000000000E+00 0. -1.
         11    1    1    2    0    0 -0.54751990420E+00 -0.26039868912E+01 -0.10822432719E+03  0.10825703451E+03  0.00000000000E+00 0.  1.
        -15    1    1    2    0    0  0.18887031733E+01 -0.50871995213E+01 -0.12511647247E+02  0.13753030374E+02  0.17770000000E+01 0.  1.
         15    1    1    2    0    0  0.60365541733E+01  0.48032410425E+01 -0.60783900379E+02  0.61297237989E+02  0.17770000000E+01 0. -1.
</event>
<event>
 6    1  0.1097339E-002  0.1839970E+03  0.7546771E-02  0.1067269E+00
        -11   -1    0    0    0    0  0.00000000000E+00  0.00000000000E+00  0.18250000000E+03  0.18250000000E+03  0.00000000000E+00 0.  1.
         11   -1    0    0    0    0 -0.00000000000E+00 -0.00000000000E+00 -0.18250000000E+03  0.18250000000E+03  0.00000000000E+00 0.  1.
        -11    1    1    2    0    0  0.10357952540E+01 -0.33591908817E+01  0.18096883517E+03  0.18100297329E+03  0.00000000000E+00 0.  1.
         11    1    1    2    0    0 -0.17442626515E+01 -0.73895019421E+00 -0.10885074372E+03  0.10886722605E+03  0.00000000000E+00 0.  1.
        -15    1    1    2    0    0 -0.24046869128E+01  0.23102066218E-01 -0.68593118592E+02  0.68658260247E+02  0.17770000000E+01 0.  1.
         15    1    1    2    0    0  0.31131543103E+01  0.40750390097E+01 -0.35249728588E+01  0.64715404152E+01  0.17770000000E+01 0. -1.
</event>
<event>
 6    1  0.1097339E-002  0.1832628E+03  0.7546771E-02  0.1067849E+00
        -11   -1    0    0    0    0  0.00000000000E+00  0.00000000000E+00  0.18250000000E+03  0.18250000000E+03  0.00000000000E+00 0. -1.
         11   -1    0    0    0    0 -0.00000000000E+00 -0.00000000000E+00 -0.18250000000E+03  0.18250000000E+03  0.00000000000E+00 0. -1.
        -11    1    1    2    0    0  0.22072508078E+01  0.26127831591E+01  0.10380909871E+03  0.10386543008E+03  0.00000000000E+00 0. -1.
         11    1    1    2    0    0  0.78296916133E+01  0.25720786958E+01 -0.18155028071E+03  0.18173723913E+03  0.00000000000E+00 0. -1.
        -15    1    1    2    0    0 -0.10043432990E+02 -0.39394714577E+01  0.36582873096E+02  0.38181858448E+02  0.17770000000E+01 0. -1.
         15    1    1    2    0    0  0.64905685379E-02 -0.12453903972E+01  0.41158308906E+02  0.41215472342E+02  0.17770000000E+01 0. -1.
</event>
<event>
 6    1  0.1097339E-002  0.1885794E+03  0.7546771E-02  0.1063716E+00
        -11   -1    0    0    0    0  0.00000000000E+00  0.00000000000E+00  0.18250000000E+03  0.18250000000E+03  0.00000000000E+00 0. -1.
         11   -1    0    0    0    0 -0.00000000000E+00 -0.00000000000E+00 -0.18250000000E+03  0.18250000000E+03  0.00000000000E+00 0. -1.
        -11    1    1    2    0    0 -0.80838762330E+00  0.67730208148E+01  0.17628870641E+03  0.17642062042E+03  0.00000000000E+00 0. -1.
         11    1    1    2    0    0  0.16260062789E+01  0.17041877389E+01 -0.16758993606E+03  0.16760648801E+03  0.00000000000E+00 0. -1.
        -15    1    1    2    0    0  0.19503676966E+01 -0.88765854352E+01 -0.12738058404E+02  0.15748446401E+02  0.17770000000E+01 0.  1.
         15    1    1    2    0    0 -0.27679863522E+01  0.39937688158E+00  0.40392880572E+01  0.52244451714E+01  0.17770000000E+01 0. -1.
</event>
<event>
 6    1  0.1097339E-002  0.1827389E+03  0.7546771E-02  0.1068265E+00
        -11   -1    0    0    0    0  0.00000000000E+00  0.00000000000E+00  0.18250000000E+03  0.18250000000E+03  0.00000000000E+00 0.  1.
         11   -1    0    0    0    0 -0.00000000000E+00 -0.00000000000E+00 -0.18250000000E+03  0.18250000000E+03  0.00000000000E+00 0.  1.
        -11    1    1    2    0    0 -0.58000490076E+01  0.21560497231E+00  0.18216862712E+03  0.18226106486E+03  0.00000000000E+00 0.  1.
         11    1    1    2    0    0  0.59342713211E+00  0.10562098135E+01 -0.76967445467E+02  0.76976979654E+02  0.00000000000E+00 0.  1.
        -15    1    1    2    0    0  0.75744232785E+01 -0.46872410037E+00 -0.72920883168E+02  0.73336242890E+02  0.17770000000E+01 0. -1.
         15    1    1    2    0    0 -0.23678014030E+01 -0.80309068542E+00 -0.32280298489E+02  0.32425712600E+02  0.17770000000E+01 0.  1.
</event>
<event>
 6    1  0.1097339E-002  0.1760136E+03  0.7546771E-02  0.1073739E+00
        -11   -1    0    0    0    0  0.00000000000E+00  0.00000000000E+00  0.18250000000E+03  0.18250000000E+03  0.00000000000E+00 0. -1.
         11   -1    0    0    0    0 -0.00000000000E+00 -0.00000000000E+00 -0.18250000000E+03  0.18250000000E+03  0.00000000000E+00 0.  1.
        -11    1    1    2    0    0 -0.37344064299E+01 -0.10569405305E+01  0.17649912607E+03  0.17654179227E+03  0.00000000000E+00 0. -1.
         11    1    1    2    0    0 -0.26627799711E+01  0.17058783202E+01 -0.17551691853E+03  0.17554540469E+03  0.00000000000E+00 0.  1.
        -15    1    1    2    0    0  0.75738724726E+01  0.99034335242E+00 -0.40558771952E+01  0.88290539136E+01  0.17770000000E+01 0.  1.
         15    1    1    2    0    0 -0.11766860717E+01 -0.16392811422E+01  0.30736696598E+01  0.40837491294E+01  0.17770000000E+01 0. -1.
</event>
<event>
 6    1  0.1097339E-002  0.1930203E+03  0.7546771E-02  0.1060376E+00
        -11   -1    0    0    0    0  0.00000000000E+00  0.00000000000E+00  0.18250000000E+03  0.18250000000E+03  0.00000000000E+00 0.  1.
         11   -1    0    0    0    0 -0.00000000000E+00 -0.00000000000E+00 -0.18250000000E+03  0.18250000000E+03  0.00000000000E+00 0. -1.
        -11    1    1    2    0    0 -0.38344356098E+01 -0.66524853267E+01  0.14590246785E+03  0.14610437564E+03  0.00000000000E+00 0.  1.
         11    1    1    2    0    0  0.88840651091E+01  0.12125510124E+02 -0.17132156497E+03  0.17197974657E+03  0.00000000000E+00 0. -1.
        -15    1    1    2    0    0 -0.15284560216E+02 -0.10009126974E+02  0.29603614178E+02  0.34832916978E+02  0.17770000000E+01 0.  1.
         15    1    1    2    0    0  0.10234930717E+02  0.45361021771E+01 -0.41845170621E+01  0.12082960803E+02  0.17770000000E+01 0. -1.
</event>
<event>
 6    1  0.1097339E-002  0.1864972E+03  0.7546771E-02  0.1065317E+00
        -11   -1    0    0    0    0  0.00000000000E+00  0.00000000000E+00  0.18250000000E+03  0.18250000000E+03  0.00000000000E+00 0. -1.
         11   -1    0    0    0    0 -0.00000000000E+00 -0.00000000000E+00 -0.18250000000E+03  0.18250000000E+03  0.00000000000E+00 0.  1.
        -11    1    1    2    0    0 -0.18916991879E+01  0.19757239672E+01  0.16817108799E+03  0.16819333176E+03  0.00000000000E+00 0. -1.
         11    1    1    2    0    0 -0.91511790500E+01  0.76159964396E+00 -0.17826639716E+03  0.17850275199E+03  0.00000000000E+00 0.  1.
        -15    1    1    2    0    0  0.17539592496E+01  0.71310231833E+00  0.74579295697E+01  0.78970456775E+01  0.17770000000E+01 0. -1.
         15    1    1    2    0    0  0.92889189883E+01 -0.34504259295E+01  0.26373795934E+01  0.10406870576E+02  0.17770000000E+01 0.  1.
</event>
<event>
 6    1  0.1097339E-002  0.1839106E+03  0.7546771E-02  0.1067338E+00
        -11   -1    0    0    0    0  0.00000000000E+00  0.00000000000E+00  0.18250000000E+03  0.18250000000E+03  0.00000000000E+00 0.  1.
         11   -1    0    0    0    0 -0.00000000000E+00 -0.00000000000E+00 -0.18250000000E+03  0.18250000000E+03  0.00000000000E+00 0. -1.
        -11    1    1    2    0    0 -0.34798007003E+01 -0.14102057019E+01  0.12365487694E+03  0.12371186800E+03  0.00000000000E+00 0.  1.
         11    1    1    2    0    0  0.94462742906E+00 -0.55801821375E+01 -0.18100097942E+03  0.18108944007E+03  0.00000000000E+00 0. -1.
        -15    1    1    2    0    0  0.65318592343E+01  0.63125709398E+01  0.53619896256E+02  0.54412909685E+02  0.17770000000E+01 0.  1.
         15    1    1    2    0    0 -0.39966859631E+01  0.67781689961E+00  0.37262062208E+01  0.57857822494E+01  0.17770000000E+01 0. -1.
</event>
<event>
 6    1  0.1097339E-002  0.1873945E+03  0.7546771E-02  0.1064624E+00
        -11   -1    0    0    0    0  0.00000000000E+00  0.00000000000E+00  0.18250000000E+03  0.18250000000E+03  0.00000000000E+00 0.  1.
         11   -1    0    0    0    0 -0.00000000000E+00 -0.00000000000E+00 -0.18250000000E+03  0.18250000000E+03  0.00000000000E+00 0.  1.
        -11    1    1    2    0    0 -0.25503607678E+01  0.13169534210E+01  0.15163054340E+03  0.15165770801E+03  0.00000000000E+00 0.  1.
         11    1    1    2    0    0  0.43724823912E+01  0.15163251713E+01 -0.17754517645E+03  0.17760548282E+03  0.00000000000E+00 0.  1.
        -15    1    1    2    0    0  0.53425458201E+00 -0.28696623484E+00  0.30018290045E+02  0.30076955361E+02  0.17770000000E+01 0. -1.
         15    1    1    2    0    0 -0.23563762055E+01 -0.25463123574E+01 -0.41036569952E+01  0.56598538123E+01  0.17770000000E+01 0.  1.
</event>
<event>
 6    1  0.1097339E-002  0.1830779E+03  0.7546771E-02  0.1067996E+00
        -11   -1    0    0    0    0  0.00000000000E+00  0.00000000000E+00  0.18250000000E+03  0.18250000000E+03  0.00000000000E+00 0.  1.
         11   -1    0    0    0    0 -0.00000000000E+00 -0.00000000000E+00 -0.18250000000E+03  0.18250000000E+03  0.00000000000E+00 0.  1.
        -11    1    1    2    0    0  0.19028300038E+01  0.14251236096E+01  0.15393763346E+03  0.15395598960E+03  0.00000000000E+00 0.  1.
         11    1    1    2    0    0 -0.14257234782E+01 -0.46034733331E+01 -0.18185821445E+03  0.18192205699E+03  0.00000000000E+00 0.  1.
        -15    1    1    2    0    0 -0.28367389260E+01  0.34422850955E+01  0.21776645126E+02  0.22299695432E+02  0.17770000000E+01 0.  1.
         15    1    1    2    0    0  0.23596324004E+01 -0.26393537195E+00  0.61439358692E+01  0.68222579774E+01  0.17770000000E+01 0.  1.
</event>
<event>
 6    1  0.1427221E-002  0.1840190E+03  0.7546771E-02  0.1067252E+00
        -11   -1    0    0    0    0  0.00000000000E+00  0.00000000000E+00  0.18250000000E+03  0.18250000000E+03  0.00000000000E+00 0.  1.
         11   -1    0    0    0    0 -0.00000000000E+00 -0.00000000000E+00 -0.18250000000E+03  0.18250000000E+03  0.00000000000E+00 0. -1.
        -11    1    1    2    0    0  0.16886409858E+01  0.31056744095E+01  0.18094645152E+03  0.18098097977E+03  0.00000000000E+00 0.  1.
         11    1    1    2    0    0 -0.44684931634E+01  0.66417359213E+01 -0.13036253433E+03  0.13060807955E+03  0.00000000000E+00 0. -1.
        -15    1    1    2    0    0  0.42930249427E+01 -0.95619428195E+01 -0.49829703333E+02  0.50951132244E+02  0.17770000000E+01 0. -1.
         15    1    1    2    0    0 -0.15131727652E+01 -0.18546751134E+00 -0.75421385472E+00  0.24598084384E+01  0.17770000000E+01 0.  1.
</event>
<event>
 6    1  0.1097339E-002  0.1855505E+03  0.7546771E-02  0.1066052E+00
        -11   -1    0    0    0    0  0.00000000000E+00  0.00000000000E+00  0.18250000000E+03  0.18250000000E+03  0.00000000000E+00 0. -1.
         11   -1    0    0    0    0 -0.00000000000E+00 -0.00000000000E+00 -0.18250000000E+03  0.18250000000E+03  0.00000000000E+00 0. -1.
        -11    1    1    2    0    0 -0.10226179930E+01  0.29247091263E+01  0.17942271980E+03  0.17944946935E+03  0.00000000000E+00 0. -1.
         11    1    1    2    0    0  0.29877342490E+01  0.11880058936E+01 -0.16449139778E+03  0.16452281866E+03  0.00000000000E+00 0. -1.
        -15    1    1    2    0    0  0.29737590445E+00  0.39561287670E+01 -0.68001646280E+00  0.43999475724E+01  0.17770000000E+01 0.  1.
         15    1    1    2    0    0 -0.22624921604E+01 -0.80688437869E+01 -0.14251305550E+02  0.16627764423E+02  0.17770000000E+01 0.  1.
</event>
<event>
 6    1  0.1097339E-002  0.1828987E+03  0.7546771E-02  0.1068138E+00
        -11   -1    0    0    0    0  0.00000000000E+00  0.00000000000E+00  0.18250000000E+03  0.18250000000E+03  0.00000000000E+00 0. -1.
         11   -1    0    0    0    0 -0.00000000000E+00 -0.00000000000E+00 -0.18250000000E+03  0.18250000000E+03  0.00000000000E+00 0. -1.
        -11    1    1    2    0    0 -0.25363667955E+01  0.18345523742E+01  0.13803713168E+03  0.13807262025E+03  0.00000000000E+00 0. -1.
         11    1    1    2    0    0 -0.90173454409E+00 -0.33973996394E+01 -0.18206741045E+03  0.18210133826E+03  0.00000000000E+00 0. -1.
        -15    1    1    2    0    0  0.37930970495E+01 -0.57243606108E+00  0.37264493143E+02  0.37503539119E+02  0.17770000000E+01 0. -1.
         15    1    1    2    0    0 -0.35499570994E+00  0.21352833264E+01  0.67657856239E+01  0.73225023692E+01  0.17770000000E+01 0.  1.
</event>
<event>
 6    1  0.1097339E-002  0.1846339E+03  0.7546771E-02  0.1066769E+00
        -11   -1    0    0    0    0  0.00000000000E+00  0.00000000000E+00  0.18250000000E+03  0.18250000000E+03  0.00000000000E+00 0.  1.
         11   -1    0    0    0    0 -0.00000000000E+00 -0.00000000000E+00 -0.18250000000E+03  0.18250000000E+03  0.00000000000E+00 0. -1.
        -11    1    1    2    0    0  0.38678106769E+01 -0.78358399042E+01  0.12777821559E+03  0.12807666738E+03  0.00000000000E+00 0.  1.
         11    1    1    2    0    0  0.44999062998E+01 -0.58133679816E+01 -0.18021623198E+03  0.18036611287E+03  0.00000000000E+00 0. -1.
        -15    1    1    2    0    0  0.14832147814E+01  0.33665217028E+01  0.29731377396E+01  0.50527884857E+01  0.17770000000E+01 0.  1.
         15    1    1    2    0    0 -0.98509317580E+01  0.10282686183E+02  0.49464878646E+02  0.51504431267E+02  0.17770000000E+01 0. -1.
</event>
<event>
 6    1  0.1097339E-002  0.1888284E+03  0.7546771E-02  0.1063526E+00
        -11   -1    0    0    0    0  0.00000000000E+00  0.00000000000E+00  0.18250000000E+03  0.18250000000E+03  0.00000000000E+00 0. -1.
         11   -1    0    0    0    0 -0.00000000000E+00 -0.00000000000E+00 -0.18250000000E+03  0.18250000000E+03  0.00000000000E+00 0.  1.
        -11    1    1    2    0    0 -0.91962595188E-01 -0.30979502021E+01  0.17614431918E+03  0.17617158378E+03  0.00000000000E+00 0. -1.
         11    1    1    2    0    0  0.54087133844E+01  0.50585688800E+01 -0.14910754037E+03  0.14929133229E+03  0.00000000000E+00 0.  1.
        -15    1    1    2    0    0 -0.38774934213E+01 -0.25342628337E+01 -0.32871628900E+02  0.33243934167E+02  0.17770000000E+01 0.  1.
         15    1    1    2    0    0 -0.14392573679E+01  0.57364415575E+00  0.58348500950E+01  0.62931497693E+01  0.17770000000E+01 0. -1.
</event>
<event>
 6    1  0.1097339E-002  0.1886748E+03  0.7546771E-02  0.1063643E+00
        -11   -1    0    0    0    0  0.00000000000E+00  0.00000000000E+00  0.18250000000E+03  0.18250000000E+03  0.00000000000E+00 0.  1.
         11   -1    0    0    0    0 -0.00000000000E+00 -0.00000000000E+00 -0.18250000000E+03  0.18250000000E+03  0.00000000000E+00 0. -1.
        -11    1    1    2    0    0  0.51361068161E+00 -0.76362065263E+01  0.17615905794E+03  0.17632523682E+03  0.00000000000E+00 0.  1.
         11    1    1    2    0    0 -0.32493918469E+01  0.66517823724E+00 -0.15287233364E+03  0.15290831044E+03  0.00000000000E+00 0. -1.
        -15    1    1    2    0    0 -0.38867539009E+00  0.10078499671E+02  0.16567359302E+01  0.10374474788E+02  0.17770000000E+01 0. -1.
         15    1    1    2    0    0  0.31244565554E+01 -0.31074713821E+01 -0.24943460231E+02  0.25391977954E+02  0.17770000000E+01 0. -1.
</event>
<event>
 6    1  0.1097339E-002  0.1735872E+03  0.7546771E-02  0.1075779E+00
        -11   -1    0    0    0    0  0.00000000000E+00  0.00000000000E+00  0.18250000000E+03  0.18250000000E+03  0.00000000000E+00 0.  1.
         11   -1    0    0    0    0 -0.00000000000E+00 -0.00000000000E+00 -0.18250000000E+03  0.18250000000E+03  0.00000000000E+00 0.  1.
        -11    1    1    2    0    0  0.14846445165E+01  0.46069356033E+01  0.17144780221E+03  0.17151611267E+03  0.00000000000E+00 0.  1.
         11    1    1    2    0    0 -0.22546888555E+01  0.31387101016E+01 -0.17572934681E+03  0.17577183635E+03  0.00000000000E+00 0.  1.
        -15    1    1    2    0    0  0.23184258309E+01 -0.28893932751E+01  0.94090003786E+01  0.10266971752E+02  0.17770000000E+01 0. -1.
         15    1    1    2    0    0 -0.15483814919E+01 -0.48562524299E+01 -0.51274557718E+01  0.74450792205E+01  0.17770000000E+01 0. -1.
</event>
<event>
 6    1  0.1097339E-002  0.1842517E+03  0.7546771E-02  0.1067069E+00
        -11   -1    0    0    0    0  0.00000000000E+00  0.00000000000E+00  0.18250000000E+03  0.18250000000E+03  0.00000000000E+00 0. -1.
         11   -1    0    0    0    0 -0.00000000000E+00 -0.00000000000E+00 -0.18250000000E+03  0.18250000000E+03  0.00000000000E+00 0.  1.
        -11    1    1    2    0    0 -0.36127563777E+01  0.10177206104E+01  0.12735028605E+03  0.12740558513E+03  0.00000000000E+00 0. -1.
         11    1    1    2    0    0  0.10626798774E+01  0.25835669057E+01 -0.18072673417E+03  0.18074832378E+03  0.00000000000E+00 0.  1.
        -15    1    1    2    0    0 -0.28223353151E+01  0.10708373329E-01  0.30206780100E+00  0.33488304311E+01  0.17770000000E+01 0.  1.
         15    1    1    2    0    0  0.53724118154E+01 -0.36119958894E+01  0.53074380319E+02  0.53497260661E+02  0.17770000000E+01 0.  1.
</event>
<event>
 6    1  0.1097339E-002  0.1850806E+03  0.7546771E-02  0.1066419E+00
        -11   -1    0    0    0    0  0.00000000000E+00  0.00000000000E+00  0.18250000000E+03  0.18250000000E+03  0.00000000000E+00 0. -1.
         11   -1    0    0    0    0 -0.00000000000E+00 -0.00000000000E+00 -0.18250000000E+03  0.18250000000E+03  0.00000000000E+00 0.  1.
        -11    1    1    2    0    0 -0.30305889231E+01 -0.23337607103E+01  0.17529134529E+03  0.17533307344E+03  0.00000000000E+00 0. -1.
         11    1    1    2    0    0  0.90471634237E+00 -0.39901946020E+01 -0.17987291239E+03  0.17991943968E+03  0.00000000000E+00 0.  1.
        -15    1    1    2    0    0 -0.45954461236E+00  0.47671985039E+00  0.15631167127E+01  0.24575406251E+01  0.17770000000E+01 0. -1.
         15    1    1    2    0    0  0.25854171930E+01  0.58472354620E+01  0.30184503822E+01  0.72899462494E+01  0.17770000000E+01 0. -1.
</event>
<event>
 6    1  0.1097339E-002  0.1830401E+03  0.7546771E-02  0.1068026E+00
        -11   -1    0    0    0    0  0.00000000000E+00  0.00000000000E+00  0.18250000000E+03  0.18250000000E+03  0.00000000000E+00 0. -1.
         11   -1    0    0    0    0 -0.00000000000E+00 -0.00000000000E+00 -0.18250000000E+03  0.18250000000E+03  0.00000000000E+00 0. -1.
        -11    1    1    2    0    0 -0.59883254953E+00 -0.35334578818E+00  0.49238725872E+02  0.49243634910E+02  0.00000000000E+00 0. -1.
         11    1    1    2    0    0  0.22994701378E+01 -0.27500503254E+01 -0.18192453751E+03  0.18195985186E+03  0.00000000000E+00 0. -1.
        -15    1    1    2    0    0 -0.28148209017E+01  0.81327499948E+00  0.49354536811E+01  0.60084161783E+01  0.17770000000E+01 0.  1.
         15    1    1    2    0    0  0.11141833134E+01  0.22901211141E+01  0.12775035796E+03  0.12778809705E+03  0.17770000000E+01 0. -1.
</event>
<event>
 6    1  0.1097339E-002  0.1860188E+03  0.7546771E-02  0.1065688E+00
        -11   -1    0    0    0    0  0.00000000000E+00  0.00000000000E+00  0.18250000000E+03  0.18250000000E+03  0.00000000000E+00 0. -1.
         11   -1    0    0    0    0 -0.00000000000E+00 -0.00000000000E+00 -0.18250000000E+03  0.18250000000E+03  0.00000000000E+00 0. -1.
        -11    1    1    2    0    0  0.21069168534E+01  0.73072377877E+01  0.17881960791E+03  0.17898124761E+03  0.00000000000E+00 0. -1.
         11    1    1    2    0    0 -0.23360769726E+01 -0.20392420585E+01 -0.65615022321E+02  0.65688255556E+02  0.00000000000E+00 0. -1.
        -15    1    1    2    0    0 -0.28713732360E+01 -0.49581342156E+01  0.98969351624E+00  0.60798932076E+01  0.17770000000E+01 0.  1.
         15    1    1    2    0    0  0.31005333552E+01 -0.30986151362E+00 -0.11419427910E+03  0.11425060363E+03  0.17770000000E+01 0. -1.
</event>
<event>
 6    1  0.1097339E-002  0.1756520E+03  0.7546771E-02  0.1074040E+00
        -11   -1    0    0    0    0  0.00000000000E+00  0.00000000000E+00  0.18250000000E+03  0.18250000000E+03  0.00000000000E+00 0.  1.
         11   -1    0    0    0    0 -0.00000000000E+00 -0.00000000000E+00 -0.18250000000E+03  0.18250000000E+03  0.00000000000E+00 0. -1.
        -11    1    1    2    0    0  0.23313736642E+01  0.43074506686E+01  0.17766713323E+03  0.17773463271E+03  0.00000000000E+00 0.  1.
         11    1    1    2    0    0  0.54977867936E+01  0.18953497074E+01 -0.17363717614E+03  0.17373453010E+03  0.00000000000E+00 0. -1.
        -15    1    1    2    0    0  0.10277425695E+01 -0.22486140074E+01 -0.71408861486E+00  0.31273265409E+01  0.17770000000E+01 0. -1.
         15    1    1    2    0    0 -0.88569030273E+01 -0.39541863686E+01 -0.33158684724E+01  0.10403510648E+02  0.17770000000E+01 0.  1.
</event>
<event>
 6    1  0.1097339E-002  0.1839991E+03  0.7546771E-02  0.1067268E+00
        -11   -1    0    0    0    0  0.00000000000E+00  0.00000000000E+00  0.18250000000E+03  0.18250000000E+03  0.00000000000E+00 0. -1.
         11   -1    0    0    0    0 -0.00000000000E+00 -0.00000000000E+00 -0.18250000000E+03  0.18250000000E+03  0.00000000000E+00 0. -1.
        -11    1    1    2    0    0 -0.36715704260E+01 -0.22337999360E+01  0.15667389190E+03  0.15673282583E+03  0.00000000000E+00 0. -1.
         11    1    1    2    0    0  0.27482528366E+01  0.39449192424E+01 -0.18093703068E+03  0.18100089600E+03  0.00000000000E+00 0. -1.
        -15    1    1    2    0    0  0.15197336543E+01  0.78927055131E+00  0.24004069648E+02  0.24130595248E+02  0.17770000000E+01 0. -1.
         15    1    1    2    0    0 -0.59641606505E+00 -0.25003898577E+01  0.25906913408E+00  0.31356829207E+01  0.17770000000E+01 0. -1.
</event>
<event>
 6    1  0.1097339E-002  0.1882969E+03  0.7546771E-02  0.1063932E+00
        -11   -1    0    0    0    0  0.00000000000E+00  0.00000000000E+00  0.18250000000E+03  0.18250000000E+03  0.00000000000E+00 0.  1.
         11   -1    0    0    0    0 -0.00000000000E+00 -0.00000000000E+00 -0.18250000000E+03  0.18250000000E+03  0.00000000000E+00 0. -1.
        -11    1    1    2    0    0  0.20073959057E+01 -0.67478478647E+00  0.12853641880E+03  0.12855386393E+03  0.00000000000E+00 0.  1.
         11    1    1    2    0    0  0.90880526125E+01  0.92114466664E-01 -0.17646924088E+03  0.17670312437E+03  0.00000000000E+00 0. -1.
        -15    1    1    2    0    0 -0.91798327327E+00  0.25147087572E+01  0.49066429697E+02  0.49171523320E+02  0.17770000000E+01 0. -1.
         15    1    1    2    0    0 -0.10177465245E+02 -0.19320384374E+01 -0.11336076134E+01  0.10571488379E+02  0.17770000000E+01 0.  1.
</event>
<event>
 6    1  0.1097339E-002  0.1897214E+03  0.7546771E-02  0.1062848E+00
        -11   -1    0    0    0    0  0.00000000000E+00  0.00000000000E+00  0.18250000000E+03  0.18250000000E+03  0.00000000000E+00 0. -1.
         11   -1    0    0    0    0 -0.00000000000E+00 -0.00000000000E+00 -0.18250000000E+03  0.18250000000E+03  0.00000000000E+00 0. -1.
        -11    1    1    2    0    0  0.26541347606E+01 -0.11564105126E+02  0.17487656335E+03  0.17527859358E+03  0.00000000000E+00 0. -1.
         11    1    1    2    0    0 -0.23889546476E+00  0.22770089472E+01 -0.11707770982E+03  0.11710009384E+03  0.00000000000E+00 0. -1.
        -15    1    1    2    0    0 -0.66389281641E+01  0.14372857914E+01 -0.62149152466E+02  0.62544512460E+02  0.17770000000E+01 0. -1.
         15    1    1    2    0    0  0.42236888683E+01  0.78498103873E+01  0.43502989391E+01  0.10076800119E+02  0.17770000000E+01 0.  1.
</event>
<event>
 6    1  0.1097339E-002  0.1682596E+03  0.7546771E-02  0.1080391E+00
        -11   -1    0    0    0    0  0.00000000000E+00  0.00000000000E+00  0.18250000000E+03  0.18250000000E+03  0.00000000000E+00 0. -1.
         11   -1    0    0    0    0 -0.00000000000E+00 -0.00000000000E+00 -0.18250000000E+03  0.18250000000E+03  0.00000000000E+00 0. -1.
        -11    1    1    2    0    0 -0.71998843835E+01  0.21470956420E+02  0.17813887519E+03  0.17957254567E+03  0.00000000000E+00 0. -1.
         11    1    1    2    0    0  0.12785436091E+01  0.53624580502E+00 -0.31910995988E+02  0.31941100455E+02  0.00000000000E+00 0. -1.
        -15    1    1    2    0    0 -0.15252011479E+02 -0.47421943527E+01 -0.83677754131E+02  0.85207021582E+02  0.17770000000E+01 0. -1.
         15    1    1    2    0    0  0.21173352253E+02 -0.17265007873E+02 -0.62550125073E+02  0.68279332291E+02  0.17770000000E+01 0.  1.
</event>
<event>
 6    1  0.1097339E-002  0.1829165E+03  0.7546771E-02  0.1068124E+00
        -11   -1    0    0    0    0  0.00000000000E+00  0.00000000000E+00  0.18250000000E+03  0.18250000000E+03  0.00000000000E+00 0.  1.
         11   -1    0    0    0    0 -0.00000000000E+00 -0.00000000000E+00 -0.18250000000E+03  0.18250000000E+03  0.00000000000E+00 0.  1.
        -11    1    1    2    0    0  0.27318687529E+01 -0.27578012855E+01  0.18204216372E+03  0.18208354662E+03  0.00000000000E+00 0.  1.
         11    1    1    2    0    0 -0.22459737644E+01  0.19497233480E+01 -0.16054959096E+03  0.16057713716E+03  0.00000000000E+00 0.  1.
        -15    1    1    2    0    0  0.10511972324E+01 -0.15429357401E+01 -0.12224235867E+02  0.12493011561E+02  0.17770000000E+01 0. -1.
         15    1    1    2    0    0 -0.15370922210E+01  0.23510136776E+01 -0.92683368946E+01  0.98463046673E+01  0.17770000000E+01 0.  1.
</event>
<event>
 6    1  0.1097339E-002  0.1881554E+03  0.7546771E-02  0.1064040E+00
        -11   -1    0    0    0    0  0.00000000000E+00  0.00000000000E+00  0.18250000000E+03  0.18250000000E+03  0.00000000000E+00 0.  1.
         11   -1    0    0    0    0 -0.00000000000E+00 -0.00000000000E+00 -0.18250000000E+03  0.18250000000E+03  0.00000000000E+00 0.  1.
        -11    1    1    2    0    0  0.44119794041E+01 -0.39462302648E+01  0.15919670779E+03  0.15930671695E+03  0.00000000000E+00 0.  1.
         11    1    1    2    0    0 -0.10613508180E+02 -0.66212827712E+01 -0.17640158735E+03  0.17684458703E+03  0.00000000000E+00 0.  1.
        -15    1    1    2    0    0  0.12411388223E+02  0.91496723525E+01  0.78531316770E+01  0.17395070219E+02  0.17770000000E+01 0. -1.
         15    1    1    2    0    0 -0.62098594473E+01  0.14178406836E+01  0.93517478847E+01  0.11453625804E+02  0.17770000000E+01 0.  1.
</event>
<event>
 6    1  0.1097339E-002  0.1832079E+03  0.7546771E-02  0.1067893E+00
        -11   -1    0    0    0    0  0.00000000000E+00  0.00000000000E+00  0.18250000000E+03  0.18250000000E+03  0.00000000000E+00 0. -1.
         11   -1    0    0    0    0 -0.00000000000E+00 -0.00000000000E+00 -0.18250000000E+03  0.18250000000E+03  0.00000000000E+00 0. -1.
        -11    1    1    2    0    0  0.49017632961E+01  0.24034944511E+01  0.14628599977E+03  0.14638783350E+03  0.00000000000E+00 0. -1.
         11    1    1    2    0    0 -0.16253722798E+01 -0.21258265424E+01 -0.18177243896E+03  0.18179213552E+03  0.00000000000E+00 0. -1.
        -15    1    1    2    0    0  0.92311843713E+00  0.11921502209E+01  0.26790078328E+02  0.26891251284E+02  0.17770000000E+01 0.  1.
         15    1    1    2    0    0 -0.41995094535E+01 -0.14698181296E+01  0.86963608584E+01  0.99287796916E+01  0.17770000000E+01 0. -1.
</event>
<event>
 6    1  0.1097339E-002  0.1826904E+03  0.7546771E-02  0.1068303E+00
        -11   -1    0    0    0    0  0.00000000000E+00  0.00000000000E+00  0.18250000000E+03  0.18250000000E+03  0.00000000000E+00 0. -1.
         11   -1    0    0    0    0 -0.00000000000E+00 -0.00000000000E+00 -0.18250000000E+03  0.18250000000E+03  0.00000000000E+00 0. -1.
        -11    1    1    2    0    0 -0.65580927029E-01  0.40706160930E+01  0.18226414845E+03  0.18230961035E+03  0.00000000000E+00 0. -1.
         11    1    1    2    0    0 -0.54784483880E+00 -0.13858972926E+01 -0.35241470736E+02  0.35272965638E+02  0.00000000000E+00 0. -1.
        -15    1    1    2    0    0  0.45855006522E+01  0.10690727071E+01 -0.69865732158E+02  0.70046755754E+02  0.17770000000E+01 0.  1.
         15    1    1    2    0    0 -0.39720748864E+01 -0.37537915075E+01 -0.77156945557E+02  0.77370668256E+02  0.17770000000E+01 0. -1.
</event>
<event>
 6    1  0.1097339E-002  0.1833610E+03  0.7546771E-02  0.1067772E+00
        -11   -1    0    0    0    0  0.00000000000E+00  0.00000000000E+00  0.18250000000E+03  0.18250000000E+03  0.00000000000E+00 0.  1.
         11   -1    0    0    0    0 -0.00000000000E+00 -0.00000000000E+00 -0.18250000000E+03  0.18250000000E+03  0.00000000000E+00 0.  1.
        -11    1    1    2    0    0  0.13704672191E+01  0.11329107718E+01  0.12284501895E+03  0.12285788680E+03  0.00000000000E+00 0.  1.
         11    1    1    2    0    0  0.43013732807E+01 -0.36444470234E+01 -0.18155152082E+03  0.18163903358E+03  0.00000000000E+00 0.  1.
        -15    1    1    2    0    0 -0.14048877616E+01  0.66460269935E+01  0.43781382519E+02  0.44340845376E+02  0.17770000000E+01 0.  1.
         15    1    1    2    0    0 -0.42669527382E+01 -0.41344907419E+01  0.14925119347E+02  0.16162234248E+02  0.17770000000E+01 0. -1.
</event>
<event>
 6    1  0.1097339E-002  0.1876065E+03  0.7546771E-02  0.1064461E+00
        -11   -1    0    0    0    0  0.00000000000E+00  0.00000000000E+00  0.18250000000E+03  0.18250000000E+03  0.00000000000E+00 0. -1.
         11   -1    0    0    0    0 -0.00000000000E+00 -0.00000000000E+00 -0.18250000000E+03  0.18250000000E+03  0.00000000000E+00 0. -1.
        -11    1    1    2    0    0  0.53191170693E+01  0.10467599210E+01  0.17731063037E+03  0.17739348453E+03  0.00000000000E+00 0. -1.
         11    1    1    2    0    0 -0.79707499597E+01 -0.48071461637E+00 -0.16520158855E+03  0.16539446424E+03  0.00000000000E+00 0. -1.
        -15    1    1    2    0    0  0.46486095673E+01 -0.26899391647E+01  0.32186821932E+01  0.65086855570E+01  0.17770000000E+01 0. -1.
         15    1    1    2    0    0 -0.19969766770E+01  0.21238938601E+01 -0.15327724014E+02  0.15703365672E+02  0.17770000000E+01 0. -1.
</event>
<event>
 6    1  0.1097339E-002  0.1203487E+03  0.7546771E-02  0.1132650E+00
        -11   -1    0    0    0    0  0.00000000000E+00  0.00000000000E+00  0.18250000000E+03  0.18250000000E+03  0.00000000000E+00 0.  1.
         11   -1    0    0    0    0 -0.00000000000E+00 -0.00000000000E+00 -0.18250000000E+03  0.18250000000E+03  0.00000000000E+00 0. -1.
        -11    1    1    2    0    0 -0.25888523466E+01 -0.10427207678E+02  0.30978904095E+02  0.32789042611E+02  0.00000000000E+00 0.  1.
         11    1    1    2    0    0  0.83195328810E+02  0.11799588018E+02 -0.72980187030E+02  0.11129600492E+03  0.00000000000E+00 0. -1.
        -15    1    1    2    0    0 -0.62407022660E+02  0.22531138497E+02  0.12009868294E+03  0.13721931370E+03  0.17770000000E+01 0.  1.
         15    1    1    2    0    0 -0.18199453804E+02 -0.23903518837E+02 -0.78097400006E+02  0.83695638764E+02  0.17770000000E+01 0. -1.
</event>
<event>
 6    1  0.1097339E-002  0.1758644E+03  0.7546771E-02  0.1073863E+00
        -11   -1    0    0    0    0  0.00000000000E+00  0.00000000000E+00  0.18250000000E+03  0.18250000000E+03  0.00000000000E+00 0. -1.
         11   -1    0    0    0    0 -0.00000000000E+00 -0.00000000000E+00 -0.18250000000E+03  0.18250000000E+03  0.00000000000E+00 0.  1.
        -11    1    1    2    0    0 -0.26303866152E+01 -0.19789217590E+01  0.17435909178E+03  0.17439016014E+03  0.00000000000E+00 0. -1.
         11    1    1    2    0    0 -0.17509015504E+01  0.45172650328E+01 -0.17732141032E+03  0.17738758101E+03  0.00000000000E+00 0.  1.
        -15    1    1    2    0    0  0.27835985564E+01 -0.36593323206E+01 -0.36297220317E+01  0.61214169097E+01  0.17770000000E+01 0. -1.
         15    1    1    2    0    0  0.15976896092E+01  0.11209890467E+01  0.65920405652E+01  0.71008419461E+01  0.17770000000E+01 0.  1.
</event>
<event>
 6    1  0.1097339E-002  0.1895589E+03  0.7546771E-02  0.1062971E+00
        -11   -1    0    0    0    0  0.00000000000E+00  0.00000000000E+00  0.18250000000E+03  0.18250000000E+03  0.00000000000E+00 0. -1.
         11   -1    0    0    0    0 -0.00000000000E+00 -0.00000000000E+00 -0.18250000000E+03  0.18250000000E+03  0.00000000000E+00 0. -1.
        -11    1    1    2    0    0  0.35015518935E+01 -0.45804497941E+01  0.13551456940E+03  0.13563716270E+03  0.00000000000E+00 0. -1.
         11    1    1    2    0    0  0.12026040521E+02 -0.79894954809E+01 -0.17484596026E+03  0.17544106563E+03  0.00000000000E+00 0. -1.
        -15    1    1    2    0    0 -0.22082605239E+02  0.65679015648E+01  0.13999175825E+02  0.27016910220E+02  0.17770000000E+01 0. -1.
         15    1    1    2    0    0  0.65550128242E+01  0.60020437102E+01  0.25332215035E+02  0.26904861446E+02  0.17770000000E+01 0.  1.
</event>
<event>
 6    1  0.1097339E-002  0.1847914E+03  0.7546771E-02  0.1066645E+00
        -11   -1    0    0    0    0  0.00000000000E+00  0.00000000000E+00  0.18250000000E+03  0.18250000000E+03  0.00000000000E+00 0. -1.
         11   -1    0    0    0    0 -0.00000000000E+00 -0.00000000000E+00 -0.18250000000E+03  0.18250000000E+03  0.00000000000E+00 0. -1.
        -11    1    1    2    0    0 -0.46223614483E+01 -0.10004897439E+01  0.18014657570E+03  0.18020864558E+03  0.00000000000E+00 0. -1.
         11    1    1    2    0    0 -0.14380912419E+02  0.53835388105E+01 -0.10376122763E+03  0.10489130322E+03  0.00000000000E+00 0. -1.
        -15    1    1    2    0    0  0.18211074413E+02 -0.66861742447E+01 -0.71923658929E+02  0.74515223948E+02  0.17770000000E+01 0. -1.
         15    1    1    2    0    0  0.79219945473E+00  0.23031251780E+01 -0.44616891433E+01  0.53848272556E+01  0.17770000000E+01 0.  1.
</event>
<event>
 6    1  0.1097339E-002  0.1195221E+03  0.7546771E-02  0.1133779E+00
        -11   -1    0    0    0    0  0.00000000000E+00  0.00000000000E+00  0.18250000000E+03  0.18250000000E+03  0.00000000000E+00 0.  1.
         11   -1    0    0    0    0 -0.00000000000E+00 -0.00000000000E+00 -0.18250000000E+03  0.18250000000E+03  0.00000000000E+00 0.  1.
        -11    1    1    2    0    0 -0.99467644324E+01 -0.80669199618E+01  0.14757475788E+03  0.14812941127E+03  0.00000000000E+00 0.  1.
         11    1    1    2    0    0 -0.86394493031E+01  0.32360978804E+01 -0.31349488940E+02  0.32678783187E+02  0.00000000000E+00 0.  1.
        -15    1    1    2    0    0  0.40604335631E+02 -0.58297751914E+02 -0.83761462691E+02  0.10984753211E+03  0.17770000000E+01 0. -1.
         15    1    1    2    0    0 -0.22018121896E+02  0.63128573996E+02 -0.32463806248E+02  0.74344273429E+02  0.17770000000E+01 0.  1.
</event>
<event>
 6    1  0.1097339E-002  0.1830930E+03  0.7546771E-02  0.1067984E+00
        -11   -1    0    0    0    0  0.00000000000E+00  0.00000000000E+00  0.18250000000E+03  0.18250000000E+03  0.00000000000E+00 0.  1.
         11   -1    0    0    0    0 -0.00000000000E+00 -0.00000000000E+00 -0.18250000000E+03  0.18250000000E+03  0.00000000000E+00 0.  1.
        -11    1    1    2    0    0 -0.30380196196E+01  0.35564942644E-01  0.97157661384E+02  0.97205154152E+02  0.00000000000E+00 0.  1.
         11    1    1    2    0    0  0.11654579618E+02 -0.75989429682E+01 -0.18137412758E+03  0.18190697435E+03  0.00000000000E+00 0.  1.
        -15    1    1    2    0    0 -0.10153795869E+00 -0.11654184899E+01  0.26622637180E+01  0.34079153918E+01  0.17770000000E+01 0.  1.
         15    1    1    2    0    0 -0.85150220399E+01  0.87287965155E+01  0.81554202479E+02  0.82479956110E+02  0.17770000000E+01 0.  1.
</event>
<event>
 6    1  0.1097339E-002  0.1920882E+03  0.7546771E-02  0.1061069E+00
        -11   -1    0    0    0    0  0.00000000000E+00  0.00000000000E+00  0.18250000000E+03  0.18250000000E+03  0.00000000000E+00 0.  1.
         11   -1    0    0    0    0 -0.00000000000E+00 -0.00000000000E+00 -0.18250000000E+03  0.18250000000E+03  0.00000000000E+00 0. -1.
        -11    1    1    2    0    0  0.97825590680E+01 -0.30456528892E+01  0.16472608302E+03  0.16504440884E+03  0.00000000000E+00 0.  1.
         11    1    1    2    0    0 -0.28192869632E+01 -0.19704960513E+01 -0.17287763016E+03  0.17291184529E+03  0.00000000000E+00 0. -1.
        -15    1    1    2    0    0 -0.12618842717E+02 -0.29290363850E+01  0.10600336618E+02  0.16832685796E+02  0.17770000000E+01 0.  1.
         15    1    1    2    0    0  0.56555706126E+01  0.79451853256E+01 -0.24487894769E+01  0.10211060068E+02  0.17770000000E+01 0.  1.
</event>
<event>
 6    1  0.1097339E-002  0.1827824E+03  0.7546771E-02  0.1068230E+00
        -11   -1    0    0    0    0  0.00000000000E+00  0.00000000000E+00  0.18250000000E+03  0.18250000000E+03  0.00000000000E+00 0. -1.
         11   -1    0    0    0    0 -0.00000000000E+00 -0.00000000000E+00 -0.18250000000E+03  0.18250000000E+03  0.00000000000E+00 0. -1.
        -11    1    1    2    0    0 -0.27576417032E+01  0.30684709761E+01  0.18217089452E+03  0.18221760319E+03  0.00000000000E+00 0. -1.
         11    1    1    2    0    0  0.30530080178E+01 -0.22347237070E-01 -0.43706682290E+02  0.43813187903E+02  0.00000000000E+00 0. -1.
        -15    1    1    2    0    0  0.10701256472E+01 -0.28078302928E+01 -0.12324773475E+02  0.12809638951E+02  0.17770000000E+01 0.  1.
         15    1    1    2    0    0 -0.13654919618E+01 -0.23829344631E+00 -0.12613943876E+03  0.12615956995E+03  0.17770000000E+01 0. -1.
</event>
<event>
 6    1  0.1097339E-002  0.1847760E+03  0.7546771E-02  0.1066657E+00
        -11   -1    0    0    0    0  0.00000000000E+00  0.00000000000E+00  0.18250000000E+03  0.18250000000E+03  0.00000000000E+00 0. -1.
         11   -1    0    0    0    0 -0.00000000000E+00 -0.00000000000E+00 -0.18250000000E+03  0.18250000000E+03  0.00000000000E+00 0.  1.
        -11    1    1    2    0    0  0.18086729695E+01 -0.83431805559E+00  0.13272455436E+03  0.13273949945E+03  0.00000000000E+00 0. -1.
         11    1    1    2    0    0  0.54034518049E+01 -0.82291013087E+01 -0.17995497368E+03  0.18022404932E+03  0.00000000000E+00 0.  1.
        -15    1    1    2    0    0  0.48591416074E+01  0.26109390322E+01  0.26535743668E+02  0.27161216482E+02  0.17770000000E+01 0.  1.
         15    1    1    2    0    0 -0.12071266382E+02  0.64524803321E+01  0.20694675652E+02  0.24875234749E+02  0.17770000000E+01 0. -1.
</event>
<event>
 6    1  0.1097339E-002  0.1878706E+03  0.7546771E-02  0.1064258E+00
        -11   -1    0    0    0    0  0.00000000000E+00  0.00000000000E+00  0.18250000000E+03  0.18250000000E+03  0.00000000000E+00 0.  1.
         11   -1    0    0    0    0 -0.00000000000E+00 -0.00000000000E+00 -0.18250000000E+03  0.18250000000E+03  0.00000000000E+00 0. -1.
        -11    1    1    2    0    0 -0.11838264575E+01 -0.20734946264E+01  0.17711331069E+03  0.17712940368E+03  0.00000000000E+00 0.  1.
         11    1    1    2    0    0  0.54297637191E+01 -0.45627455268E+01 -0.16788152684E+03  0.16803127100E+03  0.00000000000E+00 0. -1.
        -15    1    1    2    0    0 -0.30360210684E+01  0.98104395995E+00  0.39231104618E+01  0.53598876737E+01  0.17770000000E+01 0.  1.
         15    1    1    2    0    0 -0.12099161933E+01  0.56551961932E+01 -0.13154894311E+02  0.14479437645E+02  0.17770000000E+01 0. -1.
</event>
<event>
 6    1  0.1097339E-002  0.1378565E+03  0.7546771E-02  0.1110860E+00
        -11   -1    0    0    0    0  0.00000000000E+00  0.00000000000E+00  0.18250000000E+03  0.18250000000E+03  0.00000000000E+00 0. -1.
         11   -1    0    0    0    0 -0.00000000000E+00 -0.00000000000E+00 -0.18250000000E+03  0.18250000000E+03  0.00000000000E+00 0. -1.
        -11    1    1    2    0    0  0.66525768411E+01 -0.11577974193E+02  0.13650634265E+03  0.13715789386E+03  0.00000000000E+00 0. -1.
         11    1    1    2    0    0  0.22480342881E+02 -0.49643585628E+02 -0.13627666184E+03  0.14676913835E+03  0.00000000000E+00 0. -1.
        -15    1    1    2    0    0 -0.60398169773E+01  0.52673022359E+02 -0.10935060438E+02  0.54163271220E+02  0.17770000000E+01 0. -1.
         15    1    1    2    0    0 -0.23093102745E+02  0.85485374630E+01  0.10705379634E+02  0.26909696565E+02  0.17770000000E+01 0.  1.
</event>
<event>
 6    1  0.1097339E-002  0.1830614E+03  0.7546771E-02  0.1068009E+00
        -11   -1    0    0    0    0  0.00000000000E+00  0.00000000000E+00  0.18250000000E+03  0.18250000000E+03  0.00000000000E+00 0. -1.
         11   -1    0    0    0    0 -0.00000000000E+00 -0.00000000000E+00 -0.18250000000E+03  0.18250000000E+03  0.00000000000E+00 0. -1.
        -11    1    1    2    0    0  0.29314204317E+01  0.31146599927E+01  0.67694649525E+02  0.67829638853E+02  0.00000000000E+00 0. -1.
         11    1    1    2    0    0 -0.51451857171E+01  0.15260652631E+01 -0.18185938429E+03  0.18193855410E+03  0.00000000000E+00 0. -1.
        -15    1    1    2    0    0  0.20991014133E+01 -0.42044953673E+00  0.10449490604E+03  0.10453193828E+03  0.17770000000E+01 0.  1.
         15    1    1    2    0    0  0.11466387203E+00 -0.42202757191E+01  0.96698287316E+01  0.10699868768E+02  0.17770000000E+01 0. -1.
</event>
<event>
 6    1  0.1097339E-002  0.1834993E+03  0.7546771E-02  0.1067662E+00
        -11   -1    0    0    0    0  0.00000000000E+00  0.00000000000E+00  0.18250000000E+03  0.18250000000E+03  0.00000000000E+00 0. -1.
         11   -1    0    0    0    0 -0.00000000000E+00 -0.00000000000E+00 -0.18250000000E+03  0.18250000000E+03  0.00000000000E+00 0. -1.
        -11    1    1    2    0    0 -0.41357581404E+01  0.10621071638E+01  0.11239229848E+03  0.11247338052E+03  0.00000000000E+00 0. -1.
         11    1    1    2    0    0 -0.43056029438E+01 -0.75987284642E+01 -0.18129047500E+03  0.18150073063E+03  0.00000000000E+00 0. -1.
        -15    1    1    2    0    0 -0.39966849876E-02 -0.20171339662E+01  0.30484033244E+01  0.40643987550E+01  0.17770000000E+01 0. -1.
         15    1    1    2    0    0  0.84453577692E+01  0.85537552666E+01  0.65849773198E+02  0.66961490099E+02  0.17770000000E+01 0.  1.
</event>
<event>
 6    1  0.1097339E-002  0.1352482E+03  0.7546771E-02  0.1113873E+00
        -11   -1    0    0    0    0  0.00000000000E+00  0.00000000000E+00  0.18250000000E+03  0.18250000000E+03  0.00000000000E+00 0.  1.
         11   -1    0    0    0    0 -0.00000000000E+00 -0.00000000000E+00 -0.18250000000E+03  0.18250000000E+03  0.00000000000E+00 0. -1.
        -11    1    1    2    0    0 -0.48352587314E+01  0.67104181749E+00  0.14103307357E+03  0.14111753210E+03  0.00000000000E+00 0.  1.
         11    1    1    2    0    0 -0.18105416755E+02 -0.24796907413E+01 -0.12932354229E+03  0.13060832123E+03  0.00000000000E+00 0. -1.
        -15    1    1    2    0    0  0.81110722272E+01 -0.40304574690E+02  0.11765128311E+02  0.42799815500E+02  0.17770000000E+01 0.  1.
         15    1    1    2    0    0  0.14829603259E+02  0.42113223614E+02 -0.23474659590E+02  0.50474331178E+02  0.17770000000E+01 0. -1.
</event>
<event>
 6    1  0.1097339E-002  0.1888946E+03  0.7546771E-02  0.1063476E+00
        -11   -1    0    0    0    0  0.00000000000E+00  0.00000000000E+00  0.18250000000E+03  0.18250000000E+03  0.00000000000E+00 0.  1.
         11   -1    0    0    0    0 -0.00000000000E+00 -0.00000000000E+00 -0.18250000000E+03  0.18250000000E+03  0.00000000000E+00 0.  1.
        -11    1    1    2    0    0  0.90780773268E+01 -0.10525256238E+01  0.17586813746E+03  0.17610542602E+03  0.00000000000E+00 0.  1.
         11    1    1    2    0    0  0.10635079808E+02 -0.20022412063E+01 -0.80879550538E+02  0.81600340609E+02  0.00000000000E+00 0.  1.
        -15    1    1    2    0    0 -0.13718555254E+02  0.41766247882E+01 -0.25932509371E+01  0.14680791270E+02  0.17770000000E+01 0. -1.
         15    1    1    2    0    0 -0.59946018808E+01 -0.11218579582E+01 -0.92395335988E+02  0.92613442104E+02  0.17770000000E+01 0.  1.
</event>
<event>
 6    1  0.1097339E-002  0.1848914E+03  0.7546771E-02  0.1066567E+00
        -11   -1    0    0    0    0  0.00000000000E+00  0.00000000000E+00  0.18250000000E+03  0.18250000000E+03  0.00000000000E+00 0.  1.
         11   -1    0    0    0    0 -0.00000000000E+00 -0.00000000000E+00 -0.18250000000E+03  0.18250000000E+03  0.00000000000E+00 0. -1.
        -11    1    1    2    0    0 -0.37932240796E+01 -0.30283700610E+00  0.16630646942E+03  0.16634999859E+03  0.00000000000E+00 0.  1.
         11    1    1    2    0    0 -0.27323993328E+01 -0.22470801241E+01 -0.18007380680E+03  0.18010855413E+03  0.00000000000E+00 0. -1.
        -15    1    1    2    0    0  0.46954391439E+01  0.56781750620E+01  0.55757292219E+01  0.94093201744E+01  0.17770000000E+01 0. -1.
         15    1    1    2    0    0  0.18301842685E+01 -0.31282579319E+01  0.81916081642E+01  0.91321271050E+01  0.17770000000E+01 0.  1.
</event>
<event>
 6    1  0.1097339E-002  0.1838929E+03  0.7546771E-02  0.1067351E+00
        -11   -1    0    0    0    0  0.00000000000E+00  0.00000000000E+00  0.18250000000E+03  0.18250000000E+03  0.00000000000E+00 0.  1.
         11   -1    0    0    0    0 -0.00000000000E+00 -0.00000000000E+00 -0.18250000000E+03  0.18250000000E+03  0.00000000000E+00 0. -1.
        -11    1    1    2    0    0  0.28250765868E+01  0.15322835911E+01  0.18107859667E+03  0.18110711505E+03  0.00000000000E+00 0.  1.
         11    1    1    2    0    0 -0.36260033004E+01  0.10941677047E+01 -0.17177495766E+03  0.17181670810E+03  0.00000000000E+00 0. -1.
        -15    1    1    2    0    0  0.23667017749E+01 -0.33210010610E+01 -0.82897922581E+01  0.94079067821E+01  0.17770000000E+01 0. -1.
         15    1    1    2    0    0 -0.15657750613E+01  0.69454976526E+00 -0.10138467511E+01  0.26682700676E+01  0.17770000000E+01 0.  1.
</event>
<event>
 6    1  0.1097339E-002  0.1825870E+03  0.7546771E-02  0.1068386E+00
        -11   -1    0    0    0    0  0.00000000000E+00  0.00000000000E+00  0.18250000000E+03  0.18250000000E+03  0.00000000000E+00 0. -1.
         11   -1    0    0    0    0 -0.00000000000E+00 -0.00000000000E+00 -0.18250000000E+03  0.18250000000E+03  0.00000000000E+00 0. -1.
        -11    1    1    2    0    0 -0.20463719491E+01 -0.23320527097E+01  0.18238665437E+03  0.18241304175E+03  0.00000000000E+00 0. -1.
         11    1    1    2    0    0  0.84118840045E+00  0.25183920546E+01 -0.49636971763E+02  0.49707935607E+02  0.00000000000E+00 0. -1.
        -15    1    1    2    0    0  0.15352922958E+01  0.17396018629E+01 -0.48517214568E+02  0.48605155853E+02  0.17770000000E+01 0.  1.
         15    1    1    2    0    0 -0.33010874716E+00 -0.19259412078E+01 -0.84232468043E+02  0.84273866785E+02  0.17770000000E+01 0. -1.
</event>
<event>
 6    1  0.1097339E-002  0.1866296E+03  0.7546771E-02  0.1065214E+00
        -11   -1    0    0    0    0  0.00000000000E+00  0.00000000000E+00  0.18250000000E+03  0.18250000000E+03  0.00000000000E+00 0. -1.
         11   -1    0    0    0    0 -0.00000000000E+00 -0.00000000000E+00 -0.18250000000E+03  0.18250000000E+03  0.00000000000E+00 0. -1.
        -11    1    1    2    0    0  0.25996560214E+01 -0.25209179754E+01  0.17833367551E+03  0.17837043775E+03  0.00000000000E+00 0. -1.
         11    1    1    2    0    0 -0.20897347033E+01 -0.17596816210E+01 -0.17562955452E+03  0.17565080100E+03  0.00000000000E+00 0. -1.
        -15    1    1    2    0    0  0.22021569488E+01 -0.13204846008E+01  0.12844876714E+01  0.33765089051E+01  0.17770000000E+01 0.  1.
         15    1    1    2    0    0 -0.27120782669E+01  0.56010841972E+01 -0.39886086651E+01  0.76022523500E+01  0.17770000000E+01 0. -1.
</event>
<event>
 6    1  0.1097339E-002  0.1833647E+03  0.7546771E-02  0.1067769E+00
        -11   -1    0    0    0    0  0.00000000000E+00  0.00000000000E+00  0.18250000000E+03  0.18250000000E+03  0.00000000000E+00 0.  1.
         11   -1    0    0    0    0 -0.00000000000E+00 -0.00000000000E+00 -0.18250000000E+03  0.18250000000E+03  0.00000000000E+00 0.  1.
        -11    1    1    2    0    0  0.13529382438E+01  0.51014537598E-01  0.93159725630E+02  0.93169563291E+02  0.00000000000E+00 0.  1.
         11    1    1    2    0    0 -0.40769568603E+00 -0.31932456487E+01 -0.18160673980E+03  0.18163526908E+03  0.00000000000E+00 0.  1.
        -15    1    1    2    0    0 -0.10254314948E+01  0.15137433454E+01  0.10379117404E+01  0.27528019266E+01  0.17770000000E+01 0.  1.
         15    1    1    2    0    0  0.80188937090E-01  0.16284877657E+01  0.87409102430E+02  0.87442365701E+02  0.17770000000E+01 0. -1.
</event>
<event>
 6    1  0.1097339E-002  0.1826190E+03  0.7546771E-02  0.1068360E+00
        -11   -1    0    0    0    0  0.00000000000E+00  0.00000000000E+00  0.18250000000E+03  0.18250000000E+03  0.00000000000E+00 0. -1.
         11   -1    0    0    0    0 -0.00000000000E+00 -0.00000000000E+00 -0.18250000000E+03  0.18250000000E+03  0.00000000000E+00 0. -1.
        -11    1    1    2    0    0 -0.95908247615E+00 -0.29512605912E+01  0.18235457923E+03  0.18238098131E+03  0.00000000000E+00 0. -1.
         11    1    1    2    0    0  0.74573239182E+00  0.47176911671E-01 -0.27773363360E+02  0.27783413304E+02  0.00000000000E+00 0. -1.
        -15    1    1    2    0    0  0.20336034436E+01  0.21753022363E+01 -0.26363605799E+02  0.26590692404E+02  0.17770000000E+01 0. -1.
         15    1    1    2    0    0 -0.18202533593E+01  0.72878144321E+00 -0.12821761007E+03  0.12824491298E+03  0.17770000000E+01 0. -1.
</event>
<event>
 6    1  0.1097339E-002  0.1866803E+03  0.7546771E-02  0.1065175E+00
        -11   -1    0    0    0    0  0.00000000000E+00  0.00000000000E+00  0.18250000000E+03  0.18250000000E+03  0.00000000000E+00 0.  1.
         11   -1    0    0    0    0 -0.00000000000E+00 -0.00000000000E+00 -0.18250000000E+03  0.18250000000E+03  0.00000000000E+00 0.  1.
        -11    1    1    2    0    0  0.83806907405E+00  0.14907480030E+01  0.78175653680E+02  0.78194357326E+02  0.00000000000E+00 0.  1.
         11    1    1    2    0    0  0.18465523852E+02 -0.41831799960E+01 -0.17731167431E+03  0.17831966917E+03  0.00000000000E+00 0.  1.
        -15    1    1    2    0    0 -0.22401006284E+02 -0.89640393089E-02  0.22778336903E+02  0.31997117432E+02  0.17770000000E+01 0. -1.
         15    1    1    2    0    0  0.30974133584E+01  0.27013960323E+01  0.76357683728E+02  0.76488856073E+02  0.17770000000E+01 0.  1.
</event>
<event>
 6    1  0.1097339E-002  0.1844018E+03  0.7546771E-02  0.1066951E+00
        -11   -1    0    0    0    0  0.00000000000E+00  0.00000000000E+00  0.18250000000E+03  0.18250000000E+03  0.00000000000E+00 0. -1.
         11   -1    0    0    0    0 -0.00000000000E+00 -0.00000000000E+00 -0.18250000000E+03  0.18250000000E+03  0.00000000000E+00 0. -1.
        -11    1    1    2    0    0  0.64763739380E+00  0.79791251737E+01  0.15678174861E+03  0.15698599482E+03  0.00000000000E+00 0. -1.
         11    1    1    2    0    0 -0.10565561763E+01 -0.27572987187E+01 -0.18057407541E+03  0.18059821626E+03  0.00000000000E+00 0. -1.
        -15    1    1    2    0    0 -0.19387823516E+01 -0.37467290177E+01  0.14062141456E+01  0.47887391412E+01  0.17770000000E+01 0.  1.
         15    1    1    2    0    0  0.23477011340E+01 -0.14750974372E+01  0.22386112649E+02  0.22627049777E+02  0.17770000000E+01 0. -1.
</event>
<event>
 6    1  0.1097339E-002  0.1841749E+03  0.7546771E-02  0.1067129E+00
        -11   -1    0    0    0    0  0.00000000000E+00  0.00000000000E+00  0.18250000000E+03  0.18250000000E+03  0.00000000000E+00 0.  1.
         11   -1    0    0    0    0 -0.00000000000E+00 -0.00000000000E+00 -0.18250000000E+03  0.18250000000E+03  0.00000000000E+00 0. -1.
        -11    1    1    2    0    0 -0.12095914517E+01  0.21570560882E+01  0.18080815942E+03  0.18082507159E+03  0.00000000000E+00 0.  1.
         11    1    1    2    0    0 -0.52915129247E+00 -0.22351621766E+01 -0.10042767459E+03  0.10045393857E+03  0.00000000000E+00 0. -1.
        -15    1    1    2    0    0 -0.98991224687E+00 -0.49263653903E+01 -0.30110704471E+01  0.61215419996E+01  0.17770000000E+01 0. -1.
         15    1    1    2    0    0  0.27286549910E+01  0.50044714787E+01 -0.77369414386E+02  0.77599447834E+02  0.17770000000E+01 0. -1.
</event>
<event>
 6    1  0.1097339E-002  0.1881027E+03  0.7546771E-02  0.1064081E+00
        -11   -1    0    0    0    0  0.00000000000E+00  0.00000000000E+00  0.18250000000E+03  0.18250000000E+03  0.00000000000E+00 0. -1.
         11   -1    0    0    0    0 -0.00000000000E+00 -0.00000000000E+00 -0.18250000000E+03  0.18250000000E+03  0.00000000000E+00 0. -1.
        -11    1    1    2    0    0  0.36740381671E+01 -0.14056998390E+01  0.17685359431E+03  0.17689733850E+03  0.00000000000E+00 0. -1.
         11    1    1    2    0    0  0.11766098592E+01 -0.33874931747E+01 -0.15841526668E+03  0.15845584949E+03  0.00000000000E+00 0. -1.
        -15    1    1    2    0    0 -0.23220666980E+01  0.55012986887E+00  0.48960980128E+01  0.57292356710E+01  0.17770000000E+01 0.  1.
         15    1    1    2    0    0 -0.25285813282E+01  0.42430631448E+01 -0.23334425645E+02  0.23917576331E+02  0.17770000000E+01 0. -1.
</event>
<event>
 6    1  0.1097339E-002  0.1871656E+03  0.7546771E-02  0.1064800E+00
        -11   -1    0    0    0    0  0.00000000000E+00  0.00000000000E+00  0.18250000000E+03  0.18250000000E+03  0.00000000000E+00 0.  1.
         11   -1    0    0    0    0 -0.00000000000E+00 -0.00000000000E+00 -0.18250000000E+03  0.18250000000E+03  0.00000000000E+00 0.  1.
        -11    1    1    2    0    0  0.32849063372E+01  0.94299771472E+00  0.17780156345E+03  0.17783440562E+03  0.00000000000E+00 0.  1.
         11    1    1    2    0    0 -0.38192949255E+01 -0.12548154076E+01 -0.15116294652E+03  0.15121639454E+03  0.00000000000E+00 0.  1.
        -15    1    1    2    0    0  0.34577199773E+01 -0.48257037839E+01 -0.28761880254E+02  0.29421875012E+02  0.17770000000E+01 0. -1.
         15    1    1    2    0    0 -0.29233313891E+01  0.51375214767E+01  0.21232633235E+01  0.65273248330E+01  0.17770000000E+01 0.  1.
</event>
<event>
 6    1  0.1097339E-002  0.1847514E+03  0.7546771E-02  0.1066677E+00
        -11   -1    0    0    0    0  0.00000000000E+00  0.00000000000E+00  0.18250000000E+03  0.18250000000E+03  0.00000000000E+00 0.  1.
         11   -1    0    0    0    0 -0.00000000000E+00 -0.00000000000E+00 -0.18250000000E+03  0.18250000000E+03  0.00000000000E+00 0.  1.
        -11    1    1    2    0    0 -0.14317744968E+01  0.54859648798E+01  0.15403793470E+03  0.15414224313E+03  0.00000000000E+00 0.  1.
         11    1    1    2    0    0 -0.21176131196E+00  0.51435000220E+01 -0.18017511835E+03  0.18024864412E+03  0.00000000000E+00 0.  1.
        -15    1    1    2    0    0 -0.24457676886E+01 -0.27743578409E+01  0.17967826169E+02  0.18430391945E+02  0.17770000000E+01 0.  1.
         15    1    1    2    0    0  0.40893034974E+01 -0.78551070610E+01  0.81693574753E+01  0.12178720811E+02  0.17770000000E+01 0. -1.
</event>
<event>
 6    1  0.1097339E-002  0.1861347E+03  0.7546771E-02  0.1065598E+00
        -11   -1    0    0    0    0  0.00000000000E+00  0.00000000000E+00  0.18250000000E+03  0.18250000000E+03  0.00000000000E+00 0.  1.
         11   -1    0    0    0    0 -0.00000000000E+00 -0.00000000000E+00 -0.18250000000E+03  0.18250000000E+03  0.00000000000E+00 0. -1.
        -11    1    1    2    0    0 -0.45802803333E+00  0.40939837149E+01  0.13089895698E+03  0.13096376381E+03  0.00000000000E+00 0.  1.
         11    1    1    2    0    0 -0.85825907258E+01 -0.40506641451E+01 -0.17861332106E+03  0.17886527668E+03  0.00000000000E+00 0. -1.
        -15    1    1    2    0    0  0.78290777688E+01 -0.86786981149E+01  0.43943067233E+02  0.45505660599E+02  0.17770000000E+01 0.  1.
         15    1    1    2    0    0  0.12115409903E+01  0.86353785452E+01  0.37712968419E+01  0.96652989121E+01  0.17770000000E+01 0. -1.
</event>
<event>
 6    1  0.1097339E-002  0.1841472E+03  0.7546771E-02  0.1067151E+00
        -11   -1    0    0    0    0  0.00000000000E+00  0.00000000000E+00  0.18250000000E+03  0.18250000000E+03  0.00000000000E+00 0.  1.
         11   -1    0    0    0    0 -0.00000000000E+00 -0.00000000000E+00 -0.18250000000E+03  0.18250000000E+03  0.00000000000E+00 0.  1.
        -11    1    1    2    0    0  0.58652963704E+01  0.21192887375E+01  0.18074524038E+03  0.18085279928E+03  0.00000000000E+00 0.  1.
         11    1    1    2    0    0 -0.24047447246E+01 -0.22851936612E+01 -0.16928383724E+03  0.16931633843E+03  0.00000000000E+00 0.  1.
        -15    1    1    2    0    0 -0.54980837345E-01  0.14362992310E+01  0.38037564204E+00  0.23169792840E+01  0.17770000000E+01 0.  1.
         15    1    1    2    0    0 -0.34055708084E+01 -0.12703943074E+01 -0.11841778785E+02  0.12513883011E+02  0.17770000000E+01 0. -1.
</event>
<event>
 6    1  0.1097339E-002  0.1825754E+03  0.7546771E-02  0.1068395E+00
        -11   -1    0    0    0    0  0.00000000000E+00  0.00000000000E+00  0.18250000000E+03  0.18250000000E+03  0.00000000000E+00 0. -1.
         11   -1    0    0    0    0 -0.00000000000E+00 -0.00000000000E+00 -0.18250000000E+03  0.18250000000E+03  0.00000000000E+00 0. -1.
        -11    1    1    2    0    0  0.71863545552E+00  0.77877494040E+00  0.67544590219E+02  0.67552902197E+02  0.00000000000E+00 0. -1.
         11    1    1    2    0    0 -0.65424392817E+00 -0.30069735657E+01 -0.18239862880E+03  0.18242458638E+03  0.00000000000E+00 0. -1.
        -15    1    1    2    0    0  0.10345756723E+01  0.31328947483E+01  0.84580412676E+02  0.84663388273E+02  0.17770000000E+01 0. -1.
         15    1    1    2    0    0 -0.10989671996E+01 -0.90469612303E+00  0.30273625909E+02  0.30359123153E+02  0.17770000000E+01 0. -1.
</event>
<event>
 6    1  0.1097339E-002  0.1827820E+03  0.7546771E-02  0.1068231E+00
        -11   -1    0    0    0    0  0.00000000000E+00  0.00000000000E+00  0.18250000000E+03  0.18250000000E+03  0.00000000000E+00 0.  1.
         11   -1    0    0    0    0 -0.00000000000E+00 -0.00000000000E+00 -0.18250000000E+03  0.18250000000E+03  0.00000000000E+00 0.  1.
        -11    1    1    2    0    0  0.56751603420E+00 -0.23929507420E+01  0.18220138177E+03  0.18221797882E+03  0.00000000000E+00 0.  1.
         11    1    1    2    0    0 -0.12089887386E+01 -0.12245489799E+00 -0.35772191035E+02  0.35792824706E+02  0.00000000000E+00 0.  1.
        -15    1    1    2    0    0  0.20322136287E+01 -0.11505301800E+00 -0.13542931334E+03  0.13545626516E+03  0.17770000000E+01 0.  1.
         15    1    1    2    0    0 -0.13907409244E+01  0.26304586580E+01 -0.10999877393E+02  0.11532931316E+02  0.17770000000E+01 0. -1.
</event>
<event>
 6    1  0.1097339E-002  0.1834458E+03  0.7546771E-02  0.1067704E+00
        -11   -1    0    0    0    0  0.00000000000E+00  0.00000000000E+00  0.18250000000E+03  0.18250000000E+03  0.00000000000E+00 0.  1.
         11   -1    0    0    0    0 -0.00000000000E+00 -0.00000000000E+00 -0.18250000000E+03  0.18250000000E+03  0.00000000000E+00 0.  1.
        -11    1    1    2    0    0 -0.50051312307E+01  0.85968630387E+00  0.14070056631E+03  0.14079218643E+03  0.00000000000E+00 0.  1.
         11    1    1    2    0    0 -0.29394784644E+01  0.16514200900E+01 -0.18152293864E+03  0.18155424803E+03  0.00000000000E+00 0.  1.
        -15    1    1    2    0    0  0.85541184307E+01  0.25930148262E+00  0.33147128529E+02  0.34280169750E+02  0.17770000000E+01 0. -1.
         15    1    1    2    0    0 -0.60950873558E+00 -0.27704078765E+01  0.76752438042E+01  0.83733957959E+01  0.17770000000E+01 0.  1.
</event>
<event>
 6    1  0.1097339E-002  0.1826760E+03  0.7546771E-02  0.1068315E+00
        -11   -1    0    0    0    0  0.00000000000E+00  0.00000000000E+00  0.18250000000E+03  0.18250000000E+03  0.00000000000E+00 0. -1.
         11   -1    0    0    0    0 -0.00000000000E+00 -0.00000000000E+00 -0.18250000000E+03  0.18250000000E+03  0.00000000000E+00 0.  1.
        -11    1    1    2    0    0  0.16766033234E+01 -0.47076388646E+00  0.12126650551E+03  0.12127900880E+03  0.00000000000E+00 0. -1.
         11    1    1    2    0    0  0.22854475796E+01  0.12194606517E+01 -0.18230560503E+03  0.18232400824E+03  0.00000000000E+00 0.  1.
        -15    1    1    2    0    0 -0.25843457257E+01  0.63675918347E+00  0.18405847366E+02  0.18682003408E+02  0.17770000000E+01 0.  1.
         15    1    1    2    0    0 -0.13777051773E+01 -0.13854559487E+01  0.42633252159E+02  0.42714979555E+02  0.17770000000E+01 0. -1.
</event>
<event>
 6    1  0.1097339E-002  0.1938510E+03  0.7546771E-02  0.1059762E+00
        -11   -1    0    0    0    0  0.00000000000E+00  0.00000000000E+00  0.18250000000E+03  0.18250000000E+03  0.00000000000E+00 0. -1.
         11   -1    0    0    0    0 -0.00000000000E+00 -0.00000000000E+00 -0.18250000000E+03  0.18250000000E+03  0.00000000000E+00 0.  1.
        -11    1    1    2    0    0  0.69238453165E+01  0.51617833783E+01  0.17093097781E+03  0.17114900764E+03  0.00000000000E+00 0. -1.
         11    1    1    2    0    0 -0.19314448681E+01  0.17359130527E+01 -0.10769603990E+03  0.10772734510E+03  0.00000000000E+00 0.  1.
        -15    1    1    2    0    0 -0.24207406990E+02  0.14111396154E+02 -0.20589720355E+02  0.34817012621E+02  0.17770000000E+01 0.  1.
         15    1    1    2    0    0  0.19215006541E+02 -0.21009092585E+02 -0.42645217561E+02  0.51306634634E+02  0.17770000000E+01 0. -1.
</event>
<event>
 6    1  0.1097339E-002  0.1726815E+03  0.7546771E-02  0.1076551E+00
        -11   -1    0    0    0    0  0.00000000000E+00  0.00000000000E+00  0.18250000000E+03  0.18250000000E+03  0.00000000000E+00 0.  1.
         11   -1    0    0    0    0 -0.00000000000E+00 -0.00000000000E+00 -0.18250000000E+03  0.18250000000E+03  0.00000000000E+00 0. -1.
        -11    1    1    2    0    0  0.26707504791E+01  0.67899224675E+01  0.17421438031E+03  0.17436710200E+03  0.00000000000E+00 0.  1.
         11    1    1    2    0    0  0.21319150725E+01  0.12028020610E+01 -0.17111818394E+03  0.17113569081E+03  0.00000000000E+00 0. -1.
        -15    1    1    2    0    0 -0.95612729537E+01 -0.67144305311E+01  0.22307314430E+01  0.12026446259E+02  0.17770000000E+01 0.  1.
         15    1    1    2    0    0  0.47586074020E+01 -0.12782939974E+01 -0.53269278133E+01  0.74707609303E+01  0.17770000000E+01 0. -1.
</event>
<event>
 6    1  0.1097339E-002  0.1835801E+03  0.7546771E-02  0.1067598E+00
        -11   -1    0    0    0    0  0.00000000000E+00  0.00000000000E+00  0.18250000000E+03  0.18250000000E+03  0.00000000000E+00 0. -1.
         11   -1    0    0    0    0 -0.00000000000E+00 -0.00000000000E+00 -0.18250000000E+03  0.18250000000E+03  0.00000000000E+00 0. -1.
        -11    1    1    2    0    0 -0.24277748772E+01  0.15261370440E+01  0.18139724408E+03  0.18141990890E+03  0.00000000000E+00 0. -1.
         11    1    1    2    0    0  0.46325649341E+01 -0.27281408875E+01 -0.16893004358E+03  0.16901557039E+03  0.00000000000E+00 0. -1.
        -15    1    1    2    0    0 -0.34913337028E+00 -0.36788500595E+00 -0.11108600063E+02  0.11261259159E+02  0.17770000000E+01 0.  1.
         15    1    1    2    0    0 -0.18556566866E+01  0.15698888494E+01 -0.13586004373E+01  0.33032615528E+01  0.17770000000E+01 0.  1.
</event>
<event>
 6    1  0.1097339E-002  0.1865373E+03  0.7546771E-02  0.1065286E+00
        -11   -1    0    0    0    0  0.00000000000E+00  0.00000000000E+00  0.18250000000E+03  0.18250000000E+03  0.00000000000E+00 0. -1.
         11   -1    0    0    0    0 -0.00000000000E+00 -0.00000000000E+00 -0.18250000000E+03  0.18250000000E+03  0.00000000000E+00 0.  1.
        -11    1    1    2    0    0  0.38320648459E+01  0.19773432953E+01  0.17315618063E+03  0.17320986548E+03  0.00000000000E+00 0. -1.
         11    1    1    2    0    0 -0.35871859672E+01  0.18313467832E+01 -0.17841724244E+03  0.17846269676E+03  0.00000000000E+00 0.  1.
        -15    1    1    2    0    0 -0.44488340659E-01  0.18678989739E+01  0.67216295060E+01  0.71992400991E+01  0.17770000000E+01 0. -1.
         15    1    1    2    0    0 -0.20039053799E+00 -0.56765890524E+01 -0.14605676954E+01  0.61281976657E+01  0.17770000000E+01 0.  1.
</event>
<event>
 6    1  0.1097339E-002  0.1853045E+03  0.7546771E-02  0.1066244E+00
        -11   -1    0    0    0    0  0.00000000000E+00  0.00000000000E+00  0.18250000000E+03  0.18250000000E+03  0.00000000000E+00 0.  1.
         11   -1    0    0    0    0 -0.00000000000E+00 -0.00000000000E+00 -0.18250000000E+03  0.18250000000E+03  0.00000000000E+00 0.  1.
        -11    1    1    2    0    0  0.25104960538E+01 -0.24036920715E+01  0.17966190228E+03  0.17969551875E+03  0.00000000000E+00 0.  1.
         11    1    1    2    0    0  0.23187787600E+01  0.88492163129E+00 -0.15764999538E+03  0.15766953055E+03  0.00000000000E+00 0.  1.
        -15    1    1    2    0    0  0.11371085314E+00  0.16867701875E+01  0.19312649982E+01  0.31218003326E+01  0.17770000000E+01 0.  1.
         15    1    1    2    0    0 -0.49429856670E+01 -0.16799974732E+00 -0.23943171902E+02  0.24513150368E+02  0.17770000000E+01 0. -1.
</event>
<event>
 6    1  0.1097339E-002  0.1825994E+03  0.7546771E-02  0.1068376E+00
        -11   -1    0    0    0    0  0.00000000000E+00  0.00000000000E+00  0.18250000000E+03  0.18250000000E+03  0.00000000000E+00 0.  1.
         11   -1    0    0    0    0 -0.00000000000E+00 -0.00000000000E+00 -0.18250000000E+03  0.18250000000E+03  0.00000000000E+00 0. -1.
        -11    1    1    2    0    0  0.14869347041E+00 -0.11598342765E+01  0.43718533514E+02  0.43734168541E+02  0.00000000000E+00 0.  1.
         11    1    1    2    0    0 -0.19281970098E+01  0.45070941919E+01 -0.18233467258E+03  0.18240056104E+03  0.00000000000E+00 0. -1.
        -15    1    1    2    0    0 -0.12068374096E+01 -0.22844517248E+00  0.89880796900E+02  0.89906751827E+02  0.17770000000E+01 0.  1.
         15    1    1    2    0    0  0.29863409490E+01 -0.31188147430E+01  0.48735342167E+02  0.48958518593E+02  0.17770000000E+01 0. -1.
</event>
<event>
 6    1  0.1097339E-002  0.1879700E+03  0.7546771E-02  0.1064182E+00
        -11   -1    0    0    0    0  0.00000000000E+00  0.00000000000E+00  0.18250000000E+03  0.18250000000E+03  0.00000000000E+00 0.  1.
         11   -1    0    0    0    0 -0.00000000000E+00 -0.00000000000E+00 -0.18250000000E+03  0.18250000000E+03  0.00000000000E+00 0.  1.
        -11    1    1    2    0    0  0.31830703885E+01 -0.61684705833E-02  0.16043537544E+03  0.16046694883E+03  0.00000000000E+00 0.  1.
         11    1    1    2    0    0 -0.45044271692E+01 -0.11206807294E+02 -0.17661752528E+03  0.17703003313E+03  0.00000000000E+00 0.  1.
        -15    1    1    2    0    0 -0.36409500984E+00  0.11794457598E+02  0.19786664821E+02  0.23106527842E+02  0.17770000000E+01 0.  1.
         15    1    1    2    0    0  0.16854517905E+01 -0.58148183318E+00 -0.36045149753E+01  0.43964901987E+01  0.17770000000E+01 0. -1.
</event>
<event>
 6    1  0.1097339E-002  0.1825959E+03  0.7546771E-02  0.1068379E+00
        -11   -1    0    0    0    0  0.00000000000E+00  0.00000000000E+00  0.18250000000E+03  0.18250000000E+03  0.00000000000E+00 0.  1.
         11   -1    0    0    0    0 -0.00000000000E+00 -0.00000000000E+00 -0.18250000000E+03  0.18250000000E+03  0.00000000000E+00 0. -1.
        -11    1    1    2    0    0  0.31909544195E+00  0.29821744286E+01  0.11016819339E+03  0.11020901062E+03  0.00000000000E+00 0.  1.
         11    1    1    2    0    0 -0.29787094829E+01 -0.89271600537E+00 -0.18237759841E+03  0.18240410646E+03  0.00000000000E+00 0. -1.
        -15    1    1    2    0    0  0.12798008589E+01 -0.10188157709E+01  0.44573301973E+02  0.44638692338E+02  0.17770000000E+01 0. -1.
         15    1    1    2    0    0  0.13798131821E+01 -0.10706426524E+01  0.27636103044E+02  0.27748190582E+02  0.17770000000E+01 0.  1.
</event>
<event>
 6    1  0.1097339E-002  0.2163312E+03  0.7546771E-02  0.1044320E+00
        -11   -1    0    0    0    0  0.00000000000E+00  0.00000000000E+00  0.18250000000E+03  0.18250000000E+03  0.00000000000E+00 0. -1.
         11   -1    0    0    0    0 -0.00000000000E+00 -0.00000000000E+00 -0.18250000000E+03  0.18250000000E+03  0.00000000000E+00 0.  1.
        -11    1    1    2    0    0 -0.56170817739E+01 -0.46245743758E+01  0.14068377474E+03  0.14087179551E+03  0.00000000000E+00 0. -1.
         11    1    1    2    0    0  0.71692996152E+00  0.24362025241E+01 -0.14864713663E+03  0.14866882760E+03  0.00000000000E+00 0.  1.
        -15    1    1    2    0    0 -0.32679289043E+02 -0.51568996482E+01 -0.77601917433E+01  0.34028045069E+02  0.17770000000E+01 0.  1.
         15    1    1    2    0    0  0.37579440855E+02  0.73452714999E+01  0.15723553632E+02  0.41431331818E+02  0.17770000000E+01 0. -1.
</event>
<event>
 6    1  0.1097339E-002  0.1833962E+03  0.7546771E-02  0.1067744E+00
        -11   -1    0    0    0    0  0.00000000000E+00  0.00000000000E+00  0.18250000000E+03  0.18250000000E+03  0.00000000000E+00 0. -1.
         11   -1    0    0    0    0 -0.00000000000E+00 -0.00000000000E+00 -0.18250000000E+03  0.18250000000E+03  0.00000000000E+00 0. -1.
        -11    1    1    2    0    0  0.36570500979E+01 -0.48956998691E+00  0.18156630049E+03  0.18160378622E+03  0.00000000000E+00 0. -1.
         11    1    1    2    0    0 -0.36963801185E+01  0.93921746444E+00 -0.16651657711E+03  0.16656024678E+03  0.00000000000E+00 0. -1.
        -15    1    1    2    0    0 -0.22559606119E+01 -0.22772034933E-01 -0.20992839389E+01  0.35573303057E+01  0.17770000000E+01 0.  1.
         15    1    1    2    0    0  0.22952906325E+01 -0.42687544260E+00 -0.12950439441E+02  0.13278636694E+02  0.17770000000E+01 0. -1.
</event>
<event>
 6    1  0.1097339E-002  0.1874487E+03  0.7546771E-02  0.1064583E+00
        -11   -1    0    0    0    0  0.00000000000E+00  0.00000000000E+00  0.18250000000E+03  0.18250000000E+03  0.00000000000E+00 0.  1.
         11   -1    0    0    0    0 -0.00000000000E+00 -0.00000000000E+00 -0.18250000000E+03  0.18250000000E+03  0.00000000000E+00 0.  1.
        -11    1    1    2    0    0  0.70696406321E+00 -0.14078401989E+01  0.65983744151E+02  0.66002547711E+02  0.00000000000E+00 0.  1.
         11    1    1    2    0    0 -0.10797192255E+01  0.16106476325E+02 -0.17681598862E+03  0.17755133963E+03  0.00000000000E+00 0.  1.
        -15    1    1    2    0    0 -0.68856510160E+01  0.64326121003E+01  0.91042800432E+02  0.91546381293E+02  0.17770000000E+01 0.  1.
         15    1    1    2    0    0  0.72584061783E+01 -0.21131248227E+02  0.19789444033E+02  0.29899731370E+02  0.17770000000E+01 0. -1.
</event>
<event>
 6    1  0.1097339E-002  0.1854150E+03  0.7546771E-02  0.1066158E+00
        -11   -1    0    0    0    0  0.00000000000E+00  0.00000000000E+00  0.18250000000E+03  0.18250000000E+03  0.00000000000E+00 0. -1.
         11   -1    0    0    0    0 -0.00000000000E+00 -0.00000000000E+00 -0.18250000000E+03  0.18250000000E+03  0.00000000000E+00 0. -1.
        -11    1    1    2    0    0  0.16680712045E+01  0.24927945838E+01  0.14918447220E+03  0.14921462138E+03  0.00000000000E+00 0. -1.
         11    1    1    2    0    0 -0.36092324949E+01 -0.28441959650E+00 -0.17954848605E+03  0.17958498349E+03  0.00000000000E+00 0. -1.
        -15    1    1    2    0    0  0.82537933113E+00  0.60242899135E+01  0.20795123218E+01  0.66674898199E+01  0.17770000000E+01 0.  1.
         15    1    1    2    0    0  0.11157819593E+01 -0.82326649008E+01  0.28284501524E+02  0.29532905313E+02  0.17770000000E+01 0. -1.
</event>
<event>
 6    1  0.1097339E-002  0.1788472E+03  0.7546771E-02  0.1071400E+00
        -11   -1    0    0    0    0  0.00000000000E+00  0.00000000000E+00  0.18250000000E+03  0.18250000000E+03  0.00000000000E+00 0. -1.
         11   -1    0    0    0    0 -0.00000000000E+00 -0.00000000000E+00 -0.18250000000E+03  0.18250000000E+03  0.00000000000E+00 0.  1.
        -11    1    1    2    0    0 -0.30985237083E+01 -0.20664624834E+01  0.17880090038E+03  0.17883968546E+03  0.00000000000E+00 0. -1.
         11    1    1    2    0    0 -0.17459995533E+01  0.21909212543E+01 -0.17886562332E+03  0.17888756204E+03  0.00000000000E+00 0.  1.
        -15    1    1    2    0    0  0.23431600324E+01  0.66750668970E+00  0.19446323000E+01  0.35882151414E+01  0.17770000000E+01 0.  1.
         15    1    1    2    0    0  0.25013632291E+01 -0.79196546064E+00 -0.18799093687E+01  0.36845373562E+01  0.17770000000E+01 0. -1.
</event>
<event>
 6    1  0.1097339E-002  0.1829286E+03  0.7546771E-02  0.1068114E+00
        -11   -1    0    0    0    0  0.00000000000E+00  0.00000000000E+00  0.18250000000E+03  0.18250000000E+03  0.00000000000E+00 0.  1.
         11   -1    0    0    0    0 -0.00000000000E+00 -0.00000000000E+00 -0.18250000000E+03  0.18250000000E+03  0.00000000000E+00 0. -1.
        -11    1    1    2    0    0 -0.29104638077E+01 -0.19105196481E+00  0.14358019256E+03  0.14360981511E+03  0.00000000000E+00 0.  1.
         11    1    1    2    0    0  0.37517029411E+01 -0.90509443037E+00 -0.18203047046E+03  0.18207137789E+03  0.00000000000E+00 0. -1.
        -15    1    1    2    0    0  0.20854752109E+01 -0.10037024944E+01  0.27513617540E+02  0.27667914715E+02  0.17770000000E+01 0.  1.
         15    1    1    2    0    0 -0.29267143443E+01  0.20998488896E+01  0.10936660364E+02  0.11650892289E+02  0.17770000000E+01 0.  1.
</event>
<event>
 6    1  0.1097339E-002  0.1832750E+03  0.7546771E-02  0.1067840E+00
        -11   -1    0    0    0    0  0.00000000000E+00  0.00000000000E+00  0.18250000000E+03  0.18250000000E+03  0.00000000000E+00 0. -1.
         11   -1    0    0    0    0 -0.00000000000E+00 -0.00000000000E+00 -0.18250000000E+03  0.18250000000E+03  0.00000000000E+00 0. -1.
        -11    1    1    2    0    0  0.31938877455E+01  0.15384662268E+01  0.18169042935E+03  0.18172501181E+03  0.00000000000E+00 0. -1.
         11    1    1    2    0    0 -0.22816371121E+01  0.29973786211E+01 -0.95052741546E+02  0.95127355803E+02  0.00000000000E+00 0. -1.
        -15    1    1    2    0    0  0.32422247869E+01 -0.12399230785E+01 -0.51084011485E+01  0.64267349489E+01  0.17770000000E+01 0. -1.
         15    1    1    2    0    0 -0.41544754203E+01 -0.32959217694E+01 -0.81529286660E+02  0.81720897441E+02  0.17770000000E+01 0.  1.
</event>
<event>
 6    1  0.1097339E-002  0.1833271E+03  0.7546771E-02  0.1067798E+00
        -11   -1    0    0    0    0  0.00000000000E+00  0.00000000000E+00  0.18250000000E+03  0.18250000000E+03  0.00000000000E+00 0. -1.
         11   -1    0    0    0    0 -0.00000000000E+00 -0.00000000000E+00 -0.18250000000E+03  0.18250000000E+03  0.00000000000E+00 0.  1.
        -11    1    1    2    0    0 -0.45720660716E+01 -0.29324859517E+01  0.18159172105E+03  0.18167293804E+03  0.00000000000E+00 0. -1.
         11    1    1    2    0    0 -0.33568474236E+01  0.27399681772E+01 -0.15053395770E+03  0.15059630896E+03  0.00000000000E+00 0.  1.
        -15    1    1    2    0    0  0.81417169510E+01  0.93207465814E+00 -0.24693631577E+02  0.26078525409E+02  0.17770000000E+01 0.  1.
         15    1    1    2    0    0 -0.21280345568E+00 -0.73955688367E+00 -0.63641317737E+01  0.66522275914E+01  0.17770000000E+01 0. -1.
</event>
<event>
 6    1  0.1097339E-002  0.1843827E+03  0.7546771E-02  0.1066966E+00
        -11   -1    0    0    0    0  0.00000000000E+00  0.00000000000E+00  0.18250000000E+03  0.18250000000E+03  0.00000000000E+00 0.  1.
         11   -1    0    0    0    0 -0.00000000000E+00 -0.00000000000E+00 -0.18250000000E+03  0.18250000000E+03  0.00000000000E+00 0. -1.
        -11    1    1    2    0    0 -0.63984336684E+00  0.42437685669E+01  0.18056632228E+03  0.18061731842E+03  0.00000000000E+00 0.  1.
         11    1    1    2    0    0 -0.27162337395E+01  0.64173676934E-01 -0.17619605173E+03  0.17621699887E+03  0.00000000000E+00 0. -1.
        -15    1    1    2    0    0  0.16391112843E+01 -0.21171074269E+01 -0.34981611590E+01  0.47501252777E+01  0.17770000000E+01 0.  1.
         15    1    1    2    0    0  0.17169658220E+01 -0.21908348169E+01 -0.87210938701E+00  0.34155574379E+01  0.17770000000E+01 0. -1.
</event>
<event>
 6    1  0.1097339E-002  0.1903522E+03  0.7546771E-02  0.1062371E+00
        -11   -1    0    0    0    0  0.00000000000E+00  0.00000000000E+00  0.18250000000E+03  0.18250000000E+03  0.00000000000E+00 0. -1.
         11   -1    0    0    0    0 -0.00000000000E+00 -0.00000000000E+00 -0.18250000000E+03  0.18250000000E+03  0.00000000000E+00 0.  1.
        -11    1    1    2    0    0 -0.35097378497E+01  0.65642541384E+00  0.17461125186E+03  0.17464775529E+03  0.00000000000E+00 0. -1.
         11    1    1    2    0    0  0.43277799710E+01  0.38368682341E+01 -0.15604434267E+03  0.15615149092E+03  0.00000000000E+00 0.  1.
        -15    1    1    2    0    0 -0.67171736092E+00 -0.65043862248E+01 -0.25699903486E+02  0.26578205593E+02  0.17770000000E+01 0. -1.
         15    1    1    2    0    0 -0.14632476032E+00  0.20110925768E+01  0.71329943005E+01  0.76225481946E+01  0.17770000000E+01 0.  1.
</event>
<event>
 6    1  0.1097339E-002  0.1837775E+03  0.7546771E-02  0.1067442E+00
        -11   -1    0    0    0    0  0.00000000000E+00  0.00000000000E+00  0.18250000000E+03  0.18250000000E+03  0.00000000000E+00 0.  1.
         11   -1    0    0    0    0 -0.00000000000E+00 -0.00000000000E+00 -0.18250000000E+03  0.18250000000E+03  0.00000000000E+00 0.  1.
        -11    1    1    2    0    0  0.10800435395E+01 -0.34502018449E+01  0.13045770270E+03  0.13050778744E+03  0.00000000000E+00 0.  1.
         11    1    1    2    0    0 -0.52176126286E+00 -0.38101582749E+01 -0.18118165654E+03  0.18122246607E+03  0.00000000000E+00 0.  1.
        -15    1    1    2    0    0  0.90257729906E-03  0.74248319248E+01  0.10394509562E+02  0.12896964292E+02  0.17770000000E+01 0.  1.
         15    1    1    2    0    0 -0.55918485391E+00 -0.16447180495E+00  0.40329444274E+02  0.40372782207E+02  0.17770000000E+01 0.  1.
</event>
<event>
 6    1  0.1097339E-002  0.1845203E+03  0.7546771E-02  0.1066858E+00
        -11   -1    0    0    0    0  0.00000000000E+00  0.00000000000E+00  0.18250000000E+03  0.18250000000E+03  0.00000000000E+00 0. -1.
         11   -1    0    0    0    0 -0.00000000000E+00 -0.00000000000E+00 -0.18250000000E+03  0.18250000000E+03  0.00000000000E+00 0.  1.
        -11    1    1    2    0    0  0.23543981277E+01  0.82074379039E+01  0.18027760864E+03  0.18047969804E+03  0.00000000000E+00 0. -1.
         11    1    1    2    0    0  0.51896871939E+01 -0.20167040200E+00 -0.16124103170E+03  0.16132465350E+03  0.00000000000E+00 0.  1.
        -15    1    1    2    0    0 -0.32589447102E+01 -0.91805789983E+00 -0.10477705721E+02  0.11153636048E+02  0.17770000000E+01 0.  1.
         15    1    1    2    0    0 -0.42851406113E+01 -0.70877096021E+01 -0.85588712189E+01  0.12042012415E+02  0.17770000000E+01 0.  1.
</event>
<event>
 6    1  0.1097339E-002  0.1840190E+03  0.7546771E-02  0.1067252E+00
        -11   -1    0    0    0    0  0.00000000000E+00  0.00000000000E+00  0.18250000000E+03  0.18250000000E+03  0.00000000000E+00 0. -1.
         11   -1    0    0    0    0 -0.00000000000E+00 -0.00000000000E+00 -0.18250000000E+03  0.18250000000E+03  0.00000000000E+00 0.  1.
        -11    1    1    2    0    0  0.14054076370E+02 -0.62338578122E+01  0.18032679443E+03  0.18098102341E+03  0.00000000000E+00 0. -1.
         11    1    1    2    0    0  0.13841378882E+01  0.27665817822E+00 -0.85415739663E+02  0.85427401691E+02  0.00000000000E+00 0.  1.
        -15    1    1    2    0    0 -0.68659246678E+00 -0.62879175618E+01 -0.36570092331E+02  0.37155601174E+02  0.17770000000E+01 0.  1.
         15    1    1    2    0    0 -0.14751621792E+02  0.12245117196E+02 -0.58340962435E+02  0.61435973724E+02  0.17770000000E+01 0.  1.
</event>
<event>
 6    1  0.1097339E-002  0.1836925E+03  0.7546771E-02  0.1067510E+00
        -11   -1    0    0    0    0  0.00000000000E+00  0.00000000000E+00  0.18250000000E+03  0.18250000000E+03  0.00000000000E+00 0.  1.
         11   -1    0    0    0    0 -0.00000000000E+00 -0.00000000000E+00 -0.18250000000E+03  0.18250000000E+03  0.00000000000E+00 0.  1.
        -11    1    1    2    0    0  0.55763968837E+00 -0.26517331810E+01  0.12374462560E+03  0.12377429061E+03  0.00000000000E+00 0.  1.
         11    1    1    2    0    0  0.24521578564E+01 -0.24223844941E+01 -0.18127471488E+03  0.18130748269E+03  0.00000000000E+00 0.  1.
        -15    1    1    2    0    0  0.46555134690E+01 -0.18836600415E+01  0.29658605489E+02  0.30133247242E+02  0.17770000000E+01 0.  1.
         15    1    1    2    0    0 -0.76653110137E+01  0.69577777167E+01  0.27871483786E+02  0.29784979455E+02  0.17770000000E+01 0. -1.
</event>
<event>
 6    1  0.1097339E-002  0.1840356E+03  0.7546771E-02  0.1067239E+00
        -11   -1    0    0    0    0  0.00000000000E+00  0.00000000000E+00  0.18250000000E+03  0.18250000000E+03  0.00000000000E+00 0. -1.
         11   -1    0    0    0    0 -0.00000000000E+00 -0.00000000000E+00 -0.18250000000E+03  0.18250000000E+03  0.00000000000E+00 0. -1.
        -11    1    1    2    0    0 -0.33898937563E+01  0.45844542891E+01  0.18087459770E+03  0.18096444041E+03  0.00000000000E+00 0. -1.
         11    1    1    2    0    0 -0.31525785881E+01 -0.40429280762E+01 -0.14526999275E+03  0.14536043070E+03  0.00000000000E+00 0. -1.
        -15    1    1    2    0    0  0.27817093389E+01  0.62890634526E+01 -0.16418820662E+02  0.17889260099E+02  0.17770000000E+01 0. -1.
         15    1    1    2    0    0  0.37607630055E+01 -0.68305896655E+01 -0.19185784284E+02  0.20785868785E+02  0.17770000000E+01 0.  1.
</event>
<event>
 6    1  0.1097339E-002  0.1890029E+03  0.7546771E-02  0.1063393E+00
        -11   -1    0    0    0    0  0.00000000000E+00  0.00000000000E+00  0.18250000000E+03  0.18250000000E+03  0.00000000000E+00 0. -1.
         11   -1    0    0    0    0 -0.00000000000E+00 -0.00000000000E+00 -0.18250000000E+03  0.18250000000E+03  0.00000000000E+00 0.  1.
        -11    1    1    2    0    0 -0.25185351816E+01 -0.31789814244E+01  0.16761880831E+03  0.16766786764E+03  0.00000000000E+00 0. -1.
         11    1    1    2    0    0 -0.28114592657E+01  0.17154859078E+00 -0.17597452532E+03  0.17599706615E+03  0.00000000000E+00 0.  1.
        -15    1    1    2    0    0 -0.15686702368E+00  0.72814265280E+01 -0.28558487219E+01  0.80223051842E+01  0.17770000000E+01 0. -1.
         15    1    1    2    0    0  0.54868614709E+01 -0.42739936944E+01  0.11211565733E+02  0.13312761024E+02  0.17770000000E+01 0.  1.
</event>
<event>
 6    1  0.1097339E-002  0.1827294E+03  0.7546771E-02  0.1068272E+00
        -11   -1    0    0    0    0  0.00000000000E+00  0.00000000000E+00  0.18250000000E+03  0.18250000000E+03  0.00000000000E+00 0. -1.
         11   -1    0    0    0    0 -0.00000000000E+00 -0.00000000000E+00 -0.18250000000E+03  0.18250000000E+03  0.00000000000E+00 0. -1.
        -11    1    1    2    0    0 -0.61269584439E+01  0.14848961226E+00  0.18216755842E+03  0.18227062575E+03  0.00000000000E+00 0. -1.
         11    1    1    2    0    0  0.10261507516E-01  0.12374936680E+01 -0.56950712455E+02  0.56964156669E+02  0.00000000000E+00 0. -1.
        -15    1    1    2    0    0  0.62556929086E+01 -0.93147967577E-02 -0.40528835460E+02  0.41047265600E+02  0.17770000000E+01 0. -1.
         15    1    1    2    0    0 -0.13899597222E+00 -0.13766684835E+01 -0.84688010506E+02  0.84717951985E+02  0.17770000000E+01 0. -1.
</event>
<event>
 6    1  0.1097339E-002  0.1860643E+03  0.7546771E-02  0.1065653E+00
        -11   -1    0    0    0    0  0.00000000000E+00  0.00000000000E+00  0.18250000000E+03  0.18250000000E+03  0.00000000000E+00 0. -1.
         11   -1    0    0    0    0 -0.00000000000E+00 -0.00000000000E+00 -0.18250000000E+03  0.18250000000E+03  0.00000000000E+00 0.  1.
        -11    1    1    2    0    0  0.10764287072E+02 -0.63210959227E+01  0.61608782389E+02  0.62860704715E+02  0.00000000000E+00 0. -1.
         11    1    1    2    0    0  0.96817685769E+00  0.51304481751E+01 -0.17885953843E+03  0.17893572408E+03  0.00000000000E+00 0.  1.
        -15    1    1    2    0    0 -0.47411129061E-01 -0.33446587240E+01 -0.12804072954E+01  0.39982698305E+01  0.17770000000E+01 0. -1.
         15    1    1    2    0    0 -0.11685052800E+02  0.45353064716E+01  0.11853116334E+03  0.11920530137E+03  0.17770000000E+01 0. -1.
</event>
<event>
 6    1  0.1097339E-002  0.1825837E+03  0.7546771E-02  0.1068388E+00
        -11   -1    0    0    0    0  0.00000000000E+00  0.00000000000E+00  0.18250000000E+03  0.18250000000E+03  0.00000000000E+00 0. -1.
         11   -1    0    0    0    0 -0.00000000000E+00 -0.00000000000E+00 -0.18250000000E+03  0.18250000000E+03  0.00000000000E+00 0.  1.
        -11    1    1    2    0    0  0.47878766371E+00 -0.15507684839E+01  0.94663065348E+02  0.94676977464E+02  0.00000000000E+00 0. -1.
         11    1    1    2    0    0  0.23011681804E+01 -0.10704330204E+01 -0.18239867368E+03  0.18241632976E+03  0.00000000000E+00 0.  1.
        -15    1    1    2    0    0 -0.98295429624E+00  0.30531318838E+00  0.32410614197E+02  0.32475607106E+02  0.17770000000E+01 0.  1.
         15    1    1    2    0    0 -0.17970015479E+01  0.23158883159E+01  0.55324994138E+02  0.55431085670E+02  0.17770000000E+01 0. -1.
</event>
<event>
 6    1  0.1097339E-002  0.1833906E+03  0.7546771E-02  0.1067748E+00
        -11   -1    0    0    0    0  0.00000000000E+00  0.00000000000E+00  0.18250000000E+03  0.18250000000E+03  0.00000000000E+00 0.  1.
         11   -1    0    0    0    0 -0.00000000000E+00 -0.00000000000E+00 -0.18250000000E+03  0.18250000000E+03  0.00000000000E+00 0.  1.
        -11    1    1    2    0    0 -0.33086973901E+01 -0.29729753130E+00  0.18157897773E+03  0.18160936379E+03  0.00000000000E+00 0.  1.
         11    1    1    2    0    0  0.47996911119E+00 -0.30117057621E+01 -0.15581634533E+03  0.15584618768E+03  0.00000000000E+00 0.  1.
        -15    1    1    2    0    0  0.25273867903E+01  0.53364173554E+00 -0.23995670983E+01  0.39481779024E+01  0.17770000000E+01 0. -1.
         15    1    1    2    0    0  0.30134148857E+00  0.27753615579E+01 -0.23363065298E+02  0.23596270629E+02  0.17770000000E+01 0. -1.
</event>
<event>
 6    1  0.1097339E-002  0.1862245E+03  0.7546771E-02  0.1065528E+00
        -11   -1    0    0    0    0  0.00000000000E+00  0.00000000000E+00  0.18250000000E+03  0.18250000000E+03  0.00000000000E+00 0. -1.
         11   -1    0    0    0    0 -0.00000000000E+00 -0.00000000000E+00 -0.18250000000E+03  0.18250000000E+03  0.00000000000E+00 0. -1.
        -11    1    1    2    0    0 -0.15862355442E+01  0.18643135533E+01  0.17875871670E+03  0.17877547540E+03  0.00000000000E+00 0. -1.
         11    1    1    2    0    0  0.12426090928E+01 -0.31894191699E+01 -0.17176433999E+03  0.17179844285E+03  0.00000000000E+00 0. -1.
        -15    1    1    2    0    0  0.37282468653E+01 -0.60010524771E+00 -0.88317679003E+01  0.97682037367E+01  0.17770000000E+01 0. -1.
         15    1    1    2    0    0 -0.33846204140E+01  0.19252108643E+01  0.18373911880E+01  0.46578780143E+01  0.17770000000E+01 0.  1.
</event>
<event>
 6    1  0.1097339E-002  0.1837793E+03  0.7546771E-02  0.1067441E+00
        -11   -1    0    0    0    0  0.00000000000E+00  0.00000000000E+00  0.18250000000E+03  0.18250000000E+03  0.00000000000E+00 0.  1.
         11   -1    0    0    0    0 -0.00000000000E+00 -0.00000000000E+00 -0.18250000000E+03  0.18250000000E+03  0.00000000000E+00 0. -1.
        -11    1    1    2    0    0  0.51984480948E+01  0.34150933746E+00  0.16113935088E+03  0.16122354324E+03  0.00000000000E+00 0.  1.
         11    1    1    2    0    0  0.90304775755E-01 -0.29061774160E+01 -0.18119732909E+03  0.18122065581E+03  0.00000000000E+00 0. -1.
        -15    1    1    2    0    0 -0.56787314770E+01  0.30076409008E+01  0.82833763389E+01  0.10633247272E+02  0.17770000000E+01 0. -1.
         15    1    1    2    0    0  0.38997860647E+00 -0.44297282232E+00  0.11774601865E+02  0.11922553683E+02  0.17770000000E+01 0.  1.
</event>
<event>
 6    1  0.1097339E-002  0.1844565E+03  0.7546771E-02  0.1066908E+00
        -11   -1    0    0    0    0  0.00000000000E+00  0.00000000000E+00  0.18250000000E+03  0.18250000000E+03  0.00000000000E+00 0.  1.
         11   -1    0    0    0    0 -0.00000000000E+00 -0.00000000000E+00 -0.18250000000E+03  0.18250000000E+03  0.00000000000E+00 0.  1.
        -11    1    1    2    0    0  0.12719869646E+01  0.23526986219E+01  0.16734683719E+03  0.16736820803E+03  0.00000000000E+00 0.  1.
         11    1    1    2    0    0 -0.20944113128E+01 -0.22791310783E+01 -0.18051698497E+03  0.18054352068E+03  0.00000000000E+00 0.  1.
        -15    1    1    2    0    0 -0.90801910871E+00  0.24450146389E+01  0.13180800071E+02  0.13553369131E+02  0.17770000000E+01 0.  1.
         15    1    1    2    0    0  0.17304434570E+01 -0.25185821825E+01 -0.10652293335E-01  0.35349021541E+01  0.17770000000E+01 0.  1.
</event>
<event>
 6    1  0.1097339E-002  0.1845296E+03  0.7546771E-02  0.1066851E+00
        -11   -1    0    0    0    0  0.00000000000E+00  0.00000000000E+00  0.18250000000E+03  0.18250000000E+03  0.00000000000E+00 0.  1.
         11   -1    0    0    0    0 -0.00000000000E+00 -0.00000000000E+00 -0.18250000000E+03  0.18250000000E+03  0.00000000000E+00 0.  1.
        -11    1    1    2    0    0  0.70743894347E+00 -0.33623177751E+01  0.18043765557E+03  0.18047036654E+03  0.00000000000E+00 0.  1.
         11    1    1    2    0    0  0.37336261912E+01 -0.14576126020E+01 -0.87529632357E+02  0.87621350934E+02  0.00000000000E+00 0.  1.
        -15    1    1    2    0    0  0.10989933773E+01 -0.12167409214E+01  0.10074409722E+01  0.26193341187E+01  0.17770000000E+01 0. -1.
         15    1    1    2    0    0 -0.55400585119E+01  0.60366712985E+01 -0.93915464189E+02  0.94288948406E+02  0.17770000000E+01 0.  1.
</event>
<event>
 6    1  0.1097339E-002  0.1850733E+03  0.7546771E-02  0.1066425E+00
        -11   -1    0    0    0    0  0.00000000000E+00  0.00000000000E+00  0.18250000000E+03  0.18250000000E+03  0.00000000000E+00 0.  1.
         11   -1    0    0    0    0 -0.00000000000E+00 -0.00000000000E+00 -0.18250000000E+03  0.18250000000E+03  0.00000000000E+00 0.  1.
        -11    1    1    2    0    0 -0.94059775786E+01  0.80167986534E+01  0.17950170871E+03  0.17992666535E+03  0.00000000000E+00 0.  1.
         11    1    1    2    0    0  0.12369290517E+01 -0.61173852461E+01 -0.38730783756E+02  0.39230421946E+02  0.00000000000E+00 0.  1.
        -15    1    1    2    0    0  0.45459674256E+01 -0.10562616323E+02 -0.11989996666E+02  0.16707855413E+02  0.17770000000E+01 0. -1.
         15    1    1    2    0    0  0.36230811013E+01  0.86632029160E+01 -0.12878092829E+03  0.12913505729E+03  0.17770000000E+01 0.  1.
</event>
<event>
 6    1  0.1097339E-002  0.1826816E+03  0.7546771E-02  0.1068310E+00
        -11   -1    0    0    0    0  0.00000000000E+00  0.00000000000E+00  0.18250000000E+03  0.18250000000E+03  0.00000000000E+00 0.  1.
         11   -1    0    0    0    0 -0.00000000000E+00 -0.00000000000E+00 -0.18250000000E+03  0.18250000000E+03  0.00000000000E+00 0.  1.
        -11    1    1    2    0    0  0.76853217000E+00  0.38215565200E+01  0.18227670506E+03  0.18231838126E+03  0.00000000000E+00 0.  1.
         11    1    1    2    0    0 -0.13312111161E+01 -0.33565069925E+00 -0.93809162555E+02  0.93819207862E+02  0.00000000000E+00 0.  1.
        -15    1    1    2    0    0 -0.86721727218E+00 -0.46791532407E+01 -0.73483423395E+02  0.73658792983E+02  0.17770000000E+01 0.  1.
         15    1    1    2    0    0  0.14298962183E+01  0.11932474199E+01 -0.14984119112E+02  0.15203617897E+02  0.17770000000E+01 0.  1.
</event>
<event>
 6    1  0.1097339E-002  0.1834260E+03  0.7546771E-02  0.1067720E+00
        -11   -1    0    0    0    0  0.00000000000E+00  0.00000000000E+00  0.18250000000E+03  0.18250000000E+03  0.00000000000E+00 0. -1.
         11   -1    0    0    0    0 -0.00000000000E+00 -0.00000000000E+00 -0.18250000000E+03  0.18250000000E+03  0.00000000000E+00 0. -1.
        -11    1    1    2    0    0 -0.15374154689E+01 -0.38239271191E+01  0.18152722325E+03  0.18157400378E+03  0.00000000000E+00 0. -1.
         11    1    1    2    0    0  0.39452964146E+01 -0.32884115412E+01 -0.10193949175E+03  0.10206879539E+03  0.00000000000E+00 0. -1.
        -15    1    1    2    0    0 -0.13906736330E+01  0.10632122010E+02 -0.36673744770E+02  0.38250454586E+02  0.17770000000E+01 0.  1.
         15    1    1    2    0    0 -0.10172073128E+01 -0.35197833496E+01 -0.42913986736E+02  0.43106746248E+02  0.17770000000E+01 0. -1.
</event>
<event>
 6    1  0.1097339E-002  0.1843496E+03  0.7546771E-02  0.1066992E+00
        -11   -1    0    0    0    0  0.00000000000E+00  0.00000000000E+00  0.18250000000E+03  0.18250000000E+03  0.00000000000E+00 0. -1.
         11   -1    0    0    0    0 -0.00000000000E+00 -0.00000000000E+00 -0.18250000000E+03  0.18250000000E+03  0.00000000000E+00 0. -1.
        -11    1    1    2    0    0 -0.49874797342E+00  0.21762506545E+01  0.15252434318E+03  0.15254068336E+03  0.00000000000E+00 0. -1.
         11    1    1    2    0    0  0.23634816137E+00 -0.72963015040E+01 -0.18050284391E+03  0.18065040420E+03  0.00000000000E+00 0. -1.
        -15    1    1    2    0    0 -0.10948211557E+00  0.74214729872E+01  0.61971690815E+01  0.98312197239E+01  0.17770000000E+01 0.  1.
         15    1    1    2    0    0  0.37188192761E+00 -0.23014221377E+01  0.21781331650E+02  0.21977692724E+02  0.17770000000E+01 0.  1.
</event>
<event>
 6    1  0.1097339E-002  0.1856324E+03  0.7546771E-02  0.1065988E+00
        -11   -1    0    0    0    0  0.00000000000E+00  0.00000000000E+00  0.18250000000E+03  0.18250000000E+03  0.00000000000E+00 0.  1.
         11   -1    0    0    0    0 -0.00000000000E+00 -0.00000000000E+00 -0.18250000000E+03  0.18250000000E+03  0.00000000000E+00 0.  1.
        -11    1    1    2    0    0 -0.44320678498E+01  0.23947378659E+00  0.17931271586E+03  0.17936764101E+03  0.00000000000E+00 0.  1.
         11    1    1    2    0    0  0.43011547147E+01  0.40856740965E+01 -0.17029518777E+03  0.17039848486E+03  0.00000000000E+00 0.  1.
        -15    1    1    2    0    0  0.17485400520E+01  0.27094636822E+01 -0.63420512580E+01  0.73333436383E+01  0.17770000000E+01 0.  1.
         15    1    1    2    0    0 -0.16176269169E+01 -0.70346115653E+01 -0.26754768264E+01  0.79005304863E+01  0.17770000000E+01 0. -1.
</event>
<event>
 6    1  0.1097339E-002  0.1827127E+03  0.7546771E-02  0.1068286E+00
        -11   -1    0    0    0    0  0.00000000000E+00  0.00000000000E+00  0.18250000000E+03  0.18250000000E+03  0.00000000000E+00 0.  1.
         11   -1    0    0    0    0 -0.00000000000E+00 -0.00000000000E+00 -0.18250000000E+03  0.18250000000E+03  0.00000000000E+00 0. -1.
        -11    1    1    2    0    0  0.24105765305E+01  0.20097682537E+01  0.18226030794E+03  0.18228732786E+03  0.00000000000E+00 0.  1.
         11    1    1    2    0    0  0.29049151846E+01 -0.16990909952E+01 -0.90267631782E+02  0.90330342576E+02  0.00000000000E+00 0. -1.
        -15    1    1    2    0    0 -0.16127979173E+01 -0.98696437141E+00 -0.11810086860E+02  0.12091778051E+02  0.17770000000E+01 0.  1.
         15    1    1    2    0    0 -0.37026937979E+01  0.67628711285E+00 -0.80182589302E+02  0.80290551510E+02  0.17770000000E+01 0. -1.
</event>
<event>
 6    1  0.1097339E-002  0.1826632E+03  0.7546771E-02  0.1068325E+00
        -11   -1    0    0    0    0  0.00000000000E+00  0.00000000000E+00  0.18250000000E+03  0.18250000000E+03  0.00000000000E+00 0.  1.
         11   -1    0    0    0    0 -0.00000000000E+00 -0.00000000000E+00 -0.18250000000E+03  0.18250000000E+03  0.00000000000E+00 0.  1.
        -11    1    1    2    0    0 -0.33671207350E-01  0.71105947463E+00  0.40449676923E+02  0.40455940263E+02  0.00000000000E+00 0.  1.
         11    1    1    2    0    0 -0.29958003244E+01  0.27920959969E+01 -0.18229082513E+03  0.18233681896E+03  0.00000000000E+00 0.  1.
        -15    1    1    2    0    0  0.64001693218E+00 -0.35587404045E+01  0.24558426425E+02  0.24886709152E+02  0.17770000000E+01 0. -1.
         15    1    1    2    0    0  0.23894545996E+01  0.55584932944E-01  0.11728272179E+03  0.11732053163E+03  0.17770000000E+01 0.  1.
</event>
<event>
 6    1  0.1097339E-002  0.1865604E+03  0.7546771E-02  0.1065268E+00
        -11   -1    0    0    0    0  0.00000000000E+00  0.00000000000E+00  0.18250000000E+03  0.18250000000E+03  0.00000000000E+00 0.  1.
         11   -1    0    0    0    0 -0.00000000000E+00 -0.00000000000E+00 -0.18250000000E+03  0.18250000000E+03  0.00000000000E+00 0.  1.
        -11    1    1    2    0    0  0.12367252407E+01 -0.26381183336E+01  0.16441307992E+03  0.16443889444E+03  0.00000000000E+00 0.  1.
         11    1    1    2    0    0  0.43608502582E+01  0.15336812917E+01 -0.17837968901E+03  0.17843957702E+03  0.00000000000E+00 0.  1.
        -15    1    1    2    0    0 -0.92658709297E+01 -0.24693422807E+01  0.35495434614E+01  0.10378391165E+02  0.17770000000E+01 0.  1.
         15    1    1    2    0    0  0.36682954309E+01  0.35737793225E+01  0.10417065635E+02  0.11743137377E+02  0.17770000000E+01 0. -1.
</event>
<event>
 6    1  0.1097339E-002  0.1891166E+03  0.7546771E-02  0.1063307E+00
        -11   -1    0    0    0    0  0.00000000000E+00  0.00000000000E+00  0.18250000000E+03  0.18250000000E+03  0.00000000000E+00 0. -1.
         11   -1    0    0    0    0 -0.00000000000E+00 -0.00000000000E+00 -0.18250000000E+03  0.18250000000E+03  0.00000000000E+00 0.  1.
        -11    1    1    2    0    0  0.43054944480E+01  0.21428002493E+01  0.17581759475E+03  0.17588335765E+03  0.00000000000E+00 0. -1.
         11    1    1    2    0    0  0.16787997143E+01  0.27126324477E+01 -0.16871933150E+03  0.16874948760E+03  0.00000000000E+00 0.  1.
        -15    1    1    2    0    0 -0.69171963390E+01 -0.74908357964E+01 -0.11097114223E+02  0.15174448893E+02  0.17770000000E+01 0. -1.
         15    1    1    2    0    0  0.93290217674E+00  0.26354030993E+01  0.39988509800E+01  0.51927058580E+01  0.17770000000E+01 0.  1.
</event>
<event>
 6    1  0.1097339E-002  0.1837667E+03  0.7546771E-02  0.1067451E+00
        -11   -1    0    0    0    0  0.00000000000E+00  0.00000000000E+00  0.18250000000E+03  0.18250000000E+03  0.00000000000E+00 0.  1.
         11   -1    0    0    0    0 -0.00000000000E+00 -0.00000000000E+00 -0.18250000000E+03  0.18250000000E+03  0.00000000000E+00 0. -1.
        -11    1    1    2    0    0  0.17276465049E+01  0.24522846229E+01  0.18120845003E+03  0.18123327736E+03  0.00000000000E+00 0.  1.
         11    1    1    2    0    0 -0.25488460582E+01 -0.30126020590E+01 -0.16316071332E+03  0.16320842735E+03  0.00000000000E+00 0. -1.
        -15    1    1    2    0    0 -0.30023113362E+01 -0.27572367102E+01 -0.90242407315E+01  0.10060361694E+02  0.17770000000E+01 0.  1.
         15    1    1    2    0    0  0.38235108895E+01  0.33175541462E+01 -0.90234959753E+01  0.10497933590E+02  0.17770000000E+01 0. -1.
</event>
<event>
 6    1  0.1127533E-002  0.1828999E+03  0.7546771E-02  0.1068137E+00
        -11   -1    0    0    0    0  0.00000000000E+00  0.00000000000E+00  0.18250000000E+03  0.18250000000E+03  0.00000000000E+00 0. -1.
         11   -1    0    0    0    0 -0.00000000000E+00 -0.00000000000E+00 -0.18250000000E+03  0.18250000000E+03  0.00000000000E+00 0. -1.
        -11    1    1    2    0    0 -0.27317460475E+01  0.47072978006E-01  0.18207965185E+03  0.18210014902E+03  0.00000000000E+00 0. -1.
         11    1    1    2    0    0  0.77400183716E+00 -0.25320030182E+01 -0.59077189743E+02  0.59136490140E+02  0.00000000000E+00 0. -1.
        -15    1    1    2    0    0  0.14279997048E+01  0.15053345283E+01 -0.12035468848E+03  0.12038568845E+03  0.17770000000E+01 0. -1.
         15    1    1    2    0    0  0.52974450561E+00  0.97959551182E+00 -0.26477736278E+01  0.33776723927E+01  0.17770000000E+01 0. -1.
</event>
<event>
 6    1  0.1097339E-002  0.1969884E+03  0.7546771E-02  0.1057473E+00
        -11   -1    0    0    0    0  0.00000000000E+00  0.00000000000E+00  0.18250000000E+03  0.18250000000E+03  0.00000000000E+00 0. -1.
         11   -1    0    0    0    0 -0.00000000000E+00 -0.00000000000E+00 -0.18250000000E+03  0.18250000000E+03  0.00000000000E+00 0.  1.
        -11    1    1    2    0    0 -0.28150954356E+01  0.20060694811E+01  0.16797600922E+03  0.16801157326E+03  0.00000000000E+00 0. -1.
         11    1    1    2    0    0  0.66773721082E+01 -0.10503293881E+02 -0.13873877433E+03  0.13929592235E+03  0.00000000000E+00 0.  1.
        -15    1    1    2    0    0 -0.14426969830E+02  0.19003473593E+01 -0.39066715627E+02  0.41726667462E+02  0.17770000000E+01 0.  1.
         15    1    1    2    0    0  0.10564693157E+02  0.65968770407E+01  0.98294807370E+01  0.15965836926E+02  0.17770000000E+01 0. -1.
</event>
<event>
 6    1  0.1097339E-002  0.1840080E+03  0.7546771E-02  0.1067261E+00
        -11   -1    0    0    0    0  0.00000000000E+00  0.00000000000E+00  0.18250000000E+03  0.18250000000E+03  0.00000000000E+00 0. -1.
         11   -1    0    0    0    0 -0.00000000000E+00 -0.00000000000E+00 -0.18250000000E+03  0.18250000000E+03  0.00000000000E+00 0.  1.
        -11    1    1    2    0    0 -0.60931164905E+00 -0.34689782027E+01  0.18095772199E+03  0.18099199490E+03  0.00000000000E+00 0. -1.
         11    1    1    2    0    0  0.33348973946E+00  0.42343358626E+01 -0.16022269813E+03  0.16027898743E+03  0.00000000000E+00 0.  1.
        -15    1    1    2    0    0  0.15952376966E+01  0.18381333382E+01 -0.32053161770E+00  0.30305093624E+01  0.17770000000E+01 0.  1.
         15    1    1    2    0    0 -0.13194157870E+01 -0.26034909981E+01 -0.20414492246E+02  0.20698508305E+02  0.17770000000E+01 0. -1.
</event>
<event>
 6    1  0.1097339E-002  0.1684112E+03  0.7546771E-02  0.1080258E+00
        -11   -1    0    0    0    0  0.00000000000E+00  0.00000000000E+00  0.18250000000E+03  0.18250000000E+03  0.00000000000E+00 0. -1.
         11   -1    0    0    0    0 -0.00000000000E+00 -0.00000000000E+00 -0.18250000000E+03  0.18250000000E+03  0.00000000000E+00 0.  1.
        -11    1    1    2    0    0 -0.11885583044E+01  0.21588865302E+01  0.29707671199E+02  0.29809716369E+02  0.00000000000E+00 0. -1.
         11    1    1    2    0    0 -0.22966493638E+01  0.29382134786E+01 -0.18074948000E+03  0.18078794820E+03  0.00000000000E+00 0.  1.
        -15    1    1    2    0    0 -0.68296325760E+00  0.12844301206E+02  0.76748976896E+02  0.77839615209E+02  0.17770000000E+01 0. -1.
         15    1    1    2    0    0  0.41681709258E+01 -0.17941401215E+02  0.74292831901E+02  0.76562720219E+02  0.17770000000E+01 0.  1.
</event>
<event>
 6    1  0.1097339E-002  0.1930633E+03  0.7546771E-02  0.1060344E+00
        -11   -1    0    0    0    0  0.00000000000E+00  0.00000000000E+00  0.18250000000E+03  0.18250000000E+03  0.00000000000E+00 0.  1.
         11   -1    0    0    0    0 -0.00000000000E+00 -0.00000000000E+00 -0.18250000000E+03  0.18250000000E+03  0.00000000000E+00 0. -1.
        -11    1    1    2    0    0 -0.36423951598E+01  0.11399287383E+01  0.16783521798E+03  0.16787860756E+03  0.00000000000E+00 0.  1.
         11    1    1    2    0    0  0.46721078255E+01 -0.73687290426E+00 -0.17187158043E+03  0.17193665034E+03  0.00000000000E+00 0. -1.
        -15    1    1    2    0    0 -0.48730537222E+01  0.43237259231E+01 -0.86654685932E+01  0.10985869714E+02  0.17770000000E+01 0.  1.
         15    1    1    2    0    0  0.38433410564E+01 -0.47267817572E+01  0.12701831036E+02  0.14198872383E+02  0.17770000000E+01 0. -1.
</event>
<event>
 6    1  0.1097339E-002  0.1953289E+03  0.7546771E-02  0.1058678E+00
        -11   -1    0    0    0    0  0.00000000000E+00  0.00000000000E+00  0.18250000000E+03  0.18250000000E+03  0.00000000000E+00 0.  1.
         11   -1    0    0    0    0 -0.00000000000E+00 -0.00000000000E+00 -0.18250000000E+03  0.18250000000E+03  0.00000000000E+00 0. -1.
        -11    1    1    2    0    0 -0.72125112118E+01  0.55690319992E+01  0.14183077570E+03  0.14212319786E+03  0.00000000000E+00 0.  1.
         11    1    1    2    0    0 -0.92313165082E+01 -0.21940223315E+00 -0.16941967859E+03  0.16967113142E+03  0.00000000000E+00 0. -1.
        -15    1    1    2    0    0  0.11840400657E+02 -0.11385676143E+02  0.37274417260E+02  0.40772154959E+02  0.17770000000E+01 0. -1.
         15    1    1    2    0    0  0.46034270634E+01  0.60360463772E+01 -0.96855143691E+01  0.12433515761E+02  0.17770000000E+01 0.  1.
</event>
<event>
 6    1  0.1097339E-002  0.1931311E+03  0.7546771E-02  0.1060294E+00
        -11   -1    0    0    0    0  0.00000000000E+00  0.00000000000E+00  0.18250000000E+03  0.18250000000E+03  0.00000000000E+00 0.  1.
         11   -1    0    0    0    0 -0.00000000000E+00 -0.00000000000E+00 -0.18250000000E+03  0.18250000000E+03  0.00000000000E+00 0.  1.
        -11    1    1    2    0    0  0.33796815734E+01 -0.12435815499E+01  0.13551332127E+03  0.13556116326E+03  0.00000000000E+00 0.  1.
         11    1    1    2    0    0 -0.16002784433E+02 -0.15027457898E+02 -0.17046111667E+03  0.17186886250E+03  0.00000000000E+00 0.  1.
        -15    1    1    2    0    0  0.20655934121E+02  0.24561909642E+02  0.17567451839E+02  0.36629607052E+02  0.17770000000E+01 0. -1.
         15    1    1    2    0    0 -0.80328312618E+01 -0.82908701943E+01  0.17380343565E+02  0.20940367191E+02  0.17770000000E+01 0.  1.
</event>
<event>
 6    1  0.1097339E-002  0.1873613E+03  0.7546771E-02  0.1064650E+00
        -11   -1    0    0    0    0  0.00000000000E+00  0.00000000000E+00  0.18250000000E+03  0.18250000000E+03  0.00000000000E+00 0. -1.
         11   -1    0    0    0    0 -0.00000000000E+00 -0.00000000000E+00 -0.18250000000E+03  0.18250000000E+03  0.00000000000E+00 0. -1.
        -11    1    1    2    0    0  0.56277001785E+01 -0.40741099029E+01  0.16234394922E+03  0.16249254514E+03  0.00000000000E+00 0. -1.
         11    1    1    2    0    0 -0.24710484990E+01 -0.89433549754E+00 -0.17761931012E+03  0.17763874928E+03  0.00000000000E+00 0. -1.
        -15    1    1    2    0    0 -0.47863593478E+01  0.36532597288E+01  0.19131055577E+02  0.20134809632E+02  0.17770000000E+01 0. -1.
         15    1    1    2    0    0  0.16297076684E+01  0.13151856716E+01 -0.38556946698E+01  0.47338959454E+01  0.17770000000E+01 0.  1.
</event>
<event>
 6    1  0.1097339E-002  0.1830120E+03  0.7546771E-02  0.1068048E+00
        -11   -1    0    0    0    0  0.00000000000E+00  0.00000000000E+00  0.18250000000E+03  0.18250000000E+03  0.00000000000E+00 0. -1.
         11   -1    0    0    0    0 -0.00000000000E+00 -0.00000000000E+00 -0.18250000000E+03  0.18250000000E+03  0.00000000000E+00 0.  1.
        -11    1    1    2    0    0 -0.31892807228E+01 -0.19600707322E+01  0.18194947047E+03  0.18198797540E+03  0.00000000000E+00 0. -1.
         11    1    1    2    0    0 -0.22058243357E+00  0.19864106706E+01 -0.13911086345E+03  0.13912521990E+03  0.00000000000E+00 0.  1.
        -15    1    1    2    0    0  0.62498750764E+00 -0.35066265205E+01 -0.11198833599E+02  0.11885227887E+02  0.17770000000E+01 0.  1.
         15    1    1    2    0    0  0.27848756487E+01  0.34802865820E+01 -0.31639773422E+02  0.32001576809E+02  0.17770000000E+01 0. -1.
</event>
<event>
 6    1  0.1097339E-002  0.1778178E+03  0.7546771E-02  0.1072244E+00
        -11   -1    0    0    0    0  0.00000000000E+00  0.00000000000E+00  0.18250000000E+03  0.18250000000E+03  0.00000000000E+00 0. -1.
         11   -1    0    0    0    0 -0.00000000000E+00 -0.00000000000E+00 -0.18250000000E+03  0.18250000000E+03  0.00000000000E+00 0. -1.
        -11    1    1    2    0    0  0.54268654145E+01  0.10051477172E+01  0.17845540098E+03  0.17854072737E+03  0.00000000000E+00 0. -1.
         11    1    1    2    0    0  0.87592218668E+00 -0.23790272595E+01 -0.17713776444E+03  0.17715590479E+03  0.00000000000E+00 0. -1.
        -15    1    1    2    0    0 -0.32537846686E-01  0.16984478998E+01  0.54381646582E+00  0.25177865931E+01  0.17770000000E+01 0.  1.
         15    1    1    2    0    0 -0.62702497545E+01 -0.32456835761E+00 -0.18614530045E+01  0.67855812493E+01  0.17770000000E+01 0. -1.
</event>
<event>
 6    1  0.1379159E-002  0.1850018E+03  0.7546771E-02  0.1066481E+00
        -11   -1    0    0    0    0  0.00000000000E+00  0.00000000000E+00  0.18250000000E+03  0.18250000000E+03  0.00000000000E+00 0. -1.
         11   -1    0    0    0    0 -0.00000000000E+00 -0.00000000000E+00 -0.18250000000E+03  0.18250000000E+03  0.00000000000E+00 0. -1.
        -11    1    1    2    0    0  0.23262536092E+01 -0.11224273638E+01  0.17997970829E+03  0.17999824081E+03  0.00000000000E+00 0. -1.
         11    1    1    2    0    0 -0.26828238820E-01  0.45966253598E+01 -0.17639435162E+03  0.17645423477E+03  0.00000000000E+00 0. -1.
        -15    1    1    2    0    0 -0.15942066654E+01  0.37226456428E+00  0.66364680676E+00  0.25056400144E+01  0.17770000000E+01 0.  1.
         15    1    1    2    0    0 -0.70521870504E+00 -0.38464625603E+01 -0.42490034717E+01  0.60418844041E+01  0.17770000000E+01 0.  1.
</event>
<event>
 6    1  0.1097339E-002  0.1836473E+03  0.7546771E-02  0.1067545E+00
        -11   -1    0    0    0    0  0.00000000000E+00  0.00000000000E+00  0.18250000000E+03  0.18250000000E+03  0.00000000000E+00 0.  1.
         11   -1    0    0    0    0 -0.00000000000E+00 -0.00000000000E+00 -0.18250000000E+03  0.18250000000E+03  0.00000000000E+00 0. -1.
        -11    1    1    2    0    0 -0.29207618844E+01 -0.51107232985E+01  0.14369506682E+03  0.14381558529E+03  0.00000000000E+00 0.  1.
         11    1    1    2    0    0  0.22347153332E+01  0.16141924422E+01 -0.18133177607E+03  0.18135272974E+03  0.00000000000E+00 0. -1.
        -15    1    1    2    0    0 -0.32659032805E+01  0.29128241048E+01  0.33437820229E+02  0.33769753022E+02  0.17770000000E+01 0.  1.
         15    1    1    2    0    0  0.39519498317E+01  0.58370675148E+00  0.41988890192E+01  0.60619319561E+01  0.17770000000E+01 0. -1.
</event>
<event>
 6    1  0.1097339E-002  0.1828565E+03  0.7546771E-02  0.1068171E+00
        -11   -1    0    0    0    0  0.00000000000E+00  0.00000000000E+00  0.18250000000E+03  0.18250000000E+03  0.00000000000E+00 0. -1.
         11   -1    0    0    0    0 -0.00000000000E+00 -0.00000000000E+00 -0.18250000000E+03  0.18250000000E+03  0.00000000000E+00 0. -1.
        -11    1    1    2    0    0  0.99036880450E+00 -0.95900879090E+00  0.51404038163E+02  0.51422521016E+02  0.00000000000E+00 0. -1.
         11    1    1    2    0    0 -0.99764324030E+01  0.16824361054E+01 -0.18186233301E+03  0.18214353670E+03  0.00000000000E+00 0. -1.
        -15    1    1    2    0    0  0.11174462419E+02  0.26095936558E+01  0.96594207228E+02  0.97289656122E+02  0.17770000000E+01 0.  1.
         15    1    1    2    0    0 -0.21883988201E+01 -0.33330209702E+01  0.33864087618E+02  0.34144286160E+02  0.17770000000E+01 0. -1.
</event>
<event>
 6    1  0.1097339E-002  0.1743316E+03  0.7546771E-02  0.1075149E+00
        -11   -1    0    0    0    0  0.00000000000E+00  0.00000000000E+00  0.18250000000E+03  0.18250000000E+03  0.00000000000E+00 0.  1.
         11   -1    0    0    0    0 -0.00000000000E+00 -0.00000000000E+00 -0.18250000000E+03  0.18250000000E+03  0.00000000000E+00 0. -1.
        -11    1    1    2    0    0  0.47489016641E+01 -0.64654669594E+01  0.17449777296E+03  0.17468207434E+03  0.00000000000E+00 0.  1.
         11    1    1    2    0    0 -0.32477256712E+01 -0.94597486931E-01 -0.17401607112E+03  0.17404640094E+03  0.00000000000E+00 0. -1.
        -15    1    1    2    0    0 -0.40545786787E+01  0.48596847025E+01  0.59892896013E+01  0.88930007645E+01  0.17770000000E+01 0.  1.
         15    1    1    2    0    0  0.25534026857E+01  0.17003797439E+01 -0.64709914393E+01  0.73785239551E+01  0.17770000000E+01 0. -1.
</event>
<event>
 6    1  0.1097339E-002  0.1826639E+03  0.7546771E-02  0.1068324E+00
        -11   -1    0    0    0    0  0.00000000000E+00  0.00000000000E+00  0.18250000000E+03  0.18250000000E+03  0.00000000000E+00 0.  1.
         11   -1    0    0    0    0 -0.00000000000E+00 -0.00000000000E+00 -0.18250000000E+03  0.18250000000E+03  0.00000000000E+00 0. -1.
        -11    1    1    2    0    0  0.14554153306E+01  0.57729739687E+00  0.23127548385E+02  0.23180487492E+02  0.00000000000E+00 0.  1.
         11    1    1    2    0    0  0.28937772284E+01 -0.10786644150E+01 -0.18230990634E+03  0.18233606175E+03  0.00000000000E+00 0. -1.
        -15    1    1    2    0    0 -0.67276191386E+00  0.70055359787E+00  0.82213453537E+01  0.84670911392E+01  0.17770000000E+01 0. -1.
         15    1    1    2    0    0 -0.36764306451E+01 -0.19918657978E+00  0.15096101260E+03  0.15101635962E+03  0.17770000000E+01 0.  1.
</event>
<event>
 6    1  0.1097339E-002  0.1843981E+03  0.7546771E-02  0.1066954E+00
        -11   -1    0    0    0    0  0.00000000000E+00  0.00000000000E+00  0.18250000000E+03  0.18250000000E+03  0.00000000000E+00 0.  1.
         11   -1    0    0    0    0 -0.00000000000E+00 -0.00000000000E+00 -0.18250000000E+03  0.18250000000E+03  0.00000000000E+00 0.  1.
        -11    1    1    2    0    0 -0.67864746265E+01 -0.44962089514E+01  0.18041832382E+03  0.18060189286E+03  0.00000000000E+00 0.  1.
         11    1    1    2    0    0 -0.66193265686E+01  0.36227360905E+01 -0.13002402530E+03  0.13024279963E+03  0.00000000000E+00 0.  1.
        -15    1    1    2    0    0  0.21482875452E+01 -0.16394524708E+01 -0.33301887138E+02  0.33458576774E+02  0.17770000000E+01 0.  1.
         15    1    1    2    0    0  0.11257513650E+02  0.25129253317E+01 -0.17092411385E+02  0.20696730739E+02  0.17770000000E+01 0.  1.
</event>
<event>
 6    1  0.1097339E-002  0.1842500E+03  0.7546771E-02  0.1067070E+00
        -11   -1    0    0    0    0  0.00000000000E+00  0.00000000000E+00  0.18250000000E+03  0.18250000000E+03  0.00000000000E+00 0. -1.
         11   -1    0    0    0    0 -0.00000000000E+00 -0.00000000000E+00 -0.18250000000E+03  0.18250000000E+03  0.00000000000E+00 0. -1.
        -11    1    1    2    0    0  0.13180440917E+01 -0.22729938190E+01  0.17481130136E+03  0.17483104652E+03  0.00000000000E+00 0. -1.
         11    1    1    2    0    0  0.49048291955E+01  0.19239884489E+01 -0.18067315794E+03  0.18074996288E+03  0.00000000000E+00 0. -1.
        -15    1    1    2    0    0 -0.31688552621E+01  0.43010800751E+00  0.40128966448E+01  0.54302582859E+01  0.17770000000E+01 0. -1.
         15    1    1    2    0    0 -0.30540180251E+01 -0.81102637412E-01  0.18489599259E+01  0.39887323228E+01  0.17770000000E+01 0.  1.
</event>
<event>
 6    1  0.1097339E-002  0.1836202E+03  0.7546771E-02  0.1067567E+00
        -11   -1    0    0    0    0  0.00000000000E+00  0.00000000000E+00  0.18250000000E+03  0.18250000000E+03  0.00000000000E+00 0. -1.
         11   -1    0    0    0    0 -0.00000000000E+00 -0.00000000000E+00 -0.18250000000E+03  0.18250000000E+03  0.00000000000E+00 0.  1.
        -11    1    1    2    0    0  0.37896852229E+01 -0.15003132923E+00  0.11574729654E+03  0.11580941619E+03  0.00000000000E+00 0. -1.
         11    1    1    2    0    0  0.53999417821E+01 -0.33250989895E+01 -0.18126893792E+03  0.18137983214E+03  0.00000000000E+00 0.  1.
        -15    1    1    2    0    0 -0.10783089697E+02  0.39910337008E+00  0.60374506583E+02  0.61356931809E+02  0.17770000000E+01 0. -1.
         15    1    1    2    0    0  0.15934626916E+01  0.30760269486E+01  0.51471347967E+01  0.64538198575E+01  0.17770000000E+01 0.  1.
</event>
<event>
 6    1  0.1097339E-002  0.1827969E+03  0.7546771E-02  0.1068219E+00
        -11   -1    0    0    0    0  0.00000000000E+00  0.00000000000E+00  0.18250000000E+03  0.18250000000E+03  0.00000000000E+00 0. -1.
         11   -1    0    0    0    0 -0.00000000000E+00 -0.00000000000E+00 -0.18250000000E+03  0.18250000000E+03  0.00000000000E+00 0.  1.
        -11    1    1    2    0    0 -0.41094024137E+01  0.11414455057E+01  0.18215318842E+03  0.18220311232E+03  0.00000000000E+00 0. -1.
         11    1    1    2    0    0  0.49870911755E+00 -0.15226824095E+00 -0.79848579136E+01  0.80018655513E+01  0.00000000000E+00 0.  1.
        -15    1    1    2    0    0  0.85642282945E+00  0.13188759827E+01 -0.16128362606E+03  0.16130108077E+03  0.17770000000E+01 0.  1.
         15    1    1    2    0    0  0.27542704667E+01 -0.23080532474E+01 -0.12884704453E+02  0.13493941361E+02  0.17770000000E+01 0. -1.
</event>
<event>
 6    1  0.1097339E-002  0.1838784E+03  0.7546771E-02  0.1067363E+00
        -11   -1    0    0    0    0  0.00000000000E+00  0.00000000000E+00  0.18250000000E+03  0.18250000000E+03  0.00000000000E+00 0. -1.
         11   -1    0    0    0    0 -0.00000000000E+00 -0.00000000000E+00 -0.18250000000E+03  0.18250000000E+03  0.00000000000E+00 0. -1.
        -11    1    1    2    0    0  0.37360228249E+01  0.20270896843E+01  0.18107166941E+03  0.18112155151E+03  0.00000000000E+00 0. -1.
         11    1    1    2    0    0  0.16009619888E+00  0.31549602337E+01 -0.35259296765E+02  0.35400528431E+02  0.00000000000E+00 0. -1.
        -15    1    1    2    0    0  0.82072644861E+01 -0.10101054974E+02 -0.98162286876E+02  0.99037279828E+02  0.17770000000E+01 0. -1.
         15    1    1    2    0    0 -0.12103383510E+02  0.49190050558E+01 -0.47650085771E+02  0.49440640228E+02  0.17770000000E+01 0.  1.
</event>
<event>
 6    1  0.1097339E-002  0.1851378E+03  0.7546771E-02  0.1066374E+00
        -11   -1    0    0    0    0  0.00000000000E+00  0.00000000000E+00  0.18250000000E+03  0.18250000000E+03  0.00000000000E+00 0. -1.
         11   -1    0    0    0    0 -0.00000000000E+00 -0.00000000000E+00 -0.18250000000E+03  0.18250000000E+03  0.00000000000E+00 0. -1.
        -11    1    1    2    0    0  0.31889966804E+01 -0.14448240180E+01  0.91540550166E+02  0.91607475355E+02  0.00000000000E+00 0. -1.
         11    1    1    2    0    0 -0.84795003995E+01  0.51717470749E+01 -0.17958771350E+03  0.17986215759E+03  0.00000000000E+00 0. -1.
        -15    1    1    2    0    0  0.69571507604E+01  0.11938010148E+02  0.26081585015E+02  0.29568984408E+02  0.17770000000E+01 0.  1.
         15    1    1    2    0    0 -0.16666470414E+01 -0.15664933205E+02  0.61965578316E+02  0.63961382644E+02  0.17770000000E+01 0. -1.
</event>
<event>
 6    1  0.1097339E-002  0.1837704E+03  0.7546771E-02  0.1067448E+00
        -11   -1    0    0    0    0  0.00000000000E+00  0.00000000000E+00  0.18250000000E+03  0.18250000000E+03  0.00000000000E+00 0.  1.
         11   -1    0    0    0    0 -0.00000000000E+00 -0.00000000000E+00 -0.18250000000E+03  0.18250000000E+03  0.00000000000E+00 0.  1.
        -11    1    1    2    0    0  0.69010165852E+00  0.26301498131E+01  0.18120920905E+03  0.18122960954E+03  0.00000000000E+00 0.  1.
         11    1    1    2    0    0  0.11275304665E+01 -0.25201950806E+01 -0.17442222190E+03  0.17444407184E+03  0.00000000000E+00 0.  1.
        -15    1    1    2    0    0 -0.63034510807E+00 -0.13891543782E+01 -0.63880769372E+01  0.68038474995E+01  0.17770000000E+01 0. -1.
         15    1    1    2    0    0 -0.11872870170E+01  0.12791996457E+01 -0.39891022167E+00  0.25224711216E+01  0.17770000000E+01 0.  1.
</event>
<event>
 6    1  0.1097339E-002  0.1841783E+03  0.7546771E-02  0.1067127E+00
        -11   -1    0    0    0    0  0.00000000000E+00  0.00000000000E+00  0.18250000000E+03  0.18250000000E+03  0.00000000000E+00 0. -1.
         11   -1    0    0    0    0 -0.00000000000E+00 -0.00000000000E+00 -0.18250000000E+03  0.18250000000E+03  0.00000000000E+00 0. -1.
        -11    1    1    2    0    0  0.22464685372E+01 -0.77103761217E+00  0.16484397999E+03  0.16486108959E+03  0.00000000000E+00 0. -1.
         11    1    1    2    0    0  0.91990813528E+00  0.34771225505E+01 -0.18078591186E+03  0.18082168714E+03  0.00000000000E+00 0. -1.
        -15    1    1    2    0    0  0.15726379543E+01  0.20489684262E+01  0.19375563755E+01  0.36855549724E+01  0.17770000000E+01 0.  1.
         15    1    1    2    0    0 -0.47390146268E+01 -0.47550533645E+01  0.14004375492E+02  0.15631668307E+02  0.17770000000E+01 0.  1.
</event>
<event>
 6    1  0.1097339E-002  0.1893429E+03  0.7546771E-02  0.1063135E+00
        -11   -1    0    0    0    0  0.00000000000E+00  0.00000000000E+00  0.18250000000E+03  0.18250000000E+03  0.00000000000E+00 0.  1.
         11   -1    0    0    0    0 -0.00000000000E+00 -0.00000000000E+00 -0.18250000000E+03  0.18250000000E+03  0.00000000000E+00 0. -1.
        -11    1    1    2    0    0  0.26180099510E+01  0.32457396922E+01  0.17115875299E+03  0.17120954275E+03  0.00000000000E+00 0.  1.
         11    1    1    2    0    0 -0.27660015906E+01  0.10489317510E+01 -0.17563220845E+03  0.17565711960E+03  0.00000000000E+00 0. -1.
        -15    1    1    2    0    0 -0.28350037683E+01  0.17545394678E+01  0.90392058989E+01  0.97969703171E+01  0.17770000000E+01 0. -1.
         15    1    1    2    0    0  0.29829954079E+01 -0.60492109110E+01 -0.45657504441E+01  0.83363673364E+01  0.17770000000E+01 0.  1.
</event>
<event>
 6    1  0.1097339E-002  0.1835956E+03  0.7546771E-02  0.1067586E+00
        -11   -1    0    0    0    0  0.00000000000E+00  0.00000000000E+00  0.18250000000E+03  0.18250000000E+03  0.00000000000E+00 0. -1.
         11   -1    0    0    0    0 -0.00000000000E+00 -0.00000000000E+00 -0.18250000000E+03  0.18250000000E+03  0.00000000000E+00 0. -1.
        -11    1    1    2    0    0  0.76681058782E+00 -0.23816351722E+01  0.18138718838E+03  0.18140444397E+03  0.00000000000E+00 0. -1.
         11    1    1    2    0    0  0.17034368008E+01 -0.51123421923E+01 -0.15080767672E+03  0.15090392008E+03  0.00000000000E+00 0. -1.
        -15    1    1    2    0    0 -0.27819763909E+01  0.58346538637E+01 -0.10463213568E+02  0.12426550025E+02  0.17770000000E+01 0. -1.
         15    1    1    2    0    0  0.31172900220E+00  0.16593235008E+01 -0.20116298093E+02  0.20265085921E+02  0.17770000000E+01 0.  1.
</event>
<event>
 6    1  0.1097339E-002  0.1828687E+03  0.7546771E-02  0.1068162E+00
        -11   -1    0    0    0    0  0.00000000000E+00  0.00000000000E+00  0.18250000000E+03  0.18250000000E+03  0.00000000000E+00 0. -1.
         11   -1    0    0    0    0 -0.00000000000E+00 -0.00000000000E+00 -0.18250000000E+03  0.18250000000E+03  0.00000000000E+00 0.  1.
        -11    1    1    2    0    0 -0.28342481480E+01  0.70974897525E+00  0.91507312378E+02  0.91553945435E+02  0.00000000000E+00 0. -1.
         11    1    1    2    0    0  0.25628865924E+01 -0.99633935025E+00 -0.18211054354E+03  0.18213130195E+03  0.00000000000E+00 0.  1.
        -15    1    1    2    0    0 -0.13413282807E+01  0.10118305997E+01  0.40911753100E+01  0.47663830245E+01  0.17770000000E+01 0.  1.
         15    1    1    2    0    0  0.16126898362E+01 -0.72524022471E+00  0.86512055855E+02  0.86548369593E+02  0.17770000000E+01 0. -1.
</event>
<event>
 6    1  0.1097339E-002  0.1853336E+03  0.7546771E-02  0.1066221E+00
        -11   -1    0    0    0    0  0.00000000000E+00  0.00000000000E+00  0.18250000000E+03  0.18250000000E+03  0.00000000000E+00 0. -1.
         11   -1    0    0    0    0 -0.00000000000E+00 -0.00000000000E+00 -0.18250000000E+03  0.18250000000E+03  0.00000000000E+00 0.  1.
        -11    1    1    2    0    0 -0.44396949986E+01 -0.26231299298E+01  0.15348440525E+03  0.15357100754E+03  0.00000000000E+00 0. -1.
         11    1    1    2    0    0 -0.55529032088E-01  0.25773032696E+01 -0.17964789380E+03  0.17966638896E+03  0.00000000000E+00 0.  1.
        -15    1    1    2    0    0  0.92079267023E+01 -0.14406969341E+01  0.67307340001E+01  0.11632799792E+02  0.17770000000E+01 0. -1.
         15    1    1    2    0    0 -0.47127026716E+01  0.14865235943E+01  0.19432754549E+02  0.20129803706E+02  0.17770000000E+01 0.  1.
</event>
<event>
 6    1  0.1097339E-002  0.1825921E+03  0.7546771E-02  0.1068382E+00
        -11   -1    0    0    0    0  0.00000000000E+00  0.00000000000E+00  0.18250000000E+03  0.18250000000E+03  0.00000000000E+00 0. -1.
         11   -1    0    0    0    0 -0.00000000000E+00 -0.00000000000E+00 -0.18250000000E+03  0.18250000000E+03  0.00000000000E+00 0. -1.
        -11    1    1    2    0    0 -0.16256525470E+01  0.92586620755E+00  0.97161550687E+02  0.97179560127E+02  0.00000000000E+00 0. -1.
         11    1    1    2    0    0  0.22393848027E+01  0.25477381697E+01 -0.18237640154E+03  0.18240794296E+03  0.00000000000E+00 0. -1.
        -15    1    1    2    0    0 -0.95778257400E+00 -0.12171650462E+01  0.20878329711E+02  0.21010978528E+02  0.17770000000E+01 0. -1.
         15    1    1    2    0    0  0.34405031833E+00 -0.22564393311E+01  0.64336521143E+02  0.64401518390E+02  0.17770000000E+01 0.  1.
</event>
<event>
 6    1  0.1097339E-002  0.1864594E+03  0.7546771E-02  0.1065346E+00
        -11   -1    0    0    0    0  0.00000000000E+00  0.00000000000E+00  0.18250000000E+03  0.18250000000E+03  0.00000000000E+00 0. -1.
         11   -1    0    0    0    0 -0.00000000000E+00 -0.00000000000E+00 -0.18250000000E+03  0.18250000000E+03  0.00000000000E+00 0. -1.
        -11    1    1    2    0    0 -0.12496908104E+02  0.27754871088E+01  0.16274634596E+03  0.16324904032E+03  0.00000000000E+00 0. -1.
         11    1    1    2    0    0 -0.65959435822E+00 -0.44411381999E+01 -0.17848412631E+03  0.17854058956E+03  0.00000000000E+00 0. -1.
        -15    1    1    2    0    0  0.33209876353E+01  0.18347899050E+00 -0.77665951484E+00  0.38501366749E+01  0.17770000000E+01 0. -1.
         15    1    1    2    0    0  0.98355148268E+01  0.14821721006E+01  0.16514439865E+02  0.19360233447E+02  0.17770000000E+01 0.  1.
</event>
<event>
 6    1  0.1097339E-002  0.1835033E+03  0.7546771E-02  0.1067659E+00
        -11   -1    0    0    0    0  0.00000000000E+00  0.00000000000E+00  0.18250000000E+03  0.18250000000E+03  0.00000000000E+00 0. -1.
         11   -1    0    0    0    0 -0.00000000000E+00 -0.00000000000E+00 -0.18250000000E+03  0.18250000000E+03  0.00000000000E+00 0. -1.
        -11    1    1    2    0    0  0.59387172352E+00 -0.21081536712E+01  0.13736420250E+03  0.13738166226E+03  0.00000000000E+00 0. -1.
         11    1    1    2    0    0  0.27853254389E+01  0.39194537966E+00 -0.18147493610E+03  0.18149673300E+03  0.00000000000E+00 0. -1.
        -15    1    1    2    0    0 -0.55996220412E+01  0.16012414826E+01  0.42326674577E+02  0.42762423353E+02  0.17770000000E+01 0.  1.
         15    1    1    2    0    0  0.22204248788E+01  0.11496680895E+00  0.17840590161E+01  0.33591813857E+01  0.17770000000E+01 0.  1.
</event>
<event>
 6    1  0.1097339E-002  0.1837683E+03  0.7546771E-02  0.1067450E+00
        -11   -1    0    0    0    0  0.00000000000E+00  0.00000000000E+00  0.18250000000E+03  0.18250000000E+03  0.00000000000E+00 0.  1.
         11   -1    0    0    0    0 -0.00000000000E+00 -0.00000000000E+00 -0.18250000000E+03  0.18250000000E+03  0.00000000000E+00 0.  1.
        -11    1    1    2    0    0 -0.23033138341E+01  0.99805834393E+00  0.16204703577E+03  0.16206647765E+03  0.00000000000E+00 0.  1.
         11    1    1    2    0    0 -0.26213353751E+01 -0.20570816203E+01 -0.18120108213E+03  0.18123171673E+03  0.00000000000E+00 0.  1.
        -15    1    1    2    0    0 -0.15207184908E+01 -0.15569056023E+01  0.35658833847E+01  0.45398009974E+01  0.17770000000E+01 0. -1.
         15    1    1    2    0    0  0.64453677000E+01  0.26159288786E+01  0.15588162972E+02  0.17162004619E+02  0.17770000000E+01 0. -1.
</event>
<event>
 6    1  0.1247588E-002  0.1835324E+03  0.7546771E-02  0.1067636E+00
        -11   -1    0    0    0    0  0.00000000000E+00  0.00000000000E+00  0.18250000000E+03  0.18250000000E+03  0.00000000000E+00 0. -1.
         11   -1    0    0    0    0 -0.00000000000E+00 -0.00000000000E+00 -0.18250000000E+03  0.18250000000E+03  0.00000000000E+00 0.  1.
        -11    1    1    2    0    0 -0.13604422468E+01  0.26631801299E+01  0.18144297092E+03  0.18146761427E+03  0.00000000000E+00 0. -1.
         11    1    1    2    0    0 -0.45922080712E+01  0.17858632534E+01 -0.14525928407E+03  0.14534282676E+03  0.00000000000E+00 0.  1.
        -15    1    1    2    0    0 -0.41019794976E+00 -0.14486457540E+01 -0.15352204578E+01  0.27895282276E+01  0.17770000000E+01 0. -1.
         15    1    1    2    0    0  0.63628482678E+01 -0.30003976294E+01 -0.34648466398E+02  0.35400030745E+02  0.17770000000E+01 0.  1.
</event>
<event>
 6    1  0.1097339E-002  0.1827196E+03  0.7546771E-02  0.1068280E+00
        -11   -1    0    0    0    0  0.00000000000E+00  0.00000000000E+00  0.18250000000E+03  0.18250000000E+03  0.00000000000E+00 0.  1.
         11   -1    0    0    0    0 -0.00000000000E+00 -0.00000000000E+00 -0.18250000000E+03  0.18250000000E+03  0.00000000000E+00 0. -1.
        -11    1    1    2    0    0 -0.10138457408E+01 -0.28255706646E+01  0.56247600869E+02  0.56327651614E+02  0.00000000000E+00 0.  1.
         11    1    1    2    0    0 -0.15448590614E+01 -0.23259652223E+01 -0.18225904450E+03  0.18228043232E+03  0.00000000000E+00 0. -1.
        -15    1    1    2    0    0  0.15813163493E+01  0.72463222533E+00  0.11005115450E+02  0.11282550613E+02  0.17770000000E+01 0. -1.
         15    1    1    2    0    0  0.97738845293E+00  0.44269036616E+01  0.11500632818E+03  0.11510936545E+03  0.17770000000E+01 0.  1.
</event>
<event>
 6    1  0.1097339E-002  0.1832539E+03  0.7546771E-02  0.1067856E+00
        -11   -1    0    0    0    0  0.00000000000E+00  0.00000000000E+00  0.18250000000E+03  0.18250000000E+03  0.00000000000E+00 0.  1.
         11   -1    0    0    0    0 -0.00000000000E+00 -0.00000000000E+00 -0.18250000000E+03  0.18250000000E+03  0.00000000000E+00 0.  1.
        -11    1    1    2    0    0  0.10102953922E+01 -0.17857892896E+01  0.14366553629E+03  0.14368018673E+03  0.00000000000E+00 0.  1.
         11    1    1    2    0    0  0.24113858022E+01 -0.31499150519E+01 -0.18170276815E+03  0.18174606653E+03  0.00000000000E+00 0.  1.
        -15    1    1    2    0    0 -0.14831247756E+01  0.70488641679E+01  0.28781670178E+02  0.29722523654E+02  0.17770000000E+01 0. -1.
         15    1    1    2    0    0 -0.19385564188E+01 -0.21131598264E+01  0.92555616778E+01  0.98512230922E+01  0.17770000000E+01 0.  1.
</event>
<event>
 6    1  0.1097339E-002  0.2009217E+03  0.7546771E-02  0.1054669E+00
        -11   -1    0    0    0    0  0.00000000000E+00  0.00000000000E+00  0.18250000000E+03  0.18250000000E+03  0.00000000000E+00 0. -1.
         11   -1    0    0    0    0 -0.00000000000E+00 -0.00000000000E+00 -0.18250000000E+03  0.18250000000E+03  0.00000000000E+00 0.  1.
        -11    1    1    2    0    0 -0.70757971969E+01 -0.67301862465E+00  0.12878018600E+03  0.12897618449E+03  0.00000000000E+00 0. -1.
         11    1    1    2    0    0 -0.20996904489E+01 -0.19114468704E+01 -0.16405373553E+03  0.16407830591E+03  0.00000000000E+00 0.  1.
        -15    1    1    2    0    0  0.11211752880E+02 -0.23108424610E+01  0.52536988937E+02  0.53799036525E+02  0.17770000000E+01 0. -1.
         15    1    1    2    0    0 -0.20362652337E+01  0.48953079560E+01 -0.17263439403E+02  0.18146473077E+02  0.17770000000E+01 0. -1.
</event>
<event>
 6    1  0.1097339E-002  0.1926973E+03  0.7546771E-02  0.1060616E+00
        -11   -1    0    0    0    0  0.00000000000E+00  0.00000000000E+00  0.18250000000E+03  0.18250000000E+03  0.00000000000E+00 0.  1.
         11   -1    0    0    0    0 -0.00000000000E+00 -0.00000000000E+00 -0.18250000000E+03  0.18250000000E+03  0.00000000000E+00 0.  1.
        -11    1    1    2    0    0 -0.31078477946E+01 -0.46187343148E+01  0.17221274239E+03  0.17230269896E+03  0.00000000000E+00 0.  1.
         11    1    1    2    0    0 -0.64503549598E+01  0.24426890101E+02 -0.11088331759E+03  0.11372506390E+03  0.00000000000E+00 0.  1.
        -15    1    1    2    0    0 -0.90504164301E+00  0.67780608671E+01  0.36603496389E+01  0.79572041555E+01  0.17770000000E+01 0. -1.
         15    1    1    2    0    0  0.10463244397E+02 -0.26586216653E+02 -0.64989774442E+02  0.71015032988E+02  0.17770000000E+01 0.  1.
</event>
<event>
 6    1  0.1097339E-002  0.1840650E+03  0.7546771E-02  0.1067216E+00
        -11   -1    0    0    0    0  0.00000000000E+00  0.00000000000E+00  0.18250000000E+03  0.18250000000E+03  0.00000000000E+00 0.  1.
         11   -1    0    0    0    0 -0.00000000000E+00 -0.00000000000E+00 -0.18250000000E+03  0.18250000000E+03  0.00000000000E+00 0. -1.
        -11    1    1    2    0    0 -0.37308268668E+01 -0.36825738851E+01  0.18085901081E+03  0.18093496680E+03  0.00000000000E+00 0.  1.
         11    1    1    2    0    0  0.54423897559E+01  0.43765467437E+01 -0.11023192744E+03  0.11045293837E+03  0.00000000000E+00 0. -1.
        -15    1    1    2    0    0  0.79899991306E+00 -0.10233065221E+02 -0.42313786868E+02  0.43577153565E+02  0.17770000000E+01 0. -1.
         15    1    1    2    0    0 -0.25105628022E+01  0.95390923628E+01 -0.28313296506E+02  0.30034941264E+02  0.17770000000E+01 0.  1.
</event>
<event>
 6    1  0.1097339E-002  0.1835658E+03  0.7546771E-02  0.1067610E+00
        -11   -1    0    0    0    0  0.00000000000E+00  0.00000000000E+00  0.18250000000E+03  0.18250000000E+03  0.00000000000E+00 0. -1.
         11   -1    0    0    0    0 -0.00000000000E+00 -0.00000000000E+00 -0.18250000000E+03  0.18250000000E+03  0.00000000000E+00 0. -1.
        -11    1    1    2    0    0  0.54828757019E+01  0.42773354971E+01  0.13466775385E+03  0.13484717814E+03  0.00000000000E+00 0. -1.
         11    1    1    2    0    0  0.16164093720E+01  0.25751299712E+01 -0.18140873640E+03  0.18143421319E+03  0.00000000000E+00 0. -1.
        -15    1    1    2    0    0  0.16505621317E+01 -0.83808174327E+00  0.51075914606E+01  0.57159387582E+01  0.17770000000E+01 0.  1.
         15    1    1    2    0    0 -0.87498472056E+01 -0.60143837250E+01  0.41633391081E+02  0.43002669912E+02  0.17770000000E+01 0. -1.
</event>
<event>
 6    1  0.1097339E-002  0.1848198E+03  0.7546771E-02  0.1066623E+00
        -11   -1    0    0    0    0  0.00000000000E+00  0.00000000000E+00  0.18250000000E+03  0.18250000000E+03  0.00000000000E+00 0. -1.
         11   -1    0    0    0    0 -0.00000000000E+00 -0.00000000000E+00 -0.18250000000E+03  0.18250000000E+03  0.00000000000E+00 0. -1.
        -11    1    1    2    0    0 -0.56514950964E+00 -0.44835152998E+01  0.18012347728E+03  0.18018015531E+03  0.00000000000E+00 0. -1.
         11    1    1    2    0    0 -0.41949645135E+01 -0.27229115213E+01 -0.14491210076E+03  0.14499837558E+03  0.00000000000E+00 0. -1.
        -15    1    1    2    0    0 -0.40522546389E+01  0.13759005589E+01 -0.23481550212E+02  0.23934385294E+02  0.17770000000E+01 0.  1.
         15    1    1    2    0    0  0.88123686621E+01  0.58305262623E+01 -0.11729826307E+02  0.15887083814E+02  0.17770000000E+01 0. -1.
</event>
<event>
 6    1  0.1097339E-002  0.1830049E+03  0.7546771E-02  0.1068054E+00
        -11   -1    0    0    0    0  0.00000000000E+00  0.00000000000E+00  0.18250000000E+03  0.18250000000E+03  0.00000000000E+00 0. -1.
         11   -1    0    0    0    0 -0.00000000000E+00 -0.00000000000E+00 -0.18250000000E+03  0.18250000000E+03  0.00000000000E+00 0. -1.
        -11    1    1    2    0    0  0.33121230971E+01  0.97517048814E+00  0.18196239293E+03  0.18199514707E+03  0.00000000000E+00 0. -1.
         11    1    1    2    0    0  0.69958584846E+00  0.22718414048E+01 -0.14684881513E+03  0.14686805367E+03  0.00000000000E+00 0. -1.
        -15    1    1    2    0    0 -0.16976645440E+01 -0.46489536115E+01 -0.19935261528E+02  0.20617158286E+02  0.17770000000E+01 0.  1.
         15    1    1    2    0    0 -0.23140444015E+01  0.14019417186E+01 -0.15178316275E+02  0.15519640975E+02  0.17770000000E+01 0. -1.
</event>
<event>
 6    1  0.1097339E-002  0.2005668E+03  0.7546771E-02  0.1054919E+00
        -11   -1    0    0    0    0  0.00000000000E+00  0.00000000000E+00  0.18250000000E+03  0.18250000000E+03  0.00000000000E+00 0. -1.
         11   -1    0    0    0    0 -0.00000000000E+00 -0.00000000000E+00 -0.18250000000E+03  0.18250000000E+03  0.00000000000E+00 0. -1.
        -11    1    1    2    0    0 -0.34574977259E+01 -0.64541339632E+01  0.11789436534E+03  0.11812151165E+03  0.00000000000E+00 0. -1.
         11    1    1    2    0    0 -0.23634849341E+01 -0.15692586296E+01 -0.16440869595E+03  0.16443317164E+03  0.00000000000E+00 0. -1.
        -15    1    1    2    0    0  0.17240151376E+02  0.12460238334E+02  0.60270786836E+02  0.63939079080E+02  0.17770000000E+01 0.  1.
         15    1    1    2    0    0 -0.11419168716E+02 -0.44368457409E+01 -0.13756456226E+02  0.18506237629E+02  0.17770000000E+01 0. -1.
</event>
<event>
 6    1  0.1097339E-002  0.1847918E+03  0.7546771E-02  0.1066645E+00
        -11   -1    0    0    0    0  0.00000000000E+00  0.00000000000E+00  0.18250000000E+03  0.18250000000E+03  0.00000000000E+00 0. -1.
         11   -1    0    0    0    0 -0.00000000000E+00 -0.00000000000E+00 -0.18250000000E+03  0.18250000000E+03  0.00000000000E+00 0. -1.
        -11    1    1    2    0    0 -0.16382766953E+01  0.25016069464E+01  0.18018342669E+03  0.18020823855E+03  0.00000000000E+00 0. -1.
         11    1    1    2    0    0 -0.45473371220E+01 -0.61830601287E+00 -0.13134416479E+03  0.13142431359E+03  0.00000000000E+00 0. -1.
        -15    1    1    2    0    0 -0.62430817477E+00 -0.14695587090E+01 -0.45506723640E+02  0.45569386533E+02  0.17770000000E+01 0.  1.
         15    1    1    2    0    0  0.68099219920E+01 -0.41374222452E+00 -0.33325382611E+01  0.77980613249E+01  0.17770000000E+01 0. -1.
</event>
<event>
 6    1  0.1097339E-002  0.1893041E+03  0.7546771E-02  0.1063164E+00
        -11   -1    0    0    0    0  0.00000000000E+00  0.00000000000E+00  0.18250000000E+03  0.18250000000E+03  0.00000000000E+00 0.  1.
         11   -1    0    0    0    0 -0.00000000000E+00 -0.00000000000E+00 -0.18250000000E+03  0.18250000000E+03  0.00000000000E+00 0. -1.
        -11    1    1    2    0    0  0.32716414310E+01 -0.17777871300E+01  0.17344168461E+03  0.17348164781E+03  0.00000000000E+00 0.  1.
         11    1    1    2    0    0 -0.82402650102E+00  0.35643403035E+01 -0.17565783237E+03  0.17569592372E+03  0.00000000000E+00 0. -1.
        -15    1    1    2    0    0  0.99602077968E+00 -0.18899840104E+01 -0.60691850044E+01  0.66750904542E+01  0.17770000000E+01 0.  1.
         15    1    1    2    0    0 -0.34436357097E+01  0.10343083694E+00  0.82853327571E+01  0.91473380136E+01  0.17770000000E+01 0. -1.
</event>
<event>
 6    1  0.1097339E-002  0.1891003E+03  0.7546771E-02  0.1063319E+00
        -11   -1    0    0    0    0  0.00000000000E+00  0.00000000000E+00  0.18250000000E+03  0.18250000000E+03  0.00000000000E+00 0. -1.
         11   -1    0    0    0    0 -0.00000000000E+00 -0.00000000000E+00 -0.18250000000E+03  0.18250000000E+03  0.00000000000E+00 0.  1.
        -11    1    1    2    0    0  0.23927400109E+01  0.17697150564E+01  0.17587455919E+03  0.17589973754E+03  0.00000000000E+00 0. -1.
         11    1    1    2    0    0 -0.13102644500E+01 -0.35124115829E+01 -0.17408843816E+03  0.17412879753E+03  0.00000000000E+00 0.  1.
        -15    1    1    2    0    0 -0.62655246336E+00  0.63436444643E+01  0.36987260829E+01  0.75810749050E+01  0.17770000000E+01 0. -1.
         15    1    1    2    0    0 -0.45592309750E+00 -0.46009479378E+01 -0.54848471172E+01  0.73903900233E+01  0.17770000000E+01 0.  1.
</event>
<event>
 6    1  0.1097339E-002  0.1833642E+03  0.7546771E-02  0.1067769E+00
        -11   -1    0    0    0    0  0.00000000000E+00  0.00000000000E+00  0.18250000000E+03  0.18250000000E+03  0.00000000000E+00 0. -1.
         11   -1    0    0    0    0 -0.00000000000E+00 -0.00000000000E+00 -0.18250000000E+03  0.18250000000E+03  0.00000000000E+00 0. -1.
        -11    1    1    2    0    0  0.65575779235E+01  0.20963441946E+01  0.10414629009E+03  0.10437358970E+03  0.00000000000E+00 0. -1.
         11    1    1    2    0    0 -0.15726574957E+01 -0.40434594550E+01 -0.18158398116E+03  0.18163580327E+03  0.00000000000E+00 0. -1.
        -15    1    1    2    0    0 -0.76405731549E+01  0.41420154982E+01  0.27339633001E+02  0.28742788872E+02  0.17770000000E+01 0.  1.
         15    1    1    2    0    0  0.26556527271E+01 -0.21949002378E+01  0.50098058068E+02  0.50247818158E+02  0.17770000000E+01 0. -1.
</event>
<event>
 6    1  0.1097339E-002  0.1836522E+03  0.7546771E-02  0.1067541E+00
        -11   -1    0    0    0    0  0.00000000000E+00  0.00000000000E+00  0.18250000000E+03  0.18250000000E+03  0.00000000000E+00 0.  1.
         11   -1    0    0    0    0 -0.00000000000E+00 -0.00000000000E+00 -0.18250000000E+03  0.18250000000E+03  0.00000000000E+00 0. -1.
        -11    1    1    2    0    0  0.74133815440E-01  0.29135582957E+01  0.18132437209E+03  0.18134779357E+03  0.00000000000E+00 0.  1.
         11    1    1    2    0    0 -0.32430085271E+01  0.17064663763E+01 -0.16310395461E+03  0.16314511682E+03  0.00000000000E+00 0. -1.
        -15    1    1    2    0    0  0.46517819997E+01 -0.24633979176E+01 -0.14986620342E+02  0.15983238825E+02  0.17770000000E+01 0. -1.
         15    1    1    2    0    0 -0.14829072881E+01 -0.21566267544E+01 -0.32337971409E+01  0.45238507857E+01  0.17770000000E+01 0.  1.
</event>
<event>
 6    1  0.1097339E-002  0.1831873E+03  0.7546771E-02  0.1067909E+00
        -11   -1    0    0    0    0  0.00000000000E+00  0.00000000000E+00  0.18250000000E+03  0.18250000000E+03  0.00000000000E+00 0. -1.
         11   -1    0    0    0    0 -0.00000000000E+00 -0.00000000000E+00 -0.18250000000E+03  0.18250000000E+03  0.00000000000E+00 0. -1.
        -11    1    1    2    0    0 -0.39447757543E+01 -0.36551563432E+01  0.18173312333E+03  0.18181267705E+03  0.00000000000E+00 0. -1.
         11    1    1    2    0    0 -0.10486662974E+01 -0.14493730388E+01 -0.12794870038E+03  0.12796120628E+03  0.00000000000E+00 0. -1.
        -15    1    1    2    0    0 -0.24983114190E+01  0.44802714092E+00 -0.82836542628E+01  0.88441475118E+01  0.17770000000E+01 0. -1.
         15    1    1    2    0    0  0.74917534707E+01  0.46565022411E+01 -0.45500768680E+02  0.46381969154E+02  0.17770000000E+01 0. -1.
</event>
<event>
 6    1  0.1097339E-002  0.1682719E+03  0.7546771E-02  0.1080380E+00
        -11   -1    0    0    0    0  0.00000000000E+00  0.00000000000E+00  0.18250000000E+03  0.18250000000E+03  0.00000000000E+00 0. -1.
         11   -1    0    0    0    0 -0.00000000000E+00 -0.00000000000E+00 -0.18250000000E+03  0.18250000000E+03  0.00000000000E+00 0.  1.
        -11    1    1    2    0    0 -0.79415121798E+01  0.68156044143E+01  0.16945818438E+03  0.16978102466E+03  0.00000000000E+00 0. -1.
         11    1    1    2    0    0  0.93137634820E+01  0.33988874674E+00 -0.16659340078E+03  0.16685389687E+03  0.00000000000E+00 0.  1.
        -15    1    1    2    0    0  0.52951535279E+01 -0.10463845071E+01  0.10612482195E+02  0.12038109435E+02  0.17770000000E+01 0. -1.
         15    1    1    2    0    0 -0.66674048302E+01 -0.61091086540E+01 -0.13477265796E+02  0.16326969040E+02  0.17770000000E+01 0.  1.
</event>
<event>
 6    1  0.1097339E-002  0.1841217E+03  0.7546771E-02  0.1067171E+00
        -11   -1    0    0    0    0  0.00000000000E+00  0.00000000000E+00  0.18250000000E+03  0.18250000000E+03  0.00000000000E+00 0.  1.
         11   -1    0    0    0    0 -0.00000000000E+00 -0.00000000000E+00 -0.18250000000E+03  0.18250000000E+03  0.00000000000E+00 0.  1.
        -11    1    1    2    0    0 -0.53152457096E+01 -0.31795084196E+01  0.18077225176E+03  0.18087832407E+03  0.00000000000E+00 0.  1.
         11    1    1    2    0    0  0.35749693950E+01  0.33164438300E+00 -0.17272442600E+03  0.17276173688E+03  0.00000000000E+00 0.  1.
        -15    1    1    2    0    0 -0.11255924824E+01  0.18389838630E+01 -0.25078192558E+00  0.28052523343E+01  0.17770000000E+01 0.  1.
         15    1    1    2    0    0  0.28658687970E+01  0.10088801736E+01 -0.77970438363E+01  0.85546867126E+01  0.17770000000E+01 0. -1.
</event>
<event>
 6    1  0.1097339E-002  0.1830937E+03  0.7546771E-02  0.1067983E+00
        -11   -1    0    0    0    0  0.00000000000E+00  0.00000000000E+00  0.18250000000E+03  0.18250000000E+03  0.00000000000E+00 0. -1.
         11   -1    0    0    0    0 -0.00000000000E+00 -0.00000000000E+00 -0.18250000000E+03  0.18250000000E+03  0.00000000000E+00 0. -1.
        -11    1    1    2    0    0  0.26041251552E+01  0.21768618517E+00  0.18188753761E+03  0.18190630883E+03  0.00000000000E+00 0. -1.
         11    1    1    2    0    0 -0.22065719534E+01  0.24877096925E+00 -0.15872551256E+03  0.15874104442E+03  0.00000000000E+00 0. -1.
        -15    1    1    2    0    0  0.30138889068E+01 -0.47193696913E+00 -0.87306208445E+01  0.94174157907E+01  0.17770000000E+01 0. -1.
         15    1    1    2    0    0 -0.34114421085E+01  0.54798147051E-02 -0.14431404205E+02  0.14935230953E+02  0.17770000000E+01 0. -1.
</event>
<event>
 6    1  0.1097339E-002  0.1833136E+03  0.7546771E-02  0.1067809E+00
        -11   -1    0    0    0    0  0.00000000000E+00  0.00000000000E+00  0.18250000000E+03  0.18250000000E+03  0.00000000000E+00 0. -1.
         11   -1    0    0    0    0 -0.00000000000E+00 -0.00000000000E+00 -0.18250000000E+03  0.18250000000E+03  0.00000000000E+00 0.  1.
        -11    1    1    2    0    0 -0.43114783698E+00 -0.45265076603E+01  0.18162948496E+03  0.18168639181E+03  0.00000000000E+00 0. -1.
         11    1    1    2    0    0  0.44114097022E+01  0.21121923182E+01 -0.16914876008E+03  0.16921945789E+03  0.00000000000E+00 0.  1.
        -15    1    1    2    0    0 -0.20857920999E+01  0.24218560900E+01 -0.51459560680E+01  0.63130427259E+01  0.17770000000E+01 0. -1.
         15    1    1    2    0    0 -0.18944697653E+01 -0.75407478880E-02 -0.73347688193E+01  0.77811075810E+01  0.17770000000E+01 0.  1.
</event>
<event>
 6    1  0.1097339E-002  0.1843885E+03  0.7546771E-02  0.1066961E+00
        -11   -1    0    0    0    0  0.00000000000E+00  0.00000000000E+00  0.18250000000E+03  0.18250000000E+03  0.00000000000E+00 0.  1.
         11   -1    0    0    0    0 -0.00000000000E+00 -0.00000000000E+00 -0.18250000000E+03  0.18250000000E+03  0.00000000000E+00 0.  1.
        -11    1    1    2    0    0  0.35284550920E+01 -0.45796220916E+01  0.18051893452E+03  0.18061148539E+03  0.00000000000E+00 0.  1.
         11    1    1    2    0    0 -0.23080216444E+01 -0.15886467504E+01 -0.67520038216E+02  0.67578149746E+02  0.00000000000E+00 0.  1.
        -15    1    1    2    0    0  0.10623432166E+02  0.68365062777E+01 -0.25710119837E+02  0.28701273841E+02  0.17770000000E+01 0. -1.
         15    1    1    2    0    0 -0.11843865613E+02 -0.66823743579E+00 -0.87288776470E+02  0.88109091021E+02  0.17770000000E+01 0.  1.
</event>
<event>
 6    1  0.1097339E-002  0.1904354E+03  0.7546771E-02  0.1062308E+00
        -11   -1    0    0    0    0  0.00000000000E+00  0.00000000000E+00  0.18250000000E+03  0.18250000000E+03  0.00000000000E+00 0.  1.
         11   -1    0    0    0    0 -0.00000000000E+00 -0.00000000000E+00 -0.18250000000E+03  0.18250000000E+03  0.00000000000E+00 0. -1.
        -11    1    1    2    0    0  0.36825296019E+01  0.41332617266E+00  0.17452525407E+03  0.17456459026E+03  0.00000000000E+00 0.  1.
         11    1    1    2    0    0 -0.15207030498E+02 -0.21029045868E+02 -0.83031970224E+02  0.86993003317E+02  0.00000000000E+00 0. -1.
        -15    1    1    2    0    0  0.11413326593E+02  0.30881448464E+02 -0.44941408912E+02  0.55738818136E+02  0.17770000000E+01 0. -1.
         15    1    1    2    0    0  0.11117430312E+00 -0.10265728768E+02 -0.46551874935E+02  0.47703588291E+02  0.17770000000E+01 0.  1.
</event>
<event>
 6    1  0.1097339E-002  0.1761324E+03  0.7546771E-02  0.1073639E+00
        -11   -1    0    0    0    0  0.00000000000E+00  0.00000000000E+00  0.18250000000E+03  0.18250000000E+03  0.00000000000E+00 0.  1.
         11   -1    0    0    0    0 -0.00000000000E+00 -0.00000000000E+00 -0.18250000000E+03  0.18250000000E+03  0.00000000000E+00 0. -1.
        -11    1    1    2    0    0 -0.50773551673E+01  0.20637837733E+01  0.17408736655E+03  0.17417362008E+03  0.00000000000E+00 0.  1.
         11    1    1    2    0    0 -0.71475696764E+00  0.31321448900E+01 -0.17817178851E+03  0.17820075037E+03  0.00000000000E+00 0. -1.
        -15    1    1    2    0    0  0.46982889302E+01 -0.34865376518E+01  0.65575860869E+01  0.89660207426E+01  0.17770000000E+01 0.  1.
         15    1    1    2    0    0  0.10938232047E+01 -0.17093910115E+01 -0.24731641253E+01  0.36596088075E+01  0.17770000000E+01 0. -1.
</event>
<event>
 6    1  0.1097339E-002  0.1867706E+03  0.7546771E-02  0.1065105E+00
        -11   -1    0    0    0    0  0.00000000000E+00  0.00000000000E+00  0.18250000000E+03  0.18250000000E+03  0.00000000000E+00 0.  1.
         11   -1    0    0    0    0 -0.00000000000E+00 -0.00000000000E+00 -0.18250000000E+03  0.18250000000E+03  0.00000000000E+00 0.  1.
        -11    1    1    2    0    0 -0.30268364902E+01  0.24031522758E+01  0.17818747008E+03  0.17822937853E+03  0.00000000000E+00 0.  1.
         11    1    1    2    0    0  0.31435659402E+01 -0.75485606444E+01 -0.17154301695E+03  0.17173779269E+03  0.00000000000E+00 0.  1.
        -15    1    1    2    0    0 -0.20601391110E+01  0.84026703949E+01 -0.25917544293E+01  0.92045620723E+01  0.17770000000E+01 0.  1.
         15    1    1    2    0    0  0.19434096610E+01 -0.32572620263E+01 -0.40526987028E+01  0.58282667058E+01  0.17770000000E+01 0. -1.
</event>
<event>
 6    1  0.1097339E-002  0.1844026E+03  0.7546771E-02  0.1066950E+00
        -11   -1    0    0    0    0  0.00000000000E+00  0.00000000000E+00  0.18250000000E+03  0.18250000000E+03  0.00000000000E+00 0. -1.
         11   -1    0    0    0    0 -0.00000000000E+00 -0.00000000000E+00 -0.18250000000E+03  0.18250000000E+03  0.00000000000E+00 0. -1.
        -11    1    1    2    0    0  0.73546835369E+01 -0.84520165308E+00  0.17238251851E+03  0.17254141075E+03  0.00000000000E+00 0. -1.
         11    1    1    2    0    0 -0.31318151150E+01  0.27824970640E+01 -0.18054880534E+03  0.18059740216E+03  0.00000000000E+00 0. -1.
        -15    1    1    2    0    0  0.14632355129E+01 -0.30773221749E+00  0.30969670156E+01  0.38710064556E+01  0.17770000000E+01 0.  1.
         15    1    1    2    0    0 -0.56861039348E+01 -0.16295631934E+01  0.50693198155E+01  0.79901806331E+01  0.17770000000E+01 0. -1.
</event>
<event>
 6    1  0.1097339E-002  0.1849913E+03  0.7546771E-02  0.1066489E+00
        -11   -1    0    0    0    0  0.00000000000E+00  0.00000000000E+00  0.18250000000E+03  0.18250000000E+03  0.00000000000E+00 0.  1.
         11   -1    0    0    0    0 -0.00000000000E+00 -0.00000000000E+00 -0.18250000000E+03  0.18250000000E+03  0.00000000000E+00 0.  1.
        -11    1    1    2    0    0  0.40159662223E+01 -0.25150614700E+01  0.17994630507E+03  0.18000868375E+03  0.00000000000E+00 0.  1.
         11    1    1    2    0    0  0.20167955338E+01  0.29446837487E+01 -0.16953828550E+03  0.16957584992E+03  0.00000000000E+00 0.  1.
        -15    1    1    2    0    0 -0.54829827162E+01 -0.41655198231E+01 -0.56208271434E+01  0.90645508239E+01  0.17770000000E+01 0.  1.
         15    1    1    2    0    0 -0.54977903994E+00  0.37358975443E+01 -0.47871924246E+01  0.63509155060E+01  0.17770000000E+01 0. -1.
</event>
<event>
 6    1  0.1097339E-002  0.1827373E+03  0.7546771E-02  0.1068266E+00
        -11   -1    0    0    0    0  0.00000000000E+00  0.00000000000E+00  0.18250000000E+03  0.18250000000E+03  0.00000000000E+00 0.  1.
         11   -1    0    0    0    0 -0.00000000000E+00 -0.00000000000E+00 -0.18250000000E+03  0.18250000000E+03  0.00000000000E+00 0. -1.
        -11    1    1    2    0    0  0.44994136767E+01 -0.10278037874E+01  0.18220429589E+03  0.18226274042E+03  0.00000000000E+00 0.  1.
         11    1    1    2    0    0 -0.13636347098E+01  0.74204309453E+00 -0.79987119273E+02  0.80002183578E+02  0.00000000000E+00 0. -1.
        -15    1    1    2    0    0 -0.41874851711E+01 -0.32378118305E+01 -0.75655309343E+02  0.75861070506E+02  0.17770000000E+01 0. -1.
         15    1    1    2    0    0  0.10517062041E+01  0.35235725234E+01 -0.26561867275E+02  0.26874005496E+02  0.17770000000E+01 0.  1.
</event>
<event>
 6    1  0.1097339E-002  0.1865405E+03  0.7546771E-02  0.1065283E+00
        -11   -1    0    0    0    0  0.00000000000E+00  0.00000000000E+00  0.18250000000E+03  0.18250000000E+03  0.00000000000E+00 0.  1.
         11   -1    0    0    0    0 -0.00000000000E+00 -0.00000000000E+00 -0.18250000000E+03  0.18250000000E+03  0.00000000000E+00 0. -1.
        -11    1    1    2    0    0  0.17314408745E+02 -0.46135535518E+01  0.13280784565E+03  0.13401118420E+03  0.00000000000E+00 0.  1.
         11    1    1    2    0    0 -0.98671010495E+00  0.24111520020E+01 -0.17844043946E+03  0.17845945670E+03  0.00000000000E+00 0. -1.
        -15    1    1    2    0    0  0.20885809648E+00 -0.22651834659E+01 -0.80881261679E+00  0.29977632808E+01  0.17770000000E+01 0. -1.
         15    1    1    2    0    0 -0.16536556736E+02  0.44675850156E+01  0.46441406426E+02  0.49531595819E+02  0.17770000000E+01 0.  1.
</event>
<event>
 6    1  0.1097339E-002  0.1915181E+03  0.7546771E-02  0.1061495E+00
        -11   -1    0    0    0    0  0.00000000000E+00  0.00000000000E+00  0.18250000000E+03  0.18250000000E+03  0.00000000000E+00 0.  1.
         11   -1    0    0    0    0 -0.00000000000E+00 -0.00000000000E+00 -0.18250000000E+03  0.18250000000E+03  0.00000000000E+00 0.  1.
        -11    1    1    2    0    0 -0.46908347404E+01 -0.25708391443E+01  0.17339938705E+03  0.17348187390E+03  0.00000000000E+00 0.  1.
         11    1    1    2    0    0 -0.28401483437E+01 -0.89525613548E+00 -0.16680655058E+03  0.16683312993E+03  0.00000000000E+00 0.  1.
        -15    1    1    2    0    0  0.77333048385E+01  0.11625748358E+02 -0.80359378012E+01  0.16207900973E+02  0.17770000000E+01 0.  1.
         15    1    1    2    0    0 -0.20232175436E+00 -0.81596530779E+01  0.14431013368E+01  0.84770951930E+01  0.17770000000E+01 0. -1.
</event>
<event>
 6    1  0.1097339E-002  0.1851329E+03  0.7546771E-02  0.1066378E+00
        -11   -1    0    0    0    0  0.00000000000E+00  0.00000000000E+00  0.18250000000E+03  0.18250000000E+03  0.00000000000E+00 0.  1.
         11   -1    0    0    0    0 -0.00000000000E+00 -0.00000000000E+00 -0.18250000000E+03  0.18250000000E+03  0.00000000000E+00 0. -1.
        -11    1    1    2    0    0  0.17351778850E+01 -0.16975526388E+01  0.17985072103E+03  0.17986710200E+03  0.00000000000E+00 0.  1.
         11    1    1    2    0    0 -0.32435563221E+01 -0.22499222567E+01 -0.16403284435E+03  0.16408033652E+03  0.00000000000E+00 0. -1.
        -15    1    1    2    0    0  0.62225592438E+01  0.38534341375E+01 -0.13601932796E+02  0.15547974240E+02  0.17770000000E+01 0. -1.
         15    1    1    2    0    0 -0.47141808067E+01  0.94040758042E-01 -0.22159438839E+01  0.55045872360E+01  0.17770000000E+01 0.  1.
</event>
<event>
 6    1  0.1097339E-002  0.1826765E+03  0.7546771E-02  0.1068314E+00
        -11   -1    0    0    0    0  0.00000000000E+00  0.00000000000E+00  0.18250000000E+03  0.18250000000E+03  0.00000000000E+00 0.  1.
         11   -1    0    0    0    0 -0.00000000000E+00 -0.00000000000E+00 -0.18250000000E+03  0.18250000000E+03  0.00000000000E+00 0.  1.
        -11    1    1    2    0    0 -0.78048762793E-01 -0.97792248147E+00  0.19261621010E+02  0.19286587773E+02  0.00000000000E+00 0.  1.
         11    1    1    2    0    0 -0.19303913427E+00  0.42514607265E+01 -0.18227381216E+03  0.18232348939E+03  0.00000000000E+00 0.  1.
        -15    1    1    2    0    0 -0.32333858907E+01 -0.29247881773E+01  0.13694863185E+03  0.13702953939E+03  0.17770000000E+01 0.  1.
         15    1    1    2    0    0  0.35044737878E+01 -0.34875006772E+00  0.26063559305E+02  0.26360383453E+02  0.17770000000E+01 0. -1.
</event>
<event>
 6    1  0.1097339E-002  0.1901976E+03  0.7546771E-02  0.1062487E+00
        -11   -1    0    0    0    0  0.00000000000E+00  0.00000000000E+00  0.18250000000E+03  0.18250000000E+03  0.00000000000E+00 0. -1.
         11   -1    0    0    0    0 -0.00000000000E+00 -0.00000000000E+00 -0.18250000000E+03  0.18250000000E+03  0.00000000000E+00 0.  1.
        -11    1    1    2    0    0  0.25286289101E+01 -0.51534948722E+01  0.12251169149E+03  0.12264610481E+03  0.00000000000E+00 0. -1.
         11    1    1    2    0    0  0.14859199751E+01  0.26208960458E+01 -0.17477646988E+03  0.17480243556E+03  0.00000000000E+00 0.  1.
        -15    1    1    2    0    0  0.10175563206E+02 -0.60082974069E+01 -0.75788867998E+00  0.11973881933E+02  0.17770000000E+01 0.  1.
         15    1    1    2    0    0 -0.14190112092E+02  0.85408962333E+01  0.53022667069E+02  0.55577577689E+02  0.17770000000E+01 0. -1.
</event>
<event>
 6    1  0.1097339E-002  0.1860520E+03  0.7546771E-02  0.1065662E+00
        -11   -1    0    0    0    0  0.00000000000E+00  0.00000000000E+00  0.18250000000E+03  0.18250000000E+03  0.00000000000E+00 0.  1.
         11   -1    0    0    0    0 -0.00000000000E+00 -0.00000000000E+00 -0.18250000000E+03  0.18250000000E+03  0.00000000000E+00 0.  1.
        -11    1    1    2    0    0 -0.46111476084E+01 -0.45551298410E+01  0.17883054579E+03  0.17894797009E+03  0.00000000000E+00 0.  1.
         11    1    1    2    0    0 -0.42479637177E+01  0.22633039261E+00 -0.16512117978E+03  0.16517596809E+03  0.00000000000E+00 0.  1.
        -15    1    1    2    0    0 -0.12404963031E+01  0.40070949733E+01 -0.12262547588E+01  0.47177400243E+01  0.17770000000E+01 0.  1.
         15    1    1    2    0    0  0.10099607629E+02  0.32170447507E+00 -0.12483111250E+02  0.16158321803E+02  0.17770000000E+01 0.  1.
</event>
<event>
 6    1  0.1097339E-002  0.1851992E+03  0.7546771E-02  0.1066326E+00
        -11   -1    0    0    0    0  0.00000000000E+00  0.00000000000E+00  0.18250000000E+03  0.18250000000E+03  0.00000000000E+00 0.  1.
         11   -1    0    0    0    0 -0.00000000000E+00 -0.00000000000E+00 -0.18250000000E+03  0.18250000000E+03  0.00000000000E+00 0.  1.
        -11    1    1    2    0    0 -0.19111537089E+01 -0.15470612198E+01  0.16686270925E+03  0.16688082468E+03  0.00000000000E+00 0.  1.
         11    1    1    2    0    0  0.34522767597E+01 -0.14222739784E+01 -0.17976202217E+03  0.17980079447E+03  0.00000000000E+00 0.  1.
        -15    1    1    2    0    0  0.53517365037E+00  0.35283900974E+01  0.14543745044E+02  0.15080258500E+02  0.17770000000E+01 0.  1.
         15    1    1    2    0    0 -0.20762967012E+01 -0.55905489921E+00 -0.16444321212E+01  0.32381223530E+01  0.17770000000E+01 0. -1.
</event>
<event>
 6    1  0.1097339E-002  0.1844204E+03  0.7546771E-02  0.1066936E+00
        -11   -1    0    0    0    0  0.00000000000E+00  0.00000000000E+00  0.18250000000E+03  0.18250000000E+03  0.00000000000E+00 0. -1.
         11   -1    0    0    0    0 -0.00000000000E+00 -0.00000000000E+00 -0.18250000000E+03  0.18250000000E+03  0.00000000000E+00 0.  1.
        -11    1    1    2    0    0 -0.30110997521E+01 -0.82426604132E-01  0.18055448120E+03  0.18057960626E+03  0.00000000000E+00 0. -1.
         11    1    1    2    0    0 -0.14048166595E+01 -0.14806542075E+01 -0.13707495345E+03  0.13709014812E+03  0.00000000000E+00 0.  1.
        -15    1    1    2    0    0  0.29525260057E+01  0.30348791549E+01 -0.44252984361E+02  0.44490586141E+02  0.17770000000E+01 0.  1.
         15    1    1    2    0    0  0.14633904058E+01 -0.14717983432E+01  0.77345661593E+00  0.28396594831E+01  0.17770000000E+01 0. -1.
</event>
<event>
 6    1  0.1097339E-002  0.1889777E+03  0.7546771E-02  0.1063412E+00
        -11   -1    0    0    0    0  0.00000000000E+00  0.00000000000E+00  0.18250000000E+03  0.18250000000E+03  0.00000000000E+00 0. -1.
         11   -1    0    0    0    0 -0.00000000000E+00 -0.00000000000E+00 -0.18250000000E+03  0.18250000000E+03  0.00000000000E+00 0. -1.
        -11    1    1    2    0    0  0.31738833798E+01  0.16307706553E+01  0.16736149939E+03  0.16739953532E+03  0.00000000000E+00 0. -1.
         11    1    1    2    0    0  0.88960817228E+01 -0.14871049882E+01 -0.17579107678E+03  0.17602231230E+03  0.00000000000E+00 0. -1.
        -15    1    1    2    0    0 -0.75704619322E+01  0.94015089430E+00 -0.35600957928E+01  0.86039402964E+01  0.17770000000E+01 0. -1.
         15    1    1    2    0    0 -0.44995031705E+01 -0.10838165614E+01  0.11989673182E+02  0.12974212082E+02  0.17770000000E+01 0.  1.
</event>
<event>
 6    1  0.1392465E-002  0.1828323E+03  0.7546771E-02  0.1068191E+00
        -11   -1    0    0    0    0  0.00000000000E+00  0.00000000000E+00  0.18250000000E+03  0.18250000000E+03  0.00000000000E+00 0.  1.
         11   -1    0    0    0    0 -0.00000000000E+00 -0.00000000000E+00 -0.18250000000E+03  0.18250000000E+03  0.00000000000E+00 0.  1.
        -11    1    1    2    0    0  0.40180756514E+01  0.94257245830E+00  0.18212096294E+03  0.18216772084E+03  0.00000000000E+00 0.  1.
         11    1    1    2    0    0 -0.10539671817E+01 -0.28016135446E+01 -0.69738521751E+02  0.69802731331E+02  0.00000000000E+00 0.  1.
        -15    1    1    2    0    0 -0.32958115957E+01 -0.18054966123E+01 -0.15111581328E+02  0.15672900539E+02  0.17770000000E+01 0.  1.
         15    1    1    2    0    0  0.33170312596E+00  0.36645376987E+01 -0.97270859862E+02  0.97356647286E+02  0.17770000000E+01 0. -1.
</event>
<event>
 6    1  0.1097339E-002  0.1828196E+03  0.7546771E-02  0.1068201E+00
        -11   -1    0    0    0    0  0.00000000000E+00  0.00000000000E+00  0.18250000000E+03  0.18250000000E+03  0.00000000000E+00 0.  1.
         11   -1    0    0    0    0 -0.00000000000E+00 -0.00000000000E+00 -0.18250000000E+03  0.18250000000E+03  0.00000000000E+00 0. -1.
        -11    1    1    2    0    0  0.11179247643E+01 -0.64313902926E+01  0.18206343917E+03  0.18218042820E+03  0.00000000000E+00 0.  1.
         11    1    1    2    0    0  0.19141357019E+01 -0.49588843187E-01 -0.42451142110E+02  0.42494303630E+02  0.00000000000E+00 0. -1.
        -15    1    1    2    0    0 -0.34354881391E+01  0.18040687932E+01 -0.12016165857E+03  0.12023742829E+03  0.17770000000E+01 0.  1.
         15    1    1    2    0    0  0.40342767285E+00  0.46769103426E+01 -0.19450638495E+02  0.20087839881E+02  0.17770000000E+01 0. -1.
</event>
<event>
 6    1  0.1097339E-002  0.1931798E+03  0.7546771E-02  0.1060258E+00
        -11   -1    0    0    0    0  0.00000000000E+00  0.00000000000E+00  0.18250000000E+03  0.18250000000E+03  0.00000000000E+00 0.  1.
         11   -1    0    0    0    0 -0.00000000000E+00 -0.00000000000E+00 -0.18250000000E+03  0.18250000000E+03  0.00000000000E+00 0. -1.
        -11    1    1    2    0    0  0.39091601874E+01  0.56503363744E+00  0.17177478878E+03  0.17182019339E+03  0.00000000000E+00 0.  1.
         11    1    1    2    0    0  0.37429335077E+01 -0.35142775565E+01 -0.14411249799E+03  0.14420392427E+03  0.00000000000E+00 0. -1.
        -15    1    1    2    0    0 -0.51516215835E+01 -0.38098566245E+01 -0.36690486224E+02  0.37288117689E+02  0.17770000000E+01 0. -1.
         15    1    1    2    0    0 -0.25004721116E+01  0.67591005435E+01  0.90281954276E+01  0.11687764654E+02  0.17770000000E+01 0.  1.
</event>
<event>
 6    1  0.1097339E-002  0.1797092E+03  0.7546771E-02  0.1070698E+00
        -11   -1    0    0    0    0  0.00000000000E+00  0.00000000000E+00  0.18250000000E+03  0.18250000000E+03  0.00000000000E+00 0.  1.
         11   -1    0    0    0    0 -0.00000000000E+00 -0.00000000000E+00 -0.18250000000E+03  0.18250000000E+03  0.00000000000E+00 0. -1.
        -11    1    1    2    0    0  0.11772717460E+01  0.37227000563E+00  0.10144594960E+02  0.10219459899E+02  0.00000000000E+00 0.  1.
         11    1    1    2    0    0 -0.90045574917E+01  0.14963157538E+02 -0.17913874456E+03  0.17998796611E+03  0.00000000000E+00 0. -1.
        -15    1    1    2    0    0 -0.18760752354E+01 -0.43227069888E+01  0.15272874685E+03  0.15281175772E+03  0.17770000000E+01 0.  1.
         15    1    1    2    0    0  0.97033609810E+01 -0.11012720555E+02  0.16265402758E+02  0.21980816278E+02  0.17770000000E+01 0. -1.
</event>
<event>
 6    1  0.1097339E-002  0.1863453E+03  0.7546771E-02  0.1065435E+00
        -11   -1    0    0    0    0  0.00000000000E+00  0.00000000000E+00  0.18250000000E+03  0.18250000000E+03  0.00000000000E+00 0. -1.
         11   -1    0    0    0    0 -0.00000000000E+00 -0.00000000000E+00 -0.18250000000E+03  0.18250000000E+03  0.00000000000E+00 0. -1.
        -11    1    1    2    0    0  0.86044385607E+00  0.34766711064E+01  0.16467298779E+03  0.16471193191E+03  0.00000000000E+00 0. -1.
         11    1    1    2    0    0  0.64949979691E+00  0.49702925100E+01 -0.17858441339E+03  0.17865474626E+03  0.00000000000E+00 0. -1.
        -15    1    1    2    0    0  0.13395017547E-01 -0.32467159666E+01  0.15318740037E+02  0.15759532649E+02  0.17770000000E+01 0. -1.
         15    1    1    2    0    0 -0.15233386705E+01 -0.52002476498E+01 -0.14073144462E+01  0.58737891752E+01  0.17770000000E+01 0.  1.
</event>
<event>
 6    1  0.1097339E-002  0.1740886E+03  0.7546771E-02  0.1075355E+00
        -11   -1    0    0    0    0  0.00000000000E+00  0.00000000000E+00  0.18250000000E+03  0.18250000000E+03  0.00000000000E+00 0. -1.
         11   -1    0    0    0    0 -0.00000000000E+00 -0.00000000000E+00 -0.18250000000E+03  0.18250000000E+03  0.00000000000E+00 0. -1.
        -11    1    1    2    0    0  0.37342669275E+01  0.55943408629E+00  0.17424656455E+03  0.17428747222E+03  0.00000000000E+00 0. -1.
         11    1    1    2    0    0  0.29389648245E+01 -0.16894365349E+01 -0.17392256991E+03  0.17395560363E+03  0.00000000000E+00 0. -1.
        -15    1    1    2    0    0 -0.84285038212E+01 -0.29124023904E+01  0.43604635019E+01  0.10084301428E+02  0.17770000000E+01 0.  1.
         15    1    1    2    0    0  0.17552720692E+01  0.40424048390E+01 -0.46844581404E+01  0.66726227219E+01  0.17770000000E+01 0. -1.
</event>
<event>
 6    1  0.1097339E-002  0.1876419E+03  0.7546771E-02  0.1064434E+00
        -11   -1    0    0    0    0  0.00000000000E+00  0.00000000000E+00  0.18250000000E+03  0.18250000000E+03  0.00000000000E+00 0. -1.
         11   -1    0    0    0    0 -0.00000000000E+00 -0.00000000000E+00 -0.18250000000E+03  0.18250000000E+03  0.00000000000E+00 0. -1.
        -11    1    1    2    0    0  0.11180994877E+02 -0.80985858630E+01  0.17681991175E+03  0.17735806418E+03  0.00000000000E+00 0. -1.
         11    1    1    2    0    0  0.85964619374E+00  0.39764573568E+01 -0.16829177208E+03  0.16834093903E+03  0.00000000000E+00 0. -1.
        -15    1    1    2    0    0 -0.86477334685E+00 -0.21385808210E+01  0.11677558056E+01  0.31373146942E+01  0.17770000000E+01 0. -1.
         15    1    1    2    0    0 -0.11175867724E+02  0.62607093271E+01 -0.96958954773E+01  0.16163682092E+02  0.17770000000E+01 0.  1.
</event>
<event>
 6    1  0.1097339E-002  0.1776732E+03  0.7546771E-02  0.1072363E+00
        -11   -1    0    0    0    0  0.00000000000E+00  0.00000000000E+00  0.18250000000E+03  0.18250000000E+03  0.00000000000E+00 0.  1.
         11   -1    0    0    0    0 -0.00000000000E+00 -0.00000000000E+00 -0.18250000000E+03  0.18250000000E+03  0.00000000000E+00 0.  1.
        -11    1    1    2    0    0  0.32177049757E+01 -0.93022685128E+00  0.17929241130E+03  0.17932369530E+03  0.00000000000E+00 0.  1.
         11    1    1    2    0    0  0.21580054147E+01  0.21738343872E+01 -0.17605368878E+03  0.17608033359E+03  0.00000000000E+00 0.  1.
        -15    1    1    2    0    0 -0.49683591609E+01 -0.83873633607E+00 -0.47843006922E+01  0.71718431039E+01  0.17770000000E+01 0.  1.
         15    1    1    2    0    0 -0.40735122948E+00 -0.40487119982E+00  0.15455781750E+01  0.24241280098E+01  0.17770000000E+01 0. -1.
</event>
<event>
 6    1  0.1097339E-002  0.1909364E+03  0.7546771E-02  0.1061931E+00
        -11   -1    0    0    0    0  0.00000000000E+00  0.00000000000E+00  0.18250000000E+03  0.18250000000E+03  0.00000000000E+00 0. -1.
         11   -1    0    0    0    0 -0.00000000000E+00 -0.00000000000E+00 -0.18250000000E+03  0.18250000000E+03  0.00000000000E+00 0. -1.
        -11    1    1    2    0    0 -0.32564606939E+01 -0.44782248372E+01  0.17397547500E+03  0.17406356579E+03  0.00000000000E+00 0. -1.
         11    1    1    2    0    0  0.67424909043E+01  0.67236391280E+01 -0.17112289418E+03  0.17138761162E+03  0.00000000000E+00 0. -1.
        -15    1    1    2    0    0  0.75738826753E+00  0.71595582099E+01  0.24538491676E+01  0.78110188507E+01  0.17770000000E+01 0. -1.
         15    1    1    2    0    0 -0.42434184779E+01 -0.94049725007E+01 -0.53064299954E+01  0.11737803730E+02  0.17770000000E+01 0.  1.
</event>
<event>
 6    1  0.1097339E-002  0.1901394E+03  0.7546771E-02  0.1062531E+00
        -11   -1    0    0    0    0  0.00000000000E+00  0.00000000000E+00  0.18250000000E+03  0.18250000000E+03  0.00000000000E+00 0. -1.
         11   -1    0    0    0    0 -0.00000000000E+00 -0.00000000000E+00 -0.18250000000E+03  0.18250000000E+03  0.00000000000E+00 0. -1.
        -11    1    1    2    0    0 -0.13733306700E+01 -0.18839998948E+01  0.85923733104E+02  0.85955357036E+02  0.00000000000E+00 0. -1.
         11    1    1    2    0    0  0.95778456603E+01 -0.23567427986E+01 -0.17458221247E+03  0.17486062528E+03  0.00000000000E+00 0. -1.
        -15    1    1    2    0    0  0.44600698070E+01 -0.41856252359E+01  0.88640331781E+02  0.88868879978E+02  0.17770000000E+01 0. -1.
         15    1    1    2    0    0 -0.12664584797E+02  0.84263679292E+01  0.18147581907E-01  0.15315137704E+02  0.17770000000E+01 0.  1.
</event>
<event>
 6    1  0.1097339E-002  0.1892005E+03  0.7546771E-02  0.1063243E+00
        -11   -1    0    0    0    0  0.00000000000E+00  0.00000000000E+00  0.18250000000E+03  0.18250000000E+03  0.00000000000E+00 0.  1.
         11   -1    0    0    0    0 -0.00000000000E+00 -0.00000000000E+00 -0.18250000000E+03  0.18250000000E+03  0.00000000000E+00 0. -1.
        -11    1    1    2    0    0 -0.40108287272E+01  0.23930510444E+01  0.15585719937E+03  0.15592716259E+03  0.00000000000E+00 0.  1.
         11    1    1    2    0    0 -0.17626909285E+01 -0.50914291866E+01 -0.17571689569E+03  0.17579947998E+03  0.00000000000E+00 0. -1.
        -15    1    1    2    0    0 -0.67760289776E+01 -0.22270563541E+01  0.18132761744E+02  0.19566019681E+02  0.17770000000E+01 0.  1.
         15    1    1    2    0    0  0.12549548633E+02  0.49254344964E+01  0.17269345844E+01  0.13707337741E+02  0.17770000000E+01 0. -1.
</event>
<event>
 6    1  0.1097339E-002  0.1919662E+03  0.7546771E-02  0.1061160E+00
        -11   -1    0    0    0    0  0.00000000000E+00  0.00000000000E+00  0.18250000000E+03  0.18250000000E+03  0.00000000000E+00 0.  1.
         11   -1    0    0    0    0 -0.00000000000E+00 -0.00000000000E+00 -0.18250000000E+03  0.18250000000E+03  0.00000000000E+00 0. -1.
        -11    1    1    2    0    0 -0.20723097227E+01  0.22841638571E+01  0.17300629454E+03  0.17303378231E+03  0.00000000000E+00 0.  1.
         11    1    1    2    0    0  0.22409609313E+01 -0.15641423856E+00 -0.11859168354E+03  0.11861295788E+03  0.00000000000E+00 0. -1.
        -15    1    1    2    0    0 -0.26200162233E+01  0.20556322831E+01  0.89839648568E+01  0.97447146003E+01  0.17770000000E+01 0. -1.
         15    1    1    2    0    0  0.24513650147E+01 -0.41833819017E+01 -0.63398575853E+02  0.63608545210E+02  0.17770000000E+01 0.  1.
</event>
<event>
 6    1  0.1097339E-002  0.1831216E+03  0.7546771E-02  0.1067961E+00
        -11   -1    0    0    0    0  0.00000000000E+00  0.00000000000E+00  0.18250000000E+03  0.18250000000E+03  0.00000000000E+00 0. -1.
         11   -1    0    0    0    0 -0.00000000000E+00 -0.00000000000E+00 -0.18250000000E+03  0.18250000000E+03  0.00000000000E+00 0. -1.
        -11    1    1    2    0    0 -0.28047785548E+01 -0.13963599329E+01  0.18185137923E+03  0.18187836796E+03  0.00000000000E+00 0. -1.
         11    1    1    2    0    0  0.11703576517E+01  0.37602722448E+01 -0.16446926776E+03  0.16451641080E+03  0.00000000000E+00 0. -1.
        -15    1    1    2    0    0  0.73107025723E+00 -0.44725543799E+00 -0.14848084063E+01  0.24691873463E+01  0.17770000000E+01 0. -1.
         15    1    1    2    0    0  0.90335064586E+00 -0.19166568739E+01 -0.15897303070E+02  0.16136033895E+02  0.17770000000E+01 0.  1.
</event>
<event>
 6    1  0.1097339E-002  0.1761120E+03  0.7546771E-02  0.1073656E+00
        -11   -1    0    0    0    0  0.00000000000E+00  0.00000000000E+00  0.18250000000E+03  0.18250000000E+03  0.00000000000E+00 0. -1.
         11   -1    0    0    0    0 -0.00000000000E+00 -0.00000000000E+00 -0.18250000000E+03  0.18250000000E+03  0.00000000000E+00 0. -1.
        -11    1    1    2    0    0 -0.18689278399E+01 -0.24309560034E+01  0.17419157520E+03  0.17421856190E+03  0.00000000000E+00 0. -1.
         11    1    1    2    0    0 -0.26415577614E+01 -0.52655143618E+01 -0.17804195585E+03  0.17813938788E+03  0.00000000000E+00 0. -1.
        -15    1    1    2    0    0  0.23355892377E+01  0.16025822717E+01 -0.18642804654E+01  0.38283831677E+01  0.17770000000E+01 0. -1.
         15    1    1    2    0    0  0.21748963636E+01  0.60938880935E+01  0.57146611176E+01  0.88136670562E+01  0.17770000000E+01 0.  1.
</event>
<event>
 6    1  0.1097339E-002  0.1849391E+03  0.7546771E-02  0.1066530E+00
        -11   -1    0    0    0    0  0.00000000000E+00  0.00000000000E+00  0.18250000000E+03  0.18250000000E+03  0.00000000000E+00 0.  1.
         11   -1    0    0    0    0 -0.00000000000E+00 -0.00000000000E+00 -0.18250000000E+03  0.18250000000E+03  0.00000000000E+00 0.  1.
        -11    1    1    2    0    0 -0.25261777255E+01 -0.21605786807E+01  0.29505415434E+02  0.29692073253E+02  0.00000000000E+00 0.  1.
         11    1    1    2    0    0  0.11125588567E+02 -0.83152954426E+01 -0.17952440577E+03  0.18006092059E+03  0.00000000000E+00 0.  1.
        -15    1    1    2    0    0 -0.70990823194E+01  0.50064630834E+01  0.51454094866E+01  0.10251566230E+02  0.17770000000E+01 0. -1.
         15    1    1    2    0    0 -0.15003285218E+01  0.54694110399E+01  0.14487358085E+03  0.14499543992E+03  0.17770000000E+01 0.  1.
</event>
<event>
 6    1  0.1097339E-002  0.1833078E+03  0.7546771E-02  0.1067814E+00
        -11   -1    0    0    0    0  0.00000000000E+00  0.00000000000E+00  0.18250000000E+03  0.18250000000E+03  0.00000000000E+00 0. -1.
         11   -1    0    0    0    0 -0.00000000000E+00 -0.00000000000E+00 -0.18250000000E+03  0.18250000000E+03  0.00000000000E+00 0.  1.
        -11    1    1    2    0    0  0.10396961060E+01  0.49779693191E+01  0.18162097680E+03  0.18169215822E+03  0.00000000000E+00 0. -1.
         11    1    1    2    0    0  0.13349458703E+01  0.22631975520E+01 -0.28929374293E+02  0.29048456768E+02  0.00000000000E+00 0.  1.
        -15    1    1    2    0    0  0.39906769977E+01 -0.23141257599E+01 -0.85050672877E+01  0.98374071534E+01  0.17770000000E+01 0. -1.
         15    1    1    2    0    0 -0.63653189740E+01 -0.49270411112E+01 -0.14418653522E+03  0.14442197785E+03  0.17770000000E+01 0.  1.
</event>
<event>
 6    1  0.1097339E-002  0.1773865E+03  0.7546771E-02  0.1072600E+00
        -11   -1    0    0    0    0  0.00000000000E+00  0.00000000000E+00  0.18250000000E+03  0.18250000000E+03  0.00000000000E+00 0. -1.
         11   -1    0    0    0    0 -0.00000000000E+00 -0.00000000000E+00 -0.18250000000E+03  0.18250000000E+03  0.00000000000E+00 0.  1.
        -11    1    1    2    0    0  0.36618900260E+01 -0.46936724170E+00  0.17741357121E+03  0.17745197941E+03  0.00000000000E+00 0. -1.
         11    1    1    2    0    0  0.24926545040E+01  0.36275553069E+00 -0.17735645601E+03  0.17737434258E+03  0.00000000000E+00 0.  1.
        -15    1    1    2    0    0 -0.43938948464E+01 -0.44904010919E+00 -0.34805384326E+01  0.58974423033E+01  0.17770000000E+01 0. -1.
         15    1    1    2    0    0 -0.17606496836E+01  0.55565182020E+00  0.34234232266E+01  0.42762357094E+01  0.17770000000E+01 0. -1.
</event>
<event>
 6    1  0.1097339E-002  0.1891105E+03  0.7546771E-02  0.1063311E+00
        -11   -1    0    0    0    0  0.00000000000E+00  0.00000000000E+00  0.18250000000E+03  0.18250000000E+03  0.00000000000E+00 0. -1.
         11   -1    0    0    0    0 -0.00000000000E+00 -0.00000000000E+00 -0.18250000000E+03  0.18250000000E+03  0.00000000000E+00 0. -1.
        -11    1    1    2    0    0 -0.88012080171E+00 -0.44403170296E+01  0.15818117376E+03  0.15824593126E+03  0.00000000000E+00 0. -1.
         11    1    1    2    0    0 -0.22770881666E+01 -0.31619516476E+01 -0.17584635342E+03  0.17588951953E+03  0.00000000000E+00 0. -1.
        -15    1    1    2    0    0  0.18638192822E+01 -0.89963755407E+00  0.21217297624E+02  0.21391928794E+02  0.17770000000E+01 0.  1.
         15    1    1    2    0    0  0.12933896861E+01  0.85019062313E+01 -0.35521179658E+01  0.94726204130E+01  0.17770000000E+01 0. -1.
</event>
<event>
 6    1  0.1097339E-002  0.1857003E+03  0.7546771E-02  0.1065936E+00
        -11   -1    0    0    0    0  0.00000000000E+00  0.00000000000E+00  0.18250000000E+03  0.18250000000E+03  0.00000000000E+00 0. -1.
         11   -1    0    0    0    0 -0.00000000000E+00 -0.00000000000E+00 -0.18250000000E+03  0.18250000000E+03  0.00000000000E+00 0.  1.
        -11    1    1    2    0    0  0.50478548637E+00  0.30197576244E+01  0.17927353998E+03  0.17929968176E+03  0.00000000000E+00 0. -1.
         11    1    1    2    0    0 -0.18105942613E+01  0.20046853568E+01 -0.15296145930E+03  0.15298530991E+03  0.00000000000E+00 0.  1.
        -15    1    1    2    0    0  0.24489723618E+01 -0.30621971097E+01 -0.28669216179E+02  0.28990622658E+02  0.17770000000E+01 0.  1.
         15    1    1    2    0    0 -0.11431635869E+01 -0.19622458715E+01  0.23571355044E+01  0.37243856719E+01  0.17770000000E+01 0.  1.
</event>
<event>
 6    1  0.1097339E-002  0.1865459E+03  0.7546771E-02  0.1065279E+00
        -11   -1    0    0    0    0  0.00000000000E+00  0.00000000000E+00  0.18250000000E+03  0.18250000000E+03  0.00000000000E+00 0.  1.
         11   -1    0    0    0    0 -0.00000000000E+00 -0.00000000000E+00 -0.18250000000E+03  0.18250000000E+03  0.00000000000E+00 0.  1.
        -11    1    1    2    0    0  0.23819238446E+01  0.58875274729E+00  0.16495763847E+03  0.16497588515E+03  0.00000000000E+00 0.  1.
         11    1    1    2    0    0 -0.73586312488E+01  0.85443120047E+01 -0.17809742889E+03  0.17845405263E+03  0.00000000000E+00 0.  1.
        -15    1    1    2    0    0 -0.26176493560E+01 -0.39743710479E+01  0.10793314149E+02  0.11929001328E+02  0.17770000000E+01 0. -1.
         15    1    1    2    0    0  0.75943567602E+01 -0.51586937041E+01  0.23464762689E+01  0.96410608967E+01  0.17770000000E+01 0.  1.
</event>
<event>
 6    1  0.1097339E-002  0.1836705E+03  0.7546771E-02  0.1067527E+00
        -11   -1    0    0    0    0  0.00000000000E+00  0.00000000000E+00  0.18250000000E+03  0.18250000000E+03  0.00000000000E+00 0. -1.
         11   -1    0    0    0    0 -0.00000000000E+00 -0.00000000000E+00 -0.18250000000E+03  0.18250000000E+03  0.00000000000E+00 0.  1.
        -11    1    1    2    0    0 -0.22375958454E+01 -0.26756342547E+00  0.87539607764E+02  0.87568609404E+02  0.00000000000E+00 0. -1.
         11    1    1    2    0    0  0.34865019354E+01 -0.34060843846E+00 -0.18129570499E+03  0.18132954629E+03  0.00000000000E+00 0.  1.
        -15    1    1    2    0    0 -0.67076516623E+01 -0.79173551045E+00  0.10345725142E+02  0.12482435405E+02  0.17770000000E+01 0. -1.
         15    1    1    2    0    0  0.54587455723E+01  0.13999073744E+01  0.83410372087E+02  0.83619408899E+02  0.17770000000E+01 0. -1.
</event>
<event>
 6    1  0.1993798E-002  0.1907090E+03  0.7546771E-02  0.1062102E+00
        -11   -1    0    0    0    0  0.00000000000E+00  0.00000000000E+00  0.18250000000E+03  0.18250000000E+03  0.00000000000E+00 0. -1.
         11   -1    0    0    0    0 -0.00000000000E+00 -0.00000000000E+00 -0.18250000000E+03  0.18250000000E+03  0.00000000000E+00 0.  1.
        -11    1    1    2    0    0  0.17798256155E+01 -0.30477914385E+01  0.17425528404E+03  0.17429102337E+03  0.00000000000E+00 0. -1.
         11    1    1    2    0    0 -0.12607240384E+02 -0.16344197408E+02 -0.88944448497E+02  0.91308215498E+02  0.00000000000E+00 0.  1.
        -15    1    1    2    0    0  0.75060680091E+01  0.16083131744E+02 -0.90467087223E+02  0.92208783656E+02  0.17770000000E+01 0.  1.
         15    1    1    2    0    0  0.33213467595E+01  0.33088571029E+01  0.51562516840E+01  0.71919774786E+01  0.17770000000E+01 0. -1.
</event>
<event>
 6    1  0.1097339E-002  0.1834528E+03  0.7546771E-02  0.1067699E+00
        -11   -1    0    0    0    0  0.00000000000E+00  0.00000000000E+00  0.18250000000E+03  0.18250000000E+03  0.00000000000E+00 0.  1.
         11   -1    0    0    0    0 -0.00000000000E+00 -0.00000000000E+00 -0.18250000000E+03  0.18250000000E+03  0.00000000000E+00 0.  1.
        -11    1    1    2    0    0 -0.28232265178E+01  0.83508063301E+00  0.16564141627E+03  0.16566757906E+03  0.00000000000E+00 0.  1.
         11    1    1    2    0    0  0.20422647583E+01 -0.28594472301E+01 -0.18151314866E+03  0.18154715756E+03  0.00000000000E+00 0.  1.
        -15    1    1    2    0    0 -0.28609295276E+01 -0.14141382311E+00  0.78036198723E+01  0.85005369091E+01  0.17770000000E+01 0.  1.
         15    1    1    2    0    0  0.36418912870E+01  0.21657804202E+01  0.80681125113E+01  0.92847264618E+01  0.17770000000E+01 0. -1.
</event>
<event>
 6    1  0.1097339E-002  0.1838089E+03  0.7546771E-02  0.1067418E+00
        -11   -1    0    0    0    0  0.00000000000E+00  0.00000000000E+00  0.18250000000E+03  0.18250000000E+03  0.00000000000E+00 0. -1.
         11   -1    0    0    0    0 -0.00000000000E+00 -0.00000000000E+00 -0.18250000000E+03  0.18250000000E+03  0.00000000000E+00 0. -1.
        -11    1    1    2    0    0 -0.42722576020E+01  0.26460174384E+00  0.18114051969E+03  0.18119108717E+03  0.00000000000E+00 0. -1.
         11    1    1    2    0    0  0.77074699311E+00 -0.28467740244E+01 -0.16699644216E+03  0.16702248312E+03  0.00000000000E+00 0. -1.
        -15    1    1    2    0    0  0.27148738112E+01  0.21834330504E+01 -0.18377396081E+01  0.43212192219E+01  0.17770000000E+01 0. -1.
         15    1    1    2    0    0  0.78663679772E+00  0.39873923012E+00 -0.12306337914E+02  0.12465210479E+02  0.17770000000E+01 0.  1.
</event>
<event>
 6    1  0.1097339E-002  0.1827629E+03  0.7546771E-02  0.1068246E+00
        -11   -1    0    0    0    0  0.00000000000E+00  0.00000000000E+00  0.18250000000E+03  0.18250000000E+03  0.00000000000E+00 0.  1.
         11   -1    0    0    0    0 -0.00000000000E+00 -0.00000000000E+00 -0.18250000000E+03  0.18250000000E+03  0.00000000000E+00 0.  1.
        -11    1    1    2    0    0 -0.17724417339E+01 -0.81785018441E+00  0.11983726288E+03  0.11985316017E+03  0.00000000000E+00 0.  1.
         11    1    1    2    0    0  0.30341666292E+01 -0.20219222522E+01 -0.18220058225E+03  0.18223706129E+03  0.00000000000E+00 0.  1.
        -15    1    1    2    0    0 -0.23072876955E+01 -0.10433585557E+01  0.13539746063E+02  0.13888650980E+02  0.17770000000E+01 0. -1.
         15    1    1    2    0    0  0.10455628001E+01  0.38831309923E+01  0.48823573304E+02  0.49021127557E+02  0.17770000000E+01 0.  1.
</event>
<event>
 6    1  0.1097339E-002  0.1826568E+03  0.7546771E-02  0.1068330E+00
        -11   -1    0    0    0    0  0.00000000000E+00  0.00000000000E+00  0.18250000000E+03  0.18250000000E+03  0.00000000000E+00 0. -1.
         11   -1    0    0    0    0 -0.00000000000E+00 -0.00000000000E+00 -0.18250000000E+03  0.18250000000E+03  0.00000000000E+00 0. -1.
        -11    1    1    2    0    0  0.25156757236E+01 -0.35446477639E+01  0.18229140332E+03  0.18234321724E+03  0.00000000000E+00 0. -1.
         11    1    1    2    0    0  0.60632673346E-01 -0.12492868898E+01 -0.40279716197E+02  0.40299130648E+02  0.00000000000E+00 0. -1.
        -15    1    1    2    0    0 -0.23330904442E+01  0.34525570042E+01 -0.31579793326E+02  0.31903049014E+02  0.17770000000E+01 0. -1.
         15    1    1    2    0    0 -0.24321795271E+00  0.13413776495E+01 -0.11043189379E+03  0.11045460309E+03  0.17770000000E+01 0. -1.
</event>
<event>
 6    1  0.1097339E-002  0.1835476E+03  0.7546771E-02  0.1067624E+00
        -11   -1    0    0    0    0  0.00000000000E+00  0.00000000000E+00  0.18250000000E+03  0.18250000000E+03  0.00000000000E+00 0. -1.
         11   -1    0    0    0    0 -0.00000000000E+00 -0.00000000000E+00 -0.18250000000E+03  0.18250000000E+03  0.00000000000E+00 0. -1.
        -11    1    1    2    0    0  0.16176968683E+01  0.21454942185E+01  0.16470845750E+03  0.16473037382E+03  0.00000000000E+00 0. -1.
         11    1    1    2    0    0 -0.37233075342E+01  0.31332427213E+01 -0.18138712986E+03  0.18145239350E+03  0.00000000000E+00 0. -1.
        -15    1    1    2    0    0  0.34474187643E+01 -0.46431710402E+01  0.14146698142E+02  0.15386049875E+02  0.17770000000E+01 0. -1.
         15    1    1    2    0    0 -0.13418080984E+01 -0.63556589958E+00  0.25319742178E+01  0.34311828026E+01  0.17770000000E+01 0.  1.
</event>
<event>
 6    1  0.1097339E-002  0.1679149E+03  0.7546771E-02  0.1080696E+00
        -11   -1    0    0    0    0  0.00000000000E+00  0.00000000000E+00  0.18250000000E+03  0.18250000000E+03  0.00000000000E+00 0.  1.
         11   -1    0    0    0    0 -0.00000000000E+00 -0.00000000000E+00 -0.18250000000E+03  0.18250000000E+03  0.00000000000E+00 0.  1.
        -11    1    1    2    0    0 -0.24218215320E+01  0.23944796315E+01  0.16562334633E+03  0.16565835808E+03  0.00000000000E+00 0.  1.
         11    1    1    2    0    0  0.20893967527E+02  0.42603912773E+01 -0.16942984961E+03  0.17076645675E+03  0.00000000000E+00 0.  1.
        -15    1    1    2    0    0 -0.28532947449E+01  0.68638717701E+00  0.96709658027E+01  0.10261468063E+02  0.17770000000E+01 0. -1.
         15    1    1    2    0    0 -0.15618851250E+02 -0.73412580858E+01 -0.58644625164E+01  0.18313717106E+02  0.17770000000E+01 0.  1.
</event>
<event>
 6    1  0.1097339E-002  0.1856111E+03  0.7546771E-02  0.1066005E+00
        -11   -1    0    0    0    0  0.00000000000E+00  0.00000000000E+00  0.18250000000E+03  0.18250000000E+03  0.00000000000E+00 0. -1.
         11   -1    0    0    0    0 -0.00000000000E+00 -0.00000000000E+00 -0.18250000000E+03  0.18250000000E+03  0.00000000000E+00 0. -1.
        -11    1    1    2    0    0  0.30975127774E+01  0.10958040438E+02  0.17902713627E+03  0.17938893154E+03  0.00000000000E+00 0. -1.
         11    1    1    2    0    0  0.15751406087E+01  0.24058409622E+01 -0.15084647025E+03  0.15087387689E+03  0.00000000000E+00 0. -1.
        -15    1    1    2    0    0 -0.77348357897E+01 -0.10413889994E+02 -0.11483226431E+02  0.17415481841E+02  0.17770000000E+01 0. -1.
         15    1    1    2    0    0  0.30621824036E+01 -0.29499914064E+01 -0.16697439588E+02  0.17321709736E+02  0.17770000000E+01 0.  1.
</event>
<event>
 6    1  0.1097339E-002  0.1837074E+03  0.7546771E-02  0.1067498E+00
        -11   -1    0    0    0    0  0.00000000000E+00  0.00000000000E+00  0.18250000000E+03  0.18250000000E+03  0.00000000000E+00 0. -1.
         11   -1    0    0    0    0 -0.00000000000E+00 -0.00000000000E+00 -0.18250000000E+03  0.18250000000E+03  0.00000000000E+00 0. -1.
        -11    1    1    2    0    0 -0.29794629401E+01 -0.10217854943E+01  0.18126528344E+03  0.18129264802E+03  0.00000000000E+00 0. -1.
         11    1    1    2    0    0 -0.17491954518E+01 -0.34514209546E+01 -0.16809642488E+03  0.16814095292E+03  0.00000000000E+00 0. -1.
        -15    1    1    2    0    0  0.32928654554E+01  0.46623077428E+01 -0.89078531760E+01  0.10727891387E+02  0.17770000000E+01 0. -1.
         15    1    1    2    0    0  0.14357929365E+01 -0.18910129389E+00 -0.42610053792E+01  0.48385076726E+01  0.17770000000E+01 0.  1.
</event>
<event>
 6    1  0.1097339E-002  0.1837149E+03  0.7546771E-02  0.1067492E+00
        -11   -1    0    0    0    0  0.00000000000E+00  0.00000000000E+00  0.18250000000E+03  0.18250000000E+03  0.00000000000E+00 0.  1.
         11   -1    0    0    0    0 -0.00000000000E+00 -0.00000000000E+00 -0.18250000000E+03  0.18250000000E+03  0.00000000000E+00 0.  1.
        -11    1    1    2    0    0  0.24213211265E+01  0.31453635222E+01  0.18124159924E+03  0.18128506117E+03  0.00000000000E+00 0.  1.
         11    1    1    2    0    0  0.30853798397E+01 -0.49330267610E-02 -0.16895219936E+03  0.16898036945E+03  0.00000000000E+00 0.  1.
        -15    1    1    2    0    0 -0.11469471864E+01 -0.11054821348E+01 -0.68710308302E+01  0.72736766678E+01  0.17770000000E+01 0.  1.
         15    1    1    2    0    0 -0.43597537798E+01 -0.20349483606E+01 -0.54183690512E+01  0.74608927097E+01  0.17770000000E+01 0.  1.
</event>
<event>
 6    1  0.1097339E-002  0.1825474E+03  0.7546771E-02  0.1068417E+00
        -11   -1    0    0    0    0  0.00000000000E+00  0.00000000000E+00  0.18250000000E+03  0.18250000000E+03  0.00000000000E+00 0.  1.
         11   -1    0    0    0    0 -0.00000000000E+00 -0.00000000000E+00 -0.18250000000E+03  0.18250000000E+03  0.00000000000E+00 0.  1.
        -11    1    1    2    0    0  0.36060988718E+01 -0.27342063854E+01  0.18239649617E+03  0.18245262851E+03  0.00000000000E+00 0.  1.
         11    1    1    2    0    0  0.61934994251E+00 -0.20671811210E+00 -0.25514815139E+02  0.25523168265E+02  0.00000000000E+00 0.  1.
        -15    1    1    2    0    0 -0.32790407891E+01  0.10162700377E+01 -0.82807133933E+02  0.82897310406E+02  0.17770000000E+01 0.  1.
         15    1    1    2    0    0 -0.94640802521E+00  0.19246544598E+01 -0.74074547098E+02  0.74126892824E+02  0.17770000000E+01 0. -1.
</event>
<event>
 6    1  0.1097339E-002  0.1799145E+03  0.7546771E-02  0.1070532E+00
        -11   -1    0    0    0    0  0.00000000000E+00  0.00000000000E+00  0.18250000000E+03  0.18250000000E+03  0.00000000000E+00 0.  1.
         11   -1    0    0    0    0 -0.00000000000E+00 -0.00000000000E+00 -0.18250000000E+03  0.18250000000E+03  0.00000000000E+00 0. -1.
        -11    1    1    2    0    0 -0.10122617324E+01 -0.38345579630E+01  0.18029402982E+03  0.18033764360E+03  0.00000000000E+00 0.  1.
         11    1    1    2    0    0 -0.11549543385E+01  0.50428040262E+00 -0.90940639244E+01  0.91809703686E+01  0.00000000000E+00 0. -1.
        -15    1    1    2    0    0 -0.65019953352E+01 -0.15337559853E+02 -0.56334293835E+02  0.58772672872E+02  0.17770000000E+01 0. -1.
         15    1    1    2    0    0  0.86692114061E+01  0.18667837413E+02 -0.11486567206E+03  0.11670871316E+03  0.17770000000E+01 0.  1.
</event>
<event>
 6    1  0.1097339E-002  0.1727614E+03  0.7546771E-02  0.1076482E+00
        -11   -1    0    0    0    0  0.00000000000E+00  0.00000000000E+00  0.18250000000E+03  0.18250000000E+03  0.00000000000E+00 0.  1.
         11   -1    0    0    0    0 -0.00000000000E+00 -0.00000000000E+00 -0.18250000000E+03  0.18250000000E+03  0.00000000000E+00 0.  1.
        -11    1    1    2    0    0  0.32569116287E+01 -0.29751763588E+01  0.17633151591E+03  0.17638668502E+03  0.00000000000E+00 0.  1.
         11    1    1    2    0    0  0.83976848453E+01  0.40243444007E+01 -0.16915263908E+03  0.16940877122E+03  0.00000000000E+00 0.  1.
        -15    1    1    2    0    0  0.68374416693E+00  0.33856376366E+01  0.48456853588E+00  0.39144072295E+01  0.17770000000E+01 0.  1.
         15    1    1    2    0    0 -0.12338340641E+02 -0.44348056785E+01 -0.76634453659E+01  0.15290136528E+02  0.17770000000E+01 0. -1.
</event>
<event>
 6    1  0.1097339E-002  0.1852291E+03  0.7546771E-02  0.1066303E+00
        -11   -1    0    0    0    0  0.00000000000E+00  0.00000000000E+00  0.18250000000E+03  0.18250000000E+03  0.00000000000E+00 0. -1.
         11   -1    0    0    0    0 -0.00000000000E+00 -0.00000000000E+00 -0.18250000000E+03  0.18250000000E+03  0.00000000000E+00 0.  1.
        -11    1    1    2    0    0 -0.74632137107E+01 -0.36191178712E+01  0.17957944054E+03  0.17977089040E+03  0.00000000000E+00 0. -1.
         11    1    1    2    0    0 -0.70504348555E+00 -0.66022182229E+01 -0.16284624589E+03  0.16298155163E+03  0.00000000000E+00 0.  1.
        -15    1    1    2    0    0  0.67445192042E+00  0.12450994711E+01 -0.80981974727E+00  0.24121971538E+01  0.17770000000E+01 0.  1.
         15    1    1    2    0    0  0.74938052758E+01  0.89762366231E+01 -0.15923374901E+02  0.19835360815E+02  0.17770000000E+01 0. -1.
</event>
<event>
 6    1  0.1097339E-002  0.1854584E+03  0.7546771E-02  0.1066124E+00
        -11   -1    0    0    0    0  0.00000000000E+00  0.00000000000E+00  0.18250000000E+03  0.18250000000E+03  0.00000000000E+00 0.  1.
         11   -1    0    0    0    0 -0.00000000000E+00 -0.00000000000E+00 -0.18250000000E+03  0.18250000000E+03  0.00000000000E+00 0. -1.
        -11    1    1    2    0    0  0.81347410787E+00 -0.65982617757E+01  0.17941851768E+03  0.17954164777E+03  0.00000000000E+00 0.  1.
         11    1    1    2    0    0  0.71119064104E+01  0.28037594031E+01 -0.17307824044E+03  0.17324698437E+03  0.00000000000E+00 0. -1.
        -15    1    1    2    0    0 -0.26904303082E+01  0.30656179179E+01 -0.45282486577E+01  0.63481645668E+01  0.17770000000E+01 0. -1.
         15    1    1    2    0    0 -0.52349502101E+01  0.72888445478E+00 -0.18120285779E+01  0.58632032898E+01  0.17770000000E+01 0.  1.
</event>
<event>
 6    1  0.1097339E-002  0.1868549E+03  0.7546771E-02  0.1065040E+00
        -11   -1    0    0    0    0  0.00000000000E+00  0.00000000000E+00  0.18250000000E+03  0.18250000000E+03  0.00000000000E+00 0.  1.
         11   -1    0    0    0    0 -0.00000000000E+00 -0.00000000000E+00 -0.18250000000E+03  0.18250000000E+03  0.00000000000E+00 0.  1.
        -11    1    1    2    0    0 -0.37781854778E+01  0.19408847668E+02  0.17704430856E+03  0.17814506799E+03  0.00000000000E+00 0.  1.
         11    1    1    2    0    0 -0.25326967220E+01 -0.18908876890E+01 -0.15117176461E+03  0.15120480291E+03  0.00000000000E+00 0.  1.
        -15    1    1    2    0    0 -0.37446373120E+01 -0.26081675020E+01 -0.11702095688E+02  0.12685488513E+02  0.17770000000E+01 0.  1.
         15    1    1    2    0    0  0.10055519512E+02 -0.14909792477E+02 -0.14170448265E+02  0.22964640589E+02  0.17770000000E+01 0. -1.
</event>
<event>
 6    1  0.1097339E-002  0.1933435E+03  0.7546771E-02  0.1060137E+00
        -11   -1    0    0    0    0  0.00000000000E+00  0.00000000000E+00  0.18250000000E+03  0.18250000000E+03  0.00000000000E+00 0. -1.
         11   -1    0    0    0    0 -0.00000000000E+00 -0.00000000000E+00 -0.18250000000E+03  0.18250000000E+03  0.00000000000E+00 0. -1.
        -11    1    1    2    0    0  0.23734842989E+01 -0.54945151356E+00  0.17163920063E+03  0.17165648988E+03  0.00000000000E+00 0. -1.
         11    1    1    2    0    0 -0.15570581741E+01  0.17151516162E+01 -0.16667556280E+03  0.16669165969E+03  0.00000000000E+00 0. -1.
        -15    1    1    2    0    0 -0.34671834055E+01  0.61367825175E+01  0.83900017397E+01  0.11100960257E+02  0.17770000000E+01 0. -1.
         15    1    1    2    0    0  0.26507572807E+01 -0.73024826201E+01 -0.13353639566E+02  0.15550890175E+02  0.17770000000E+01 0.  1.
</event>
<event>
 6    1  0.1097339E-002  0.1830681E+03  0.7546771E-02  0.1068004E+00
        -11   -1    0    0    0    0  0.00000000000E+00  0.00000000000E+00  0.18250000000E+03  0.18250000000E+03  0.00000000000E+00 0. -1.
         11   -1    0    0    0    0 -0.00000000000E+00 -0.00000000000E+00 -0.18250000000E+03  0.18250000000E+03  0.00000000000E+00 0.  1.
        -11    1    1    2    0    0  0.46812607343E+00 -0.28523514358E+01  0.11300375938E+03  0.11304072136E+03  0.00000000000E+00 0. -1.
         11    1    1    2    0    0  0.44975448192E+00  0.29250461180E+01 -0.18190785211E+03  0.18193192363E+03  0.00000000000E+00 0.  1.
        -15    1    1    2    0    0  0.63609685820E+00 -0.30132007921E+01  0.57479881071E+01  0.67587790692E+01  0.17770000000E+01 0.  1.
         15    1    1    2    0    0 -0.15539774136E+01  0.29405061099E+01  0.63156104625E+02  0.63268575947E+02  0.17770000000E+01 0.  1.
</event>
<event>
 6    1  0.1097339E-002  0.1769402E+03  0.7546771E-02  0.1072969E+00
        -11   -1    0    0    0    0  0.00000000000E+00  0.00000000000E+00  0.18250000000E+03  0.18250000000E+03  0.00000000000E+00 0. -1.
         11   -1    0    0    0    0 -0.00000000000E+00 -0.00000000000E+00 -0.18250000000E+03  0.18250000000E+03  0.00000000000E+00 0.  1.
        -11    1    1    2    0    0  0.18220206135E+01 -0.20850126884E+01  0.17794025919E+03  0.17796180174E+03  0.00000000000E+00 0. -1.
         11    1    1    2    0    0  0.47202160225E+01 -0.36485698686E+01 -0.17593006183E+03  0.17603118802E+03  0.00000000000E+00 0.  1.
        -15    1    1    2    0    0 -0.33216071584E+01  0.60517413594E+01 -0.12402857044E+01  0.72355155466E+01  0.17770000000E+01 0.  1.
         15    1    1    2    0    0 -0.32206294776E+01 -0.31815880245E+00 -0.76991165957E+00  0.37714946930E+01  0.17770000000E+01 0. -1.
</event>
<event>
 6    1  0.1097339E-002  0.1831035E+03  0.7546771E-02  0.1067975E+00
        -11   -1    0    0    0    0  0.00000000000E+00  0.00000000000E+00  0.18250000000E+03  0.18250000000E+03  0.00000000000E+00 0. -1.
         11   -1    0    0    0    0 -0.00000000000E+00 -0.00000000000E+00 -0.18250000000E+03  0.18250000000E+03  0.00000000000E+00 0.  1.
        -11    1    1    2    0    0 -0.14753289534E+01 -0.48977160503E+01  0.93632389716E+02  0.93772003401E+02  0.00000000000E+00 0. -1.
         11    1    1    2    0    0  0.41215544567E+01 -0.16499224270E+01 -0.18184226966E+03  0.18189645541E+03  0.00000000000E+00 0.  1.
        -15    1    1    2    0    0 -0.18192168643E+01 -0.20935123784E+00  0.35074984737E+01  0.43374707473E+01  0.17770000000E+01 0. -1.
         15    1    1    2    0    0 -0.82700863904E+00  0.67569897152E+01  0.84702381474E+02  0.84994070439E+02  0.17770000000E+01 0.  1.
</event>
<event>
 6    1  0.1097339E-002  0.1834978E+03  0.7546771E-02  0.1067663E+00
        -11   -1    0    0    0    0  0.00000000000E+00  0.00000000000E+00  0.18250000000E+03  0.18250000000E+03  0.00000000000E+00 0.  1.
         11   -1    0    0    0    0 -0.00000000000E+00 -0.00000000000E+00 -0.18250000000E+03  0.18250000000E+03  0.00000000000E+00 0. -1.
        -11    1    1    2    0    0 -0.30100507847E+01  0.18646174995E+01  0.16532417363E+03  0.16536208631E+03  0.00000000000E+00 0.  1.
         11    1    1    2    0    0  0.18255823075E+01 -0.20206881054E+01 -0.18148172553E+03  0.18150215600E+03  0.00000000000E+00 0. -1.
        -15    1    1    2    0    0 -0.11540732952E+01  0.41398546213E+00  0.14679902512E+02  0.14837807651E+02  0.17770000000E+01 0.  1.
         15    1    1    2    0    0  0.23385417724E+01 -0.25791485631E+00  0.14776493925E+01  0.32979500332E+01  0.17770000000E+01 0.  1.
</event>
<event>
 6    1  0.1097339E-002  0.1827014E+03  0.7546771E-02  0.1068295E+00
        -11   -1    0    0    0    0  0.00000000000E+00  0.00000000000E+00  0.18250000000E+03  0.18250000000E+03  0.00000000000E+00 0. -1.
         11   -1    0    0    0    0 -0.00000000000E+00 -0.00000000000E+00 -0.18250000000E+03  0.18250000000E+03  0.00000000000E+00 0.  1.
        -11    1    1    2    0    0  0.17515493544E+01  0.19322758527E+01  0.18227998087E+03  0.18229863697E+03  0.00000000000E+00 0. -1.
         11    1    1    2    0    0 -0.37654473055E+01 -0.20377784509E-01 -0.13910157438E+03  0.13915253143E+03  0.00000000000E+00 0.  1.
        -15    1    1    2    0    0  0.20841656319E+01  0.33075826833E+00 -0.18400832558E+02  0.18606491212E+02  0.17770000000E+01 0.  1.
         15    1    1    2    0    0 -0.70267680838E-01 -0.22426563365E+01 -0.24777573932E+02  0.24942340386E+02  0.17770000000E+01 0. -1.
</event>
<event>
 6    1  0.1097339E-002  0.1827063E+03  0.7546771E-02  0.1068291E+00
        -11   -1    0    0    0    0  0.00000000000E+00  0.00000000000E+00  0.18250000000E+03  0.18250000000E+03  0.00000000000E+00 0. -1.
         11   -1    0    0    0    0 -0.00000000000E+00 -0.00000000000E+00 -0.18250000000E+03  0.18250000000E+03  0.00000000000E+00 0.  1.
        -11    1    1    2    0    0 -0.43133290975E+01 -0.70004966306E+00  0.18224126933E+03  0.18229365081E+03  0.00000000000E+00 0. -1.
         11    1    1    2    0    0  0.16624782978E+01  0.78896452806E+00 -0.58227485987E+02  0.58256556914E+02  0.00000000000E+00 0.  1.
        -15    1    1    2    0    0 -0.33618112435E+01 -0.59644541537E+00 -0.34177063313E+02  0.34393122970E+02  0.17770000000E+01 0.  1.
         15    1    1    2    0    0  0.60126620432E+01  0.50753055037E+00 -0.89836720030E+02  0.90056669308E+02  0.17770000000E+01 0.  1.
</event>
<event>
 6    1  0.1097339E-002  0.1848518E+03  0.7546771E-02  0.1066598E+00
        -11   -1    0    0    0    0  0.00000000000E+00  0.00000000000E+00  0.18250000000E+03  0.18250000000E+03  0.00000000000E+00 0. -1.
         11   -1    0    0    0    0 -0.00000000000E+00 -0.00000000000E+00 -0.18250000000E+03  0.18250000000E+03  0.00000000000E+00 0. -1.
        -11    1    1    2    0    0  0.57812561450E+01 -0.11350960320E+01  0.18005184015E+03  0.18014820706E+03  0.00000000000E+00 0. -1.
         11    1    1    2    0    0  0.45061109267E+01  0.30745276488E+01 -0.16671350346E+03  0.16680272777E+03  0.00000000000E+00 0. -1.
        -15    1    1    2    0    0 -0.77064678104E+01  0.47676332102E+00 -0.69750267237E+01  0.10555836119E+02  0.17770000000E+01 0. -1.
         15    1    1    2    0    0 -0.25808992613E+01 -0.24161949378E+01 -0.63633099665E+01  0.74932290572E+01  0.17770000000E+01 0.  1.
</event>
<event>
 6    1  0.1097339E-002  0.1836884E+03  0.7546771E-02  0.1067513E+00
        -11   -1    0    0    0    0  0.00000000000E+00  0.00000000000E+00  0.18250000000E+03  0.18250000000E+03  0.00000000000E+00 0.  1.
         11   -1    0    0    0    0 -0.00000000000E+00 -0.00000000000E+00 -0.18250000000E+03  0.18250000000E+03  0.00000000000E+00 0.  1.
        -11    1    1    2    0    0  0.62179508542E+00  0.21629037391E+01  0.15386603346E+03  0.15388249099E+03  0.00000000000E+00 0.  1.
         11    1    1    2    0    0  0.67665822420E+01 -0.10067886374E+00 -0.18118528988E+03  0.18131162688E+03  0.00000000000E+00 0.  1.
        -15    1    1    2    0    0 -0.79618956466E+01  0.55029543568E-01  0.14112452886E+02  0.16300732069E+02  0.17770000000E+01 0.  1.
         15    1    1    2    0    0  0.57351831915E+00 -0.21172544190E+01  0.13206803538E+02  0.13505150063E+02  0.17770000000E+01 0. -1.
</event>
<event>
 6    1  0.1097339E-002  0.1833448E+03  0.7546771E-02  0.1067784E+00
        -11   -1    0    0    0    0  0.00000000000E+00  0.00000000000E+00  0.18250000000E+03  0.18250000000E+03  0.00000000000E+00 0.  1.
         11   -1    0    0    0    0 -0.00000000000E+00 -0.00000000000E+00 -0.18250000000E+03  0.18250000000E+03  0.00000000000E+00 0. -1.
        -11    1    1    2    0    0 -0.25437845254E+01 -0.89752746221E+00  0.10692781866E+03  0.10696183804E+03  0.00000000000E+00 0.  1.
         11    1    1    2    0    0 -0.32954308271E+01 -0.75255703087E+00 -0.18162378616E+03  0.18165523913E+03  0.00000000000E+00 0. -1.
        -15    1    1    2    0    0  0.16732831121E+01 -0.30093795582E+01  0.61997594099E+02  0.62118561194E+02  0.17770000000E+01 0.  1.
         15    1    1    2    0    0  0.41659322404E+01  0.46594640512E+01  0.12698373401E+02  0.14264361630E+02  0.17770000000E+01 0. -1.
</event>
<event>
 6    1  0.1097339E-002  0.1840162E+03  0.7546771E-02  0.1067254E+00
        -11   -1    0    0    0    0  0.00000000000E+00  0.00000000000E+00  0.18250000000E+03  0.18250000000E+03  0.00000000000E+00 0. -1.
         11   -1    0    0    0    0 -0.00000000000E+00 -0.00000000000E+00 -0.18250000000E+03  0.18250000000E+03  0.00000000000E+00 0.  1.
        -11    1    1    2    0    0  0.23543420081E+01  0.12919932549E+01  0.18096386870E+03  0.18098379471E+03  0.00000000000E+00 0. -1.
         11    1    1    2    0    0 -0.38906478105E+01  0.22976060990E-01 -0.16499889155E+03  0.16504475720E+03  0.00000000000E+00 0.  1.
        -15    1    1    2    0    0 -0.31996866082E+01  0.12555750907E+01 -0.10077432085E+02  0.10794759359E+02  0.17770000000E+01 0. -1.
         15    1    1    2    0    0  0.47359924105E+01 -0.25705444066E+01 -0.58875450682E+01  0.81766887301E+01  0.17770000000E+01 0.  1.
</event>
<event>
 6    1  0.1097339E-002  0.1836892E+03  0.7546771E-02  0.1067512E+00
        -11   -1    0    0    0    0  0.00000000000E+00  0.00000000000E+00  0.18250000000E+03  0.18250000000E+03  0.00000000000E+00 0. -1.
         11   -1    0    0    0    0 -0.00000000000E+00 -0.00000000000E+00 -0.18250000000E+03  0.18250000000E+03  0.00000000000E+00 0.  1.
        -11    1    1    2    0    0 -0.12893561844E+01  0.46536694946E+01  0.18124650812E+03  0.18131082644E+03  0.00000000000E+00 0. -1.
         11    1    1    2    0    0 -0.24773096891E+01  0.17498934217E+01 -0.16385225524E+03  0.16388032444E+03  0.00000000000E+00 0.  1.
        -15    1    1    2    0    0 -0.40134794058E+00 -0.48180383247E+00 -0.50161779470E+01  0.53584498970E+01  0.17770000000E+01 0.  1.
         15    1    1    2    0    0  0.41680138141E+01 -0.59217590838E+01 -0.12378074928E+02  0.14450399223E+02  0.17770000000E+01 0. -1.
</event>
<event>
 6    1  0.1097339E-002  0.1858233E+03  0.7546771E-02  0.1065840E+00
        -11   -1    0    0    0    0  0.00000000000E+00  0.00000000000E+00  0.18250000000E+03  0.18250000000E+03  0.00000000000E+00 0. -1.
         11   -1    0    0    0    0 -0.00000000000E+00 -0.00000000000E+00 -0.18250000000E+03  0.18250000000E+03  0.00000000000E+00 0.  1.
        -11    1    1    2    0    0 -0.10810273717E+02  0.35098858087E+01  0.17881581262E+03  0.17917666187E+03  0.00000000000E+00 0. -1.
         11    1    1    2    0    0 -0.16514689528E+01 -0.15906064626E+01 -0.14440044182E+03  0.14441864483E+03  0.00000000000E+00 0.  1.
        -15    1    1    2    0    0 -0.40639636207E+01  0.25685122709E+01 -0.41904981515E+01  0.66205029533E+01  0.17770000000E+01 0.  1.
         15    1    1    2    0    0  0.16525706291E+02 -0.44877916170E+01 -0.30224872651E+02  0.34784190342E+02  0.17770000000E+01 0. -1.
</event>
<event>
 6    1  0.1097339E-002  0.1931712E+03  0.7546771E-02  0.1060264E+00
        -11   -1    0    0    0    0  0.00000000000E+00  0.00000000000E+00  0.18250000000E+03  0.18250000000E+03  0.00000000000E+00 0. -1.
         11   -1    0    0    0    0 -0.00000000000E+00 -0.00000000000E+00 -0.18250000000E+03  0.18250000000E+03  0.00000000000E+00 0.  1.
        -11    1    1    2    0    0  0.96638211978E+00 -0.21964705721E+01  0.12937246983E+03  0.12939472295E+03  0.00000000000E+00 0. -1.
         11    1    1    2    0    0 -0.73365684316E+01  0.13456967157E+02 -0.17114390258E+03  0.17182884098E+03  0.00000000000E+00 0.  1.
        -15    1    1    2    0    0  0.15245305483E+02  0.11527781529E+02  0.54517961884E+01  0.19954671055E+02  0.17770000000E+01 0. -1.
         15    1    1    2    0    0 -0.88751191708E+01 -0.22788278113E+02  0.36319636567E+02  0.43821765015E+02  0.17770000000E+01 0.  1.
</event>
<event>
 6    1  0.1097339E-002  0.1898672E+03  0.7546771E-02  0.1062737E+00
        -11   -1    0    0    0    0  0.00000000000E+00  0.00000000000E+00  0.18250000000E+03  0.18250000000E+03  0.00000000000E+00 0.  1.
         11   -1    0    0    0    0 -0.00000000000E+00 -0.00000000000E+00 -0.18250000000E+03  0.18250000000E+03  0.00000000000E+00 0. -1.
        -11    1    1    2    0    0  0.96782522484E+00  0.40414641246E+01  0.17508345699E+03  0.17513276972E+03  0.00000000000E+00 0.  1.
         11    1    1    2    0    0 -0.57612020815E+01 -0.85169040679E+01 -0.14800266109E+03  0.14835941761E+03  0.00000000000E+00 0. -1.
        -15    1    1    2    0    0 -0.75680482993E+01  0.13817762921E+02 -0.13242040158E+02  0.20657087979E+02  0.17770000000E+01 0. -1.
         15    1    1    2    0    0  0.12361425156E+02 -0.93423229779E+01 -0.13838755745E+02  0.20850724690E+02  0.17770000000E+01 0.  1.
</event>
<event>
 6    1  0.1097339E-002  0.1475782E+03  0.7546771E-02  0.1100246E+00
        -11   -1    0    0    0    0  0.00000000000E+00  0.00000000000E+00  0.18250000000E+03  0.18250000000E+03  0.00000000000E+00 0.  1.
         11   -1    0    0    0    0 -0.00000000000E+00 -0.00000000000E+00 -0.18250000000E+03  0.18250000000E+03  0.00000000000E+00 0. -1.
        -11    1    1    2    0    0 -0.21870825530E+02 -0.19942756587E+02  0.14343214348E+03  0.14645417827E+03  0.00000000000E+00 0.  1.
         11    1    1    2    0    0 -0.38614285493E+00 -0.20113192755E+01 -0.15042169934E+03  0.15043564120E+03  0.00000000000E+00 0. -1.
        -15    1    1    2    0    0  0.35987501583E+02  0.25313287168E+02  0.20413071891E+02  0.48535698310E+02  0.17770000000E+01 0.  1.
         15    1    1    2    0    0 -0.13730533198E+02 -0.33592113055E+01 -0.13423516027E+02  0.19574482216E+02  0.17770000000E+01 0. -1.
</event>
<event>
 6    1  0.1860151E-002  0.1851866E+03  0.7546771E-02  0.1066336E+00
        -11   -1    0    0    0    0  0.00000000000E+00  0.00000000000E+00  0.18250000000E+03  0.18250000000E+03  0.00000000000E+00 0. -1.
         11   -1    0    0    0    0 -0.00000000000E+00 -0.00000000000E+00 -0.18250000000E+03  0.18250000000E+03  0.00000000000E+00 0.  1.
        -11    1    1    2    0    0 -0.45765967473E+00  0.32728437798E+01  0.17978307288E+03  0.17981344292E+03  0.00000000000E+00 0. -1.
         11    1    1    2    0    0  0.24658532046E+01 -0.67209888017E+01 -0.15230547647E+03  0.15247363800E+03  0.00000000000E+00 0.  1.
        -15    1    1    2    0    0 -0.33778037303E+01  0.54431772922E+01 -0.28708444738E+02  0.29468122868E+02  0.17770000000E+01 0.  1.
         15    1    1    2    0    0  0.13696102004E+01 -0.19950322703E+01  0.12308483261E+01  0.32447962128E+01  0.17770000000E+01 0. -1.
</event>
<event>
 6    1  0.1097339E-002  0.1864667E+03  0.7546771E-02  0.1065340E+00
        -11   -1    0    0    0    0  0.00000000000E+00  0.00000000000E+00  0.18250000000E+03  0.18250000000E+03  0.00000000000E+00 0.  1.
         11   -1    0    0    0    0 -0.00000000000E+00 -0.00000000000E+00 -0.18250000000E+03  0.18250000000E+03  0.00000000000E+00 0.  1.
        -11    1    1    2    0    0  0.79176012537E+01  0.38375983125E+01  0.17831639161E+03  0.17853333327E+03  0.00000000000E+00 0.  1.
         11    1    1    2    0    0  0.10389085243E+01 -0.24179599505E+01 -0.16502098647E+03  0.16504196992E+03  0.00000000000E+00 0.  1.
        -15    1    1    2    0    0 -0.68430505267E+01  0.56817450079E+01 -0.84418736118E+01  0.12390824263E+02  0.17770000000E+01 0.  1.
         15    1    1    2    0    0 -0.21134592513E+01 -0.71013833699E+01 -0.48535315326E+01  0.90338725423E+01  0.17770000000E+01 0. -1.
</event>
<event>
 6    1  0.1097339E-002  0.1835751E+03  0.7546771E-02  0.1067602E+00
        -11   -1    0    0    0    0  0.00000000000E+00  0.00000000000E+00  0.18250000000E+03  0.18250000000E+03  0.00000000000E+00 0.  1.
         11   -1    0    0    0    0 -0.00000000000E+00 -0.00000000000E+00 -0.18250000000E+03  0.18250000000E+03  0.00000000000E+00 0. -1.
        -11    1    1    2    0    0 -0.18230351271E+01  0.87562565275E+01  0.68272215809E+02  0.68855580288E+02  0.00000000000E+00 0.  1.
         11    1    1    2    0    0 -0.45001786124E+01 -0.55873145536E+01 -0.18128301195E+03  0.18142491591E+03  0.00000000000E+00 0. -1.
        -15    1    1    2    0    0 -0.34338709278E+01  0.52701459710E+01  0.31035339879E+02  0.31716178183E+02  0.17770000000E+01 0. -1.
         15    1    1    2    0    0  0.97570846673E+01 -0.84390879449E+01  0.81975456258E+02  0.83003325622E+02  0.17770000000E+01 0.  1.
</event>
<event>
 6    1  0.1097339E-002  0.1840145E+03  0.7546771E-02  0.1067256E+00
        -11   -1    0    0    0    0  0.00000000000E+00  0.00000000000E+00  0.18250000000E+03  0.18250000000E+03  0.00000000000E+00 0.  1.
         11   -1    0    0    0    0 -0.00000000000E+00 -0.00000000000E+00 -0.18250000000E+03  0.18250000000E+03  0.00000000000E+00 0. -1.
        -11    1    1    2    0    0 -0.21830537737E+01  0.21721609678E+01  0.18095925136E+03  0.18098545427E+03  0.00000000000E+00 0.  1.
         11    1    1    2    0    0 -0.10895466145E+01 -0.22580825890E+01 -0.17598487483E+03  0.17600273355E+03  0.00000000000E+00 0. -1.
        -15    1    1    2    0    0  0.23060071709E+00  0.16387135987E+01 -0.18197787768E+01  0.30344493316E+01  0.17770000000E+01 0.  1.
         15    1    1    2    0    0  0.30419996711E+01 -0.15527919776E+01 -0.31545977481E+01  0.49773628436E+01  0.17770000000E+01 0. -1.
</event>
<event>
 6    1  0.1097339E-002  0.1882751E+03  0.7546771E-02  0.1063949E+00
        -11   -1    0    0    0    0  0.00000000000E+00  0.00000000000E+00  0.18250000000E+03  0.18250000000E+03  0.00000000000E+00 0. -1.
         11   -1    0    0    0    0 -0.00000000000E+00 -0.00000000000E+00 -0.18250000000E+03  0.18250000000E+03  0.00000000000E+00 0.  1.
        -11    1    1    2    0    0 -0.47842852648E+01 -0.32808474758E+01  0.17662965725E+03  0.17672489685E+03  0.00000000000E+00 0. -1.
         11    1    1    2    0    0  0.52766232216E+01 -0.14427001940E+01 -0.16132202348E+03  0.16141474343E+03  0.00000000000E+00 0.  1.
        -15    1    1    2    0    0 -0.15413960427E+01 -0.81176052390E+00  0.50678112151E+01  0.56458211467E+01  0.17770000000E+01 0.  1.
         15    1    1    2    0    0  0.10490580859E+01  0.55353081937E+01 -0.20375444989E+02  0.21214538580E+02  0.17770000000E+01 0. -1.
</event>
<event>
 6    1  0.1097339E-002  0.1882630E+03  0.7546771E-02  0.1063958E+00
        -11   -1    0    0    0    0  0.00000000000E+00  0.00000000000E+00  0.18250000000E+03  0.18250000000E+03  0.00000000000E+00 0.  1.
         11   -1    0    0    0    0 -0.00000000000E+00 -0.00000000000E+00 -0.18250000000E+03  0.18250000000E+03  0.00000000000E+00 0. -1.
        -11    1    1    2    0    0  0.96516445167E+00 -0.22450933202E+01  0.13344623015E+03  0.13346860428E+03  0.00000000000E+00 0.  1.
         11    1    1    2    0    0 -0.19543130982E+01 -0.24353962999E+01 -0.17670937900E+03  0.17673696592E+03  0.00000000000E+00 0. -1.
        -15    1    1    2    0    0 -0.20336429162E+01 -0.10874304750E+01 -0.51484011227E+01  0.59145559147E+01  0.17770000000E+01 0. -1.
         15    1    1    2    0    0  0.30227915627E+01  0.57679200951E+01  0.48411549974E+02  0.48879873884E+02  0.17770000000E+01 0.  1.
</event>
<event>
 6    1  0.1097339E-002  0.1849272E+03  0.7546771E-02  0.1066539E+00
        -11   -1    0    0    0    0  0.00000000000E+00  0.00000000000E+00  0.18250000000E+03  0.18250000000E+03  0.00000000000E+00 0. -1.
         11   -1    0    0    0    0 -0.00000000000E+00 -0.00000000000E+00 -0.18250000000E+03  0.18250000000E+03  0.00000000000E+00 0.  1.
        -11    1    1    2    0    0  0.31051952187E+01  0.29567358416E+01  0.16858356398E+03  0.16863808161E+03  0.00000000000E+00 0. -1.
         11    1    1    2    0    0  0.31541432919E+01 -0.16118449697E+01 -0.18003796347E+03  0.18007280460E+03  0.00000000000E+00 0.  1.
        -15    1    1    2    0    0 -0.15373935044E+00 -0.42309671318E+01  0.48170614211E+01  0.66548124236E+01  0.17770000000E+01 0. -1.
         15    1    1    2    0    0 -0.61055991601E+01  0.28860762599E+01  0.66373380723E+01  0.96343013742E+01  0.17770000000E+01 0. -1.
</event>
<event>
 6    1  0.1097339E-002  0.1833158E+03  0.7546771E-02  0.1067807E+00
        -11   -1    0    0    0    0  0.00000000000E+00  0.00000000000E+00  0.18250000000E+03  0.18250000000E+03  0.00000000000E+00 0. -1.
         11   -1    0    0    0    0 -0.00000000000E+00 -0.00000000000E+00 -0.18250000000E+03  0.18250000000E+03  0.00000000000E+00 0. -1.
        -11    1    1    2    0    0  0.11838875917E+02 -0.10099837857E+01  0.18129527093E+03  0.18168421591E+03  0.00000000000E+00 0. -1.
         11    1    1    2    0    0  0.32600078637E+00 -0.46881780200E+00 -0.27318225922E+02  0.27324193202E+02  0.00000000000E+00 0. -1.
        -15    1    1    2    0    0 -0.19579095712E+01  0.69029101829E+01 -0.17272828294E+02  0.18788078804E+02  0.17770000000E+01 0.  1.
         15    1    1    2    0    0 -0.10206967132E+02 -0.54241085952E+01 -0.13670421671E+03  0.13720351208E+03  0.17770000000E+01 0. -1.
</event>
<event>
 6    1  0.1097339E-002  0.1858531E+03  0.7546771E-02  0.1065817E+00
        -11   -1    0    0    0    0  0.00000000000E+00  0.00000000000E+00  0.18250000000E+03  0.18250000000E+03  0.00000000000E+00 0.  1.
         11   -1    0    0    0    0 -0.00000000000E+00 -0.00000000000E+00 -0.18250000000E+03  0.18250000000E+03  0.00000000000E+00 0. -1.
        -11    1    1    2    0    0  0.20537564228E+01  0.36816262968E+01  0.17909727840E+03  0.17914688783E+03  0.00000000000E+00 0.  1.
         11    1    1    2    0    0  0.22161468387E+01  0.18758467023E+01 -0.15004037002E+03  0.15006846019E+03  0.00000000000E+00 0. -1.
        -15    1    1    2    0    0 -0.10507699795E+01 -0.55639576915E+00 -0.29485120048E+02  0.29562539253E+02  0.17770000000E+01 0. -1.
         15    1    1    2    0    0 -0.32191332820E+01 -0.50010772300E+01  0.42821167027E+00  0.62221127266E+01  0.17770000000E+01 0.  1.
</event>
<event>
 6    1  0.1097339E-002  0.1833055E+03  0.7546771E-02  0.1067815E+00
        -11   -1    0    0    0    0  0.00000000000E+00  0.00000000000E+00  0.18250000000E+03  0.18250000000E+03  0.00000000000E+00 0.  1.
         11   -1    0    0    0    0 -0.00000000000E+00 -0.00000000000E+00 -0.18250000000E+03  0.18250000000E+03  0.00000000000E+00 0. -1.
        -11    1    1    2    0    0  0.23303214070E+00  0.26846921293E+01  0.18167453832E+03  0.18169452317E+03  0.00000000000E+00 0.  1.
         11    1    1    2    0    0 -0.77351880448E+00 -0.21772606235E+01 -0.15913488386E+03  0.15915165740E+03  0.00000000000E+00 0. -1.
        -15    1    1    2    0    0  0.23560607575E+01  0.13057614235E+01 -0.19607846364E+02  0.19871623064E+02  0.17770000000E+01 0.  1.
         15    1    1    2    0    0 -0.18155740938E+01 -0.18131929292E+01 -0.29318081048E+01  0.42821963584E+01  0.17770000000E+01 0. -1.
</event>
<event>
 6    1  0.1097339E-002  0.1874012E+03  0.7546771E-02  0.1064619E+00
        -11   -1    0    0    0    0  0.00000000000E+00  0.00000000000E+00  0.18250000000E+03  0.18250000000E+03  0.00000000000E+00 0.  1.
         11   -1    0    0    0    0 -0.00000000000E+00 -0.00000000000E+00 -0.18250000000E+03  0.18250000000E+03  0.00000000000E+00 0. -1.
        -11    1    1    2    0    0 -0.12420509099E+01 -0.43178338230E+01  0.17754197659E+03  0.17759881709E+03  0.00000000000E+00 0.  1.
         11    1    1    2    0    0  0.24974556321E+01 -0.38102303343E+01 -0.14983641959E+03  0.14990566292E+03  0.00000000000E+00 0. -1.
        -15    1    1    2    0    0  0.32938147289E+01  0.15686018324E+02 -0.15848744855E+02  0.22610635303E+02  0.17770000000E+01 0. -1.
         15    1    1    2    0    0 -0.45492194511E+01 -0.75579541662E+01 -0.11856812152E+02  0.14884884689E+02  0.17770000000E+01 0.  1.
</event>
<event>
 6    1  0.1097339E-002  0.1775246E+03  0.7546771E-02  0.1072486E+00
        -11   -1    0    0    0    0  0.00000000000E+00  0.00000000000E+00  0.18250000000E+03  0.18250000000E+03  0.00000000000E+00 0.  1.
         11   -1    0    0    0    0 -0.00000000000E+00 -0.00000000000E+00 -0.18250000000E+03  0.18250000000E+03  0.00000000000E+00 0.  1.
        -11    1    1    2    0    0 -0.80556416466E+00  0.24656922906E+01  0.17727509526E+03  0.17729407202E+03  0.00000000000E+00 0.  1.
         11    1    1    2    0    0  0.32661755759E+01 -0.41559631027E+00 -0.17773938589E+03  0.17776987911E+03  0.00000000000E+00 0.  1.
        -15    1    1    2    0    0  0.16384296780E+01 -0.75526408823E+00 -0.31526881541E+01  0.40437664682E+01  0.17770000000E+01 0.  1.
         15    1    1    2    0    0 -0.40990410892E+01 -0.12948318921E+01  0.36169787747E+01  0.58922824047E+01  0.17770000000E+01 0. -1.
</event>
<event>
 6    1  0.1097339E-002  0.1854607E+03  0.7546771E-02  0.1066122E+00
        -11   -1    0    0    0    0  0.00000000000E+00  0.00000000000E+00  0.18250000000E+03  0.18250000000E+03  0.00000000000E+00 0. -1.
         11   -1    0    0    0    0 -0.00000000000E+00 -0.00000000000E+00 -0.18250000000E+03  0.18250000000E+03  0.00000000000E+00 0. -1.
        -11    1    1    2    0    0 -0.19155858506E+01 -0.39211747905E+01  0.15326282351E+03  0.15332494301E+03  0.00000000000E+00 0. -1.
         11    1    1    2    0    0 -0.76480211453E+00 -0.54718055194E+01 -0.17945431445E+03  0.17953934541E+03  0.00000000000E+00 0. -1.
        -15    1    1    2    0    0 -0.15595529853E+01  0.11320872069E+02  0.10321431484E+02  0.15501097600E+02  0.17770000000E+01 0. -1.
         15    1    1    2    0    0  0.42399409504E+01 -0.19278917596E+01  0.15870059457E+02  0.16634613974E+02  0.17770000000E+01 0.  1.
</event>
<event>
 6    1  0.1097339E-002  0.1951360E+03  0.7546771E-02  0.1058819E+00
        -11   -1    0    0    0    0  0.00000000000E+00  0.00000000000E+00  0.18250000000E+03  0.18250000000E+03  0.00000000000E+00 0. -1.
         11   -1    0    0    0    0 -0.00000000000E+00 -0.00000000000E+00 -0.18250000000E+03  0.18250000000E+03  0.00000000000E+00 0. -1.
        -11    1    1    2    0    0  0.27269620882E+01  0.16018628216E+02  0.16908503882E+03  0.16986401362E+03  0.00000000000E+00 0. -1.
         11    1    1    2    0    0  0.10929956587E+01  0.24346447696E+01 -0.12694716274E+03  0.12697521121E+03  0.00000000000E+00 0. -1.
        -15    1    1    2    0    0 -0.45573772736E+01 -0.20929306901E+02  0.40457798805E+01  0.21870794197E+02  0.17770000000E+01 0.  1.
         15    1    1    2    0    0  0.73741952669E+00  0.24760339161E+01 -0.46183655959E+02  0.46289980971E+02  0.17770000000E+01 0. -1.
</event>
<event>
 6    1  0.1097339E-002  0.1853012E+03  0.7546771E-02  0.1066247E+00
        -11   -1    0    0    0    0  0.00000000000E+00  0.00000000000E+00  0.18250000000E+03  0.18250000000E+03  0.00000000000E+00 0. -1.
         11   -1    0    0    0    0 -0.00000000000E+00 -0.00000000000E+00 -0.18250000000E+03  0.18250000000E+03  0.00000000000E+00 0.  1.
        -11    1    1    2    0    0  0.26463014118E+01 -0.67041893718E+00  0.17967803922E+03  0.17969877616E+03  0.00000000000E+00 0. -1.
         11    1    1    2    0    0 -0.19055542733E+01  0.25765009170E+01 -0.17543433434E+03  0.17546360067E+03  0.00000000000E+00 0.  1.
        -15    1    1    2    0    0  0.28114277696E+01 -0.31584499551E+01 -0.14031548472E+01  0.47965096422E+01  0.17770000000E+01 0. -1.
         15    1    1    2    0    0 -0.35521749081E+01  0.12523679753E+01 -0.28405500327E+01  0.50411135289E+01  0.17770000000E+01 0.  1.
</event>
<event>
 6    1  0.1097339E-002  0.1868308E+03  0.7546771E-02  0.1065059E+00
        -11   -1    0    0    0    0  0.00000000000E+00  0.00000000000E+00  0.18250000000E+03  0.18250000000E+03  0.00000000000E+00 0.  1.
         11   -1    0    0    0    0 -0.00000000000E+00 -0.00000000000E+00 -0.18250000000E+03  0.18250000000E+03  0.00000000000E+00 0. -1.
        -11    1    1    2    0    0 -0.22182804579E+01  0.18828660131E+02  0.12242190039E+03  0.12388123710E+03  0.00000000000E+00 0.  1.
         11    1    1    2    0    0  0.72225771663E+01 -0.48194676487E+01 -0.17795752743E+03  0.17816922983E+03  0.00000000000E+00 0. -1.
        -15    1    1    2    0    0 -0.10279782311E+01  0.65453976935E+01  0.58925039374E+01  0.90431356211E+01  0.17770000000E+01 0.  1.
         15    1    1    2    0    0 -0.39763184773E+01 -0.20554590176E+02  0.49643123104E+02  0.53906397454E+02  0.17770000000E+01 0. -1.
</event>
<event>
 6    1  0.1097339E-002  0.1844056E+03  0.7546771E-02  0.1066948E+00
        -11   -1    0    0    0    0  0.00000000000E+00  0.00000000000E+00  0.18250000000E+03  0.18250000000E+03  0.00000000000E+00 0.  1.
         11   -1    0    0    0    0 -0.00000000000E+00 -0.00000000000E+00 -0.18250000000E+03  0.18250000000E+03  0.00000000000E+00 0.  1.
        -11    1    1    2    0    0  0.84169514125E+00  0.48906298518E+01  0.91087483565E+02  0.91222565044E+02  0.00000000000E+00 0.  1.
         11    1    1    2    0    0  0.39832097454E+01 -0.66900078605E+01 -0.18042649272E+03  0.18059441143E+03  0.00000000000E+00 0.  1.
        -15    1    1    2    0    0  0.16447576568E+01 -0.27901408057E+01  0.82435670517E+02  0.82518407741E+02  0.17770000000E+01 0. -1.
         15    1    1    2    0    0 -0.64696625435E+01  0.45895188145E+01  0.69033386403E+01  0.10664615781E+02  0.17770000000E+01 0.  1.
</event>
<event>
 6    1  0.1097339E-002  0.1890508E+03  0.7546771E-02  0.1063357E+00
        -11   -1    0    0    0    0  0.00000000000E+00  0.00000000000E+00  0.18250000000E+03  0.18250000000E+03  0.00000000000E+00 0. -1.
         11   -1    0    0    0    0 -0.00000000000E+00 -0.00000000000E+00 -0.18250000000E+03  0.18250000000E+03  0.00000000000E+00 0. -1.
        -11    1    1    2    0    0  0.27363663498E+01 -0.37312153513E+01  0.73520245927E+02  0.73665705929E+02  0.00000000000E+00 0. -1.
         11    1    1    2    0    0  0.11006243927E+02  0.38317003087E+01 -0.17556285743E+03  0.17594924337E+03  0.00000000000E+00 0. -1.
        -15    1    1    2    0    0 -0.11095782217E+02  0.13566055200E+02  0.99593621495E+02  0.10113951457E+03  0.17770000000E+01 0. -1.
         15    1    1    2    0    0 -0.26468280594E+01 -0.13666540157E+02  0.24489900061E+01  0.14245536132E+02  0.17770000000E+01 0.  1.
</event>
<event>
 6    1  0.1097339E-002  0.1883257E+03  0.7546771E-02  0.1063910E+00
        -11   -1    0    0    0    0  0.00000000000E+00  0.00000000000E+00  0.18250000000E+03  0.18250000000E+03  0.00000000000E+00 0. -1.
         11   -1    0    0    0    0 -0.00000000000E+00 -0.00000000000E+00 -0.18250000000E+03  0.18250000000E+03  0.00000000000E+00 0.  1.
        -11    1    1    2    0    0 -0.18824832010E+01  0.10652881351E+01  0.15698769046E+03  0.15700259087E+03  0.00000000000E+00 0. -1.
         11    1    1    2    0    0 -0.13691718330E+02 -0.59651935408E+01 -0.17604193912E+03  0.17667430773E+03  0.00000000000E+00 0.  1.
        -15    1    1    2    0    0  0.14190178554E+02  0.27654416684E+01  0.22425714749E+02  0.26740965690E+02  0.17770000000E+01 0. -1.
         15    1    1    2    0    0  0.13840229777E+01  0.21344637373E+01 -0.33714660947E+01  0.45821357112E+01  0.17770000000E+01 0.  1.
</event>
<event>
 6    1  0.1097339E-002  0.1831128E+03  0.7546771E-02  0.1067968E+00
        -11   -1    0    0    0    0  0.00000000000E+00  0.00000000000E+00  0.18250000000E+03  0.18250000000E+03  0.00000000000E+00 0.  1.
         11   -1    0    0    0    0 -0.00000000000E+00 -0.00000000000E+00 -0.18250000000E+03  0.18250000000E+03  0.00000000000E+00 0. -1.
        -11    1    1    2    0    0  0.14613030979E+00 -0.47999850360E+01  0.18182379806E+03  0.18188720337E+03  0.00000000000E+00 0.  1.
         11    1    1    2    0    0  0.13550402595E+01  0.17032326797E+01 -0.15661629134E+03  0.15663141399E+03  0.00000000000E+00 0. -1.
        -15    1    1    2    0    0 -0.34435393942E+01  0.28609315942E+01 -0.20727386628E+02  0.21279689344E+02  0.17770000000E+01 0. -1.
         15    1    1    2    0    0  0.19423688249E+01  0.23582076204E+00 -0.44801200860E+01  0.52016932886E+01  0.17770000000E+01 0. -1.
</event>
<event>
 6    1  0.1097339E-002  0.1836685E+03  0.7546771E-02  0.1067528E+00
        -11   -1    0    0    0    0  0.00000000000E+00  0.00000000000E+00  0.18250000000E+03  0.18250000000E+03  0.00000000000E+00 0.  1.
         11   -1    0    0    0    0 -0.00000000000E+00 -0.00000000000E+00 -0.18250000000E+03  0.18250000000E+03  0.00000000000E+00 0.  1.
        -11    1    1    2    0    0  0.60995736420E+00  0.30443683354E+01  0.12226097600E+03  0.12230039443E+03  0.00000000000E+00 0.  1.
         11    1    1    2    0    0  0.35593579986E+01  0.10789793216E+02 -0.18097520475E+03  0.18133150140E+03  0.00000000000E+00 0.  1.
        -15    1    1    2    0    0 -0.24318746237E+00  0.62025774968E+00  0.23499421917E+01  0.30205656957E+01  0.17770000000E+01 0.  1.
         15    1    1    2    0    0 -0.39261279004E+01 -0.14454419301E+02  0.56364286555E+02  0.58347538470E+02  0.17770000000E+01 0.  1.
</event>
<event>
 6    1  0.1097339E-002  0.1827043E+03  0.7546771E-02  0.1068292E+00
        -11   -1    0    0    0    0  0.00000000000E+00  0.00000000000E+00  0.18250000000E+03  0.18250000000E+03  0.00000000000E+00 0.  1.
         11   -1    0    0    0    0 -0.00000000000E+00 -0.00000000000E+00 -0.18250000000E+03  0.18250000000E+03  0.00000000000E+00 0. -1.
        -11    1    1    2    0    0 -0.51318871404E+01  0.21621229799E+01  0.18221059673E+03  0.18229567357E+03  0.00000000000E+00 0.  1.
         11    1    1    2    0    0 -0.74727762266E+00 -0.24592195413E+00 -0.17350373140E+02  0.17368199376E+02  0.00000000000E+00 0. -1.
        -15    1    1    2    0    0 -0.83396641468E+00 -0.83063514883E-02 -0.10848730254E+03  0.10850506030E+03  0.17770000000E+01 0. -1.
         15    1    1    2    0    0  0.67131311778E+01 -0.19078946742E+01 -0.56372921045E+02  0.56831066755E+02  0.17770000000E+01 0. -1.
</event>
<event>
 6    1  0.1097339E-002  0.1834803E+03  0.7546771E-02  0.1067677E+00
        -11   -1    0    0    0    0  0.00000000000E+00  0.00000000000E+00  0.18250000000E+03  0.18250000000E+03  0.00000000000E+00 0.  1.
         11   -1    0    0    0    0 -0.00000000000E+00 -0.00000000000E+00 -0.18250000000E+03  0.18250000000E+03  0.00000000000E+00 0.  1.
        -11    1    1    2    0    0  0.47591469038E+01  0.18874709673E+01  0.16178122331E+03  0.16186221376E+03  0.00000000000E+00 0.  1.
         11    1    1    2    0    0 -0.34487356989E+01 -0.41227268269E+01 -0.18144006228E+03  0.18151965969E+03  0.00000000000E+00 0.  1.
        -15    1    1    2    0    0 -0.79927411328E+00 -0.29017784217E+01  0.86602706515E+01  0.93390135386E+01  0.17770000000E+01 0.  1.
         15    1    1    2    0    0 -0.51113709165E+00  0.51370342813E+01  0.10998568315E+02  0.12279113010E+02  0.17770000000E+01 0. -1.
</event>
<event>
 6    1  0.1097339E-002  0.1830914E+03  0.7546771E-02  0.1067985E+00
        -11   -1    0    0    0    0  0.00000000000E+00  0.00000000000E+00  0.18250000000E+03  0.18250000000E+03  0.00000000000E+00 0.  1.
         11   -1    0    0    0    0 -0.00000000000E+00 -0.00000000000E+00 -0.18250000000E+03  0.18250000000E+03  0.00000000000E+00 0. -1.
        -11    1    1    2    0    0 -0.23814963000E+01  0.42160835723E+01  0.18184413970E+03  0.18190859801E+03  0.00000000000E+00 0.  1.
         11    1    1    2    0    0 -0.26634610591E+01  0.15344211598E+01 -0.12239461501E+03  0.12243320732E+03  0.00000000000E+00 0. -1.
        -15    1    1    2    0    0  0.23991014181E+01 -0.17256101719E+01 -0.47840202046E+02  0.47964320895E+02  0.17770000000E+01 0. -1.
         15    1    1    2    0    0  0.26458559411E+01 -0.40248945602E+01 -0.11609322652E+02  0.12693873771E+02  0.17770000000E+01 0. -1.
</event>
<event>
 6    1  0.1097339E-002  0.1837017E+03  0.7546771E-02  0.1067502E+00
        -11   -1    0    0    0    0  0.00000000000E+00  0.00000000000E+00  0.18250000000E+03  0.18250000000E+03  0.00000000000E+00 0.  1.
         11   -1    0    0    0    0 -0.00000000000E+00 -0.00000000000E+00 -0.18250000000E+03  0.18250000000E+03  0.00000000000E+00 0.  1.
        -11    1    1    2    0    0  0.13266783949E+01 -0.25241778312E+01  0.17460956741E+03  0.17463285081E+03  0.00000000000E+00 0.  1.
         11    1    1    2    0    0  0.14889484329E+01  0.28542479030E+01 -0.18126975546E+03  0.18129833960E+03  0.00000000000E+00 0.  1.
        -15    1    1    2    0    0  0.11874104277E+00 -0.10539206514E+01  0.75813237727E+00  0.22039378113E+01  0.17770000000E+01 0. -1.
         15    1    1    2    0    0 -0.29343678706E+01  0.72385057965E+00  0.59020556645E+01  0.68648717780E+01  0.17770000000E+01 0.  1.
</event>
<event>
 6    1  0.1097339E-002  0.1846399E+03  0.7546771E-02  0.1066764E+00
        -11   -1    0    0    0    0  0.00000000000E+00  0.00000000000E+00  0.18250000000E+03  0.18250000000E+03  0.00000000000E+00 0. -1.
         11   -1    0    0    0    0 -0.00000000000E+00 -0.00000000000E+00 -0.18250000000E+03  0.18250000000E+03  0.00000000000E+00 0. -1.
        -11    1    1    2    0    0  0.34413877271E+01 -0.23829768821E+01  0.18031150355E+03  0.18036008439E+03  0.00000000000E+00 0. -1.
         11    1    1    2    0    0  0.41761712846E+01  0.16308249252E+01 -0.15564489569E+03  0.15570945235E+03  0.00000000000E+00 0. -1.
        -15    1    1    2    0    0 -0.90621709804E+01  0.95438761307E+00 -0.24943125795E+02  0.26614865245E+02  0.17770000000E+01 0. -1.
         15    1    1    2    0    0  0.14446119687E+01 -0.20223565616E+00  0.27651793005E+00  0.23155980148E+01  0.17770000000E+01 0.  1.
</event>
<event>
 6    1  0.1097339E-002  0.1835778E+03  0.7546771E-02  0.1067600E+00
        -11   -1    0    0    0    0  0.00000000000E+00  0.00000000000E+00  0.18250000000E+03  0.18250000000E+03  0.00000000000E+00 0.  1.
         11   -1    0    0    0    0 -0.00000000000E+00 -0.00000000000E+00 -0.18250000000E+03  0.18250000000E+03  0.00000000000E+00 0.  1.
        -11    1    1    2    0    0  0.54217781672E+01 -0.10063242928E+01  0.18133832734E+03  0.18142215225E+03  0.00000000000E+00 0.  1.
         11    1    1    2    0    0 -0.20515713741E+01 -0.27138871897E+01 -0.16619527956E+03  0.16623009679E+03  0.00000000000E+00 0.  1.
        -15    1    1    2    0    0  0.10917091974E+01  0.65809028581E+00 -0.75214449503E+01  0.78329288862E+01  0.17770000000E+01 0. -1.
         15    1    1    2    0    0 -0.44619159906E+01  0.30621211966E+01 -0.76216028203E+01  0.95148220730E+01  0.17770000000E+01 0.  1.
</event>
<event>
 6    1  0.1097339E-002  0.1789286E+03  0.7546771E-02  0.1071334E+00
        -11   -1    0    0    0    0  0.00000000000E+00  0.00000000000E+00  0.18250000000E+03  0.18250000000E+03  0.00000000000E+00 0.  1.
         11   -1    0    0    0    0 -0.00000000000E+00 -0.00000000000E+00 -0.18250000000E+03  0.18250000000E+03  0.00000000000E+00 0. -1.
        -11    1    1    2    0    0 -0.29584974858E+01  0.25768475605E-01  0.17999177072E+03  0.18001608511E+03  0.00000000000E+00 0.  1.
         11    1    1    2    0    0  0.14116731906E+01 -0.43105382520E+01 -0.17781881417E+03  0.17787665455E+03  0.00000000000E+00 0. -1.
        -15    1    1    2    0    0 -0.51933156731E+00  0.30623539795E+01 -0.20364118566E+01  0.41173315900E+01  0.17770000000E+01 0. -1.
         15    1    1    2    0    0  0.20661558624E+01  0.12224157969E+01 -0.13654469455E+00  0.29899287420E+01  0.17770000000E+01 0.  1.
</event>
<event>
 6    1  0.1097339E-002  0.1827993E+03  0.7546771E-02  0.1068217E+00
        -11   -1    0    0    0    0  0.00000000000E+00  0.00000000000E+00  0.18250000000E+03  0.18250000000E+03  0.00000000000E+00 0. -1.
         11   -1    0    0    0    0 -0.00000000000E+00 -0.00000000000E+00 -0.18250000000E+03  0.18250000000E+03  0.00000000000E+00 0. -1.
        -11    1    1    2    0    0  0.60050433779E+00 -0.13001245990E+01  0.79181779391E+02  0.79194729099E+02  0.00000000000E+00 0. -1.
         11    1    1    2    0    0 -0.95437411340E+01 -0.43649674855E+01 -0.18189817733E+03  0.18220066644E+03  0.00000000000E+00 0. -1.
        -15    1    1    2    0    0  0.91954576411E+01  0.66273516360E+01  0.84724074038E+02  0.85497395759E+02  0.17770000000E+01 0. -1.
         15    1    1    2    0    0 -0.25222084485E+00 -0.96225955156E+00  0.17992323898E+02  0.18107208704E+02  0.17770000000E+01 0. -1.
</event>
<event>
 6    1  0.1097339E-002  0.1887016E+03  0.7546771E-02  0.1063623E+00
        -11   -1    0    0    0    0  0.00000000000E+00  0.00000000000E+00  0.18250000000E+03  0.18250000000E+03  0.00000000000E+00 0.  1.
         11   -1    0    0    0    0 -0.00000000000E+00 -0.00000000000E+00 -0.18250000000E+03  0.18250000000E+03  0.00000000000E+00 0. -1.
        -11    1    1    2    0    0  0.59631114663E+00  0.51875220702E+01  0.17622104448E+03  0.17629839049E+03  0.00000000000E+00 0.  1.
         11    1    1    2    0    0 -0.81388531816E+01  0.84052622886E+01 -0.98092475050E+02  0.98787767596E+02  0.00000000000E+00 0. -1.
        -15    1    1    2    0    0  0.11990941734E+02 -0.13870454593E+00 -0.17938849710E+01  0.12254700115E+02  0.17770000000E+01 0.  1.
         15    1    1    2    0    0 -0.44483996993E+01 -0.13454079813E+02 -0.76334684461E+02  0.77659141795E+02  0.17770000000E+01 0. -1.
</event>
<event>
 6    1  0.1097339E-002  0.1895654E+03  0.7546771E-02  0.1062966E+00
        -11   -1    0    0    0    0  0.00000000000E+00  0.00000000000E+00  0.18250000000E+03  0.18250000000E+03  0.00000000000E+00 0.  1.
         11   -1    0    0    0    0 -0.00000000000E+00 -0.00000000000E+00 -0.18250000000E+03  0.18250000000E+03  0.00000000000E+00 0. -1.
        -11    1    1    2    0    0  0.44661386750E+01  0.12448886490E+01  0.17537335016E+03  0.17543462625E+03  0.00000000000E+00 0.  1.
         11    1    1    2    0    0  0.52415253718E-01  0.38118405356E+01 -0.16638596632E+03  0.16642963277E+03  0.00000000000E+00 0. -1.
        -15    1    1    2    0    0  0.43627014181E+00 -0.44012782989E+00 -0.14252028502E+02  0.14375746574E+02  0.17770000000E+01 0. -1.
         15    1    1    2    0    0 -0.49548240705E+01 -0.46166013547E+01  0.52646446586E+01  0.87599944075E+01  0.17770000000E+01 0. -1.
</event>
<event>
 6    1  0.1097339E-002  0.1832307E+03  0.7546771E-02  0.1067875E+00
        -11   -1    0    0    0    0  0.00000000000E+00  0.00000000000E+00  0.18250000000E+03  0.18250000000E+03  0.00000000000E+00 0. -1.
         11   -1    0    0    0    0 -0.00000000000E+00 -0.00000000000E+00 -0.18250000000E+03  0.18250000000E+03  0.00000000000E+00 0. -1.
        -11    1    1    2    0    0  0.10732251047E+01 -0.31196702855E+01  0.18173937577E+03  0.18176931771E+03  0.00000000000E+00 0. -1.
         11    1    1    2    0    0  0.30186032641E+01  0.11753748316E+01 -0.15160985371E+03  0.15164445659E+03  0.00000000000E+00 0. -1.
        -15    1    1    2    0    0 -0.19348147599E+01 -0.25982050132E+01 -0.17338830607E+02  0.17728140152E+02  0.17770000000E+01 0. -1.
         15    1    1    2    0    0 -0.21570136089E+01  0.45425004671E+01 -0.12790691456E+02  0.13858085551E+02  0.17770000000E+01 0.  1.
</event>
<event>
 6    1  0.1097339E-002  0.1732183E+03  0.7546771E-02  0.1076093E+00
        -11   -1    0    0    0    0  0.00000000000E+00  0.00000000000E+00  0.18250000000E+03  0.18250000000E+03  0.00000000000E+00 0.  1.
         11   -1    0    0    0    0 -0.00000000000E+00 -0.00000000000E+00 -0.18250000000E+03  0.18250000000E+03  0.00000000000E+00 0. -1.
        -11    1    1    2    0    0 -0.64358733030E+01 -0.62877431937E+00  0.17403107598E+03  0.17415117350E+03  0.00000000000E+00 0.  1.
         11    1    1    2    0    0  0.37808813218E+01 -0.37675455363E+01 -0.17224544367E+03  0.17232812402E+03  0.00000000000E+00 0. -1.
        -15    1    1    2    0    0  0.60862164632E+01  0.28387855665E+01 -0.82779507722E+01  0.10806615211E+02  0.17770000000E+01 0.  1.
         15    1    1    2    0    0 -0.34312244820E+01  0.15575342891E+01  0.64923184581E+01  0.77140872739E+01  0.17770000000E+01 0. -1.
</event>
<event>
 6    1  0.3178168E-002  0.1623109E+03  0.7546771E-02  0.1085767E+00
        -11   -1    0    0    0    0  0.00000000000E+00  0.00000000000E+00  0.18250000000E+03  0.18250000000E+03  0.00000000000E+00 0.  1.
         11   -1    0    0    0    0 -0.00000000000E+00 -0.00000000000E+00 -0.18250000000E+03  0.18250000000E+03  0.00000000000E+00 0.  1.
        -11    1    1    2    0    0 -0.90549133306E+00  0.48673642271E+01  0.16425464320E+03  0.16432923952E+03  0.00000000000E+00 0.  1.
         11    1    1    2    0    0  0.10693742701E+00  0.18272974153E+02 -0.16010425511E+03  0.16114367976E+03  0.00000000000E+00 0.  1.
        -15    1    1    2    0    0 -0.78325635636E+00 -0.22247759325E+02 -0.15958752740E+02  0.27448420784E+02  0.17770000000E+01 0. -1.
         15    1    1    2    0    0  0.15818102624E+01 -0.89257905532E+00  0.11808364654E+02  0.12078659937E+02  0.17770000000E+01 0.  1.
</event>
<event>
 6    1  0.1097339E-002  0.1962621E+03  0.7546771E-02  0.1057999E+00
        -11   -1    0    0    0    0  0.00000000000E+00  0.00000000000E+00  0.18250000000E+03  0.18250000000E+03  0.00000000000E+00 0. -1.
         11   -1    0    0    0    0 -0.00000000000E+00 -0.00000000000E+00 -0.18250000000E+03  0.18250000000E+03  0.00000000000E+00 0. -1.
        -11    1    1    2    0    0  0.44422459618E+01  0.69720888151E+01  0.15936748314E+03  0.15958176041E+03  0.00000000000E+00 0. -1.
         11    1    1    2    0    0  0.34710490403E+01 -0.51506336994E+01 -0.16862351848E+03  0.16873786828E+03  0.00000000000E+00 0. -1.
        -15    1    1    2    0    0 -0.72447128528E+01  0.73935911949E+01  0.19883257301E+02  0.22486722860E+02  0.17770000000E+01 0.  1.
         15    1    1    2    0    0 -0.66858214925E+00 -0.92150463106E+01 -0.10627221968E+02  0.14193648451E+02  0.17770000000E+01 0. -1.
</event>
<event>
 6    1  0.1097339E-002  0.1836277E+03  0.7546771E-02  0.1067561E+00
        -11   -1    0    0    0    0  0.00000000000E+00  0.00000000000E+00  0.18250000000E+03  0.18250000000E+03  0.00000000000E+00 0. -1.
         11   -1    0    0    0    0 -0.00000000000E+00 -0.00000000000E+00 -0.18250000000E+03  0.18250000000E+03  0.00000000000E+00 0.  1.
        -11    1    1    2    0    0 -0.40789935590E+00  0.28506289894E+01  0.15944743964E+03  0.15947344129E+03  0.00000000000E+00 0. -1.
         11    1    1    2    0    0 -0.14363042993E+01  0.22748471812E+01 -0.18135233703E+03  0.18137229128E+03  0.00000000000E+00 0.  1.
        -15    1    1    2    0    0  0.28820922584E+01 -0.55354779557E+01  0.20787967105E+02  0.21777173309E+02  0.17770000000E+01 0.  1.
         15    1    1    2    0    0 -0.10378886032E+01  0.41000178505E+00  0.11169302772E+01  0.23770941211E+01  0.17770000000E+01 0.  1.
</event>
<event>
 6    1  0.1097339E-002  0.1840839E+03  0.7546771E-02  0.1067201E+00
        -11   -1    0    0    0    0  0.00000000000E+00  0.00000000000E+00  0.18250000000E+03  0.18250000000E+03  0.00000000000E+00 0. -1.
         11   -1    0    0    0    0 -0.00000000000E+00 -0.00000000000E+00 -0.18250000000E+03  0.18250000000E+03  0.00000000000E+00 0.  1.
        -11    1    1    2    0    0 -0.31522193735E+01 -0.24894639944E+01  0.15373694468E+03  0.15378940821E+03  0.00000000000E+00 0. -1.
         11    1    1    2    0    0  0.22263047641E+01 -0.10482413770E+02 -0.18059840484E+03  0.18091606137E+03  0.00000000000E+00 0.  1.
        -15    1    1    2    0    0  0.23572332452E+01  0.79080729430E+01  0.15566559021E+02  0.17707898097E+02  0.17770000000E+01 0.  1.
         15    1    1    2    0    0 -0.14313186358E+01  0.50638048213E+01  0.11294901140E+02  0.12586632317E+02  0.17770000000E+01 0. -1.
</event>
<event>
 6    1  0.1097339E-002  0.1828769E+03  0.7546771E-02  0.1068155E+00
        -11   -1    0    0    0    0  0.00000000000E+00  0.00000000000E+00  0.18250000000E+03  0.18250000000E+03  0.00000000000E+00 0.  1.
         11   -1    0    0    0    0 -0.00000000000E+00 -0.00000000000E+00 -0.18250000000E+03  0.18250000000E+03  0.00000000000E+00 0. -1.
        -11    1    1    2    0    0 -0.17783369566E+01  0.19418738423E+01  0.18210407389E+03  0.18212310969E+03  0.00000000000E+00 0.  1.
         11    1    1    2    0    0  0.29761851032E+00 -0.18949170785E+01 -0.76735791082E+02  0.76759761077E+02  0.00000000000E+00 0. -1.
        -15    1    1    2    0    0  0.21034523170E+01 -0.11778989985E+01 -0.10229919354E+03  0.10234302461E+03  0.17770000000E+01 0.  1.
         15    1    1    2    0    0 -0.62273387070E+00  0.11309422347E+01 -0.30690892637E+01  0.37741046250E+01  0.17770000000E+01 0.  1.
</event>
<event>
 6    1  0.1097339E-002  0.1841359E+03  0.7546771E-02  0.1067160E+00
        -11   -1    0    0    0    0  0.00000000000E+00  0.00000000000E+00  0.18250000000E+03  0.18250000000E+03  0.00000000000E+00 0.  1.
         11   -1    0    0    0    0 -0.00000000000E+00 -0.00000000000E+00 -0.18250000000E+03  0.18250000000E+03  0.00000000000E+00 0. -1.
        -11    1    1    2    0    0  0.22824630247E+01 -0.85586027462E+01  0.87843542492E+02  0.88288998613E+02  0.00000000000E+00 0.  1.
         11    1    1    2    0    0  0.27120911622E+01 -0.19591509878E+01 -0.18083310889E+03  0.18086405663E+03  0.00000000000E+00 0. -1.
        -15    1    1    2    0    0  0.74890528364E+01  0.40705162192E+01  0.27579448267E+02  0.28921250152E+02  0.17770000000E+01 0. -1.
         15    1    1    2    0    0 -0.12483607023E+02  0.64472375148E+01  0.65410118128E+02  0.66925694605E+02  0.17770000000E+01 0. -1.
</event>
<event>
 6    1  0.1097339E-002  0.1828309E+03  0.7546771E-02  0.1068192E+00
        -11   -1    0    0    0    0  0.00000000000E+00  0.00000000000E+00  0.18250000000E+03  0.18250000000E+03  0.00000000000E+00 0.  1.
         11   -1    0    0    0    0 -0.00000000000E+00 -0.00000000000E+00 -0.18250000000E+03  0.18250000000E+03  0.00000000000E+00 0.  1.
        -11    1    1    2    0    0 -0.26539937461E+01  0.15289745692E+01  0.12504442376E+03  0.12508193059E+03  0.00000000000E+00 0.  1.
         11    1    1    2    0    0 -0.41074547298E+00 -0.73348191613E+01 -0.18202088214E+03  0.18216906933E+03  0.00000000000E+00 0.  1.
        -15    1    1    2    0    0  0.19246827991E+01  0.66140134673E+00  0.34080610834E+02  0.34187536025E+02  0.17770000000E+01 0. -1.
         15    1    1    2    0    0  0.11400564200E+01  0.51444432454E+01  0.22895847541E+02  0.23561464058E+02  0.17770000000E+01 0.  1.
</event>
<event>
 6    1  0.1097339E-002  0.1837724E+03  0.7546771E-02  0.1067446E+00
        -11   -1    0    0    0    0  0.00000000000E+00  0.00000000000E+00  0.18250000000E+03  0.18250000000E+03  0.00000000000E+00 0. -1.
         11   -1    0    0    0    0 -0.00000000000E+00 -0.00000000000E+00 -0.18250000000E+03  0.18250000000E+03  0.00000000000E+00 0. -1.
        -11    1    1    2    0    0  0.17870719586E+01  0.36378734965E+01  0.18118228863E+03  0.18122761782E+03  0.00000000000E+00 0. -1.
         11    1    1    2    0    0  0.33791924038E+01 -0.37322842009E+01 -0.74947370445E+02  0.75116291330E+02  0.00000000000E+00 0. -1.
        -15    1    1    2    0    0 -0.64332317836E+01 -0.10220403115E+02 -0.60910722037E+02  0.62121790855E+02  0.17770000000E+01 0. -1.
         15    1    1    2    0    0  0.12669674212E+01  0.10314813820E+02 -0.45324196145E+02  0.46534299992E+02  0.17770000000E+01 0. -1.
</event>
<event>
 6    1  0.1097339E-002  0.1832633E+03  0.7546771E-02  0.1067849E+00
        -11   -1    0    0    0    0  0.00000000000E+00  0.00000000000E+00  0.18250000000E+03  0.18250000000E+03  0.00000000000E+00 0.  1.
         11   -1    0    0    0    0 -0.00000000000E+00 -0.00000000000E+00 -0.18250000000E+03  0.18250000000E+03  0.00000000000E+00 0.  1.
        -11    1    1    2    0    0  0.27992419901E+01  0.45731299188E+00  0.16298464040E+03  0.16300931844E+03  0.00000000000E+00 0.  1.
         11    1    1    2    0    0  0.10765720084E+01 -0.23307368558E+01 -0.18171855486E+03  0.18173669008E+03  0.00000000000E+00 0.  1.
        -15    1    1    2    0    0  0.10043145891E+01  0.72725879443E+00  0.34801721845E+01  0.40996195655E+01  0.17770000000E+01 0. -1.
         15    1    1    2    0    0 -0.48801285876E+01  0.11461650695E+01  0.15253742276E+02  0.16154371910E+02  0.17770000000E+01 0.  1.
</event>
<event>
 6    1  0.1097339E-002  0.1830052E+03  0.7546771E-02  0.1068053E+00
        -11   -1    0    0    0    0  0.00000000000E+00  0.00000000000E+00  0.18250000000E+03  0.18250000000E+03  0.00000000000E+00 0.  1.
         11   -1    0    0    0    0 -0.00000000000E+00 -0.00000000000E+00 -0.18250000000E+03  0.18250000000E+03  0.00000000000E+00 0.  1.
        -11    1    1    2    0    0 -0.54393004851E+00  0.12855127783E+00  0.21373318901E+02  0.21380625486E+02  0.00000000000E+00 0.  1.
         11    1    1    2    0    0  0.11215122391E+01 -0.33179659999E+01 -0.18196106550E+03  0.18199476928E+03  0.00000000000E+00 0.  1.
        -15    1    1    2    0    0  0.14209365168E+01  0.82891888904E+01  0.13950561187E+03  0.13977017989E+03  0.17770000000E+01 0.  1.
         15    1    1    2    0    0 -0.19985187073E+01 -0.50997741683E+01  0.21082134724E+02  0.21854425344E+02  0.17770000000E+01 0. -1.
</event>
<event>
 6    1  0.1097339E-002  0.1830604E+03  0.7546771E-02  0.1068010E+00
        -11   -1    0    0    0    0  0.00000000000E+00  0.00000000000E+00  0.18250000000E+03  0.18250000000E+03  0.00000000000E+00 0. -1.
         11   -1    0    0    0    0 -0.00000000000E+00 -0.00000000000E+00 -0.18250000000E+03  0.18250000000E+03  0.00000000000E+00 0.  1.
        -11    1    1    2    0    0 -0.33209031718E+01  0.47065439214E+01  0.18184835278E+03  0.18193955964E+03  0.00000000000E+00 0. -1.
         11    1    1    2    0    0  0.33773671067E+01 -0.20493512132E+00 -0.10934973760E+03  0.10940207365E+03  0.00000000000E+00 0.  1.
        -15    1    1    2    0    0 -0.51266071075E+01 -0.51675129277E+01 -0.37209924789E+02  0.37956837620E+02  0.17770000000E+01 0.  1.
         15    1    1    2    0    0  0.50701431726E+01  0.66590412755E+00 -0.35288690397E+02  0.35701529086E+02  0.17770000000E+01 0. -1.
</event>
<event>
 6    1  0.1097339E-002  0.1843128E+03  0.7546771E-02  0.1067021E+00
        -11   -1    0    0    0    0  0.00000000000E+00  0.00000000000E+00  0.18250000000E+03  0.18250000000E+03  0.00000000000E+00 0.  1.
         11   -1    0    0    0    0 -0.00000000000E+00 -0.00000000000E+00 -0.18250000000E+03  0.18250000000E+03  0.00000000000E+00 0. -1.
        -11    1    1    2    0    0 -0.21663946564E+01  0.56865721222E+01  0.18058466457E+03  0.18068716459E+03  0.00000000000E+00 0.  1.
         11    1    1    2    0    0  0.24018868235E+00 -0.38055233129E+01 -0.13542654447E+03  0.13548021496E+03  0.00000000000E+00 0. -1.
        -15    1    1    2    0    0  0.23389939294E+01 -0.37981461130E+01 -0.45847236458E+02  0.46097978549E+02  0.17770000000E+01 0.  1.
         15    1    1    2    0    0 -0.41278795532E+00  0.19170973038E+01  0.68911635960E+00  0.27346419007E+01  0.17770000000E+01 0. -1.
</event>
<event>
 6    1  0.1097339E-002  0.1874338E+03  0.7546771E-02  0.1064594E+00
        -11   -1    0    0    0    0  0.00000000000E+00  0.00000000000E+00  0.18250000000E+03  0.18250000000E+03  0.00000000000E+00 0.  1.
         11   -1    0    0    0    0 -0.00000000000E+00 -0.00000000000E+00 -0.18250000000E+03  0.18250000000E+03  0.00000000000E+00 0. -1.
        -11    1    1    2    0    0  0.34926697571E+01 -0.25962335114E+01  0.17751287286E+03  0.17756621076E+03  0.00000000000E+00 0.  1.
         11    1    1    2    0    0  0.63677905384E+01  0.14938893556E+00 -0.12669737882E+03  0.12685738794E+03  0.00000000000E+00 0. -1.
        -15    1    1    2    0    0 -0.48266917547E+01  0.60499941360E+01  0.13154995517E+01  0.80490776125E+01  0.17770000000E+01 0. -1.
         15    1    1    2    0    0 -0.50337685408E+01 -0.36031495602E+01 -0.52130993592E+02  0.52527323693E+02  0.17770000000E+01 0.  1.
</event>
<event>
 6    1  0.1097339E-002  0.1864708E+03  0.7546771E-02  0.1065337E+00
        -11   -1    0    0    0    0  0.00000000000E+00  0.00000000000E+00  0.18250000000E+03  0.18250000000E+03  0.00000000000E+00 0. -1.
         11   -1    0    0    0    0 -0.00000000000E+00 -0.00000000000E+00 -0.18250000000E+03  0.18250000000E+03  0.00000000000E+00 0. -1.
        -11    1    1    2    0    0 -0.15208924913E+01 -0.67581038561E+01  0.17839478226E+03  0.17852922287E+03  0.00000000000E+00 0. -1.
         11    1    1    2    0    0  0.11114493319E+01 -0.16744151202E+01 -0.13308385982E+03  0.13309903354E+03  0.00000000000E+00 0. -1.
        -15    1    1    2    0    0  0.68927503246E+01  0.14624022665E+02 -0.16593789116E+02  0.23235395675E+02  0.17770000000E+01 0. -1.
         15    1    1    2    0    0 -0.64833071652E+01 -0.61915036884E+01 -0.28717133326E+02  0.30136347907E+02  0.17770000000E+01 0. -1.
</event>
<event>
 6    1  0.1097339E-002  0.1847540E+03  0.7546771E-02  0.1066675E+00
        -11   -1    0    0    0    0  0.00000000000E+00  0.00000000000E+00  0.18250000000E+03  0.18250000000E+03  0.00000000000E+00 0. -1.
         11   -1    0    0    0    0 -0.00000000000E+00 -0.00000000000E+00 -0.18250000000E+03  0.18250000000E+03  0.00000000000E+00 0.  1.
        -11    1    1    2    0    0  0.36202233357E+00 -0.75223842996E+01  0.18008858247E+03  0.18024598432E+03  0.00000000000E+00 0. -1.
         11    1    1    2    0    0 -0.56743591833E+01 -0.11831900580E+01 -0.15198667664E+03  0.15209716686E+03  0.00000000000E+00 0.  1.
        -15    1    1    2    0    0  0.64486833104E+01  0.50105701819E+01 -0.26997023174E+02  0.28261074277E+02  0.17770000000E+01 0. -1.
         15    1    1    2    0    0 -0.11363464607E+01  0.36950041756E+01 -0.11048826584E+01  0.43957745421E+01  0.17770000000E+01 0.  1.
</event>
<event>
 6    1  0.1097339E-002  0.9230882E+02  0.7546771E-02  0.1177830E+00
        -11   -1    0    0    0    0  0.00000000000E+00  0.00000000000E+00  0.18250000000E+03  0.18250000000E+03  0.00000000000E+00 0. -1.
         11   -1    0    0    0    0 -0.00000000000E+00 -0.00000000000E+00 -0.18250000000E+03  0.18250000000E+03  0.00000000000E+00 0.  1.
        -11    1    1    2    0    0  0.10989447733E+02 -0.14935593713E+02  0.12576650511E+03  0.12712613315E+03  0.00000000000E+00 0. -1.
         11    1    1    2    0    0 -0.90937860617E+01  0.90940663897E+01 -0.11046819660E+03  0.11121430415E+03  0.00000000000E+00 0.  1.
        -15    1    1    2    0    0 -0.20709690650E+02  0.10676469916E+02  0.51776829478E+02  0.56805599165E+02  0.17770000000E+01 0. -1.
         15    1    1    2    0    0  0.18814028978E+02 -0.48349425932E+01 -0.67075137989E+02  0.69853963534E+02  0.17770000000E+01 0.  1.
</event>
<event>
 6    1  0.1097339E-002  0.1830060E+03  0.7546771E-02  0.1068053E+00
        -11   -1    0    0    0    0  0.00000000000E+00  0.00000000000E+00  0.18250000000E+03  0.18250000000E+03  0.00000000000E+00 0. -1.
         11   -1    0    0    0    0 -0.00000000000E+00 -0.00000000000E+00 -0.18250000000E+03  0.18250000000E+03  0.00000000000E+00 0. -1.
        -11    1    1    2    0    0  0.97920557969E+00  0.80115311160E+00  0.57344196180E+02  0.57358151342E+02  0.00000000000E+00 0. -1.
         11    1    1    2    0    0  0.20411616060E+01  0.10600967532E+02 -0.18167352219E+03  0.18199399858E+03  0.00000000000E+00 0. -1.
        -15    1    1    2    0    0 -0.15245191879E+01 -0.78026025594E+01  0.26478888795E+02  0.27703682901E+02  0.17770000000E+01 0.  1.
         15    1    1    2    0    0 -0.14958479978E+01 -0.35995180838E+01  0.97850437217E+02  0.97944167178E+02  0.17770000000E+01 0. -1.
</event>
<event>
 6    1  0.1097339E-002  0.1855367E+03  0.7546771E-02  0.1066063E+00
        -11   -1    0    0    0    0  0.00000000000E+00  0.00000000000E+00  0.18250000000E+03  0.18250000000E+03  0.00000000000E+00 0. -1.
         11   -1    0    0    0    0 -0.00000000000E+00 -0.00000000000E+00 -0.18250000000E+03  0.18250000000E+03  0.00000000000E+00 0.  1.
        -11    1    1    2    0    0  0.34457836679E+01 -0.55978715293E+01  0.17934282715E+03  0.17946325317E+03  0.00000000000E+00 0. -1.
         11    1    1    2    0    0 -0.10087740265E+01 -0.35652117617E+01 -0.15530280315E+03  0.15534699555E+03  0.00000000000E+00 0.  1.
        -15    1    1    2    0    0 -0.11513079879E+01  0.10028936086E+02 -0.57586134366E+01  0.11756888484E+02  0.17770000000E+01 0. -1.
         15    1    1    2    0    0 -0.12857016535E+01 -0.86585279533E+00 -0.18281410556E+02  0.18432862793E+02  0.17770000000E+01 0. -1.
</event>
<event>
 6    1  0.1097339E-002  0.1867214E+03  0.7546771E-02  0.1065143E+00
        -11   -1    0    0    0    0  0.00000000000E+00  0.00000000000E+00  0.18250000000E+03  0.18250000000E+03  0.00000000000E+00 0.  1.
         11   -1    0    0    0    0 -0.00000000000E+00 -0.00000000000E+00 -0.18250000000E+03  0.18250000000E+03  0.00000000000E+00 0. -1.
        -11    1    1    2    0    0 -0.13012357241E+00 -0.90730012584E+01  0.14622819904E+03  0.14650946208E+03  0.00000000000E+00 0.  1.
         11    1    1    2    0    0 -0.70926657606E+01 -0.80085217308E+01 -0.17795736310E+03  0.17827861737E+03  0.00000000000E+00 0. -1.
        -15    1    1    2    0    0  0.10392129331E+02  0.59581474935E+01  0.21469399969E+02  0.24649315155E+02  0.17770000000E+01 0.  1.
         15    1    1    2    0    0 -0.31693399980E+01  0.11123375496E+02  0.10259764091E+02  0.15562605394E+02  0.17770000000E+01 0. -1.
</event>
<event>
 6    1  0.1097339E-002  0.1850803E+03  0.7546771E-02  0.1066419E+00
        -11   -1    0    0    0    0  0.00000000000E+00  0.00000000000E+00  0.18250000000E+03  0.18250000000E+03  0.00000000000E+00 0.  1.
         11   -1    0    0    0    0 -0.00000000000E+00 -0.00000000000E+00 -0.18250000000E+03  0.18250000000E+03  0.00000000000E+00 0. -1.
        -11    1    1    2    0    0  0.40566344312E+01 -0.49661171129E+01  0.16770730662E+03  0.16782985222E+03  0.00000000000E+00 0.  1.
         11    1    1    2    0    0  0.53433556905E+01  0.38578373685E+01 -0.17979893886E+03  0.17991968423E+03  0.00000000000E+00 0. -1.
        -15    1    1    2    0    0 -0.68687898341E+01 -0.12052404001E+01  0.11157131186E+02  0.13276753501E+02  0.17770000000E+01 0. -1.
         15    1    1    2    0    0 -0.25312002876E+01  0.23135201445E+01  0.93450105129E+00  0.39737100511E+01  0.17770000000E+01 0.  1.
</event>
<event>
 6    1  0.1097339E-002  0.2186386E+03  0.7546771E-02  0.1042851E+00
        -11   -1    0    0    0    0  0.00000000000E+00  0.00000000000E+00  0.18250000000E+03  0.18250000000E+03  0.00000000000E+00 0.  1.
         11   -1    0    0    0    0 -0.00000000000E+00 -0.00000000000E+00 -0.18250000000E+03  0.18250000000E+03  0.00000000000E+00 0. -1.
        -11    1    1    2    0    0  0.56165595776E+00 -0.49144546110E+01  0.13602475826E+03  0.13611466556E+03  0.00000000000E+00 0.  1.
         11    1    1    2    0    0 -0.12323136341E+02 -0.77670056651E-01 -0.14584163609E+03  0.14636136286E+03  0.00000000000E+00 0. -1.
        -15    1    1    2    0    0  0.38838000855E+02  0.13681335040E+02 -0.15867024354E+02  0.44164345684E+02  0.17770000000E+01 0. -1.
         15    1    1    2    0    0 -0.27076520472E+02 -0.86892103721E+01  0.25683902183E+02  0.38359625886E+02  0.17770000000E+01 0.  1.
</event>
<event>
 6    1  0.1097339E-002  0.1832659E+03  0.7546771E-02  0.1067847E+00
        -11   -1    0    0    0    0  0.00000000000E+00  0.00000000000E+00  0.18250000000E+03  0.18250000000E+03  0.00000000000E+00 0. -1.
         11   -1    0    0    0    0 -0.00000000000E+00 -0.00000000000E+00 -0.18250000000E+03  0.18250000000E+03  0.00000000000E+00 0. -1.
        -11    1    1    2    0    0 -0.29913334777E+01  0.12916053352E+01  0.20308213807E+02  0.20567933012E+02  0.00000000000E+00 0. -1.
         11    1    1    2    0    0  0.57288225710E+01 -0.25170109186E+01 -0.18162630794E+03  0.18173406529E+03  0.00000000000E+00 0. -1.
        -15    1    1    2    0    0 -0.35614847529E+01 -0.84845031285E+01  0.11222094956E+03  0.11261159006E+03  0.17770000000E+01 0. -1.
         15    1    1    2    0    0  0.82399565961E+00  0.97099087120E+01  0.49097144578E+02  0.50086411638E+02  0.17770000000E+01 0.  1.
</event>
<event>
 6    1  0.1097339E-002  0.1850505E+03  0.7546771E-02  0.1066443E+00
        -11   -1    0    0    0    0  0.00000000000E+00  0.00000000000E+00  0.18250000000E+03  0.18250000000E+03  0.00000000000E+00 0. -1.
         11   -1    0    0    0    0 -0.00000000000E+00 -0.00000000000E+00 -0.18250000000E+03  0.18250000000E+03  0.00000000000E+00 0.  1.
        -11    1    1    2    0    0 -0.16732395312E+01  0.43730123600E+01  0.17988853816E+03  0.17994946271E+03  0.00000000000E+00 0. -1.
         11    1    1    2    0    0 -0.46781299338E+01 -0.17936999067E+01 -0.15808636384E+03  0.15816573805E+03  0.00000000000E+00 0.  1.
        -15    1    1    2    0    0  0.68569367387E+01 -0.31788963339E+01 -0.35631546967E+01  0.85426438374E+01  0.17770000000E+01 0. -1.
         15    1    1    2    0    0 -0.50556727370E+00  0.59958388060E+00 -0.18239019621E+02  0.18342155403E+02  0.17770000000E+01 0. -1.
</event>
<event>
 6    1  0.1097339E-002  0.1850368E+03  0.7546771E-02  0.1066453E+00
        -11   -1    0    0    0    0  0.00000000000E+00  0.00000000000E+00  0.18250000000E+03  0.18250000000E+03  0.00000000000E+00 0. -1.
         11   -1    0    0    0    0 -0.00000000000E+00 -0.00000000000E+00 -0.18250000000E+03  0.18250000000E+03  0.00000000000E+00 0.  1.
        -11    1    1    2    0    0  0.88996896036E+00  0.26073361759E+01  0.17994212391E+03  0.17996321348E+03  0.00000000000E+00 0. -1.
         11    1    1    2    0    0 -0.54805019131E+01 -0.12897424753E+01 -0.16849778549E+03  0.16859182380E+03  0.00000000000E+00 0.  1.
        -15    1    1    2    0    0  0.35160108302E+01 -0.32219594114E+00 -0.13051384179E+02  0.13636806824E+02  0.17770000000E+01 0. -1.
         15    1    1    2    0    0  0.10745221225E+01 -0.99539775954E+00  0.16070457588E+01  0.28081559006E+01  0.17770000000E+01 0. -1.
</event>
<event>
 6    1  0.1097339E-002  0.1878883E+03  0.7546771E-02  0.1064245E+00
        -11   -1    0    0    0    0  0.00000000000E+00  0.00000000000E+00  0.18250000000E+03  0.18250000000E+03  0.00000000000E+00 0.  1.
         11   -1    0    0    0    0 -0.00000000000E+00 -0.00000000000E+00 -0.18250000000E+03  0.18250000000E+03  0.00000000000E+00 0. -1.
        -11    1    1    2    0    0 -0.83796737634E+01 -0.53498205407E+01  0.17683240525E+03  0.17711165704E+03  0.00000000000E+00 0.  1.
         11    1    1    2    0    0 -0.21402182582E+01 -0.31357005346E+01 -0.15731021934E+03  0.15735602391E+03  0.00000000000E+00 0. -1.
        -15    1    1    2    0    0  0.29327327984E+01 -0.32417209423E+01 -0.15029324529E+02  0.15752714088E+02  0.17770000000E+01 0. -1.
         15    1    1    2    0    0  0.75871592232E+01  0.11727242018E+02 -0.44928613760E+01  0.14779604960E+02  0.17770000000E+01 0.  1.
</event>
<event>
 6    1  0.1097339E-002  0.1847661E+03  0.7546771E-02  0.1066665E+00
        -11   -1    0    0    0    0  0.00000000000E+00  0.00000000000E+00  0.18250000000E+03  0.18250000000E+03  0.00000000000E+00 0.  1.
         11   -1    0    0    0    0 -0.00000000000E+00 -0.00000000000E+00 -0.18250000000E+03  0.18250000000E+03  0.00000000000E+00 0.  1.
        -11    1    1    2    0    0  0.79137902298E+00 -0.36108156051E+01  0.17571665398E+03  0.17575553123E+03  0.00000000000E+00 0.  1.
         11    1    1    2    0    0  0.28879127203E+01  0.29201111867E+01 -0.18018712141E+03  0.18023391970E+03  0.00000000000E+00 0.  1.
        -15    1    1    2    0    0  0.13446390320E+01  0.50886179834E+00  0.23327187923E+01  0.32659302534E+01  0.17770000000E+01 0. -1.
         15    1    1    2    0    0 -0.50239307753E+01  0.18184262011E+00  0.21377486317E+01  0.57446188199E+01  0.17770000000E+01 0. -1.
</event>
<event>
 6    1  0.1097339E-002  0.1651552E+03  0.7546771E-02  0.1083166E+00
        -11   -1    0    0    0    0  0.00000000000E+00  0.00000000000E+00  0.18250000000E+03  0.18250000000E+03  0.00000000000E+00 0.  1.
         11   -1    0    0    0    0 -0.00000000000E+00 -0.00000000000E+00 -0.18250000000E+03  0.18250000000E+03  0.00000000000E+00 0. -1.
        -11    1    1    2    0    0 -0.32833987451E+01  0.62496639560E+01  0.16602083086E+03  0.16617086173E+03  0.00000000000E+00 0.  1.
         11    1    1    2    0    0  0.15719159292E+02 -0.11857260676E+02 -0.16324955620E+03  0.16443267376E+03  0.00000000000E+00 0. -1.
        -15    1    1    2    0    0 -0.73289059624E+01  0.11513557015E+02 -0.14630588601E+02  0.20086978607E+02  0.17770000000E+01 0. -1.
         15    1    1    2    0    0 -0.51068545848E+01 -0.59059602948E+01  0.11859313940E+02  0.14309485905E+02  0.17770000000E+01 0.  1.
</event>
<event>
 6    1  0.1097339E-002  0.1837949E+03  0.7546771E-02  0.1067429E+00
        -11   -1    0    0    0    0  0.00000000000E+00  0.00000000000E+00  0.18250000000E+03  0.18250000000E+03  0.00000000000E+00 0.  1.
         11   -1    0    0    0    0 -0.00000000000E+00 -0.00000000000E+00 -0.18250000000E+03  0.18250000000E+03  0.00000000000E+00 0. -1.
        -11    1    1    2    0    0 -0.43608279477E+01 -0.47667637232E+00  0.81828867437E+02  0.81946370186E+02  0.00000000000E+00 0.  1.
         11    1    1    2    0    0  0.24987179361E+01 -0.10498891923E+01 -0.18118482266E+03  0.18120509326E+03  0.00000000000E+00 0. -1.
        -15    1    1    2    0    0  0.21567081734E+01  0.37741046308E+01  0.98804396311E+02  0.98915932565E+02  0.17770000000E+01 0. -1.
         15    1    1    2    0    0 -0.29459816192E+00 -0.22475390662E+01  0.55155891624E+00  0.29326039912E+01  0.17770000000E+01 0.  1.
</event>
<event>
 6    1  0.1097339E-002  0.1829856E+03  0.7546771E-02  0.1068069E+00
        -11   -1    0    0    0    0  0.00000000000E+00  0.00000000000E+00  0.18250000000E+03  0.18250000000E+03  0.00000000000E+00 0. -1.
         11   -1    0    0    0    0 -0.00000000000E+00 -0.00000000000E+00 -0.18250000000E+03  0.18250000000E+03  0.00000000000E+00 0.  1.
        -11    1    1    2    0    0 -0.14470429303E+01 -0.13830775223E+01  0.10726000443E+03  0.10727868095E+03  0.00000000000E+00 0. -1.
         11    1    1    2    0    0 -0.31185567280E+01 -0.37916535990E+01 -0.18194814045E+03  0.18201436164E+03  0.00000000000E+00 0.  1.
        -15    1    1    2    0    0  0.42448897659E+01  0.46457125686E+01  0.72608815234E+02  0.72902671509E+02  0.17770000000E+01 0. -1.
         15    1    1    2    0    0  0.32070989245E+00  0.52901855267E+00  0.20793207837E+01  0.28042858959E+01  0.17770000000E+01 0. -1.
</event>
<event>
 6    1  0.1097339E-002  0.1858989E+03  0.7546771E-02  0.1065781E+00
        -11   -1    0    0    0    0  0.00000000000E+00  0.00000000000E+00  0.18250000000E+03  0.18250000000E+03  0.00000000000E+00 0.  1.
         11   -1    0    0    0    0 -0.00000000000E+00 -0.00000000000E+00 -0.18250000000E+03  0.18250000000E+03  0.00000000000E+00 0.  1.
        -11    1    1    2    0    0 -0.72287637841E-01  0.21934827556E+01  0.16282715825E+03  0.16284194809E+03  0.00000000000E+00 0.  1.
         11    1    1    2    0    0 -0.42268004814E+01 -0.30157942675E+01 -0.17902580304E+03  0.17910108602E+03  0.00000000000E+00 0.  1.
        -15    1    1    2    0    0  0.34572470408E+01 -0.42497523016E+01 -0.21696483339E+00  0.57634845766E+01  0.17770000000E+01 0.  1.
         15    1    1    2    0    0  0.84184107844E+00  0.50720638135E+01  0.16415609624E+02  0.17293481317E+02  0.17770000000E+01 0. -1.
</event>
<event>
 6    1  0.1097339E-002  0.1685469E+03  0.7546771E-02  0.1080138E+00
        -11   -1    0    0    0    0  0.00000000000E+00  0.00000000000E+00  0.18250000000E+03  0.18250000000E+03  0.00000000000E+00 0. -1.
         11   -1    0    0    0    0 -0.00000000000E+00 -0.00000000000E+00 -0.18250000000E+03  0.18250000000E+03  0.00000000000E+00 0. -1.
        -11    1    1    2    0    0 -0.45992142567E+00 -0.24239271041E+01  0.16878410601E+03  0.16880213681E+03  0.00000000000E+00 0. -1.
         11    1    1    2    0    0 -0.54399545856E+01 -0.51717180818E+01 -0.16826190442E+03  0.16842923811E+03  0.00000000000E+00 0. -1.
        -15    1    1    2    0    0 -0.34335404738E+01  0.12816242610E+01  0.10893470419E+02  0.11630012369E+02  0.17770000000E+01 0.  1.
         15    1    1    2    0    0  0.93334164851E+01  0.63140209249E+01 -0.11415672015E+02  0.16138612706E+02  0.17770000000E+01 0. -1.
</event>
<event>
 6    1  0.1097339E-002  0.1882938E+03  0.7546771E-02  0.1063934E+00
        -11   -1    0    0    0    0  0.00000000000E+00  0.00000000000E+00  0.18250000000E+03  0.18250000000E+03  0.00000000000E+00 0.  1.
         11   -1    0    0    0    0 -0.00000000000E+00 -0.00000000000E+00 -0.18250000000E+03  0.18250000000E+03  0.00000000000E+00 0. -1.
        -11    1    1    2    0    0  0.19880088138E+00 -0.96707850310E+01  0.17644122384E+03  0.17670616592E+03  0.00000000000E+00 0.  1.
         11    1    1    2    0    0 -0.73761483882E+01 -0.83572544483E+01 -0.11201351507E+03  0.11256677497E+03  0.00000000000E+00 0. -1.
        -15    1    1    2    0    0  0.15360976624E+02  0.12036955776E+02 -0.13566192083E+02  0.23833740869E+02  0.17770000000E+01 0.  1.
         15    1    1    2    0    0 -0.81836291174E+01  0.59910837033E+01 -0.50861516685E+02  0.51893318240E+02  0.17770000000E+01 0. -1.
</event>
<event>
 6    1  0.1097339E-002  0.1917419E+03  0.7546771E-02  0.1061327E+00
        -11   -1    0    0    0    0  0.00000000000E+00  0.00000000000E+00  0.18250000000E+03  0.18250000000E+03  0.00000000000E+00 0.  1.
         11   -1    0    0    0    0 -0.00000000000E+00 -0.00000000000E+00 -0.18250000000E+03  0.18250000000E+03  0.00000000000E+00 0. -1.
        -11    1    1    2    0    0 -0.92972910863E+00 -0.51098169324E+01  0.17318025227E+03  0.17325811496E+03  0.00000000000E+00 0.  1.
         11    1    1    2    0    0 -0.27170679354E+01  0.43436495202E+01 -0.13176227715E+03  0.13186184979E+03  0.00000000000E+00 0. -1.
        -15    1    1    2    0    0 -0.11516053633E+02 -0.51133178172E+01 -0.41617245812E+02  0.43519172652E+02  0.17770000000E+01 0.  1.
         15    1    1    2    0    0  0.15162850677E+02  0.58794852295E+01  0.19927069678E+00  0.16360862600E+02  0.17770000000E+01 0. -1.
</event>
<event>
 6    1  0.1097339E-002  0.1831540E+03  0.7546771E-02  0.1067935E+00
        -11   -1    0    0    0    0  0.00000000000E+00  0.00000000000E+00  0.18250000000E+03  0.18250000000E+03  0.00000000000E+00 0. -1.
         11   -1    0    0    0    0 -0.00000000000E+00 -0.00000000000E+00 -0.18250000000E+03  0.18250000000E+03  0.00000000000E+00 0.  1.
        -11    1    1    2    0    0 -0.33060001691E+01  0.23511990937E+01  0.18180078315E+03  0.18184604073E+03  0.00000000000E+00 0. -1.
         11    1    1    2    0    0 -0.23536125412E+01 -0.70114308648E+00 -0.68267876764E+02  0.68312034749E+02  0.00000000000E+00 0.  1.
        -15    1    1    2    0    0  0.38796921699E+01 -0.19917805654E+01 -0.11147456308E+03  0.11157398955E+03  0.17770000000E+01 0.  1.
         15    1    1    2    0    0  0.17799205404E+01  0.34172455813E+00 -0.20583433068E+01  0.32679349707E+01  0.17770000000E+01 0. -1.
</event>
<event>
 6    1  0.1097339E-002  0.1835614E+03  0.7546771E-02  0.1067613E+00
        -11   -1    0    0    0    0  0.00000000000E+00  0.00000000000E+00  0.18250000000E+03  0.18250000000E+03  0.00000000000E+00 0. -1.
         11   -1    0    0    0    0 -0.00000000000E+00 -0.00000000000E+00 -0.18250000000E+03  0.18250000000E+03  0.00000000000E+00 0.  1.
        -11    1    1    2    0    0  0.22625614789E+01 -0.51953035117E+01  0.18135006850E+03  0.18143857833E+03  0.00000000000E+00 0. -1.
         11    1    1    2    0    0  0.84695917711E+00 -0.26250071818E+01 -0.14410807303E+03  0.14413446748E+03  0.00000000000E+00 0.  1.
        -15    1    1    2    0    0  0.17285160404E+01  0.28271320971E+01 -0.24638026573E+02  0.24923292840E+02  0.17770000000E+01 0. -1.
         15    1    1    2    0    0 -0.48380366964E+01  0.49931785964E+01 -0.12603968893E+02  0.14503661345E+02  0.17770000000E+01 0.  1.
</event>
<event>
 6    1  0.1097339E-002  0.1830197E+03  0.7546771E-02  0.1068042E+00
        -11   -1    0    0    0    0  0.00000000000E+00  0.00000000000E+00  0.18250000000E+03  0.18250000000E+03  0.00000000000E+00 0.  1.
         11   -1    0    0    0    0 -0.00000000000E+00 -0.00000000000E+00 -0.18250000000E+03  0.18250000000E+03  0.00000000000E+00 0.  1.
        -11    1    1    2    0    0  0.40137745414E+00 -0.26179538396E+01  0.18196102231E+03  0.18198029681E+03  0.00000000000E+00 0.  1.
         11    1    1    2    0    0 -0.38364358948E+01  0.70137897209E+01 -0.13268154703E+03  0.13292217426E+03  0.00000000000E+00 0.  1.
        -15    1    1    2    0    0  0.44476311985E+01 -0.49595326982E+01 -0.37520551151E+02  0.38148759816E+02  0.17770000000E+01 0.  1.
         15    1    1    2    0    0 -0.10125727578E+01  0.56369681694E+00 -0.11758924131E+02  0.11948769117E+02  0.17770000000E+01 0. -1.
</event>
<event>
 6    1  0.1097339E-002  0.1859949E+03  0.7546771E-02  0.1065706E+00
        -11   -1    0    0    0    0  0.00000000000E+00  0.00000000000E+00  0.18250000000E+03  0.18250000000E+03  0.00000000000E+00 0.  1.
         11   -1    0    0    0    0 -0.00000000000E+00 -0.00000000000E+00 -0.18250000000E+03  0.18250000000E+03  0.00000000000E+00 0.  1.
        -11    1    1    2    0    0 -0.95458017350E-01  0.50991429164E+01  0.14380233815E+03  0.14389274766E+03  0.00000000000E+00 0.  1.
         11    1    1    2    0    0 -0.55962198247E+01  0.48267002426E+01 -0.17885245558E+03  0.17900507138E+03  0.00000000000E+00 0.  1.
        -15    1    1    2    0    0  0.40869954235E+01 -0.86264732762E+01  0.33292609013E+01  0.10264564283E+02  0.17770000000E+01 0.  1.
         15    1    1    2    0    0  0.16046824186E+01 -0.12993698828E+01  0.31720856530E+02  0.31837616679E+02  0.17770000000E+01 0. -1.
</event>
<event>
 6    1  0.1097339E-002  0.1855280E+03  0.7546771E-02  0.1066070E+00
        -11   -1    0    0    0    0  0.00000000000E+00  0.00000000000E+00  0.18250000000E+03  0.18250000000E+03  0.00000000000E+00 0.  1.
         11   -1    0    0    0    0 -0.00000000000E+00 -0.00000000000E+00 -0.18250000000E+03  0.18250000000E+03  0.00000000000E+00 0.  1.
        -11    1    1    2    0    0 -0.13819915570E+01 -0.56453473830E+01  0.17937782365E+03  0.17947195732E+03  0.00000000000E+00 0.  1.
         11    1    1    2    0    0  0.44088318072E+01  0.80886673899E+00 -0.15355076333E+03  0.15361617422E+03  0.00000000000E+00 0.  1.
        -15    1    1    2    0    0  0.14756146249E+01  0.46310631953E+01  0.44744099153E+00  0.51944313722E+01  0.17770000000E+01 0. -1.
         15    1    1    2    0    0 -0.45024548752E+01  0.20541744878E+00 -0.26274501309E+02  0.26717437082E+02  0.17770000000E+01 0.  1.
</event>
<event>
 6    1  0.1097339E-002  0.1881434E+03  0.7546771E-02  0.1064049E+00
        -11   -1    0    0    0    0  0.00000000000E+00  0.00000000000E+00  0.18250000000E+03  0.18250000000E+03  0.00000000000E+00 0.  1.
         11   -1    0    0    0    0 -0.00000000000E+00 -0.00000000000E+00 -0.18250000000E+03  0.18250000000E+03  0.00000000000E+00 0.  1.
        -11    1    1    2    0    0 -0.42742332452E+01 -0.67826782535E+01  0.17667481586E+03  0.17685662089E+03  0.00000000000E+00 0.  1.
         11    1    1    2    0    0 -0.10445297929E+02  0.79458714748E+00 -0.68696350778E+02  0.69490461415E+02  0.00000000000E+00 0.  1.
        -15    1    1    2    0    0  0.12608311154E+02 -0.29591927474E+01 -0.10849102214E+03  0.10927573357E+03  0.17770000000E+01 0.  1.
         15    1    1    2    0    0  0.21112200209E+01  0.89472838534E+01  0.51255705844E+00  0.93771841226E+01  0.17770000000E+01 0. -1.
</event>
<event>
 6    1  0.1097339E-002  0.1868285E+03  0.7546771E-02  0.1065061E+00
        -11   -1    0    0    0    0  0.00000000000E+00  0.00000000000E+00  0.18250000000E+03  0.18250000000E+03  0.00000000000E+00 0. -1.
         11   -1    0    0    0    0 -0.00000000000E+00 -0.00000000000E+00 -0.18250000000E+03  0.18250000000E+03  0.00000000000E+00 0. -1.
        -11    1    1    2    0    0  0.16074681946E+01 -0.73924759571E+01  0.16844608827E+03  0.16861588688E+03  0.00000000000E+00 0. -1.
         11    1    1    2    0    0 -0.21925615656E+01 -0.10886877879E+01 -0.17815471293E+03  0.17817153057E+03  0.00000000000E+00 0. -1.
        -15    1    1    2    0    0  0.51777305388E+01  0.88234001658E+01  0.74757042886E+01  0.12794732026E+02  0.17770000000E+01 0. -1.
         15    1    1    2    0    0 -0.45926371678E+01 -0.34223642083E+00  0.22329203708E+01  0.54178505244E+01  0.17770000000E+01 0.  1.
</event>
<event>
 6    1  0.1097339E-002  0.1847727E+03  0.7546771E-02  0.1066660E+00
        -11   -1    0    0    0    0  0.00000000000E+00  0.00000000000E+00  0.18250000000E+03  0.18250000000E+03  0.00000000000E+00 0.  1.
         11   -1    0    0    0    0 -0.00000000000E+00 -0.00000000000E+00 -0.18250000000E+03  0.18250000000E+03  0.00000000000E+00 0.  1.
        -11    1    1    2    0    0 -0.29991499513E+01  0.55655870495E+01  0.18011633316E+03  0.18022725691E+03  0.00000000000E+00 0.  1.
         11    1    1    2    0    0  0.11250682585E+01 -0.42716840337E+01 -0.76311102353E+02  0.76438847488E+02  0.00000000000E+00 0.  1.
        -15    1    1    2    0    0 -0.43197080191E+00 -0.87344721265E+00 -0.10510036357E+03  0.10511990135E+03  0.17770000000E+01 0.  1.
         15    1    1    2    0    0  0.23060524946E+01 -0.42045580311E+00  0.12951327612E+01  0.32139942532E+01  0.17770000000E+01 0. -1.
</event>
<event>
 6    1  0.1097339E-002  0.1849465E+03  0.7546771E-02  0.1066524E+00
        -11   -1    0    0    0    0  0.00000000000E+00  0.00000000000E+00  0.18250000000E+03  0.18250000000E+03  0.00000000000E+00 0.  1.
         11   -1    0    0    0    0 -0.00000000000E+00 -0.00000000000E+00 -0.18250000000E+03  0.18250000000E+03  0.00000000000E+00 0. -1.
        -11    1    1    2    0    0  0.15807093996E+01 -0.51750260575E+01  0.17997215492E+03  0.18005348117E+03  0.00000000000E+00 0.  1.
         11    1    1    2    0    0  0.43737656008E+01  0.47558749373E+01 -0.16310793346E+03  0.16323586042E+03  0.00000000000E+00 0. -1.
        -15    1    1    2    0    0 -0.15814796885E+01 -0.10572054124E+01  0.12825695060E+01  0.29019777440E+01  0.17770000000E+01 0.  1.
         15    1    1    2    0    0 -0.43729953119E+01  0.14763565327E+01 -0.18146790970E+02  0.18808680659E+02  0.17770000000E+01 0. -1.
</event>
<event>
 6    1  0.1097339E-002  0.1830616E+03  0.7546771E-02  0.1068009E+00
        -11   -1    0    0    0    0  0.00000000000E+00  0.00000000000E+00  0.18250000000E+03  0.18250000000E+03  0.00000000000E+00 0.  1.
         11   -1    0    0    0    0 -0.00000000000E+00 -0.00000000000E+00 -0.18250000000E+03  0.18250000000E+03  0.00000000000E+00 0.  1.
        -11    1    1    2    0    0 -0.22702536439E+01 -0.51003623936E+01  0.18185269808E+03  0.18193837294E+03  0.00000000000E+00 0.  1.
         11    1    1    2    0    0 -0.21167949172E+01 -0.13223199127E+01 -0.90899917731E+02  0.90934176162E+02  0.00000000000E+00 0.  1.
        -15    1    1    2    0    0 -0.13368885612E+01  0.47645661626E+01 -0.14530052305E+02  0.15452136122E+02  0.17770000000E+01 0. -1.
         15    1    1    2    0    0  0.57239371222E+01  0.16581161437E+01 -0.76422728045E+02  0.76675314777E+02  0.17770000000E+01 0.  1.
</event>
<event>
 6    1  0.1097339E-002  0.1877379E+03  0.7546771E-02  0.1064360E+00
        -11   -1    0    0    0    0  0.00000000000E+00  0.00000000000E+00  0.18250000000E+03  0.18250000000E+03  0.00000000000E+00 0. -1.
         11   -1    0    0    0    0 -0.00000000000E+00 -0.00000000000E+00 -0.18250000000E+03  0.18250000000E+03  0.00000000000E+00 0.  1.
        -11    1    1    2    0    0 -0.80827834642E+00 -0.87939439480E+01  0.13757534228E+03  0.13785848385E+03  0.00000000000E+00 0. -1.
         11    1    1    2    0    0  0.58785924496E+01 -0.13105786626E+01 -0.17715972375E+03  0.17726207486E+03  0.00000000000E+00 0.  1.
        -15    1    1    2    0    0 -0.73988524890E+01  0.61806699911E+01 -0.18981520150E+00  0.98049711118E+01  0.17770000000E+01 0.  1.
         15    1    1    2    0    0  0.23285383858E+01  0.39238526195E+01  0.39774196667E+02  0.40074470177E+02  0.17770000000E+01 0. -1.
</event>
<event>
 6    1  0.1097339E-002  0.1831771E+03  0.7546771E-02  0.1067917E+00
        -11   -1    0    0    0    0  0.00000000000E+00  0.00000000000E+00  0.18250000000E+03  0.18250000000E+03  0.00000000000E+00 0.  1.
         11   -1    0    0    0    0 -0.00000000000E+00 -0.00000000000E+00 -0.18250000000E+03  0.18250000000E+03  0.00000000000E+00 0.  1.
        -11    1    1    2    0    0 -0.76144216112E+00 -0.31228533024E+01  0.18179450538E+03  0.18182291988E+03  0.00000000000E+00 0.  1.
         11    1    1    2    0    0 -0.68656649716E+00 -0.21690546052E+01 -0.15480009972E+03  0.15481681770E+03  0.00000000000E+00 0.  1.
        -15    1    1    2    0    0  0.94879776813E+00 -0.54079162349E+00 -0.34276276447E+01  0.40123600356E+01  0.17770000000E+01 0.  1.
         15    1    1    2    0    0  0.49921089016E+00  0.58326995311E+01 -0.23566778019E+02  0.24347902385E+02  0.17770000000E+01 0.  1.
</event>
<event>
 6    1  0.1097339E-002  0.1836245E+03  0.7546771E-02  0.1067563E+00
        -11   -1    0    0    0    0  0.00000000000E+00  0.00000000000E+00  0.18250000000E+03  0.18250000000E+03  0.00000000000E+00 0. -1.
         11   -1    0    0    0    0 -0.00000000000E+00 -0.00000000000E+00 -0.18250000000E+03  0.18250000000E+03  0.00000000000E+00 0.  1.
        -11    1    1    2    0    0  0.43989005797E+00 -0.17708009169E+01  0.77538205710E+02  0.77559671117E+02  0.00000000000E+00 0. -1.
         11    1    1    2    0    0  0.48273858109E+01 -0.51143584636E+01 -0.18123906023E+03  0.18137545939E+03  0.00000000000E+00 0.  1.
        -15    1    1    2    0    0 -0.81086521454E+01  0.68909432818E+01  0.24229133021E+02  0.26522517883E+02  0.17770000000E+01 0.  1.
         15    1    1    2    0    0  0.28413762765E+01 -0.57839013066E-02  0.79471721499E+02  0.79542351610E+02  0.17770000000E+01 0. -1.
</event>
<event>
 6    1  0.1097339E-002  0.1831100E+03  0.7546771E-02  0.1067970E+00
        -11   -1    0    0    0    0  0.00000000000E+00  0.00000000000E+00  0.18250000000E+03  0.18250000000E+03  0.00000000000E+00 0. -1.
         11   -1    0    0    0    0 -0.00000000000E+00 -0.00000000000E+00 -0.18250000000E+03  0.18250000000E+03  0.00000000000E+00 0. -1.
        -11    1    1    2    0    0 -0.31537023967E+01 -0.14426589321E+01  0.18185695587E+03  0.18189002035E+03  0.00000000000E+00 0. -1.
         11    1    1    2    0    0 -0.29972946982E+01 -0.69341931405E+00 -0.11210040198E+03  0.11214260890E+03  0.00000000000E+00 0. -1.
        -15    1    1    2    0    0  0.44614967524E+01  0.25309441882E+00 -0.65656442499E+02  0.65832326259E+02  0.17770000000E+01 0. -1.
         15    1    1    2    0    0  0.16895003425E+01  0.18829838273E+01 -0.41001113946E+01  0.51350444934E+01  0.17770000000E+01 0.  1.
</event>
<event>
 6    1  0.1097339E-002  0.9077216E+02  0.7546771E-02  0.1180814E+00
        -11   -1    0    0    0    0  0.00000000000E+00  0.00000000000E+00  0.18250000000E+03  0.18250000000E+03  0.00000000000E+00 0. -1.
         11   -1    0    0    0    0 -0.00000000000E+00 -0.00000000000E+00 -0.18250000000E+03  0.18250000000E+03  0.00000000000E+00 0.  1.
        -11    1    1    2    0    0  0.21880459467E+01 -0.24306731148E+01  0.11036901261E+03  0.11041745633E+03  0.00000000000E+00 0. -1.
         11    1    1    2    0    0  0.20685937917E+02 -0.14297170147E+02 -0.83059266602E+02  0.86782249741E+02  0.00000000000E+00 0.  1.
        -15    1    1    2    0    0  0.57198987190E+02  0.34605180329E+02  0.23958819693E+02  0.71038196847E+02  0.17770000000E+01 0.  1.
         15    1    1    2    0    0 -0.80072971054E+02 -0.17877337067E+02 -0.51268565702E+02  0.96762097085E+02  0.17770000000E+01 0. -1.
</event>
<event>
 6    1  0.1097339E-002  0.1834508E+03  0.7546771E-02  0.1067700E+00
        -11   -1    0    0    0    0  0.00000000000E+00  0.00000000000E+00  0.18250000000E+03  0.18250000000E+03  0.00000000000E+00 0.  1.
         11   -1    0    0    0    0 -0.00000000000E+00 -0.00000000000E+00 -0.18250000000E+03  0.18250000000E+03  0.00000000000E+00 0.  1.
        -11    1    1    2    0    0  0.42449280956E+01 -0.41632619783E-01  0.18149953891E+03  0.18154917728E+03  0.00000000000E+00 0.  1.
         11    1    1    2    0    0  0.26107894725E+01 -0.59682505669E+00 -0.15259900328E+03  0.15262250235E+03  0.00000000000E+00 0.  1.
        -15    1    1    2    0    0 -0.72406435176E+01 -0.58066155107E+00 -0.15045965593E+02  0.16801871800E+02  0.17770000000E+01 0.  1.
         15    1    1    2    0    0  0.38492594955E+00  0.12191192275E+01 -0.13854570037E+02  0.14026448574E+02  0.17770000000E+01 0.  1.
</event>
<event>
 6    1  0.1097339E-002  0.1829507E+03  0.7546771E-02  0.1068097E+00
        -11   -1    0    0    0    0  0.00000000000E+00  0.00000000000E+00  0.18250000000E+03  0.18250000000E+03  0.00000000000E+00 0.  1.
         11   -1    0    0    0    0 -0.00000000000E+00 -0.00000000000E+00 -0.18250000000E+03  0.18250000000E+03  0.00000000000E+00 0. -1.
        -11    1    1    2    0    0  0.15163925497E-01  0.18955385308E+01  0.10848491450E+03  0.10850147451E+03  0.00000000000E+00 0.  1.
         11    1    1    2    0    0 -0.31745175001E+01  0.76113557090E+00 -0.18201998842E+03  0.18204926001E+03  0.00000000000E+00 0. -1.
        -15    1    1    2    0    0  0.16670077132E+01 -0.63077260366E+01  0.55101735833E+02  0.55515091131E+02  0.17770000000E+01 0.  1.
         15    1    1    2    0    0  0.14923458613E+01  0.36510519349E+01  0.18433338077E+02  0.18934174343E+02  0.17770000000E+01 0. -1.
</event>
<event>
 6    1  0.1688248E-002  0.1899990E+03  0.7546771E-02  0.1062637E+00
        -11   -1    0    0    0    0  0.00000000000E+00  0.00000000000E+00  0.18250000000E+03  0.18250000000E+03  0.00000000000E+00 0. -1.
         11   -1    0    0    0    0 -0.00000000000E+00 -0.00000000000E+00 -0.18250000000E+03  0.18250000000E+03  0.00000000000E+00 0.  1.
        -11    1    1    2    0    0  0.46055697743E+01 -0.18359300598E+01  0.17493074135E+03  0.17500098909E+03  0.00000000000E+00 0. -1.
         11    1    1    2    0    0  0.17944889004E+01  0.13874979395E+02 -0.13458417236E+03  0.13530940357E+03  0.00000000000E+00 0.  1.
        -15    1    1    2    0    0 -0.84322789139E+01 -0.27912945111E-02  0.33798519113E+01  0.92565902694E+01  0.17770000000E+01 0.  1.
         15    1    1    2    0    0  0.20322202393E+01 -0.12036258041E+02 -0.43726420903E+02  0.45433017077E+02  0.17770000000E+01 0. -1.
</event>
<event>
 6    1  0.1097339E-002  0.1841698E+03  0.7546771E-02  0.1067133E+00
        -11   -1    0    0    0    0  0.00000000000E+00  0.00000000000E+00  0.18250000000E+03  0.18250000000E+03  0.00000000000E+00 0. -1.
         11   -1    0    0    0    0 -0.00000000000E+00 -0.00000000000E+00 -0.18250000000E+03  0.18250000000E+03  0.00000000000E+00 0.  1.
        -11    1    1    2    0    0  0.58076985814E+01  0.38846360448E+01  0.18069520012E+03  0.18083023837E+03  0.00000000000E+00 0. -1.
         11    1    1    2    0    0 -0.38728036709E+01 -0.11648431485E+01 -0.14492404715E+03  0.14498046389E+03  0.00000000000E+00 0.  1.
        -15    1    1    2    0    0  0.20262556640E+01  0.64809605995E+00 -0.32849385076E+02  0.32966127607E+02  0.17770000000E+01 0. -1.
         15    1    1    2    0    0 -0.39611505744E+01 -0.33678889563E+01 -0.29217678935E+01  0.62231701342E+01  0.17770000000E+01 0.  1.
</event>
<event>
 6    1  0.1097339E-002  0.1834696E+03  0.7546771E-02  0.1067686E+00
        -11   -1    0    0    0    0  0.00000000000E+00  0.00000000000E+00  0.18250000000E+03  0.18250000000E+03  0.00000000000E+00 0.  1.
         11   -1    0    0    0    0 -0.00000000000E+00 -0.00000000000E+00 -0.18250000000E+03  0.18250000000E+03  0.00000000000E+00 0. -1.
        -11    1    1    2    0    0  0.32768602617E+01 -0.20713180454E+01  0.16653204010E+03  0.16657715495E+03  0.00000000000E+00 0.  1.
         11    1    1    2    0    0  0.20621961043E+01 -0.14600434404E+01 -0.18151283468E+03  0.18153042040E+03  0.00000000000E+00 0. -1.
        -15    1    1    2    0    0 -0.11430374121E+01  0.35260741121E+00  0.55169649327E+01  0.59182343296E+01  0.17770000000E+01 0.  1.
         15    1    1    2    0    0 -0.41960189539E+01  0.31787540745E+01  0.94638296479E+01  0.10974190318E+02  0.17770000000E+01 0. -1.
</event>
<event>
 6    1  0.1097339E-002  0.1210657E+03  0.7546771E-02  0.1131679E+00
        -11   -1    0    0    0    0  0.00000000000E+00  0.00000000000E+00  0.18250000000E+03  0.18250000000E+03  0.00000000000E+00 0. -1.
         11   -1    0    0    0    0 -0.00000000000E+00 -0.00000000000E+00 -0.18250000000E+03  0.18250000000E+03  0.00000000000E+00 0. -1.
        -11    1    1    2    0    0 -0.23584113497E+02 -0.84205276431E+00  0.64668030347E+02  0.68839477128E+02  0.00000000000E+00 0. -1.
         11    1    1    2    0    0 -0.12504466981E+02 -0.11986239725E+02 -0.12884338556E+03  0.13000249859E+03  0.00000000000E+00 0. -1.
        -15    1    1    2    0    0 -0.89585574944E+01  0.24147269855E+02 -0.42538986226E+02  0.49760119292E+02  0.17770000000E+01 0.  1.
         15    1    1    2    0    0  0.45047137972E+02 -0.11318977365E+02  0.10671434144E+03  0.11639790499E+03  0.17770000000E+01 0. -1.
</event>
<event>
 6    1  0.1097339E-002  0.1912770E+03  0.7546771E-02  0.1061675E+00
        -11   -1    0    0    0    0  0.00000000000E+00  0.00000000000E+00  0.18250000000E+03  0.18250000000E+03  0.00000000000E+00 0.  1.
         11   -1    0    0    0    0 -0.00000000000E+00 -0.00000000000E+00 -0.18250000000E+03  0.18250000000E+03  0.00000000000E+00 0.  1.
        -11    1    1    2    0    0 -0.16972231114E+00  0.38923791897E+01  0.17367928074E+03  0.17372297481E+03  0.00000000000E+00 0.  1.
         11    1    1    2    0    0 -0.68457467996E+00 -0.25177345482E+01 -0.16467869622E+03  0.16469936435E+03  0.00000000000E+00 0.  1.
        -15    1    1    2    0    0 -0.25453912500E-01  0.40715933466E+01 -0.16506803072E+02  0.17094174357E+02  0.17770000000E+01 0.  1.
         15    1    1    2    0    0  0.87975090360E+00 -0.54462379882E+01  0.75062185514E+01  0.94834864801E+01  0.17770000000E+01 0.  1.
</event>
<event>
 6    1  0.1097339E-002  0.1853938E+03  0.7546771E-02  0.1066174E+00
        -11   -1    0    0    0    0  0.00000000000E+00  0.00000000000E+00  0.18250000000E+03  0.18250000000E+03  0.00000000000E+00 0.  1.
         11   -1    0    0    0    0 -0.00000000000E+00 -0.00000000000E+00 -0.18250000000E+03  0.18250000000E+03  0.00000000000E+00 0. -1.
        -11    1    1    2    0    0  0.42448022286E+01  0.76322052234E+01  0.15593348782E+03  0.15617785223E+03  0.00000000000E+00 0.  1.
         11    1    1    2    0    0 -0.45393897502E+01  0.57598839306E+01 -0.17945642433E+03  0.17960620968E+03  0.00000000000E+00 0. -1.
        -15    1    1    2    0    0 -0.40949227680E+01 -0.81311318898E+01  0.83813088659E+01  0.12501510532E+02  0.17770000000E+01 0. -1.
         15    1    1    2    0    0  0.43895102896E+01 -0.52609572642E+01  0.15141627641E+02  0.16714427556E+02  0.17770000000E+01 0.  1.
</event>
<event>
 6    1  0.1097339E-002  0.1829340E+03  0.7546771E-02  0.1068110E+00
        -11   -1    0    0    0    0  0.00000000000E+00  0.00000000000E+00  0.18250000000E+03  0.18250000000E+03  0.00000000000E+00 0. -1.
         11   -1    0    0    0    0 -0.00000000000E+00 -0.00000000000E+00 -0.18250000000E+03  0.18250000000E+03  0.00000000000E+00 0.  1.
        -11    1    1    2    0    0 -0.15038237289E+00 -0.17011199197E+01  0.12663252316E+03  0.12664403794E+03  0.00000000000E+00 0. -1.
         11    1    1    2    0    0  0.23667251634E+01  0.80836495005E+00 -0.18204884883E+03  0.18206602704E+03  0.00000000000E+00 0.  1.
        -15    1    1    2    0    0 -0.49670855558E+00 -0.59686270689E+00  0.19652556114E+01  0.27609641610E+01  0.17770000000E+01 0. -1.
         15    1    1    2    0    0 -0.17196342350E+01  0.14896176765E+01  0.53451070052E+02  0.53528970861E+02  0.17770000000E+01 0.  1.
</event>
<event>
 6    1  0.1097339E-002  0.1837640E+03  0.7546771E-02  0.1067453E+00
        -11   -1    0    0    0    0  0.00000000000E+00  0.00000000000E+00  0.18250000000E+03  0.18250000000E+03  0.00000000000E+00 0. -1.
         11   -1    0    0    0    0 -0.00000000000E+00 -0.00000000000E+00 -0.18250000000E+03  0.18250000000E+03  0.00000000000E+00 0.  1.
        -11    1    1    2    0    0 -0.11199876568E+00 -0.45288806366E+01  0.16303991276E+03  0.16310284012E+03  0.00000000000E+00 0. -1.
         11    1    1    2    0    0 -0.14306439784E+01  0.38051586822E+01 -0.18119041174E+03  0.18123600989E+03  0.00000000000E+00 0.  1.
        -15    1    1    2    0    0  0.20278871209E+00  0.46046037742E+01  0.12589956370E+02  0.13524356901E+02  0.17770000000E+01 0.  1.
         15    1    1    2    0    0  0.13398540320E+01 -0.38808818198E+01  0.55605426096E+01  0.71367930921E+01  0.17770000000E+01 0. -1.
</event>
<event>
 6    1  0.1097339E-002  0.1839503E+03  0.7546771E-02  0.1067306E+00
        -11   -1    0    0    0    0  0.00000000000E+00  0.00000000000E+00  0.18250000000E+03  0.18250000000E+03  0.00000000000E+00 0. -1.
         11   -1    0    0    0    0 -0.00000000000E+00 -0.00000000000E+00 -0.18250000000E+03  0.18250000000E+03  0.00000000000E+00 0. -1.
        -11    1    1    2    0    0 -0.21920442496E+01  0.11839603585E+01  0.18103258501E+03  0.18104972703E+03  0.00000000000E+00 0. -1.
         11    1    1    2    0    0  0.43076550287E+01 -0.31051402145E+00 -0.15869076818E+03  0.15874952667E+03  0.00000000000E+00 0. -1.
        -15    1    1    2    0    0  0.40492719586E+01  0.27554611958E-01 -0.49303367936E+01  0.66229383622E+01  0.17770000000E+01 0. -1.
         15    1    1    2    0    0 -0.61648827377E+01 -0.90100094904E+00 -0.17411480035E+02  0.18577807941E+02  0.17770000000E+01 0.  1.
</event>
<event>
 6    1  0.1097339E-002  0.1860443E+03  0.7546771E-02  0.1065668E+00
        -11   -1    0    0    0    0  0.00000000000E+00  0.00000000000E+00  0.18250000000E+03  0.18250000000E+03  0.00000000000E+00 0.  1.
         11   -1    0    0    0    0 -0.00000000000E+00 -0.00000000000E+00 -0.18250000000E+03  0.18250000000E+03  0.00000000000E+00 0. -1.
        -11    1    1    2    0    0 -0.12629929062E+01 -0.12264515107E+01  0.12298085023E+03  0.12299345046E+03  0.00000000000E+00 0.  1.
         11    1    1    2    0    0  0.59590738102E+01 -0.47515559259E+00 -0.17885577948E+03  0.17895565425E+03  0.00000000000E+00 0. -1.
        -15    1    1    2    0    0 -0.21766903254E+01  0.65594575777E+01  0.56779909985E+02  0.57226570502E+02  0.17770000000E+01 0. -1.
         15    1    1    2    0    0 -0.25193905787E+01 -0.48578504744E+01 -0.90498073008E+00  0.58243247885E+01  0.17770000000E+01 0.  1.
</event>
<event>
 6    1  0.1097339E-002  0.1830499E+03  0.7546771E-02  0.1068018E+00
        -11   -1    0    0    0    0  0.00000000000E+00  0.00000000000E+00  0.18250000000E+03  0.18250000000E+03  0.00000000000E+00 0. -1.
         11   -1    0    0    0    0 -0.00000000000E+00 -0.00000000000E+00 -0.18250000000E+03  0.18250000000E+03  0.00000000000E+00 0. -1.
        -11    1    1    2    0    0 -0.19297816616E+01 -0.32688498858E+01  0.18191046658E+03  0.18195006812E+03  0.00000000000E+00 0. -1.
         11    1    1    2    0    0  0.25081788701E+01  0.14525648563E+01 -0.16122365724E+03  0.16124970872E+03  0.00000000000E+00 0. -1.
        -15    1    1    2    0    0 -0.12119463313E+01  0.14218770684E+01 -0.19183276850E+02  0.19355784355E+02  0.17770000000E+01 0. -1.
         15    1    1    2    0    0  0.63354912274E+00  0.39440796115E+00 -0.15035324888E+01  0.24444388059E+01  0.17770000000E+01 0.  1.
</event>
<event>
 6    1  0.1097339E-002  0.1826407E+03  0.7546771E-02  0.1068343E+00
        -11   -1    0    0    0    0  0.00000000000E+00  0.00000000000E+00  0.18250000000E+03  0.18250000000E+03  0.00000000000E+00 0. -1.
         11   -1    0    0    0    0 -0.00000000000E+00 -0.00000000000E+00 -0.18250000000E+03  0.18250000000E+03  0.00000000000E+00 0.  1.
        -11    1    1    2    0    0  0.25903179904E+01 -0.70662302999E-01  0.18234091960E+03  0.18235933127E+03  0.00000000000E+00 0. -1.
         11    1    1    2    0    0 -0.11562655200E+01  0.14525359905E+01 -0.11379693268E+03  0.11381207624E+03  0.00000000000E+00 0.  1.
        -15    1    1    2    0    0 -0.24416210101E+01 -0.11594227172E+01 -0.57764493750E+02  0.57854993228E+02  0.17770000000E+01 0.  1.
         15    1    1    2    0    0  0.10075685397E+01 -0.22245097034E+00 -0.10779493174E+02  0.10973599268E+02  0.17770000000E+01 0.  1.
</event>
<event>
 6    1  0.1097339E-002  0.1835931E+03  0.7546771E-02  0.1067588E+00
        -11   -1    0    0    0    0  0.00000000000E+00  0.00000000000E+00  0.18250000000E+03  0.18250000000E+03  0.00000000000E+00 0. -1.
         11   -1    0    0    0    0 -0.00000000000E+00 -0.00000000000E+00 -0.18250000000E+03  0.18250000000E+03  0.00000000000E+00 0. -1.
        -11    1    1    2    0    0 -0.27302070519E+01  0.30548939944E+01  0.15068605316E+03  0.15074174281E+03  0.00000000000E+00 0. -1.
         11    1    1    2    0    0  0.32386124050E+00  0.30547378934E+01 -0.18138093296E+03  0.18140694351E+03  0.00000000000E+00 0. -1.
        -15    1    1    2    0    0  0.16891734974E+01 -0.72478265017E+01  0.13540268022E+02  0.15552520156E+02  0.17770000000E+01 0. -1.
         15    1    1    2    0    0  0.71717231398E+00  0.11381946139E+01  0.17154611778E+02  0.17298793524E+02  0.17770000000E+01 0. -1.
</event>
<event>
 6    1  0.1097339E-002  0.1833902E+03  0.7546771E-02  0.1067748E+00
        -11   -1    0    0    0    0  0.00000000000E+00  0.00000000000E+00  0.18250000000E+03  0.18250000000E+03  0.00000000000E+00 0. -1.
         11   -1    0    0    0    0 -0.00000000000E+00 -0.00000000000E+00 -0.18250000000E+03  0.18250000000E+03  0.00000000000E+00 0.  1.
        -11    1    1    2    0    0 -0.14958162128E+01 -0.20858334163E+01  0.13665464902E+03  0.13667875206E+03  0.00000000000E+00 0. -1.
         11    1    1    2    0    0 -0.29241590549E+01 -0.32033828908E+01 -0.18155796703E+03  0.18160976780E+03  0.00000000000E+00 0.  1.
        -15    1    1    2    0    0 -0.81831623208E+00  0.27213296580E+01  0.34425470143E+01  0.48045952492E+01  0.17770000000E+01 0.  1.
         15    1    1    2    0    0  0.52382914997E+01  0.25678866491E+01  0.41460771001E+02  0.41906884884E+02  0.17770000000E+01 0. -1.
</event>
<event>
 6    1  0.1097339E-002  0.1848397E+03  0.7546771E-02  0.1066608E+00
        -11   -1    0    0    0    0  0.00000000000E+00  0.00000000000E+00  0.18250000000E+03  0.18250000000E+03  0.00000000000E+00 0.  1.
         11   -1    0    0    0    0 -0.00000000000E+00 -0.00000000000E+00 -0.18250000000E+03  0.18250000000E+03  0.00000000000E+00 0. -1.
        -11    1    1    2    0    0  0.41100886206E+00 -0.40413935610E+01  0.18011453820E+03  0.18016034153E+03  0.00000000000E+00 0.  1.
         11    1    1    2    0    0  0.11188259136E+01 -0.22005788321E+01 -0.17365014751E+03  0.17366769432E+03  0.00000000000E+00 0. -1.
        -15    1    1    2    0    0  0.18904522584E+00  0.13608182852E+01  0.51404338392E+00  0.23042426312E+01  0.17770000000E+01 0.  1.
         15    1    1    2    0    0 -0.17188800015E+01  0.48811541078E+01 -0.69784340698E+01  0.88677215196E+01  0.17770000000E+01 0. -1.
</event>
<event>
 6    1  0.1097339E-002  0.1885697E+03  0.7546771E-02  0.1063723E+00
        -11   -1    0    0    0    0  0.00000000000E+00  0.00000000000E+00  0.18250000000E+03  0.18250000000E+03  0.00000000000E+00 0.  1.
         11   -1    0    0    0    0 -0.00000000000E+00 -0.00000000000E+00 -0.18250000000E+03  0.18250000000E+03  0.00000000000E+00 0.  1.
        -11    1    1    2    0    0 -0.74447965582E+00 -0.80434306889E+01  0.15875311460E+03  0.15895849277E+03  0.00000000000E+00 0.  1.
         11    1    1    2    0    0  0.34450786224E+01 -0.90402172600E+00 -0.17639434894E+03  0.17643030397E+03  0.00000000000E+00 0.  1.
        -15    1    1    2    0    0 -0.84972985900E+01 -0.69507417658E+00  0.15844399713E+02  0.18080097973E+02  0.17770000000E+01 0.  1.
         15    1    1    2    0    0  0.57966996234E+01  0.96425265915E+01  0.17968346231E+01  0.11531105292E+02  0.17770000000E+01 0. -1.
</event>
<event>
 6    1  0.1097339E-002  0.1848703E+03  0.7546771E-02  0.1066584E+00
        -11   -1    0    0    0    0  0.00000000000E+00  0.00000000000E+00  0.18250000000E+03  0.18250000000E+03  0.00000000000E+00 0.  1.
         11   -1    0    0    0    0 -0.00000000000E+00 -0.00000000000E+00 -0.18250000000E+03  0.18250000000E+03  0.00000000000E+00 0. -1.
        -11    1    1    2    0    0 -0.27548420406E+01 -0.71857560412E+00  0.63899392949E+02  0.63962785468E+02  0.00000000000E+00 0.  1.
         11    1    1    2    0    0 -0.72156817774E+01  0.19558449338E+01 -0.17997452022E+03  0.18012972914E+03  0.00000000000E+00 0. -1.
        -15    1    1    2    0    0 -0.20507046689E+01  0.12711848822E+02  0.27448504903E+02  0.30370621339E+02  0.17770000000E+01 0. -1.
         15    1    1    2    0    0  0.12021228487E+02 -0.13949118151E+02  0.88626622365E+02  0.90536864052E+02  0.17770000000E+01 0.  1.
</event>
<event>
 6    1  0.1097339E-002  0.1857869E+03  0.7546771E-02  0.1065868E+00
        -11   -1    0    0    0    0  0.00000000000E+00  0.00000000000E+00  0.18250000000E+03  0.18250000000E+03  0.00000000000E+00 0. -1.
         11   -1    0    0    0    0 -0.00000000000E+00 -0.00000000000E+00 -0.18250000000E+03  0.18250000000E+03  0.00000000000E+00 0.  1.
        -11    1    1    2    0    0 -0.69066118375E+01 -0.15953391250E+01  0.17907285835E+03  0.17921309939E+03  0.00000000000E+00 0. -1.
         11    1    1    2    0    0 -0.20121107086E+01 -0.67491525805E+00 -0.15461281206E+03  0.15462737711E+03  0.00000000000E+00 0.  1.
        -15    1    1    2    0    0  0.18994783152E+00 -0.34976134297E+01 -0.18653803337E+02  0.19062830005E+02  0.17770000000E+01 0.  1.
         15    1    1    2    0    0  0.87287747146E+01  0.57678678127E+01 -0.58062429584E+01  0.12096693491E+02  0.17770000000E+01 0. -1.
</event>
<event>
 6    1  0.1097339E-002  0.1595659E+03  0.7546771E-02  0.1088334E+00
        -11   -1    0    0    0    0  0.00000000000E+00  0.00000000000E+00  0.18250000000E+03  0.18250000000E+03  0.00000000000E+00 0.  1.
         11   -1    0    0    0    0 -0.00000000000E+00 -0.00000000000E+00 -0.18250000000E+03  0.18250000000E+03  0.00000000000E+00 0.  1.
        -11    1    1    2    0    0 -0.36877355314E+01  0.14218110819E+02  0.15213942355E+03  0.15284684579E+03  0.00000000000E+00 0.  1.
         11    1    1    2    0    0 -0.51171660842E+01  0.92552089198E+01 -0.16729276249E+03  0.16762670629E+03  0.00000000000E+00 0.  1.
        -15    1    1    2    0    0  0.11284358024E+02 -0.75511801226E+01  0.22804441401E+02  0.26599949885E+02  0.17770000000E+01 0.  1.
         15    1    1    2    0    0 -0.24794564086E+01 -0.15922139616E+02 -0.76511024621E+01  0.17926498039E+02  0.17770000000E+01 0. -1.
</event>
<event>
 6    1  0.1097339E-002  0.1889851E+03  0.7546771E-02  0.1063407E+00
        -11   -1    0    0    0    0  0.00000000000E+00  0.00000000000E+00  0.18250000000E+03  0.18250000000E+03  0.00000000000E+00 0. -1.
         11   -1    0    0    0    0 -0.00000000000E+00 -0.00000000000E+00 -0.18250000000E+03  0.18250000000E+03  0.00000000000E+00 0. -1.
        -11    1    1    2    0    0  0.24218516374E+01  0.45498900123E+00  0.17599762571E+03  0.17601487617E+03  0.00000000000E+00 0. -1.
         11    1    1    2    0    0 -0.37123684718E+01 -0.10698428363E+01 -0.16996526459E+03  0.17000916861E+03  0.00000000000E+00 0. -1.
        -15    1    1    2    0    0  0.24443647640E+01  0.18262424223E+01 -0.12010515459E+02  0.12518797509E+02  0.17770000000E+01 0. -1.
         15    1    1    2    0    0 -0.11538479296E+01 -0.12113885872E+01  0.59781543429E+01  0.64571577108E+01  0.17770000000E+01 0. -1.
</event>
<event>
 6    1  0.1097339E-002  0.1851949E+03  0.7546771E-02  0.1066330E+00
        -11   -1    0    0    0    0  0.00000000000E+00  0.00000000000E+00  0.18250000000E+03  0.18250000000E+03  0.00000000000E+00 0. -1.
         11   -1    0    0    0    0 -0.00000000000E+00 -0.00000000000E+00 -0.18250000000E+03  0.18250000000E+03  0.00000000000E+00 0. -1.
        -11    1    1    2    0    0 -0.27879752090E+01  0.18726046450E+01  0.17977372468E+03  0.17980509319E+03  0.00000000000E+00 0. -1.
         11    1    1    2    0    0  0.45135068322E+01 -0.20760240612E+00 -0.15514787207E+03  0.15521364969E+03  0.00000000000E+00 0. -1.
        -15    1    1    2    0    0 -0.32951359133E+01  0.33912006460E+01 -0.34127118911E+00  0.50628408560E+01  0.17770000000E+01 0.  1.
         15    1    1    2    0    0  0.15696042900E+01 -0.50562028848E+01 -0.24284581422E+02  0.24918416263E+02  0.17770000000E+01 0. -1.
</event>
<event>
 6    1  0.1097339E-002  0.1857229E+03  0.7546771E-02  0.1065918E+00
        -11   -1    0    0    0    0  0.00000000000E+00  0.00000000000E+00  0.18250000000E+03  0.18250000000E+03  0.00000000000E+00 0. -1.
         11   -1    0    0    0    0 -0.00000000000E+00 -0.00000000000E+00 -0.18250000000E+03  0.18250000000E+03  0.00000000000E+00 0.  1.
        -11    1    1    2    0    0 -0.24053322582E+01 -0.85361582757E+01  0.10971011982E+03  0.11006798813E+03  0.00000000000E+00 0. -1.
         11    1    1    2    0    0 -0.23328721484E+01  0.32589060506E+01 -0.17923231715E+03  0.17927712144E+03  0.00000000000E+00 0.  1.
        -15    1    1    2    0    0 -0.18432027061E+01 -0.76056490051E+01  0.48853885054E+01  0.93951073891E+01  0.17770000000E+01 0. -1.
         15    1    1    2    0    0  0.65814071127E+01  0.12882901230E+02  0.64636808829E+02  0.66259783038E+02  0.17770000000E+01 0.  1.
</event>
<event>
 6    1  0.1097339E-002  0.1836116E+03  0.7546771E-02  0.1067573E+00
        -11   -1    0    0    0    0  0.00000000000E+00  0.00000000000E+00  0.18250000000E+03  0.18250000000E+03  0.00000000000E+00 0. -1.
         11   -1    0    0    0    0 -0.00000000000E+00 -0.00000000000E+00 -0.18250000000E+03  0.18250000000E+03  0.00000000000E+00 0.  1.
        -11    1    1    2    0    0  0.77667437490E-01  0.26254199164E+01  0.18136939865E+03  0.18138841646E+03  0.00000000000E+00 0. -1.
         11    1    1    2    0    0 -0.48816634306E+00 -0.39737977093E+01 -0.16891902925E+03  0.16896646951E+03  0.00000000000E+00 0.  1.
        -15    1    1    2    0    0 -0.16883364813E+00 -0.14794516727E+01 -0.70923026878E+00  0.24244625439E+01  0.17770000000E+01 0. -1.
         15    1    1    2    0    0  0.57933255370E+00  0.28278294656E+01 -0.11741139126E+02  0.12220651483E+02  0.17770000000E+01 0. -1.
</event>
<event>
 6    1  0.1403361E-002  0.1868170E+03  0.7546771E-02  0.1065069E+00
        -11   -1    0    0    0    0  0.00000000000E+00  0.00000000000E+00  0.18250000000E+03  0.18250000000E+03  0.00000000000E+00 0. -1.
         11   -1    0    0    0    0 -0.00000000000E+00 -0.00000000000E+00 -0.18250000000E+03  0.18250000000E+03  0.00000000000E+00 0.  1.
        -11    1    1    2    0    0 -0.15971410668E+02 -0.18761236252E+01  0.17745583309E+03  0.17818299161E+03  0.00000000000E+00 0. -1.
         11    1    1    2    0    0 -0.97169443302E+00 -0.47210539969E+00 -0.69905227660E+02  0.69913574703E+02  0.00000000000E+00 0.  1.
        -15    1    1    2    0    0  0.13300763895E+02  0.30182471091E+01 -0.55685522957E+01  0.14838687256E+02  0.17770000000E+01 0.  1.
         15    1    1    2    0    0  0.36423412060E+01 -0.67001808426E+00 -0.10198205314E+03  0.10206474644E+03  0.17770000000E+01 0.  1.
</event>
<event>
 6    1  0.1097339E-002  0.1827637E+03  0.7546771E-02  0.1068245E+00
        -11   -1    0    0    0    0  0.00000000000E+00  0.00000000000E+00  0.18250000000E+03  0.18250000000E+03  0.00000000000E+00 0. -1.
         11   -1    0    0    0    0 -0.00000000000E+00 -0.00000000000E+00 -0.18250000000E+03  0.18250000000E+03  0.00000000000E+00 0. -1.
        -11    1    1    2    0    0 -0.20828081860E+00  0.36852019758E+01  0.18219890374E+03  0.18223628787E+03  0.00000000000E+00 0. -1.
         11    1    1    2    0    0 -0.95843219198E+00  0.17940831735E+01 -0.81679724861E+02  0.81705047457E+02  0.00000000000E+00 0. -1.
        -15    1    1    2    0    0  0.45380291778E+00 -0.23930726024E+01 -0.94981533986E+01  0.99652085052E+01  0.17770000000E+01 0.  1.
         15    1    1    2    0    0  0.71291009280E+00 -0.30862125469E+01 -0.91021025476E+02  0.91093456167E+02  0.17770000000E+01 0. -1.
</event>
<event>
 6    1  0.1097339E-002  0.1720434E+03  0.7546771E-02  0.1077097E+00
        -11   -1    0    0    0    0  0.00000000000E+00  0.00000000000E+00  0.18250000000E+03  0.18250000000E+03  0.00000000000E+00 0.  1.
         11   -1    0    0    0    0 -0.00000000000E+00 -0.00000000000E+00 -0.18250000000E+03  0.18250000000E+03  0.00000000000E+00 0. -1.
        -11    1    1    2    0    0 -0.10196993500E+02 -0.10771332672E+02  0.17007149777E+03  0.17071706019E+03  0.00000000000E+00 0.  1.
         11    1    1    2    0    0  0.56769967016E+01  0.91594879385E+00 -0.17346189883E+03  0.17355718826E+03  0.00000000000E+00 0. -1.
        -15    1    1    2    0    0 -0.33955928236E+01  0.23229883947E+00 -0.44652550869E+01  0.58889935783E+01  0.17770000000E+01 0.  1.
         15    1    1    2    0    0  0.79155896218E+01  0.96230850388E+01  0.78556561370E+01  0.14836757970E+02  0.17770000000E+01 0.  1.
</event>
<event>
 6    1  0.1097339E-002  0.1879925E+03  0.7546771E-02  0.1064165E+00
        -11   -1    0    0    0    0  0.00000000000E+00  0.00000000000E+00  0.18250000000E+03  0.18250000000E+03  0.00000000000E+00 0.  1.
         11   -1    0    0    0    0 -0.00000000000E+00 -0.00000000000E+00 -0.18250000000E+03  0.18250000000E+03  0.00000000000E+00 0.  1.
        -11    1    1    2    0    0 -0.33234879521E+01 -0.11225958258E+02  0.17661987825E+03  0.17700748319E+03  0.00000000000E+00 0.  1.
         11    1    1    2    0    0  0.15897210604E+01  0.38008456900E+01 -0.11807948625E+03  0.11815133818E+03  0.00000000000E+00 0.  1.
        -15    1    1    2    0    0 -0.39654582048E+01  0.12254964932E+02 -0.24546982360E+01  0.13232244582E+02  0.17770000000E+01 0. -1.
         15    1    1    2    0    0  0.56992250964E+01 -0.48298523638E+01 -0.56085693767E+02  0.56608934055E+02  0.17770000000E+01 0.  1.
</event>
<event>
 6    1  0.1097339E-002  0.1871073E+03  0.7546771E-02  0.1064845E+00
        -11   -1    0    0    0    0  0.00000000000E+00  0.00000000000E+00  0.18250000000E+03  0.18250000000E+03  0.00000000000E+00 0.  1.
         11   -1    0    0    0    0 -0.00000000000E+00 -0.00000000000E+00 -0.18250000000E+03  0.18250000000E+03  0.00000000000E+00 0.  1.
        -11    1    1    2    0    0  0.67744693785E+01  0.36887967053E+01  0.17114954528E+03  0.17132328361E+03  0.00000000000E+00 0.  1.
         11    1    1    2    0    0 -0.43820273859E+01  0.44740461059E+01 -0.17778244722E+03  0.17789271428E+03  0.00000000000E+00 0.  1.
        -15    1    1    2    0    0 -0.65073726854E+01 -0.67689006137E+01  0.51824292893E+01  0.10871026498E+02  0.17770000000E+01 0. -1.
         15    1    1    2    0    0  0.41149306928E+01 -0.13939421975E+01  0.14504726499E+01  0.49129756121E+01  0.17770000000E+01 0.  1.
</event>
<event>
 6    1  0.1097339E-002  0.1872366E+03  0.7546771E-02  0.1064746E+00
        -11   -1    0    0    0    0  0.00000000000E+00  0.00000000000E+00  0.18250000000E+03  0.18250000000E+03  0.00000000000E+00 0.  1.
         11   -1    0    0    0    0 -0.00000000000E+00 -0.00000000000E+00 -0.18250000000E+03  0.18250000000E+03  0.00000000000E+00 0.  1.
        -11    1    1    2    0    0  0.12012507298E+02 -0.48496567815E+01  0.12148574983E+03  0.12217449372E+03  0.00000000000E+00 0.  1.
         11    1    1    2    0    0 -0.39615273444E+01  0.20401679380E+01 -0.17770757417E+03  0.17776343241E+03  0.00000000000E+00 0.  1.
        -15    1    1    2    0    0 -0.11719642511E+02 -0.39688154570E+01  0.55754519365E+02  0.57138653076E+02  0.17770000000E+01 0. -1.
         15    1    1    2    0    0  0.36686625579E+01  0.67783043006E+01  0.46730497740E+00  0.79234207952E+01  0.17770000000E+01 0.  1.
</event>
<event>
 6    1  0.1097339E-002  0.1856778E+03  0.7546771E-02  0.1065953E+00
        -11   -1    0    0    0    0  0.00000000000E+00  0.00000000000E+00  0.18250000000E+03  0.18250000000E+03  0.00000000000E+00 0.  1.
         11   -1    0    0    0    0 -0.00000000000E+00 -0.00000000000E+00 -0.18250000000E+03  0.18250000000E+03  0.00000000000E+00 0.  1.
        -11    1    1    2    0    0 -0.45950533988E+01 -0.93688524853E+00  0.17926088388E+03  0.17932221491E+03  0.00000000000E+00 0.  1.
         11    1    1    2    0    0 -0.23756414433E+01 -0.16366414712E+01 -0.16051210255E+03  0.16053802457E+03  0.00000000000E+00 0.  1.
        -15    1    1    2    0    0  0.72259832140E+01 -0.85031410116E+00 -0.17293244659E+01  0.76867522132E+01  0.17770000000E+01 0.  1.
         15    1    1    2    0    0 -0.25528837185E+00  0.34238408209E+01 -0.17019456865E+02  0.17453008311E+02  0.17770000000E+01 0. -1.
</event>
<event>
 6    1  0.1097339E-002  0.1844213E+03  0.7546771E-02  0.1066936E+00
        -11   -1    0    0    0    0  0.00000000000E+00  0.00000000000E+00  0.18250000000E+03  0.18250000000E+03  0.00000000000E+00 0.  1.
         11   -1    0    0    0    0 -0.00000000000E+00 -0.00000000000E+00 -0.18250000000E+03  0.18250000000E+03  0.00000000000E+00 0. -1.
        -11    1    1    2    0    0 -0.30598542011E+01  0.58031556136E+01  0.16632850964E+03  0.16645783983E+03  0.00000000000E+00 0.  1.
         11    1    1    2    0    0  0.47551760469E+01 -0.43671031097E+01 -0.18046321194E+03  0.18057866472E+03  0.00000000000E+00 0. -1.
        -15    1    1    2    0    0 -0.40946551089E+01  0.10963234615E+01  0.13144860723E+02  0.13925272637E+02  0.17770000000E+01 0.  1.
         15    1    1    2    0    0  0.23993332631E+01 -0.25323759654E+01  0.98984157195E+00  0.40382228114E+01  0.17770000000E+01 0.  1.
</event>
<event>
 6    1  0.1097339E-002  0.1839288E+03  0.7546771E-02  0.1067323E+00
        -11   -1    0    0    0    0  0.00000000000E+00  0.00000000000E+00  0.18250000000E+03  0.18250000000E+03  0.00000000000E+00 0.  1.
         11   -1    0    0    0    0 -0.00000000000E+00 -0.00000000000E+00 -0.18250000000E+03  0.18250000000E+03  0.00000000000E+00 0.  1.
        -11    1    1    2    0    0 -0.53757815988E+00 -0.49045969156E+01  0.36991234003E+02  0.37318835114E+02  0.00000000000E+00 0.  1.
         11    1    1    2    0    0 -0.26603501396E+01  0.10549802941E+00 -0.18105167061E+03  0.18107124571E+03  0.00000000000E+00 0.  1.
        -15    1    1    2    0    0  0.26162965310E+01  0.72390902860E+01  0.14320002063E+03  0.14341775718E+03  0.17770000000E+01 0.  1.
         15    1    1    2    0    0  0.58163176847E+00 -0.24399913998E+01  0.86041597599E+00  0.31921619941E+01  0.17770000000E+01 0. -1.
</event>
<event>
 6    1  0.1097339E-002  0.1752395E+03  0.7546771E-02  0.1074386E+00
        -11   -1    0    0    0    0  0.00000000000E+00  0.00000000000E+00  0.18250000000E+03  0.18250000000E+03  0.00000000000E+00 0.  1.
         11   -1    0    0    0    0 -0.00000000000E+00 -0.00000000000E+00 -0.18250000000E+03  0.18250000000E+03  0.00000000000E+00 0.  1.
        -11    1    1    2    0    0  0.29202228727E+01 -0.27461770088E+01  0.17578236871E+03  0.17582807040E+03  0.00000000000E+00 0.  1.
         11    1    1    2    0    0  0.13298518172E+01 -0.26544383751E+01 -0.17469470874E+03  0.17471993536E+03  0.00000000000E+00 0.  1.
        -15    1    1    2    0    0 -0.44593071753E+01 -0.38637577589E+00  0.42162878523E+01  0.64007436270E+01  0.17770000000E+01 0. -1.
         15    1    1    2    0    0  0.20923248540E+00  0.57869911598E+01 -0.53039478225E+01  0.80512506122E+01  0.17770000000E+01 0.  1.
</event>
<event>
 6    1  0.1097339E-002  0.1912373E+03  0.7546771E-02  0.1061705E+00
        -11   -1    0    0    0    0  0.00000000000E+00  0.00000000000E+00  0.18250000000E+03  0.18250000000E+03  0.00000000000E+00 0.  1.
         11   -1    0    0    0    0 -0.00000000000E+00 -0.00000000000E+00 -0.18250000000E+03  0.18250000000E+03  0.00000000000E+00 0.  1.
        -11    1    1    2    0    0  0.80756471780E+01 -0.85122906704E+01  0.17336611706E+03  0.17376272820E+03  0.00000000000E+00 0.  1.
         11    1    1    2    0    0  0.59714308266E-01  0.40295817313E+01 -0.14527196893E+03  0.14532785711E+03  0.00000000000E+00 0.  1.
        -15    1    1    2    0    0 -0.77642795587E+01  0.82615291587E+01  0.50237173198E+01  0.12527264898E+02  0.17770000000E+01 0. -1.
         15    1    1    2    0    0 -0.37108192749E+00 -0.37788202195E+01 -0.33117865446E+02  0.33382149792E+02  0.17770000000E+01 0. -1.
</event>
<event>
 6    1  0.1237285E-002  0.1695928E+03  0.7546771E-02  0.1079220E+00
        -11   -1    0    0    0    0  0.00000000000E+00  0.00000000000E+00  0.18250000000E+03  0.18250000000E+03  0.00000000000E+00 0.  1.
         11   -1    0    0    0    0 -0.00000000000E+00 -0.00000000000E+00 -0.18250000000E+03  0.18250000000E+03  0.00000000000E+00 0. -1.
        -11    1    1    2    0    0 -0.43755068570E+01  0.15779126524E+01  0.17136896972E+03  0.17143208174E+03  0.00000000000E+00 0.  1.
         11    1    1    2    0    0  0.73011615657E+01  0.52377344304E+01 -0.16761465577E+03  0.16785533548E+03  0.00000000000E+00 0. -1.
        -15    1    1    2    0    0  0.82224211587E-01 -0.20448643266E+01  0.10201672704E+02  0.10555571320E+02  0.17770000000E+01 0. -1.
         15    1    1    2    0    0 -0.30078789203E+01 -0.47707827563E+01 -0.13955986656E+02  0.15157011455E+02  0.17770000000E+01 0.  1.
</event>
<event>
 6    1  0.1097339E-002  0.1839727E+03  0.7546771E-02  0.1067289E+00
        -11   -1    0    0    0    0  0.00000000000E+00  0.00000000000E+00  0.18250000000E+03  0.18250000000E+03  0.00000000000E+00 0.  1.
         11   -1    0    0    0    0 -0.00000000000E+00 -0.00000000000E+00 -0.18250000000E+03  0.18250000000E+03  0.00000000000E+00 0.  1.
        -11    1    1    2    0    0 -0.14972532981E+01 -0.18177635986E+01  0.16533552120E+03  0.16535229240E+03  0.00000000000E+00 0.  1.
         11    1    1    2    0    0  0.59622203638E+01 -0.10368679556E+01 -0.18092616798E+03  0.18102734994E+03  0.00000000000E+00 0.  1.
        -15    1    1    2    0    0 -0.20522851769E+01 -0.27214271664E+01  0.62211120957E+01  0.73128657158E+01  0.17770000000E+01 0.  1.
         15    1    1    2    0    0 -0.24126818888E+01  0.55760587207E+01  0.93695346819E+01  0.11307491937E+02  0.17770000000E+01 0. -1.
</event>
<event>
 6    1  0.1097339E-002  0.1826313E+03  0.7546771E-02  0.1068350E+00
        -11   -1    0    0    0    0  0.00000000000E+00  0.00000000000E+00  0.18250000000E+03  0.18250000000E+03  0.00000000000E+00 0. -1.
         11   -1    0    0    0    0 -0.00000000000E+00 -0.00000000000E+00 -0.18250000000E+03  0.18250000000E+03  0.00000000000E+00 0. -1.
        -11    1    1    2    0    0 -0.50196640961E+00 -0.16482060358E+01  0.46538843128E+02  0.46570725495E+02  0.00000000000E+00 0. -1.
         11    1    1    2    0    0 -0.46252758053E+01  0.19157016728E+01 -0.18229998707E+03  0.18236871545E+03  0.00000000000E+00 0. -1.
        -15    1    1    2    0    0  0.86359291937E+00  0.27905711763E+01  0.59813864806E+02  0.59911511684E+02  0.17770000000E+01 0.  1.
         15    1    1    2    0    0  0.42636492956E+01 -0.30580668133E+01  0.75947279137E+02  0.76149047370E+02  0.17770000000E+01 0. -1.
</event>
<event>
 6    1  0.1097339E-002  0.1839579E+03  0.7546771E-02  0.1067300E+00
        -11   -1    0    0    0    0  0.00000000000E+00  0.00000000000E+00  0.18250000000E+03  0.18250000000E+03  0.00000000000E+00 0. -1.
         11   -1    0    0    0    0 -0.00000000000E+00 -0.00000000000E+00 -0.18250000000E+03  0.18250000000E+03  0.00000000000E+00 0.  1.
        -11    1    1    2    0    0 -0.13656432554E+01  0.88550086562E+00  0.11336749644E+03  0.11337917950E+03  0.00000000000E+00 0. -1.
         11    1    1    2    0    0 -0.38254936852E+01 -0.20070686534E+01 -0.18099057926E+03  0.18104212910E+03  0.00000000000E+00 0.  1.
        -15    1    1    2    0    0  0.32479548554E+01 -0.63256064822E+01  0.99012187906E+01  0.12318862393E+02  0.17770000000E+01 0.  1.
         15    1    1    2    0    0  0.19431820853E+01  0.74471742700E+01  0.57721864026E+02  0.58259829015E+02  0.17770000000E+01 0. -1.
</event>
<event>
 6    1  0.1097339E-002  0.1850606E+03  0.7546771E-02  0.1066435E+00
        -11   -1    0    0    0    0  0.00000000000E+00  0.00000000000E+00  0.18250000000E+03  0.18250000000E+03  0.00000000000E+00 0. -1.
         11   -1    0    0    0    0 -0.00000000000E+00 -0.00000000000E+00 -0.18250000000E+03  0.18250000000E+03  0.00000000000E+00 0.  1.
        -11    1    1    2    0    0 -0.31160869123E+00 -0.27350075259E+01  0.13186852763E+03  0.13189725526E+03  0.00000000000E+00 0. -1.
         11    1    1    2    0    0  0.26057682980E+01 -0.58719911746E+01 -0.17982466998E+03  0.17993938491E+03  0.00000000000E+00 0.  1.
        -15    1    1    2    0    0 -0.39931213202E+01 -0.40617364894E+01  0.36011317759E+01  0.69691176094E+01  0.17770000000E+01 0.  1.
         15    1    1    2    0    0  0.16989617134E+01  0.12668735190E+02  0.44355010574E+02  0.46194242219E+02  0.17770000000E+01 0. -1.
</event>
<event>
 6    1  0.1097339E-002  0.1728285E+03  0.7546771E-02  0.1076425E+00
        -11   -1    0    0    0    0  0.00000000000E+00  0.00000000000E+00  0.18250000000E+03  0.18250000000E+03  0.00000000000E+00 0.  1.
         11   -1    0    0    0    0 -0.00000000000E+00 -0.00000000000E+00 -0.18250000000E+03  0.18250000000E+03  0.00000000000E+00 0.  1.
        -11    1    1    2    0    0  0.20860297873E+01 -0.81744582228E+01  0.17635960192E+03  0.17656127117E+03  0.00000000000E+00 0.  1.
         11    1    1    2    0    0 -0.11473808701E+00 -0.35139613732E+01 -0.16933380029E+03  0.16937029553E+03  0.00000000000E+00 0.  1.
        -15    1    1    2    0    0 -0.25357294586E+01  0.61844809703E-01  0.24541159416E+01  0.39514760182E+01  0.17770000000E+01 0. -1.
         15    1    1    2    0    0  0.56443775829E+00  0.11626574786E+02 -0.94799175732E+01  0.15116957281E+02  0.17770000000E+01 0.  1.
</event>
<event>
 6    1  0.1097339E-002  0.1957346E+03  0.7546771E-02  0.1058382E+00
        -11   -1    0    0    0    0  0.00000000000E+00  0.00000000000E+00  0.18250000000E+03  0.18250000000E+03  0.00000000000E+00 0. -1.
         11   -1    0    0    0    0 -0.00000000000E+00 -0.00000000000E+00 -0.18250000000E+03  0.18250000000E+03  0.00000000000E+00 0. -1.
        -11    1    1    2    0    0 -0.52836448395E+00 -0.28336946845E+01  0.16924083109E+03  0.16926537715E+03  0.00000000000E+00 0. -1.
         11    1    1    2    0    0 -0.51083972693E+00  0.25836571454E+01 -0.15686876656E+03  0.15689087343E+03  0.00000000000E+00 0. -1.
        -15    1    1    2    0    0  0.25327918636E+01 -0.32391880347E+01  0.12677726319E+02  0.13445811517E+02  0.17770000000E+01 0.  1.
         15    1    1    2    0    0 -0.14935876527E+01  0.34892255739E+01 -0.25049790847E+02  0.25397937902E+02  0.17770000000E+01 0. -1.
</event>
<event>
 6    1  0.1097339E-002  0.1838917E+03  0.7546771E-02  0.1067352E+00
        -11   -1    0    0    0    0  0.00000000000E+00  0.00000000000E+00  0.18250000000E+03  0.18250000000E+03  0.00000000000E+00 0.  1.
         11   -1    0    0    0    0 -0.00000000000E+00 -0.00000000000E+00 -0.18250000000E+03  0.18250000000E+03  0.00000000000E+00 0. -1.
        -11    1    1    2    0    0  0.14235447847E+01 -0.39145280098E+01  0.15453164177E+03  0.15458776898E+03  0.00000000000E+00 0.  1.
         11    1    1    2    0    0 -0.82500020317E+01  0.65908390382E+00 -0.18091905278E+03  0.18110825653E+03  0.00000000000E+00 0. -1.
        -15    1    1    2    0    0  0.59596048797E+01 -0.17079343475E+01  0.87156256484E+01  0.10842222535E+02  0.17770000000E+01 0. -1.
         15    1    1    2    0    0  0.86685236725E+00  0.49633784535E+01  0.17671785357E+02  0.18461751960E+02  0.17770000000E+01 0.  1.
</event>
<event>
 6    1  0.1097339E-002  0.1828696E+03  0.7546771E-02  0.1068161E+00
        -11   -1    0    0    0    0  0.00000000000E+00  0.00000000000E+00  0.18250000000E+03  0.18250000000E+03  0.00000000000E+00 0. -1.
         11   -1    0    0    0    0 -0.00000000000E+00 -0.00000000000E+00 -0.18250000000E+03  0.18250000000E+03  0.00000000000E+00 0.  1.
        -11    1    1    2    0    0  0.27746792175E+01 -0.11064295483E+01  0.18210594821E+03  0.18213044612E+03  0.00000000000E+00 0. -1.
         11    1    1    2    0    0  0.18101752915E+01 -0.83000972600E+00 -0.13891744376E+03  0.13893171643E+03  0.00000000000E+00 0.  1.
        -15    1    1    2    0    0 -0.51123265138E+01  0.27256314921E+01 -0.33096528193E+02  0.33646736199E+02  0.17770000000E+01 0.  1.
         15    1    1    2    0    0  0.52747200489E+00 -0.78919221781E+00 -0.10091976258E+02  0.10291101247E+02  0.17770000000E+01 0.  1.
</event>
<event>
 6    1  0.1097339E-002  0.1863920E+03  0.7546771E-02  0.1065398E+00
        -11   -1    0    0    0    0  0.00000000000E+00  0.00000000000E+00  0.18250000000E+03  0.18250000000E+03  0.00000000000E+00 0. -1.
         11   -1    0    0    0    0 -0.00000000000E+00 -0.00000000000E+00 -0.18250000000E+03  0.18250000000E+03  0.00000000000E+00 0. -1.
        -11    1    1    2    0    0  0.18669934798E+01  0.32549409236E+01  0.17856853369E+03  0.17860795483E+03  0.00000000000E+00 0. -1.
         11    1    1    2    0    0  0.30989273967E+01  0.12418202464E+01 -0.17396173569E+03  0.17399376700E+03  0.00000000000E+00 0. -1.
        -15    1    1    2    0    0  0.65338877535E+00 -0.19662144555E+01 -0.52853635868E+01  0.59485891959E+01  0.17770000000E+01 0. -1.
         15    1    1    2    0    0 -0.56193096518E+01 -0.25305467145E+01  0.67856558847E+00  0.64496889766E+01  0.17770000000E+01 0.  1.
</event>
<event>
 6    1  0.1097339E-002  0.1863450E+03  0.7546771E-02  0.1065435E+00
        -11   -1    0    0    0    0  0.00000000000E+00  0.00000000000E+00  0.18250000000E+03  0.18250000000E+03  0.00000000000E+00 0.  1.
         11   -1    0    0    0    0 -0.00000000000E+00 -0.00000000000E+00 -0.18250000000E+03  0.18250000000E+03  0.00000000000E+00 0.  1.
        -11    1    1    2    0    0 -0.40780062031E+01  0.33950894886E+00  0.17860815118E+03  0.17865502252E+03  0.00000000000E+00 0.  1.
         11    1    1    2    0    0 -0.45968181075E+01 -0.20621639745E+01 -0.17087082097E+03  0.17094508099E+03  0.00000000000E+00 0.  1.
        -15    1    1    2    0    0  0.10183470821E+02  0.27854549774E+01 -0.67385159447E+01  0.12650184328E+02  0.17770000000E+01 0. -1.
         15    1    1    2    0    0 -0.15086465105E+01 -0.10627999517E+01 -0.99881426750E+00  0.27497121617E+01  0.17770000000E+01 0. -1.
</event>
<event>
 6    1  0.1097339E-002  0.1727075E+03  0.7546771E-02  0.1076528E+00
        -11   -1    0    0    0    0  0.00000000000E+00  0.00000000000E+00  0.18250000000E+03  0.18250000000E+03  0.00000000000E+00 0. -1.
         11   -1    0    0    0    0 -0.00000000000E+00 -0.00000000000E+00 -0.18250000000E+03  0.18250000000E+03  0.00000000000E+00 0.  1.
        -11    1    1    2    0    0  0.49242956866E+01 -0.48048418400E+00  0.17385041638E+03  0.17392080620E+03  0.00000000000E+00 0. -1.
         11    1    1    2    0    0 -0.50711478296E+00  0.24527287461E+01 -0.17151763146E+03  0.17153591737E+03  0.00000000000E+00 0.  1.
        -15    1    1    2    0    0  0.17322199746E+01  0.61659530560E+01  0.36523285044E+01  0.75839828344E+01  0.17770000000E+01 0.  1.
         15    1    1    2    0    0 -0.61494008783E+01 -0.81381976181E+01 -0.59851134233E+01  0.11959293596E+02  0.17770000000E+01 0. -1.
</event>
<event>
 6    1  0.1097339E-002  0.1838786E+03  0.7546771E-02  0.1067363E+00
        -11   -1    0    0    0    0  0.00000000000E+00  0.00000000000E+00  0.18250000000E+03  0.18250000000E+03  0.00000000000E+00 0.  1.
         11   -1    0    0    0    0 -0.00000000000E+00 -0.00000000000E+00 -0.18250000000E+03  0.18250000000E+03  0.00000000000E+00 0. -1.
        -11    1    1    2    0    0  0.39639488964E+01  0.19614153961E+01  0.12847975287E+03  0.12855585144E+03  0.00000000000E+00 0.  1.
         11    1    1    2    0    0  0.41172752288E+01  0.36282192914E+01 -0.18103829013E+03  0.18112144661E+03  0.00000000000E+00 0. -1.
        -15    1    1    2    0    0 -0.12317752683E+01 -0.78000038416E+01  0.15049505339E+02  0.17088085621E+02  0.17770000000E+01 0. -1.
         15    1    1    2    0    0 -0.68494488570E+01  0.22103691541E+01  0.37509031915E+02  0.38234616327E+02  0.17770000000E+01 0.  1.
</event>
<event>
 6    1  0.1097339E-002  0.1856940E+03  0.7546771E-02  0.1065940E+00
        -11   -1    0    0    0    0  0.00000000000E+00  0.00000000000E+00  0.18250000000E+03  0.18250000000E+03  0.00000000000E+00 0.  1.
         11   -1    0    0    0    0 -0.00000000000E+00 -0.00000000000E+00 -0.18250000000E+03  0.18250000000E+03  0.00000000000E+00 0. -1.
        -11    1    1    2    0    0  0.14179389038E+00 -0.24167371161E+01  0.16166364516E+03  0.16168177044E+03  0.00000000000E+00 0.  1.
         11    1    1    2    0    0  0.69250601460E+01 -0.26106771563E+01 -0.17915319472E+03  0.17930599340E+03  0.00000000000E+00 0. -1.
        -15    1    1    2    0    0  0.15508766525E+01  0.28809495774E+01  0.13695532314E+02  0.14192618617E+02  0.17770000000E+01 0. -1.
         15    1    1    2    0    0 -0.86177306889E+01  0.21464646950E+01  0.37940172374E+01  0.98196175440E+01  0.17770000000E+01 0. -1.
</event>
<event>
 6    1  0.1097339E-002  0.1863651E+03  0.7546771E-02  0.1065419E+00
        -11   -1    0    0    0    0  0.00000000000E+00  0.00000000000E+00  0.18250000000E+03  0.18250000000E+03  0.00000000000E+00 0. -1.
         11   -1    0    0    0    0 -0.00000000000E+00 -0.00000000000E+00 -0.18250000000E+03  0.18250000000E+03  0.00000000000E+00 0. -1.
        -11    1    1    2    0    0  0.17471688442E+01  0.34941887047E+01  0.16379589218E+03  0.16384247389E+03  0.00000000000E+00 0. -1.
         11    1    1    2    0    0 -0.37018148403E+01 -0.12745356387E+01 -0.17859197362E+03  0.17863488158E+03  0.00000000000E+00 0. -1.
        -15    1    1    2    0    0 -0.30001617962E+01  0.16058729073E+01  0.15508565519E+02  0.15976643329E+02  0.17770000000E+01 0. -1.
         15    1    1    2    0    0  0.49548077923E+01 -0.38255259733E+01 -0.71248408039E+00  0.65460012065E+01  0.17770000000E+01 0.  1.
</event>
<event>
 6    1  0.1097339E-002  0.1845198E+03  0.7546771E-02  0.1066858E+00
        -11   -1    0    0    0    0  0.00000000000E+00  0.00000000000E+00  0.18250000000E+03  0.18250000000E+03  0.00000000000E+00 0. -1.
         11   -1    0    0    0    0 -0.00000000000E+00 -0.00000000000E+00 -0.18250000000E+03  0.18250000000E+03  0.00000000000E+00 0. -1.
        -11    1    1    2    0    0 -0.26312706711E+01 -0.71911870678E+00  0.18045955817E+03  0.18048017302E+03  0.00000000000E+00 0. -1.
         11    1    1    2    0    0  0.19223177957E+01  0.24406851129E+01 -0.16969423736E+03  0.16972267510E+03  0.00000000000E+00 0. -1.
        -15    1    1    2    0    0 -0.18566654042E+01  0.65293725868E+00 -0.10540789347E+02  0.10869199720E+02  0.17770000000E+01 0. -1.
         15    1    1    2    0    0  0.25656182796E+01 -0.23745036648E+01 -0.22453146975E+00  0.39279521626E+01  0.17770000000E+01 0.  1.
</event>
<event>
 6    1  0.1097339E-002  0.2198437E+03  0.7546771E-02  0.1042091E+00
        -11   -1    0    0    0    0  0.00000000000E+00  0.00000000000E+00  0.18250000000E+03  0.18250000000E+03  0.00000000000E+00 0. -1.
         11   -1    0    0    0    0 -0.00000000000E+00 -0.00000000000E+00 -0.18250000000E+03  0.18250000000E+03  0.00000000000E+00 0.  1.
        -11    1    1    2    0    0 -0.75573445283E+01 -0.72183549910E+01  0.14477961007E+03  0.14515630747E+03  0.00000000000E+00 0. -1.
         11    1    1    2    0    0  0.51652984016E+01 -0.16049272498E+02 -0.12295566186E+03  0.12410622160E+03  0.00000000000E+00 0.  1.
        -15    1    1    2    0    0  0.33046797281E+02  0.22619073505E+02  0.19235472685E+02  0.44462056128E+02  0.17770000000E+01 0. -1.
         15    1    1    2    0    0 -0.30654751154E+02  0.64855398325E+00 -0.41059420893E+02  0.51275414807E+02  0.17770000000E+01 0.  1.
</event>
<event>
 6    1  0.1137688E-002  0.1833605E+03  0.7546771E-02  0.1067772E+00
        -11   -1    0    0    0    0  0.00000000000E+00  0.00000000000E+00  0.18250000000E+03  0.18250000000E+03  0.00000000000E+00 0. -1.
         11   -1    0    0    0    0 -0.00000000000E+00 -0.00000000000E+00 -0.18250000000E+03  0.18250000000E+03  0.00000000000E+00 0. -1.
        -11    1    1    2    0    0  0.22048900523E+01  0.30858053026E+01  0.18159986955E+03  0.18163946805E+03  0.00000000000E+00 0. -1.
         11    1    1    2    0    0 -0.18720457826E+01 -0.34906802630E+01 -0.10130748139E+03  0.10138488639E+03  0.00000000000E+00 0. -1.
        -15    1    1    2    0    0 -0.19010377701E+01 -0.34097032026E+01 -0.51634185416E+01  0.67125733194E+01  0.17770000000E+01 0. -1.
         15    1    1    2    0    0  0.15681935004E+01  0.38145781629E+01 -0.75128969618E+02  0.75263072236E+02  0.17770000000E+01 0. -1.
</event>
<event>
 6    1  0.1097339E-002  0.1849439E+03  0.7546771E-02  0.1066526E+00
        -11   -1    0    0    0    0  0.00000000000E+00  0.00000000000E+00  0.18250000000E+03  0.18250000000E+03  0.00000000000E+00 0.  1.
         11   -1    0    0    0    0 -0.00000000000E+00 -0.00000000000E+00 -0.18250000000E+03  0.18250000000E+03  0.00000000000E+00 0.  1.
        -11    1    1    2    0    0 -0.33008020610E+01 -0.41807832095E+01  0.16898557243E+03  0.16906950622E+03  0.00000000000E+00 0.  1.
         11    1    1    2    0    0 -0.20777151358E+01  0.26376363008E+01 -0.18002474055E+03  0.18005605027E+03  0.00000000000E+00 0.  1.
        -15    1    1    2    0    0  0.51124698511E+01  0.50655727077E+01  0.78221068523E+01  0.10776848308E+02  0.17770000000E+01 0. -1.
         15    1    1    2    0    0  0.26604734565E+00 -0.35224257990E+01  0.32170612694E+01  0.50975952086E+01  0.17770000000E+01 0.  1.
</event>
<event>
 6    1  0.1097339E-002  0.1846509E+03  0.7546771E-02  0.1066755E+00
        -11   -1    0    0    0    0  0.00000000000E+00  0.00000000000E+00  0.18250000000E+03  0.18250000000E+03  0.00000000000E+00 0.  1.
         11   -1    0    0    0    0 -0.00000000000E+00 -0.00000000000E+00 -0.18250000000E+03  0.18250000000E+03  0.00000000000E+00 0. -1.
        -11    1    1    2    0    0 -0.51221839195E+01 -0.48078620398E+01  0.18021221555E+03  0.18034909187E+03  0.00000000000E+00 0.  1.
         11    1    1    2    0    0  0.10947473821E+01 -0.19537895130E+01 -0.16379603747E+03  0.16381134777E+03  0.00000000000E+00 0. -1.
        -15    1    1    2    0    0  0.48875561544E+01  0.68504990679E+01 -0.66403413780E+01  0.10865974657E+02  0.17770000000E+01 0.  1.
         15    1    1    2    0    0 -0.86011961700E+00 -0.88847515071E-01 -0.97758366970E+01  0.99735857024E+01  0.17770000000E+01 0.  1.
</event>
<event>
 6    1  0.1097339E-002  0.1853108E+03  0.7546771E-02  0.1066239E+00
        -11   -1    0    0    0    0  0.00000000000E+00  0.00000000000E+00  0.18250000000E+03  0.18250000000E+03  0.00000000000E+00 0.  1.
         11   -1    0    0    0    0 -0.00000000000E+00 -0.00000000000E+00 -0.18250000000E+03  0.18250000000E+03  0.00000000000E+00 0.  1.
        -11    1    1    2    0    0 -0.34867368818E+01  0.53229042956E+01  0.15331472365E+03  0.15344671757E+03  0.00000000000E+00 0.  1.
         11    1    1    2    0    0  0.60941080487E+00 -0.40538156193E+01 -0.17964247199E+03  0.17968923881E+03  0.00000000000E+00 0.  1.
        -15    1    1    2    0    0 -0.69152109229E+00 -0.17917881838E+01 -0.19742665427E+01  0.32778291136E+01  0.17770000000E+01 0. -1.
         15    1    1    2    0    0  0.35688471693E+01  0.52269950746E+00  0.28302014874E+02  0.28586214507E+02  0.17770000000E+01 0.  1.
</event>
<event>
 6    1  0.1097339E-002  0.1826762E+03  0.7546771E-02  0.1068315E+00
        -11   -1    0    0    0    0  0.00000000000E+00  0.00000000000E+00  0.18250000000E+03  0.18250000000E+03  0.00000000000E+00 0.  1.
         11   -1    0    0    0    0 -0.00000000000E+00 -0.00000000000E+00 -0.18250000000E+03  0.18250000000E+03  0.00000000000E+00 0.  1.
        -11    1    1    2    0    0  0.20565892881E+01  0.20011093864E+01  0.52239726650E+02  0.52318477030E+02  0.00000000000E+00 0.  1.
         11    1    1    2    0    0 -0.17593217551E+01 -0.24828486180E+01 -0.18229844527E+03  0.18232384073E+03  0.00000000000E+00 0.  1.
        -15    1    1    2    0    0 -0.10440606066E+01 -0.23090928157E+01  0.10757991090E+03  0.10762442534E+03  0.17770000000E+01 0.  1.
         15    1    1    2    0    0  0.74679307358E+00  0.27908320474E+01  0.22478807725E+02  0.22733256897E+02  0.17770000000E+01 0. -1.
</event>
<event>
 6    1  0.1097339E-002  0.1843577E+03  0.7546771E-02  0.1066986E+00
        -11   -1    0    0    0    0  0.00000000000E+00  0.00000000000E+00  0.18250000000E+03  0.18250000000E+03  0.00000000000E+00 0. -1.
         11   -1    0    0    0    0 -0.00000000000E+00 -0.00000000000E+00 -0.18250000000E+03  0.18250000000E+03  0.00000000000E+00 0.  1.
        -11    1    1    2    0    0 -0.50747641557E+00 -0.25963363813E+01  0.17697903972E+03  0.17699881072E+03  0.00000000000E+00 0. -1.
         11    1    1    2    0    0  0.14481984993E+01  0.20152552085E+01 -0.18062529480E+03  0.18064234181E+03  0.00000000000E+00 0.  1.
        -15    1    1    2    0    0 -0.43704513812E+00  0.26773130996E+01  0.73765698500E+00  0.33257902390E+01  0.17770000000E+01 0. -1.
         15    1    1    2    0    0 -0.50367694564E+00 -0.20962319268E+01  0.29085980977E+01  0.40330572337E+01  0.17770000000E+01 0. -1.
</event>
<event>
 6    1  0.1097339E-002  0.1846477E+03  0.7546771E-02  0.1066758E+00
        -11   -1    0    0    0    0  0.00000000000E+00  0.00000000000E+00  0.18250000000E+03  0.18250000000E+03  0.00000000000E+00 0. -1.
         11   -1    0    0    0    0 -0.00000000000E+00 -0.00000000000E+00 -0.18250000000E+03  0.18250000000E+03  0.00000000000E+00 0. -1.
        -11    1    1    2    0    0 -0.13654076295E+01 -0.32511560392E+01  0.18031782937E+03  0.18035230507E+03  0.00000000000E+00 0. -1.
         11    1    1    2    0    0 -0.16246268397E+01  0.92046434856E+01 -0.50362846852E+02  0.51222858346E+02  0.00000000000E+00 0. -1.
        -15    1    1    2    0    0  0.67683067942E+01  0.48827620816E+00 -0.59952312100E+01  0.92276170693E+01  0.17770000000E+01 0.  1.
         15    1    1    2    0    0 -0.37782723250E+01 -0.64417636545E+01 -0.12395975131E+03  0.12419721952E+03  0.17770000000E+01 0. -1.
</event>
<event>
 6    1  0.1097339E-002  0.1844663E+03  0.7546771E-02  0.1066900E+00
        -11   -1    0    0    0    0  0.00000000000E+00  0.00000000000E+00  0.18250000000E+03  0.18250000000E+03  0.00000000000E+00 0.  1.
         11   -1    0    0    0    0 -0.00000000000E+00 -0.00000000000E+00 -0.18250000000E+03  0.18250000000E+03  0.00000000000E+00 0.  1.
        -11    1    1    2    0    0 -0.59038702981E+01  0.14539680034E+01  0.18043127243E+03  0.18053369153E+03  0.00000000000E+00 0.  1.
         11    1    1    2    0    0  0.50033463750E+01 -0.31943065309E+01 -0.92689387246E+02  0.92879274207E+02  0.00000000000E+00 0.  1.
        -15    1    1    2    0    0  0.89645446626E+01  0.26358356707E+01 -0.11633951732E+02  0.15027217061E+02  0.17770000000E+01 0. -1.
         15    1    1    2    0    0 -0.80640207395E+01 -0.89549714311E+00 -0.76107933455E+02  0.76559817198E+02  0.17770000000E+01 0.  1.
</event>
<event>
 6    1  0.1097339E-002  0.1830489E+03  0.7546771E-02  0.1068019E+00
        -11   -1    0    0    0    0  0.00000000000E+00  0.00000000000E+00  0.18250000000E+03  0.18250000000E+03  0.00000000000E+00 0.  1.
         11   -1    0    0    0    0 -0.00000000000E+00 -0.00000000000E+00 -0.18250000000E+03  0.18250000000E+03  0.00000000000E+00 0. -1.
        -11    1    1    2    0    0  0.25092308886E+01  0.77575029325E+00  0.15665777045E+03  0.15667978513E+03  0.00000000000E+00 0.  1.
         11    1    1    2    0    0 -0.27246994259E+01  0.17383963815E+01 -0.18192241586E+03  0.18195112366E+03  0.00000000000E+00 0. -1.
        -15    1    1    2    0    0  0.20820055525E+01 -0.46610931615E+00  0.41110241836E+01  0.49608722876E+01  0.17770000000E+01 0.  1.
         15    1    1    2    0    0 -0.18665370152E+01 -0.20480373586E+01  0.21153621227E+02  0.21408218923E+02  0.17770000000E+01 0. -1.
</event>
<event>
 6    1  0.1097339E-002  0.1837371E+03  0.7546771E-02  0.1067474E+00
        -11   -1    0    0    0    0  0.00000000000E+00  0.00000000000E+00  0.18250000000E+03  0.18250000000E+03  0.00000000000E+00 0.  1.
         11   -1    0    0    0    0 -0.00000000000E+00 -0.00000000000E+00 -0.18250000000E+03  0.18250000000E+03  0.00000000000E+00 0.  1.
        -11    1    1    2    0    0  0.30176559672E+00  0.28997583857E+01  0.18123949915E+03  0.18126294633E+03  0.00000000000E+00 0.  1.
         11    1    1    2    0    0  0.22629555047E+01 -0.16457145443E+01 -0.17294240016E+03  0.17296503437E+03  0.00000000000E+00 0.  1.
        -15    1    1    2    0    0 -0.24944689263E+01 -0.27366266416E+01 -0.70056956161E+01  0.81208990059E+01  0.17770000000E+01 0.  1.
         15    1    1    2    0    0 -0.70252175075E-01  0.14825828002E+01 -0.12914033736E+01  0.26511202917E+01  0.17770000000E+01 0. -1.
</event>
<event>
 6    1  0.1097339E-002  0.1838417E+03  0.7546771E-02  0.1067392E+00
        -11   -1    0    0    0    0  0.00000000000E+00  0.00000000000E+00  0.18250000000E+03  0.18250000000E+03  0.00000000000E+00 0.  1.
         11   -1    0    0    0    0 -0.00000000000E+00 -0.00000000000E+00 -0.18250000000E+03  0.18250000000E+03  0.00000000000E+00 0. -1.
        -11    1    1    2    0    0  0.58197892729E+01  0.78451756090E+01  0.99611794332E+02  0.10008959136E+03  0.00000000000E+00 0.  1.
         11    1    1    2    0    0 -0.20152486209E+01 -0.79100529119E+01 -0.18097428235E+03  0.18115827620E+03  0.00000000000E+00 0. -1.
        -15    1    1    2    0    0  0.96580700037E+00  0.38196610249E+01  0.73653172721E+02  0.73779876487E+02  0.17770000000E+01 0.  1.
         15    1    1    2    0    0 -0.47703476524E+01 -0.37547837221E+01  0.77093152969E+01  0.99722559570E+01  0.17770000000E+01 0. -1.
</event>
<event>
 6    1  0.1097339E-002  0.1843354E+03  0.7546771E-02  0.1067003E+00
        -11   -1    0    0    0    0  0.00000000000E+00  0.00000000000E+00  0.18250000000E+03  0.18250000000E+03  0.00000000000E+00 0. -1.
         11   -1    0    0    0    0 -0.00000000000E+00 -0.00000000000E+00 -0.18250000000E+03  0.18250000000E+03  0.00000000000E+00 0. -1.
        -11    1    1    2    0    0 -0.10143304502E+01 -0.34121316802E+01  0.17510637648E+03  0.17514255506E+03  0.00000000000E+00 0. -1.
         11    1    1    2    0    0 -0.22984057267E+01  0.35960720313E+01 -0.18061423309E+03  0.18066464955E+03  0.00000000000E+00 0. -1.
        -15    1    1    2    0    0  0.16234218052E+01  0.15582554094E+01  0.54800918619E+01  0.61848843233E+01  0.17770000000E+01 0.  1.
         15    1    1    2    0    0  0.16893143718E+01 -0.17421957606E+01  0.27764752359E-01  0.30079110685E+01  0.17770000000E+01 0. -1.
</event>
<event>
 6    1  0.1097339E-002  0.1832066E+03  0.7546771E-02  0.1067894E+00
        -11   -1    0    0    0    0  0.00000000000E+00  0.00000000000E+00  0.18250000000E+03  0.18250000000E+03  0.00000000000E+00 0. -1.
         11   -1    0    0    0    0 -0.00000000000E+00 -0.00000000000E+00 -0.18250000000E+03  0.18250000000E+03  0.00000000000E+00 0. -1.
        -11    1    1    2    0    0  0.45456385247E+01  0.23601557564E+01  0.18172121309E+03  0.18179337846E+03  0.00000000000E+00 0. -1.
         11    1    1    2    0    0 -0.28167934202E+01  0.17491909633E+01 -0.16875500504E+03  0.16878757573E+03  0.00000000000E+00 0. -1.
        -15    1    1    2    0    0 -0.19049447364E+01 -0.23265783281E+01 -0.52926335742E+01  0.63412522672E+01  0.17770000000E+01 0.  1.
         15    1    1    2    0    0  0.17609963193E+00 -0.17827683916E+01 -0.76735744765E+01  0.80777935394E+01  0.17770000000E+01 0. -1.
</event>
<event>
 6    1  0.1097339E-002  0.1859922E+03  0.7546771E-02  0.1065708E+00
        -11   -1    0    0    0    0  0.00000000000E+00  0.00000000000E+00  0.18250000000E+03  0.18250000000E+03  0.00000000000E+00 0. -1.
         11   -1    0    0    0    0 -0.00000000000E+00 -0.00000000000E+00 -0.18250000000E+03  0.18250000000E+03  0.00000000000E+00 0. -1.
        -11    1    1    2    0    0  0.14529666624E+02 -0.61069253408E+01  0.17831256125E+03  0.17900775192E+03  0.00000000000E+00 0. -1.
         11    1    1    2    0    0 -0.10114950396E+01 -0.13710169051E+01 -0.12498678259E+03  0.12499839452E+03  0.00000000000E+00 0. -1.
        -15    1    1    2    0    0  0.91494890442E+00  0.26007854915E+01 -0.41491491226E+02  0.41620941722E+02  0.17770000000E+01 0.  1.
         15    1    1    2    0    0 -0.14433120489E+02  0.48771567544E+01 -0.11834287431E+02  0.19372911837E+02  0.17770000000E+01 0.  1.
</event>
<event>
 6    1  0.1097339E-002  0.1841583E+03  0.7546771E-02  0.1067142E+00
        -11   -1    0    0    0    0  0.00000000000E+00  0.00000000000E+00  0.18250000000E+03  0.18250000000E+03  0.00000000000E+00 0.  1.
         11   -1    0    0    0    0 -0.00000000000E+00 -0.00000000000E+00 -0.18250000000E+03  0.18250000000E+03  0.00000000000E+00 0. -1.
        -11    1    1    2    0    0  0.38912597178E+01  0.58650591125E+00  0.18079891925E+03  0.18084174047E+03  0.00000000000E+00 0.  1.
         11    1    1    2    0    0 -0.10282933725E+01  0.23584876442E+01 -0.17562453482E+03  0.17564338041E+03  0.00000000000E+00 0. -1.
        -15    1    1    2    0    0 -0.32883660556E+01 -0.21352715976E+01 -0.48590045739E+01  0.64915630290E+01  0.17770000000E+01 0.  1.
         15    1    1    2    0    0  0.42539971024E+00 -0.80972195784E+00 -0.31537986090E+00  0.20233160947E+01  0.17770000000E+01 0. -1.
</event>
<event>
 6    1  0.1097339E-002  0.1825708E+03  0.7546771E-02  0.1068398E+00
        -11   -1    0    0    0    0  0.00000000000E+00  0.00000000000E+00  0.18250000000E+03  0.18250000000E+03  0.00000000000E+00 0.  1.
         11   -1    0    0    0    0 -0.00000000000E+00 -0.00000000000E+00 -0.18250000000E+03  0.18250000000E+03  0.00000000000E+00 0.  1.
        -11    1    1    2    0    0  0.33421536614E+00 -0.16135251667E+01  0.16307417624E+02  0.16390455544E+02  0.00000000000E+00 0.  1.
         11    1    1    2    0    0 -0.82144611795E+00  0.42753303115E+01 -0.18237725260E+03  0.18242920678E+03  0.00000000000E+00 0.  1.
        -15    1    1    2    0    0  0.41550399285E+00 -0.46004317447E+00  0.21339540608E+02  0.21422371615E+02  0.17770000000E+01 0.  1.
         15    1    1    2    0    0  0.71726758958E-01 -0.22017619704E+01  0.14473029437E+03  0.14475796606E+03  0.17770000000E+01 0.  1.
</event>
<event>
 6    1  0.1097339E-002  0.1897000E+03  0.7546771E-02  0.1062864E+00
        -11   -1    0    0    0    0  0.00000000000E+00  0.00000000000E+00  0.18250000000E+03  0.18250000000E+03  0.00000000000E+00 0. -1.
         11   -1    0    0    0    0 -0.00000000000E+00 -0.00000000000E+00 -0.18250000000E+03  0.18250000000E+03  0.00000000000E+00 0. -1.
        -11    1    1    2    0    0 -0.82691762018E+01  0.24097536631E+01  0.16554552977E+03  0.16576944416E+03  0.00000000000E+00 0. -1.
         11    1    1    2    0    0  0.10761963517E+02  0.49891145264E+01 -0.17489814829E+03  0.17529995264E+03  0.00000000000E+00 0. -1.
        -15    1    1    2    0    0 -0.82857884132E+01  0.19046747200E+01 -0.10088625652E+01  0.87440041224E+01  0.17770000000E+01 0.  1.
         15    1    1    2    0    0  0.57930010979E+01 -0.93035429096E+01  0.10361481079E+02  0.15186599078E+02  0.17770000000E+01 0. -1.
</event>
<event>
 6    1  0.1097339E-002  0.1963893E+03  0.7546771E-02  0.1057907E+00
        -11   -1    0    0    0    0  0.00000000000E+00  0.00000000000E+00  0.18250000000E+03  0.18250000000E+03  0.00000000000E+00 0. -1.
         11   -1    0    0    0    0 -0.00000000000E+00 -0.00000000000E+00 -0.18250000000E+03  0.18250000000E+03  0.00000000000E+00 0.  1.
        -11    1    1    2    0    0 -0.27374568945E+01 -0.26567323774E+00  0.16858826495E+03  0.16861069756E+03  0.00000000000E+00 0. -1.
         11    1    1    2    0    0  0.23576313455E+02  0.27032080403E+02 -0.93471737905E+02  0.10011763938E+03  0.00000000000E+00 0.  1.
        -15    1    1    2    0    0 -0.34045777721E+02 -0.13051376025E+02 -0.29932681033E+02  0.47207801469E+02  0.17770000000E+01 0. -1.
         15    1    1    2    0    0  0.13206921160E+02 -0.13715031140E+02 -0.45183846010E+02  0.49063861598E+02  0.17770000000E+01 0.  1.
</event>
<event>
 6    1  0.1097339E-002  0.1858729E+03  0.7546771E-02  0.1065801E+00
        -11   -1    0    0    0    0  0.00000000000E+00  0.00000000000E+00  0.18250000000E+03  0.18250000000E+03  0.00000000000E+00 0. -1.
         11   -1    0    0    0    0 -0.00000000000E+00 -0.00000000000E+00 -0.18250000000E+03  0.18250000000E+03  0.00000000000E+00 0.  1.
        -11    1    1    2    0    0 -0.18478837089E+01  0.19701731150E+01  0.17910671686E+03  0.17912708416E+03  0.00000000000E+00 0. -1.
         11    1    1    2    0    0 -0.21774769494E+01 -0.18540718362E+01 -0.16383779892E+03  0.16386275765E+03  0.00000000000E+00 0.  1.
        -15    1    1    2    0    0  0.67632858323E+01  0.84229642238E+00 -0.16847022872E+02  0.18260104249E+02  0.17770000000E+01 0.  1.
         15    1    1    2    0    0 -0.27379251740E+01 -0.95839770119E+00  0.15781049379E+01  0.37500539472E+01  0.17770000000E+01 0. -1.
</event>
<event>
 6    1  0.1097339E-002  0.1830634E+03  0.7546771E-02  0.1068007E+00
        -11   -1    0    0    0    0  0.00000000000E+00  0.00000000000E+00  0.18250000000E+03  0.18250000000E+03  0.00000000000E+00 0. -1.
         11   -1    0    0    0    0 -0.00000000000E+00 -0.00000000000E+00 -0.18250000000E+03  0.18250000000E+03  0.00000000000E+00 0.  1.
        -11    1    1    2    0    0  0.27203528438E+01 -0.67337849768E+01  0.18179159762E+03  0.18193660749E+03  0.00000000000E+00 0. -1.
         11    1    1    2    0    0 -0.13037120085E+01  0.17478902318E+01 -0.14613474786E+03  0.14615101545E+03  0.00000000000E+00 0.  1.
        -15    1    1    2    0    0 -0.21557624308E+01  0.63956389685E+01 -0.29376665665E+02  0.30194332648E+02  0.17770000000E+01 0.  1.
         15    1    1    2    0    0  0.73912159554E+00 -0.14097442235E+01 -0.62801840963E+01  0.67180444173E+01  0.17770000000E+01 0. -1.
</event>
<event>
 6    1  0.1097339E-002  0.1834150E+03  0.7546771E-02  0.1067729E+00
        -11   -1    0    0    0    0  0.00000000000E+00  0.00000000000E+00  0.18250000000E+03  0.18250000000E+03  0.00000000000E+00 0. -1.
         11   -1    0    0    0    0 -0.00000000000E+00 -0.00000000000E+00 -0.18250000000E+03  0.18250000000E+03  0.00000000000E+00 0.  1.
        -11    1    1    2    0    0 -0.12544038338E+02  0.38553276006E+01  0.17844114336E+03  0.17892305076E+03  0.00000000000E+00 0. -1.
         11    1    1    2    0    0 -0.82207965548E+00 -0.19748392872E+00 -0.49802930499E+01  0.50515476564E+01  0.00000000000E+00 0.  1.
        -15    1    1    2    0    0 -0.11106501935E+02 -0.18248952086E+02 -0.51807739038E+02  0.56067621589E+02  0.17770000000E+01 0. -1.
         15    1    1    2    0    0  0.24472619928E+02  0.14591108414E+02 -0.12165311127E+03  0.12495778000E+03  0.17770000000E+01 0.  1.
</event>
<event>
 6    1  0.1145794E-002  0.1826886E+03  0.7546771E-02  0.1068305E+00
        -11   -1    0    0    0    0  0.00000000000E+00  0.00000000000E+00  0.18250000000E+03  0.18250000000E+03  0.00000000000E+00 0.  1.
         11   -1    0    0    0    0 -0.00000000000E+00 -0.00000000000E+00 -0.18250000000E+03  0.18250000000E+03  0.00000000000E+00 0.  1.
        -11    1    1    2    0    0  0.14338009928E+01  0.24997996308E+01  0.18228863278E+03  0.18231141057E+03  0.00000000000E+00 0.  1.
         11    1    1    2    0    0 -0.33158255295E+01  0.24260227221E+00 -0.32514810936E+02  0.32684346177E+02  0.00000000000E+00 0.  1.
        -15    1    1    2    0    0 -0.80634126871E+00 -0.30021051667E+01 -0.34543445559E+02  0.34728521157E+02  0.17770000000E+01 0.  1.
         15    1    1    2    0    0  0.26883658054E+01  0.25970326360E+00 -0.11523037629E+03  0.11527572210E+03  0.17770000000E+01 0. -1.
</event>
<event>
 6    1  0.1097339E-002  0.1827496E+03  0.7546771E-02  0.1068256E+00
        -11   -1    0    0    0    0  0.00000000000E+00  0.00000000000E+00  0.18250000000E+03  0.18250000000E+03  0.00000000000E+00 0. -1.
         11   -1    0    0    0    0 -0.00000000000E+00 -0.00000000000E+00 -0.18250000000E+03  0.18250000000E+03  0.00000000000E+00 0.  1.
        -11    1    1    2    0    0  0.39797634836E+00  0.18617259084E+01  0.13199477503E+03  0.13200850368E+03  0.00000000000E+00 0. -1.
         11    1    1    2    0    0  0.19582895473E+01  0.26965014902E+01 -0.18221995442E+03  0.18225042609E+03  0.00000000000E+00 0.  1.
        -15    1    1    2    0    0 -0.29889325114E+01 -0.32288835463E+01  0.38467860247E+02  0.38759429917E+02  0.17770000000E+01 0. -1.
         15    1    1    2    0    0  0.63266661574E+00 -0.13293438523E+01  0.11757319148E+02  0.11981640316E+02  0.17770000000E+01 0.  1.
</event>
<event>
 6    1  0.1097339E-002  0.1827339E+03  0.7546771E-02  0.1068269E+00
        -11   -1    0    0    0    0  0.00000000000E+00  0.00000000000E+00  0.18250000000E+03  0.18250000000E+03  0.00000000000E+00 0.  1.
         11   -1    0    0    0    0 -0.00000000000E+00 -0.00000000000E+00 -0.18250000000E+03  0.18250000000E+03  0.00000000000E+00 0.  1.
        -11    1    1    2    0    0  0.84690616493E+00 -0.32611483451E+01  0.78095759090E+02  0.78168407470E+02  0.00000000000E+00 0.  1.
         11    1    1    2    0    0  0.11747032876E+00 -0.25432095888E+01 -0.18224836058E+03  0.18226614235E+03  0.00000000000E+00 0.  1.
        -15    1    1    2    0    0 -0.55717903409E+00  0.42926642192E+01  0.94875847292E+02  0.94991165605E+02  0.17770000000E+01 0.  1.
         15    1    1    2    0    0 -0.40719745959E+00  0.15116937147E+01  0.92767541969E+01  0.95742845731E+01  0.17770000000E+01 0. -1.
</event>
<event>
 6    1  0.1097339E-002  0.1900688E+03  0.7546771E-02  0.1062585E+00
        -11   -1    0    0    0    0  0.00000000000E+00  0.00000000000E+00  0.18250000000E+03  0.18250000000E+03  0.00000000000E+00 0. -1.
         11   -1    0    0    0    0 -0.00000000000E+00 -0.00000000000E+00 -0.18250000000E+03  0.18250000000E+03  0.00000000000E+00 0. -1.
        -11    1    1    2    0    0  0.31073643905E+01  0.24789432644E+01  0.85370950710E+02  0.85463443052E+02  0.00000000000E+00 0. -1.
         11    1    1    2    0    0  0.12301676806E+02  0.53623050460E+01 -0.17441573218E+03  0.17493122420E+03  0.00000000000E+00 0. -1.
        -15    1    1    2    0    0 -0.23830120535E+01  0.13708392196E+02  0.22401489295E+01  0.14204744252E+02  0.17770000000E+01 0.  1.
         15    1    1    2    0    0 -0.13026029143E+02 -0.21549640506E+02  0.86804632540E+02  0.90400588497E+02  0.17770000000E+01 0. -1.
</event>
<event>
 6    1  0.1097339E-002  0.1852296E+03  0.7546771E-02  0.1066303E+00
        -11   -1    0    0    0    0  0.00000000000E+00  0.00000000000E+00  0.18250000000E+03  0.18250000000E+03  0.00000000000E+00 0.  1.
         11   -1    0    0    0    0 -0.00000000000E+00 -0.00000000000E+00 -0.18250000000E+03  0.18250000000E+03  0.00000000000E+00 0.  1.
        -11    1    1    2    0    0  0.23474187511E+01  0.28450010664E+01  0.17056874780E+03  0.17060862267E+03  0.00000000000E+00 0.  1.
         11    1    1    2    0    0 -0.45299857533E+00  0.33493440534E+01 -0.17973858932E+03  0.17977036408E+03  0.00000000000E+00 0.  1.
        -15    1    1    2    0    0 -0.16658465833E+01 -0.17840576044E+01  0.93821332009E+01  0.98559656439E+01  0.17770000000E+01 0.  1.
         15    1    1    2    0    0 -0.22857359244E+00 -0.44102875154E+01 -0.21229168115E+00  0.47650475983E+01  0.17770000000E+01 0.  1.
</event>
<event>
 6    1  0.1097339E-002  0.1826548E+03  0.7546771E-02  0.1068332E+00
        -11   -1    0    0    0    0  0.00000000000E+00  0.00000000000E+00  0.18250000000E+03  0.18250000000E+03  0.00000000000E+00 0. -1.
         11   -1    0    0    0    0 -0.00000000000E+00 -0.00000000000E+00 -0.18250000000E+03  0.18250000000E+03  0.00000000000E+00 0.  1.
        -11    1    1    2    0    0 -0.14824644845E+01  0.63775096947E+01  0.18222761807E+03  0.18234520865E+03  0.00000000000E+00 0. -1.
         11    1    1    2    0    0 -0.14013612719E+01  0.47321113254E+00 -0.72806784960E+02  0.72821807711E+02  0.00000000000E+00 0.  1.
        -15    1    1    2    0    0  0.22701897764E+01 -0.64617689880E+01 -0.97707647434E+02  0.97963515230E+02  0.17770000000E+01 0.  1.
         15    1    1    2    0    0  0.61363597995E+00 -0.38895183927E+00 -0.11713185674E+02  0.11869468408E+02  0.17770000000E+01 0.  1.
</event>
<event>
 6    1  0.1097339E-002  0.1838820E+03  0.7546771E-02  0.1067360E+00
        -11   -1    0    0    0    0  0.00000000000E+00  0.00000000000E+00  0.18250000000E+03  0.18250000000E+03  0.00000000000E+00 0. -1.
         11   -1    0    0    0    0 -0.00000000000E+00 -0.00000000000E+00 -0.18250000000E+03  0.18250000000E+03  0.00000000000E+00 0. -1.
        -11    1    1    2    0    0 -0.23011407462E+01  0.45361776726E-01  0.10740132123E+03  0.10742597967E+03  0.00000000000E+00 0. -1.
         11    1    1    2    0    0 -0.85002209282E+01 -0.23747143293E+01 -0.18090282825E+03  0.18111798998E+03  0.00000000000E+00 0. -1.
        -15    1    1    2    0    0 -0.41707374213E+01  0.36140032694E+01  0.24188407431E+02  0.24873537210E+02  0.17770000000E+01 0. -1.
         15    1    1    2    0    0  0.14972099096E+02 -0.12846507169E+01  0.49313099588E+02  0.51582493142E+02  0.17770000000E+01 0. -1.
</event>
<event>
 6    1  0.1097339E-002  0.1834727E+03  0.7546771E-02  0.1067683E+00
        -11   -1    0    0    0    0  0.00000000000E+00  0.00000000000E+00  0.18250000000E+03  0.18250000000E+03  0.00000000000E+00 0. -1.
         11   -1    0    0    0    0 -0.00000000000E+00 -0.00000000000E+00 -0.18250000000E+03  0.18250000000E+03  0.00000000000E+00 0.  1.
        -11    1    1    2    0    0 -0.42850400953E+01  0.68962155591E+01  0.18134563288E+03  0.18152729250E+03  0.00000000000E+00 0. -1.
         11    1    1    2    0    0  0.28817080560E+01 -0.51200956009E+00 -0.13417641229E+03  0.13420833063E+03  0.00000000000E+00 0.  1.
        -15    1    1    2    0    0 -0.74959603717E+00  0.34012252609E+01 -0.16247000203E+02  0.16710863895E+02  0.17770000000E+01 0.  1.
         15    1    1    2    0    0  0.21529280764E+01 -0.97854312599E+01 -0.30922220384E+02  0.32553512971E+02  0.17770000000E+01 0. -1.
</event>
<event>
 6    1  0.1097339E-002  0.1844121E+03  0.7546771E-02  0.1066943E+00
        -11   -1    0    0    0    0  0.00000000000E+00  0.00000000000E+00  0.18250000000E+03  0.18250000000E+03  0.00000000000E+00 0. -1.
         11   -1    0    0    0    0 -0.00000000000E+00 -0.00000000000E+00 -0.18250000000E+03  0.18250000000E+03  0.00000000000E+00 0. -1.
        -11    1    1    2    0    0  0.42253172282E+00  0.26713552657E+01  0.17659147744E+03  0.17661218694E+03  0.00000000000E+00 0. -1.
         11    1    1    2    0    0  0.41275117299E+01 -0.31750101232E+00 -0.18054040226E+03  0.18058785675E+03  0.00000000000E+00 0. -1.
        -15    1    1    2    0    0 -0.14693682834E+01 -0.33451120487E+00  0.35767455192E+00  0.23572443623E+01  0.17770000000E+01 0.  1.
         15    1    1    2    0    0 -0.30806751693E+01 -0.20193430485E+01  0.35912502653E+01  0.54427119448E+01  0.17770000000E+01 0. -1.
</event>
<event>
 6    1  0.1097339E-002  0.1827216E+03  0.7546771E-02  0.1068279E+00
        -11   -1    0    0    0    0  0.00000000000E+00  0.00000000000E+00  0.18250000000E+03  0.18250000000E+03  0.00000000000E+00 0. -1.
         11   -1    0    0    0    0 -0.00000000000E+00 -0.00000000000E+00 -0.18250000000E+03  0.18250000000E+03  0.00000000000E+00 0.  1.
        -11    1    1    2    0    0  0.15040848386E+01  0.22272200545E+01  0.18225853843E+03  0.18227835200E+03  0.00000000000E+00 0. -1.
         11    1    1    2    0    0  0.90939201925E+00 -0.42642938366E+00 -0.28881395125E+02  0.28898854999E+02  0.00000000000E+00 0.  1.
        -15    1    1    2    0    0  0.20498424308E+00 -0.49102615473E+01 -0.37686209821E+02  0.38046824134E+02  0.17770000000E+01 0.  1.
         15    1    1    2    0    0 -0.26184611009E+01  0.31094708765E+01 -0.11569093348E+03  0.11577596886E+03  0.17770000000E+01 0.  1.
</event>
<event>
 6    1  0.1097339E-002  0.1827472E+03  0.7546771E-02  0.1068258E+00
        -11   -1    0    0    0    0  0.00000000000E+00  0.00000000000E+00  0.18250000000E+03  0.18250000000E+03  0.00000000000E+00 0.  1.
         11   -1    0    0    0    0 -0.00000000000E+00 -0.00000000000E+00 -0.18250000000E+03  0.18250000000E+03  0.00000000000E+00 0.  1.
        -11    1    1    2    0    0 -0.28556185683E+01  0.19630700719E-01  0.18223043770E+03  0.18225281168E+03  0.00000000000E+00 0.  1.
         11    1    1    2    0    0  0.16412527285E+01 -0.86853380551E+00 -0.13243936442E+03  0.13245238129E+03  0.00000000000E+00 0.  1.
        -15    1    1    2    0    0 -0.16842771042E+01 -0.28074033892E+00 -0.85408229856E+01  0.88892626675E+01  0.17770000000E+01 0. -1.
         15    1    1    2    0    0  0.28986429439E+01  0.11296434437E+01 -0.41250250298E+02  0.41405544361E+02  0.17770000000E+01 0. -1.
</event>
<event>
 6    1  0.1097339E-002  0.1867244E+03  0.7546771E-02  0.1065141E+00
        -11   -1    0    0    0    0  0.00000000000E+00  0.00000000000E+00  0.18250000000E+03  0.18250000000E+03  0.00000000000E+00 0.  1.
         11   -1    0    0    0    0 -0.00000000000E+00 -0.00000000000E+00 -0.18250000000E+03  0.18250000000E+03  0.00000000000E+00 0.  1.
        -11    1    1    2    0    0 -0.19341707754E+01 -0.79472128104E-01  0.14173776184E+03  0.14175098047E+03  0.00000000000E+00 0.  1.
         11    1    1    2    0    0  0.26627948438E+01 -0.15700683466E+01 -0.17824884162E+03  0.17827564368E+03  0.00000000000E+00 0.  1.
        -15    1    1    2    0    0 -0.97774963108E+01 -0.43781689071E+01  0.30602244763E+02  0.32471878766E+02  0.17770000000E+01 0. -1.
         15    1    1    2    0    0  0.90488722424E+01  0.60277093818E+01  0.59088350165E+01  0.12501497090E+02  0.17770000000E+01 0.  1.
</event>
<event>
 6    1  0.1097339E-002  0.1901645E+03  0.7546771E-02  0.1062512E+00
        -11   -1    0    0    0    0  0.00000000000E+00  0.00000000000E+00  0.18250000000E+03  0.18250000000E+03  0.00000000000E+00 0.  1.
         11   -1    0    0    0    0 -0.00000000000E+00 -0.00000000000E+00 -0.18250000000E+03  0.18250000000E+03  0.00000000000E+00 0. -1.
        -11    1    1    2    0    0 -0.33371681314E+01 -0.28275519166E+01  0.17478078607E+03  0.17483550817E+03  0.00000000000E+00 0.  1.
         11    1    1    2    0    0 -0.28901927110E+01  0.33569093684E+01 -0.16261582887E+03  0.16267615023E+03  0.00000000000E+00 0. -1.
        -15    1    1    2    0    0 -0.37005518521E+01  0.33631173445E+01  0.49420824494E+01  0.72516584461E+01  0.17770000000E+01 0.  1.
         15    1    1    2    0    0  0.99279126946E+01 -0.38924747963E+01 -0.17107039649E+02  0.20236683153E+02  0.17770000000E+01 0. -1.
</event>
<event>
 6    1  0.1097339E-002  0.1828967E+03  0.7546771E-02  0.1068139E+00
        -11   -1    0    0    0    0  0.00000000000E+00  0.00000000000E+00  0.18250000000E+03  0.18250000000E+03  0.00000000000E+00 0.  1.
         11   -1    0    0    0    0 -0.00000000000E+00 -0.00000000000E+00 -0.18250000000E+03  0.18250000000E+03  0.00000000000E+00 0. -1.
        -11    1    1    2    0    0  0.14955396684E+01 -0.23662844919E+01  0.18208175231E+03  0.18210326868E+03  0.00000000000E+00 0.  1.
         11    1    1    2    0    0 -0.34056066822E+01  0.11202323637E+01 -0.15575394290E+03  0.15579519828E+03  0.00000000000E+00 0. -1.
        -15    1    1    2    0    0  0.20059951721E+01  0.84896206965E-03 -0.50848005135E+01  0.57477771889E+01  0.17770000000E+01 0.  1.
         15    1    1    2    0    0 -0.95928158229E-01  0.12452031662E+01 -0.21243008891E+02  0.21353755849E+02  0.17770000000E+01 0. -1.
</event>
<event>
 6    1  0.1501313E-002  0.1849042E+03  0.7546771E-02  0.1066557E+00
        -11   -1    0    0    0    0  0.00000000000E+00  0.00000000000E+00  0.18250000000E+03  0.18250000000E+03  0.00000000000E+00 0.  1.
         11   -1    0    0    0    0 -0.00000000000E+00 -0.00000000000E+00 -0.18250000000E+03  0.18250000000E+03  0.00000000000E+00 0. -1.
        -11    1    1    2    0    0 -0.18726255275E+01  0.18412408999E+01  0.18007668866E+03  0.18009583752E+03  0.00000000000E+00 0.  1.
         11    1    1    2    0    0 -0.26746203628E+01 -0.42728510339E+01 -0.17015802456E+03  0.17023267657E+03  0.00000000000E+00 0. -1.
        -15    1    1    2    0    0  0.68232851424E+00 -0.19045123812E+01  0.37555821312E+00  0.27187336359E+01  0.17770000000E+01 0. -1.
         15    1    1    2    0    0  0.38649173761E+01  0.43361225152E+01 -0.10294222309E+02  0.11952752266E+02  0.17770000000E+01 0. -1.
</event>
<event>
 6    1  0.1097339E-002  0.1870766E+03  0.7546771E-02  0.1064869E+00
        -11   -1    0    0    0    0  0.00000000000E+00  0.00000000000E+00  0.18250000000E+03  0.18250000000E+03  0.00000000000E+00 0.  1.
         11   -1    0    0    0    0 -0.00000000000E+00 -0.00000000000E+00 -0.18250000000E+03  0.18250000000E+03  0.00000000000E+00 0. -1.
        -11    1    1    2    0    0 -0.26769023446E+01  0.85139428113E+00  0.17790118002E+03  0.17792335577E+03  0.00000000000E+00 0.  1.
         11    1    1    2    0    0 -0.57868012544E+01  0.47421274084E+01 -0.14444277203E+03  0.14463640355E+03  0.00000000000E+00 0. -1.
        -15    1    1    2    0    0 -0.65118845067E+01 -0.52424480173E+01 -0.21673565335E+02  0.23297833899E+02  0.17770000000E+01 0. -1.
         15    1    1    2    0    0  0.14975588106E+02 -0.35107367219E+00 -0.11784842652E+02  0.19142406776E+02  0.17770000000E+01 0.  1.
</event>
<event>
 6    1  0.1097339E-002  0.1781839E+03  0.7546771E-02  0.1071943E+00
        -11   -1    0    0    0    0  0.00000000000E+00  0.00000000000E+00  0.18250000000E+03  0.18250000000E+03  0.00000000000E+00 0. -1.
         11   -1    0    0    0    0 -0.00000000000E+00 -0.00000000000E+00 -0.18250000000E+03  0.18250000000E+03  0.00000000000E+00 0. -1.
        -11    1    1    2    0    0 -0.30641611431E+01 -0.31613450730E+01  0.17922648678E+03  0.17928055318E+03  0.00000000000E+00 0. -1.
         11    1    1    2    0    0  0.64007601203E+01 -0.90325444498E+00 -0.17701482373E+03  0.17713281294E+03  0.00000000000E+00 0. -1.
        -15    1    1    2    0    0 -0.41063917519E+00  0.12639869518E+01 -0.33511835812E+01  0.40192596260E+01  0.17770000000E+01 0.  1.
         15    1    1    2    0    0 -0.29259598021E+01  0.28006125662E+01  0.11395205389E+01  0.45673742531E+01  0.17770000000E+01 0. -1.
</event>
<event>
 6    1  0.1097339E-002  0.1694848E+03  0.7546771E-02  0.1079314E+00
        -11   -1    0    0    0    0  0.00000000000E+00  0.00000000000E+00  0.18250000000E+03  0.18250000000E+03  0.00000000000E+00 0.  1.
         11   -1    0    0    0    0 -0.00000000000E+00 -0.00000000000E+00 -0.18250000000E+03  0.18250000000E+03  0.00000000000E+00 0. -1.
        -11    1    1    2    0    0  0.11285957409E+01  0.39636055008E-01  0.11615318766E+02  0.11670086949E+02  0.00000000000E+00 0.  1.
         11    1    1    2    0    0  0.17177247062E+01  0.26823137587E+01 -0.17705575322E+03  0.17708440116E+03  0.00000000000E+00 0. -1.
        -15    1    1    2    0    0 -0.11712408922E+02  0.70127220197E+01  0.16191518887E+03  0.16249936894E+03  0.17770000000E+01 0.  1.
         15    1    1    2    0    0  0.88660884747E+01 -0.97346718334E+01  0.35252455858E+01  0.13746142949E+02  0.17770000000E+01 0. -1.
</event>
<event>
 6    1  0.1097339E-002  0.1855370E+03  0.7546771E-02  0.1066063E+00
        -11   -1    0    0    0    0  0.00000000000E+00  0.00000000000E+00  0.18250000000E+03  0.18250000000E+03  0.00000000000E+00 0. -1.
         11   -1    0    0    0    0 -0.00000000000E+00 -0.00000000000E+00 -0.18250000000E+03  0.18250000000E+03  0.00000000000E+00 0.  1.
        -11    1    1    2    0    0  0.29417458424E+01 -0.15529892001E+01  0.12509812339E+03  0.12514234343E+03  0.00000000000E+00 0. -1.
         11    1    1    2    0    0  0.23764021573E+01  0.12460003063E+01 -0.17944297328E+03  0.17946303370E+03  0.00000000000E+00 0.  1.
        -15    1    1    2    0    0  0.87259219519E+00 -0.21640251849E+01 -0.20506738416E+01  0.35787448002E+01  0.17770000000E+01 0.  1.
         15    1    1    2    0    0 -0.61907401949E+01  0.24710140786E+01  0.56395523734E+02  0.56815878071E+02  0.17770000000E+01 0. -1.
</event>
<event>
 6    1  0.1097339E-002  0.1831039E+03  0.7546771E-02  0.1067975E+00
        -11   -1    0    0    0    0  0.00000000000E+00  0.00000000000E+00  0.18250000000E+03  0.18250000000E+03  0.00000000000E+00 0. -1.
         11   -1    0    0    0    0 -0.00000000000E+00 -0.00000000000E+00 -0.18250000000E+03  0.18250000000E+03  0.00000000000E+00 0.  1.
        -11    1    1    2    0    0  0.28631539355E+01  0.20950836070E+01  0.18186147539E+03  0.18189607818E+03  0.00000000000E+00 0. -1.
         11    1    1    2    0    0 -0.29422649015E+01 -0.90494868822E+00 -0.16599464548E+03  0.16602318568E+03  0.00000000000E+00 0.  1.
        -15    1    1    2    0    0 -0.16516197668E+01  0.26516149868E+00 -0.28598562898E+01  0.37596097501E+01  0.17770000000E+01 0. -1.
         15    1    1    2    0    0  0.17307307328E+01 -0.14552964174E+01 -0.13006973625E+02  0.13321126395E+02  0.17770000000E+01 0.  1.
</event>
<event>
 6    1  0.1097339E-002  0.1862690E+03  0.7546771E-02  0.1065494E+00
        -11   -1    0    0    0    0  0.00000000000E+00  0.00000000000E+00  0.18250000000E+03  0.18250000000E+03  0.00000000000E+00 0. -1.
         11   -1    0    0    0    0 -0.00000000000E+00 -0.00000000000E+00 -0.18250000000E+03  0.18250000000E+03  0.00000000000E+00 0.  1.
        -11    1    1    2    0    0 -0.37380129501E+01  0.23968728078E+00  0.17271072170E+03  0.17275133453E+03  0.00000000000E+00 0. -1.
         11    1    1    2    0    0  0.17337264841E+01  0.31198052809E+01 -0.17869540551E+03  0.17873104639E+03  0.00000000000E+00 0.  1.
        -15    1    1    2    0    0 -0.25687317464E+01 -0.16607703130E+01 -0.19468618422E+01  0.40378881671E+01  0.17770000000E+01 0.  1.
         15    1    1    2    0    0  0.45730182124E+01 -0.16987222487E+01  0.79315456471E+01  0.94797309139E+01  0.17770000000E+01 0.  1.
</event>
<event>
 6    1  0.1097339E-002  0.1861995E+03  0.7546771E-02  0.1065548E+00
        -11   -1    0    0    0    0  0.00000000000E+00  0.00000000000E+00  0.18250000000E+03  0.18250000000E+03  0.00000000000E+00 0.  1.
         11   -1    0    0    0    0 -0.00000000000E+00 -0.00000000000E+00 -0.18250000000E+03  0.18250000000E+03  0.00000000000E+00 0. -1.
        -11    1    1    2    0    0  0.46822230285E+01 -0.95887959947E+00  0.17873663940E+03  0.17880052832E+03  0.00000000000E+00 0.  1.
         11    1    1    2    0    0 -0.35076945560E+01  0.10358467045E+01 -0.16907741370E+03  0.16911696758E+03  0.00000000000E+00 0. -1.
        -15    1    1    2    0    0  0.44094728176E+01 -0.46543322240E+01 -0.46323666416E+01  0.81069605082E+01  0.17770000000E+01 0.  1.
         15    1    1    2    0    0 -0.55840012900E+01  0.45773651189E+01 -0.50268590597E+01  0.89755435960E+01  0.17770000000E+01 0. -1.
</event>
<event>
 6    1  0.1097339E-002  0.1735980E+03  0.7546771E-02  0.1075770E+00
        -11   -1    0    0    0    0  0.00000000000E+00  0.00000000000E+00  0.18250000000E+03  0.18250000000E+03  0.00000000000E+00 0.  1.
         11   -1    0    0    0    0 -0.00000000000E+00 -0.00000000000E+00 -0.18250000000E+03  0.18250000000E+03  0.00000000000E+00 0.  1.
        -11    1    1    2    0    0 -0.55125931777E+01 -0.25100238815E+01  0.17390422612E+03  0.17400968009E+03  0.00000000000E+00 0.  1.
         11    1    1    2    0    0  0.10231207940E+01  0.58192254978E+01 -0.17313121499E+03  0.17323200560E+03  0.00000000000E+00 0.  1.
        -15    1    1    2    0    0 -0.44707124706E+01 -0.54514992715E+01 -0.33833761329E+01  0.80194187669E+01  0.17770000000E+01 0.  1.
         15    1    1    2    0    0  0.89601848543E+01  0.21422976552E+01  0.26103650035E+01  0.97388955389E+01  0.17770000000E+01 0.  1.
</event>
<event>
 6    1  0.1097339E-002  0.1826270E+03  0.7546771E-02  0.1068354E+00
        -11   -1    0    0    0    0  0.00000000000E+00  0.00000000000E+00  0.18250000000E+03  0.18250000000E+03  0.00000000000E+00 0.  1.
         11   -1    0    0    0    0 -0.00000000000E+00 -0.00000000000E+00 -0.18250000000E+03  0.18250000000E+03  0.00000000000E+00 0. -1.
        -11    1    1    2    0    0 -0.47576084010E+00  0.27236695942E+01  0.74203730054E+02  0.74255223913E+02  0.00000000000E+00 0.  1.
         11    1    1    2    0    0 -0.40510403795E+01 -0.28508962216E+00 -0.18232780722E+03  0.18237302840E+03  0.00000000000E+00 0. -1.
        -15    1    1    2    0    0  0.20374182132E+01 -0.14927888305E+01  0.81087301635E+02  0.81146088673E+02  0.17770000000E+01 0.  1.
         15    1    1    2    0    0  0.24893830064E+01 -0.94579114147E+00  0.27036775528E+02  0.27225659011E+02  0.17770000000E+01 0. -1.
</event>
<event>
 6    1  0.1097339E-002  0.1825679E+03  0.7546771E-02  0.1068401E+00
        -11   -1    0    0    0    0  0.00000000000E+00  0.00000000000E+00  0.18250000000E+03  0.18250000000E+03  0.00000000000E+00 0.  1.
         11   -1    0    0    0    0 -0.00000000000E+00 -0.00000000000E+00 -0.18250000000E+03  0.18250000000E+03  0.00000000000E+00 0. -1.
        -11    1    1    2    0    0  0.72887491144E-01 -0.53646068162E+00  0.22420232274E+02  0.22426767887E+02  0.00000000000E+00 0.  1.
         11    1    1    2    0    0 -0.33724788892E+01  0.14213932222E+01 -0.18239535267E+03  0.18243206585E+03  0.00000000000E+00 0. -1.
        -15    1    1    2    0    0  0.35961259556E+01 -0.22233969593E+00  0.54220518466E+02  0.54369144820E+02  0.17770000000E+01 0.  1.
         15    1    1    2    0    0 -0.29653455754E+00 -0.66259284462E+00  0.10575460193E+03  0.10577202145E+03  0.17770000000E+01 0.  1.
</event>
<event>
 6    1  0.1097339E-002  0.1836375E+03  0.7546771E-02  0.1067553E+00
        -11   -1    0    0    0    0  0.00000000000E+00  0.00000000000E+00  0.18250000000E+03  0.18250000000E+03  0.00000000000E+00 0.  1.
         11   -1    0    0    0    0 -0.00000000000E+00 -0.00000000000E+00 -0.18250000000E+03  0.18250000000E+03  0.00000000000E+00 0.  1.
        -11    1    1    2    0    0  0.22783826729E+01  0.16248852748E+01  0.18134094349E+03  0.18136253490E+03  0.00000000000E+00 0.  1.
         11    1    1    2    0    0  0.27719004799E+01  0.64668422513E+00 -0.14121895099E+03  0.14124763273E+03  0.00000000000E+00 0.  1.
        -15    1    1    2    0    0 -0.14234093094E+01 -0.86830691187E+00 -0.37037854185E+02  0.37117925893E+02  0.17770000000E+01 0.  1.
         15    1    1    2    0    0 -0.36268738435E+01 -0.14032625880E+01 -0.30841383144E+01  0.52719064777E+01  0.17770000000E+01 0.  1.
</event>
<event>
 6    1  0.1097339E-002  0.1921000E+03  0.7546771E-02  0.1061060E+00
        -11   -1    0    0    0    0  0.00000000000E+00  0.00000000000E+00  0.18250000000E+03  0.18250000000E+03  0.00000000000E+00 0. -1.
         11   -1    0    0    0    0 -0.00000000000E+00 -0.00000000000E+00 -0.18250000000E+03  0.18250000000E+03  0.00000000000E+00 0. -1.
        -11    1    1    2    0    0 -0.99870868786E+01  0.15770958314E+02  0.17188938846E+03  0.17290004886E+03  0.00000000000E+00 0. -1.
         11    1    1    2    0    0  0.16052732352E+01  0.12608630160E+01 -0.14900347346E+03  0.14901745461E+03  0.00000000000E+00 0. -1.
        -15    1    1    2    0    0  0.12454619017E+02 -0.17417783757E+02 -0.18351384040E+01  0.21564373115E+02  0.17770000000E+01 0. -1.
         15    1    1    2    0    0 -0.40728053732E+01  0.38596242755E+00 -0.21050776601E+02  0.21518123411E+02  0.17770000000E+01 0.  1.
</event>
<event>
 6    1  0.1097339E-002  0.1751851E+03  0.7546771E-02  0.1074431E+00
        -11   -1    0    0    0    0  0.00000000000E+00  0.00000000000E+00  0.18250000000E+03  0.18250000000E+03  0.00000000000E+00 0.  1.
         11   -1    0    0    0    0 -0.00000000000E+00 -0.00000000000E+00 -0.18250000000E+03  0.18250000000E+03  0.00000000000E+00 0. -1.
        -11    1    1    2    0    0  0.45798016771E+01  0.45204777579E+01  0.17428492295E+03  0.17440368021E+03  0.00000000000E+00 0.  1.
         11    1    1    2    0    0  0.25630070745E+01  0.30712092228E+01 -0.17608064346E+03  0.17612607510E+03  0.00000000000E+00 0. -1.
        -15    1    1    2    0    0 -0.10147771336E+00  0.58318706278E+00 -0.21445507839E+01  0.28473201332E+01  0.17770000000E+01 0.  1.
         15    1    1    2    0    0 -0.70413310382E+01 -0.81748740434E+01  0.39402712901E+01  0.11622924557E+02  0.17770000000E+01 0. -1.
</event>
<event>
 6    1  0.1097339E-002  0.1830062E+03  0.7546771E-02  0.1068053E+00
        -11   -1    0    0    0    0  0.00000000000E+00  0.00000000000E+00  0.18250000000E+03  0.18250000000E+03  0.00000000000E+00 0.  1.
         11   -1    0    0    0    0 -0.00000000000E+00 -0.00000000000E+00 -0.18250000000E+03  0.18250000000E+03  0.00000000000E+00 0.  1.
        -11    1    1    2    0    0 -0.25891551042E+01  0.21903553606E+01  0.18196218359E+03  0.18199378462E+03  0.00000000000E+00 0.  1.
         11    1    1    2    0    0  0.29346365777E+01  0.20792830275E+01 -0.16520061738E+03  0.16523976365E+03  0.00000000000E+00 0.  1.
        -15    1    1    2    0    0  0.32777487685E+00 -0.18446109722E+01 -0.52634278029E+01  0.58627150063E+01  0.17770000000E+01 0.  1.
         15    1    1    2    0    0 -0.67325635033E+00 -0.24250274159E+01 -0.11498138413E+02  0.11903736726E+02  0.17770000000E+01 0. -1.
</event>
<event>
 6    1  0.1097339E-002  0.1867718E+03  0.7546771E-02  0.1065104E+00
        -11   -1    0    0    0    0  0.00000000000E+00  0.00000000000E+00  0.18250000000E+03  0.18250000000E+03  0.00000000000E+00 0.  1.
         11   -1    0    0    0    0 -0.00000000000E+00 -0.00000000000E+00 -0.18250000000E+03  0.18250000000E+03  0.00000000000E+00 0.  1.
        -11    1    1    2    0    0 -0.20763484257E+01  0.27993167735E+01  0.17819408451E+03  0.17822816599E+03  0.00000000000E+00 0.  1.
         11    1    1    2    0    0 -0.22614953426E+01  0.20748377823E+01 -0.16023926377E+03  0.16026865248E+03  0.00000000000E+00 0.  1.
        -15    1    1    2    0    0  0.10156414826E+02 -0.68651315246E+01 -0.82702853446E+01  0.14894231825E+02  0.17770000000E+01 0.  1.
         15    1    1    2    0    0 -0.58185710578E+01  0.19909769688E+01 -0.96845353934E+01  0.11608949704E+02  0.17770000000E+01 0. -1.
</event>
<event>
 6    1  0.1097339E-002  0.1710853E+03  0.7546771E-02  0.1077922E+00
        -11   -1    0    0    0    0  0.00000000000E+00  0.00000000000E+00  0.18250000000E+03  0.18250000000E+03  0.00000000000E+00 0.  1.
         11   -1    0    0    0    0 -0.00000000000E+00 -0.00000000000E+00 -0.18250000000E+03  0.18250000000E+03  0.00000000000E+00 0. -1.
        -11    1    1    2    0    0  0.19154159270E+01  0.43315376866E+01  0.16992131184E+03  0.16998730322E+03  0.00000000000E+00 0.  1.
         11    1    1    2    0    0 -0.57382077268E+01  0.78604949617E+01 -0.17215417770E+03  0.17242904427E+03  0.00000000000E+00 0. -1.
        -15    1    1    2    0    0  0.17825092919E+01  0.21874954979E+01 -0.51959157038E+01  0.61739569913E+01  0.17770000000E+01 0. -1.
         15    1    1    2    0    0  0.20402825080E+01 -0.14379528146E+02  0.74287815627E+01  0.16409695516E+02  0.17770000000E+01 0.  1.
</event>
<event>
 6    1  0.1097339E-002  0.1871780E+03  0.7546771E-02  0.1064791E+00
        -11   -1    0    0    0    0  0.00000000000E+00  0.00000000000E+00  0.18250000000E+03  0.18250000000E+03  0.00000000000E+00 0.  1.
         11   -1    0    0    0    0 -0.00000000000E+00 -0.00000000000E+00 -0.18250000000E+03  0.18250000000E+03  0.00000000000E+00 0. -1.
        -11    1    1    2    0    0 -0.60003295950E+00  0.44238760026E+01  0.15696096998E+03  0.15702444655E+03  0.00000000000E+00 0.  1.
         11    1    1    2    0    0  0.24932364178E+01 -0.18786555314E+02 -0.17680921684E+03  0.17782196166E+03  0.00000000000E+00 0. -1.
        -15    1    1    2    0    0 -0.69679825630E+01  0.14418859182E+02  0.10087742489E+02  0.19009906855E+02  0.17770000000E+01 0.  1.
         15    1    1    2    0    0  0.50747791046E+01 -0.56179871095E-01  0.97605043754E+01  0.11143684929E+02  0.17770000000E+01 0. -1.
</event>
<event>
 6    1  0.1097339E-002  0.1724272E+03  0.7546771E-02  0.1076768E+00
        -11   -1    0    0    0    0  0.00000000000E+00  0.00000000000E+00  0.18250000000E+03  0.18250000000E+03  0.00000000000E+00 0.  1.
         11   -1    0    0    0    0 -0.00000000000E+00 -0.00000000000E+00 -0.18250000000E+03  0.18250000000E+03  0.00000000000E+00 0. -1.
        -11    1    1    2    0    0  0.25714679104E+01  0.21003120307E+01  0.17171745424E+03  0.17174954977E+03  0.00000000000E+00 0.  1.
         11    1    1    2    0    0  0.28099346789E+01  0.90024746054E+00 -0.17313762904E+03  0.17316276958E+03  0.00000000000E+00 0. -1.
        -15    1    1    2    0    0  0.25563076098E+01  0.54821952039E+01  0.47258180859E+01  0.78791026413E+01  0.17770000000E+01 0. -1.
         15    1    1    2    0    0 -0.79377101991E+01 -0.84827546952E+01 -0.33056432816E+01  0.12208578006E+02  0.17770000000E+01 0.  1.
</event>
<event>
 6    1  0.1097339E-002  0.1885493E+03  0.7546771E-02  0.1063739E+00
        -11   -1    0    0    0    0  0.00000000000E+00  0.00000000000E+00  0.18250000000E+03  0.18250000000E+03  0.00000000000E+00 0. -1.
         11   -1    0    0    0    0 -0.00000000000E+00 -0.00000000000E+00 -0.18250000000E+03  0.18250000000E+03  0.00000000000E+00 0.  1.
        -11    1    1    2    0    0 -0.73682282362E+01  0.15860253078E+02  0.13925973385E+03  0.14035352467E+03  0.00000000000E+00 0. -1.
         11    1    1    2    0    0 -0.13941981516E+02 -0.10214137842E+02 -0.17560220275E+03  0.17645067603E+03  0.00000000000E+00 0.  1.
        -15    1    1    2    0    0  0.22083292244E+01  0.20485387925E+01 -0.24294045284E+01  0.42582818731E+01  0.17770000000E+01 0.  1.
         15    1    1    2    0    0  0.19101880527E+02 -0.76946540287E+01  0.38771873426E+02  0.43937517434E+02  0.17770000000E+01 0. -1.
</event>
<event>
 6    1  0.1097339E-002  0.1832416E+03  0.7546771E-02  0.1067866E+00
        -11   -1    0    0    0    0  0.00000000000E+00  0.00000000000E+00  0.18250000000E+03  0.18250000000E+03  0.00000000000E+00 0.  1.
         11   -1    0    0    0    0 -0.00000000000E+00 -0.00000000000E+00 -0.18250000000E+03  0.18250000000E+03  0.00000000000E+00 0. -1.
        -11    1    1    2    0    0 -0.78050736408E+00  0.41841949335E+01  0.18170850880E+03  0.18175835290E+03  0.00000000000E+00 0.  1.
         11    1    1    2    0    0 -0.46976573952E+01  0.46352713253E+00 -0.14607993701E+03  0.14615618646E+03  0.00000000000E+00 0. -1.
        -15    1    1    2    0    0  0.33624317325E+01 -0.52788332922E+01 -0.16304654971E+02  0.17554815032E+02  0.17770000000E+01 0. -1.
         15    1    1    2    0    0  0.21157330268E+01  0.63111122621E+00 -0.19323916819E+02  0.19530645608E+02  0.17770000000E+01 0.  1.
</event>
<event>
 6    1  0.1097339E-002  0.1827227E+03  0.7546771E-02  0.1068278E+00
        -11   -1    0    0    0    0  0.00000000000E+00  0.00000000000E+00  0.18250000000E+03  0.18250000000E+03  0.00000000000E+00 0. -1.
         11   -1    0    0    0    0 -0.00000000000E+00 -0.00000000000E+00 -0.18250000000E+03  0.18250000000E+03  0.00000000000E+00 0.  1.
        -11    1    1    2    0    0  0.22879109066E+01 -0.12748977931E+01  0.14774778771E+03  0.14777100079E+03  0.00000000000E+00 0. -1.
         11    1    1    2    0    0 -0.26175918926E+01  0.47643925114E+00 -0.18225789730E+03  0.18227731595E+03  0.00000000000E+00 0.  1.
        -15    1    1    2    0    0  0.10553280789E+01  0.18915653164E+01  0.11523869281E+02  0.11859554330E+02  0.17770000000E+01 0.  1.
         15    1    1    2    0    0 -0.72564709293E+00 -0.10931067745E+01  0.22986240303E+02  0.23092128927E+02  0.17770000000E+01 0. -1.
</event>
<event>
 6    1  0.1793246E-002  0.1890366E+03  0.7546771E-02  0.1063368E+00
        -11   -1    0    0    0    0  0.00000000000E+00  0.00000000000E+00  0.18250000000E+03  0.18250000000E+03  0.00000000000E+00 0.  1.
         11   -1    0    0    0    0 -0.00000000000E+00 -0.00000000000E+00 -0.18250000000E+03  0.18250000000E+03  0.00000000000E+00 0. -1.
        -11    1    1    2    0    0  0.27987909542E+01  0.22801540559E+00  0.17594102419E+03  0.17596343147E+03  0.00000000000E+00 0.  1.
         11    1    1    2    0    0  0.88453279102E+01 -0.52823006694E+01 -0.14849227738E+03  0.14884924914E+03  0.00000000000E+00 0. -1.
        -15    1    1    2    0    0 -0.11810220201E+02  0.68876109955E+01 -0.32068397221E+02  0.34906450919E+02  0.17770000000E+01 0. -1.
         15    1    1    2    0    0  0.16610133692E+00 -0.18333257316E+01  0.46196504139E+01  0.52808684740E+01  0.17770000000E+01 0.  1.
</event>
<event>
 6    1  0.1097339E-002  0.1842494E+03  0.7546771E-02  0.1067071E+00
        -11   -1    0    0    0    0  0.00000000000E+00  0.00000000000E+00  0.18250000000E+03  0.18250000000E+03  0.00000000000E+00 0.  1.
         11   -1    0    0    0    0 -0.00000000000E+00 -0.00000000000E+00 -0.18250000000E+03  0.18250000000E+03  0.00000000000E+00 0.  1.
        -11    1    1    2    0    0 -0.28018724212E+01 -0.16248433756E+01  0.18072161421E+03  0.18075063609E+03  0.00000000000E+00 0.  1.
         11    1    1    2    0    0 -0.29541058272E+01  0.28092085670E+01 -0.12033002515E+03  0.12039905875E+03  0.00000000000E+00 0.  1.
        -15    1    1    2    0    0  0.62142260097E+01 -0.58539802519E+01 -0.10246735693E+02  0.13455073803E+02  0.17770000000E+01 0. -1.
         15    1    1    2    0    0 -0.45824776121E+00  0.46696150604E+01 -0.50144853362E+02  0.50395231357E+02  0.17770000000E+01 0.  1.
</event>
<event>
 6    1  0.1097339E-002  0.1839498E+03  0.7546771E-02  0.1067307E+00
        -11   -1    0    0    0    0  0.00000000000E+00  0.00000000000E+00  0.18250000000E+03  0.18250000000E+03  0.00000000000E+00 0.  1.
         11   -1    0    0    0    0 -0.00000000000E+00 -0.00000000000E+00 -0.18250000000E+03  0.18250000000E+03  0.00000000000E+00 0. -1.
        -11    1    1    2    0    0  0.37906908237E+01  0.87935082524E+00  0.18100839728E+03  0.18105022088E+03  0.00000000000E+00 0.  1.
         11    1    1    2    0    0  0.54050976941E+00 -0.22224796411E+01 -0.16616490680E+03  0.16618064815E+03  0.00000000000E+00 0. -1.
        -15    1    1    2    0    0 -0.34135499732E+01  0.45069906520E+01 -0.10290806165E+02  0.11875340360E+02  0.17770000000E+01 0.  1.
         15    1    1    2    0    0 -0.91765061994E+00 -0.31638618361E+01 -0.45526843093E+01  0.58937906137E+01  0.17770000000E+01 0. -1.
</event>
<event>
 6    1  0.1097339E-002  0.1826242E+03  0.7546771E-02  0.1068356E+00
        -11   -1    0    0    0    0  0.00000000000E+00  0.00000000000E+00  0.18250000000E+03  0.18250000000E+03  0.00000000000E+00 0.  1.
         11   -1    0    0    0    0 -0.00000000000E+00 -0.00000000000E+00 -0.18250000000E+03  0.18250000000E+03  0.00000000000E+00 0.  1.
        -11    1    1    2    0    0  0.44371948395E+00 -0.26065840598E+01  0.18235668115E+03  0.18237584908E+03  0.00000000000E+00 0.  1.
         11    1    1    2    0    0  0.11033389458E+01  0.14114264935E+01 -0.10889253101E+03  0.10890726693E+03  0.00000000000E+00 0.  1.
        -15    1    1    2    0    0 -0.49884442203E-01  0.12958616842E+01 -0.11466293545E+02  0.11675417021E+02  0.17770000000E+01 0. -1.
         15    1    1    2    0    0 -0.14971739875E+01 -0.10070411791E+00 -0.61997856599E+02  0.62041466965E+02  0.17770000000E+01 0.  1.
</event>
<event>
 6    1  0.1097339E-002  0.1857678E+03  0.7546771E-02  0.1065883E+00
        -11   -1    0    0    0    0  0.00000000000E+00  0.00000000000E+00  0.18250000000E+03  0.18250000000E+03  0.00000000000E+00 0.  1.
         11   -1    0    0    0    0 -0.00000000000E+00 -0.00000000000E+00 -0.18250000000E+03  0.18250000000E+03  0.00000000000E+00 0.  1.
        -11    1    1    2    0    0  0.66116892320E+01  0.50286479368E+01  0.17903963538E+03  0.17923223140E+03  0.00000000000E+00 0.  1.
         11    1    1    2    0    0 -0.64089312328E+01 -0.69330370513E+01 -0.10597684800E+03  0.10639658695E+03  0.00000000000E+00 0.  1.
        -15    1    1    2    0    0  0.91598718700E+01  0.92360381582E+01 -0.60784316357E+02  0.62185999209E+02  0.17770000000E+01 0.  1.
         15    1    1    2    0    0 -0.93626298691E+01 -0.73316490437E+01 -0.12278471026E+02  0.17185182440E+02  0.17770000000E+01 0.  1.
</event>
<event>
 6    1  0.1097339E-002  0.1841488E+03  0.7546771E-02  0.1067150E+00
        -11   -1    0    0    0    0  0.00000000000E+00  0.00000000000E+00  0.18250000000E+03  0.18250000000E+03  0.00000000000E+00 0.  1.
         11   -1    0    0    0    0 -0.00000000000E+00 -0.00000000000E+00 -0.18250000000E+03  0.18250000000E+03  0.00000000000E+00 0.  1.
        -11    1    1    2    0    0 -0.46958771170E+01 -0.66854786009E+01  0.15347148132E+03  0.15368878445E+03  0.00000000000E+00 0.  1.
         11    1    1    2    0    0  0.16838403533E+01  0.59049291477E+01 -0.18074689461E+03  0.18085116372E+03  0.00000000000E+00 0.  1.
        -15    1    1    2    0    0 -0.12125399863E+01 -0.49046781606E+01  0.64059752322E+01  0.83498723794E+01  0.17770000000E+01 0. -1.
         15    1    1    2    0    0  0.42245767500E+01  0.56852276137E+01  0.20869438058E+02  0.22110179456E+02  0.17770000000E+01 0.  1.
</event>
<event>
 6    1  0.1097339E-002  0.1833700E+03  0.7546771E-02  0.1067764E+00
        -11   -1    0    0    0    0  0.00000000000E+00  0.00000000000E+00  0.18250000000E+03  0.18250000000E+03  0.00000000000E+00 0. -1.
         11   -1    0    0    0    0 -0.00000000000E+00 -0.00000000000E+00 -0.18250000000E+03  0.18250000000E+03  0.00000000000E+00 0. -1.
        -11    1    1    2    0    0  0.48607699197E+00 -0.26667834512E+01  0.18160975455E+03  0.18162998363E+03  0.00000000000E+00 0. -1.
         11    1    1    2    0    0 -0.26808421005E+01  0.29638562015E+01 -0.16715016004E+03  0.16719792870E+03  0.00000000000E+00 0. -1.
        -15    1    1    2    0    0  0.24182093930E+01 -0.27591802218E+01 -0.97024891747E+01  0.10524107437E+02  0.17770000000E+01 0. -1.
         15    1    1    2    0    0 -0.22344428444E+00  0.24621074716E+01 -0.47571053378E+01  0.56479802358E+01  0.17770000000E+01 0. -1.
</event>
<event>
 6    1  0.1097339E-002  0.1841196E+03  0.7546771E-02  0.1067173E+00
        -11   -1    0    0    0    0  0.00000000000E+00  0.00000000000E+00  0.18250000000E+03  0.18250000000E+03  0.00000000000E+00 0. -1.
         11   -1    0    0    0    0 -0.00000000000E+00 -0.00000000000E+00 -0.18250000000E+03  0.18250000000E+03  0.00000000000E+00 0.  1.
        -11    1    1    2    0    0  0.14626028479E+01 -0.21821867983E+01  0.18086128441E+03  0.18088036196E+03  0.00000000000E+00 0. -1.
         11    1    1    2    0    0 -0.18673447893E+01 -0.17093936570E+01 -0.17201813387E+03  0.17203676172E+03  0.00000000000E+00 0.  1.
        -15    1    1    2    0    0  0.21533503302E+01  0.48013302430E+01 -0.64216731913E+01  0.84903065506E+01  0.17770000000E+01 0.  1.
         15    1    1    2    0    0 -0.17486083887E+01 -0.90974978775E+00 -0.24214773469E+01  0.35925697648E+01  0.17770000000E+01 0. -1.
</event>
<event>
 6    1  0.1097339E-002  0.1835855E+03  0.7546771E-02  0.1067594E+00
        -11   -1    0    0    0    0  0.00000000000E+00  0.00000000000E+00  0.18250000000E+03  0.18250000000E+03  0.00000000000E+00 0. -1.
         11   -1    0    0    0    0 -0.00000000000E+00 -0.00000000000E+00 -0.18250000000E+03  0.18250000000E+03  0.00000000000E+00 0. -1.
        -11    1    1    2    0    0  0.10078060199E+02  0.32660084057E+01  0.18110488314E+03  0.18141447793E+03  0.00000000000E+00 0. -1.
         11    1    1    2    0    0  0.50833904736E+00  0.14305914500E+01 -0.10090844713E+03  0.10091986773E+03  0.00000000000E+00 0. -1.
        -15    1    1    2    0    0 -0.10710869324E+02  0.21172209653E+01 -0.64766999664E+02  0.65704850055E+02  0.17770000000E+01 0.  1.
         15    1    1    2    0    0  0.12447007787E+00 -0.68138208210E+01 -0.15429436345E+02  0.16960804282E+02  0.17770000000E+01 0.  1.
</event>
<event>
 6    1  0.1097339E-002  0.1833377E+03  0.7546771E-02  0.1067790E+00
        -11   -1    0    0    0    0  0.00000000000E+00  0.00000000000E+00  0.18250000000E+03  0.18250000000E+03  0.00000000000E+00 0. -1.
         11   -1    0    0    0    0 -0.00000000000E+00 -0.00000000000E+00 -0.18250000000E+03  0.18250000000E+03  0.00000000000E+00 0.  1.
        -11    1    1    2    0    0  0.23529655871E+01 -0.16970408144E+01  0.18163913551E+03  0.18166230193E+03  0.00000000000E+00 0. -1.
         11    1    1    2    0    0  0.20159750564E+01  0.37212735084E+01 -0.13736803512E+03  0.13743321689E+03  0.00000000000E+00 0.  1.
        -15    1    1    2    0    0 -0.15623572373E+01 -0.14209342076E+01 -0.41344191001E+02  0.41436214507E+02  0.17770000000E+01 0. -1.
         15    1    1    2    0    0 -0.28065834063E+01 -0.60329848650E+00 -0.29269093930E+01  0.44682666745E+01  0.17770000000E+01 0.  1.
</event>
<event>
 6    1  0.1097339E-002  0.1858907E+03  0.7546771E-02  0.1065787E+00
        -11   -1    0    0    0    0  0.00000000000E+00  0.00000000000E+00  0.18250000000E+03  0.18250000000E+03  0.00000000000E+00 0. -1.
         11   -1    0    0    0    0 -0.00000000000E+00 -0.00000000000E+00 -0.18250000000E+03  0.18250000000E+03  0.00000000000E+00 0. -1.
        -11    1    1    2    0    0  0.33170369008E+01  0.15705239895E+01  0.17590698565E+03  0.17594526672E+03  0.00000000000E+00 0. -1.
         11    1    1    2    0    0 -0.45706604527E-01 -0.28445210106E+01 -0.17908666280E+03  0.17910925766E+03  0.00000000000E+00 0. -1.
        -15    1    1    2    0    0 -0.21851606665E+01 -0.16526303593E+01  0.49584289722E+01  0.59371593473E+01  0.17770000000E+01 0. -1.
         15    1    1    2    0    0 -0.10861696298E+01  0.29266273804E+01 -0.17787518274E+01  0.40083162739E+01  0.17770000000E+01 0. -1.
</event>
<event>
 6    1  0.1097339E-002  0.1920165E+03  0.7546771E-02  0.1061122E+00
        -11   -1    0    0    0    0  0.00000000000E+00  0.00000000000E+00  0.18250000000E+03  0.18250000000E+03  0.00000000000E+00 0.  1.
         11   -1    0    0    0    0 -0.00000000000E+00 -0.00000000000E+00 -0.18250000000E+03  0.18250000000E+03  0.00000000000E+00 0.  1.
        -11    1    1    2    0    0 -0.21352818151E+01  0.15580063070E+01  0.17296334389E+03  0.17298354008E+03  0.00000000000E+00 0.  1.
         11    1    1    2    0    0  0.20180633336E+01  0.14786137340E+01 -0.16887851910E+03  0.16889704880E+03  0.00000000000E+00 0.  1.
        -15    1    1    2    0    0 -0.10973292882E+02 -0.17994559709E+01 -0.35484191509E+01  0.11806786435E+02  0.17770000000E+01 0.  1.
         15    1    1    2    0    0  0.11090511363E+02 -0.12371640701E+01 -0.53640563260E+00  0.11312624684E+02  0.17770000000E+01 0.  1.
</event>
<event>
 6    1  0.1097339E-002  0.1828692E+03  0.7546771E-02  0.1068161E+00
        -11   -1    0    0    0    0  0.00000000000E+00  0.00000000000E+00  0.18250000000E+03  0.18250000000E+03  0.00000000000E+00 0.  1.
         11   -1    0    0    0    0 -0.00000000000E+00 -0.00000000000E+00 -0.18250000000E+03  0.18250000000E+03  0.00000000000E+00 0. -1.
        -11    1    1    2    0    0 -0.40934094731E+01 -0.42821751701E+01  0.79234992459E+02  0.79456132899E+02  0.00000000000E+00 0.  1.
         11    1    1    2    0    0  0.78422969251E+01  0.87185704702E+01 -0.18175284937E+03  0.18213075893E+03  0.00000000000E+00 0. -1.
        -15    1    1    2    0    0  0.13924212465E+01  0.13004367065E+01  0.65902530374E+02  0.65954008303E+02  0.17770000000E+01 0. -1.
         15    1    1    2    0    0 -0.51413086986E+01 -0.57368320066E+01  0.36615326540E+02  0.37459099872E+02  0.17770000000E+01 0.  1.
</event>
<event>
 6    1  0.1097339E-002  0.1850641E+03  0.7546771E-02  0.1066432E+00
        -11   -1    0    0    0    0  0.00000000000E+00  0.00000000000E+00  0.18250000000E+03  0.18250000000E+03  0.00000000000E+00 0. -1.
         11   -1    0    0    0    0 -0.00000000000E+00 -0.00000000000E+00 -0.18250000000E+03  0.18250000000E+03  0.00000000000E+00 0. -1.
        -11    1    1    2    0    0 -0.45943079582E+00  0.14624139154E+01  0.42885988531E+02  0.42913374878E+02  0.00000000000E+00 0. -1.
         11    1    1    2    0    0  0.39125995090E+01  0.33580379390E+00 -0.17989299426E+03  0.17993585130E+03  0.00000000000E+00 0. -1.
        -15    1    1    2    0    0 -0.15867340627E+02 -0.48567208517E+01  0.29679595847E+02  0.34049910053E+02  0.17770000000E+01 0.  1.
         15    1    1    2    0    0  0.12414171914E+02  0.30585031424E+01  0.10732740988E+03  0.10810086377E+03  0.17770000000E+01 0. -1.
</event>
<event>
 6    1  0.1097339E-002  0.1829981E+03  0.7546771E-02  0.1068059E+00
        -11   -1    0    0    0    0  0.00000000000E+00  0.00000000000E+00  0.18250000000E+03  0.18250000000E+03  0.00000000000E+00 0. -1.
         11   -1    0    0    0    0 -0.00000000000E+00 -0.00000000000E+00 -0.18250000000E+03  0.18250000000E+03  0.00000000000E+00 0. -1.
        -11    1    1    2    0    0  0.24019599488E+01 -0.12580288204E+01  0.18198165579E+03  0.18200185464E+03  0.00000000000E+00 0. -1.
         11    1    1    2    0    0  0.10229760348E+01  0.40502601924E+01 -0.14185658605E+03  0.14191808233E+03  0.00000000000E+00 0. -1.
        -15    1    1    2    0    0 -0.30639721401E+01 -0.47651434258E+01 -0.31260033873E+02  0.31818893191E+02  0.17770000000E+01 0.  1.
         15    1    1    2    0    0 -0.36096384354E+00  0.19729120539E+01 -0.88650358698E+01  0.92611698419E+01  0.17770000000E+01 0. -1.
</event>
<event>
 6    1  0.1097339E-002  0.1827517E+03  0.7546771E-02  0.1068255E+00
        -11   -1    0    0    0    0  0.00000000000E+00  0.00000000000E+00  0.18250000000E+03  0.18250000000E+03  0.00000000000E+00 0. -1.
         11   -1    0    0    0    0 -0.00000000000E+00 -0.00000000000E+00 -0.18250000000E+03  0.18250000000E+03  0.00000000000E+00 0. -1.
        -11    1    1    2    0    0  0.18698154854E+01  0.22829804423E+01  0.18222444817E+03  0.18224834079E+03  0.00000000000E+00 0. -1.
         11    1    1    2    0    0  0.19209921954E+01  0.44614427071E+00 -0.11996809759E+03  0.11998430604E+03  0.00000000000E+00 0. -1.
        -15    1    1    2    0    0 -0.17675888290E+01 -0.19717442217E+01 -0.53041571112E+02  0.53137351651E+02  0.17770000000E+01 0. -1.
         15    1    1    2    0    0 -0.20232188518E+01 -0.75738049125E+00 -0.92147794655E+01  0.96300015227E+01  0.17770000000E+01 0.  1.
</event>
<event>
 6    1  0.1097339E-002  0.1721624E+03  0.7546771E-02  0.1076995E+00
        -11   -1    0    0    0    0  0.00000000000E+00  0.00000000000E+00  0.18250000000E+03  0.18250000000E+03  0.00000000000E+00 0.  1.
         11   -1    0    0    0    0 -0.00000000000E+00 -0.00000000000E+00 -0.18250000000E+03  0.18250000000E+03  0.00000000000E+00 0.  1.
        -11    1    1    2    0    0 -0.37332770291E+01 -0.10550590556E+02  0.17558637407E+03  0.17594268122E+03  0.00000000000E+00 0.  1.
         11    1    1    2    0    0  0.11443994075E+02 -0.74555223663E+00 -0.16833967770E+03  0.16872986676E+03  0.00000000000E+00 0.  1.
        -15    1    1    2    0    0 -0.62288964642E+00  0.72154946289E+01  0.21334183414E+01  0.77563236827E+01  0.17770000000E+01 0.  1.
         15    1    1    2    0    0 -0.70878273992E+01  0.40806481634E+01 -0.93801147033E+01  0.12571128331E+02  0.17770000000E+01 0. -1.
</event>
<event>
 6    1  0.1097339E-002  0.1875549E+03  0.7546771E-02  0.1064501E+00
        -11   -1    0    0    0    0  0.00000000000E+00  0.00000000000E+00  0.18250000000E+03  0.18250000000E+03  0.00000000000E+00 0. -1.
         11   -1    0    0    0    0 -0.00000000000E+00 -0.00000000000E+00 -0.18250000000E+03  0.18250000000E+03  0.00000000000E+00 0. -1.
        -11    1    1    2    0    0 -0.20428306147E+01  0.16175190251E+01  0.17742598916E+03  0.17744512153E+03  0.00000000000E+00 0. -1.
         11    1    1    2    0    0  0.40560676902E+01 -0.13593129909E+00 -0.14703397805E+03  0.14708997541E+03  0.00000000000E+00 0. -1.
        -15    1    1    2    0    0 -0.69656187808E+01 -0.11451868298E+02 -0.88755741247E+01  0.16174012414E+02  0.17770000000E+01 0.  1.
         15    1    1    2    0    0  0.49523817053E+01  0.99702805724E+01 -0.21516436982E+02  0.24290890652E+02  0.17770000000E+01 0. -1.
</event>
<event>
 6    1  0.1097339E-002  0.1835596E+03  0.7546771E-02  0.1067614E+00
        -11   -1    0    0    0    0  0.00000000000E+00  0.00000000000E+00  0.18250000000E+03  0.18250000000E+03  0.00000000000E+00 0.  1.
         11   -1    0    0    0    0 -0.00000000000E+00 -0.00000000000E+00 -0.18250000000E+03  0.18250000000E+03  0.00000000000E+00 0.  1.
        -11    1    1    2    0    0  0.24010886272E+00 -0.79862872871E+00  0.41494964517E+02  0.41503343726E+02  0.00000000000E+00 0.  1.
         11    1    1    2    0    0  0.39149106545E+01  0.72918850656E-01 -0.18139814370E+03  0.18144039898E+03  0.00000000000E+00 0.  1.
        -15    1    1    2    0    0  0.64812869742E+01  0.41260356340E+01  0.10649291209E+03  0.10678449937E+03  0.17770000000E+01 0. -1.
         15    1    1    2    0    0 -0.10636306491E+02 -0.34003257559E+01  0.33410267090E+02  0.35271757924E+02  0.17770000000E+01 0. -1.
</event>
<event>
 6    1  0.1097339E-002  0.1826285E+03  0.7546771E-02  0.1068353E+00
        -11   -1    0    0    0    0  0.00000000000E+00  0.00000000000E+00  0.18250000000E+03  0.18250000000E+03  0.00000000000E+00 0.  1.
         11   -1    0    0    0    0 -0.00000000000E+00 -0.00000000000E+00 -0.18250000000E+03  0.18250000000E+03  0.00000000000E+00 0.  1.
        -11    1    1    2    0    0 -0.14665673104E+01 -0.75416591737E+00  0.45204380344E+02  0.45234451342E+02  0.00000000000E+00 0.  1.
         11    1    1    2    0    0 -0.18634325036E+01 -0.41441600503E+01 -0.18231491570E+03  0.18237152994E+03  0.00000000000E+00 0.  1.
        -15    1    1    2    0    0  0.22382096011E+01 -0.56108140889E+00  0.38099523398E+02  0.38210676607E+02  0.17770000000E+01 0. -1.
         15    1    1    2    0    0  0.10917902129E+01  0.54594073765E+01  0.99011011960E+02  0.99183342115E+02  0.17770000000E+01 0.  1.
</event>
<event>
 6    1  0.1097339E-002  0.1848307E+03  0.7546771E-02  0.1066615E+00
        -11   -1    0    0    0    0  0.00000000000E+00  0.00000000000E+00  0.18250000000E+03  0.18250000000E+03  0.00000000000E+00 0. -1.
         11   -1    0    0    0    0 -0.00000000000E+00 -0.00000000000E+00 -0.18250000000E+03  0.18250000000E+03  0.00000000000E+00 0.  1.
        -11    1    1    2    0    0 -0.13144232672E+01  0.12244889941E+00  0.81117589893E+02  0.81128331009E+02  0.00000000000E+00 0. -1.
         11    1    1    2    0    0 -0.40522877189E+00  0.72824366989E+01 -0.18002163373E+03  0.18016932787E+03  0.00000000000E+00 0.  1.
        -15    1    1    2    0    0 -0.66140357192E+01  0.66584869305E+01  0.68261862572E+02  0.68926921645E+02  0.17770000000E+01 0. -1.
         15    1    1    2    0    0  0.83336877583E+01 -0.14063372529E+02  0.30642181261E+02  0.34775419479E+02  0.17770000000E+01 0. -1.
</event>
<event>
 6    1  0.1097339E-002  0.1840239E+03  0.7546771E-02  0.1067248E+00
        -11   -1    0    0    0    0  0.00000000000E+00  0.00000000000E+00  0.18250000000E+03  0.18250000000E+03  0.00000000000E+00 0.  1.
         11   -1    0    0    0    0 -0.00000000000E+00 -0.00000000000E+00 -0.18250000000E+03  0.18250000000E+03  0.00000000000E+00 0.  1.
        -11    1    1    2    0    0 -0.36063924537E+01 -0.58318814508E+01  0.18084615853E+03  0.18097610329E+03  0.00000000000E+00 0.  1.
         11    1    1    2    0    0 -0.68303083466E+00  0.23829137768E+01 -0.15462204982E+03  0.15464191896E+03  0.00000000000E+00 0.  1.
        -15    1    1    2    0    0 -0.24078977575E+00 -0.19490677709E+01 -0.55788127481E+00  0.27066225094E+01  0.17770000000E+01 0. -1.
         15    1    1    2    0    0  0.45302130641E+01  0.53980354450E+01 -0.25666227435E+02  0.26675355233E+02  0.17770000000E+01 0.  1.
</event>
<event>
 6    1  0.1097339E-002  0.1850136E+03  0.7546771E-02  0.1066471E+00
        -11   -1    0    0    0    0  0.00000000000E+00  0.00000000000E+00  0.18250000000E+03  0.18250000000E+03  0.00000000000E+00 0.  1.
         11   -1    0    0    0    0 -0.00000000000E+00 -0.00000000000E+00 -0.18250000000E+03  0.18250000000E+03  0.00000000000E+00 0. -1.
        -11    1    1    2    0    0  0.79298126459E+01  0.40665233179E+01  0.17976559605E+03  0.17998635522E+03  0.00000000000E+00 0.  1.
         11    1    1    2    0    0  0.22754470465E+01 -0.14935676631E+01 -0.16874689557E+03  0.16876884537E+03  0.00000000000E+00 0. -1.
        -15    1    1    2    0    0 -0.22023537679E+01  0.33387147176E+00 -0.11047242699E+01  0.30561375936E+01  0.17770000000E+01 0.  1.
         15    1    1    2    0    0 -0.80029059245E+01 -0.29068271266E+01 -0.99139762109E+01  0.13188661816E+02  0.17770000000E+01 0. -1.
</event>
<event>
 6    1  0.1097339E-002  0.2125687E+03  0.7546771E-02  0.1046758E+00
        -11   -1    0    0    0    0  0.00000000000E+00  0.00000000000E+00  0.18250000000E+03  0.18250000000E+03  0.00000000000E+00 0. -1.
         11   -1    0    0    0    0 -0.00000000000E+00 -0.00000000000E+00 -0.18250000000E+03  0.18250000000E+03  0.00000000000E+00 0. -1.
        -11    1    1    2    0    0 -0.28039253433E+01 -0.20170071636E+01  0.10541723144E+03  0.10547380243E+03  0.00000000000E+00 0. -1.
         11    1    1    2    0    0 -0.30660077484E+01  0.12134101868E+02 -0.15191665697E+03  0.15243132058E+03  0.00000000000E+00 0. -1.
        -15    1    1    2    0    0  0.12558597766E+01 -0.12579651485E+02 -0.28847280007E+02  0.31545968175E+02  0.17770000000E+01 0.  1.
         15    1    1    2    0    0  0.46140733152E+01  0.24625567808E+01  0.75346705536E+02  0.75548908812E+02  0.17770000000E+01 0. -1.
</event>
<event>
 6    1  0.1097339E-002  0.1826391E+03  0.7546771E-02  0.1068344E+00
        -11   -1    0    0    0    0  0.00000000000E+00  0.00000000000E+00  0.18250000000E+03  0.18250000000E+03  0.00000000000E+00 0.  1.
         11   -1    0    0    0    0 -0.00000000000E+00 -0.00000000000E+00 -0.18250000000E+03  0.18250000000E+03  0.00000000000E+00 0.  1.
        -11    1    1    2    0    0 -0.12683933299E+01 -0.11496009204E+01  0.21170199367E+02  0.21239297191E+02  0.00000000000E+00 0.  1.
         11    1    1    2    0    0  0.30153827366E+01  0.37956911392E+00 -0.18233560437E+03  0.18236093119E+03  0.00000000000E+00 0.  1.
        -15    1    1    2    0    0 -0.41920876858E+01 -0.10572642705E+01  0.11700978263E+03  0.11710310998E+03  0.17770000000E+01 0.  1.
         15    1    1    2    0    0  0.24450982791E+01  0.18272960770E+01  0.44155622366E+02  0.44296661636E+02  0.17770000000E+01 0.  1.
</event>
<event>
 6    1  0.1097339E-002  0.1825607E+03  0.7546771E-02  0.1068406E+00
        -11   -1    0    0    0    0  0.00000000000E+00  0.00000000000E+00  0.18250000000E+03  0.18250000000E+03  0.00000000000E+00 0.  1.
         11   -1    0    0    0    0 -0.00000000000E+00 -0.00000000000E+00 -0.18250000000E+03  0.18250000000E+03  0.00000000000E+00 0. -1.
        -11    1    1    2    0    0  0.51093689181E-01 -0.67257212048E+00  0.11842616739E+02  0.11861809939E+02  0.00000000000E+00 0.  1.
         11    1    1    2    0    0 -0.63010705809E+00 -0.39240790296E+01 -0.18239597781E+03  0.18243927250E+03  0.00000000000E+00 0. -1.
        -15    1    1    2    0    0 -0.86324109562E+00  0.15582218301E+00  0.38306776950E+02  0.38358002490E+02  0.17770000000E+01 0.  1.
         15    1    1    2    0    0  0.14422544645E+01  0.44408289671E+01  0.13224658412E+03  0.13234091507E+03  0.17770000000E+01 0.  1.
</event>
<event>
 6    1  0.1097339E-002  0.1839180E+03  0.7546771E-02  0.1067332E+00
        -11   -1    0    0    0    0  0.00000000000E+00  0.00000000000E+00  0.18250000000E+03  0.18250000000E+03  0.00000000000E+00 0. -1.
         11   -1    0    0    0    0 -0.00000000000E+00 -0.00000000000E+00 -0.18250000000E+03  0.18250000000E+03  0.00000000000E+00 0. -1.
        -11    1    1    2    0    0 -0.21064590275E+01 -0.27420853160E+01  0.16210838747E+03  0.16214526046E+03  0.00000000000E+00 0. -1.
         11    1    1    2    0    0 -0.34039221581E+01 -0.16226640483E+01 -0.18104270924E+03  0.18108197672E+03  0.00000000000E+00 0. -1.
        -15    1    1    2    0    0  0.40581896940E+01 -0.12547766018E+01  0.94540674976E+01  0.10515725803E+02  0.17770000000E+01 0.  1.
         15    1    1    2    0    0  0.14521914916E+01  0.56195259661E+01  0.94802542702E+01  0.11257037010E+02  0.17770000000E+01 0. -1.
</event>
<event>
 6    1  0.1097339E-002  0.1890021E+03  0.7546771E-02  0.1063394E+00
        -11   -1    0    0    0    0  0.00000000000E+00  0.00000000000E+00  0.18250000000E+03  0.18250000000E+03  0.00000000000E+00 0. -1.
         11   -1    0    0    0    0 -0.00000000000E+00 -0.00000000000E+00 -0.18250000000E+03  0.18250000000E+03  0.00000000000E+00 0. -1.
        -11    1    1    2    0    0 -0.50244075289E+01  0.11034961101E+01  0.17592265700E+03  0.17599785118E+03  0.00000000000E+00 0. -1.
         11    1    1    2    0    0 -0.45932038351E+01  0.66632774365E+01 -0.14785629507E+03  0.14807761741E+03  0.00000000000E+00 0. -1.
        -15    1    1    2    0    0  0.55093542170E+01 -0.34462514505E+01 -0.32560341552E+02  0.33250010585E+02  0.17770000000E+01 0. -1.
         15    1    1    2    0    0  0.41082571469E+01 -0.43205220960E+01  0.44939796237E+01  0.76745208206E+01  0.17770000000E+01 0.  1.
</event>
<event>
 6    1  0.1097339E-002  0.1837263E+03  0.7546771E-02  0.1067483E+00
        -11   -1    0    0    0    0  0.00000000000E+00  0.00000000000E+00  0.18250000000E+03  0.18250000000E+03  0.00000000000E+00 0. -1.
         11   -1    0    0    0    0 -0.00000000000E+00 -0.00000000000E+00 -0.18250000000E+03  0.18250000000E+03  0.00000000000E+00 0.  1.
        -11    1    1    2    0    0  0.27009438655E+01  0.28282644089E+00  0.11172368896E+03  0.11175669002E+03  0.00000000000E+00 0. -1.
         11    1    1    2    0    0 -0.82930604324E+01  0.91381609115E+01 -0.18085319465E+03  0.18127371252E+03  0.00000000000E+00 0.  1.
        -15    1    1    2    0    0  0.98182673287E+01 -0.11814548560E+01  0.27292465730E+02  0.29083167357E+02  0.17770000000E+01 0.  1.
         15    1    1    2    0    0 -0.42261507618E+01 -0.82395324963E+01  0.41837039953E+02  0.42886430104E+02  0.17770000000E+01 0. -1.
</event>
<event>
 6    1  0.1097339E-002  0.1832086E+03  0.7546771E-02  0.1067892E+00
        -11   -1    0    0    0    0  0.00000000000E+00  0.00000000000E+00  0.18250000000E+03  0.18250000000E+03  0.00000000000E+00 0. -1.
         11   -1    0    0    0    0 -0.00000000000E+00 -0.00000000000E+00 -0.18250000000E+03  0.18250000000E+03  0.00000000000E+00 0.  1.
        -11    1    1    2    0    0 -0.62425002775E+01  0.77659393650E+01  0.18151815960E+03  0.18179142138E+03  0.00000000000E+00 0. -1.
         11    1    1    2    0    0  0.12644197657E+01  0.10979454652E+01 -0.73280551991E+02  0.73299683094E+02  0.00000000000E+00 0.  1.
        -15    1    1    2    0    0  0.10795833161E+01  0.57455507819E-01 -0.11732740877E+01  0.23881169060E+01  0.17770000000E+01 0.  1.
         15    1    1    2    0    0  0.38984971957E+01 -0.89213403380E+01 -0.10706433352E+03  0.10752077862E+03  0.17770000000E+01 0.  1.
</event>
<event>
 6    1  0.1097339E-002  0.1841666E+03  0.7546771E-02  0.1067136E+00
        -11   -1    0    0    0    0  0.00000000000E+00  0.00000000000E+00  0.18250000000E+03  0.18250000000E+03  0.00000000000E+00 0. -1.
         11   -1    0    0    0    0 -0.00000000000E+00 -0.00000000000E+00 -0.18250000000E+03  0.18250000000E+03  0.00000000000E+00 0.  1.
        -11    1    1    2    0    0  0.21226909160E+01 -0.50316444384E+01  0.18075091615E+03  0.18083339556E+03  0.00000000000E+00 0. -1.
         11    1    1    2    0    0  0.11373712529E+01 -0.27530398630E+01 -0.15954692784E+03  0.15957473179E+03  0.00000000000E+00 0.  1.
        -15    1    1    2    0    0 -0.46112979155E+01  0.86461919279E+01 -0.15726708654E+02  0.18614719912E+02  0.17770000000E+01 0.  1.
         15    1    1    2    0    0  0.13512357466E+01 -0.86150762647E+00 -0.54772796551E+01  0.59771527380E+01  0.17770000000E+01 0. -1.
</event>
<event>
 6    1  0.1097339E-002  0.1840506E+03  0.7546771E-02  0.1067227E+00
        -11   -1    0    0    0    0  0.00000000000E+00  0.00000000000E+00  0.18250000000E+03  0.18250000000E+03  0.00000000000E+00 0.  1.
         11   -1    0    0    0    0 -0.00000000000E+00 -0.00000000000E+00 -0.18250000000E+03  0.18250000000E+03  0.00000000000E+00 0. -1.
        -11    1    1    2    0    0 -0.40522941851E+01  0.52173593428E+01  0.97742399390E+02  0.97965394733E+02  0.00000000000E+00 0.  1.
         11    1    1    2    0    0 -0.50785040515E+01 -0.41736593903E+01 -0.18082991493E+03  0.18094935416E+03  0.00000000000E+00 0. -1.
        -15    1    1    2    0    0  0.66453822601E+01  0.26177451735E+01  0.80930810012E+01  0.10939350267E+02  0.17770000000E+01 0. -1.
         15    1    1    2    0    0  0.24854159765E+01 -0.36614451260E+01  0.74994434538E+02  0.75145900844E+02  0.17770000000E+01 0.  1.
</event>
<event>
 6    1  0.1097339E-002  0.1859771E+03  0.7546771E-02  0.1065720E+00
        -11   -1    0    0    0    0  0.00000000000E+00  0.00000000000E+00  0.18250000000E+03  0.18250000000E+03  0.00000000000E+00 0. -1.
         11   -1    0    0    0    0 -0.00000000000E+00 -0.00000000000E+00 -0.18250000000E+03  0.18250000000E+03  0.00000000000E+00 0. -1.
        -11    1    1    2    0    0 -0.20645268893E+01  0.31221104808E+01  0.17898377929E+03  0.17902291220E+03  0.00000000000E+00 0. -1.
         11    1    1    2    0    0 -0.24001596989E+01  0.10149826909E+01 -0.16147614571E+03  0.16149717208E+03  0.00000000000E+00 0. -1.
        -15    1    1    2    0    0  0.86088097955E+00  0.48645226306E+01 -0.11389512617E+01  0.53721164788E+01  0.17770000000E+01 0.  1.
         15    1    1    2    0    0  0.36038056087E+01 -0.90016158024E+01 -0.16368682321E+02  0.19107799241E+02  0.17770000000E+01 0. -1.
</event>
<event>
 6    1  0.1097339E-002  0.1827995E+03  0.7546771E-02  0.1068217E+00
        -11   -1    0    0    0    0  0.00000000000E+00  0.00000000000E+00  0.18250000000E+03  0.18250000000E+03  0.00000000000E+00 0.  1.
         11   -1    0    0    0    0 -0.00000000000E+00 -0.00000000000E+00 -0.18250000000E+03  0.18250000000E+03  0.00000000000E+00 0.  1.
        -11    1    1    2    0    0  0.10549098261E+01 -0.33810209869E+01  0.18216607022E+03  0.18220049747E+03  0.00000000000E+00 0.  1.
         11    1    1    2    0    0  0.71195298452E+00  0.26910731118E+01 -0.13227806555E+03  0.13230735194E+03  0.00000000000E+00 0.  1.
        -15    1    1    2    0    0 -0.92727959004E+00 -0.21381595253E+01 -0.38067726101E+02  0.38180375497E+02  0.17770000000E+01 0.  1.
         15    1    1    2    0    0 -0.83958322056E+00  0.28281074005E+01 -0.11820278567E+02  0.12311775090E+02  0.17770000000E+01 0.  1.
</event>
<event>
 6    1  0.1097339E-002  0.1840696E+03  0.7546771E-02  0.1067212E+00
        -11   -1    0    0    0    0  0.00000000000E+00  0.00000000000E+00  0.18250000000E+03  0.18250000000E+03  0.00000000000E+00 0. -1.
         11   -1    0    0    0    0 -0.00000000000E+00 -0.00000000000E+00 -0.18250000000E+03  0.18250000000E+03  0.00000000000E+00 0. -1.
        -11    1    1    2    0    0 -0.29038364150E+01 -0.34289564167E+01  0.18087463132E+03  0.18093043487E+03  0.00000000000E+00 0. -1.
         11    1    1    2    0    0 -0.28006245488E+01 -0.12486752692E+00 -0.16543686488E+03  0.16546061571E+03  0.00000000000E+00 0. -1.
        -15    1    1    2    0    0 -0.13324278248E+01  0.69268911556E+00 -0.19873147138E+01  0.30597926222E+01  0.17770000000E+01 0. -1.
         15    1    1    2    0    0  0.70368887887E+01  0.28611348280E+01 -0.13450451726E+02  0.15549156793E+02  0.17770000000E+01 0. -1.
</event>
<event>
 6    1  0.1097339E-002  0.1829988E+03  0.7546771E-02  0.1068058E+00
        -11   -1    0    0    0    0  0.00000000000E+00  0.00000000000E+00  0.18250000000E+03  0.18250000000E+03  0.00000000000E+00 0.  1.
         11   -1    0    0    0    0 -0.00000000000E+00 -0.00000000000E+00 -0.18250000000E+03  0.18250000000E+03  0.00000000000E+00 0. -1.
        -11    1    1    2    0    0 -0.26485704192E+01 -0.75831640957E+01  0.60632504765E+02  0.61162242740E+02  0.00000000000E+00 0.  1.
         11    1    1    2    0    0 -0.22342994345E+01  0.26608995460E+01 -0.18196801868E+03  0.18200118764E+03  0.00000000000E+00 0. -1.
        -15    1    1    2    0    0  0.19182979335E+00  0.56582624079E+01  0.70188928230E+02  0.70439307970E+02  0.17770000000E+01 0.  1.
         15    1    1    2    0    0  0.46910400604E+01 -0.73599785822E+00  0.51146585681E+02  0.51397261654E+02  0.17770000000E+01 0. -1.
</event>
<event>
 6    1  0.1097339E-002  0.1838722E+03  0.7546771E-02  0.1067368E+00
        -11   -1    0    0    0    0  0.00000000000E+00  0.00000000000E+00  0.18250000000E+03  0.18250000000E+03  0.00000000000E+00 0.  1.
         11   -1    0    0    0    0 -0.00000000000E+00 -0.00000000000E+00 -0.18250000000E+03  0.18250000000E+03  0.00000000000E+00 0. -1.
        -11    1    1    2    0    0  0.49973087166E+01  0.43040633123E+01  0.18100773121E+03  0.18112784660E+03  0.00000000000E+00 0.  1.
         11    1    1    2    0    0  0.14636200749E+01 -0.41873563172E+01 -0.64466519859E+02  0.64618947062E+02  0.00000000000E+00 0. -1.
        -15    1    1    2    0    0  0.60562664095E+01 -0.24709617738E+01 -0.83850028815E+02  0.84123534615E+02  0.17770000000E+01 0. -1.
         15    1    1    2    0    0 -0.12517195201E+02  0.23542547787E+01 -0.32691182534E+02  0.35129671728E+02  0.17770000000E+01 0.  1.
</event>
<event>
 6    1  0.1097339E-002  0.1440945E+03  0.7546771E-02  0.1103943E+00
        -11   -1    0    0    0    0  0.00000000000E+00  0.00000000000E+00  0.18250000000E+03  0.18250000000E+03  0.00000000000E+00 0.  1.
         11   -1    0    0    0    0 -0.00000000000E+00 -0.00000000000E+00 -0.18250000000E+03  0.18250000000E+03  0.00000000000E+00 0. -1.
        -11    1    1    2    0    0 -0.12840321716E+02  0.10037140886E+02  0.14316658502E+03  0.14409125278E+03  0.00000000000E+00 0.  1.
         11    1    1    2    0    0 -0.48405837003E+00 -0.81011867746E+01 -0.14418570939E+03  0.14441392707E+03  0.00000000000E+00 0. -1.
        -15    1    1    2    0    0 -0.17122970465E+02  0.26035359942E+02  0.12384067402E+02  0.33579144410E+02  0.17770000000E+01 0. -1.
         15    1    1    2    0    0  0.30447350551E+02 -0.27971314053E+02 -0.11364943037E+02  0.42915675745E+02  0.17770000000E+01 0.  1.
</event>
<event>
 6    1  0.1097339E-002  0.1841277E+03  0.7546771E-02  0.1067167E+00
        -11   -1    0    0    0    0  0.00000000000E+00  0.00000000000E+00  0.18250000000E+03  0.18250000000E+03  0.00000000000E+00 0.  1.
         11   -1    0    0    0    0 -0.00000000000E+00 -0.00000000000E+00 -0.18250000000E+03  0.18250000000E+03  0.00000000000E+00 0.  1.
        -11    1    1    2    0    0  0.20666527502E+01 -0.12228370343E+01  0.14896622340E+03  0.14898557681E+03  0.00000000000E+00 0.  1.
         11    1    1    2    0    0  0.76581666215E+01 -0.27510190460E+00 -0.18070990168E+03  0.18087230789E+03  0.00000000000E+00 0.  1.
        -15    1    1    2    0    0 -0.17421833417E+01 -0.87299456052E-01  0.17877713223E+00  0.24965004014E+01  0.17770000000E+01 0.  1.
         15    1    1    2    0    0 -0.79826360300E+01  0.15852383950E+01  0.31564901147E+02  0.32645614899E+02  0.17770000000E+01 0. -1.
</event>
<event>
 6    1  0.1097339E-002  0.1838331E+03  0.7546771E-02  0.1067399E+00
        -11   -1    0    0    0    0  0.00000000000E+00  0.00000000000E+00  0.18250000000E+03  0.18250000000E+03  0.00000000000E+00 0. -1.
         11   -1    0    0    0    0 -0.00000000000E+00 -0.00000000000E+00 -0.18250000000E+03  0.18250000000E+03  0.00000000000E+00 0.  1.
        -11    1    1    2    0    0 -0.15245681081E+00  0.37664218164E+01  0.18112765636E+03  0.18116687632E+03  0.00000000000E+00 0. -1.
         11    1    1    2    0    0  0.10270439742E+02  0.18929933802E+01 -0.12015858403E+03  0.12061156940E+03  0.00000000000E+00 0.  1.
        -15    1    1    2    0    0 -0.99407876654E+01 -0.25880225179E+01 -0.25125151497E+02  0.27201986815E+02  0.17770000000E+01 0.  1.
         15    1    1    2    0    0 -0.17719526567E+00 -0.30713926787E+01 -0.35843920832E+02  0.36019567470E+02  0.17770000000E+01 0. -1.
</event>
<event>
 6    1  0.1097339E-002  0.1483397E+03  0.7546771E-02  0.1099453E+00
        -11   -1    0    0    0    0  0.00000000000E+00  0.00000000000E+00  0.18250000000E+03  0.18250000000E+03  0.00000000000E+00 0. -1.
         11   -1    0    0    0    0 -0.00000000000E+00 -0.00000000000E+00 -0.18250000000E+03  0.18250000000E+03  0.00000000000E+00 0.  1.
        -11    1    1    2    0    0  0.30290081562E+01  0.45891292043E+01  0.15533949215E+03  0.15543678078E+03  0.00000000000E+00 0. -1.
         11    1    1    2    0    0  0.12780055793E+02  0.13879562804E+02 -0.14131332543E+03  0.14256727547E+03  0.00000000000E+00 0.  1.
        -15    1    1    2    0    0  0.14074501989E+02 -0.22501593302E+02 -0.23337524954E+02  0.35386595023E+02  0.17770000000E+01 0.  1.
         15    1    1    2    0    0 -0.29883565938E+02  0.40329012932E+01  0.93113582311E+01  0.31609348730E+02  0.17770000000E+01 0. -1.
</event>
<event>
 6    1  0.1097339E-002  0.1633266E+03  0.7546771E-02  0.1084832E+00
        -11   -1    0    0    0    0  0.00000000000E+00  0.00000000000E+00  0.18250000000E+03  0.18250000000E+03  0.00000000000E+00 0.  1.
         11   -1    0    0    0    0 -0.00000000000E+00 -0.00000000000E+00 -0.18250000000E+03  0.18250000000E+03  0.00000000000E+00 0. -1.
        -11    1    1    2    0    0 -0.23795563187E+00 -0.55066766923E+01  0.16257049373E+03  0.16266390363E+03  0.00000000000E+00 0.  1.
         11    1    1    2    0    0  0.20365277833E+01 -0.48359916969E+01 -0.16407761228E+03  0.16416149705E+03  0.00000000000E+00 0. -1.
        -15    1    1    2    0    0 -0.23507757423E+01  0.72374883769E+01 -0.17320717806E+02  0.19001904612E+02  0.17770000000E+01 0.  1.
         15    1    1    2    0    0  0.55220359088E+00  0.31051800123E+01  0.18827836357E+02  0.19172694714E+02  0.17770000000E+01 0. -1.
</event>
<event>
 6    1  0.1097339E-002  0.1840862E+03  0.7546771E-02  0.1067199E+00
        -11   -1    0    0    0    0  0.00000000000E+00  0.00000000000E+00  0.18250000000E+03  0.18250000000E+03  0.00000000000E+00 0.  1.
         11   -1    0    0    0    0 -0.00000000000E+00 -0.00000000000E+00 -0.18250000000E+03  0.18250000000E+03  0.00000000000E+00 0. -1.
        -11    1    1    2    0    0  0.35317722953E+01  0.32764257077E+01  0.18084964902E+03  0.18091380249E+03  0.00000000000E+00 0.  1.
         11    1    1    2    0    0 -0.94631085330E+01 -0.30183214354E+00 -0.10227350251E+03  0.10271081171E+03  0.00000000000E+00 0. -1.
        -15    1    1    2    0    0 -0.71908222547E+01 -0.20599437554E+00 -0.22424114572E+02  0.23616710222E+02  0.17770000000E+01 0.  1.
         15    1    1    2    0    0  0.13122158492E+02 -0.27685991886E+01 -0.56152031938E+02  0.57758675580E+02  0.17770000000E+01 0. -1.
</event>
<event>
 6    1  0.1097339E-002  0.1827337E+03  0.7546771E-02  0.1068269E+00
        -11   -1    0    0    0    0  0.00000000000E+00  0.00000000000E+00  0.18250000000E+03  0.18250000000E+03  0.00000000000E+00 0. -1.
         11   -1    0    0    0    0 -0.00000000000E+00 -0.00000000000E+00 -0.18250000000E+03  0.18250000000E+03  0.00000000000E+00 0.  1.
        -11    1    1    2    0    0  0.88408129815E+00 -0.67189329088E+00  0.81771346089E+02  0.81778885304E+02  0.00000000000E+00 0. -1.
         11    1    1    2    0    0  0.32297895112E+01  0.22860572857E+00 -0.18223755865E+03  0.18226632049E+03  0.00000000000E+00 0.  1.
        -15    1    1    2    0    0  0.21531128042E+01  0.85965589335E+00  0.47169872525E+02  0.47260231760E+02  0.17770000000E+01 0. -1.
         15    1    1    2    0    0 -0.62669836135E+01 -0.41636833104E+00  0.53296340037E+02  0.53694562449E+02  0.17770000000E+01 0. -1.
</event>
<event>
 6    1  0.1097339E-002  0.1786787E+03  0.7546771E-02  0.1071538E+00
        -11   -1    0    0    0    0  0.00000000000E+00  0.00000000000E+00  0.18250000000E+03  0.18250000000E+03  0.00000000000E+00 0.  1.
         11   -1    0    0    0    0 -0.00000000000E+00 -0.00000000000E+00 -0.18250000000E+03  0.18250000000E+03  0.00000000000E+00 0. -1.
        -11    1    1    2    0    0 -0.16731149096E+01  0.26162235543E+01  0.17743126523E+03  0.17745843970E+03  0.00000000000E+00 0.  1.
         11    1    1    2    0    0 -0.30790251200E+01  0.38041142674E+00 -0.17992502328E+03  0.17995176885E+03  0.00000000000E+00 0. -1.
        -15    1    1    2    0    0  0.30079816903E+01 -0.16734750732E+01  0.74497867575E-01  0.38745001745E+01  0.17770000000E+01 0.  1.
         15    1    1    2    0    0  0.17441583393E+01 -0.13231599078E+01  0.24192601870E+01  0.37152912815E+01  0.17770000000E+01 0. -1.
</event>
<event>
 6    1  0.1097339E-002  0.1783736E+03  0.7546771E-02  0.1071788E+00
        -11   -1    0    0    0    0  0.00000000000E+00  0.00000000000E+00  0.18250000000E+03  0.18250000000E+03  0.00000000000E+00 0. -1.
         11   -1    0    0    0    0 -0.00000000000E+00 -0.00000000000E+00 -0.18250000000E+03  0.18250000000E+03  0.00000000000E+00 0. -1.
        -11    1    1    2    0    0 -0.29878245404E+01 -0.18818825632E+01  0.17945519030E+03  0.17948992702E+03  0.00000000000E+00 0. -1.
         11    1    1    2    0    0  0.14194033779E+01 -0.39299344906E+01 -0.17726555388E+03  0.17731479263E+03  0.00000000000E+00 0. -1.
        -15    1    1    2    0    0  0.20675162817E+01  0.22056550239E+01  0.16314365254E+00  0.35105387779E+01  0.17770000000E+01 0. -1.
         15    1    1    2    0    0 -0.49909511926E+00  0.36061620298E+01 -0.23527800710E+01  0.46847415709E+01  0.17770000000E+01 0.  1.
</event>
<event>
 6    1  0.1097339E-002  0.1831229E+03  0.7546771E-02  0.1067960E+00
        -11   -1    0    0    0    0  0.00000000000E+00  0.00000000000E+00  0.18250000000E+03  0.18250000000E+03  0.00000000000E+00 0. -1.
         11   -1    0    0    0    0 -0.00000000000E+00 -0.00000000000E+00 -0.18250000000E+03  0.18250000000E+03  0.00000000000E+00 0.  1.
        -11    1    1    2    0    0 -0.71100305887E+00 -0.18797520698E+01  0.12138812353E+03  0.12140475908E+03  0.00000000000E+00 0. -1.
         11    1    1    2    0    0  0.18918261055E+00  0.25060611823E+01 -0.18185977691E+03  0.18187714147E+03  0.00000000000E+00 0.  1.
        -15    1    1    2    0    0  0.17580497889E+01 -0.93416021026E+00  0.59049547668E+02  0.59109814778E+02  0.17770000000E+01 0. -1.
         15    1    1    2    0    0 -0.12362293405E+01  0.30785109779E+00  0.14221057068E+01  0.26082846705E+01  0.17770000000E+01 0.  1.
</event>
<event>
 6    1  0.1097339E-002  0.1880821E+03  0.7546771E-02  0.1064096E+00
        -11   -1    0    0    0    0  0.00000000000E+00  0.00000000000E+00  0.18250000000E+03  0.18250000000E+03  0.00000000000E+00 0.  1.
         11   -1    0    0    0    0 -0.00000000000E+00 -0.00000000000E+00 -0.18250000000E+03  0.18250000000E+03  0.00000000000E+00 0.  1.
        -11    1    1    2    0    0  0.40867007664E+01  0.11516012905E+01  0.16268075467E+03  0.16273615225E+03  0.00000000000E+00 0.  1.
         11    1    1    2    0    0 -0.94306758700E+01  0.27193258527E+01 -0.17664545417E+03  0.17691791560E+03  0.00000000000E+00 0.  1.
        -15    1    1    2    0    0  0.33392591564E+01 -0.15248567215E+01 -0.47699679948E+01  0.62758396574E+01  0.17770000000E+01 0.  1.
         15    1    1    2    0    0  0.20047159472E+01 -0.23460704218E+01  0.18734667494E+02  0.19070092490E+02  0.17770000000E+01 0.  1.
</event>
<event>
 6    1  0.1097339E-002  0.1913072E+03  0.7546771E-02  0.1061653E+00
        -11   -1    0    0    0    0  0.00000000000E+00  0.00000000000E+00  0.18250000000E+03  0.18250000000E+03  0.00000000000E+00 0. -1.
         11   -1    0    0    0    0 -0.00000000000E+00 -0.00000000000E+00 -0.18250000000E+03  0.18250000000E+03  0.00000000000E+00 0.  1.
        -11    1    1    2    0    0  0.88749148513E+01 -0.11107846898E+02  0.17310995455E+03  0.17369284597E+03  0.00000000000E+00 0. -1.
         11    1    1    2    0    0 -0.12531683734E+01  0.35325513522E+01 -0.16669398843E+03  0.16673612424E+03  0.00000000000E+00 0.  1.
        -15    1    1    2    0    0  0.55269349525E+01 -0.24353477071E+00 -0.70762120882E+01  0.91562451731E+01  0.17770000000E+01 0. -1.
         15    1    1    2    0    0 -0.13148681430E+02  0.78188303166E+01  0.66024596368E+00  0.15414784611E+02  0.17770000000E+01 0.  1.
</event>
<event>
 6    1  0.1097339E-002  0.1955656E+03  0.7546771E-02  0.1058505E+00
        -11   -1    0    0    0    0  0.00000000000E+00  0.00000000000E+00  0.18250000000E+03  0.18250000000E+03  0.00000000000E+00 0. -1.
         11   -1    0    0    0    0 -0.00000000000E+00 -0.00000000000E+00 -0.18250000000E+03  0.18250000000E+03  0.00000000000E+00 0. -1.
        -11    1    1    2    0    0  0.13453382491E+00  0.36854922112E+01  0.16939421971E+03  0.16943436081E+03  0.00000000000E+00 0. -1.
         11    1    1    2    0    0 -0.15781289679E+02  0.76973309906E+01 -0.13259200943E+03  0.13374953822E+03  0.00000000000E+00 0. -1.
        -15    1    1    2    0    0  0.13370949936E+01 -0.52135689786E+01  0.10526985465E+02  0.11955930599E+02  0.17770000000E+01 0. -1.
         15    1    1    2    0    0  0.14309660860E+02 -0.61692542233E+01 -0.47329195736E+02  0.49860170373E+02  0.17770000000E+01 0.  1.
</event>
<event>
 6    1  0.1097339E-002  0.1855710E+03  0.7546771E-02  0.1066036E+00
        -11   -1    0    0    0    0  0.00000000000E+00  0.00000000000E+00  0.18250000000E+03  0.18250000000E+03  0.00000000000E+00 0. -1.
         11   -1    0    0    0    0 -0.00000000000E+00 -0.00000000000E+00 -0.18250000000E+03  0.18250000000E+03  0.00000000000E+00 0.  1.
        -11    1    1    2    0    0 -0.49290300079E+01  0.46462209564E+00  0.17936072297E+03  0.17942903933E+03  0.00000000000E+00 0. -1.
         11    1    1    2    0    0 -0.18396507153E+01  0.22549009345E+01 -0.15991901823E+03  0.15994549473E+03  0.00000000000E+00 0.  1.
        -15    1    1    2    0    0  0.58700806061E+00 -0.13615347209E+01 -0.18887035885E+02  0.19028300207E+02  0.17770000000E+01 0.  1.
         15    1    1    2    0    0  0.61816726626E+01 -0.13579883093E+01 -0.55466885142E+00  0.65971657316E+01  0.17770000000E+01 0.  1.
</event>
<event>
 6    1  0.1097339E-002  0.1870380E+03  0.7546771E-02  0.1064899E+00
        -11   -1    0    0    0    0  0.00000000000E+00  0.00000000000E+00  0.18250000000E+03  0.18250000000E+03  0.00000000000E+00 0.  1.
         11   -1    0    0    0    0 -0.00000000000E+00 -0.00000000000E+00 -0.18250000000E+03  0.18250000000E+03  0.00000000000E+00 0.  1.
        -11    1    1    2    0    0 -0.59004696367E+00 -0.10650902527E+02  0.17764202483E+03  0.17796201523E+03  0.00000000000E+00 0.  1.
         11    1    1    2    0    0 -0.19783193223E+01  0.42924362495E+00 -0.14871455993E+03  0.14872833736E+03  0.00000000000E+00 0.  1.
        -15    1    1    2    0    0 -0.25432668967E+01 -0.28214447240E+01 -0.22335148582E+02  0.22725433946E+02  0.17770000000E+01 0.  1.
         15    1    1    2    0    0  0.51116331826E+01  0.13043103626E+02 -0.65923163098E+01  0.15584213465E+02  0.17770000000E+01 0. -1.
</event>
<event>
 6    1  0.1097339E-002  0.1897759E+03  0.7546771E-02  0.1062806E+00
        -11   -1    0    0    0    0  0.00000000000E+00  0.00000000000E+00  0.18250000000E+03  0.18250000000E+03  0.00000000000E+00 0.  1.
         11   -1    0    0    0    0 -0.00000000000E+00 -0.00000000000E+00 -0.18250000000E+03  0.18250000000E+03  0.00000000000E+00 0. -1.
        -11    1    1    2    0    0  0.10610932001E+01 -0.23746217636E+01  0.17520475891E+03  0.17522406311E+03  0.00000000000E+00 0.  1.
         11    1    1    2    0    0  0.22527222334E+01 -0.26012378092E+01 -0.16637711730E+03  0.16641269891E+03  0.00000000000E+00 0. -1.
        -15    1    1    2    0    0 -0.43745626584E+01 -0.29240037272E+01  0.48893454548E+01  0.73993259305E+01  0.17770000000E+01 0.  1.
         15    1    1    2    0    0  0.10607472249E+01  0.78998632999E+01 -0.13716987066E+02  0.15963912052E+02  0.17770000000E+01 0. -1.
</event>
<event>
 6    1  0.1097339E-002  0.1835576E+03  0.7546771E-02  0.1067616E+00
        -11   -1    0    0    0    0  0.00000000000E+00  0.00000000000E+00  0.18250000000E+03  0.18250000000E+03  0.00000000000E+00 0.  1.
         11   -1    0    0    0    0 -0.00000000000E+00 -0.00000000000E+00 -0.18250000000E+03  0.18250000000E+03  0.00000000000E+00 0.  1.
        -11    1    1    2    0    0  0.21625517604E+01  0.32753078952E+01  0.18139992078E+03  0.18144237524E+03  0.00000000000E+00 0.  1.
         11    1    1    2    0    0  0.23865333819E+01 -0.95508620368E+01 -0.12407699484E+03  0.12446692394E+03  0.00000000000E+00 0.  1.
        -15    1    1    2    0    0 -0.14059663501E+01  0.84930201031E+01 -0.48653796864E+02  0.49441458414E+02  0.17770000000E+01 0. -1.
         15    1    1    2    0    0 -0.31431187922E+01 -0.22174659615E+01 -0.86691290783E+01  0.96492424059E+01  0.17770000000E+01 0.  1.
</event>
<event>
 6    1  0.1097339E-002  0.1958352E+03  0.7546771E-02  0.1058309E+00
        -11   -1    0    0    0    0  0.00000000000E+00  0.00000000000E+00  0.18250000000E+03  0.18250000000E+03  0.00000000000E+00 0.  1.
         11   -1    0    0    0    0 -0.00000000000E+00 -0.00000000000E+00 -0.18250000000E+03  0.18250000000E+03  0.00000000000E+00 0.  1.
        -11    1    1    2    0    0 -0.88346288666E+01  0.76087466426E+01  0.16079572767E+03  0.16121789519E+03  0.00000000000E+00 0.  1.
         11    1    1    2    0    0  0.19378233852E+01 -0.43017581618E+01 -0.16909900492E+03  0.16916481238E+03  0.00000000000E+00 0.  1.
        -15    1    1    2    0    0  0.20594940311E+01 -0.51165902095E+01 -0.12142615338E+02  0.13454435970E+02  0.17770000000E+01 0. -1.
         15    1    1    2    0    0  0.48373114503E+01  0.18096017287E+01  0.20445892590E+02  0.21162856453E+02  0.17770000000E+01 0.  1.
</event>
<event>
 6    1  0.1097339E-002  0.1836273E+03  0.7546771E-02  0.1067561E+00
        -11   -1    0    0    0    0  0.00000000000E+00  0.00000000000E+00  0.18250000000E+03  0.18250000000E+03  0.00000000000E+00 0. -1.
         11   -1    0    0    0    0 -0.00000000000E+00 -0.00000000000E+00 -0.18250000000E+03  0.18250000000E+03  0.00000000000E+00 0.  1.
        -11    1    1    2    0    0  0.93851826995E+00  0.28577881788E+01  0.14888378493E+03  0.14891416717E+03  0.00000000000E+00 0. -1.
         11    1    1    2    0    0 -0.39683068833E+00  0.24816560333E+01 -0.18135531440E+03  0.18137272714E+03  0.00000000000E+00 0.  1.
        -15    1    1    2    0    0  0.17933976438E+01  0.15663810639E+00  0.11513170853E+01  0.27792212283E+01  0.17770000000E+01 0.  1.
         15    1    1    2    0    0 -0.23350852254E+01 -0.54960823185E+01  0.31320212384E+02  0.31933884459E+02  0.17770000000E+01 0. -1.
</event>
<event>
 6    1  0.1097339E-002  0.1907633E+03  0.7546771E-02  0.1062061E+00
        -11   -1    0    0    0    0  0.00000000000E+00  0.00000000000E+00  0.18250000000E+03  0.18250000000E+03  0.00000000000E+00 0. -1.
         11   -1    0    0    0    0 -0.00000000000E+00 -0.00000000000E+00 -0.18250000000E+03  0.18250000000E+03  0.00000000000E+00 0.  1.
        -11    1    1    2    0    0 -0.38285429010E+00  0.14822492070E+02  0.17360462972E+03  0.17423667900E+03  0.00000000000E+00 0. -1.
         11    1    1    2    0    0  0.66205164336E+01 -0.58298875789E+00 -0.15100188631E+03  0.15114807569E+03  0.00000000000E+00 0.  1.
        -15    1    1    2    0    0  0.41666353765E+01 -0.95457018833E+01  0.34512041087E+01  0.11115296380E+02  0.17770000000E+01 0.  1.
         15    1    1    2    0    0 -0.10404297520E+02 -0.46938014288E+01 -0.26053947520E+02  0.28499948932E+02  0.17770000000E+01 0. -1.
</event>
<event>
 6    1  0.1097339E-002  0.1835198E+03  0.7546771E-02  0.1067646E+00
        -11   -1    0    0    0    0  0.00000000000E+00  0.00000000000E+00  0.18250000000E+03  0.18250000000E+03  0.00000000000E+00 0. -1.
         11   -1    0    0    0    0 -0.00000000000E+00 -0.00000000000E+00 -0.18250000000E+03  0.18250000000E+03  0.00000000000E+00 0.  1.
        -11    1    1    2    0    0 -0.35504690809E+01  0.79826331221E+00  0.18144374859E+03  0.18148023848E+03  0.00000000000E+00 0. -1.
         11    1    1    2    0    0  0.19633195878E+01 -0.93605056484E+00 -0.15258744714E+03  0.15260294833E+03  0.00000000000E+00 0.  1.
        -15    1    1    2    0    0  0.41387966123E+00  0.25478204646E+01 -0.27044756159E+02  0.27225709360E+02  0.17770000000E+01 0. -1.
         15    1    1    2    0    0  0.11732698318E+01 -0.24100332119E+01 -0.18115452961E+01  0.36911038377E+01  0.17770000000E+01 0.  1.
</event>
<event>
 6    1  0.1097339E-002  0.1831024E+03  0.7546771E-02  0.1067976E+00
        -11   -1    0    0    0    0  0.00000000000E+00  0.00000000000E+00  0.18250000000E+03  0.18250000000E+03  0.00000000000E+00 0.  1.
         11   -1    0    0    0    0 -0.00000000000E+00 -0.00000000000E+00 -0.18250000000E+03  0.18250000000E+03  0.00000000000E+00 0.  1.
        -11    1    1    2    0    0  0.41182687501E+01 -0.39269942521E-01  0.18185099944E+03  0.18189762966E+03  0.00000000000E+00 0.  1.
         11    1    1    2    0    0 -0.14735654237E+01  0.35455711873E+01 -0.12549675810E+03  0.12555548082E+03  0.00000000000E+00 0.  1.
        -15    1    1    2    0    0 -0.54026200494E+01 -0.25493352994E+01 -0.49469639401E+02  0.49860709636E+02  0.17770000000E+01 0.  1.
         15    1    1    2    0    0  0.27579167230E+01 -0.95696594535E+00 -0.68846019380E+01  0.76861798910E+01  0.17770000000E+01 0.  1.
</event>
<event>
 6    1  0.1097339E-002  0.1826239E+03  0.7546771E-02  0.1068356E+00
        -11   -1    0    0    0    0  0.00000000000E+00  0.00000000000E+00  0.18250000000E+03  0.18250000000E+03  0.00000000000E+00 0.  1.
         11   -1    0    0    0    0 -0.00000000000E+00 -0.00000000000E+00 -0.18250000000E+03  0.18250000000E+03  0.00000000000E+00 0.  1.
        -11    1    1    2    0    0  0.30003549712E+01  0.13183516558E+01  0.18234670058E+03  0.18237614810E+03  0.00000000000E+00 0.  1.
         11    1    1    2    0    0  0.47280048746E+00  0.15264926633E+01 -0.11379050884E+03  0.11380172943E+03  0.00000000000E+00 0.  1.
        -15    1    1    2    0    0 -0.14654838887E+01 -0.23844894599E+01 -0.39473628363E+02  0.39612605294E+02  0.17770000000E+01 0. -1.
         15    1    1    2    0    0 -0.20076715700E+01 -0.46035485918E+00 -0.29082563386E+02  0.29209517179E+02  0.17770000000E+01 0.  1.
</event>
<event>
 6    1  0.1097339E-002  0.1938454E+03  0.7546771E-02  0.1059766E+00
        -11   -1    0    0    0    0  0.00000000000E+00  0.00000000000E+00  0.18250000000E+03  0.18250000000E+03  0.00000000000E+00 0.  1.
         11   -1    0    0    0    0 -0.00000000000E+00 -0.00000000000E+00 -0.18250000000E+03  0.18250000000E+03  0.00000000000E+00 0.  1.
        -11    1    1    2    0    0 -0.33758452297E+02 -0.52730376001E+01  0.88427764183E+02  0.94799301186E+02  0.00000000000E+00 0.  1.
         11    1    1    2    0    0  0.25027190074E+01 -0.11489599693E+01 -0.17113242078E+03  0.17115457678E+03  0.00000000000E+00 0.  1.
        -15    1    1    2    0    0 -0.17941182052E+01  0.33019028035E+01 -0.42550240914E+01  0.59484772232E+01  0.17770000000E+01 0. -1.
         15    1    1    2    0    0  0.33049851494E+02  0.31200947659E+01  0.86959680687E+02  0.93097644810E+02  0.17770000000E+01 0.  1.
</event>
<event>
 6    1  0.1097339E-002  0.1826485E+03  0.7546771E-02  0.1068337E+00
        -11   -1    0    0    0    0  0.00000000000E+00  0.00000000000E+00  0.18250000000E+03  0.18250000000E+03  0.00000000000E+00 0.  1.
         11   -1    0    0    0    0 -0.00000000000E+00 -0.00000000000E+00 -0.18250000000E+03  0.18250000000E+03  0.00000000000E+00 0.  1.
        -11    1    1    2    0    0 -0.13015320185E+01 -0.36455673443E+01  0.18231038677E+03  0.18235147730E+03  0.00000000000E+00 0.  1.
         11    1    1    2    0    0  0.71352786618E+00 -0.14323975003E+00 -0.35277160429E+02  0.35284666466E+02  0.00000000000E+00 0.  1.
        -15    1    1    2    0    0 -0.35456676862E+01  0.64503910523E-01 -0.67500538965E+02  0.67616983145E+02  0.17770000000E+01 0.  1.
         15    1    1    2    0    0  0.41336718385E+01  0.37243031838E+01 -0.79532687380E+02  0.79746873092E+02  0.17770000000E+01 0. -1.
</event>
<event>
 6    1  0.1097339E-002  0.1836200E+03  0.7546771E-02  0.1067567E+00
        -11   -1    0    0    0    0  0.00000000000E+00  0.00000000000E+00  0.18250000000E+03  0.18250000000E+03  0.00000000000E+00 0.  1.
         11   -1    0    0    0    0 -0.00000000000E+00 -0.00000000000E+00 -0.18250000000E+03  0.18250000000E+03  0.00000000000E+00 0.  1.
        -11    1    1    2    0    0  0.36294888257E+01 -0.50229409943E+01  0.18127407419E+03  0.18137996885E+03  0.00000000000E+00 0.  1.
         11    1    1    2    0    0 -0.22948124298E+01  0.78086534458E-01 -0.14812896940E+03  0.14814676451E+03  0.00000000000E+00 0.  1.
        -15    1    1    2    0    0 -0.19392837544E+01  0.46595571468E+01 -0.51916766220E+01  0.74554362335E+01  0.17770000000E+01 0. -1.
         15    1    1    2    0    0  0.60460735856E+00  0.28529731303E+00 -0.27953428176E+02  0.28017830401E+02  0.17770000000E+01 0. -1.
</event>
<event>
 6    1  0.1097339E-002  0.1664910E+03  0.7546771E-02  0.1081964E+00
        -11   -1    0    0    0    0  0.00000000000E+00  0.00000000000E+00  0.18250000000E+03  0.18250000000E+03  0.00000000000E+00 0.  1.
         11   -1    0    0    0    0 -0.00000000000E+00 -0.00000000000E+00 -0.18250000000E+03  0.18250000000E+03  0.00000000000E+00 0.  1.
        -11    1    1    2    0    0  0.49681655611E+01 -0.88973931857E+00  0.16455376610E+03  0.16463115210E+03  0.00000000000E+00 0.  1.
         11    1    1    2    0    0  0.12649882857E+02  0.13879628542E+01 -0.16835832346E+03  0.16883859468E+03  0.00000000000E+00 0.  1.
        -15    1    1    2    0    0  0.52941894177E+00  0.81348246114E+01  0.72623144149E+01  0.11061401156E+02  0.17770000000E+01 0.  1.
         15    1    1    2    0    0 -0.18147467359E+02 -0.86330481471E+01 -0.34577570556E+01  0.20468852062E+02  0.17770000000E+01 0. -1.
</event>
<event>
 6    1  0.1097339E-002  0.1835464E+03  0.7546771E-02  0.1067625E+00
        -11   -1    0    0    0    0  0.00000000000E+00  0.00000000000E+00  0.18250000000E+03  0.18250000000E+03  0.00000000000E+00 0.  1.
         11   -1    0    0    0    0 -0.00000000000E+00 -0.00000000000E+00 -0.18250000000E+03  0.18250000000E+03  0.00000000000E+00 0. -1.
        -11    1    1    2    0    0  0.19394904060E+01  0.48181230138E+01  0.16572706619E+03  0.16580843284E+03  0.00000000000E+00 0.  1.
         11    1    1    2    0    0  0.21323563738E+01 -0.25252025984E+01 -0.18142348443E+03  0.18145358717E+03  0.00000000000E+00 0. -1.
        -15    1    1    2    0    0 -0.49289131320E+01 -0.43151815354E-01  0.10701305216E+02  0.11915188168E+02  0.17770000000E+01 0.  1.
         15    1    1    2    0    0  0.85706635219E+00 -0.22497686001E+01  0.49951130291E+01  0.58227918269E+01  0.17770000000E+01 0. -1.
</event>
<event>
 6    1  0.1097339E-002  0.1554258E+03  0.7546771E-02  0.1092314E+00
        -11   -1    0    0    0    0  0.00000000000E+00  0.00000000000E+00  0.18250000000E+03  0.18250000000E+03  0.00000000000E+00 0.  1.
         11   -1    0    0    0    0 -0.00000000000E+00 -0.00000000000E+00 -0.18250000000E+03  0.18250000000E+03  0.00000000000E+00 0.  1.
        -11    1    1    2    0    0 -0.39417510182E+01  0.47810131898E+01  0.62410838198E+02  0.62717686602E+02  0.00000000000E+00 0.  1.
         11    1    1    2    0    0  0.39788253101E+01 -0.28949689507E+01 -0.17296495007E+03  0.17303492668E+03  0.00000000000E+00 0.  1.
        -15    1    1    2    0    0 -0.13409433466E+02 -0.31562785014E+02  0.55359066400E+02  0.65144502956E+02  0.17770000000E+01 0. -1.
         15    1    1    2    0    0  0.13372359174E+02  0.29676740775E+02  0.55195045476E+02  0.64102883765E+02  0.17770000000E+01 0.  1.
</event>
<event>
 6    1  0.1097339E-002  0.1883040E+03  0.7546771E-02  0.1063926E+00
        -11   -1    0    0    0    0  0.00000000000E+00  0.00000000000E+00  0.18250000000E+03  0.18250000000E+03  0.00000000000E+00 0. -1.
         11   -1    0    0    0    0 -0.00000000000E+00 -0.00000000000E+00 -0.18250000000E+03  0.18250000000E+03  0.00000000000E+00 0. -1.
        -11    1    1    2    0    0 -0.12805460944E+02 -0.70841040004E+01  0.16117277479E+03  0.16183580473E+03  0.00000000000E+00 0. -1.
         11    1    1    2    0    0  0.13564844049E+01 -0.21820133459E+01 -0.17667728621E+03  0.17669596683E+03  0.00000000000E+00 0. -1.
        -15    1    1    2    0    0  0.62519418165E+01  0.10267958541E+02  0.26275041887E+01  0.12432990643E+02  0.17770000000E+01 0. -1.
         15    1    1    2    0    0  0.51970347222E+01 -0.10018411948E+01  0.12877007234E+02  0.14035237796E+02  0.17770000000E+01 0.  1.
</event>
<event>
 6    1  0.1097339E-002  0.1920654E+03  0.7546771E-02  0.1061086E+00
        -11   -1    0    0    0    0  0.00000000000E+00  0.00000000000E+00  0.18250000000E+03  0.18250000000E+03  0.00000000000E+00 0. -1.
         11   -1    0    0    0    0 -0.00000000000E+00 -0.00000000000E+00 -0.18250000000E+03  0.18250000000E+03  0.00000000000E+00 0. -1.
        -11    1    1    2    0    0 -0.19283908714E+02  0.83490024105E+01  0.17165310588E+03  0.17293456490E+03  0.00000000000E+00 0. -1.
         11    1    1    2    0    0  0.19413178625E+01 -0.15275043782E+01 -0.14889101924E+03  0.14891150928E+03  0.00000000000E+00 0. -1.
        -15    1    1    2    0    0 -0.72636874736E+01  0.49093353363E+01 -0.29899370287E+01  0.94318705247E+01  0.17770000000E+01 0.  1.
         15    1    1    2    0    0  0.24606278325E+02 -0.11730833369E+02 -0.19772149612E+02  0.33722055302E+02  0.17770000000E+01 0. -1.
</event>
<event>
 6    1  0.1097339E-002  0.1977584E+03  0.7546771E-02  0.1056919E+00
        -11   -1    0    0    0    0  0.00000000000E+00  0.00000000000E+00  0.18250000000E+03  0.18250000000E+03  0.00000000000E+00 0.  1.
         11   -1    0    0    0    0 -0.00000000000E+00 -0.00000000000E+00 -0.18250000000E+03  0.18250000000E+03  0.00000000000E+00 0.  1.
        -11    1    1    2    0    0 -0.19120439034E+01 -0.20225816584E+01  0.16721842607E+03  0.16724158803E+03  0.00000000000E+00 0.  1.
         11    1    1    2    0    0  0.37768104494E+01  0.17666985878E+01 -0.11968076392E+03  0.11975337479E+03  0.00000000000E+00 0.  1.
        -15    1    1    2    0    0 -0.32271735521E+01 -0.62449713019E+01  0.14169036491E+02  0.15916458142E+02  0.17770000000E+01 0. -1.
         15    1    1    2    0    0  0.13624070060E+01  0.65008543725E+01 -0.61706698649E+02  0.62088579043E+02  0.17770000000E+01 0.  1.
</event>
<event>
 6    1  0.1097339E-002  0.1767762E+03  0.7546771E-02  0.1073104E+00
        -11   -1    0    0    0    0  0.00000000000E+00  0.00000000000E+00  0.18250000000E+03  0.18250000000E+03  0.00000000000E+00 0.  1.
         11   -1    0    0    0    0 -0.00000000000E+00 -0.00000000000E+00 -0.18250000000E+03  0.18250000000E+03  0.00000000000E+00 0. -1.
        -11    1    1    2    0    0  0.44508179024E-01  0.40569789181E+01  0.17586521318E+03  0.17591200717E+03  0.00000000000E+00 0.  1.
         11    1    1    2    0    0 -0.10630794001E+01  0.40626846142E+01 -0.17769019963E+03  0.17773981712E+03  0.00000000000E+00 0. -1.
        -15    1    1    2    0    0  0.16364585044E+01 -0.21926634577E+01  0.36226211556E+01  0.48751289740E+01  0.17770000000E+01 0.  1.
         15    1    1    2    0    0 -0.61788728332E+00 -0.59270000746E+01 -0.17976346997E+01  0.64730467396E+01  0.17770000000E+01 0. -1.
</event>
<event>
 6    1  0.1097339E-002  0.1867012E+03  0.7546771E-02  0.1065159E+00
        -11   -1    0    0    0    0  0.00000000000E+00  0.00000000000E+00  0.18250000000E+03  0.18250000000E+03  0.00000000000E+00 0.  1.
         11   -1    0    0    0    0 -0.00000000000E+00 -0.00000000000E+00 -0.18250000000E+03  0.18250000000E+03  0.00000000000E+00 0. -1.
        -11    1    1    2    0    0 -0.23056878771E+00  0.28485027027E+01  0.11345037960E+03  0.11348636817E+03  0.00000000000E+00 0.  1.
         11    1    1    2    0    0 -0.12804507363E+02  0.80352806811E+01 -0.17765682912E+03  0.17829882242E+03  0.00000000000E+00 0. -1.
        -15    1    1    2    0    0  0.14305963188E+02 -0.99379125435E+01  0.12644119163E+02  0.21597550020E+02  0.17770000000E+01 0. -1.
         15    1    1    2    0    0 -0.12708870374E+01 -0.94587084023E+00  0.51562330357E+02  0.51617259384E+02  0.17770000000E+01 0.  1.
</event>
<event>
 6    1  0.1097339E-002  0.1834490E+03  0.7546771E-02  0.1067702E+00
        -11   -1    0    0    0    0  0.00000000000E+00  0.00000000000E+00  0.18250000000E+03  0.18250000000E+03  0.00000000000E+00 0. -1.
         11   -1    0    0    0    0 -0.00000000000E+00 -0.00000000000E+00 -0.18250000000E+03  0.18250000000E+03  0.00000000000E+00 0.  1.
        -11    1    1    2    0    0  0.14339852092E+01 -0.37815722178E+01  0.18150593755E+03  0.18155098999E+03  0.00000000000E+00 0. -1.
         11    1    1    2    0    0  0.55253709428E+01  0.58268289685E+00 -0.12529857308E+03  0.12542169533E+03  0.00000000000E+00 0.  1.
        -15    1    1    2    0    0  0.37458793636E+00  0.17775398408E+01 -0.18827151418E+01  0.31626427735E+01  0.17770000000E+01 0. -1.
         15    1    1    2    0    0 -0.73339440884E+01  0.14213494801E+01 -0.54324649320E+02  0.54864671902E+02  0.17770000000E+01 0.  1.
</event>
<event>
 6    1  0.1097339E-002  0.1863626E+03  0.7546771E-02  0.1065421E+00
        -11   -1    0    0    0    0  0.00000000000E+00  0.00000000000E+00  0.18250000000E+03  0.18250000000E+03  0.00000000000E+00 0.  1.
         11   -1    0    0    0    0 -0.00000000000E+00 -0.00000000000E+00 -0.18250000000E+03  0.18250000000E+03  0.00000000000E+00 0. -1.
        -11    1    1    2    0    0 -0.83883117134E+00 -0.52648334210E+01  0.13882347897E+03  0.13892580905E+03  0.00000000000E+00 0.  1.
         11    1    1    2    0    0 -0.72308884248E+01  0.54226583085E+01 -0.17840859147E+03  0.17863738825E+03  0.00000000000E+00 0. -1.
        -15    1    1    2    0    0 -0.81475567671E+01  0.41673327641E+00  0.21549282563E+02  0.23110293289E+02  0.17770000000E+01 0. -1.
         15    1    1    2    0    0  0.16217276363E+02 -0.57455816394E+00  0.18035829937E+02  0.24326509414E+02  0.17770000000E+01 0.  1.
</event>
<event>
 6    1  0.1097339E-002  0.1829134E+03  0.7546771E-02  0.1068126E+00
        -11   -1    0    0    0    0  0.00000000000E+00  0.00000000000E+00  0.18250000000E+03  0.18250000000E+03  0.00000000000E+00 0.  1.
         11   -1    0    0    0    0 -0.00000000000E+00 -0.00000000000E+00 -0.18250000000E+03  0.18250000000E+03  0.00000000000E+00 0.  1.
        -11    1    1    2    0    0 -0.63747159411E+00 -0.14058693419E+00  0.33253523955E+02  0.33259930700E+02  0.00000000000E+00 0.  1.
         11    1    1    2    0    0 -0.64531409228E+00  0.54277395376E+01 -0.18200450931E+03  0.18208656786E+03  0.00000000000E+00 0.  1.
        -15    1    1    2    0    0  0.41692141218E+01 -0.97645366156E+01  0.10196839374E+03  0.10253506508E+03  0.17770000000E+01 0. -1.
         15    1    1    2    0    0 -0.28864284354E+01  0.44773840122E+01  0.46782591620E+02  0.47118436353E+02  0.17770000000E+01 0.  1.
</event>
<event>
 6    1  0.1097339E-002  0.1842633E+03  0.7546771E-02  0.1067060E+00
        -11   -1    0    0    0    0  0.00000000000E+00  0.00000000000E+00  0.18250000000E+03  0.18250000000E+03  0.00000000000E+00 0. -1.
         11   -1    0    0    0    0 -0.00000000000E+00 -0.00000000000E+00 -0.18250000000E+03  0.18250000000E+03  0.00000000000E+00 0.  1.
        -11    1    1    2    0    0  0.47679053788E+01 -0.42841856851E+01  0.17589849492E+03  0.17601524844E+03  0.00000000000E+00 0. -1.
         11    1    1    2    0    0 -0.34296066960E+01  0.15547557585E+01 -0.18069746073E+03  0.18073669185E+03  0.00000000000E+00 0.  1.
        -15    1    1    2    0    0  0.13299610939E+01 -0.28271276226E+00  0.10648819785E+01  0.24779882254E+01  0.17770000000E+01 0. -1.
         15    1    1    2    0    0 -0.26682597767E+01  0.30121426889E+01  0.37340838294E+01  0.57700714778E+01  0.17770000000E+01 0.  1.
</event>
<event>
 6    1  0.1097339E-002  0.1826372E+03  0.7546771E-02  0.1068346E+00
        -11   -1    0    0    0    0  0.00000000000E+00  0.00000000000E+00  0.18250000000E+03  0.18250000000E+03  0.00000000000E+00 0.  1.
         11   -1    0    0    0    0 -0.00000000000E+00 -0.00000000000E+00 -0.18250000000E+03  0.18250000000E+03  0.00000000000E+00 0.  1.
        -11    1    1    2    0    0 -0.14787257994E+01 -0.12150780060E+01  0.12122876234E+03  0.12124386939E+03  0.00000000000E+00 0.  1.
         11    1    1    2    0    0  0.27720367642E+01  0.56835738167E+00 -0.18234084411E+03  0.18236279952E+03  0.00000000000E+00 0.  1.
        -15    1    1    2    0    0 -0.71914345399E+00 -0.10768600247E+01  0.11041288465E+02  0.11258089305E+02  0.17770000000E+01 0. -1.
         15    1    1    2    0    0 -0.57416751080E+00  0.17235806490E+01  0.50070793302E+02  0.50135241791E+02  0.17770000000E+01 0.  1.
</event>
<event>
 6    1  0.1097339E-002  0.1830866E+03  0.7546771E-02  0.1067989E+00
        -11   -1    0    0    0    0  0.00000000000E+00  0.00000000000E+00  0.18250000000E+03  0.18250000000E+03  0.00000000000E+00 0.  1.
         11   -1    0    0    0    0 -0.00000000000E+00 -0.00000000000E+00 -0.18250000000E+03  0.18250000000E+03  0.00000000000E+00 0.  1.
        -11    1    1    2    0    0 -0.91188771445E+01 -0.57972303124E+00  0.18168382726E+03  0.18191344944E+03  0.00000000000E+00 0.  1.
         11    1    1    2    0    0 -0.31537095069E+00 -0.64972629344E+00 -0.38415171535E+02  0.38421959960E+02  0.00000000000E+00 0.  1.
        -15    1    1    2    0    0 -0.17006509595E+01  0.68409104165E+01 -0.62200878932E+02  0.62624255189E+02  0.17770000000E+01 0.  1.
         15    1    1    2    0    0  0.11134899055E+02 -0.56114610919E+01 -0.81067776789E+02  0.82040335416E+02  0.17770000000E+01 0.  1.
</event>
<event>
 6    1  0.1097339E-002  0.1761348E+03  0.7546771E-02  0.1073637E+00
        -11   -1    0    0    0    0  0.00000000000E+00  0.00000000000E+00  0.18250000000E+03  0.18250000000E+03  0.00000000000E+00 0.  1.
         11   -1    0    0    0    0 -0.00000000000E+00 -0.00000000000E+00 -0.18250000000E+03  0.18250000000E+03  0.00000000000E+00 0. -1.
        -11    1    1    2    0    0 -0.70470200860E+00  0.23034388480E+01  0.17709365556E+03  0.17711003719E+03  0.00000000000E+00 0.  1.
         11    1    1    2    0    0  0.60499868089E+01 -0.77523938435E+00 -0.17510292166E+03  0.17520912222E+03  0.00000000000E+00 0. -1.
        -15    1    1    2    0    0 -0.13923034298E+01 -0.43248258179E+01 -0.47689183245E+01  0.68222385023E+01  0.17770000000E+01 0.  1.
         15    1    1    2    0    0 -0.39529813704E+01  0.27966263543E+01  0.27781844245E+01  0.58586020839E+01  0.17770000000E+01 0. -1.
</event>
<event>
 6    1  0.1097339E-002  0.1834040E+03  0.7546771E-02  0.1067737E+00
        -11   -1    0    0    0    0  0.00000000000E+00  0.00000000000E+00  0.18250000000E+03  0.18250000000E+03  0.00000000000E+00 0. -1.
         11   -1    0    0    0    0 -0.00000000000E+00 -0.00000000000E+00 -0.18250000000E+03  0.18250000000E+03  0.00000000000E+00 0.  1.
        -11    1    1    2    0    0 -0.18761680761E+01 -0.21043124128E+01  0.18157407688E+03  0.18159596232E+03  0.00000000000E+00 0. -1.
         11    1    1    2    0    0  0.30639992564E+01  0.25421448720E+01 -0.65836492544E+02  0.65956761159E+02  0.00000000000E+00 0.  1.
        -15    1    1    2    0    0 -0.41374240419E+01  0.14175085780E+01 -0.59742248289E+01  0.76142432045E+01  0.17770000000E+01 0. -1.
         15    1    1    2    0    0  0.29495928617E+01 -0.18553410372E+01 -0.10976335950E+03  0.10983303332E+03  0.17770000000E+01 0.  1.
</event>
<event>
 6    1  0.1097339E-002  0.1832927E+03  0.7546771E-02  0.1067826E+00
        -11   -1    0    0    0    0  0.00000000000E+00  0.00000000000E+00  0.18250000000E+03  0.18250000000E+03  0.00000000000E+00 0.  1.
         11   -1    0    0    0    0 -0.00000000000E+00 -0.00000000000E+00 -0.18250000000E+03  0.18250000000E+03  0.00000000000E+00 0. -1.
        -11    1    1    2    0    0 -0.17885047729E+01 -0.21585635342E+01  0.18168570429E+03  0.18170732866E+03  0.00000000000E+00 0.  1.
         11    1    1    2    0    0 -0.36642295485E+01 -0.15221065918E+01 -0.11500686923E+03  0.11507529429E+03  0.00000000000E+00 0. -1.
        -15    1    1    2    0    0  0.66169217982E+01 -0.89644702481E+00 -0.18049083259E+02  0.19326520816E+02  0.17770000000E+01 0. -1.
         15    1    1    2    0    0 -0.11641874768E+01  0.45771171508E+01 -0.48629751801E+02  0.48890856233E+02  0.17770000000E+01 0.  1.
</event>
<event>
 6    1  0.1097339E-002  0.1837086E+03  0.7546771E-02  0.1067497E+00
        -11   -1    0    0    0    0  0.00000000000E+00  0.00000000000E+00  0.18250000000E+03  0.18250000000E+03  0.00000000000E+00 0.  1.
         11   -1    0    0    0    0 -0.00000000000E+00 -0.00000000000E+00 -0.18250000000E+03  0.18250000000E+03  0.00000000000E+00 0.  1.
        -11    1    1    2    0    0  0.20849951175E+01 -0.46128107512E+00  0.11542993340E+03  0.11544968389E+03  0.00000000000E+00 0.  1.
         11    1    1    2    0    0 -0.40849953068E+01 -0.28136829380E+00 -0.18124515958E+03  0.18129140693E+03  0.00000000000E+00 0.  1.
        -15    1    1    2    0    0  0.19738180797E+01  0.18635273498E+01  0.97940249855E+00  0.33890485759E+01  0.17770000000E+01 0. -1.
         15    1    1    2    0    0  0.26182109553E-01 -0.11208779809E+01  0.64835823686E+02  0.64869860606E+02  0.17770000000E+01 0.  1.
</event>
<event>
 6    1  0.1097339E-002  0.1872147E+03  0.7546771E-02  0.1064763E+00
        -11   -1    0    0    0    0  0.00000000000E+00  0.00000000000E+00  0.18250000000E+03  0.18250000000E+03  0.00000000000E+00 0.  1.
         11   -1    0    0    0    0 -0.00000000000E+00 -0.00000000000E+00 -0.18250000000E+03  0.18250000000E+03  0.00000000000E+00 0. -1.
        -11    1    1    2    0    0 -0.37896965341E+01  0.40243873096E+01  0.17769930330E+03  0.17778526341E+03  0.00000000000E+00 0.  1.
         11    1    1    2    0    0 -0.23782494064E+01 -0.78649830907E+01 -0.35794356799E+02  0.36725331965E+02  0.00000000000E+00 0. -1.
        -15    1    1    2    0    0 -0.10320127580E+02  0.10887372604E+02 -0.12458125604E+03  0.12549377276E+03  0.17770000000E+01 0. -1.
         15    1    1    2    0    0  0.16488073521E+02 -0.70467768224E+01 -0.17323690460E+02  0.24995631861E+02  0.17770000000E+01 0.  1.
</event>
<event>
 6    1  0.1097339E-002  0.1860301E+03  0.7546771E-02  0.1065679E+00
        -11   -1    0    0    0    0  0.00000000000E+00  0.00000000000E+00  0.18250000000E+03  0.18250000000E+03  0.00000000000E+00 0. -1.
         11   -1    0    0    0    0 -0.00000000000E+00 -0.00000000000E+00 -0.18250000000E+03  0.18250000000E+03  0.00000000000E+00 0.  1.
        -11    1    1    2    0    0  0.24647591604E+01 -0.97756753051E+00  0.16937279222E+03  0.16939354598E+03  0.00000000000E+00 0. -1.
         11    1    1    2    0    0 -0.37632797457E+01 -0.13283981299E+01 -0.17892540762E+03  0.17896990922E+03  0.00000000000E+00 0.  1.
        -15    1    1    2    0    0  0.24138218563E+01  0.18738219963E+01 -0.25418191408E+01  0.43538854340E+01  0.17770000000E+01 0. -1.
         15    1    1    2    0    0 -0.11153012710E+01  0.43214366406E+00  0.12094434544E+02  0.12282659362E+02  0.17770000000E+01 0.  1.
</event>
<event>
 6    1  0.1097339E-002  0.1841398E+03  0.7546771E-02  0.1067157E+00
        -11   -1    0    0    0    0  0.00000000000E+00  0.00000000000E+00  0.18250000000E+03  0.18250000000E+03  0.00000000000E+00 0. -1.
         11   -1    0    0    0    0 -0.00000000000E+00 -0.00000000000E+00 -0.18250000000E+03  0.18250000000E+03  0.00000000000E+00 0. -1.
        -11    1    1    2    0    0  0.31831067241E+01 -0.19763058342E+00  0.18083205881E+03  0.18086018003E+03  0.00000000000E+00 0. -1.
         11    1    1    2    0    0 -0.16162803777E+01 -0.80033981997E+01 -0.10539624765E+03  0.10571204172E+03  0.00000000000E+00 0. -1.
        -15    1    1    2    0    0 -0.88562358591E+01  0.25265938131E+01 -0.56618071085E+02  0.57389722880E+02  0.17770000000E+01 0. -1.
         15    1    1    2    0    0  0.72894095128E+01  0.56744349701E+01 -0.18817740075E+02  0.21038055371E+02  0.17770000000E+01 0.  1.
</event>
<event>
 6    1  0.1097339E-002  0.1852262E+03  0.7546771E-02  0.1066305E+00
        -11   -1    0    0    0    0  0.00000000000E+00  0.00000000000E+00  0.18250000000E+03  0.18250000000E+03  0.00000000000E+00 0.  1.
         11   -1    0    0    0    0 -0.00000000000E+00 -0.00000000000E+00 -0.18250000000E+03  0.18250000000E+03  0.00000000000E+00 0.  1.
        -11    1    1    2    0    0 -0.23431141618E+01 -0.10619317144E+01  0.17975534326E+03  0.17977375035E+03  0.00000000000E+00 0.  1.
         11    1    1    2    0    0 -0.52159340338E+00  0.26899681716E+01 -0.15444253551E+03  0.15446684034E+03  0.00000000000E+00 0.  1.
        -15    1    1    2    0    0 -0.60062680989E+01  0.11187900953E+00 -0.37263318684E+01  0.72891049918E+01  0.17770000000E+01 0.  1.
         15    1    1    2    0    0  0.88709756641E+01 -0.17399154667E+01 -0.21586475879E+02  0.23470304322E+02  0.17770000000E+01 0. -1.
</event>
<event>
 6    1  0.1097339E-002  0.1836179E+03  0.7546771E-02  0.1067568E+00
        -11   -1    0    0    0    0  0.00000000000E+00  0.00000000000E+00  0.18250000000E+03  0.18250000000E+03  0.00000000000E+00 0.  1.
         11   -1    0    0    0    0 -0.00000000000E+00 -0.00000000000E+00 -0.18250000000E+03  0.18250000000E+03  0.00000000000E+00 0.  1.
        -11    1    1    2    0    0 -0.31783324171E+01 -0.21633564985E+01  0.16868796614E+03  0.16873177480E+03  0.00000000000E+00 0.  1.
         11    1    1    2    0    0 -0.25573562844E+01  0.30606359005E+00 -0.18136379292E+03  0.18138208050E+03  0.00000000000E+00 0.  1.
        -15    1    1    2    0    0  0.33152916606E+01  0.75489096761E+00  0.10017597385E+02  0.10727115434E+02  0.17770000000E+01 0.  1.
         15    1    1    2    0    0  0.24203970409E+01  0.11024019409E+01  0.26582293932E+01  0.41590292595E+01  0.17770000000E+01 0. -1.
</event>
<event>
 6    1  0.1097339E-002  0.1827004E+03  0.7546771E-02  0.1068295E+00
        -11   -1    0    0    0    0  0.00000000000E+00  0.00000000000E+00  0.18250000000E+03  0.18250000000E+03  0.00000000000E+00 0. -1.
         11   -1    0    0    0    0 -0.00000000000E+00 -0.00000000000E+00 -0.18250000000E+03  0.18250000000E+03  0.00000000000E+00 0.  1.
        -11    1    1    2    0    0 -0.22072347586E+01  0.23541919405E+01  0.18227100533E+03  0.18229957073E+03  0.00000000000E+00 0. -1.
         11    1    1    2    0    0 -0.57356293986E+00  0.15931188165E+01 -0.10698907079E+03  0.10700246852E+03  0.00000000000E+00 0.  1.
        -15    1    1    2    0    0  0.30166315900E+01 -0.27243050836E+01 -0.26576002616E+02  0.26943710739E+02  0.17770000000E+01 0. -1.
         15    1    1    2    0    0 -0.23583389156E+00 -0.12230056734E+01 -0.48705931923E+02  0.48754250009E+02  0.17770000000E+01 0. -1.
</event>
<event>
 6    1  0.1097339E-002  0.1748847E+03  0.7546771E-02  0.1074683E+00
        -11   -1    0    0    0    0  0.00000000000E+00  0.00000000000E+00  0.18250000000E+03  0.18250000000E+03  0.00000000000E+00 0. -1.
         11   -1    0    0    0    0 -0.00000000000E+00 -0.00000000000E+00 -0.18250000000E+03  0.18250000000E+03  0.00000000000E+00 0. -1.
        -11    1    1    2    0    0  0.75796575989E+01 -0.51598721768E+01  0.17315069651E+03  0.17339330781E+03  0.00000000000E+00 0. -1.
         11    1    1    2    0    0 -0.20330526759E+01  0.36491230176E+01 -0.17638890714E+03  0.17643836307E+03  0.00000000000E+00 0. -1.
        -15    1    1    2    0    0 -0.23732794949E+01  0.61581019305E+01  0.55761522992E+01  0.88207640491E+01  0.17770000000E+01 0. -1.
         15    1    1    2    0    0 -0.31733254281E+01 -0.46473527713E+01 -0.23379416780E+01  0.63475650720E+01  0.17770000000E+01 0. -1.
</event>
<event>
 6    1  0.1097339E-002  0.1866058E+03  0.7546771E-02  0.1065233E+00
        -11   -1    0    0    0    0  0.00000000000E+00  0.00000000000E+00  0.18250000000E+03  0.18250000000E+03  0.00000000000E+00 0. -1.
         11   -1    0    0    0    0 -0.00000000000E+00 -0.00000000000E+00 -0.18250000000E+03  0.18250000000E+03  0.00000000000E+00 0. -1.
        -11    1    1    2    0    0 -0.31572399210E+01 -0.43506603305E+00  0.17836573344E+03  0.17839420482E+03  0.00000000000E+00 0. -1.
         11    1    1    2    0    0 -0.21000634728E+01 -0.10026225780E+01 -0.16102342216E+03  0.16104023721E+03  0.00000000000E+00 0. -1.
        -15    1    1    2    0    0  0.74807427673E+01  0.62939892331E+01 -0.17283594034E+02  0.19936302680E+02  0.17770000000E+01 0. -1.
         15    1    1    2    0    0 -0.22234393735E+01 -0.48563006220E+01 -0.58717254300E-01  0.56292552878E+01  0.17770000000E+01 0.  1.
</event>
<event>
 6    1  0.1097339E-002  0.1868253E+03  0.7546771E-02  0.1065063E+00
        -11   -1    0    0    0    0  0.00000000000E+00  0.00000000000E+00  0.18250000000E+03  0.18250000000E+03  0.00000000000E+00 0. -1.
         11   -1    0    0    0    0 -0.00000000000E+00 -0.00000000000E+00 -0.18250000000E+03  0.18250000000E+03  0.00000000000E+00 0.  1.
        -11    1    1    2    0    0 -0.10865478603E+01  0.83275420896E+01  0.16608943461E+03  0.16630162006E+03  0.00000000000E+00 0. -1.
         11    1    1    2    0    0 -0.22754248001E+00 -0.12507225087E+02 -0.17773499105E+03  0.17817466009E+03  0.00000000000E+00 0.  1.
        -15    1    1    2    0    0 -0.37918924227E+01  0.84415787094E+01  0.40042418615E+01  0.10238670868E+02  0.17770000000E+01 0. -1.
         15    1    1    2    0    0  0.51059827630E+01 -0.42618957118E+01  0.76413145809E+01  0.10285048982E+02  0.17770000000E+01 0.  1.
</event>
<event>
 6    1  0.2565511E-002  0.1826167E+03  0.7546771E-02  0.1068362E+00
        -11   -1    0    0    0    0  0.00000000000E+00  0.00000000000E+00  0.18250000000E+03  0.18250000000E+03  0.00000000000E+00 0. -1.
         11   -1    0    0    0    0 -0.00000000000E+00 -0.00000000000E+00 -0.18250000000E+03  0.18250000000E+03  0.00000000000E+00 0.  1.
        -11    1    1    2    0    0  0.66824043086E+00 -0.24760213903E+01  0.18236526551E+03  0.18238329774E+03  0.00000000000E+00 0. -1.
         11    1    1    2    0    0 -0.14965764423E+01  0.17348226389E+01 -0.44186832513E+02  0.44246192132E+02  0.00000000000E+00 0.  1.
        -15    1    1    2    0    0  0.53660952115E+00  0.17648399295E+01 -0.18752061077E+02  0.18926175878E+02  0.17770000000E+01 0. -1.
         15    1    1    2    0    0  0.29172649025E+00 -0.10236411781E+01 -0.11942637192E+03  0.11944433425E+03  0.17770000000E+01 0.  1.
</event>
<event>
 6    1  0.1097339E-002  0.1732198E+03  0.7546771E-02  0.1076092E+00
        -11   -1    0    0    0    0  0.00000000000E+00  0.00000000000E+00  0.18250000000E+03  0.18250000000E+03  0.00000000000E+00 0.  1.
         11   -1    0    0    0    0 -0.00000000000E+00 -0.00000000000E+00 -0.18250000000E+03  0.18250000000E+03  0.00000000000E+00 0.  1.
        -11    1    1    2    0    0  0.14890831491E+01  0.19471003705E+01  0.17431699408E+03  0.17433422783E+03  0.00000000000E+00 0.  1.
         11    1    1    2    0    0 -0.83740754785E+01  0.10470678417E+02 -0.17188260321E+03  0.17240472596E+03  0.00000000000E+00 0.  1.
        -15    1    1    2    0    0  0.59765870162E+01 -0.11934517865E+01 -0.25982805525E+01  0.68594978212E+01  0.17770000000E+01 0. -1.
         15    1    1    2    0    0  0.90840531322E+00 -0.11224327001E+02  0.16388968141E+00  0.11401548389E+02  0.17770000000E+01 0.  1.
</event>
<event>
 6    1  0.1097339E-002  0.1859504E+03  0.7546771E-02  0.1065741E+00
        -11   -1    0    0    0    0  0.00000000000E+00  0.00000000000E+00  0.18250000000E+03  0.18250000000E+03  0.00000000000E+00 0.  1.
         11   -1    0    0    0    0 -0.00000000000E+00 -0.00000000000E+00 -0.18250000000E+03  0.18250000000E+03  0.00000000000E+00 0.  1.
        -11    1    1    2    0    0 -0.58080214063E+00  0.24304954682E+01  0.17903211637E+03  0.17904955552E+03  0.00000000000E+00 0.  1.
         11    1    1    2    0    0  0.32959894793E+01 -0.27837563097E+01 -0.17679826780E+03  0.17685089862E+03  0.00000000000E+00 0.  1.
        -15    1    1    2    0    0 -0.18993890918E+01 -0.35208606093E+01 -0.42484016034E+00  0.43979946015E+01  0.17770000000E+01 0.  1.
         15    1    1    2    0    0 -0.81579824680E+00  0.38741214508E+01 -0.18090084175E+01  0.47015512599E+01  0.17770000000E+01 0. -1.
</event>
<event>
 6    1  0.1097339E-002  0.1830460E+03  0.7546771E-02  0.1068021E+00
        -11   -1    0    0    0    0  0.00000000000E+00  0.00000000000E+00  0.18250000000E+03  0.18250000000E+03  0.00000000000E+00 0. -1.
         11   -1    0    0    0    0 -0.00000000000E+00 -0.00000000000E+00 -0.18250000000E+03  0.18250000000E+03  0.00000000000E+00 0. -1.
        -11    1    1    2    0    0  0.21774914745E+01 -0.26656904683E+01  0.16863261966E+03  0.16866774377E+03  0.00000000000E+00 0. -1.
         11    1    1    2    0    0 -0.37097884020E+01  0.16626170582E+01 -0.18190862303E+03  0.18195404353E+03  0.00000000000E+00 0. -1.
        -15    1    1    2    0    0  0.61820445933E+00 -0.14034437197E+00  0.15892738276E+01  0.24668590546E+01  0.17770000000E+01 0.  1.
         15    1    1    2    0    0  0.91409246814E+00  0.11434177821E+01  0.11686729543E+02  0.11911353646E+02  0.17770000000E+01 0. -1.
</event>
<event>
 6    1  0.1097339E-002  0.1829432E+03  0.7546771E-02  0.1068103E+00
        -11   -1    0    0    0    0  0.00000000000E+00  0.00000000000E+00  0.18250000000E+03  0.18250000000E+03  0.00000000000E+00 0. -1.
         11   -1    0    0    0    0 -0.00000000000E+00 -0.00000000000E+00 -0.18250000000E+03  0.18250000000E+03  0.00000000000E+00 0.  1.
        -11    1    1    2    0    0 -0.33071369054E+01 -0.32136245553E+01  0.18199837517E+03  0.18205678538E+03  0.00000000000E+00 0. -1.
         11    1    1    2    0    0 -0.11657393452E+01  0.17697436784E+01 -0.15123929077E+03  0.15125413718E+03  0.00000000000E+00 0.  1.
        -15    1    1    2    0    0  0.20393086199E+00  0.23043083658E+01 -0.11629069951E+02  0.11989346177E+02  0.17770000000E+01 0. -1.
         15    1    1    2    0    0  0.42689453887E+01 -0.86042748885E+00 -0.19130014445E+02  0.19699731264E+02  0.17770000000E+01 0.  1.
</event>
<event>
 6    1  0.1097339E-002  0.1833402E+03  0.7546771E-02  0.1067788E+00
        -11   -1    0    0    0    0  0.00000000000E+00  0.00000000000E+00  0.18250000000E+03  0.18250000000E+03  0.00000000000E+00 0. -1.
         11   -1    0    0    0    0 -0.00000000000E+00 -0.00000000000E+00 -0.18250000000E+03  0.18250000000E+03  0.00000000000E+00 0.  1.
        -11    1    1    2    0    0 -0.25429887873E+01  0.80671772018E+00  0.99638531434E+02  0.99674242068E+02  0.00000000000E+00 0. -1.
         11    1    1    2    0    0 -0.18711820433E+01  0.51055906591E+01 -0.18157836493E+03  0.18165976711E+03  0.00000000000E+00 0.  1.
        -15    1    1    2    0    0 -0.40236318519E+01 -0.44688021547E+01  0.54682269262E+02  0.55040604163E+02  0.17770000000E+01 0. -1.
         15    1    1    2    0    0  0.84378026825E+01 -0.14435062246E+01  0.27257564232E+02  0.28625386655E+02  0.17770000000E+01 0.  1.
</event>
<event>
 6    1  0.1097339E-002  0.1827927E+03  0.7546771E-02  0.1068222E+00
        -11   -1    0    0    0    0  0.00000000000E+00  0.00000000000E+00  0.18250000000E+03  0.18250000000E+03  0.00000000000E+00 0.  1.
         11   -1    0    0    0    0 -0.00000000000E+00 -0.00000000000E+00 -0.18250000000E+03  0.18250000000E+03  0.00000000000E+00 0. -1.
        -11    1    1    2    0    0 -0.42144902058E+01  0.97617375507E+00  0.10033063756E+03  0.10042386010E+03  0.00000000000E+00 0.  1.
         11    1    1    2    0    0 -0.33254940116E+01  0.66804100426E+00 -0.18217569963E+03  0.18220727407E+03  0.00000000000E+00 0. -1.
        -15    1    1    2    0    0  0.56680880001E+01 -0.23582950267E+01  0.49045758066E+02  0.49460417409E+02  0.17770000000E+01 0.  1.
         15    1    1    2    0    0  0.18718962173E+01  0.71408026735E+00  0.32799303998E+02  0.32908448426E+02  0.17770000000E+01 0.  1.
</event>
<event>
 6    1  0.1097339E-002  0.1865756E+03  0.7546771E-02  0.1065256E+00
        -11   -1    0    0    0    0  0.00000000000E+00  0.00000000000E+00  0.18250000000E+03  0.18250000000E+03  0.00000000000E+00 0. -1.
         11   -1    0    0    0    0 -0.00000000000E+00 -0.00000000000E+00 -0.18250000000E+03  0.18250000000E+03  0.00000000000E+00 0. -1.
        -11    1    1    2    0    0 -0.34610069351E+01 -0.13929839703E+01  0.14874462109E+03  0.14879140189E+03  0.00000000000E+00 0. -1.
         11    1    1    2    0    0  0.17799564587E+02  0.15350736679E+01 -0.17752767298E+03  0.17842436948E+03  0.00000000000E+00 0. -1.
        -15    1    1    2    0    0 -0.93520559039E+01  0.66629874823E+01  0.26392882033E+02  0.28837446191E+02  0.17770000000E+01 0. -1.
         15    1    1    2    0    0 -0.49865017480E+01 -0.68050771799E+01  0.23901698521E+01  0.89467824400E+01  0.17770000000E+01 0.  1.
</event>
<event>
 6    1  0.1097339E-002  0.1735556E+03  0.7546771E-02  0.1075806E+00
        -11   -1    0    0    0    0  0.00000000000E+00  0.00000000000E+00  0.18250000000E+03  0.18250000000E+03  0.00000000000E+00 0. -1.
         11   -1    0    0    0    0 -0.00000000000E+00 -0.00000000000E+00 -0.18250000000E+03  0.18250000000E+03  0.00000000000E+00 0.  1.
        -11    1    1    2    0    0  0.29379673477E+00  0.36077992631E+01  0.17262740230E+03  0.17266534846E+03  0.00000000000E+00 0. -1.
         11    1    1    2    0    0  0.12632442277E+01  0.61639199801E+01 -0.17447842512E+03  0.17459183981E+03  0.00000000000E+00 0.  1.
        -15    1    1    2    0    0 -0.70035730457E+01 -0.21362447579E+01 -0.13899367765E+01  0.76618033331E+01  0.17770000000E+01 0. -1.
         15    1    1    2    0    0  0.54465320833E+01 -0.76354744853E+01  0.32409595922E+01  0.10081008403E+02  0.17770000000E+01 0.  1.
</event>
<event>
 6    1  0.1097339E-002  0.1847181E+03  0.7546771E-02  0.1066703E+00
        -11   -1    0    0    0    0  0.00000000000E+00  0.00000000000E+00  0.18250000000E+03  0.18250000000E+03  0.00000000000E+00 0. -1.
         11   -1    0    0    0    0 -0.00000000000E+00 -0.00000000000E+00 -0.18250000000E+03  0.18250000000E+03  0.00000000000E+00 0. -1.
        -11    1    1    2    0    0  0.18156046990E+01 -0.34077177776E+01  0.18024057481E+03  0.18028192857E+03  0.00000000000E+00 0. -1.
         11    1    1    2    0    0 -0.22635843098E+01  0.24559181743E+01 -0.14286486644E+03  0.14290390272E+03  0.00000000000E+00 0. -1.
        -15    1    1    2    0    0  0.20669184100E-01  0.39932501760E+01 -0.10208233683E+00  0.43720274458E+01  0.17770000000E+01 0.  1.
         15    1    1    2    0    0  0.42731042662E+00 -0.30414505727E+01 -0.37273626035E+02  0.37442141266E+02  0.17770000000E+01 0.  1.
</event>
<event>
 6    1  0.1097339E-002  0.1836813E+03  0.7546771E-02  0.1067518E+00
        -11   -1    0    0    0    0  0.00000000000E+00  0.00000000000E+00  0.18250000000E+03  0.18250000000E+03  0.00000000000E+00 0.  1.
         11   -1    0    0    0    0 -0.00000000000E+00 -0.00000000000E+00 -0.18250000000E+03  0.18250000000E+03  0.00000000000E+00 0.  1.
        -11    1    1    2    0    0  0.26916390177E+01  0.52583137618E+01  0.10197230173E+03  0.10214325775E+03  0.00000000000E+00 0.  1.
         11    1    1    2    0    0  0.13636502752E+02 -0.18332795679E+01 -0.18079590159E+03  0.18131870602E+03  0.00000000000E+00 0.  1.
        -15    1    1    2    0    0 -0.46968406436E+01  0.19139283639E+01  0.86402676990E+01  0.10175234087E+02  0.17770000000E+01 0.  1.
         15    1    1    2    0    0 -0.11631301126E+02 -0.53389625578E+01  0.70183332164E+02  0.71362802143E+02  0.17770000000E+01 0. -1.
</event>
<event>
 6    1  0.1097339E-002  0.1827927E+03  0.7546771E-02  0.1068222E+00
        -11   -1    0    0    0    0  0.00000000000E+00  0.00000000000E+00  0.18250000000E+03  0.18250000000E+03  0.00000000000E+00 0.  1.
         11   -1    0    0    0    0 -0.00000000000E+00 -0.00000000000E+00 -0.18250000000E+03  0.18250000000E+03  0.00000000000E+00 0. -1.
        -11    1    1    2    0    0  0.37461969836E+00  0.16382729396E+01  0.10292243439E+03  0.10293615389E+03  0.00000000000E+00 0.  1.
         11    1    1    2    0    0  0.36256813044E+01 -0.13288214049E+01 -0.18216642482E+03  0.18220734800E+03  0.00000000000E+00 0. -1.
        -15    1    1    2    0    0 -0.43521011091E+01 -0.16419246429E+01  0.21513863261E+02  0.22082589114E+02  0.17770000000E+01 0. -1.
         15    1    1    2    0    0  0.35180010638E+00  0.13324731082E+01  0.57730127175E+02  0.57773908995E+02  0.17770000000E+01 0.  1.
</event>
<event>
 6    1  0.1097339E-002  0.1660239E+03  0.7546771E-02  0.1082383E+00
        -11   -1    0    0    0    0  0.00000000000E+00  0.00000000000E+00  0.18250000000E+03  0.18250000000E+03  0.00000000000E+00 0.  1.
         11   -1    0    0    0    0 -0.00000000000E+00 -0.00000000000E+00 -0.18250000000E+03  0.18250000000E+03  0.00000000000E+00 0.  1.
        -11    1    1    2    0    0  0.22835031423E+01  0.60831108952E+00  0.16723950851E+03  0.16725620358E+03  0.00000000000E+00 0.  1.
         11    1    1    2    0    0 -0.80475974702E+01  0.82802393511E+01 -0.16456681466E+03  0.16497139957E+03  0.00000000000E+00 0.  1.
        -15    1    1    2    0    0 -0.66155952321E+01  0.11359584294E+01  0.10114334148E+02  0.12268414164E+02  0.17770000000E+01 0.  1.
         15    1    1    2    0    0  0.12379689560E+02 -0.10024508870E+02 -0.12787027997E+02  0.20503982679E+02  0.17770000000E+01 0. -1.
</event>
<event>
 6    1  0.1097339E-002  0.2063565E+03  0.7546771E-02  0.1050907E+00
        -11   -1    0    0    0    0  0.00000000000E+00  0.00000000000E+00  0.18250000000E+03  0.18250000000E+03  0.00000000000E+00 0.  1.
         11   -1    0    0    0    0 -0.00000000000E+00 -0.00000000000E+00 -0.18250000000E+03  0.18250000000E+03  0.00000000000E+00 0. -1.
        -11    1    1    2    0    0 -0.28109405385E+01 -0.26656312597E+01  0.15859619705E+03  0.15864350190E+03  0.00000000000E+00 0.  1.
         11    1    1    2    0    0 -0.26895952109E+01  0.21658317618E+01 -0.10262981754E+03  0.10268789703E+03  0.00000000000E+00 0. -1.
        -15    1    1    2    0    0 -0.55163872553E+00  0.64377295202E+01  0.23139240502E+02  0.24090057008E+02  0.17770000000E+01 0.  1.
         15    1    1    2    0    0  0.60521744749E+01 -0.59379300223E+01 -0.79105620009E+02  0.79578544061E+02  0.17770000000E+01 0. -1.
</event>
<event>
 6    1  0.1097339E-002  0.1843217E+03  0.7546771E-02  0.1067014E+00
        -11   -1    0    0    0    0  0.00000000000E+00  0.00000000000E+00  0.18250000000E+03  0.18250000000E+03  0.00000000000E+00 0. -1.
         11   -1    0    0    0    0 -0.00000000000E+00 -0.00000000000E+00 -0.18250000000E+03  0.18250000000E+03  0.00000000000E+00 0.  1.
        -11    1    1    2    0    0  0.27179127400E+01  0.85756313916E+00  0.18065581480E+03  0.18067829390E+03  0.00000000000E+00 0. -1.
         11    1    1    2    0    0 -0.39532677413E+00  0.16540915646E+01 -0.28329477216E+02  0.28380478880E+02  0.00000000000E+00 0.  1.
        -15    1    1    2    0    0 -0.86125276292E+01 -0.10772331698E+01 -0.14731474798E+03  0.14758092277E+03  0.17770000000E+01 0.  1.
         15    1    1    2    0    0  0.62899416633E+01 -0.14344215339E+01 -0.50115896039E+01  0.83603044575E+01  0.17770000000E+01 0. -1.
</event>
<event>
 6    1  0.1097339E-002  0.1839640E+03  0.7546771E-02  0.1067295E+00
        -11   -1    0    0    0    0  0.00000000000E+00  0.00000000000E+00  0.18250000000E+03  0.18250000000E+03  0.00000000000E+00 0. -1.
         11   -1    0    0    0    0 -0.00000000000E+00 -0.00000000000E+00 -0.18250000000E+03  0.18250000000E+03  0.00000000000E+00 0. -1.
        -11    1    1    2    0    0  0.15849831146E+01 -0.19784038491E+01  0.16599526795E+03  0.16601462356E+03  0.00000000000E+00 0. -1.
         11    1    1    2    0    0  0.49529650082E+01  0.34633914921E+01 -0.18093510991E+03  0.18103602112E+03  0.00000000000E+00 0. -1.
        -15    1    1    2    0    0 -0.72979629878E+01 -0.35998269921E+00  0.98702666965E+01  0.12408454576E+02  0.17770000000E+01 0.  1.
         15    1    1    2    0    0  0.76001486498E+00 -0.11250049439E+01  0.50695752655E+01  0.55409007473E+01  0.17770000000E+01 0. -1.
</event>
<event>
 6    1  0.1097339E-002  0.1826086E+03  0.7546771E-02  0.1068368E+00
        -11   -1    0    0    0    0  0.00000000000E+00  0.00000000000E+00  0.18250000000E+03  0.18250000000E+03  0.00000000000E+00 0.  1.
         11   -1    0    0    0    0 -0.00000000000E+00 -0.00000000000E+00 -0.18250000000E+03  0.18250000000E+03  0.00000000000E+00 0.  1.
        -11    1    1    2    0    0  0.46587249945E+01 -0.26404071392E+01  0.18231281899E+03  0.18239144562E+03  0.00000000000E+00 0.  1.
         11    1    1    2    0    0  0.14082819218E+01 -0.21499690782E+00 -0.40674819393E+02  0.40699759388E+02  0.00000000000E+00 0.  1.
        -15    1    1    2    0    0 -0.31151705163E+01  0.32539528352E+01 -0.10355967453E+03  0.10367283354E+03  0.17770000000E+01 0.  1.
         15    1    1    2    0    0 -0.29518364000E+01 -0.39854878820E+00 -0.38078325067E+02  0.38235961452E+02  0.17770000000E+01 0. -1.
</event>
<event>
 6    1  0.1097339E-002  0.1900257E+03  0.7546771E-02  0.1062617E+00
        -11   -1    0    0    0    0  0.00000000000E+00  0.00000000000E+00  0.18250000000E+03  0.18250000000E+03  0.00000000000E+00 0.  1.
         11   -1    0    0    0    0 -0.00000000000E+00 -0.00000000000E+00 -0.18250000000E+03  0.18250000000E+03  0.00000000000E+00 0. -1.
        -11    1    1    2    0    0  0.18106779946E+02  0.52925362198E+00  0.12548992757E+03  0.12679060498E+03  0.00000000000E+00 0.  1.
         11    1    1    2    0    0  0.36592789058E+00 -0.98181193073E+01 -0.17469822283E+03  0.17497427934E+03  0.00000000000E+00 0. -1.
        -15    1    1    2    0    0 -0.25684957154E+02  0.57906487224E+01  0.48215415956E+02  0.54964831497E+02  0.17770000000E+01 0. -1.
         15    1    1    2    0    0  0.72122493175E+01  0.34982169629E+01  0.99287930106E+00  0.82702841816E+01  0.17770000000E+01 0.  1.
</event>
<event>
 6    1  0.1097339E-002  0.1913334E+03  0.7546771E-02  0.1061633E+00
        -11   -1    0    0    0    0  0.00000000000E+00  0.00000000000E+00  0.18250000000E+03  0.18250000000E+03  0.00000000000E+00 0.  1.
         11   -1    0    0    0    0 -0.00000000000E+00 -0.00000000000E+00 -0.18250000000E+03  0.18250000000E+03  0.00000000000E+00 0.  1.
        -11    1    1    2    0    0 -0.42958007349E+01 -0.41640637823E+01  0.17356355234E+03  0.17366663477E+03  0.00000000000E+00 0.  1.
         11    1    1    2    0    0 -0.53875098931E+01  0.25429401396E+01 -0.16243240920E+03  0.16254162349E+03  0.00000000000E+00 0.  1.
        -15    1    1    2    0    0  0.12177637020E+01 -0.99781405477E+00 -0.17547831644E+02  0.17707701876E+02  0.17770000000E+01 0.  1.
         15    1    1    2    0    0  0.84655469260E+01  0.26189376975E+01  0.64166884979E+01  0.11084039864E+02  0.17770000000E+01 0. -1.
</event>
<event>
 6    1  0.1097339E-002  0.1762249E+03  0.7546771E-02  0.1073562E+00
        -11   -1    0    0    0    0  0.00000000000E+00  0.00000000000E+00  0.18250000000E+03  0.18250000000E+03  0.00000000000E+00 0.  1.
         11   -1    0    0    0    0 -0.00000000000E+00 -0.00000000000E+00 -0.18250000000E+03  0.18250000000E+03  0.00000000000E+00 0. -1.
        -11    1    1    2    0    0  0.42432530724E+01  0.36951667778E+01  0.17524153531E+03  0.17533184295E+03  0.00000000000E+00 0.  1.
         11    1    1    2    0    0 -0.10132291574E+02 -0.43413845601E+01 -0.17682813084E+03  0.17717138259E+03  0.00000000000E+00 0. -1.
        -15    1    1    2    0    0 -0.15775365148E+01 -0.65591981074E+00  0.36855835270E+01  0.44339719426E+01  0.17770000000E+01 0.  1.
         15    1    1    2    0    0  0.74665750168E+01  0.13021375930E+01 -0.20989880005E+01  0.80628025164E+01  0.17770000000E+01 0.  1.
</event>
<event>
 6    1  0.1097339E-002  0.1836644E+03  0.7546771E-02  0.1067532E+00
        -11   -1    0    0    0    0  0.00000000000E+00  0.00000000000E+00  0.18250000000E+03  0.18250000000E+03  0.00000000000E+00 0.  1.
         11   -1    0    0    0    0 -0.00000000000E+00 -0.00000000000E+00 -0.18250000000E+03  0.18250000000E+03  0.00000000000E+00 0. -1.
        -11    1    1    2    0    0 -0.18245510047E+01 -0.20992972576E+01  0.12846923141E+03  0.12849933640E+03  0.00000000000E+00 0.  1.
         11    1    1    2    0    0  0.56250698130E+01 -0.67800093681E+00 -0.18124706620E+03  0.18133560076E+03  0.00000000000E+00 0. -1.
        -15    1    1    2    0    0  0.18997711593E+01  0.50279787643E+01  0.43721858138E+02  0.44086826932E+02  0.17770000000E+01 0. -1.
         15    1    1    2    0    0 -0.57002899676E+01 -0.22506805700E+01  0.90559766537E+01  0.11078235911E+02  0.17770000000E+01 0.  1.
</event>
<event>
 6    1  0.1097339E-002  0.1900154E+03  0.7546771E-02  0.1062625E+00
        -11   -1    0    0    0    0  0.00000000000E+00  0.00000000000E+00  0.18250000000E+03  0.18250000000E+03  0.00000000000E+00 0. -1.
         11   -1    0    0    0    0 -0.00000000000E+00 -0.00000000000E+00 -0.18250000000E+03  0.18250000000E+03  0.00000000000E+00 0. -1.
        -11    1    1    2    0    0  0.93967167205E+01 -0.18625569468E+01  0.17472215869E+03  0.17498457115E+03  0.00000000000E+00 0. -1.
         11    1    1    2    0    0 -0.59233098192E-01 -0.22750729191E+01 -0.16727246097E+03  0.16728794238E+03  0.00000000000E+00 0. -1.
        -15    1    1    2    0    0 -0.44362742724E+01 -0.66521773565E+01 -0.69362560981E+01  0.10733190144E+02  0.17770000000E+01 0.  1.
         15    1    1    2    0    0 -0.49012093499E+01  0.10789807222E+02 -0.51344162079E+00  0.11994296323E+02  0.17770000000E+01 0. -1.
</event>
<event>
 6    1  0.1097339E-002  0.1829638E+03  0.7546771E-02  0.1068086E+00
        -11   -1    0    0    0    0  0.00000000000E+00  0.00000000000E+00  0.18250000000E+03  0.18250000000E+03  0.00000000000E+00 0.  1.
         11   -1    0    0    0    0 -0.00000000000E+00 -0.00000000000E+00 -0.18250000000E+03  0.18250000000E+03  0.00000000000E+00 0. -1.
        -11    1    1    2    0    0  0.55036439126E+00  0.30006536425E+01  0.18201062242E+03  0.18203618733E+03  0.00000000000E+00 0.  1.
         11    1    1    2    0    0  0.25031821907E+01 -0.16221683329E+00 -0.16289816167E+03  0.16291747393E+03  0.00000000000E+00 0. -1.
        -15    1    1    2    0    0 -0.26201193932E+01 -0.13515783646E+01 -0.13994359438E+02  0.14411509802E+02  0.17770000000E+01 0. -1.
         15    1    1    2    0    0 -0.43342718870E+00 -0.14868584446E+01 -0.51181013081E+01  0.56348289382E+01  0.17770000000E+01 0.  1.
</event>
<event>
 6    1  0.1097339E-002  0.1833074E+03  0.7546771E-02  0.1067814E+00
        -11   -1    0    0    0    0  0.00000000000E+00  0.00000000000E+00  0.18250000000E+03  0.18250000000E+03  0.00000000000E+00 0. -1.
         11   -1    0    0    0    0 -0.00000000000E+00 -0.00000000000E+00 -0.18250000000E+03  0.18250000000E+03  0.00000000000E+00 0.  1.
        -11    1    1    2    0    0  0.50656605271E+01  0.74008110643E+01  0.18147108976E+03  0.18169256820E+03  0.00000000000E+00 0. -1.
         11    1    1    2    0    0 -0.46692954235E+01 -0.10850263015E+01 -0.54334448763E+02  0.54545503244E+02  0.00000000000E+00 0.  1.
        -15    1    1    2    0    0  0.74335073082E+01 -0.32449962787E+01 -0.98845854205E+02  0.99193990011E+02  0.17770000000E+01 0.  1.
         15    1    1    2    0    0 -0.78298724117E+01 -0.30707884841E+01 -0.28290786788E+02  0.29567938548E+02  0.17770000000E+01 0. -1.
</event>
<event>
 6    1  0.1097339E-002  0.1840237E+03  0.7546771E-02  0.1067248E+00
        -11   -1    0    0    0    0  0.00000000000E+00  0.00000000000E+00  0.18250000000E+03  0.18250000000E+03  0.00000000000E+00 0.  1.
         11   -1    0    0    0    0 -0.00000000000E+00 -0.00000000000E+00 -0.18250000000E+03  0.18250000000E+03  0.00000000000E+00 0. -1.
        -11    1    1    2    0    0  0.24085089701E+01 -0.45217666654E+00  0.22602727764E+02  0.22735185980E+02  0.00000000000E+00 0.  1.
         11    1    1    2    0    0  0.13051448219E+02 -0.27188283380E+01 -0.18048456462E+03  0.18097627025E+03  0.00000000000E+00 0. -1.
        -15    1    1    2    0    0 -0.85399365270E+01 -0.23975799840E+01  0.14632674737E+03  0.14660611730E+03  0.17770000000E+01 0.  1.
         15    1    1    2    0    0 -0.69200206622E+01  0.55685849885E+01  0.11555089486E+02  0.14682426461E+02  0.17770000000E+01 0. -1.
</event>
<event>
 6    1  0.1097339E-002  0.1830448E+03  0.7546771E-02  0.1068022E+00
        -11   -1    0    0    0    0  0.00000000000E+00  0.00000000000E+00  0.18250000000E+03  0.18250000000E+03  0.00000000000E+00 0. -1.
         11   -1    0    0    0    0 -0.00000000000E+00 -0.00000000000E+00 -0.18250000000E+03  0.18250000000E+03  0.00000000000E+00 0.  1.
        -11    1    1    2    0    0 -0.38891826505E+01 -0.27101008441E+01  0.18189348470E+03  0.18195524221E+03  0.00000000000E+00 0. -1.
         11    1    1    2    0    0 -0.16151905407E+01  0.58226902249E+01 -0.12662533197E+03  0.12676942557E+03  0.00000000000E+00 0.  1.
        -15    1    1    2    0    0  0.52382902074E+01 -0.36903140692E+01 -0.22734725765E+02  0.23687203018E+02  0.17770000000E+01 0. -1.
         15    1    1    2    0    0  0.26608298391E+00  0.57772468838E+00 -0.32533426965E+02  0.32588129205E+02  0.17770000000E+01 0.  1.
</event>
<event>
 6    1  0.1097339E-002  0.1396432E+03  0.7546771E-02  0.1108838E+00
        -11   -1    0    0    0    0  0.00000000000E+00  0.00000000000E+00  0.18250000000E+03  0.18250000000E+03  0.00000000000E+00 0. -1.
         11   -1    0    0    0    0 -0.00000000000E+00 -0.00000000000E+00 -0.18250000000E+03  0.18250000000E+03  0.00000000000E+00 0.  1.
        -11    1    1    2    0    0  0.10750559013E+01 -0.27367163068E+01  0.15251126215E+03  0.15253960287E+03  0.00000000000E+00 0. -1.
         11    1    1    2    0    0  0.26106460433E+01 -0.12152057477E+01 -0.21829581250E+02  0.22018692407E+02  0.00000000000E+00 0.  1.
        -15    1    1    2    0    0 -0.21146224317E+02 -0.49275819625E+02 -0.12258736778E+03  0.13381363783E+03  0.17770000000E+01 0. -1.
         15    1    1    2    0    0  0.17460522372E+02  0.53227741680E+02 -0.80943131226E+01  0.56628066891E+02  0.17770000000E+01 0.  1.
</event>
<event>
 6    1  0.1097339E-002  0.1842707E+03  0.7546771E-02  0.1067054E+00
        -11   -1    0    0    0    0  0.00000000000E+00  0.00000000000E+00  0.18250000000E+03  0.18250000000E+03  0.00000000000E+00 0.  1.
         11   -1    0    0    0    0 -0.00000000000E+00 -0.00000000000E+00 -0.18250000000E+03  0.18250000000E+03  0.00000000000E+00 0. -1.
        -11    1    1    2    0    0  0.54627332026E+01  0.25221812053E+01  0.16286837982E+03  0.16297948336E+03  0.00000000000E+00 0.  1.
         11    1    1    2    0    0  0.49422886031E+00 -0.30063249453E+01 -0.18070357389E+03  0.18072925570E+03  0.00000000000E+00 0. -1.
        -15    1    1    2    0    0 -0.21229862176E+01 -0.19433609382E+01  0.15541043557E+02  0.15904888747E+02  0.17770000000E+01 0. -1.
         15    1    1    2    0    0 -0.38339758453E+01  0.24275046781E+01  0.22941505089E+01  0.53863721838E+01  0.17770000000E+01 0.  1.
</event>
<event>
 6    1  0.1097339E-002  0.1830687E+03  0.7546771E-02  0.1068003E+00
        -11   -1    0    0    0    0  0.00000000000E+00  0.00000000000E+00  0.18250000000E+03  0.18250000000E+03  0.00000000000E+00 0.  1.
         11   -1    0    0    0    0 -0.00000000000E+00 -0.00000000000E+00 -0.18250000000E+03  0.18250000000E+03  0.00000000000E+00 0.  1.
        -11    1    1    2    0    0 -0.51513928565E+01 -0.17002670780E+01  0.15684078641E+03  0.15693457247E+03  0.00000000000E+00 0.  1.
         11    1    1    2    0    0  0.48676801750E+00  0.42312807713E+01 -0.18188143377E+03  0.18193129646E+03  0.00000000000E+00 0.  1.
        -15    1    1    2    0    0  0.10537612775E+00 -0.65634549501E+00  0.10682043555E+02  0.10849224721E+02  0.17770000000E+01 0.  1.
         15    1    1    2    0    0  0.45592487113E+01 -0.18746681983E+01  0.14358603809E+02  0.15284906346E+02  0.17770000000E+01 0. -1.
</event>
<event>
 6    1  0.1097339E-002  0.1850613E+03  0.7546771E-02  0.1066434E+00
        -11   -1    0    0    0    0  0.00000000000E+00  0.00000000000E+00  0.18250000000E+03  0.18250000000E+03  0.00000000000E+00 0.  1.
         11   -1    0    0    0    0 -0.00000000000E+00 -0.00000000000E+00 -0.18250000000E+03  0.18250000000E+03  0.00000000000E+00 0. -1.
        -11    1    1    2    0    0  0.10574602466E+01 -0.38681606533E+01  0.17989403034E+03  0.17993872024E+03  0.00000000000E+00 0.  1.
         11    1    1    2    0    0 -0.57812558400E+01  0.34976867539E+01 -0.15471684302E+03  0.15486432206E+03  0.00000000000E+00 0. -1.
        -15    1    1    2    0    0  0.48223426771E+01 -0.83664828235E+00 -0.28789850707E+00  0.52149385226E+01  0.17770000000E+01 0.  1.
         15    1    1    2    0    0 -0.98547083666E-01  0.12071221817E+01 -0.24889288817E+02  0.24982019180E+02  0.17770000000E+01 0. -1.
</event>
<event>
 6    1  0.1097339E-002  0.1842025E+03  0.7546771E-02  0.1067108E+00
        -11   -1    0    0    0    0  0.00000000000E+00  0.00000000000E+00  0.18250000000E+03  0.18250000000E+03  0.00000000000E+00 0. -1.
         11   -1    0    0    0    0 -0.00000000000E+00 -0.00000000000E+00 -0.18250000000E+03  0.18250000000E+03  0.00000000000E+00 0. -1.
        -11    1    1    2    0    0  0.67612999940E+01 -0.56234504277E+01  0.12665249758E+03  0.12695744766E+03  0.00000000000E+00 0. -1.
         11    1    1    2    0    0 -0.90473467434E+01  0.23604179697E+01 -0.18055557173E+03  0.18079751254E+03  0.00000000000E+00 0. -1.
        -15    1    1    2    0    0  0.47209754204E+01  0.72200896659E+01  0.11176509391E+02  0.14229876840E+02  0.17770000000E+01 0.  1.
         15    1    1    2    0    0 -0.24349286710E+01 -0.39570572078E+01  0.42726564760E+02  0.43015162962E+02  0.17770000000E+01 0. -1.
</event>
<event>
 6    1  0.1097339E-002  0.1843769E+03  0.7546771E-02  0.1066971E+00
        -11   -1    0    0    0    0  0.00000000000E+00  0.00000000000E+00  0.18250000000E+03  0.18250000000E+03  0.00000000000E+00 0.  1.
         11   -1    0    0    0    0 -0.00000000000E+00 -0.00000000000E+00 -0.18250000000E+03  0.18250000000E+03  0.00000000000E+00 0.  1.
        -11    1    1    2    0    0  0.18106642211E+01  0.94977146498E+00  0.13997842239E+03  0.13999335450E+03  0.00000000000E+00 0.  1.
         11    1    1    2    0    0 -0.35561693371E+01 -0.32898499477E+01 -0.18055808427E+03  0.18062306400E+03  0.00000000000E+00 0.  1.
        -15    1    1    2    0    0  0.23894071489E+01 -0.16319513527E+01 -0.16742609797E+00  0.33997488494E+01  0.17770000000E+01 0.  1.
         15    1    1    2    0    0 -0.64390203286E+00  0.39720298355E+01  0.40747087980E+02  0.40983832650E+02  0.17770000000E+01 0. -1.
</event>
<event>
 6    1  0.1097339E-002  0.1739027E+03  0.7546771E-02  0.1075512E+00
        -11   -1    0    0    0    0  0.00000000000E+00  0.00000000000E+00  0.18250000000E+03  0.18250000000E+03  0.00000000000E+00 0. -1.
         11   -1    0    0    0    0 -0.00000000000E+00 -0.00000000000E+00 -0.18250000000E+03  0.18250000000E+03  0.00000000000E+00 0.  1.
        -11    1    1    2    0    0  0.15190156291E+01  0.55986242293E+01  0.17525616963E+03  0.17535215138E+03  0.00000000000E+00 0. -1.
         11    1    1    2    0    0  0.19357429333E+01  0.36632769645E+01 -0.17255449706E+03  0.17260423273E+03  0.00000000000E+00 0.  1.
        -15    1    1    2    0    0 -0.52518886840E+01 -0.11873014263E+02 -0.28363260115E+01  0.13407209876E+02  0.17770000000E+01 0. -1.
         15    1    1    2    0    0  0.17971301216E+01  0.26111130687E+01  0.13465344688E+00  0.36364060117E+01  0.17770000000E+01 0. -1.
</event>
<event>
 6    1  0.1097339E-002  0.1835159E+03  0.7546771E-02  0.1067649E+00
        -11   -1    0    0    0    0  0.00000000000E+00  0.00000000000E+00  0.18250000000E+03  0.18250000000E+03  0.00000000000E+00 0. -1.
         11   -1    0    0    0    0 -0.00000000000E+00 -0.00000000000E+00 -0.18250000000E+03  0.18250000000E+03  0.00000000000E+00 0. -1.
        -11    1    1    2    0    0  0.12563501699E+01 -0.34445766915E+01  0.18144703827E+03  0.18148407980E+03  0.00000000000E+00 0. -1.
         11    1    1    2    0    0  0.44177146285E+01  0.92331819055E+00 -0.15443181816E+03  0.15449775137E+03  0.00000000000E+00 0. -1.
        -15    1    1    2    0    0  0.16507068511E+01  0.16436295700E+01 -0.60532612998E+01  0.67250317944E+01  0.17770000000E+01 0. -1.
         15    1    1    2    0    0 -0.73247716496E+01  0.87762893094E+00 -0.20961958818E+02  0.22293137032E+02  0.17770000000E+01 0.  1.
</event>
<event>
 6    1  0.1097339E-002  0.1852027E+03  0.7546771E-02  0.1066324E+00
        -11   -1    0    0    0    0  0.00000000000E+00  0.00000000000E+00  0.18250000000E+03  0.18250000000E+03  0.00000000000E+00 0.  1.
         11   -1    0    0    0    0 -0.00000000000E+00 -0.00000000000E+00 -0.18250000000E+03  0.18250000000E+03  0.00000000000E+00 0. -1.
        -11    1    1    2    0    0  0.10145789190E+01  0.28036958301E+01  0.17977253626E+03  0.17979726047E+03  0.00000000000E+00 0.  1.
         11    1    1    2    0    0  0.68781004452E+01 -0.18982814734E+01 -0.15985717749E+03  0.16001633958E+03  0.00000000000E+00 0. -1.
        -15    1    1    2    0    0 -0.54329073244E+01  0.36101334562E+01 -0.18303532371E+02  0.19512215964E+02  0.17770000000E+01 0.  1.
         15    1    1    2    0    0 -0.24597720398E+01 -0.45155478129E+01 -0.16118263933E+01  0.56741839819E+01  0.17770000000E+01 0.  1.
</event>
<event>
 6    1  0.1097339E-002  0.1844897E+03  0.7546771E-02  0.1066882E+00
        -11   -1    0    0    0    0  0.00000000000E+00  0.00000000000E+00  0.18250000000E+03  0.18250000000E+03  0.00000000000E+00 0.  1.
         11   -1    0    0    0    0 -0.00000000000E+00 -0.00000000000E+00 -0.18250000000E+03  0.18250000000E+03  0.00000000000E+00 0.  1.
        -11    1    1    2    0    0  0.35431057674E+01 -0.20071282214E+01  0.12770672953E+03  0.12777163586E+03  0.00000000000E+00 0.  1.
         11    1    1    2    0    0 -0.71633200904E+00 -0.57418489893E+01 -0.18041757750E+03  0.18051034384E+03  0.00000000000E+00 0.  1.
        -15    1    1    2    0    0 -0.85465986185E+00  0.96949064957E+00 -0.10718349277E+01  0.24447729366E+01  0.17770000000E+01 0.  1.
         15    1    1    2    0    0 -0.19721138965E+01  0.67794865611E+01  0.53782682899E+02  0.54273247369E+02  0.17770000000E+01 0. -1.
</event>
<event>
 6    1  0.1097339E-002  0.1837536E+03  0.7546771E-02  0.1067461E+00
        -11   -1    0    0    0    0  0.00000000000E+00  0.00000000000E+00  0.18250000000E+03  0.18250000000E+03  0.00000000000E+00 0.  1.
         11   -1    0    0    0    0 -0.00000000000E+00 -0.00000000000E+00 -0.18250000000E+03  0.18250000000E+03  0.00000000000E+00 0. -1.
        -11    1    1    2    0    0  0.77823096488E+01 -0.41915027028E+01  0.18103068127E+03  0.18124635334E+03  0.00000000000E+00 0.  1.
         11    1    1    2    0    0 -0.40462664702E+00 -0.15119160004E+01 -0.37567067567E+02  0.37599656624E+02  0.00000000000E+00 0. -1.
        -15    1    1    2    0    0  0.70149188581E+01  0.12031860937E+01 -0.96897983011E+02  0.97175272492E+02  0.17770000000E+01 0. -1.
         15    1    1    2    0    0 -0.14392601860E+02  0.45002326095E+01 -0.46565630689E+02  0.48978717545E+02  0.17770000000E+01 0. -1.
</event>
<event>
 6    1  0.1097339E-002  0.1828962E+03  0.7546771E-02  0.1068140E+00
        -11   -1    0    0    0    0  0.00000000000E+00  0.00000000000E+00  0.18250000000E+03  0.18250000000E+03  0.00000000000E+00 0. -1.
         11   -1    0    0    0    0 -0.00000000000E+00 -0.00000000000E+00 -0.18250000000E+03  0.18250000000E+03  0.00000000000E+00 0.  1.
        -11    1    1    2    0    0  0.16245084006E+01 -0.13060489813E+01  0.12957364603E+03  0.12959041067E+03  0.00000000000E+00 0. -1.
         11    1    1    2    0    0 -0.29777351496E-01  0.25142971081E+01 -0.18208648482E+03  0.18210384545E+03  0.00000000000E+00 0.  1.
        -15    1    1    2    0    0 -0.18671780895E+01  0.10222403555E+01  0.47099885846E+02  0.47181440261E+02  0.17770000000E+01 0.  1.
         15    1    1    2    0    0  0.27244704038E+00 -0.22304884824E+01  0.54129529355E+01  0.61243036128E+01  0.17770000000E+01 0.  1.
</event>
<event>
 6    1  0.1097339E-002  0.1843372E+03  0.7546771E-02  0.1067002E+00
        -11   -1    0    0    0    0  0.00000000000E+00  0.00000000000E+00  0.18250000000E+03  0.18250000000E+03  0.00000000000E+00 0. -1.
         11   -1    0    0    0    0 -0.00000000000E+00 -0.00000000000E+00 -0.18250000000E+03  0.18250000000E+03  0.00000000000E+00 0. -1.
        -11    1    1    2    0    0  0.32625738039E+01 -0.13386344983E+01  0.18062837124E+03  0.18066279314E+03  0.00000000000E+00 0. -1.
         11    1    1    2    0    0  0.45728121974E+01 -0.32507135633E+01 -0.69906503399E+02  0.70131283800E+02  0.00000000000E+00 0. -1.
        -15    1    1    2    0    0 -0.46640572124E+01  0.23746985133E+01 -0.27924340287E+01  0.61925793911E+01  0.17770000000E+01 0. -1.
         15    1    1    2    0    0 -0.31713287889E+01  0.22146495482E+01 -0.10792943381E+03  0.10801334367E+03  0.17770000000E+01 0. -1.
</event>
<event>
 6    1  0.1413949E-002  0.1826161E+03  0.7546771E-02  0.1068362E+00
        -11   -1    0    0    0    0  0.00000000000E+00  0.00000000000E+00  0.18250000000E+03  0.18250000000E+03  0.00000000000E+00 0.  1.
         11   -1    0    0    0    0 -0.00000000000E+00 -0.00000000000E+00 -0.18250000000E+03  0.18250000000E+03  0.00000000000E+00 0.  1.
        -11    1    1    2    0    0 -0.14820796582E+01  0.22707202847E+01  0.18236376566E+03  0.18238392406E+03  0.00000000000E+00 0.  1.
         11    1    1    2    0    0  0.65260142238E+00 -0.25716910652E+00 -0.33704099616E+02  0.33711398006E+02  0.00000000000E+00 0.  1.
        -15    1    1    2    0    0  0.82104515573E+00  0.27585543777E+01 -0.68457875914E+02  0.68541390714E+02  0.17770000000E+01 0.  1.
         15    1    1    2    0    0  0.84330800811E-02 -0.47721055559E+01 -0.80201790132E+02  0.80363287215E+02  0.17770000000E+01 0.  1.
</event>
<event>
 6    1  0.1097339E-002  0.1866182E+03  0.7546771E-02  0.1065223E+00
        -11   -1    0    0    0    0  0.00000000000E+00  0.00000000000E+00  0.18250000000E+03  0.18250000000E+03  0.00000000000E+00 0.  1.
         11   -1    0    0    0    0 -0.00000000000E+00 -0.00000000000E+00 -0.18250000000E+03  0.18250000000E+03  0.00000000000E+00 0.  1.
        -11    1    1    2    0    0 -0.37754452006E+01  0.46781470107E+01  0.17115374008E+03  0.17125928235E+03  0.00000000000E+00 0.  1.
         11    1    1    2    0    0  0.49623716052E+01 -0.16084100712E+01 -0.17830554556E+03  0.17838183678E+03  0.00000000000E+00 0.  1.
        -15    1    1    2    0    0  0.42073208323E+01 -0.23963773303E+01  0.80590504963E+01  0.95681867037E+01  0.17770000000E+01 0. -1.
         15    1    1    2    0    0 -0.53942472369E+01 -0.67335960908E+00 -0.90724501921E+00  0.57906941674E+01  0.17770000000E+01 0.  1.
</event>
<event>
 6    1  0.1097339E-002  0.1831288E+03  0.7546771E-02  0.1067955E+00
        -11   -1    0    0    0    0  0.00000000000E+00  0.00000000000E+00  0.18250000000E+03  0.18250000000E+03  0.00000000000E+00 0. -1.
         11   -1    0    0    0    0 -0.00000000000E+00 -0.00000000000E+00 -0.18250000000E+03  0.18250000000E+03  0.00000000000E+00 0. -1.
        -11    1    1    2    0    0  0.54931666383E+01 -0.21491982905E+01  0.18177548609E+03  0.18187116670E+03  0.00000000000E+00 0. -1.
         11    1    1    2    0    0  0.22242738295E+01  0.36988607237E+00 -0.82298516445E+02  0.82329399480E+02  0.00000000000E+00 0. -1.
        -15    1    1    2    0    0 -0.10420124464E+02  0.74027168120E+00 -0.91733397262E+02  0.92343385785E+02  0.17770000000E+01 0. -1.
         15    1    1    2    0    0  0.27026839957E+01  0.10390405369E+01 -0.77435723865E+01  0.84560480322E+01  0.17770000000E+01 0.  1.
</event>
<event>
 6    1  0.1097339E-002  0.1889773E+03  0.7546771E-02  0.1063413E+00
        -11   -1    0    0    0    0  0.00000000000E+00  0.00000000000E+00  0.18250000000E+03  0.18250000000E+03  0.00000000000E+00 0. -1.
         11   -1    0    0    0    0 -0.00000000000E+00 -0.00000000000E+00 -0.18250000000E+03  0.18250000000E+03  0.00000000000E+00 0.  1.
        -11    1    1    2    0    0 -0.37042790024E+01 -0.25294081385E+01  0.16748120875E+03  0.16754126319E+03  0.00000000000E+00 0. -1.
         11    1    1    2    0    0 -0.31938802077E+01  0.20239487196E+01 -0.17598204503E+03  0.17602266164E+03  0.00000000000E+00 0.  1.
        -15    1    1    2    0    0  0.31014954019E+01 -0.25042271895E+01  0.13538364456E+02  0.14224467255E+02  0.17770000000E+01 0. -1.
         15    1    1    2    0    0  0.37966638083E+01  0.30096866084E+01 -0.50375281739E+01  0.72116079106E+01  0.17770000000E+01 0.  1.
</event>
<event>
 6    1  0.1097339E-002  0.1771048E+03  0.7546771E-02  0.1072832E+00
        -11   -1    0    0    0    0  0.00000000000E+00  0.00000000000E+00  0.18250000000E+03  0.18250000000E+03  0.00000000000E+00 0. -1.
         11   -1    0    0    0    0 -0.00000000000E+00 -0.00000000000E+00 -0.18250000000E+03  0.18250000000E+03  0.00000000000E+00 0. -1.
        -11    1    1    2    0    0 -0.24059118429E+01 -0.10344841097E+01  0.17708995054E+03  0.17710931412E+03  0.00000000000E+00 0. -1.
         11    1    1    2    0    0  0.10243738222E+01 -0.29220319355E+01 -0.17709801451E+03  0.17712508111E+03  0.00000000000E+00 0. -1.
        -15    1    1    2    0    0  0.17055962706E+01 -0.22784542143E+01  0.20846706710E+01  0.39501889894E+01  0.17770000000E+01 0.  1.
         15    1    1    2    0    0 -0.32405824980E+00  0.62349702595E+01 -0.20766066925E+01  0.68154157791E+01  0.17770000000E+01 0. -1.
</event>
<event>
 6    1  0.1097339E-002  0.1849048E+03  0.7546771E-02  0.1066557E+00
        -11   -1    0    0    0    0  0.00000000000E+00  0.00000000000E+00  0.18250000000E+03  0.18250000000E+03  0.00000000000E+00 0. -1.
         11   -1    0    0    0    0 -0.00000000000E+00 -0.00000000000E+00 -0.18250000000E+03  0.18250000000E+03  0.00000000000E+00 0.  1.
        -11    1    1    2    0    0 -0.41582208560E+01  0.18624217561E+01  0.18003755851E+03  0.18009520229E+03  0.00000000000E+00 0. -1.
         11    1    1    2    0    0  0.34324710174E+01  0.77948226117E+00 -0.14086739192E+03  0.14091136064E+03  0.00000000000E+00 0.  1.
        -15    1    1    2    0    0  0.20120766305E+01 -0.39108558831E+00  0.15685853229E+01  0.31336223799E+01  0.17770000000E+01 0. -1.
         15    1    1    2    0    0 -0.12863267919E+01 -0.22508184290E+01 -0.40738751912E+02  0.40859814691E+02  0.17770000000E+01 0. -1.
</event>
<event>
 6    1  0.1097339E-002  0.1828010E+03  0.7546771E-02  0.1068215E+00
        -11   -1    0    0    0    0  0.00000000000E+00  0.00000000000E+00  0.18250000000E+03  0.18250000000E+03  0.00000000000E+00 0. -1.
         11   -1    0    0    0    0 -0.00000000000E+00 -0.00000000000E+00 -0.18250000000E+03  0.18250000000E+03  0.00000000000E+00 0.  1.
        -11    1    1    2    0    0 -0.14895980816E+01  0.19170685048E+01  0.15037098481E+02  0.15231821455E+02  0.00000000000E+00 0. -1.
         11    1    1    2    0    0  0.57014765304E+01  0.24344463798E+01 -0.18209345728E+03  0.18219895869E+03  0.00000000000E+00 0.  1.
        -15    1    1    2    0    0 -0.17067961514E+01  0.88377093408E+00  0.12942757074E+03  0.12945403818E+03  0.17770000000E+01 0. -1.
         15    1    1    2    0    0 -0.25050822973E+01 -0.52352858187E+01  0.37628788053E+02  0.38115181677E+02  0.17770000000E+01 0.  1.
</event>
<event>
 6    1  0.1097339E-002  0.1698309E+03  0.7546771E-02  0.1079012E+00
        -11   -1    0    0    0    0  0.00000000000E+00  0.00000000000E+00  0.18250000000E+03  0.18250000000E+03  0.00000000000E+00 0.  1.
         11   -1    0    0    0    0 -0.00000000000E+00 -0.00000000000E+00 -0.18250000000E+03  0.18250000000E+03  0.00000000000E+00 0.  1.
        -11    1    1    2    0    0  0.47163897625E+01  0.39844728087E+01  0.17048150172E+03  0.17059326711E+03  0.00000000000E+00 0.  1.
         11    1    1    2    0    0  0.25322203029E+01  0.23054112880E+00 -0.16915549969E+03  0.16917460911E+03  0.00000000000E+00 0.  1.
        -15    1    1    2    0    0 -0.77920397506E+01 -0.37097303126E+01  0.10238794042E+02  0.13508094422E+02  0.17770000000E+01 0. -1.
         15    1    1    2    0    0  0.54342968523E+00 -0.50528362489E+00 -0.11564796067E+02  0.11724029360E+02  0.17770000000E+01 0.  1.
</event>
<event>
 6    1  0.1097339E-002  0.1353777E+03  0.7546771E-02  0.1113721E+00
        -11   -1    0    0    0    0  0.00000000000E+00  0.00000000000E+00  0.18250000000E+03  0.18250000000E+03  0.00000000000E+00 0. -1.
         11   -1    0    0    0    0 -0.00000000000E+00 -0.00000000000E+00 -0.18250000000E+03  0.18250000000E+03  0.00000000000E+00 0. -1.
        -11    1    1    2    0    0 -0.40288104238E+00 -0.34444745177E+01  0.20393806724E+02  0.20686567394E+02  0.00000000000E+00 0. -1.
         11    1    1    2    0    0 -0.25254895116E+01  0.85074335082E+00 -0.69127941119E+02  0.69179289566E+02  0.00000000000E+00 0. -1.
        -15    1    1    2    0    0 -0.14851480467E+02 -0.33315735952E+00 -0.11219574147E+03  0.11318886694E+03  0.17770000000E+01 0.  1.
         15    1    1    2    0    0  0.17779851021E+02  0.29268885264E+01  0.16092987586E+03  0.16194527610E+03  0.17770000000E+01 0. -1.
</event>
<event>
 6    1  0.1097339E-002  0.1850356E+03  0.7546771E-02  0.1066454E+00
        -11   -1    0    0    0    0  0.00000000000E+00  0.00000000000E+00  0.18250000000E+03  0.18250000000E+03  0.00000000000E+00 0. -1.
         11   -1    0    0    0    0 -0.00000000000E+00 -0.00000000000E+00 -0.18250000000E+03  0.18250000000E+03  0.00000000000E+00 0.  1.
        -11    1    1    2    0    0  0.26492198872E+01  0.35568581490E+01  0.17519638667E+03  0.17525251356E+03  0.00000000000E+00 0. -1.
         11    1    1    2    0    0 -0.43260402137E+01 -0.21493595316E+01 -0.17989958635E+03  0.17996442854E+03  0.00000000000E+00 0.  1.
        -15    1    1    2    0    0 -0.99972202925E+00 -0.34767457502E+01  0.43734231378E+01  0.59474165896E+01  0.17770000000E+01 0.  1.
         15    1    1    2    0    0  0.26765423557E+01  0.20692471328E+01  0.32977654543E+00  0.38356413086E+01  0.17770000000E+01 0. -1.
</event>
<event>
 6    1  0.1097339E-002  0.1861775E+03  0.7546771E-02  0.1065565E+00
        -11   -1    0    0    0    0  0.00000000000E+00  0.00000000000E+00  0.18250000000E+03  0.18250000000E+03  0.00000000000E+00 0. -1.
         11   -1    0    0    0    0 -0.00000000000E+00 -0.00000000000E+00 -0.18250000000E+03  0.18250000000E+03  0.00000000000E+00 0. -1.
        -11    1    1    2    0    0  0.18799562393E+01  0.24830391824E+01  0.17879538199E+03  0.17882250513E+03  0.00000000000E+00 0. -1.
         11    1    1    2    0    0 -0.47181192085E+00 -0.42172212426E+01 -0.16892263140E+03  0.16897592421E+03  0.00000000000E+00 0. -1.
        -15    1    1    2    0    0 -0.73404713183E+01 -0.32185840149E+00 -0.54344592313E+01  0.93100584392E+01  0.17770000000E+01 0.  1.
         15    1    1    2    0    0  0.59323269998E+01  0.20560404617E+01 -0.44382913580E+01  0.78915122246E+01  0.17770000000E+01 0. -1.
</event>
<event>
 6    1  0.1097339E-002  0.1905656E+03  0.7546771E-02  0.1062210E+00
        -11   -1    0    0    0    0  0.00000000000E+00  0.00000000000E+00  0.18250000000E+03  0.18250000000E+03  0.00000000000E+00 0.  1.
         11   -1    0    0    0    0 -0.00000000000E+00 -0.00000000000E+00 -0.18250000000E+03  0.18250000000E+03  0.00000000000E+00 0.  1.
        -11    1    1    2    0    0  0.30522485983E+01 -0.30847527377E+00  0.16765973216E+03  0.16768779672E+03  0.00000000000E+00 0.  1.
         11    1    1    2    0    0  0.48589726378E+01 -0.33568068806E+01 -0.17433443544E+03  0.17443443797E+03  0.00000000000E+00 0.  1.
        -15    1    1    2    0    0 -0.11230192366E+02  0.89852691315E+01  0.15255798816E+01  0.14571801705E+02  0.17770000000E+01 0.  1.
         15    1    1    2    0    0  0.33189711302E+01 -0.53199869771E+01  0.51491233963E+01  0.83059636136E+01  0.17770000000E+01 0. -1.
</event>
<event>
 6    1  0.1097339E-002  0.1827153E+03  0.7546771E-02  0.1068284E+00
        -11   -1    0    0    0    0  0.00000000000E+00  0.00000000000E+00  0.18250000000E+03  0.18250000000E+03  0.00000000000E+00 0.  1.
         11   -1    0    0    0    0 -0.00000000000E+00 -0.00000000000E+00 -0.18250000000E+03  0.18250000000E+03  0.00000000000E+00 0. -1.
        -11    1    1    2    0    0 -0.20542375870E+01  0.39815517572E+00  0.10962799968E+03  0.10964796730E+03  0.00000000000E+00 0.  1.
         11    1    1    2    0    0  0.43471307145E+01 -0.14195060394E+01 -0.18222729321E+03  0.18228466456E+03  0.00000000000E+00 0. -1.
        -15    1    1    2    0    0  0.11910294972E+01 -0.12785178569E+00  0.53262442724E+02  0.53305538467E+02  0.17770000000E+01 0.  1.
         15    1    1    2    0    0 -0.34839226247E+01  0.11492026494E+01  0.19336850813E+02  0.19761829671E+02  0.17770000000E+01 0. -1.
</event>
<event>
 6    1  0.1097339E-002  0.1779557E+03  0.7546771E-02  0.1072131E+00
        -11   -1    0    0    0    0  0.00000000000E+00  0.00000000000E+00  0.18250000000E+03  0.18250000000E+03  0.00000000000E+00 0. -1.
         11   -1    0    0    0    0 -0.00000000000E+00 -0.00000000000E+00 -0.18250000000E+03  0.18250000000E+03  0.00000000000E+00 0.  1.
        -11    1    1    2    0    0 -0.50431976436E+01  0.87762183182E-01  0.17751264086E+03  0.17758428762E+03  0.00000000000E+00 0. -1.
         11    1    1    2    0    0 -0.21437969548E+01 -0.17780431615E+01 -0.17838300408E+03  0.17840474615E+03  0.00000000000E+00 0.  1.
        -15    1    1    2    0    0  0.11271792854E+01  0.23274842983E+00 -0.88769054683E+00  0.22957413792E+01  0.17770000000E+01 0. -1.
         15    1    1    2    0    0  0.60598153130E+01  0.14575325485E+01  0.17580537697E+01  0.67152248522E+01  0.17770000000E+01 0.  1.
</event>
<event>
 6    1  0.1097339E-002  0.1748707E+03  0.7546771E-02  0.1074695E+00
        -11   -1    0    0    0    0  0.00000000000E+00  0.00000000000E+00  0.18250000000E+03  0.18250000000E+03  0.00000000000E+00 0. -1.
         11   -1    0    0    0    0 -0.00000000000E+00 -0.00000000000E+00 -0.18250000000E+03  0.18250000000E+03  0.00000000000E+00 0. -1.
        -11    1    1    2    0    0 -0.21604960497E+00 -0.33197900106E+01  0.17301944182E+03  0.17305142280E+03  0.00000000000E+00 0. -1.
         11    1    1    2    0    0  0.36353710685E+01 -0.28313329739E+01 -0.17672021544E+03  0.17678027864E+03  0.00000000000E+00 0. -1.
        -15    1    1    2    0    0 -0.46694919466E+01  0.59903575515E+01 -0.28189934018E+01  0.82941540517E+01  0.17770000000E+01 0. -1.
         15    1    1    2    0    0  0.12501704830E+01  0.16076543299E+00  0.65197670234E+01  0.68741445141E+01  0.17770000000E+01 0.  1.
</event>
<event>
 6    1  0.1097339E-002  0.1829806E+03  0.7546771E-02  0.1068073E+00
        -11   -1    0    0    0    0  0.00000000000E+00  0.00000000000E+00  0.18250000000E+03  0.18250000000E+03  0.00000000000E+00 0. -1.
         11   -1    0    0    0    0 -0.00000000000E+00 -0.00000000000E+00 -0.18250000000E+03  0.18250000000E+03  0.00000000000E+00 0. -1.
        -11    1    1    2    0    0  0.12200467949E+01 -0.54098505266E+01  0.13215377903E+03  0.13227008849E+03  0.00000000000E+00 0. -1.
         11    1    1    2    0    0 -0.35111311120E+01  0.24743273336E+01 -0.18196874079E+03  0.18201943018E+03  0.00000000000E+00 0. -1.
        -15    1    1    2    0    0  0.24522793379E+01 -0.41151967143E+00  0.60181107316E+01  0.67496968946E+01  0.17770000000E+01 0. -1.
         15    1    1    2    0    0 -0.16119502077E+00  0.33470428644E+01  0.43796851029E+02  0.43960784443E+02  0.17770000000E+01 0.  1.
</event>
<event>
 6    1  0.1097339E-002  0.1826775E+03  0.7546771E-02  0.1068314E+00
        -11   -1    0    0    0    0  0.00000000000E+00  0.00000000000E+00  0.18250000000E+03  0.18250000000E+03  0.00000000000E+00 0.  1.
         11   -1    0    0    0    0 -0.00000000000E+00 -0.00000000000E+00 -0.18250000000E+03  0.18250000000E+03  0.00000000000E+00 0. -1.
        -11    1    1    2    0    0 -0.16850131624E+01  0.10265240518E+01  0.42653065202E+02  0.42698676702E+02  0.00000000000E+00 0.  1.
         11    1    1    2    0    0  0.84836971373E+00 -0.34346332273E+01 -0.18228821783E+03  0.18232254605E+03  0.00000000000E+00 0. -1.
        -15    1    1    2    0    0  0.23115736991E+01 -0.24184788270E+00  0.11972395471E+03  0.11975969658E+03  0.17770000000E+01 0. -1.
         15    1    1    2    0    0 -0.14749302504E+01  0.26499570582E+01  0.19911197920E+02  0.20219080673E+02  0.17770000000E+01 0.  1.
</event>
<event>
 6    1  0.1097339E-002  0.1864584E+03  0.7546771E-02  0.1065347E+00
        -11   -1    0    0    0    0  0.00000000000E+00  0.00000000000E+00  0.18250000000E+03  0.18250000000E+03  0.00000000000E+00 0. -1.
         11   -1    0    0    0    0 -0.00000000000E+00 -0.00000000000E+00 -0.18250000000E+03  0.18250000000E+03  0.00000000000E+00 0. -1.
        -11    1    1    2    0    0 -0.30018741123E+01 -0.26269114270E+01  0.14163154115E+03  0.14168770363E+03  0.00000000000E+00 0. -1.
         11    1    1    2    0    0 -0.29111499946E+01 -0.88664823906E+00 -0.17851569699E+03  0.17854163383E+03  0.00000000000E+00 0. -1.
        -15    1    1    2    0    0  0.56668105915E+01 -0.91053863974E+01  0.25342472363E+02  0.27575703766E+02  0.17770000000E+01 0. -1.
         15    1    1    2    0    0  0.24621351532E+00  0.12618946063E+02  0.11541683476E+02  0.17194958776E+02  0.17770000000E+01 0.  1.
</event>
<event>
 6    1  0.1097339E-002  0.1884484E+03  0.7546771E-02  0.1063816E+00
        -11   -1    0    0    0    0  0.00000000000E+00  0.00000000000E+00  0.18250000000E+03  0.18250000000E+03  0.00000000000E+00 0. -1.
         11   -1    0    0    0    0 -0.00000000000E+00 -0.00000000000E+00 -0.18250000000E+03  0.18250000000E+03  0.00000000000E+00 0. -1.
        -11    1    1    2    0    0  0.58588921746E+01 -0.95014170820E+01  0.15053592557E+03  0.15094922468E+03  0.00000000000E+00 0. -1.
         11    1    1    2    0    0 -0.46475892927E+01 -0.43351776031E+01 -0.17643720398E+03  0.17655163777E+03  0.00000000000E+00 0. -1.
        -15    1    1    2    0    0 -0.86999134363E+01  0.13995617708E+02  0.24643417480E+02  0.29698847838E+02  0.17770000000E+01 0. -1.
         15    1    1    2    0    0  0.74886105544E+01 -0.15902302259E+00  0.12578609317E+01  0.78002897050E+01  0.17770000000E+01 0.  1.
</event>
<event>
 6    1  0.1097339E-002  0.1834860E+03  0.7546771E-02  0.1067673E+00
        -11   -1    0    0    0    0  0.00000000000E+00  0.00000000000E+00  0.18250000000E+03  0.18250000000E+03  0.00000000000E+00 0.  1.
         11   -1    0    0    0    0 -0.00000000000E+00 -0.00000000000E+00 -0.18250000000E+03  0.18250000000E+03  0.00000000000E+00 0.  1.
        -11    1    1    2    0    0  0.10426188508E+01  0.26139799491E+01  0.18149218403E+03  0.18151400168E+03  0.00000000000E+00 0.  1.
         11    1    1    2    0    0  0.21466946814E+01  0.17732417790E+01 -0.11295308294E+03  0.11298739589E+03  0.00000000000E+00 0.  1.
        -15    1    1    2    0    0 -0.40894446048E+01 -0.32329423458E+01 -0.67881114941E+02  0.68104177317E+02  0.17770000000E+01 0. -1.
         15    1    1    2    0    0  0.90013107263E+00 -0.11542793824E+01 -0.65798614795E+00  0.23944251108E+01  0.17770000000E+01 0.  1.
</event>
<event>
 6    1  0.1097339E-002  0.1827368E+03  0.7546771E-02  0.1068266E+00
        -11   -1    0    0    0    0  0.00000000000E+00  0.00000000000E+00  0.18250000000E+03  0.18250000000E+03  0.00000000000E+00 0.  1.
         11   -1    0    0    0    0 -0.00000000000E+00 -0.00000000000E+00 -0.18250000000E+03  0.18250000000E+03  0.00000000000E+00 0.  1.
        -11    1    1    2    0    0 -0.14382833412E+01 -0.27078727462E+01  0.51104695051E+02  0.51196592563E+02  0.00000000000E+00 0.  1.
         11    1    1    2    0    0  0.18251996592E+01 -0.16803161204E+01 -0.18224630398E+03  0.18226318918E+03  0.00000000000E+00 0.  1.
        -15    1    1    2    0    0 -0.40356329014E+01  0.21265019112E+01  0.90814338849E+02  0.90946194054E+02  0.17770000000E+01 0.  1.
         15    1    1    2    0    0  0.36487165835E+01  0.22616869554E+01  0.40327270075E+02  0.40594024207E+02  0.17770000000E+01 0. -1.
</event>
<event>
 6    1  0.1097339E-002  0.1826715E+03  0.7546771E-02  0.1068318E+00
        -11   -1    0    0    0    0  0.00000000000E+00  0.00000000000E+00  0.18250000000E+03  0.18250000000E+03  0.00000000000E+00 0.  1.
         11   -1    0    0    0    0 -0.00000000000E+00 -0.00000000000E+00 -0.18250000000E+03  0.18250000000E+03  0.00000000000E+00 0.  1.
        -11    1    1    2    0    0  0.28628161020E+01  0.49727296240E-01  0.18230605076E+03  0.18232853406E+03  0.00000000000E+00 0.  1.
         11    1    1    2    0    0 -0.22955712426E+00  0.62291391210E+00 -0.23469607011E+02  0.23478994260E+02  0.00000000000E+00 0.  1.
        -15    1    1    2    0    0 -0.22208667736E+01 -0.44358061453E+01 -0.12300329521E+03  0.12311611181E+03  0.17770000000E+01 0.  1.
         15    1    1    2    0    0 -0.41239220411E+00  0.37631649369E+01 -0.35833148543E+02  0.36076359866E+02  0.17770000000E+01 0. -1.
</event>
<event>
 6    1  0.1097339E-002  0.1830011E+03  0.7546771E-02  0.1068057E+00
        -11   -1    0    0    0    0  0.00000000000E+00  0.00000000000E+00  0.18250000000E+03  0.18250000000E+03  0.00000000000E+00 0. -1.
         11   -1    0    0    0    0 -0.00000000000E+00 -0.00000000000E+00 -0.18250000000E+03  0.18250000000E+03  0.00000000000E+00 0. -1.
        -11    1    1    2    0    0  0.54244655517E-02 -0.38697503153E+01  0.18195776005E+03  0.18199890504E+03  0.00000000000E+00 0. -1.
         11    1    1    2    0    0  0.24877174010E+01  0.29581245750E+00 -0.13913939380E+03  0.13916194576E+03  0.00000000000E+00 0. -1.
        -15    1    1    2    0    0 -0.28930252094E+00  0.51103788040E+01 -0.17578881950E+02  0.18394958198E+02  0.17770000000E+01 0. -1.
         15    1    1    2    0    0 -0.22038393456E+01 -0.15364409462E+01 -0.25239484300E+02  0.25444190994E+02  0.17770000000E+01 0. -1.
</event>
<event>
 6    1  0.1215284E-002  0.1978158E+03  0.7546771E-02  0.1056878E+00
        -11   -1    0    0    0    0  0.00000000000E+00  0.00000000000E+00  0.18250000000E+03  0.18250000000E+03  0.00000000000E+00 0.  1.
         11   -1    0    0    0    0 -0.00000000000E+00 -0.00000000000E+00 -0.18250000000E+03  0.18250000000E+03  0.00000000000E+00 0. -1.
        -11    1    1    2    0    0 -0.73626752838E+01 -0.15466609229E+00  0.16702193762E+03  0.16718421145E+03  0.00000000000E+00 0.  1.
         11    1    1    2    0    0  0.14430859828E+02  0.12012474345E+01 -0.15805659451E+03  0.15871855525E+03  0.00000000000E+00 0. -1.
        -15    1    1    2    0    0  0.49497705903E+01 -0.42586439180E+01  0.12505734273E+02  0.14219261431E+02  0.17770000000E+01 0.  1.
         15    1    1    2    0    0 -0.12017955134E+02  0.32120625759E+01 -0.21471077386E+02  0.24877971877E+02  0.17770000000E+01 0. -1.
</event>
<event>
 6    1  0.1097339E-002  0.1833758E+03  0.7546771E-02  0.1067760E+00
        -11   -1    0    0    0    0  0.00000000000E+00  0.00000000000E+00  0.18250000000E+03  0.18250000000E+03  0.00000000000E+00 0. -1.
         11   -1    0    0    0    0 -0.00000000000E+00 -0.00000000000E+00 -0.18250000000E+03  0.18250000000E+03  0.00000000000E+00 0.  1.
        -11    1    1    2    0    0 -0.31971181900E+01  0.20375838425E+01  0.18158457743E+03  0.18162415058E+03  0.00000000000E+00 0. -1.
         11    1    1    2    0    0 -0.29218371095E+01  0.37190601057E+00 -0.16038919440E+03  0.16041623710E+03  0.00000000000E+00 0.  1.
        -15    1    1    2    0    0  0.41349992889E+01 -0.15451988622E+01 -0.68321359728E+01  0.83259635835E+01  0.17770000000E+01 0.  1.
         15    1    1    2    0    0  0.19839560106E+01 -0.86429099083E+00 -0.14363247054E+02  0.14633648735E+02  0.17770000000E+01 0. -1.
</event>
<event>
 6    1  0.1097339E-002  0.1408490E+03  0.7546771E-02  0.1107492E+00
        -11   -1    0    0    0    0  0.00000000000E+00  0.00000000000E+00  0.18250000000E+03  0.18250000000E+03  0.00000000000E+00 0. -1.
         11   -1    0    0    0    0 -0.00000000000E+00 -0.00000000000E+00 -0.18250000000E+03  0.18250000000E+03  0.00000000000E+00 0.  1.
        -11    1    1    2    0    0 -0.25457361265E+02 -0.39503703418E+02  0.12726744045E+03  0.13566731819E+03  0.00000000000E+00 0. -1.
         11    1    1    2    0    0  0.59857134018E+00 -0.30582125612E+01 -0.15128513650E+03  0.15131722796E+03  0.00000000000E+00 0.  1.
        -15    1    1    2    0    0 -0.77461768416E-01  0.44710973456E+02  0.27742714870E+02  0.52648771164E+02  0.17770000000E+01 0. -1.
         15    1    1    2    0    0  0.24936251694E+02 -0.21490574768E+01 -0.37250188187E+01  0.25366682691E+02  0.17770000000E+01 0.  1.
</event>
<event>
 6    1  0.1097339E-002  0.2063784E+03  0.7546771E-02  0.1050892E+00
        -11   -1    0    0    0    0  0.00000000000E+00  0.00000000000E+00  0.18250000000E+03  0.18250000000E+03  0.00000000000E+00 0. -1.
         11   -1    0    0    0    0 -0.00000000000E+00 -0.00000000000E+00 -0.18250000000E+03  0.18250000000E+03  0.00000000000E+00 0.  1.
        -11    1    1    2    0    0  0.14595512565E+01  0.21433182195E+01  0.12463408340E+03  0.12466105586E+03  0.00000000000E+00 0. -1.
         11    1    1    2    0    0  0.41267175914E+00  0.11666890287E+02 -0.15819142321E+03  0.15862160321E+03  0.00000000000E+00 0.  1.
        -15    1    1    2    0    0  0.17013466682E+02 -0.33254361147E+01  0.51000880864E+02  0.53895863958E+02  0.17770000000E+01 0.  1.
         15    1    1    2    0    0 -0.18885689697E+02 -0.10484772392E+02 -0.17443541058E+02  0.27821476976E+02  0.17770000000E+01 0. -1.
</event>
<event>
 6    1  0.1097339E-002  0.1841434E+03  0.7546771E-02  0.1067154E+00
        -11   -1    0    0    0    0  0.00000000000E+00  0.00000000000E+00  0.18250000000E+03  0.18250000000E+03  0.00000000000E+00 0.  1.
         11   -1    0    0    0    0 -0.00000000000E+00 -0.00000000000E+00 -0.18250000000E+03  0.18250000000E+03  0.00000000000E+00 0.  1.
        -11    1    1    2    0    0  0.38082317955E+00 -0.81993046954E+00  0.49046995240E+02  0.49055326462E+02  0.00000000000E+00 0.  1.
         11    1    1    2    0    0  0.15568792069E+01  0.33355006558E+01 -0.18081912838E+03  0.18085659133E+03  0.00000000000E+00 0.  1.
        -15    1    1    2    0    0 -0.61701790101E+00  0.91232084403E+00  0.13089810380E+03  0.13091479805E+03  0.17770000000E+01 0.  1.
         15    1    1    2    0    0 -0.13206844855E+01 -0.34278910302E+01  0.87402934463E+00  0.41732841649E+01  0.17770000000E+01 0.  1.
</event>
<event>
 6    1  0.1097339E-002  0.1879342E+03  0.7546771E-02  0.1064210E+00
        -11   -1    0    0    0    0  0.00000000000E+00  0.00000000000E+00  0.18250000000E+03  0.18250000000E+03  0.00000000000E+00 0.  1.
         11   -1    0    0    0    0 -0.00000000000E+00 -0.00000000000E+00 -0.18250000000E+03  0.18250000000E+03  0.00000000000E+00 0.  1.
        -11    1    1    2    0    0  0.11997293763E+01  0.24311099354E+01  0.17704507497E+03  0.17706583018E+03  0.00000000000E+00 0.  1.
         11    1    1    2    0    0 -0.88253951862E+01 -0.10886939225E+00 -0.62900247533E+02  0.63516459225E+02  0.00000000000E+00 0.  1.
        -15    1    1    2    0    0 -0.74075113252E+01  0.71136095927E+01 -0.16922748372E+01  0.10559175564E+02  0.17770000000E+01 0. -1.
         15    1    1    2    0    0  0.15033177135E+02 -0.94358501359E+01 -0.11245255260E+03  0.11385853503E+03  0.17770000000E+01 0.  1.
</event>
<event>
 6    1  0.1097339E-002  0.1895604E+03  0.7546771E-02  0.1062970E+00
        -11   -1    0    0    0    0  0.00000000000E+00  0.00000000000E+00  0.18250000000E+03  0.18250000000E+03  0.00000000000E+00 0.  1.
         11   -1    0    0    0    0 -0.00000000000E+00 -0.00000000000E+00 -0.18250000000E+03  0.18250000000E+03  0.00000000000E+00 0. -1.
        -11    1    1    2    0    0  0.36295208411E+01 -0.15553346849E+01  0.17539511756E+03  0.17543956153E+03  0.00000000000E+00 0.  1.
         11    1    1    2    0    0 -0.18399988835E+01  0.78757298196E+01 -0.62069654067E+02  0.62594366137E+02  0.00000000000E+00 0. -1.
        -15    1    1    2    0    0  0.95984236021E+01 -0.20232579994E+02 -0.10444799823E+03  0.10683645956E+03  0.17770000000E+01 0.  1.
         15    1    1    2    0    0 -0.11387945560E+02  0.13912184859E+02 -0.88774652663E+01  0.20129612768E+02  0.17770000000E+01 0. -1.
</event>
<event>
 6    1  0.1097339E-002  0.2010933E+03  0.7546771E-02  0.1054548E+00
        -11   -1    0    0    0    0  0.00000000000E+00  0.00000000000E+00  0.18250000000E+03  0.18250000000E+03  0.00000000000E+00 0.  1.
         11   -1    0    0    0    0 -0.00000000000E+00 -0.00000000000E+00 -0.18250000000E+03  0.18250000000E+03  0.00000000000E+00 0. -1.
        -11    1    1    2    0    0 -0.14501653363E+01 -0.20810905383E+02  0.86986834971E+02  0.89453374563E+02  0.00000000000E+00 0.  1.
         11    1    1    2    0    0 -0.31730906672E+02 -0.25319379513E+02 -0.15880016169E+03  0.16390671972E+03  0.00000000000E+00 0. -1.
        -15    1    1    2    0    0  0.11672766134E+02  0.19501582389E+02  0.73864393706E+02  0.77302468082E+02  0.17770000000E+01 0.  1.
         15    1    1    2    0    0  0.21508305874E+02  0.26628702507E+02 -0.20510669923E+01  0.34337437639E+02  0.17770000000E+01 0.  1.
</event>
<event>
 6    1  0.1097339E-002  0.1875021E+03  0.7546771E-02  0.1064541E+00
        -11   -1    0    0    0    0  0.00000000000E+00  0.00000000000E+00  0.18250000000E+03  0.18250000000E+03  0.00000000000E+00 0.  1.
         11   -1    0    0    0    0 -0.00000000000E+00 -0.00000000000E+00 -0.18250000000E+03  0.18250000000E+03  0.00000000000E+00 0.  1.
        -11    1    1    2    0    0  0.31934812823E+01 -0.63896150629E+01  0.11086133647E+03  0.11109123020E+03  0.00000000000E+00 0.  1.
         11    1    1    2    0    0  0.99170978941E+01 -0.39647262069E+01 -0.17717624571E+03  0.17749785894E+03  0.00000000000E+00 0.  1.
        -15    1    1    2    0    0  0.15614005733E+01 -0.11214199320E+02  0.15657532657E+02  0.19403924759E+02  0.17770000000E+01 0.  1.
         15    1    1    2    0    0 -0.14671979750E+02  0.21568540590E+02  0.50657376586E+02  0.57006986103E+02  0.17770000000E+01 0. -1.
</event>
<event>
 6    1  0.1097339E-002  0.1846723E+03  0.7546771E-02  0.1066739E+00
        -11   -1    0    0    0    0  0.00000000000E+00  0.00000000000E+00  0.18250000000E+03  0.18250000000E+03  0.00000000000E+00 0. -1.
         11   -1    0    0    0    0 -0.00000000000E+00 -0.00000000000E+00 -0.18250000000E+03  0.18250000000E+03  0.00000000000E+00 0. -1.
        -11    1    1    2    0    0 -0.21804583693E+01 -0.16765061441E+01  0.15904871982E+03  0.15907250028E+03  0.00000000000E+00 0. -1.
         11    1    1    2    0    0  0.26311893776E+01 -0.48612370882E+01 -0.18024294238E+03  0.18032768246E+03  0.00000000000E+00 0. -1.
        -15    1    1    2    0    0 -0.35914778440E+01  0.67245689752E+01  0.56830845092E+01  0.96733509988E+01  0.17770000000E+01 0. -1.
         15    1    1    2    0    0  0.31407468356E+01 -0.18682574294E+00  0.15511138057E+02  0.15926466255E+02  0.17770000000E+01 0.  1.
</event>
<event>
 6    1  0.1097339E-002  0.1848767E+03  0.7546771E-02  0.1066579E+00
        -11   -1    0    0    0    0  0.00000000000E+00  0.00000000000E+00  0.18250000000E+03  0.18250000000E+03  0.00000000000E+00 0. -1.
         11   -1    0    0    0    0 -0.00000000000E+00 -0.00000000000E+00 -0.18250000000E+03  0.18250000000E+03  0.00000000000E+00 0.  1.
        -11    1    1    2    0    0 -0.23938154282E+02  0.18931804027E+02  0.17751888271E+03  0.18012329709E+03  0.00000000000E+00 0. -1.
         11    1    1    2    0    0 -0.57233002755E+00  0.70200527443E+00 -0.58376708018E+02  0.58383734139E+02  0.00000000000E+00 0.  1.
        -15    1    1    2    0    0  0.52503398881E+01 -0.98980150650E+01 -0.96904003223E+01  0.14919730513E+02  0.17770000000E+01 0. -1.
         15    1    1    2    0    0  0.19260144422E+02 -0.97357942368E+01 -0.10945177437E+03  0.11157323826E+03  0.17770000000E+01 0.  1.
</event>
<event>
 6    1  0.1097339E-002  0.1887864E+03  0.7546771E-02  0.1063558E+00
        -11   -1    0    0    0    0  0.00000000000E+00  0.00000000000E+00  0.18250000000E+03  0.18250000000E+03  0.00000000000E+00 0. -1.
         11   -1    0    0    0    0 -0.00000000000E+00 -0.00000000000E+00 -0.18250000000E+03  0.18250000000E+03  0.00000000000E+00 0.  1.
        -11    1    1    2    0    0 -0.54749408871E+01  0.87451927632E+00  0.78564436737E+02  0.78759827841E+02  0.00000000000E+00 0. -1.
         11    1    1    2    0    0 -0.27689618418E+01 -0.27837088046E+01 -0.17616983204E+03  0.17621358036E+03  0.00000000000E+00 0.  1.
        -15    1    1    2    0    0  0.19190845258E+02 -0.72881733552E+01  0.92459162395E+02  0.94727295182E+02  0.17770000000E+01 0.  1.
         15    1    1    2    0    0 -0.10946942529E+02  0.91973628834E+01  0.51462329059E+01  0.15299296613E+02  0.17770000000E+01 0. -1.
</event>
<event>
 6    1  0.1097339E-002  0.1832961E+03  0.7546771E-02  0.1067823E+00
        -11   -1    0    0    0    0  0.00000000000E+00  0.00000000000E+00  0.18250000000E+03  0.18250000000E+03  0.00000000000E+00 0.  1.
         11   -1    0    0    0    0 -0.00000000000E+00 -0.00000000000E+00 -0.18250000000E+03  0.18250000000E+03  0.00000000000E+00 0. -1.
        -11    1    1    2    0    0  0.11451865491E+01  0.58599108204E+01  0.18160575370E+03  0.18170387938E+03  0.00000000000E+00 0.  1.
         11    1    1    2    0    0  0.28675241265E+01 -0.79980989194E+01 -0.14621524125E+03  0.14646190309E+03  0.00000000000E+00 0. -1.
        -15    1    1    2    0    0 -0.25777012044E+01  0.45206775862E+01 -0.30103180073E+02  0.30601311227E+02  0.17770000000E+01 0.  1.
         15    1    1    2    0    0 -0.14350094713E+01 -0.23824894872E+01 -0.52873323714E+01  0.62329063000E+01  0.17770000000E+01 0. -1.
</event>
<event>
 6    1  0.1097339E-002  0.1853406E+03  0.7546771E-02  0.1066216E+00
        -11   -1    0    0    0    0  0.00000000000E+00  0.00000000000E+00  0.18250000000E+03  0.18250000000E+03  0.00000000000E+00 0.  1.
         11   -1    0    0    0    0 -0.00000000000E+00 -0.00000000000E+00 -0.18250000000E+03  0.18250000000E+03  0.00000000000E+00 0.  1.
        -11    1    1    2    0    0  0.34790218375E+00  0.48485753661E+01  0.16019658159E+03  0.16027031688E+03  0.00000000000E+00 0.  1.
         11    1    1    2    0    0 -0.47950364030E+01 -0.13004716660E+01 -0.17959066333E+03  0.17965937203E+03  0.00000000000E+00 0.  1.
        -15    1    1    2    0    0 -0.11696295856E+01 -0.24376928991E+01  0.18765698121E+02  0.19042571649E+02  0.17770000000E+01 0. -1.
         15    1    1    2    0    0  0.56167638048E+01 -0.11104108010E+01  0.62838361907E+00  0.60277394402E+01  0.17770000000E+01 0.  1.
</event>
<event>
 6    1  0.1097339E-002  0.1825791E+03  0.7546771E-02  0.1068392E+00
        -11   -1    0    0    0    0  0.00000000000E+00  0.00000000000E+00  0.18250000000E+03  0.18250000000E+03  0.00000000000E+00 0. -1.
         11   -1    0    0    0    0 -0.00000000000E+00 -0.00000000000E+00 -0.18250000000E+03  0.18250000000E+03  0.00000000000E+00 0.  1.
        -11    1    1    2    0    0 -0.26912516056E+01  0.15944904090E+00  0.18240102237E+03  0.18242094512E+03  0.00000000000E+00 0. -1.
         11    1    1    2    0    0  0.28638603246E+00  0.10738861721E+01 -0.81207830934E+02  0.81215436054E+02  0.00000000000E+00 0.  1.
        -15    1    1    2    0    0  0.20944619278E+01  0.89577273579E+00 -0.38443164349E+02  0.38551573168E+02  0.17770000000E+01 0.  1.
         15    1    1    2    0    0  0.31040364534E+00 -0.21291079488E+01 -0.62750027084E+02  0.62812045653E+02  0.17770000000E+01 0. -1.
</event>
<event>
 6    1  0.1097339E-002  0.1833594E+03  0.7546771E-02  0.1067773E+00
        -11   -1    0    0    0    0  0.00000000000E+00  0.00000000000E+00  0.18250000000E+03  0.18250000000E+03  0.00000000000E+00 0.  1.
         11   -1    0    0    0    0 -0.00000000000E+00 -0.00000000000E+00 -0.18250000000E+03  0.18250000000E+03  0.00000000000E+00 0. -1.
        -11    1    1    2    0    0  0.59378131224E+00  0.12238192282E+00  0.18830026523E+02  0.18839783768E+02  0.00000000000E+00 0.  1.
         11    1    1    2    0    0 -0.12618778378E+02 -0.13469634078E+00 -0.18120166142E+03  0.18164056213E+03  0.00000000000E+00 0. -1.
        -15    1    1    2    0    0  0.65576608306E+01  0.54206220016E+01  0.14684474951E+03  0.14710174793E+03  0.17770000000E+01 0.  1.
         15    1    1    2    0    0  0.54673362349E+01 -0.54083075836E+01  0.15526885386E+02  0.17417906167E+02  0.17770000000E+01 0. -1.
</event>
<event>
 6    1  0.1097339E-002  0.1854729E+03  0.7546771E-02  0.1066113E+00
        -11   -1    0    0    0    0  0.00000000000E+00  0.00000000000E+00  0.18250000000E+03  0.18250000000E+03  0.00000000000E+00 0.  1.
         11   -1    0    0    0    0 -0.00000000000E+00 -0.00000000000E+00 -0.18250000000E+03  0.18250000000E+03  0.00000000000E+00 0. -1.
        -11    1    1    2    0    0  0.64053701452E+01 -0.43061591867E+01  0.11782420788E+03  0.11807673665E+03  0.00000000000E+00 0.  1.
         11    1    1    2    0    0  0.63712905140E+01  0.21577550613E+01 -0.17940101574E+03  0.17952708347E+03  0.00000000000E+00 0. -1.
        -15    1    1    2    0    0  0.24241830064E+01  0.45078304159E+01  0.18976231058E+01  0.57407230170E+01  0.17770000000E+01 0.  1.
         15    1    1    2    0    0 -0.15200843666E+02 -0.23594262905E+01  0.59679184749E+02  0.61655456870E+02  0.17770000000E+01 0. -1.
</event>
<event>
 6    1  0.1097339E-002  0.1846292E+03  0.7546771E-02  0.1066772E+00
        -11   -1    0    0    0    0  0.00000000000E+00  0.00000000000E+00  0.18250000000E+03  0.18250000000E+03  0.00000000000E+00 0. -1.
         11   -1    0    0    0    0 -0.00000000000E+00 -0.00000000000E+00 -0.18250000000E+03  0.18250000000E+03  0.00000000000E+00 0.  1.
        -11    1    1    2    0    0  0.23039147654E+01 -0.14573274758E+01  0.18035018327E+03  0.18037078598E+03  0.00000000000E+00 0. -1.
         11    1    1    2    0    0  0.25614504405E+01 -0.22390174613E+00 -0.17148073585E+03  0.17150001146E+03  0.00000000000E+00 0.  1.
        -15    1    1    2    0    0 -0.13060447405E+01 -0.25040910991E+01 -0.12372941742E+01  0.35587709915E+01  0.17770000000E+01 0. -1.
         15    1    1    2    0    0 -0.35593204654E+01  0.41853203210E+01 -0.76321532462E+01  0.95704315753E+01  0.17770000000E+01 0.  1.
</event>
<event>
 6    1  0.1097339E-002  0.1869673E+03  0.7546771E-02  0.1064953E+00
        -11   -1    0    0    0    0  0.00000000000E+00  0.00000000000E+00  0.18250000000E+03  0.18250000000E+03  0.00000000000E+00 0.  1.
         11   -1    0    0    0    0 -0.00000000000E+00 -0.00000000000E+00 -0.18250000000E+03  0.18250000000E+03  0.00000000000E+00 0. -1.
        -11    1    1    2    0    0 -0.56532484816E+01  0.11431079058E+02  0.17757538414E+03  0.17803271003E+03  0.00000000000E+00 0.  1.
         11    1    1    2    0    0 -0.50597650132E+00  0.17764675018E+01 -0.12918863272E+03  0.12920183695E+03  0.00000000000E+00 0. -1.
        -15    1    1    2    0    0  0.16805893824E+02 -0.95690667893E+01 -0.36224764970E+02  0.41102267974E+02  0.17770000000E+01 0.  1.
         15    1    1    2    0    0 -0.10646668841E+02 -0.36384797706E+01 -0.12161986453E+02  0.16663185048E+02  0.17770000000E+01 0. -1.
</event>
<event>
 6    1  0.1097339E-002  0.1893777E+03  0.7546771E-02  0.1063108E+00
        -11   -1    0    0    0    0  0.00000000000E+00  0.00000000000E+00  0.18250000000E+03  0.18250000000E+03  0.00000000000E+00 0. -1.
         11   -1    0    0    0    0 -0.00000000000E+00 -0.00000000000E+00 -0.18250000000E+03  0.18250000000E+03  0.00000000000E+00 0.  1.
        -11    1    1    2    0    0 -0.52230501370E+01 -0.30375905212E+00  0.17554439522E+03  0.17562234258E+03  0.00000000000E+00 0. -1.
         11    1    1    2    0    0  0.26705056726E+00 -0.30230140356E+01 -0.16060841606E+03  0.16063708550E+03  0.00000000000E+00 0.  1.
        -15    1    1    2    0    0  0.17426517442E+01  0.30231455733E+01  0.61741955006E+01  0.73112696119E+01  0.17770000000E+01 0. -1.
         15    1    1    2    0    0  0.32133478255E+01  0.30362751441E+00 -0.21110174659E+02  0.21429302300E+02  0.17770000000E+01 0.  1.
</event>
<event>
 6    1  0.1097339E-002  0.1839851E+03  0.7546771E-02  0.1067279E+00
        -11   -1    0    0    0    0  0.00000000000E+00  0.00000000000E+00  0.18250000000E+03  0.18250000000E+03  0.00000000000E+00 0.  1.
         11   -1    0    0    0    0 -0.00000000000E+00 -0.00000000000E+00 -0.18250000000E+03  0.18250000000E+03  0.00000000000E+00 0.  1.
        -11    1    1    2    0    0  0.33776795731E+01 -0.22226093854E+01  0.16838464251E+03  0.16843318125E+03  0.00000000000E+00 0.  1.
         11    1    1    2    0    0  0.28812610912E+01 -0.16964791532E+01 -0.18098404601E+03  0.18101492926E+03  0.00000000000E+00 0.  1.
        -15    1    1    2    0    0 -0.48158259223E+00  0.19501627368E+01  0.28541097324E+01  0.39164687995E+01  0.17770000000E+01 0.  1.
         15    1    1    2    0    0 -0.57773580721E+01  0.19689258018E+01  0.97452937598E+01  0.11635420687E+02  0.17770000000E+01 0. -1.
</event>
<event>
 6    1  0.1097339E-002  0.1864780E+03  0.7546771E-02  0.1065332E+00
        -11   -1    0    0    0    0  0.00000000000E+00  0.00000000000E+00  0.18250000000E+03  0.18250000000E+03  0.00000000000E+00 0.  1.
         11   -1    0    0    0    0 -0.00000000000E+00 -0.00000000000E+00 -0.18250000000E+03  0.18250000000E+03  0.00000000000E+00 0.  1.
        -11    1    1    2    0    0  0.20749864419E+01 -0.12731620918E+01  0.17143815100E+03  0.17145543482E+03  0.00000000000E+00 0.  1.
         11    1    1    2    0    0 -0.76858126019E+00 -0.36010158730E+01 -0.17848399089E+03  0.17852196794E+03  0.00000000000E+00 0.  1.
        -15    1    1    2    0    0  0.38380181943E+01  0.18276588112E+01 -0.11253616874E+01  0.47428776410E+01  0.17770000000E+01 0.  1.
         15    1    1    2    0    0 -0.51444233760E+01  0.30465191536E+01  0.81712015766E+01  0.10279719599E+02  0.17770000000E+01 0. -1.
</event>
<event>
 6    1  0.1097339E-002  0.1848258E+03  0.7546771E-02  0.1066618E+00
        -11   -1    0    0    0    0  0.00000000000E+00  0.00000000000E+00  0.18250000000E+03  0.18250000000E+03  0.00000000000E+00 0. -1.
         11   -1    0    0    0    0 -0.00000000000E+00 -0.00000000000E+00 -0.18250000000E+03  0.18250000000E+03  0.00000000000E+00 0.  1.
        -11    1    1    2    0    0  0.68624884784E+01  0.39080598876E+01  0.18000099943E+03  0.18017415596E+03  0.00000000000E+00 0. -1.
         11    1    1    2    0    0  0.32445774842E+01  0.15816279301E+01 -0.10709042395E+03  0.10715123766E+03  0.00000000000E+00 0.  1.
        -15    1    1    2    0    0  0.48202736557E+00 -0.69161724695E+01 -0.45937947425E+01  0.85044971130E+01  0.17770000000E+01 0. -1.
         15    1    1    2    0    0 -0.10589093328E+02  0.14264846517E+01 -0.68316780737E+02  0.69170109261E+02  0.17770000000E+01 0.  1.
</event>
<event>
 6    1  0.1383141E-002  0.1831414E+03  0.7546771E-02  0.1067945E+00
        -11   -1    0    0    0    0  0.00000000000E+00  0.00000000000E+00  0.18250000000E+03  0.18250000000E+03  0.00000000000E+00 0.  1.
         11   -1    0    0    0    0 -0.00000000000E+00 -0.00000000000E+00 -0.18250000000E+03  0.18250000000E+03  0.00000000000E+00 0. -1.
        -11    1    1    2    0    0  0.10316787317E+01  0.24537633657E+01  0.18183914362E+03  0.18185862495E+03  0.00000000000E+00 0.  1.
         11    1    1    2    0    0 -0.18292381075E+01  0.14065070663E+01 -0.14927636426E+02  0.15104923152E+02  0.00000000000E+00 0. -1.
        -15    1    1    2    0    0  0.34311491975E+01 -0.15548211610E+01 -0.16025218932E+03  0.16030630732E+03  0.17770000000E+01 0. -1.
         15    1    1    2    0    0 -0.26335898217E+01 -0.23054492710E+01 -0.66593178733E+01  0.77301445800E+01  0.17770000000E+01 0.  1.
</event>
<event>
 6    1  0.1097339E-002  0.1833154E+03  0.7546771E-02  0.1067808E+00
        -11   -1    0    0    0    0  0.00000000000E+00  0.00000000000E+00  0.18250000000E+03  0.18250000000E+03  0.00000000000E+00 0. -1.
         11   -1    0    0    0    0 -0.00000000000E+00 -0.00000000000E+00 -0.18250000000E+03  0.18250000000E+03  0.00000000000E+00 0. -1.
        -11    1    1    2    0    0  0.54512791533E+00  0.39824793714E+01  0.15478725316E+03  0.15483943635E+03  0.00000000000E+00 0. -1.
         11    1    1    2    0    0  0.41220123516E+01 -0.35574548058E+01 -0.18160304177E+03  0.18168464781E+03  0.00000000000E+00 0. -1.
        -15    1    1    2    0    0 -0.10376838332E+01 -0.34746506125E+01  0.16469785672E+02  0.16957639980E+02  0.17770000000E+01 0. -1.
         15    1    1    2    0    0 -0.36294564337E+01  0.30496260469E+01  0.10346002937E+02  0.11518275861E+02  0.17770000000E+01 0. -1.
</event>
<event>
 6    1  0.1097339E-002  0.1857164E+03  0.7546771E-02  0.1065923E+00
        -11   -1    0    0    0    0  0.00000000000E+00  0.00000000000E+00  0.18250000000E+03  0.18250000000E+03  0.00000000000E+00 0.  1.
         11   -1    0    0    0    0 -0.00000000000E+00 -0.00000000000E+00 -0.18250000000E+03  0.18250000000E+03  0.00000000000E+00 0.  1.
        -11    1    1    2    0    0 -0.18110644259E+01 -0.14648924115E+01  0.16645887234E+03  0.16647516946E+03  0.00000000000E+00 0.  1.
         11    1    1    2    0    0 -0.62879748151E+01  0.41788213399E+00 -0.17917279084E+03  0.17928358049E+03  0.00000000000E+00 0.  1.
        -15    1    1    2    0    0  0.43354940866E+01 -0.48823633641E+00  0.13877327016E+02  0.14655129403E+02  0.17770000000E+01 0.  1.
         15    1    1    2    0    0  0.37635451544E+01  0.15352466139E+01 -0.11634085131E+01  0.45861206551E+01  0.17770000000E+01 0. -1.
</event>
<event>
 6    1  0.1417832E-002  0.1977861E+03  0.7546771E-02  0.1056899E+00
        -11   -1    0    0    0    0  0.00000000000E+00  0.00000000000E+00  0.18250000000E+03  0.18250000000E+03  0.00000000000E+00 0. -1.
         11   -1    0    0    0    0 -0.00000000000E+00 -0.00000000000E+00 -0.18250000000E+03  0.18250000000E+03  0.00000000000E+00 0. -1.
        -11    1    1    2    0    0 -0.66261049800E+01  0.99130132263E+01  0.16678821035E+03  0.16721387565E+03  0.00000000000E+00 0. -1.
         11    1    1    2    0    0  0.62077151791E+01  0.33540008394E+01 -0.14731884552E+03  0.14748771914E+03  0.00000000000E+00 0. -1.
        -15    1    1    2    0    0 -0.64327928761E+01 -0.22882723943E+01 -0.31656704971E+02  0.32433342618E+02  0.17770000000E+01 0. -1.
         15    1    1    2    0    0  0.68511826770E+01 -0.10978741671E+02  0.12187340148E+02  0.17865062598E+02  0.17770000000E+01 0. -1.
</event>
<event>
 6    1  0.1097339E-002  0.1826629E+03  0.7546771E-02  0.1068325E+00
        -11   -1    0    0    0    0  0.00000000000E+00  0.00000000000E+00  0.18250000000E+03  0.18250000000E+03  0.00000000000E+00 0. -1.
         11   -1    0    0    0    0 -0.00000000000E+00 -0.00000000000E+00 -0.18250000000E+03  0.18250000000E+03  0.00000000000E+00 0.  1.
        -11    1    1    2    0    0 -0.14120403257E+01  0.41552072558E+01  0.18228425317E+03  0.18233707402E+03  0.00000000000E+00 0. -1.
         11    1    1    2    0    0  0.70723279401E+00  0.14982491328E+01 -0.40125943631E+02  0.40160132980E+02  0.00000000000E+00 0.  1.
        -15    1    1    2    0    0  0.28828921749E+01 -0.21201698251E+01 -0.10425137530E+03  0.10432791174E+03  0.17770000000E+01 0.  1.
         15    1    1    2    0    0 -0.21780846433E+01 -0.35332865635E+01 -0.37906934246E+02  0.38174881265E+02  0.17770000000E+01 0. -1.
</event>
<event>
 6    1  0.1097339E-002  0.1910257E+03  0.7546771E-02  0.1061864E+00
        -11   -1    0    0    0    0  0.00000000000E+00  0.00000000000E+00  0.18250000000E+03  0.18250000000E+03  0.00000000000E+00 0. -1.
         11   -1    0    0    0    0 -0.00000000000E+00 -0.00000000000E+00 -0.18250000000E+03  0.18250000000E+03  0.00000000000E+00 0. -1.
        -11    1    1    2    0    0  0.75824682644E+00 -0.30650554139E+01  0.17318010356E+03  0.17320888480E+03  0.00000000000E+00 0. -1.
         11    1    1    2    0    0 -0.14277158846E+01  0.38173389886E+01 -0.17392658079E+03  0.17397432557E+03  0.00000000000E+00 0. -1.
        -15    1    1    2    0    0 -0.28974855903E+01  0.39405745728E+01  0.72090227809E+01  0.88910791902E+01  0.17770000000E+01 0. -1.
         15    1    1    2    0    0  0.35669546485E+01 -0.46928581475E+01 -0.64625455468E+01  0.89257104480E+01  0.17770000000E+01 0. -1.
</event>
<event>
 6    1  0.1097339E-002  0.1828797E+03  0.7546771E-02  0.1068153E+00
        -11   -1    0    0    0    0  0.00000000000E+00  0.00000000000E+00  0.18250000000E+03  0.18250000000E+03  0.00000000000E+00 0.  1.
         11   -1    0    0    0    0 -0.00000000000E+00 -0.00000000000E+00 -0.18250000000E+03  0.18250000000E+03  0.00000000000E+00 0.  1.
        -11    1    1    2    0    0  0.17731030114E+01  0.10799366573E+01  0.12981972555E+03  0.12983632504E+03  0.00000000000E+00 0.  1.
         11    1    1    2    0    0  0.11850529362E+01  0.40968337771E+01 -0.18207039472E+03  0.18212033668E+03  0.00000000000E+00 0.  1.
        -15    1    1    2    0    0 -0.46226628832E+01 -0.42215727896E+01  0.35970926175E+02  0.36554834808E+02  0.17770000000E+01 0. -1.
         15    1    1    2    0    0  0.16645069355E+01 -0.95519764473E+00  0.16279742995E+02  0.16488503476E+02  0.17770000000E+01 0.  1.
</event>
<event>
 6    1  0.1097339E-002  0.2178274E+03  0.7546771E-02  0.1043365E+00
        -11   -1    0    0    0    0  0.00000000000E+00  0.00000000000E+00  0.18250000000E+03  0.18250000000E+03  0.00000000000E+00 0.  1.
         11   -1    0    0    0    0 -0.00000000000E+00 -0.00000000000E+00 -0.18250000000E+03  0.18250000000E+03  0.00000000000E+00 0.  1.
        -11    1    1    2    0    0 -0.55925494270E+01  0.19049566101E+02  0.12217836877E+03  0.12378092088E+03  0.00000000000E+00 0.  1.
         11    1    1    2    0    0 -0.16014882862E+01 -0.18765754753E+01 -0.14715194430E+03  0.14717262317E+03  0.00000000000E+00 0.  1.
        -15    1    1    2    0    0 -0.79467551603E+01  0.35078355668E+02  0.66854485072E+01  0.36626423585E+02  0.17770000000E+01 0. -1.
         15    1    1    2    0    0  0.15140792874E+02 -0.52251346294E+02  0.18288127015E+02  0.57420032367E+02  0.17770000000E+01 0.  1.
</event>
<event>
 6    1  0.1097339E-002  0.1858985E+03  0.7546771E-02  0.1065781E+00
        -11   -1    0    0    0    0  0.00000000000E+00  0.00000000000E+00  0.18250000000E+03  0.18250000000E+03  0.00000000000E+00 0. -1.
         11   -1    0    0    0    0 -0.00000000000E+00 -0.00000000000E+00 -0.18250000000E+03  0.18250000000E+03  0.00000000000E+00 0. -1.
        -11    1    1    2    0    0 -0.12821263357E+01 -0.19056628746E+01  0.12037900315E+03  0.12040091278E+03  0.00000000000E+00 0. -1.
         11    1    1    2    0    0 -0.12346073514E+02  0.46135067661E+01 -0.17861587109E+03  0.17910147789E+03  0.00000000000E+00 0. -1.
        -15    1    1    2    0    0  0.12683826425E+02 -0.42866005610E+01  0.90805237421E+01  0.16274766898E+02  0.17770000000E+01 0. -1.
         15    1    1    2    0    0  0.94437342498E+00  0.15787566695E+01  0.49156344196E+02  0.49222842436E+02  0.17770000000E+01 0. -1.
</event>
<event>
 6    1  0.1097339E-002  0.1834661E+03  0.7546771E-02  0.1067688E+00
        -11   -1    0    0    0    0  0.00000000000E+00  0.00000000000E+00  0.18250000000E+03  0.18250000000E+03  0.00000000000E+00 0.  1.
         11   -1    0    0    0    0 -0.00000000000E+00 -0.00000000000E+00 -0.18250000000E+03  0.18250000000E+03  0.00000000000E+00 0.  1.
        -11    1    1    2    0    0  0.15701148954E+01 -0.18850347164E+01  0.18151733305E+03  0.18153391092E+03  0.00000000000E+00 0.  1.
         11    1    1    2    0    0  0.30600310026E+01  0.91107841560E+00 -0.16935586117E+03  0.16938595446E+03  0.00000000000E+00 0.  1.
        -15    1    1    2    0    0 -0.35816081814E+01  0.43374516442E+00 -0.41073665304E+01  0.57484120284E+01  0.17770000000E+01 0.  1.
         15    1    1    2    0    0 -0.10485377166E+01  0.54021113634E+00 -0.80541053464E+01  0.83317225917E+01  0.17770000000E+01 0. -1.
</event>
<event>
 6    1  0.1097339E-002  0.1828713E+03  0.7546771E-02  0.1068160E+00
        -11   -1    0    0    0    0  0.00000000000E+00  0.00000000000E+00  0.18250000000E+03  0.18250000000E+03  0.00000000000E+00 0. -1.
         11   -1    0    0    0    0 -0.00000000000E+00 -0.00000000000E+00 -0.18250000000E+03  0.18250000000E+03  0.00000000000E+00 0.  1.
        -11    1    1    2    0    0  0.15839302875E+01 -0.11268597267E+00  0.10512904113E+03  0.10514103301E+03  0.00000000000E+00 0. -1.
         11    1    1    2    0    0  0.18083991267E+01  0.31429556965E+01 -0.18209255152E+03  0.18212865178E+03  0.00000000000E+00 0.  1.
        -15    1    1    2    0    0 -0.36531706091E+01 -0.88917224093E+00  0.71236874683E+02  0.71358155290E+02  0.17770000000E+01 0. -1.
         15    1    1    2    0    0  0.26084119478E+00 -0.21410974829E+01  0.57266357087E+01  0.63721599242E+01  0.17770000000E+01 0.  1.
</event>
<event>
 6    1  0.1097339E-002  0.1983111E+03  0.7546771E-02  0.1056522E+00
        -11   -1    0    0    0    0  0.00000000000E+00  0.00000000000E+00  0.18250000000E+03  0.18250000000E+03  0.00000000000E+00 0.  1.
         11   -1    0    0    0    0 -0.00000000000E+00 -0.00000000000E+00 -0.18250000000E+03  0.18250000000E+03  0.00000000000E+00 0.  1.
        -11    1    1    2    0    0  0.52794697987E+01 -0.61476589912E+00  0.16660416597E+03  0.16668892841E+03  0.00000000000E+00 0.  1.
         11    1    1    2    0    0  0.14787559790E+01 -0.31127285743E+00 -0.61716594698E+02  0.61735092704E+02  0.00000000000E+00 0.  1.
        -15    1    1    2    0    0 -0.43548054379E+01 -0.16988531760E+01 -0.12042937779E+03  0.12053316223E+03  0.17770000000E+01 0.  1.
         15    1    1    2    0    0 -0.24034203399E+01  0.26248919325E+01  0.15541806527E+02  0.16042816651E+02  0.17770000000E+01 0. -1.
</event>
<event>
 6    1  0.1097339E-002  0.1898411E+03  0.7546771E-02  0.1062757E+00
        -11   -1    0    0    0    0  0.00000000000E+00  0.00000000000E+00  0.18250000000E+03  0.18250000000E+03  0.00000000000E+00 0.  1.
         11   -1    0    0    0    0 -0.00000000000E+00 -0.00000000000E+00 -0.18250000000E+03  0.18250000000E+03  0.00000000000E+00 0. -1.
        -11    1    1    2    0    0  0.11666358518E+01  0.10556822320E+02  0.12330723068E+03  0.12376381004E+03  0.00000000000E+00 0.  1.
         11    1    1    2    0    0 -0.38456780051E+01  0.20140979706E+01 -0.17510513087E+03  0.17515893551E+03  0.00000000000E+00 0. -1.
        -15    1    1    2    0    0  0.12897863172E+01 -0.67005673078E+01 -0.51825169239E+01  0.87508491964E+01  0.17770000000E+01 0. -1.
         15    1    1    2    0    0  0.13892558361E+01 -0.58703529829E+01  0.56980417118E+02  0.57326405259E+02  0.17770000000E+01 0.  1.
</event>
<event>
 6    1  0.1097339E-002  0.1849313E+03  0.7546771E-02  0.1066536E+00
        -11   -1    0    0    0    0  0.00000000000E+00  0.00000000000E+00  0.18250000000E+03  0.18250000000E+03  0.00000000000E+00 0.  1.
         11   -1    0    0    0    0 -0.00000000000E+00 -0.00000000000E+00 -0.18250000000E+03  0.18250000000E+03  0.00000000000E+00 0. -1.
        -11    1    1    2    0    0 -0.15834920163E+00  0.27347396594E+01  0.18004790525E+03  0.18006874260E+03  0.00000000000E+00 0.  1.
         11    1    1    2    0    0 -0.15290757528E+01 -0.11727884286E+01 -0.13864165190E+03  0.13865504371E+03  0.00000000000E+00 0. -1.
        -15    1    1    2    0    0  0.38893426918E+01 -0.76678084512E+00  0.40378792716E+00  0.43629935971E+01  0.17770000000E+01 0.  1.
         15    1    1    2    0    0 -0.22019177373E+01 -0.79517038560E+00 -0.41810041281E+02  0.41913220093E+02  0.17770000000E+01 0. -1.
</event>
<event>
 6    1  0.1097339E-002  0.1866939E+03  0.7546771E-02  0.1065165E+00
        -11   -1    0    0    0    0  0.00000000000E+00  0.00000000000E+00  0.18250000000E+03  0.18250000000E+03  0.00000000000E+00 0.  1.
         11   -1    0    0    0    0 -0.00000000000E+00 -0.00000000000E+00 -0.18250000000E+03  0.18250000000E+03  0.00000000000E+00 0.  1.
        -11    1    1    2    0    0  0.36882873421E+01 -0.22114065915E+01  0.17825426494E+03  0.17830613212E+03  0.00000000000E+00 0.  1.
         11    1    1    2    0    0  0.42484580098E+01  0.72095083849E+01 -0.17162472877E+03  0.17182861790E+03  0.00000000000E+00 0.  1.
        -15    1    1    2    0    0 -0.27828741387E+01 -0.61789740099E+00  0.18810508237E+01  0.38499697234E+01  0.17770000000E+01 0.  1.
         15    1    1    2    0    0 -0.51538712132E+01 -0.43802043924E+01 -0.85105869977E+01  0.11015280253E+02  0.17770000000E+01 0. -1.
</event>
<event>
 6    1  0.1097339E-002  0.1628549E+03  0.7546771E-02  0.1085265E+00
        -11   -1    0    0    0    0  0.00000000000E+00  0.00000000000E+00  0.18250000000E+03  0.18250000000E+03  0.00000000000E+00 0. -1.
         11   -1    0    0    0    0 -0.00000000000E+00 -0.00000000000E+00 -0.18250000000E+03  0.18250000000E+03  0.00000000000E+00 0.  1.
        -11    1    1    2    0    0 -0.13675267234E+02 -0.20797255389E+02  0.16230564639E+03  0.16420311086E+03  0.00000000000E+00 0. -1.
         11    1    1    2    0    0 -0.78379022184E+01  0.73811622609E+01 -0.16213494405E+03  0.16249201319E+03  0.00000000000E+00 0.  1.
        -15    1    1    2    0    0  0.10306212896E+02  0.13565053279E+02  0.12567917776E+02  0.21244740078E+02  0.17770000000E+01 0. -1.
         15    1    1    2    0    0  0.11206956556E+02 -0.14896015094E+00 -0.12738620118E+02  0.17060135870E+02  0.17770000000E+01 0.  1.
</event>
<event>
 6    1  0.1097339E-002  0.1841772E+03  0.7546771E-02  0.1067128E+00
        -11   -1    0    0    0    0  0.00000000000E+00  0.00000000000E+00  0.18250000000E+03  0.18250000000E+03  0.00000000000E+00 0. -1.
         11   -1    0    0    0    0 -0.00000000000E+00 -0.00000000000E+00 -0.18250000000E+03  0.18250000000E+03  0.00000000000E+00 0. -1.
        -11    1    1    2    0    0  0.14869809357E+01 -0.31788751245E+01  0.12466817586E+03  0.12471756264E+03  0.00000000000E+00 0. -1.
         11    1    1    2    0    0  0.17104672754E+01 -0.30896627940E+01 -0.18078835198E+03  0.18082284127E+03  0.00000000000E+00 0. -1.
        -15    1    1    2    0    0 -0.27655269532E+01  0.52798608615E+01  0.56900260242E+02  0.57239168535E+02  0.17770000000E+01 0. -1.
         15    1    1    2    0    0 -0.43192125797E+00  0.98867705705E+00 -0.78008411910E+00  0.22204275555E+01  0.17770000000E+01 0. -1.
</event>
<event>
 6    1  0.1097339E-002  0.1845717E+03  0.7546771E-02  0.1066818E+00
        -11   -1    0    0    0    0  0.00000000000E+00  0.00000000000E+00  0.18250000000E+03  0.18250000000E+03  0.00000000000E+00 0.  1.
         11   -1    0    0    0    0 -0.00000000000E+00 -0.00000000000E+00 -0.18250000000E+03  0.18250000000E+03  0.00000000000E+00 0. -1.
        -11    1    1    2    0    0  0.11691139905E+01 -0.32143187633E+01  0.13001270116E+03  0.13005768387E+03  0.00000000000E+00 0.  1.
         11    1    1    2    0    0  0.11377648356E+02  0.48612282213E+01 -0.18000362855E+03  0.18042834787E+03  0.00000000000E+00 0. -1.
        -15    1    1    2    0    0 -0.47274671047E+01 -0.62996932046E+01  0.40307108590E+02  0.41107855838E+02  0.17770000000E+01 0.  1.
         15    1    1    2    0    0 -0.78192952414E+01  0.46527837466E+01  0.96838188050E+01  0.13406112424E+02  0.17770000000E+01 0. -1.
</event>
<event>
 6    1  0.1097339E-002  0.1828121E+03  0.7546771E-02  0.1068207E+00
        -11   -1    0    0    0    0  0.00000000000E+00  0.00000000000E+00  0.18250000000E+03  0.18250000000E+03  0.00000000000E+00 0.  1.
         11   -1    0    0    0    0 -0.00000000000E+00 -0.00000000000E+00 -0.18250000000E+03  0.18250000000E+03  0.00000000000E+00 0.  1.
        -11    1    1    2    0    0 -0.49655497074E+01 -0.87389277153E+01  0.18191043667E+03  0.18218790440E+03  0.00000000000E+00 0.  1.
         11    1    1    2    0    0  0.63575347782E+00 -0.85547649398E+00 -0.67331462129E+02  0.67339897645E+02  0.00000000000E+00 0.  1.
        -15    1    1    2    0    0  0.54155135156E+01  0.99861472195E+01 -0.79255213200E+02  0.80084939104E+02  0.17770000000E+01 0.  1.
         15    1    1    2    0    0 -0.10857172861E+01 -0.39174301019E+00 -0.35323761340E+02  0.35387258848E+02  0.17770000000E+01 0.  1.
</event>
<event>
 6    1  0.1097339E-002  0.1878095E+03  0.7546771E-02  0.1064305E+00
        -11   -1    0    0    0    0  0.00000000000E+00  0.00000000000E+00  0.18250000000E+03  0.18250000000E+03  0.00000000000E+00 0.  1.
         11   -1    0    0    0    0 -0.00000000000E+00 -0.00000000000E+00 -0.18250000000E+03  0.18250000000E+03  0.00000000000E+00 0. -1.
        -11    1    1    2    0    0 -0.87088935350E+01  0.62736344976E+01  0.17686511114E+03  0.17719049312E+03  0.00000000000E+00 0.  1.
         11    1    1    2    0    0 -0.72203845123E+01  0.58672428510E+01 -0.14219700953E+03  0.14250104565E+03  0.00000000000E+00 0. -1.
        -15    1    1    2    0    0  0.42972037459E+01 -0.44152126843E+01  0.14239303795E+01  0.65685135158E+01  0.17770000000E+01 0. -1.
         15    1    1    2    0    0  0.11632074301E+02 -0.77256646643E+01 -0.36092031981E+02  0.38739947710E+02  0.17770000000E+01 0. -1.
</event>
<event>
 6    1  0.1097339E-002  0.1876744E+03  0.7546771E-02  0.1064409E+00
        -11   -1    0    0    0    0  0.00000000000E+00  0.00000000000E+00  0.18250000000E+03  0.18250000000E+03  0.00000000000E+00 0. -1.
         11   -1    0    0    0    0 -0.00000000000E+00 -0.00000000000E+00 -0.18250000000E+03  0.18250000000E+03  0.00000000000E+00 0.  1.
        -11    1    1    2    0    0  0.35794881588E+01  0.63657459111E+00  0.17309062442E+03  0.17312880242E+03  0.00000000000E+00 0. -1.
         11    1    1    2    0    0 -0.10329124136E+01  0.45832156801E+01 -0.17726335941E+03  0.17732560832E+03  0.00000000000E+00 0.  1.
        -15    1    1    2    0    0 -0.39113640989E+01 -0.20508762890E+01  0.78619425792E+01  0.91909048948E+01  0.17770000000E+01 0. -1.
         15    1    1    2    0    0  0.13647883537E+01 -0.31689139822E+01 -0.36892075909E+01  0.53546843722E+01  0.17770000000E+01 0.  1.
</event>
<event>
 6    1  0.1097339E-002  0.1889076E+03  0.7546771E-02  0.1063466E+00
        -11   -1    0    0    0    0  0.00000000000E+00  0.00000000000E+00  0.18250000000E+03  0.18250000000E+03  0.00000000000E+00 0.  1.
         11   -1    0    0    0    0 -0.00000000000E+00 -0.00000000000E+00 -0.18250000000E+03  0.18250000000E+03  0.00000000000E+00 0.  1.
        -11    1    1    2    0    0 -0.60421490800E+01  0.32102288530E+01  0.17595938460E+03  0.17609235692E+03  0.00000000000E+00 0.  1.
         11    1    1    2    0    0  0.96056971019E+01  0.11465633185E+02 -0.10993127090E+03  0.11094419535E+03  0.00000000000E+00 0.  1.
        -15    1    1    2    0    0 -0.11462535981E+02 -0.99614048419E+01 -0.66833277847E+02  0.68559930531E+02  0.17770000000E+01 0.  1.
         15    1    1    2    0    0  0.78989879593E+01 -0.47144571965E+01  0.80516414124E+00  0.94035172001E+01  0.17770000000E+01 0.  1.
</event>
<event>
 6    1  0.1097339E-002  0.1837050E+03  0.7546771E-02  0.1067500E+00
        -11   -1    0    0    0    0  0.00000000000E+00  0.00000000000E+00  0.18250000000E+03  0.18250000000E+03  0.00000000000E+00 0.  1.
         11   -1    0    0    0    0 -0.00000000000E+00 -0.00000000000E+00 -0.18250000000E+03  0.18250000000E+03  0.00000000000E+00 0.  1.
        -11    1    1    2    0    0  0.18551396053E+00 -0.27870848691E+01  0.18127348031E+03  0.18129499971E+03  0.00000000000E+00 0.  1.
         11    1    1    2    0    0 -0.16151076692E+01 -0.19241120451E+01 -0.17178736534E+03  0.17180573236E+03  0.00000000000E+00 0.  1.
        -15    1    1    2    0    0  0.25487812641E+01  0.26561263919E+01 -0.67093672145E+01  0.78565024509E+01  0.17770000000E+01 0.  1.
         15    1    1    2    0    0 -0.11191875555E+01  0.20550705222E+01 -0.27767477512E+01  0.40427654779E+01  0.17770000000E+01 0. -1.
</event>
<event>
 6    1  0.1097339E-002  0.1826981E+03  0.7546771E-02  0.1068297E+00
        -11   -1    0    0    0    0  0.00000000000E+00  0.00000000000E+00  0.18250000000E+03  0.18250000000E+03  0.00000000000E+00 0. -1.
         11   -1    0    0    0    0 -0.00000000000E+00 -0.00000000000E+00 -0.18250000000E+03  0.18250000000E+03  0.00000000000E+00 0.  1.
        -11    1    1    2    0    0  0.20956710846E+01 -0.28197174906E+01  0.11307295741E+03  0.11312752247E+03  0.00000000000E+00 0. -1.
         11    1    1    2    0    0  0.25025261784E+01 -0.12825510829E+00 -0.18228467614E+03  0.18230189863E+03  0.00000000000E+00 0.  1.
        -15    1    1    2    0    0 -0.71746080606E+00  0.73014607193E+00  0.28951338306E+02  0.29023879513E+02  0.17770000000E+01 0.  1.
         15    1    1    2    0    0 -0.38807364570E+01  0.22178265269E+01  0.40260380428E+02  0.40546699386E+02  0.17770000000E+01 0. -1.
</event>
<event>
 6    1  0.1097339E-002  0.1850589E+03  0.7546771E-02  0.1066436E+00
        -11   -1    0    0    0    0  0.00000000000E+00  0.00000000000E+00  0.18250000000E+03  0.18250000000E+03  0.00000000000E+00 0. -1.
         11   -1    0    0    0    0 -0.00000000000E+00 -0.00000000000E+00 -0.18250000000E+03  0.18250000000E+03  0.00000000000E+00 0.  1.
        -11    1    1    2    0    0 -0.18819462460E+01 -0.13554461953E+01  0.14271717420E+03  0.14273601777E+03  0.00000000000E+00 0. -1.
         11    1    1    2    0    0 -0.21917988404E+01 -0.30768326606E+01 -0.17990143929E+03  0.17994109798E+03  0.00000000000E+00 0.  1.
        -15    1    1    2    0    0  0.27883577182E+01  0.96199061290E+00  0.37984602779E+02  0.38140374172E+02  0.17770000000E+01 0.  1.
         15    1    1    2    0    0  0.12853873682E+01  0.34702882431E+01 -0.80033768563E+00  0.41825100821E+01  0.17770000000E+01 0.  1.
</event>
<event>
 6    1  0.1097339E-002  0.1848757E+03  0.7546771E-02  0.1066579E+00
        -11   -1    0    0    0    0  0.00000000000E+00  0.00000000000E+00  0.18250000000E+03  0.18250000000E+03  0.00000000000E+00 0.  1.
         11   -1    0    0    0    0 -0.00000000000E+00 -0.00000000000E+00 -0.18250000000E+03  0.18250000000E+03  0.00000000000E+00 0. -1.
        -11    1    1    2    0    0  0.78271477956E+01 -0.65718858937E+01  0.17983412813E+03  0.18012431143E+03  0.00000000000E+00 0.  1.
         11    1    1    2    0    0  0.19367128801E+01 -0.29088835248E+01 -0.13391615362E+03  0.13396174327E+03  0.00000000000E+00 0. -1.
        -15    1    1    2    0    0  0.45679321434E+01  0.46355419961E+01 -0.13215965938E+02  0.14838252537E+02  0.17770000000E+01 0. -1.
         15    1    1    2    0    0 -0.14331792819E+02  0.48452274224E+01 -0.32702008574E+02  0.36075692758E+02  0.17770000000E+01 0.  1.
</event>
<event>
 6    1  0.1097339E-002  0.1832843E+03  0.7546771E-02  0.1067832E+00
        -11   -1    0    0    0    0  0.00000000000E+00  0.00000000000E+00  0.18250000000E+03  0.18250000000E+03  0.00000000000E+00 0. -1.
         11   -1    0    0    0    0 -0.00000000000E+00 -0.00000000000E+00 -0.18250000000E+03  0.18250000000E+03  0.00000000000E+00 0.  1.
        -11    1    1    2    0    0 -0.36631445595E+01 -0.26882380161E+01  0.17076730859E+03  0.17082774638E+03  0.00000000000E+00 0. -1.
         11    1    1    2    0    0  0.23354800671E+00  0.24980692735E+01 -0.18169839649E+03  0.18171571803E+03  0.00000000000E+00 0.  1.
        -15    1    1    2    0    0  0.18881745685E+01  0.17562231287E+01  0.61900576609E+01  0.69371511245E+01  0.17770000000E+01 0. -1.
         15    1    1    2    0    0  0.15414219843E+01 -0.15660543861E+01  0.47410302362E+01  0.55193844561E+01  0.17770000000E+01 0.  1.
</event>
<event>
 6    1  0.1890263E-002  0.1825613E+03  0.7546771E-02  0.1068406E+00
        -11   -1    0    0    0    0  0.00000000000E+00  0.00000000000E+00  0.18250000000E+03  0.18250000000E+03  0.00000000000E+00 0.  1.
         11   -1    0    0    0    0 -0.00000000000E+00 -0.00000000000E+00 -0.18250000000E+03  0.18250000000E+03  0.00000000000E+00 0. -1.
        -11    1    1    2    0    0 -0.56032463108E+00 -0.30365640312E+01  0.18241256981E+03  0.18243870288E+03  0.00000000000E+00 0.  1.
         11    1    1    2    0    0 -0.18948231902E+00  0.54426284235E+00 -0.23025349982E+02  0.23032561026E+02  0.00000000000E+00 0. -1.
        -15    1    1    2    0    0  0.64503565693E+00  0.14460958781E+01 -0.22425456714E+02  0.22551410203E+02  0.17770000000E+01 0. -1.
         15    1    1    2    0    0  0.10477129318E+00  0.10462053108E+01 -0.13696176312E+03  0.13697732589E+03  0.17770000000E+01 0. -1.
</event>
<event>
 6    1  0.1097339E-002  0.1958244E+03  0.7546771E-02  0.1058317E+00
        -11   -1    0    0    0    0  0.00000000000E+00  0.00000000000E+00  0.18250000000E+03  0.18250000000E+03  0.00000000000E+00 0. -1.
         11   -1    0    0    0    0 -0.00000000000E+00 -0.00000000000E+00 -0.18250000000E+03  0.18250000000E+03  0.00000000000E+00 0.  1.
        -11    1    1    2    0    0  0.31810045718E+00  0.32084765609E+01  0.16914491660E+03  0.16917564341E+03  0.00000000000E+00 0. -1.
         11    1    1    2    0    0 -0.27865975801E+01  0.35825091711E+01 -0.11596014970E+03  0.11604893716E+03  0.00000000000E+00 0.  1.
        -15    1    1    2    0    0  0.13140943112E+01  0.57647453537E+01 -0.63246164863E+02  0.63546787737E+02  0.17770000000E+01 0.  1.
         15    1    1    2    0    0  0.11544028117E+01 -0.12555731086E+02  0.10061397954E+02  0.16228631696E+02  0.17770000000E+01 0. -1.
</event>
<event>
 6    1  0.1097339E-002  0.1829913E+03  0.7546771E-02  0.1068064E+00
        -11   -1    0    0    0    0  0.00000000000E+00  0.00000000000E+00  0.18250000000E+03  0.18250000000E+03  0.00000000000E+00 0. -1.
         11   -1    0    0    0    0 -0.00000000000E+00 -0.00000000000E+00 -0.18250000000E+03  0.18250000000E+03  0.00000000000E+00 0. -1.
        -11    1    1    2    0    0  0.40846105166E+01 -0.42598787148E+01  0.18191299189E+03  0.18200870097E+03  0.00000000000E+00 0. -1.
         11    1    1    2    0    0 -0.12352870487E+01  0.51757987685E+00 -0.45347198237E+02  0.45366972689E+02  0.00000000000E+00 0. -1.
        -15    1    1    2    0    0 -0.61245093642E+01  0.55570557906E+01 -0.36283312217E+02  0.37256233820E+02  0.17770000000E+01 0. -1.
         15    1    1    2    0    0  0.32751858963E+01 -0.18147569527E+01 -0.10028248143E+03  0.10036809252E+03  0.17770000000E+01 0. -1.
</event>
<event>
 6    1  0.1097339E-002  0.1830000E+03  0.7546771E-02  0.1068058E+00
        -11   -1    0    0    0    0  0.00000000000E+00  0.00000000000E+00  0.18250000000E+03  0.18250000000E+03  0.00000000000E+00 0.  1.
         11   -1    0    0    0    0 -0.00000000000E+00 -0.00000000000E+00 -0.18250000000E+03  0.18250000000E+03  0.00000000000E+00 0.  1.
        -11    1    1    2    0    0 -0.11622636666E+01 -0.19978892309E+01  0.12426472423E+03  0.12428621848E+03  0.00000000000E+00 0.  1.
         11    1    1    2    0    0 -0.19963533852E+01  0.52395385182E+01 -0.18191364412E+03  0.18200003327E+03  0.00000000000E+00 0.  1.
        -15    1    1    2    0    0 -0.17294957129E+01  0.54568703971E+00  0.36968941109E+02  0.37056028734E+02  0.17770000000E+01 0. -1.
         15    1    1    2    0    0  0.48881127647E+01 -0.37873363270E+01  0.20679978789E+02  0.21657719514E+02  0.17770000000E+01 0. -1.
</event>
<event>
 6    1  0.1097339E-002  0.1698620E+03  0.7546771E-02  0.1078985E+00
        -11   -1    0    0    0    0  0.00000000000E+00  0.00000000000E+00  0.18250000000E+03  0.18250000000E+03  0.00000000000E+00 0.  1.
         11   -1    0    0    0    0 -0.00000000000E+00 -0.00000000000E+00 -0.18250000000E+03  0.18250000000E+03  0.00000000000E+00 0.  1.
        -11    1    1    2    0    0  0.39418751842E+00  0.38397051009E+01  0.17059418436E+03  0.17063784591E+03  0.00000000000E+00 0.  1.
         11    1    1    2    0    0 -0.28749062591E+01 -0.42772480747E-01 -0.16909528200E+03  0.16911972478E+03  0.00000000000E+00 0.  1.
        -15    1    1    2    0    0  0.38737918259E+01 -0.27148560511E+01  0.11206272567E+02  0.12292883321E+02  0.17770000000E+01 0.  1.
         15    1    1    2    0    0 -0.13930730853E+01 -0.10820765691E+01 -0.12705174933E+02  0.12949545992E+02  0.17770000000E+01 0. -1.
</event>
<event>
 6    1  0.1097339E-002  0.1831332E+03  0.7546771E-02  0.1067952E+00
        -11   -1    0    0    0    0  0.00000000000E+00  0.00000000000E+00  0.18250000000E+03  0.18250000000E+03  0.00000000000E+00 0.  1.
         11   -1    0    0    0    0 -0.00000000000E+00 -0.00000000000E+00 -0.18250000000E+03  0.18250000000E+03  0.00000000000E+00 0.  1.
        -11    1    1    2    0    0 -0.67036540591E+01  0.15143411537E+01  0.18173687746E+03  0.18186677772E+03  0.00000000000E+00 0.  1.
         11    1    1    2    0    0 -0.36294003993E+00 -0.35301453028E+01 -0.11529608822E+03  0.11535068969E+03  0.00000000000E+00 0.  1.
        -15    1    1    2    0    0  0.23654237911E+01 -0.32339461337E+01 -0.10595059144E+02  0.11465890483E+02  0.17770000000E+01 0.  1.
         15    1    1    2    0    0  0.47011703079E+01  0.52497502829E+01 -0.55845730096E+02  0.56316642116E+02  0.17770000000E+01 0. -1.
</event>
<event>
 6    1  0.1097339E-002  0.1842705E+03  0.7546771E-02  0.1067054E+00
        -11   -1    0    0    0    0  0.00000000000E+00  0.00000000000E+00  0.18250000000E+03  0.18250000000E+03  0.00000000000E+00 0.  1.
         11   -1    0    0    0    0 -0.00000000000E+00 -0.00000000000E+00 -0.18250000000E+03  0.18250000000E+03  0.00000000000E+00 0. -1.
        -11    1    1    2    0    0  0.13078113669E+01 -0.39081269896E+01  0.16399959048E+03  0.16405136240E+03  0.00000000000E+00 0.  1.
         11    1    1    2    0    0  0.37768812582E+01 -0.14430973512E+01 -0.18068429517E+03  0.18072952687E+03  0.00000000000E+00 0. -1.
        -15    1    1    2    0    0 -0.34636633444E+01 -0.13043454583E+01  0.42337867281E+01  0.58975384609E+01  0.17770000000E+01 0. -1.
         15    1    1    2    0    0 -0.16210292807E+01  0.66555697991E+01  0.12450917957E+02  0.14321572269E+02  0.17770000000E+01 0.  1.
</event>
<event>
 6    1  0.1097339E-002  0.1774989E+03  0.7546771E-02  0.1072507E+00
        -11   -1    0    0    0    0  0.00000000000E+00  0.00000000000E+00  0.18250000000E+03  0.18250000000E+03  0.00000000000E+00 0.  1.
         11   -1    0    0    0    0 -0.00000000000E+00 -0.00000000000E+00 -0.18250000000E+03  0.18250000000E+03  0.00000000000E+00 0.  1.
        -11    1    1    2    0    0  0.27927345760E+01  0.19201274988E+01  0.17637284148E+03  0.17640540091E+03  0.00000000000E+00 0.  1.
         11    1    1    2    0    0  0.14062480900E+01 -0.29572107021E+01 -0.17859568438E+03  0.17862570114E+03  0.00000000000E+00 0.  1.
        -15    1    1    2    0    0 -0.32405029240E+01  0.43730743874E+01  0.64283704693E+00  0.57615629188E+01  0.17770000000E+01 0. -1.
         15    1    1    2    0    0 -0.95847974198E+00 -0.33359911841E+01  0.15800058497E+01  0.42073350332E+01  0.17770000000E+01 0.  1.
</event>
<event>
 6    1  0.1097339E-002  0.1826082E+03  0.7546771E-02  0.1068369E+00
        -11   -1    0    0    0    0  0.00000000000E+00  0.00000000000E+00  0.18250000000E+03  0.18250000000E+03  0.00000000000E+00 0.  1.
         11   -1    0    0    0    0 -0.00000000000E+00 -0.00000000000E+00 -0.18250000000E+03  0.18250000000E+03  0.00000000000E+00 0. -1.
        -11    1    1    2    0    0 -0.23642487497E+01  0.13525048624E+01  0.18237147923E+03  0.18239181828E+03  0.00000000000E+00 0.  1.
         11    1    1    2    0    0  0.14854801566E+01  0.32507566014E+00 -0.53636028036E+02  0.53657579417E+02  0.00000000000E+00 0. -1.
        -15    1    1    2    0    0 -0.26714945663E+01 -0.12111684485E+01 -0.64052529619E+02  0.64144275597E+02  0.17770000000E+01 0.  1.
         15    1    1    2    0    0  0.35502631593E+01 -0.46641207403E+00 -0.64682921571E+02  0.64806326703E+02  0.17770000000E+01 0. -1.
</event>
<event>
 6    1  0.1097339E-002  0.1874831E+03  0.7546771E-02  0.1064556E+00
        -11   -1    0    0    0    0  0.00000000000E+00  0.00000000000E+00  0.18250000000E+03  0.18250000000E+03  0.00000000000E+00 0. -1.
         11   -1    0    0    0    0 -0.00000000000E+00 -0.00000000000E+00 -0.18250000000E+03  0.18250000000E+03  0.00000000000E+00 0.  1.
        -11    1    1    2    0    0 -0.44592044621E+01 -0.92035697964E+01  0.13793738252E+03  0.13831598497E+03  0.00000000000E+00 0. -1.
         11    1    1    2    0    0 -0.11859989034E+02  0.19576589852E+02 -0.17603507633E+03  0.17751690147E+03  0.00000000000E+00 0.  1.
        -15    1    1    2    0    0 -0.38043737004E+01  0.33223397078E+01  0.13466186357E+02  0.14491621869E+02  0.17770000000E+01 0. -1.
         15    1    1    2    0    0  0.20123567196E+02 -0.13695359764E+02  0.24631507446E+02  0.34675491688E+02  0.17770000000E+01 0.  1.
</event>
<event>
 6    1  0.1097339E-002  0.1650919E+03  0.7546771E-02  0.1083223E+00
        -11   -1    0    0    0    0  0.00000000000E+00  0.00000000000E+00  0.18250000000E+03  0.18250000000E+03  0.00000000000E+00 0. -1.
         11   -1    0    0    0    0 -0.00000000000E+00 -0.00000000000E+00 -0.18250000000E+03  0.18250000000E+03  0.00000000000E+00 0.  1.
        -11    1    1    2    0    0 -0.10572979611E+02  0.15976050022E+02  0.15878973654E+03  0.15994124703E+03  0.00000000000E+00 0. -1.
         11    1    1    2    0    0  0.21275681961E+01  0.12841664458E+01 -0.17100875441E+03  0.17102680993E+03  0.00000000000E+00 0.  1.
        -15    1    1    2    0    0 -0.15655212571E+01  0.41570742521E+01 -0.31954106977E+01  0.57533035441E+01  0.17770000000E+01 0.  1.
         15    1    1    2    0    0  0.10010932672E+02 -0.21417290720E+02  0.15414428567E+02  0.28278639496E+02  0.17770000000E+01 0.  1.
</event>
<event>
 6    1  0.1097339E-002  0.1838556E+03  0.7546771E-02  0.1067381E+00
        -11   -1    0    0    0    0  0.00000000000E+00  0.00000000000E+00  0.18250000000E+03  0.18250000000E+03  0.00000000000E+00 0. -1.
         11   -1    0    0    0    0 -0.00000000000E+00 -0.00000000000E+00 -0.18250000000E+03  0.18250000000E+03  0.00000000000E+00 0. -1.
        -11    1    1    2    0    0  0.79046330430E+01 -0.17435861824E+00  0.13432298660E+03  0.13455548429E+03  0.00000000000E+00 0. -1.
         11    1    1    2    0    0  0.26169380121E+00  0.99807941748E+01 -0.18086905044E+03  0.18114441240E+03  0.00000000000E+00 0. -1.
        -15    1    1    2    0    0 -0.15438016797E+01 -0.89614775823E+01  0.24327108555E+02  0.26031852484E+02  0.17770000000E+01 0.  1.
         15    1    1    2    0    0 -0.66225251645E+01 -0.84495797429E+00  0.22218955285E+02  0.23268250826E+02  0.17770000000E+01 0. -1.
</event>
<event>
 6    1  0.1097339E-002  0.1767552E+03  0.7546771E-02  0.1073122E+00
        -11   -1    0    0    0    0  0.00000000000E+00  0.00000000000E+00  0.18250000000E+03  0.18250000000E+03  0.00000000000E+00 0.  1.
         11   -1    0    0    0    0 -0.00000000000E+00 -0.00000000000E+00 -0.18250000000E+03  0.18250000000E+03  0.00000000000E+00 0. -1.
        -11    1    1    2    0    0 -0.47226933065E+01  0.32441282863E+00  0.17572869067E+03  0.17579243954E+03  0.00000000000E+00 0.  1.
         11    1    1    2    0    0 -0.99326849424E-01 -0.24983685747E+01 -0.17774565447E+03  0.17776323971E+03  0.00000000000E+00 0. -1.
        -15    1    1    2    0    0  0.34153267370E+01  0.25445723214E+01 -0.32861498372E+01  0.56653168289E+01  0.17770000000E+01 0. -1.
         15    1    1    2    0    0  0.14066934189E+01 -0.37061657540E+00  0.53031136396E+01  0.57790039190E+01  0.17770000000E+01 0.  1.
</event>
<event>
 6    1  0.1097339E-002  0.1964997E+03  0.7546771E-02  0.1057827E+00
        -11   -1    0    0    0    0  0.00000000000E+00  0.00000000000E+00  0.18250000000E+03  0.18250000000E+03  0.00000000000E+00 0.  1.
         11   -1    0    0    0    0 -0.00000000000E+00 -0.00000000000E+00 -0.18250000000E+03  0.18250000000E+03  0.00000000000E+00 0.  1.
        -11    1    1    2    0    0 -0.53356069018E+01  0.10258787774E+01  0.13797349399E+03  0.13808043371E+03  0.00000000000E+00 0.  1.
         11    1    1    2    0    0  0.53795958194E+01 -0.70367053384E+01 -0.16826730388E+03  0.16850026952E+03  0.00000000000E+00 0.  1.
        -15    1    1    2    0    0 -0.96744417648E+01  0.68292276303E+01 -0.10825150277E+02  0.16142328859E+02  0.17770000000E+01 0. -1.
         15    1    1    2    0    0  0.96304528472E+01 -0.81840106938E+00  0.41118960164E+02  0.42276967917E+02  0.17770000000E+01 0.  1.
</event>
<event>
 6    1  0.1097339E-002  0.1851234E+03  0.7546771E-02  0.1066386E+00
        -11   -1    0    0    0    0  0.00000000000E+00  0.00000000000E+00  0.18250000000E+03  0.18250000000E+03  0.00000000000E+00 0. -1.
         11   -1    0    0    0    0 -0.00000000000E+00 -0.00000000000E+00 -0.18250000000E+03  0.18250000000E+03  0.00000000000E+00 0. -1.
        -11    1    1    2    0    0 -0.12704763640E+01  0.47249167329E+01  0.17981005325E+03  0.17987660826E+03  0.00000000000E+00 0. -1.
         11    1    1    2    0    0  0.12371242720E+01  0.78372596909E+00 -0.10231108017E+03  0.10232156092E+03  0.00000000000E+00 0. -1.
        -15    1    1    2    0    0  0.15940055541E+01 -0.28782989689E+01  0.12732453265E+01  0.39502330719E+01  0.17770000000E+01 0.  1.
         15    1    1    2    0    0 -0.15606534621E+01 -0.26303437332E+01 -0.78772218401E+02  0.78851597753E+02  0.17770000000E+01 0. -1.
</event>
<event>
 6    1  0.1097339E-002  0.1972617E+03  0.7546771E-02  0.1057276E+00
        -11   -1    0    0    0    0  0.00000000000E+00  0.00000000000E+00  0.18250000000E+03  0.18250000000E+03  0.00000000000E+00 0.  1.
         11   -1    0    0    0    0 -0.00000000000E+00 -0.00000000000E+00 -0.18250000000E+03  0.18250000000E+03  0.00000000000E+00 0. -1.
        -11    1    1    2    0    0 -0.79331436159E+01 -0.18373564043E+02  0.16654010389E+03  0.16773827478E+03  0.00000000000E+00 0.  1.
         11    1    1    2    0    0 -0.13063162613E+02 -0.29994842873E+02 -0.95807497777E+02  0.10123938684E+03  0.00000000000E+00 0. -1.
        -15    1    1    2    0    0  0.83219805664E+01  0.98963452462E+01 -0.47568977644E+02  0.49327055181E+02  0.17770000000E+01 0.  1.
         15    1    1    2    0    0  0.12674325663E+02  0.38472061670E+02 -0.23163628472E+02  0.46695283200E+02  0.17770000000E+01 0. -1.
</event>
<event>
 6    1  0.1097339E-002  0.1828655E+03  0.7546771E-02  0.1068164E+00
        -11   -1    0    0    0    0  0.00000000000E+00  0.00000000000E+00  0.18250000000E+03  0.18250000000E+03  0.00000000000E+00 0. -1.
         11   -1    0    0    0    0 -0.00000000000E+00 -0.00000000000E+00 -0.18250000000E+03  0.18250000000E+03  0.00000000000E+00 0. -1.
        -11    1    1    2    0    0 -0.51761099252E+00  0.53647257506E+00  0.13450186830E+02  0.13470829586E+02  0.00000000000E+00 0. -1.
         11    1    1    2    0    0 -0.70955833330E+01  0.65322239942E+00 -0.18199506186E+03  0.18213450125E+03  0.00000000000E+00 0. -1.
        -15    1    1    2    0    0  0.18190520908E+00 -0.29629541645E+01  0.13068453984E+03  0.13073032880E+03  0.17770000000E+01 0. -1.
         15    1    1    2    0    0  0.74312891165E+01  0.17732591900E+01  0.37860335192E+02  0.38664340366E+02  0.17770000000E+01 0. -1.
</event>
<event>
 6    1  0.1097339E-002  0.1838715E+03  0.7546771E-02  0.1067368E+00
        -11   -1    0    0    0    0  0.00000000000E+00  0.00000000000E+00  0.18250000000E+03  0.18250000000E+03  0.00000000000E+00 0.  1.
         11   -1    0    0    0    0 -0.00000000000E+00 -0.00000000000E+00 -0.18250000000E+03  0.18250000000E+03  0.00000000000E+00 0.  1.
        -11    1    1    2    0    0  0.34310943813E+01  0.21074647374E+01  0.18108374361E+03  0.18112850691E+03  0.00000000000E+00 0.  1.
         11    1    1    2    0    0  0.21191969440E+01 -0.10183990146E+01 -0.14755622867E+03  0.14757495978E+03  0.00000000000E+00 0.  1.
        -15    1    1    2    0    0 -0.69897349406E+01  0.39152835665E+01 -0.16996491096E+02  0.18873904698E+02  0.17770000000E+01 0.  1.
         15    1    1    2    0    0  0.14394436153E+01 -0.50043492893E+01 -0.16531023839E+02  0.17422628616E+02  0.17770000000E+01 0. -1.
</event>
<event>
 6    1  0.1097339E-002  0.1754330E+03  0.7546771E-02  0.1074224E+00
        -11   -1    0    0    0    0  0.00000000000E+00  0.00000000000E+00  0.18250000000E+03  0.18250000000E+03  0.00000000000E+00 0. -1.
         11   -1    0    0    0    0 -0.00000000000E+00 -0.00000000000E+00 -0.18250000000E+03  0.18250000000E+03  0.00000000000E+00 0. -1.
        -11    1    1    2    0    0  0.36043322505E+01 -0.24732487874E+01  0.17525800606E+03  0.17531251199E+03  0.00000000000E+00 0. -1.
         11    1    1    2    0    0  0.18470871301E+01  0.41296941144E+01 -0.17554148477E+03  0.17559976931E+03  0.00000000000E+00 0. -1.
        -15    1    1    2    0    0 -0.75054234842E+01 -0.54278730567E+01  0.38113689340E+00  0.94390773876E+01  0.17770000000E+01 0. -1.
         15    1    1    2    0    0  0.20540041037E+01  0.37714277297E+01 -0.97658184519E-01  0.46486413175E+01  0.17770000000E+01 0. -1.
</event>
<event>
 6    1  0.1097339E-002  0.1865644E+03  0.7546771E-02  0.1065265E+00
        -11   -1    0    0    0    0  0.00000000000E+00  0.00000000000E+00  0.18250000000E+03  0.18250000000E+03  0.00000000000E+00 0. -1.
         11   -1    0    0    0    0 -0.00000000000E+00 -0.00000000000E+00 -0.18250000000E+03  0.18250000000E+03  0.00000000000E+00 0.  1.
        -11    1    1    2    0    0 -0.88759259876E+01 -0.66133445145E+01  0.14376838759E+03  0.14419385444E+03  0.00000000000E+00 0. -1.
         11    1    1    2    0    0  0.19943035023E+02  0.17483299347E+02 -0.17645357320E+03  0.17843557352E+03  0.00000000000E+00 0.  1.
        -15    1    1    2    0    0 -0.17612795464E+02 -0.93041817963E+01  0.23991440223E+02  0.31233400327E+02  0.17770000000E+01 0.  1.
         15    1    1    2    0    0  0.65456864291E+01 -0.15657730357E+01  0.86937453889E+01  0.11137171720E+02  0.17770000000E+01 0. -1.
</event>
<event>
 6    1  0.1097339E-002  0.1729062E+03  0.7546771E-02  0.1076359E+00
        -11   -1    0    0    0    0  0.00000000000E+00  0.00000000000E+00  0.18250000000E+03  0.18250000000E+03  0.00000000000E+00 0. -1.
         11   -1    0    0    0    0 -0.00000000000E+00 -0.00000000000E+00 -0.18250000000E+03  0.18250000000E+03  0.00000000000E+00 0.  1.
        -11    1    1    2    0    0  0.45892362030E+01 -0.38270989725E+00  0.17407349276E+03  0.17413439763E+03  0.00000000000E+00 0. -1.
         11    1    1    2    0    0  0.78617783404E+01  0.41825137950E+01 -0.17170034668E+03  0.17193112002E+03  0.00000000000E+00 0.  1.
        -15    1    1    2    0    0 -0.14996220069E+01 -0.59754804889E+01  0.21420495614E+01  0.67602765151E+01  0.17770000000E+01 0. -1.
         15    1    1    2    0    0 -0.10951392536E+02  0.21756765911E+01 -0.45151956373E+01  0.12174205837E+02  0.17770000000E+01 0.  1.
</event>
<event>
 6    1  0.1097339E-002  0.1826539E+03  0.7546771E-02  0.1068332E+00
        -11   -1    0    0    0    0  0.00000000000E+00  0.00000000000E+00  0.18250000000E+03  0.18250000000E+03  0.00000000000E+00 0.  1.
         11   -1    0    0    0    0 -0.00000000000E+00 -0.00000000000E+00 -0.18250000000E+03  0.18250000000E+03  0.00000000000E+00 0.  1.
        -11    1    1    2    0    0  0.20519603241E+00 -0.14711235211E+01  0.10770272472E+03  0.10771296682E+03  0.00000000000E+00 0.  1.
         11    1    1    2    0    0 -0.28699803851E+01  0.12299381785E+01 -0.18231935941E+03  0.18234609497E+03  0.00000000000E+00 0.  1.
        -15    1    1    2    0    0  0.99399110768E+00  0.14607378823E+01  0.11705341583E+02  0.11970569078E+02  0.17770000000E+01 0. -1.
         15    1    1    2    0    0  0.16707932450E+01 -0.12195525397E+01  0.62911293107E+02  0.62970369126E+02  0.17770000000E+01 0.  1.
</event>
<event>
 6    1  0.1097339E-002  0.1848721E+03  0.7546771E-02  0.1066582E+00
        -11   -1    0    0    0    0  0.00000000000E+00  0.00000000000E+00  0.18250000000E+03  0.18250000000E+03  0.00000000000E+00 0. -1.
         11   -1    0    0    0    0 -0.00000000000E+00 -0.00000000000E+00 -0.18250000000E+03  0.18250000000E+03  0.00000000000E+00 0.  1.
        -11    1    1    2    0    0  0.29208251882E+01 -0.56866124687E+00  0.17431584697E+03  0.17434124326E+03  0.00000000000E+00 0. -1.
         11    1    1    2    0    0 -0.23192437079E+01 -0.16985278730E+01 -0.18010495627E+03  0.18012789668E+03  0.00000000000E+00 0.  1.
        -15    1    1    2    0    0 -0.95758314489E+00  0.16110980611E+01  0.75132878789E+01  0.79447986880E+01  0.17770000000E+01 0. -1.
         15    1    1    2    0    0  0.35600166459E+00  0.65609105874E+00 -0.17241785799E+01  0.25860613755E+01  0.17770000000E+01 0.  1.
</event>
<event>
 6    1  0.1097339E-002  0.1835076E+03  0.7546771E-02  0.1067656E+00
        -11   -1    0    0    0    0  0.00000000000E+00  0.00000000000E+00  0.18250000000E+03  0.18250000000E+03  0.00000000000E+00 0.  1.
         11   -1    0    0    0    0 -0.00000000000E+00 -0.00000000000E+00 -0.18250000000E+03  0.18250000000E+03  0.00000000000E+00 0.  1.
        -11    1    1    2    0    0 -0.30686876888E+01 -0.90069053128E-01  0.18146639008E+03  0.18149235710E+03  0.00000000000E+00 0.  1.
         11    1    1    2    0    0 -0.21682950186E+01 -0.12027955440E+01 -0.14132939705E+03  0.14135114677E+03  0.00000000000E+00 0.  1.
        -15    1    1    2    0    0 -0.33154142811E+01  0.82929760975E+00 -0.16748973515E+02  0.17186202291E+02  0.17770000000E+01 0. -1.
         15    1    1    2    0    0  0.85523969886E+01  0.46356698740E+00 -0.23388019516E+02  0.24970293840E+02  0.17770000000E+01 0. -1.
</event>
<event>
 6    1  0.1097339E-002  0.1832640E+03  0.7546771E-02  0.1067848E+00
        -11   -1    0    0    0    0  0.00000000000E+00  0.00000000000E+00  0.18250000000E+03  0.18250000000E+03  0.00000000000E+00 0. -1.
         11   -1    0    0    0    0 -0.00000000000E+00 -0.00000000000E+00 -0.18250000000E+03  0.18250000000E+03  0.00000000000E+00 0.  1.
        -11    1    1    2    0    0 -0.11367874101E+01 -0.30156219931E+01  0.14381920755E+03  0.14385531176E+03  0.00000000000E+00 0. -1.
         11    1    1    2    0    0  0.35281741182E+01 -0.19357884513E+00 -0.18170168481E+03  0.18173603866E+03  0.00000000000E+00 0.  1.
        -15    1    1    2    0    0 -0.22267791924E+01 -0.27690758892E+01  0.86635802292E+01  0.95310900866E+01  0.17770000000E+01 0. -1.
         15    1    1    2    0    0 -0.16460751570E+00  0.59782767274E+01  0.29218897033E+02  0.29877559490E+02  0.17770000000E+01 0.  1.
</event>
<event>
 6    1  0.1097339E-002  0.1910347E+03  0.7546771E-02  0.1061857E+00
        -11   -1    0    0    0    0  0.00000000000E+00  0.00000000000E+00  0.18250000000E+03  0.18250000000E+03  0.00000000000E+00 0.  1.
         11   -1    0    0    0    0 -0.00000000000E+00 -0.00000000000E+00 -0.18250000000E+03  0.18250000000E+03  0.00000000000E+00 0. -1.
        -11    1    1    2    0    0  0.14798105477E+01  0.55748306110E+01  0.13352940087E+03  0.13365391679E+03  0.00000000000E+00 0.  1.
         11    1    1    2    0    0  0.17329897447E+01  0.13292091465E+02 -0.17344814745E+03  0.17396534943E+03  0.00000000000E+00 0. -1.
        -15    1    1    2    0    0  0.89140794142E+01 -0.30439422825E+01  0.35649640845E+02  0.36915864040E+02  0.17770000000E+01 0.  1.
         15    1    1    2    0    0 -0.12126879707E+02 -0.15822979794E+02  0.42691057331E+01  0.20464869746E+02  0.17770000000E+01 0. -1.
</event>
<event>
 6    1  0.1097339E-002  0.1835796E+03  0.7546771E-02  0.1067599E+00
        -11   -1    0    0    0    0  0.00000000000E+00  0.00000000000E+00  0.18250000000E+03  0.18250000000E+03  0.00000000000E+00 0.  1.
         11   -1    0    0    0    0 -0.00000000000E+00 -0.00000000000E+00 -0.18250000000E+03  0.18250000000E+03  0.00000000000E+00 0. -1.
        -11    1    1    2    0    0 -0.57466542888E+01  0.54220980919E+01  0.18124829503E+03  0.18142041681E+03  0.00000000000E+00 0.  1.
         11    1    1    2    0    0 -0.45602041852E+00  0.17194888163E+01 -0.10157368301E+03  0.10158925965E+03  0.00000000000E+00 0. -1.
        -15    1    1    2    0    0  0.56960000251E+01 -0.87390786598E+01 -0.23614047316E+02  0.25876569938E+02  0.17770000000E+01 0. -1.
         15    1    1    2    0    0  0.50667468217E+00  0.15974917516E+01 -0.56060564709E+02  0.56113753605E+02  0.17770000000E+01 0.  1.
</event>
<event>
 6    1  0.1097339E-002  0.1836654E+03  0.7546771E-02  0.1067531E+00
        -11   -1    0    0    0    0  0.00000000000E+00  0.00000000000E+00  0.18250000000E+03  0.18250000000E+03  0.00000000000E+00 0.  1.
         11   -1    0    0    0    0 -0.00000000000E+00 -0.00000000000E+00 -0.18250000000E+03  0.18250000000E+03  0.00000000000E+00 0. -1.
        -11    1    1    2    0    0  0.17033579408E+01  0.33163876483E+01  0.18129624637E+03  0.18133457697E+03  0.00000000000E+00 0.  1.
         11    1    1    2    0    0 -0.20925884890E+01 -0.21798173397E+01 -0.37688975127E+02  0.37809911086E+02  0.00000000000E+00 0. -1.
        -15    1    1    2    0    0  0.16522127798E+01 -0.69393934136E+01 -0.11800390564E+02  0.13902946971E+02  0.17770000000E+01 0.  1.
         15    1    1    2    0    0 -0.12629822316E+01  0.58028231050E+01 -0.13180688068E+03  0.13195256498E+03  0.17770000000E+01 0. -1.
</event>
<event>
 6    1  0.1097339E-002  0.1826236E+03  0.7546771E-02  0.1068356E+00
        -11   -1    0    0    0    0  0.00000000000E+00  0.00000000000E+00  0.18250000000E+03  0.18250000000E+03  0.00000000000E+00 0.  1.
         11   -1    0    0    0    0 -0.00000000000E+00 -0.00000000000E+00 -0.18250000000E+03  0.18250000000E+03  0.00000000000E+00 0.  1.
        -11    1    1    2    0    0  0.26661835326E+01  0.27325331074E+01  0.18233646890E+03  0.18237643258E+03  0.00000000000E+00 0.  1.
         11    1    1    2    0    0  0.29842509774E+00  0.59084443959E+00 -0.22818889031E+02  0.22828487714E+02  0.00000000000E+00 0.  1.
        -15    1    1    2    0    0 -0.54015336056E+01 -0.18291084913E+01 -0.11129087027E+03  0.11145105535E+03  0.17770000000E+01 0.  1.
         15    1    1    2    0    0  0.24369249752E+01 -0.14942690557E+01 -0.48226709598E+02  0.48344024356E+02  0.17770000000E+01 0. -1.
</event>
<event>
 6    1  0.1097339E-002  0.1853799E+03  0.7546771E-02  0.1066185E+00
        -11   -1    0    0    0    0  0.00000000000E+00  0.00000000000E+00  0.18250000000E+03  0.18250000000E+03  0.00000000000E+00 0.  1.
         11   -1    0    0    0    0 -0.00000000000E+00 -0.00000000000E+00 -0.18250000000E+03  0.18250000000E+03  0.00000000000E+00 0. -1.
        -11    1    1    2    0    0  0.63902860869E+00 -0.33991204822E+01  0.17958681970E+03  0.17962012189E+03  0.00000000000E+00 0.  1.
         11    1    1    2    0    0  0.35498836458E+01 -0.40701870297E+01 -0.17160632329E+03  0.17169128775E+03  0.00000000000E+00 0. -1.
        -15    1    1    2    0    0 -0.27594621140E+01  0.26330721638E+01 -0.71234034766E+01  0.82733491567E+01  0.17770000000E+01 0. -1.
         15    1    1    2    0    0 -0.14294501405E+01  0.48362353481E+01 -0.85709293740E+00  0.54152412088E+01  0.17770000000E+01 0.  1.
</event>
<event>
 6    1  0.1097339E-002  0.1848342E+03  0.7546771E-02  0.1066612E+00
        -11   -1    0    0    0    0  0.00000000000E+00  0.00000000000E+00  0.18250000000E+03  0.18250000000E+03  0.00000000000E+00 0.  1.
         11   -1    0    0    0    0 -0.00000000000E+00 -0.00000000000E+00 -0.18250000000E+03  0.18250000000E+03  0.00000000000E+00 0.  1.
        -11    1    1    2    0    0  0.20808262036E+01  0.17025556027E+02  0.17934748718E+03  0.18016581405E+03  0.00000000000E+00 0.  1.
         11    1    1    2    0    0 -0.18069658123E+01  0.37457983368E+00 -0.94540654215E+02  0.94558662929E+02  0.00000000000E+00 0.  1.
        -15    1    1    2    0    0 -0.12979596521E+01 -0.20040631127E+02 -0.35267292862E+02  0.40623284826E+02  0.17770000000E+01 0. -1.
         15    1    1    2    0    0  0.10240992609E+01  0.26404952670E+01 -0.49539540105E+02  0.49652238191E+02  0.17770000000E+01 0.  1.
</event>
<event>
 6    1  0.1097339E-002  0.1841027E+03  0.7546771E-02  0.1067186E+00
        -11   -1    0    0    0    0  0.00000000000E+00  0.00000000000E+00  0.18250000000E+03  0.18250000000E+03  0.00000000000E+00 0. -1.
         11   -1    0    0    0    0 -0.00000000000E+00 -0.00000000000E+00 -0.18250000000E+03  0.18250000000E+03  0.00000000000E+00 0. -1.
        -11    1    1    2    0    0 -0.67398801074E+01  0.55352628669E+01  0.97034782718E+02  0.97425942007E+02  0.00000000000E+00 0. -1.
         11    1    1    2    0    0 -0.61616499638E+00  0.34768311508E+01 -0.18086288135E+03  0.18089734621E+03  0.00000000000E+00 0. -1.
        -15    1    1    2    0    0  0.12151254561E+02 -0.29294132367E+01  0.35026910395E+02  0.37232736002E+02  0.17770000000E+01 0.  1.
         15    1    1    2    0    0 -0.47952094572E+01 -0.60826807809E+01  0.48801188236E+02  0.49443975785E+02  0.17770000000E+01 0. -1.
</event>
<event>
 6    1  0.1097339E-002  0.1829529E+03  0.7546771E-02  0.1068095E+00
        -11   -1    0    0    0    0  0.00000000000E+00  0.00000000000E+00  0.18250000000E+03  0.18250000000E+03  0.00000000000E+00 0. -1.
         11   -1    0    0    0    0 -0.00000000000E+00 -0.00000000000E+00 -0.18250000000E+03  0.18250000000E+03  0.00000000000E+00 0.  1.
        -11    1    1    2    0    0  0.30748059518E+01 -0.61873844498E-01  0.18202107128E+03  0.18204705065E+03  0.00000000000E+00 0. -1.
         11    1    1    2    0    0  0.22009562333E+01 -0.16975079503E+01 -0.11672486102E+03  0.11675795014E+03  0.00000000000E+00 0.  1.
        -15    1    1    2    0    0 -0.30195364579E+01 -0.16360442152E+01 -0.52609652755E+02  0.52751564272E+02  0.17770000000E+01 0.  1.
         15    1    1    2    0    0 -0.22562257271E+01  0.33954260100E+01 -0.12686557511E+02  0.13443434933E+02  0.17770000000E+01 0. -1.
</event>
<event>
 6    1  0.1097339E-002  0.1828522E+03  0.7546771E-02  0.1068175E+00
        -11   -1    0    0    0    0  0.00000000000E+00  0.00000000000E+00  0.18250000000E+03  0.18250000000E+03  0.00000000000E+00 0.  1.
         11   -1    0    0    0    0 -0.00000000000E+00 -0.00000000000E+00 -0.18250000000E+03  0.18250000000E+03  0.00000000000E+00 0. -1.
        -11    1    1    2    0    0  0.25223908532E+01  0.22791031584E+01  0.13691283409E+03  0.13695503242E+03  0.00000000000E+00 0.  1.
         11    1    1    2    0    0  0.12793261031E+01  0.28032186947E+01 -0.18212172938E+03  0.18214779445E+03  0.00000000000E+00 0. -1.
        -15    1    1    2    0    0 -0.23891124658E+01 -0.42004655903E+01  0.36224002240E+02  0.36588083262E+02  0.17770000000E+01 0.  1.
         15    1    1    2    0    0 -0.14126044905E+01 -0.88185626289E+00  0.89848930574E+01  0.93090898679E+01  0.17770000000E+01 0. -1.
</event>
<event>
 6    1  0.1097339E-002  0.1825944E+03  0.7546771E-02  0.1068380E+00
        -11   -1    0    0    0    0  0.00000000000E+00  0.00000000000E+00  0.18250000000E+03  0.18250000000E+03  0.00000000000E+00 0.  1.
         11   -1    0    0    0    0 -0.00000000000E+00 -0.00000000000E+00 -0.18250000000E+03  0.18250000000E+03  0.00000000000E+00 0.  1.
        -11    1    1    2    0    0  0.21707584486E+01 -0.15863390913E+01  0.18238581716E+03  0.18240563304E+03  0.00000000000E+00 0.  1.
         11    1    1    2    0    0  0.60353791464E+00  0.60299996695E-01 -0.20221614350E+02  0.20230708861E+02  0.00000000000E+00 0.  1.
        -15    1    1    2    0    0 -0.40127136711E+01  0.11911109982E+01 -0.14336925669E+03  0.14344135425E+03  0.17770000000E+01 0.  1.
         15    1    1    2    0    0  0.12384173079E+01  0.33492809642E+00 -0.18794946118E+02  0.18922303845E+02  0.17770000000E+01 0.  1.
</event>
<event>
 6    1  0.1097339E-002  0.1844776E+03  0.7546771E-02  0.1066891E+00
        -11   -1    0    0    0    0  0.00000000000E+00  0.00000000000E+00  0.18250000000E+03  0.18250000000E+03  0.00000000000E+00 0.  1.
         11   -1    0    0    0    0 -0.00000000000E+00 -0.00000000000E+00 -0.18250000000E+03  0.18250000000E+03  0.00000000000E+00 0.  1.
        -11    1    1    2    0    0 -0.58290524198E+01 -0.14863998466E+01  0.15499134697E+03  0.15510804258E+03  0.00000000000E+00 0.  1.
         11    1    1    2    0    0  0.19585529010E+00  0.27686726551E+01 -0.18050106528E+03  0.18052240436E+03  0.00000000000E+00 0.  1.
        -15    1    1    2    0    0  0.55037885043E+01 -0.23811195689E+01  0.26373528258E+02  0.27105020569E+02  0.17770000000E+01 0.  1.
         15    1    1    2    0    0  0.12940862542E+00  0.10988467604E+01 -0.86380994706E+00  0.22645324948E+01  0.17770000000E+01 0.  1.
</event>
<event>
 6    1  0.1097339E-002  0.1873871E+03  0.7546771E-02  0.1064630E+00
        -11   -1    0    0    0    0  0.00000000000E+00  0.00000000000E+00  0.18250000000E+03  0.18250000000E+03  0.00000000000E+00 0.  1.
         11   -1    0    0    0    0 -0.00000000000E+00 -0.00000000000E+00 -0.18250000000E+03  0.18250000000E+03  0.00000000000E+00 0.  1.
        -11    1    1    2    0    0 -0.44391651959E+01 -0.40401535793E+01  0.17751141187E+03  0.17761286657E+03  0.00000000000E+00 0.  1.
         11    1    1    2    0    0  0.25023607521E+01 -0.98171075898E+01 -0.12563402442E+03  0.12604184029E+03  0.00000000000E+00 0.  1.
        -15    1    1    2    0    0  0.41934351182E+01  0.80521899426E+01 -0.53799678784E+02  0.54589246443E+02  0.17770000000E+01 0.  1.
         15    1    1    2    0    0 -0.22566306744E+01  0.58050712265E+01  0.19222913378E+01  0.67560466941E+01  0.17770000000E+01 0. -1.
</event>
<event>
 6    1  0.1097339E-002  0.1865662E+03  0.7546771E-02  0.1065263E+00
        -11   -1    0    0    0    0  0.00000000000E+00  0.00000000000E+00  0.18250000000E+03  0.18250000000E+03  0.00000000000E+00 0.  1.
         11   -1    0    0    0    0 -0.00000000000E+00 -0.00000000000E+00 -0.18250000000E+03  0.18250000000E+03  0.00000000000E+00 0. -1.
        -11    1    1    2    0    0 -0.27416138721E+01 -0.26016288967E+00  0.15697720630E+03  0.15700136124E+03  0.00000000000E+00 0.  1.
         11    1    1    2    0    0 -0.72497492656E+00  0.33595056688E+01 -0.17840068002E+03  0.17843378183E+03  0.00000000000E+00 0. -1.
        -15    1    1    2    0    0  0.35268162428E+01  0.10707278448E+01  0.24002845522E+02  0.24349111135E+02  0.17770000000E+01 0.  1.
         15    1    1    2    0    0 -0.60227444170E-01 -0.41700706239E+01 -0.25793718084E+01  0.52157458028E+01  0.17770000000E+01 0.  1.
</event>
<event>
 6    1  0.1097339E-002  0.1831362E+03  0.7546771E-02  0.1067950E+00
        -11   -1    0    0    0    0  0.00000000000E+00  0.00000000000E+00  0.18250000000E+03  0.18250000000E+03  0.00000000000E+00 0. -1.
         11   -1    0    0    0    0 -0.00000000000E+00 -0.00000000000E+00 -0.18250000000E+03  0.18250000000E+03  0.00000000000E+00 0. -1.
        -11    1    1    2    0    0  0.18624045174E+01  0.45632517861E+00  0.82243877816E+02  0.82266227709E+02  0.00000000000E+00 0. -1.
         11    1    1    2    0    0  0.35835288134E+01 -0.13882274742E+02 -0.18129782072E+03  0.18186384750E+03  0.00000000000E+00 0. -1.
        -15    1    1    2    0    0 -0.15830763066E+01 -0.18295975983E+01  0.10955303013E+02  0.11359135138E+02  0.17770000000E+01 0. -1.
         15    1    1    2    0    0 -0.38628570242E+01  0.15255547162E+02  0.88098639893E+02  0.89510789649E+02  0.17770000000E+01 0.  1.
</event>
<event>
 6    1  0.1097339E-002  0.1833442E+03  0.7546771E-02  0.1067785E+00
        -11   -1    0    0    0    0  0.00000000000E+00  0.00000000000E+00  0.18250000000E+03  0.18250000000E+03  0.00000000000E+00 0. -1.
         11   -1    0    0    0    0 -0.00000000000E+00 -0.00000000000E+00 -0.18250000000E+03  0.18250000000E+03  0.00000000000E+00 0.  1.
        -11    1    1    2    0    0  0.29635431072E+01  0.67958102108E+01  0.18150447278E+03  0.18165582639E+03  0.00000000000E+00 0. -1.
         11    1    1    2    0    0  0.12429270554E+01  0.26192755352E+01 -0.13435792974E+03  0.13438920624E+03  0.00000000000E+00 0.  1.
        -15    1    1    2    0    0 -0.41039666963E+01 -0.62175839003E+01 -0.41671669875E+02  0.42369643513E+02  0.17770000000E+01 0.  1.
         15    1    1    2    0    0 -0.10250346626E+00 -0.31975018458E+01 -0.54748731664E+01  0.65853238495E+01  0.17770000000E+01 0. -1.
</event>
<event>
 6    1  0.1743521E-002  0.1905131E+03  0.7546771E-02  0.1062249E+00
        -11   -1    0    0    0    0  0.00000000000E+00  0.00000000000E+00  0.18250000000E+03  0.18250000000E+03  0.00000000000E+00 0.  1.
         11   -1    0    0    0    0 -0.00000000000E+00 -0.00000000000E+00 -0.18250000000E+03  0.18250000000E+03  0.00000000000E+00 0. -1.
        -11    1    1    2    0    0  0.32083934283E+01  0.26117371887E+01  0.15108609418E+03  0.15114272333E+03  0.00000000000E+00 0.  1.
         11    1    1    2    0    0 -0.46008327794E+01  0.20496609739E+01 -0.17441414389E+03  0.17448685441E+03  0.00000000000E+00 0. -1.
        -15    1    1    2    0    0 -0.30324311219E+01 -0.12828906729E+01  0.30153630244E+02  0.30384874409E+02  0.17770000000E+01 0. -1.
         15    1    1    2    0    0  0.44248704729E+01 -0.33785074898E+01 -0.68255805330E+01  0.89855478504E+01  0.17770000000E+01 0.  1.
</event>
<event>
 6    1  0.1097339E-002  0.1835284E+03  0.7546771E-02  0.1067639E+00
        -11   -1    0    0    0    0  0.00000000000E+00  0.00000000000E+00  0.18250000000E+03  0.18250000000E+03  0.00000000000E+00 0.  1.
         11   -1    0    0    0    0 -0.00000000000E+00 -0.00000000000E+00 -0.18250000000E+03  0.18250000000E+03  0.00000000000E+00 0.  1.
        -11    1    1    2    0    0 -0.25962196782E+01  0.82954413525E+00  0.17263992049E+03  0.17266143358E+03  0.00000000000E+00 0.  1.
         11    1    1    2    0    0 -0.11956741419E+01  0.25552080652E+01 -0.18144969025E+03  0.18147161987E+03  0.00000000000E+00 0.  1.
        -15    1    1    2    0    0  0.21477205432E+01 -0.12164906961E+01  0.50703371411E+01  0.59125798828E+01  0.17770000000E+01 0.  1.
         15    1    1    2    0    0  0.16441732768E+01 -0.21682615043E+01  0.37394326259E+01  0.49543666678E+01  0.17770000000E+01 0. -1.
</event>
<event>
 6    1  0.1097339E-002  0.1868389E+03  0.7546771E-02  0.1065053E+00
        -11   -1    0    0    0    0  0.00000000000E+00  0.00000000000E+00  0.18250000000E+03  0.18250000000E+03  0.00000000000E+00 0.  1.
         11   -1    0    0    0    0 -0.00000000000E+00 -0.00000000000E+00 -0.18250000000E+03  0.18250000000E+03  0.00000000000E+00 0.  1.
        -11    1    1    2    0    0  0.26260703328E+01 -0.60347521902E+01  0.17803952365E+03  0.17816112500E+03  0.00000000000E+00 0.  1.
         11    1    1    2    0    0 -0.12608413089E+02  0.10592736849E+01 -0.16854179652E+03  0.16901606821E+03  0.00000000000E+00 0.  1.
        -15    1    1    2    0    0  0.71748580580E+01 -0.30051999329E+00 -0.12803671563E+01  0.75077273175E+01  0.17770000000E+01 0.  1.
         15    1    1    2    0    0  0.28074846985E+01  0.52759984987E+01 -0.82173599779E+01  0.10315079471E+02  0.17770000000E+01 0. -1.
</event>
<event>
 6    1  0.1097339E-002  0.1828658E+03  0.7546771E-02  0.1068164E+00
        -11   -1    0    0    0    0  0.00000000000E+00  0.00000000000E+00  0.18250000000E+03  0.18250000000E+03  0.00000000000E+00 0.  1.
         11   -1    0    0    0    0 -0.00000000000E+00 -0.00000000000E+00 -0.18250000000E+03  0.18250000000E+03  0.00000000000E+00 0.  1.
        -11    1    1    2    0    0  0.56487017043E+00 -0.29098071853E+01  0.10251629981E+03  0.10255914286E+03  0.00000000000E+00 0.  1.
         11    1    1    2    0    0  0.15634845692E+01 -0.54935500072E+01 -0.18204466073E+03  0.18213424191E+03  0.00000000000E+00 0.  1.
        -15    1    1    2    0    0 -0.51000472596E+00 -0.37495407828E+00  0.91689528923E+01  0.93609893453E+01  0.17770000000E+01 0. -1.
         15    1    1    2    0    0 -0.16183500137E+01  0.87783112707E+01  0.70359408026E+02  0.70945625886E+02  0.17770000000E+01 0.  1.
</event>
<event>
 6    1  0.1097339E-002  0.1827493E+03  0.7546771E-02  0.1068257E+00
        -11   -1    0    0    0    0  0.00000000000E+00  0.00000000000E+00  0.18250000000E+03  0.18250000000E+03  0.00000000000E+00 0.  1.
         11   -1    0    0    0    0 -0.00000000000E+00 -0.00000000000E+00 -0.18250000000E+03  0.18250000000E+03  0.00000000000E+00 0. -1.
        -11    1    1    2    0    0  0.29139765236E+01 -0.16380028123E+01  0.18222003661E+03  0.18225069562E+03  0.00000000000E+00 0.  1.
         11    1    1    2    0    0  0.18671355239E+01  0.79427913634E+00 -0.11018938958E+03  0.11020806980E+03  0.00000000000E+00 0. -1.
        -15    1    1    2    0    0  0.58535730059E+00  0.16382785211E+01 -0.13039530015E+02  0.13274549774E+02  0.17770000000E+01 0. -1.
         15    1    1    2    0    0 -0.53664693481E+01 -0.79455484517E+00 -0.58991117022E+02  0.59266684800E+02  0.17770000000E+01 0.  1.
</event>
<event>
 6    1  0.1097339E-002  0.1845964E+03  0.7546771E-02  0.1066798E+00
        -11   -1    0    0    0    0  0.00000000000E+00  0.00000000000E+00  0.18250000000E+03  0.18250000000E+03  0.00000000000E+00 0. -1.
         11   -1    0    0    0    0 -0.00000000000E+00 -0.00000000000E+00 -0.18250000000E+03  0.18250000000E+03  0.00000000000E+00 0.  1.
        -11    1    1    2    0    0 -0.33073582378E+01  0.47168678717E+01  0.18031157117E+03  0.18040357579E+03  0.00000000000E+00 0. -1.
         11    1    1    2    0    0 -0.27010977022E+00  0.45393632697E+01 -0.13993709837E+03  0.14001096485E+03  0.00000000000E+00 0.  1.
        -15    1    1    2    0    0  0.87617158971E-01 -0.52587783637E+01 -0.21497667688E+01  0.59532892425E+01  0.17770000000E+01 0. -1.
         15    1    1    2    0    0  0.34898508490E+01 -0.39974527777E+01 -0.38224706031E+02  0.38632170115E+02  0.17770000000E+01 0.  1.
</event>
<event>
 6    1  0.1097339E-002  0.1892132E+03  0.7546771E-02  0.1063233E+00
        -11   -1    0    0    0    0  0.00000000000E+00  0.00000000000E+00  0.18250000000E+03  0.18250000000E+03  0.00000000000E+00 0. -1.
         11   -1    0    0    0    0 -0.00000000000E+00 -0.00000000000E+00 -0.18250000000E+03  0.18250000000E+03  0.00000000000E+00 0.  1.
        -11    1    1    2    0    0 -0.30481088017E+01 -0.70089244624E+01  0.17562055479E+03  0.17578678919E+03  0.00000000000E+00 0. -1.
         11    1    1    2    0    0  0.96704653010E+00  0.28646437318E+01 -0.13833742558E+03  0.13837046173E+03  0.00000000000E+00 0.  1.
        -15    1    1    2    0    0  0.21755255673E+01 -0.95997518950E+00  0.62796098258E+01  0.69459119216E+01  0.17770000000E+01 0. -1.
         15    1    1    2    0    0 -0.94463295710E-01  0.51042559201E+01 -0.43562739032E+02  0.43896837161E+02  0.17770000000E+01 0.  1.
</event>
<event>
 6    1  0.1097339E-002  0.1827727E+03  0.7546771E-02  0.1068238E+00
        -11   -1    0    0    0    0  0.00000000000E+00  0.00000000000E+00  0.18250000000E+03  0.18250000000E+03  0.00000000000E+00 0. -1.
         11   -1    0    0    0    0 -0.00000000000E+00 -0.00000000000E+00 -0.18250000000E+03  0.18250000000E+03  0.00000000000E+00 0.  1.
        -11    1    1    2    0    0  0.23105537575E+01 -0.29827096203E+01  0.18218821252E+03  0.18222727566E+03  0.00000000000E+00 0. -1.
         11    1    1    2    0    0 -0.18521744602E+01 -0.11608340119E+01 -0.11923683265E+03  0.11925686708E+03  0.00000000000E+00 0.  1.
        -15    1    1    2    0    0 -0.29915428563E+01  0.18659485590E+01 -0.44132801345E+02  0.44309062010E+02  0.17770000000E+01 0. -1.
         15    1    1    2    0    0  0.25331635590E+01  0.22775950733E+01 -0.18818578522E+02  0.19206795244E+02  0.17770000000E+01 0.  1.
</event>
<event>
 6    1  0.1097339E-002  0.1857787E+03  0.7546771E-02  0.1065875E+00
        -11   -1    0    0    0    0  0.00000000000E+00  0.00000000000E+00  0.18250000000E+03  0.18250000000E+03  0.00000000000E+00 0.  1.
         11   -1    0    0    0    0 -0.00000000000E+00 -0.00000000000E+00 -0.18250000000E+03  0.18250000000E+03  0.00000000000E+00 0.  1.
        -11    1    1    2    0    0  0.35893602932E+01 -0.30542709008E+01  0.16430430335E+03  0.16437188378E+03  0.00000000000E+00 0.  1.
         11    1    1    2    0    0  0.43013959154E+01  0.37715900877E+00 -0.17916930281E+03  0.17922132498E+03  0.00000000000E+00 0.  1.
        -15    1    1    2    0    0 -0.49930130412E+01  0.83163070824E+00  0.16392666475E+02  0.17248160251E+02  0.17770000000E+01 0.  1.
         15    1    1    2    0    0 -0.28977431674E+01  0.18454811838E+01 -0.15276670084E+01  0.41586309950E+01  0.17770000000E+01 0. -1.
</event>
<event>
 6    1  0.1097339E-002  0.1831750E+03  0.7546771E-02  0.1067919E+00
        -11   -1    0    0    0    0  0.00000000000E+00  0.00000000000E+00  0.18250000000E+03  0.18250000000E+03  0.00000000000E+00 0.  1.
         11   -1    0    0    0    0 -0.00000000000E+00 -0.00000000000E+00 -0.18250000000E+03  0.18250000000E+03  0.00000000000E+00 0.  1.
        -11    1    1    2    0    0 -0.35851158559E+01  0.65042267465E+01  0.94558693141E+02  0.94849904954E+02  0.00000000000E+00 0.  1.
         11    1    1    2    0    0  0.10722975336E+01  0.26125450143E+01 -0.18180307958E+03  0.18182501192E+03  0.00000000000E+00 0.  1.
        -15    1    1    2    0    0  0.21789058325E+00  0.89935849855E+00  0.44961577269E+01  0.49223455100E+01  0.17770000000E+01 0. -1.
         15    1    1    2    0    0  0.22949277391E+01 -0.10016130259E+02  0.82748228711E+02  0.83402737620E+02  0.17770000000E+01 0.  1.
</event>
<event>
 6    1  0.1097339E-002  0.1944819E+03  0.7546771E-02  0.1059298E+00
        -11   -1    0    0    0    0  0.00000000000E+00  0.00000000000E+00  0.18250000000E+03  0.18250000000E+03  0.00000000000E+00 0.  1.
         11   -1    0    0    0    0 -0.00000000000E+00 -0.00000000000E+00 -0.18250000000E+03  0.18250000000E+03  0.00000000000E+00 0. -1.
        -11    1    1    2    0    0 -0.56444904600E+00 -0.67666988994E+01  0.16188933497E+03  0.16203167467E+03  0.00000000000E+00 0.  1.
         11    1    1    2    0    0 -0.56403115036E+01  0.59333868238E-01 -0.17042482433E+03  0.17051814385E+03  0.00000000000E+00 0. -1.
        -15    1    1    2    0    0 -0.99639832462E+01  0.34654145393E+00 -0.40662755838E+01  0.10912991305E+02  0.17770000000E+01 0.  1.
         15    1    1    2    0    0  0.16168743796E+02  0.63608235772E+01  0.12601764936E+02  0.21537190184E+02  0.17770000000E+01 0. -1.
</event>
<event>
 6    1  0.1097339E-002  0.1972204E+03  0.7546771E-02  0.1057306E+00
        -11   -1    0    0    0    0  0.00000000000E+00  0.00000000000E+00  0.18250000000E+03  0.18250000000E+03  0.00000000000E+00 0.  1.
         11   -1    0    0    0    0 -0.00000000000E+00 -0.00000000000E+00 -0.18250000000E+03  0.18250000000E+03  0.00000000000E+00 0.  1.
        -11    1    1    2    0    0 -0.18544761538E+02  0.13265936749E+02  0.16622303373E+03  0.16777958815E+03  0.00000000000E+00 0.  1.
         11    1    1    2    0    0  0.24602433323E+01 -0.27109578547E+01 -0.10431038821E+03  0.10437460984E+03  0.00000000000E+00 0.  1.
        -15    1    1    2    0    0 -0.57684870548E+01 -0.10053805547E+01 -0.67914483976E+02  0.68189596682E+02  0.17770000000E+01 0.  1.
         15    1    1    2    0    0  0.21853005260E+02 -0.95495983395E+01  0.60018384550E+01  0.24656205328E+02  0.17770000000E+01 0. -1.
</event>
<event>
 6    1  0.1097339E-002  0.1893356E+03  0.7546771E-02  0.1063140E+00
        -11   -1    0    0    0    0  0.00000000000E+00  0.00000000000E+00  0.18250000000E+03  0.18250000000E+03  0.00000000000E+00 0.  1.
         11   -1    0    0    0    0 -0.00000000000E+00 -0.00000000000E+00 -0.18250000000E+03  0.18250000000E+03  0.00000000000E+00 0.  1.
        -11    1    1    2    0    0  0.96193280337E+00 -0.35012521167E+01  0.17562688900E+03  0.17566441933E+03  0.00000000000E+00 0.  1.
         11    1    1    2    0    0  0.92925442830E+00  0.29776155401E+01 -0.15442207308E+03  0.15445357348E+03  0.00000000000E+00 0.  1.
        -15    1    1    2    0    0  0.51271972913E+01 -0.45027246527E+01  0.40512808000E+01  0.81322374831E+01  0.17770000000E+01 0. -1.
         15    1    1    2    0    0 -0.70183845230E+01  0.50263612293E+01 -0.25256096718E+02  0.26749769699E+02  0.17770000000E+01 0.  1.
</event>
<event>
 6    1  0.1097339E-002  0.1849638E+03  0.7546771E-02  0.1066510E+00
        -11   -1    0    0    0    0  0.00000000000E+00  0.00000000000E+00  0.18250000000E+03  0.18250000000E+03  0.00000000000E+00 0.  1.
         11   -1    0    0    0    0 -0.00000000000E+00 -0.00000000000E+00 -0.18250000000E+03  0.18250000000E+03  0.00000000000E+00 0. -1.
        -11    1    1    2    0    0  0.19550067539E+01 -0.32902010012E+01  0.17602513551E+03  0.17606673680E+03  0.00000000000E+00 0.  1.
         11    1    1    2    0    0 -0.19237666122E+01  0.17166690151E+01 -0.18001777795E+03  0.18003624138E+03  0.00000000000E+00 0. -1.
        -15    1    1    2    0    0  0.66706006449E+00 -0.23505138300E+01  0.33075696939E+01  0.44796909128E+01  0.17770000000E+01 0.  1.
         15    1    1    2    0    0 -0.69830020624E+00  0.39240458160E+01  0.68507274540E+00  0.44173309148E+01  0.17770000000E+01 0. -1.
</event>
<event>
 6    1  0.1097339E-002  0.1837081E+03  0.7546771E-02  0.1067497E+00
        -11   -1    0    0    0    0  0.00000000000E+00  0.00000000000E+00  0.18250000000E+03  0.18250000000E+03  0.00000000000E+00 0. -1.
         11   -1    0    0    0    0 -0.00000000000E+00 -0.00000000000E+00 -0.18250000000E+03  0.18250000000E+03  0.00000000000E+00 0.  1.
        -11    1    1    2    0    0 -0.77956621948E+00 -0.54500316650E+01  0.70197618215E+02  0.70413181804E+02  0.00000000000E+00 0. -1.
         11    1    1    2    0    0 -0.42110839267E+01  0.38667343111E+01 -0.18120177029E+03  0.18129193699E+03  0.00000000000E+00 0.  1.
        -15    1    1    2    0    0  0.41668730397E+01  0.49175961010E+01  0.10846023973E+03  0.10866612588E+03  0.17770000000E+01 0.  1.
         15    1    1    2    0    0  0.82377710647E+00 -0.33342987472E+01  0.25439123422E+01  0.46287553253E+01  0.17770000000E+01 0. -1.
</event>
<event>
 6    1  0.1097339E-002  0.1850866E+03  0.7546771E-02  0.1066414E+00
        -11   -1    0    0    0    0  0.00000000000E+00  0.00000000000E+00  0.18250000000E+03  0.18250000000E+03  0.00000000000E+00 0. -1.
         11   -1    0    0    0    0 -0.00000000000E+00 -0.00000000000E+00 -0.18250000000E+03  0.18250000000E+03  0.00000000000E+00 0.  1.
        -11    1    1    2    0    0  0.27530214305E+01  0.59377668450E+01  0.17979426506E+03  0.17991335123E+03  0.00000000000E+00 0. -1.
         11    1    1    2    0    0  0.55458271643E+01  0.33068103321E+01 -0.13774481348E+03  0.13789606534E+03  0.00000000000E+00 0.  1.
        -15    1    1    2    0    0 -0.44386096567E+01 -0.46953312148E+01 -0.40116107583E+02  0.40671946197E+02  0.17770000000E+01 0.  1.
         15    1    1    2    0    0 -0.38602389381E+01 -0.45492459623E+01 -0.19333439923E+01  0.65186372408E+01  0.17770000000E+01 0. -1.
</event>
<event>
 6    1  0.1097339E-002  0.1786818E+03  0.7546771E-02  0.1071535E+00
        -11   -1    0    0    0    0  0.00000000000E+00  0.00000000000E+00  0.18250000000E+03  0.18250000000E+03  0.00000000000E+00 0.  1.
         11   -1    0    0    0    0 -0.00000000000E+00 -0.00000000000E+00 -0.18250000000E+03  0.18250000000E+03  0.00000000000E+00 0.  1.
        -11    1    1    2    0    0 -0.80201254462E-01  0.28509677938E+01  0.17906419734E+03  0.17908690968E+03  0.00000000000E+00 0.  1.
         11    1    1    2    0    0  0.35938269440E+01 -0.25196920542E+00 -0.17826783201E+03  0.17830423161E+03  0.00000000000E+00 0.  1.
        -15    1    1    2    0    0 -0.26535201012E+01  0.10944895143E+01 -0.24632254713E+00  0.33848899571E+01  0.17770000000E+01 0.  1.
         15    1    1    2    0    0 -0.86010558830E+00 -0.36934881027E+01 -0.55004277809E+00  0.42239687552E+01  0.17770000000E+01 0. -1.
</event>
<event>
 6    1  0.1097339E-002  0.1848047E+03  0.7546771E-02  0.1066635E+00
        -11   -1    0    0    0    0  0.00000000000E+00  0.00000000000E+00  0.18250000000E+03  0.18250000000E+03  0.00000000000E+00 0.  1.
         11   -1    0    0    0    0 -0.00000000000E+00 -0.00000000000E+00 -0.18250000000E+03  0.18250000000E+03  0.00000000000E+00 0. -1.
        -11    1    1    2    0    0  0.29256267861E+01 -0.83204109313E+00  0.16945998706E+03  0.16948728212E+03  0.00000000000E+00 0.  1.
         11    1    1    2    0    0 -0.29101878600E+01  0.56653628118E+01 -0.18008268203E+03  0.18019527712E+03  0.00000000000E+00 0. -1.
        -15    1    1    2    0    0 -0.38751272807E+01 -0.42833271784E+01  0.34395786242E+01  0.69535554410E+01  0.17770000000E+01 0. -1.
         15    1    1    2    0    0  0.38596883546E+01 -0.54999454028E+00  0.71831163471E+01  0.83638853199E+01  0.17770000000E+01 0.  1.
</event>
<event>
 6    1  0.1097339E-002  0.1660080E+03  0.7546771E-02  0.1082397E+00
        -11   -1    0    0    0    0  0.00000000000E+00  0.00000000000E+00  0.18250000000E+03  0.18250000000E+03  0.00000000000E+00 0. -1.
         11   -1    0    0    0    0 -0.00000000000E+00 -0.00000000000E+00 -0.18250000000E+03  0.18250000000E+03  0.00000000000E+00 0. -1.
        -11    1    1    2    0    0 -0.74460355464E+01 -0.26130260516E+01  0.17664353121E+03  0.17681970611E+03  0.00000000000E+00 0. -1.
         11    1    1    2    0    0 -0.55429342354E+01  0.31412571983E+01 -0.39264703755E+02  0.39778242516E+02  0.00000000000E+00 0. -1.
        -15    1    1    2    0    0  0.23785829117E+02 -0.21466078030E+02 -0.70089513656E+02  0.77086028736E+02  0.17770000000E+01 0. -1.
         15    1    1    2    0    0 -0.10796859335E+02  0.20937846884E+02 -0.67289313802E+02  0.71316022636E+02  0.17770000000E+01 0.  1.
</event>
<event>
 6    1  0.1097339E-002  0.1864986E+03  0.7546771E-02  0.1065316E+00
        -11   -1    0    0    0    0  0.00000000000E+00  0.00000000000E+00  0.18250000000E+03  0.18250000000E+03  0.00000000000E+00 0. -1.
         11   -1    0    0    0    0 -0.00000000000E+00 -0.00000000000E+00 -0.18250000000E+03  0.18250000000E+03  0.00000000000E+00 0. -1.
        -11    1    1    2    0    0 -0.10102236541E+02  0.90397866855E-01  0.15458753450E+03  0.15491729787E+03  0.00000000000E+00 0. -1.
         11    1    1    2    0    0  0.15139944797E+01 -0.44091717143E+01 -0.17844053260E+03  0.17850141918E+03  0.00000000000E+00 0. -1.
        -15    1    1    2    0    0 -0.19638516398E+01  0.51135168603E+01  0.37903436179E+00  0.57711492782E+01  0.17770000000E+01 0.  1.
         15    1    1    2    0    0  0.10552093701E+02 -0.79474301286E+00  0.23473963735E+02  0.25810133676E+02  0.17770000000E+01 0. -1.
</event>
<event>
 6    1  0.1097339E-002  0.1833873E+03  0.7546771E-02  0.1067751E+00
        -11   -1    0    0    0    0  0.00000000000E+00  0.00000000000E+00  0.18250000000E+03  0.18250000000E+03  0.00000000000E+00 0.  1.
         11   -1    0    0    0    0 -0.00000000000E+00 -0.00000000000E+00 -0.18250000000E+03  0.18250000000E+03  0.00000000000E+00 0. -1.
        -11    1    1    2    0    0 -0.28558223730E+01 -0.57750867080E+01  0.18149839281E+03  0.18161270314E+03  0.00000000000E+00 0.  1.
         11    1    1    2    0    0  0.27514898964E+01 -0.18297600852E+01 -0.11728408782E+03  0.11733062675E+03  0.00000000000E+00 0. -1.
        -15    1    1    2    0    0 -0.63456116516E+01  0.51566032177E+01 -0.34950048417E+02  0.35937737232E+02  0.17770000000E+01 0.  1.
         15    1    1    2    0    0  0.64499441282E+01  0.24482435756E+01 -0.29264256575E+02  0.30118932879E+02  0.17770000000E+01 0. -1.
</event>
<event>
 6    1  0.1097339E-002  0.1840836E+03  0.7546771E-02  0.1067201E+00
        -11   -1    0    0    0    0  0.00000000000E+00  0.00000000000E+00  0.18250000000E+03  0.18250000000E+03  0.00000000000E+00 0.  1.
         11   -1    0    0    0    0 -0.00000000000E+00 -0.00000000000E+00 -0.18250000000E+03  0.18250000000E+03  0.00000000000E+00 0.  1.
        -11    1    1    2    0    0 -0.16331065326E+01  0.35843541859E+01  0.17310923533E+03  0.17315404121E+03  0.00000000000E+00 0.  1.
         11    1    1    2    0    0  0.26717486861E+01  0.13356402047E+01 -0.18089169429E+03  0.18091635426E+03  0.00000000000E+00 0.  1.
        -15    1    1    2    0    0 -0.23848671606E+01 -0.27644475308E+01  0.62933213038E+01  0.74895516259E+01  0.17770000000E+01 0. -1.
         15    1    1    2    0    0  0.13462250071E+01 -0.21555468598E+01  0.14891376523E+01  0.34400529040E+01  0.17770000000E+01 0.  1.
</event>
<event>
 6    1  0.1097339E-002  0.1730330E+03  0.7546771E-02  0.1076251E+00
        -11   -1    0    0    0    0  0.00000000000E+00  0.00000000000E+00  0.18250000000E+03  0.18250000000E+03  0.00000000000E+00 0. -1.
         11   -1    0    0    0    0 -0.00000000000E+00 -0.00000000000E+00 -0.18250000000E+03  0.18250000000E+03  0.00000000000E+00 0. -1.
        -11    1    1    2    0    0  0.29196859550E+01 -0.21379657120E+01  0.17408688692E+03  0.17412449472E+03  0.00000000000E+00 0. -1.
         11    1    1    2    0    0  0.48280030662E+01  0.82929764366E+01 -0.17182249441E+03  0.17209024568E+03  0.00000000000E+00 0. -1.
        -15    1    1    2    0    0 -0.10528902864E+01 -0.22944737055E+01 -0.82768113262E+01  0.88338282907E+01  0.17770000000E+01 0.  1.
         15    1    1    2    0    0 -0.66947987348E+01 -0.38605370191E+01  0.60124188115E+01  0.99514313111E+01  0.17770000000E+01 0. -1.
</event>
<event>
 6    1  0.1097339E-002  0.1849565E+03  0.7546771E-02  0.1066516E+00
        -11   -1    0    0    0    0  0.00000000000E+00  0.00000000000E+00  0.18250000000E+03  0.18250000000E+03  0.00000000000E+00 0. -1.
         11   -1    0    0    0    0 -0.00000000000E+00 -0.00000000000E+00 -0.18250000000E+03  0.18250000000E+03  0.00000000000E+00 0. -1.
        -11    1    1    2    0    0  0.19598830741E+01 -0.12484823230E+01  0.15828119594E+03  0.15829825279E+03  0.00000000000E+00 0. -1.
         11    1    1    2    0    0 -0.89464326480E+01  0.46913192928E+01 -0.17975984613E+03  0.18004346535E+03  0.00000000000E+00 0. -1.
        -15    1    1    2    0    0  0.33276750805E+01 -0.34975007739E+01  0.36598303251E+00  0.51572866592E+01  0.17770000000E+01 0.  1.
         15    1    1    2    0    0  0.36588744933E+01  0.54663804122E-01  0.21112667164E+02  0.21500995197E+02  0.17770000000E+01 0. -1.
</event>
<event>
 6    1  0.1097339E-002  0.1918469E+03  0.7546771E-02  0.1061249E+00
        -11   -1    0    0    0    0  0.00000000000E+00  0.00000000000E+00  0.18250000000E+03  0.18250000000E+03  0.00000000000E+00 0. -1.
         11   -1    0    0    0    0 -0.00000000000E+00 -0.00000000000E+00 -0.18250000000E+03  0.18250000000E+03  0.00000000000E+00 0. -1.
        -11    1    1    2    0    0  0.71742464118E+01 -0.27659949621E+01  0.17298230191E+03  0.17315310368E+03  0.00000000000E+00 0. -1.
         11    1    1    2    0    0 -0.16031323218E+02  0.60447844430E+01 -0.12413636483E+03  0.12531312707E+03  0.00000000000E+00 0. -1.
        -15    1    1    2    0    0  0.16513934316E+02  0.29877478108E+01 -0.53026050758E+02  0.55646711058E+02  0.17770000000E+01 0.  1.
         15    1    1    2    0    0 -0.76568575106E+01 -0.62665372917E+01  0.41801136780E+01  0.10887058185E+02  0.17770000000E+01 0. -1.
</event>
<event>
 6    1  0.1097339E-002  0.1828691E+03  0.7546771E-02  0.1068161E+00
        -11   -1    0    0    0    0  0.00000000000E+00  0.00000000000E+00  0.18250000000E+03  0.18250000000E+03  0.00000000000E+00 0.  1.
         11   -1    0    0    0    0 -0.00000000000E+00 -0.00000000000E+00 -0.18250000000E+03  0.18250000000E+03  0.00000000000E+00 0. -1.
        -11    1    1    2    0    0  0.56965897688E+01  0.38754755546E+01  0.18200057128E+03  0.18213093750E+03  0.00000000000E+00 0.  1.
         11    1    1    2    0    0 -0.93993986608E+00 -0.38498424380E+01 -0.10124561917E+03  0.10132314728E+03  0.00000000000E+00 0. -1.
        -15    1    1    2    0    0 -0.37109352302E+01  0.45428491039E+01 -0.51669230622E+02  0.52031487009E+02  0.17770000000E+01 0. -1.
         15    1    1    2    0    0 -0.10457146726E+01 -0.45684822205E+01 -0.29085721494E+02  0.29514428214E+02  0.17770000000E+01 0.  1.
</event>
<event>
 6    1  0.1097339E-002  0.1732048E+03  0.7546771E-02  0.1076104E+00
        -11   -1    0    0    0    0  0.00000000000E+00  0.00000000000E+00  0.18250000000E+03  0.18250000000E+03  0.00000000000E+00 0. -1.
         11   -1    0    0    0    0 -0.00000000000E+00 -0.00000000000E+00 -0.18250000000E+03  0.18250000000E+03  0.00000000000E+00 0. -1.
        -11    1    1    2    0    0  0.26307000077E+00 -0.44065858902E+00  0.24283713953E+02  0.24289136444E+02  0.00000000000E+00 0. -1.
         11    1    1    2    0    0  0.73590276511E+00  0.10192978991E+02 -0.17867029502E+03  0.17896232200E+03  0.00000000000E+00 0. -1.
        -15    1    1    2    0    0 -0.20187253125E+02 -0.14837929552E+02  0.11372141905E+03  0.11646204627E+03  0.17770000000E+01 0. -1.
         15    1    1    2    0    0  0.19188280359E+02  0.50856091500E+01  0.40665162025E+02  0.45286495284E+02  0.17770000000E+01 0.  1.
</event>
<event>
 6    1  0.1097339E-002  0.1956610E+03  0.7546771E-02  0.1058436E+00
        -11   -1    0    0    0    0  0.00000000000E+00  0.00000000000E+00  0.18250000000E+03  0.18250000000E+03  0.00000000000E+00 0. -1.
         11   -1    0    0    0    0 -0.00000000000E+00 -0.00000000000E+00 -0.18250000000E+03  0.18250000000E+03  0.00000000000E+00 0.  1.
        -11    1    1    2    0    0 -0.51426577457E+01 -0.27044336588E+02  0.55115392959E+02  0.61608032035E+02  0.00000000000E+00 0. -1.
         11    1    1    2    0    0  0.67463506863E+01 -0.15099676584E+02 -0.16852948420E+03  0.16933901064E+03  0.00000000000E+00 0.  1.
        -15    1    1    2    0    0  0.54848618434E+01  0.42084268885E+02  0.11800848666E+03  0.12542061254E+03  0.17770000000E+01 0. -1.
         15    1    1    2    0    0 -0.70885547840E+01  0.59744285909E-01 -0.45943954157E+01  0.86323447881E+01  0.17770000000E+01 0.  1.
</event>
<event>
 6    1  0.1097339E-002  0.1869313E+03  0.7546771E-02  0.1064981E+00
        -11   -1    0    0    0    0  0.00000000000E+00  0.00000000000E+00  0.18250000000E+03  0.18250000000E+03  0.00000000000E+00 0. -1.
         11   -1    0    0    0    0 -0.00000000000E+00 -0.00000000000E+00 -0.18250000000E+03  0.18250000000E+03  0.00000000000E+00 0.  1.
        -11    1    1    2    0    0 -0.67676276697E+01 -0.48114567753E+01  0.78269800594E+02  0.78709037509E+02  0.00000000000E+00 0. -1.
         11    1    1    2    0    0 -0.86485278117E+00 -0.86624428324E+01 -0.17785580847E+03  0.17806873531E+03  0.00000000000E+00 0.  1.
        -15    1    1    2    0    0 -0.50541791926E+01  0.66702421650E+01  0.90928058106E+02  0.91329657493E+02  0.17770000000E+01 0. -1.
         15    1    1    2    0    0  0.12686659643E+02  0.68036574427E+01  0.86579497722E+01  0.16892569691E+02  0.17770000000E+01 0.  1.
</event>
<event>
 6    1  0.1097339E-002  0.1843981E+03  0.7546771E-02  0.1066954E+00
        -11   -1    0    0    0    0  0.00000000000E+00  0.00000000000E+00  0.18250000000E+03  0.18250000000E+03  0.00000000000E+00 0.  1.
         11   -1    0    0    0    0 -0.00000000000E+00 -0.00000000000E+00 -0.18250000000E+03  0.18250000000E+03  0.00000000000E+00 0.  1.
        -11    1    1    2    0    0  0.78315803522E+00  0.25704009069E+01  0.16228238929E+03  0.16230463386E+03  0.00000000000E+00 0.  1.
         11    1    1    2    0    0  0.64385790678E+01  0.15721664739E+01 -0.18048026395E+03  0.18060191772E+03  0.00000000000E+00 0.  1.
        -15    1    1    2    0    0  0.24387110275E+00  0.99852656052E+00  0.83200576657E+01  0.85695750751E+01  0.17770000000E+01 0.  1.
         15    1    1    2    0    0 -0.74656082057E+01 -0.51410939413E+01  0.98778169957E+01  0.13523873350E+02  0.17770000000E+01 0. -1.
</event>
<event>
 6    1  0.1097339E-002  0.1834194E+03  0.7546771E-02  0.1067725E+00
        -11   -1    0    0    0    0  0.00000000000E+00  0.00000000000E+00  0.18250000000E+03  0.18250000000E+03  0.00000000000E+00 0. -1.
         11   -1    0    0    0    0 -0.00000000000E+00 -0.00000000000E+00 -0.18250000000E+03  0.18250000000E+03  0.00000000000E+00 0. -1.
        -11    1    1    2    0    0 -0.83492022122E+01 -0.26538024129E+01  0.18136916165E+03  0.18158062849E+03  0.00000000000E+00 0. -1.
         11    1    1    2    0    0  0.22519582813E+01 -0.35221708398E+00 -0.13102450985E+03  0.13104433431E+03  0.00000000000E+00 0. -1.
        -15    1    1    2    0    0  0.27856118306E+01  0.45303897419E+01 -0.46331050277E+02  0.46669133410E+02  0.17770000000E+01 0. -1.
         15    1    1    2    0    0  0.33116321003E+01 -0.15243702450E+01 -0.40136015295E+01  0.57059037890E+01  0.17770000000E+01 0.  1.
</event>
<event>
 6    1  0.1097339E-002  0.1844968E+03  0.7546771E-02  0.1066876E+00
        -11   -1    0    0    0    0  0.00000000000E+00  0.00000000000E+00  0.18250000000E+03  0.18250000000E+03  0.00000000000E+00 0. -1.
         11   -1    0    0    0    0 -0.00000000000E+00 -0.00000000000E+00 -0.18250000000E+03  0.18250000000E+03  0.00000000000E+00 0. -1.
        -11    1    1    2    0    0  0.30087152488E+01  0.89777971263E+00  0.18047593668E+03  0.18050324677E+03  0.00000000000E+00 0. -1.
         11    1    1    2    0    0 -0.27493987749E+01  0.30263908204E+01 -0.17453615798E+03  0.17458404474E+03  0.00000000000E+00 0. -1.
        -15    1    1    2    0    0  0.25416277799E+01 -0.27740362317E+01 -0.19407267378E+01  0.45912196699E+01  0.17770000000E+01 0. -1.
         15    1    1    2    0    0 -0.28009442538E+01 -0.11501343014E+01 -0.39990519570E+01  0.53214888122E+01  0.17770000000E+01 0.  1.
</event>
<event>
 6    1  0.1097339E-002  0.1850213E+03  0.7546771E-02  0.1066465E+00
        -11   -1    0    0    0    0  0.00000000000E+00  0.00000000000E+00  0.18250000000E+03  0.18250000000E+03  0.00000000000E+00 0. -1.
         11   -1    0    0    0    0 -0.00000000000E+00 -0.00000000000E+00 -0.18250000000E+03  0.18250000000E+03  0.00000000000E+00 0.  1.
        -11    1    1    2    0    0 -0.33208967979E+01 -0.69108271241E+01  0.11286677587E+03  0.11312690654E+03  0.00000000000E+00 0. -1.
         11    1    1    2    0    0  0.44325363623E+01  0.40392351152E+01 -0.17987876657E+03  0.17997870280E+03  0.00000000000E+00 0.  1.
        -15    1    1    2    0    0 -0.29591794022E+01  0.14060511161E+02  0.40241541160E+02  0.42766740357E+02  0.17770000000E+01 0.  1.
         15    1    1    2    0    0  0.18475398377E+01 -0.11188919153E+02  0.26770449537E+02  0.29127650311E+02  0.17770000000E+01 0. -1.
</event>
<event>
 6    1  0.1097339E-002  0.1904944E+03  0.7546771E-02  0.1062264E+00
        -11   -1    0    0    0    0  0.00000000000E+00  0.00000000000E+00  0.18250000000E+03  0.18250000000E+03  0.00000000000E+00 0.  1.
         11   -1    0    0    0    0 -0.00000000000E+00 -0.00000000000E+00 -0.18250000000E+03  0.18250000000E+03  0.00000000000E+00 0. -1.
        -11    1    1    2    0    0 -0.31551444225E+01  0.17107300287E+01  0.16424969572E+03  0.16428890430E+03  0.00000000000E+00 0.  1.
         11    1    1    2    0    0  0.10058077573E+01 -0.13553065573E+02 -0.17397562487E+03  0.17450563109E+03  0.00000000000E+00 0. -1.
        -15    1    1    2    0    0  0.37803171858E+01  0.27109035377E+01  0.14707456442E+02  0.15527614112E+02  0.17770000000E+01 0. -1.
         15    1    1    2    0    0 -0.16309805206E+01  0.91314320065E+01 -0.49815272941E+01  0.10677850492E+02  0.17770000000E+01 0.  1.
</event>
<event>
 6    1  0.1097339E-002  0.1829893E+03  0.7546771E-02  0.1068066E+00
        -11   -1    0    0    0    0  0.00000000000E+00  0.00000000000E+00  0.18250000000E+03  0.18250000000E+03  0.00000000000E+00 0.  1.
         11   -1    0    0    0    0 -0.00000000000E+00 -0.00000000000E+00 -0.18250000000E+03  0.18250000000E+03  0.00000000000E+00 0.  1.
        -11    1    1    2    0    0  0.86488853685E+00 -0.21045297781E+01  0.88813267647E+02  0.88842408724E+02  0.00000000000E+00 0.  1.
         11    1    1    2    0    0  0.63883747028E+01  0.21120695999E+00 -0.18189846516E+03  0.18201073475E+03  0.00000000000E+00 0.  1.
        -15    1    1    2    0    0 -0.16931012502E+01  0.14996407039E+01  0.76605395416E+02  0.76659375486E+02  0.17770000000E+01 0.  1.
         15    1    1    2    0    0 -0.55601619894E+01  0.39368211424E+00  0.16479802093E+02  0.17487481036E+02  0.17770000000E+01 0.  1.
</event>
<event>
 6    1  0.1097339E-002  0.1834811E+03  0.7546771E-02  0.1067677E+00
        -11   -1    0    0    0    0  0.00000000000E+00  0.00000000000E+00  0.18250000000E+03  0.18250000000E+03  0.00000000000E+00 0. -1.
         11   -1    0    0    0    0 -0.00000000000E+00 -0.00000000000E+00 -0.18250000000E+03  0.18250000000E+03  0.00000000000E+00 0. -1.
        -11    1    1    2    0    0  0.44308813743E+00  0.27270124595E+01  0.18149788178E+03  0.18151890815E+03  0.00000000000E+00 0. -1.
         11    1    1    2    0    0  0.25062156886E+01 -0.11102171070E+01 -0.15450093031E+03  0.15452524443E+03  0.00000000000E+00 0. -1.
        -15    1    1    2    0    0 -0.14004907935E+01  0.30985104419E+01 -0.48179119715E+01  0.61589078729E+01  0.17770000000E+01 0.  1.
         15    1    1    2    0    0 -0.15488130325E+01 -0.47153057944E+01 -0.22179039505E+02  0.22796939551E+02  0.17770000000E+01 0. -1.
</event>
<event>
 6    1  0.1097339E-002  0.1851079E+03  0.7546771E-02  0.1066398E+00
        -11   -1    0    0    0    0  0.00000000000E+00  0.00000000000E+00  0.18250000000E+03  0.18250000000E+03  0.00000000000E+00 0.  1.
         11   -1    0    0    0    0 -0.00000000000E+00 -0.00000000000E+00 -0.18250000000E+03  0.18250000000E+03  0.00000000000E+00 0.  1.
        -11    1    1    2    0    0  0.20643421559E+01  0.17614158901E+01  0.92149864502E+02  0.92189813007E+02  0.00000000000E+00 0.  1.
         11    1    1    2    0    0  0.30219275425E+01  0.23355611854E+01 -0.17985159716E+03  0.17989214516E+03  0.00000000000E+00 0.  1.
        -15    1    1    2    0    0 -0.52912530963E+01 -0.13385495674E+01  0.89143528037E+02  0.89328133274E+02  0.17770000000E+01 0.  1.
         15    1    1    2    0    0  0.20498339785E+00 -0.27584275081E+01 -0.14417953832E+01  0.35899085556E+01  0.17770000000E+01 0. -1.
</event>
<event>
 6    1  0.1097339E-002  0.1852625E+03  0.7546771E-02  0.1066277E+00
        -11   -1    0    0    0    0  0.00000000000E+00  0.00000000000E+00  0.18250000000E+03  0.18250000000E+03  0.00000000000E+00 0. -1.
         11   -1    0    0    0    0 -0.00000000000E+00 -0.00000000000E+00 -0.18250000000E+03  0.18250000000E+03  0.00000000000E+00 0. -1.
        -11    1    1    2    0    0  0.72698889608E+01  0.73316923874E+01  0.17944067100E+03  0.17973747357E+03  0.00000000000E+00 0. -1.
         11    1    1    2    0    0  0.26275874613E+01 -0.18741316587E+01 -0.15152278760E+03  0.15155715670E+03  0.00000000000E+00 0. -1.
        -15    1    1    2    0    0 -0.84753701375E+01 -0.51655568617E+01 -0.61371946296E+01  0.11804141798E+02  0.17770000000E+01 0.  1.
         15    1    1    2    0    0 -0.14221062846E+01 -0.29200386702E+00 -0.21780688766E+02  0.21901227926E+02  0.17770000000E+01 0. -1.
</event>
<event>
 6    1  0.1097339E-002  0.1829606E+03  0.7546771E-02  0.1068089E+00
        -11   -1    0    0    0    0  0.00000000000E+00  0.00000000000E+00  0.18250000000E+03  0.18250000000E+03  0.00000000000E+00 0. -1.
         11   -1    0    0    0    0 -0.00000000000E+00 -0.00000000000E+00 -0.18250000000E+03  0.18250000000E+03  0.00000000000E+00 0.  1.
        -11    1    1    2    0    0  0.39924547055E+01 -0.11176048919E+01  0.18199218251E+03  0.18203940021E+03  0.00000000000E+00 0. -1.
         11    1    1    2    0    0 -0.50968191073E+01 -0.16109525268E+01 -0.85002954692E+02  0.85170857924E+02  0.00000000000E+00 0.  1.
        -15    1    1    2    0    0  0.50457122427E+01  0.16697173930E+01 -0.80966999058E+02  0.81160703753E+02  0.17770000000E+01 0. -1.
         15    1    1    2    0    0 -0.39413478409E+01  0.10588400256E+01 -0.16022228760E+02  0.16629038110E+02  0.17770000000E+01 0.  1.
</event>
<event>
 6    1  0.1097339E-002  0.1914680E+03  0.7546771E-02  0.1061532E+00
        -11   -1    0    0    0    0  0.00000000000E+00  0.00000000000E+00  0.18250000000E+03  0.18250000000E+03  0.00000000000E+00 0. -1.
         11   -1    0    0    0    0 -0.00000000000E+00 -0.00000000000E+00 -0.18250000000E+03  0.18250000000E+03  0.00000000000E+00 0. -1.
        -11    1    1    2    0    0  0.11127137817E+01  0.33215135953E+01  0.16117453115E+03  0.16121259279E+03  0.00000000000E+00 0. -1.
         11    1    1    2    0    0  0.14543766894E+01 -0.53901128394E+01 -0.17344217560E+03  0.17353200513E+03  0.00000000000E+00 0. -1.
        -15    1    1    2    0    0  0.56209224446E+01  0.43233154247E+01 -0.63703911983E+01  0.96966715118E+01  0.17770000000E+01 0.  1.
         15    1    1    2    0    0 -0.81880129157E+01 -0.22547161805E+01  0.18638035648E+02  0.20558730564E+02  0.17770000000E+01 0. -1.
</event>
<event>
 6    1  0.1097339E-002  0.1845995E+03  0.7546771E-02  0.1066796E+00
        -11   -1    0    0    0    0  0.00000000000E+00  0.00000000000E+00  0.18250000000E+03  0.18250000000E+03  0.00000000000E+00 0. -1.
         11   -1    0    0    0    0 -0.00000000000E+00 -0.00000000000E+00 -0.18250000000E+03  0.18250000000E+03  0.00000000000E+00 0. -1.
        -11    1    1    2    0    0  0.26475688706E+01  0.20998577462E+01  0.17557000872E+03  0.17560252556E+03  0.00000000000E+00 0. -1.
         11    1    1    2    0    0  0.68567837342E+00 -0.47046316781E+01 -0.18033786174E+03  0.18040052132E+03  0.00000000000E+00 0. -1.
        -15    1    1    2    0    0 -0.26603665699E+01 -0.43752697698E+00  0.43032953665E+01  0.53800613521E+01  0.17770000000E+01 0. -1.
         15    1    1    2    0    0 -0.67288067415E+00  0.30423009090E+01  0.46455766129E+00  0.36168917655E+01  0.17770000000E+01 0. -1.
</event>
<event>
 6    1  0.1097339E-002  0.1833133E+03  0.7546771E-02  0.1067809E+00
        -11   -1    0    0    0    0  0.00000000000E+00  0.00000000000E+00  0.18250000000E+03  0.18250000000E+03  0.00000000000E+00 0. -1.
         11   -1    0    0    0    0 -0.00000000000E+00 -0.00000000000E+00 -0.18250000000E+03  0.18250000000E+03  0.00000000000E+00 0. -1.
        -11    1    1    2    0    0 -0.62219419957E+01  0.11399548123E+00  0.16409682326E+03  0.16421477693E+03  0.00000000000E+00 0. -1.
         11    1    1    2    0    0  0.26023312004E+01  0.27616202614E+01 -0.18164707062E+03  0.18168669995E+03  0.00000000000E+00 0. -1.
        -15    1    1    2    0    0  0.36616340295E+01 -0.89138264142E+00  0.14307615731E+02  0.14901936911E+02  0.17770000000E+01 0.  1.
         15    1    1    2    0    0 -0.42023234271E-01 -0.19842331012E+01  0.32426316250E+01  0.41965862087E+01  0.17770000000E+01 0. -1.
</event>
<event>
 6    1  0.1097339E-002  0.1832902E+03  0.7546771E-02  0.1067828E+00
        -11   -1    0    0    0    0  0.00000000000E+00  0.00000000000E+00  0.18250000000E+03  0.18250000000E+03  0.00000000000E+00 0. -1.
         11   -1    0    0    0    0 -0.00000000000E+00 -0.00000000000E+00 -0.18250000000E+03  0.18250000000E+03  0.00000000000E+00 0.  1.
        -11    1    1    2    0    0 -0.15645968166E+01 -0.23719824829E+01  0.15640520120E+03  0.15643101108E+03  0.00000000000E+00 0. -1.
         11    1    1    2    0    0  0.55657576602E+01  0.16178595733E+01 -0.18161733033E+03  0.18170979556E+03  0.00000000000E+00 0.  1.
        -15    1    1    2    0    0  0.15271832006E+01  0.20629941822E+01  0.62773278120E+01  0.70107636520E+01  0.17770000000E+01 0. -1.
         15    1    1    2    0    0 -0.55283440442E+01 -0.13088712726E+01  0.18934801315E+02  0.19848429704E+02  0.17770000000E+01 0. -1.
</event>
<event>
 6    1  0.1097339E-002  0.1914027E+03  0.7546771E-02  0.1061581E+00
        -11   -1    0    0    0    0  0.00000000000E+00  0.00000000000E+00  0.18250000000E+03  0.18250000000E+03  0.00000000000E+00 0. -1.
         11   -1    0    0    0    0 -0.00000000000E+00 -0.00000000000E+00 -0.18250000000E+03  0.18250000000E+03  0.00000000000E+00 0. -1.
        -11    1    1    2    0    0  0.55391648054E+01  0.54443741747E+01  0.17342341876E+03  0.17359725151E+03  0.00000000000E+00 0. -1.
         11    1    1    2    0    0  0.11621540116E+02  0.62476085672E+01 -0.13302203923E+03  0.13367481337E+03  0.00000000000E+00 0. -1.
        -15    1    1    2    0    0 -0.10314697909E+02 -0.23507102177E+02 -0.17893637034E+02  0.31341933907E+02  0.17770000000E+01 0. -1.
         15    1    1    2    0    0 -0.68460070125E+01  0.11815119435E+02 -0.22507742491E+02  0.26386001219E+02  0.17770000000E+01 0.  1.
</event>
<event>
 6    1  0.1097339E-002  0.1829393E+03  0.7546771E-02  0.1068106E+00
        -11   -1    0    0    0    0  0.00000000000E+00  0.00000000000E+00  0.18250000000E+03  0.18250000000E+03  0.00000000000E+00 0.  1.
         11   -1    0    0    0    0 -0.00000000000E+00 -0.00000000000E+00 -0.18250000000E+03  0.18250000000E+03  0.00000000000E+00 0.  1.
        -11    1    1    2    0    0  0.40511487414E+00  0.45286655886E+00  0.21830180901E+02  0.21838635588E+02  0.00000000000E+00 0.  1.
         11    1    1    2    0    0  0.10583651760E+02  0.79371721105E+01 -0.18157939251E+03  0.18206067167E+03  0.00000000000E+00 0.  1.
        -15    1    1    2    0    0 -0.11987198182E+02 -0.65553889965E+01  0.71869282318E+02  0.73177985180E+02  0.17770000000E+01 0.  1.
         15    1    1    2    0    0  0.99843154787E+00 -0.18346496728E+01  0.87879929286E+02  0.87922707564E+02  0.17770000000E+01 0.  1.
</event>
<event>
 6    1  0.1097339E-002  0.1826331E+03  0.7546771E-02  0.1068349E+00
        -11   -1    0    0    0    0  0.00000000000E+00  0.00000000000E+00  0.18250000000E+03  0.18250000000E+03  0.00000000000E+00 0.  1.
         11   -1    0    0    0    0 -0.00000000000E+00 -0.00000000000E+00 -0.18250000000E+03  0.18250000000E+03  0.00000000000E+00 0.  1.
        -11    1    1    2    0    0 -0.19042935366E+00 -0.31441272004E+01  0.18233965304E+03  0.18236685793E+03  0.00000000000E+00 0.  1.
         11    1    1    2    0    0  0.17248604559E+01  0.48040424262E+00 -0.12296310649E+03  0.12297614195E+03  0.00000000000E+00 0.  1.
        -15    1    1    2    0    0  0.73176959858E+00  0.15916241644E+01 -0.34749970710E+02  0.34839445282E+02  0.17770000000E+01 0.  1.
         15    1    1    2    0    0 -0.22662007009E+01  0.10720987934E+01 -0.24626575844E+02  0.24817554840E+02  0.17770000000E+01 0. -1.
</event>
<event>
 6    1  0.1097339E-002  0.1833486E+03  0.7546771E-02  0.1067781E+00
        -11   -1    0    0    0    0  0.00000000000E+00  0.00000000000E+00  0.18250000000E+03  0.18250000000E+03  0.00000000000E+00 0.  1.
         11   -1    0    0    0    0 -0.00000000000E+00 -0.00000000000E+00 -0.18250000000E+03  0.18250000000E+03  0.00000000000E+00 0. -1.
        -11    1    1    2    0    0  0.17240931979E+00  0.20498413875E+01  0.72232351342E+02  0.72261636814E+02  0.00000000000E+00 0.  1.
         11    1    1    2    0    0  0.42381824437E+01  0.10309775195E+01 -0.18159900400E+03  0.18165137863E+03  0.00000000000E+00 0. -1.
        -15    1    1    2    0    0  0.42073689199E+01  0.55886453420E+00  0.81662535014E+02  0.81792063409E+02  0.17770000000E+01 0.  1.
         15    1    1    2    0    0 -0.86179606834E+01 -0.36396834412E+01  0.27704117640E+02  0.29294921148E+02  0.17770000000E+01 0. -1.
</event>
<event>
 6    1  0.1097339E-002  0.1505293E+03  0.7546771E-02  0.1097201E+00
        -11   -1    0    0    0    0  0.00000000000E+00  0.00000000000E+00  0.18250000000E+03  0.18250000000E+03  0.00000000000E+00 0. -1.
         11   -1    0    0    0    0 -0.00000000000E+00 -0.00000000000E+00 -0.18250000000E+03  0.18250000000E+03  0.00000000000E+00 0. -1.
        -11    1    1    2    0    0 -0.31624464433E+02 -0.88117372311E+02  0.86737279541E+02  0.12762497293E+03  0.00000000000E+00 0. -1.
         11    1    1    2    0    0 -0.12719744349E+01  0.51932408732E+00 -0.93708930634E+02  0.93719001792E+02  0.00000000000E+00 0. -1.
        -15    1    1    2    0    0 -0.22997563892E+00 -0.99516677155E+00 -0.38597658772E+02  0.38652040533E+02  0.17770000000E+01 0.  1.
         15    1    1    2    0    0  0.33126414507E+02  0.88593214995E+02  0.45569309864E+02  0.10500398474E+03  0.17770000000E+01 0.  1.
</event>
<event>
 6    1  0.1097339E-002  0.1715859E+03  0.7546771E-02  0.1077490E+00
        -11   -1    0    0    0    0  0.00000000000E+00  0.00000000000E+00  0.18250000000E+03  0.18250000000E+03  0.00000000000E+00 0.  1.
         11   -1    0    0    0    0 -0.00000000000E+00 -0.00000000000E+00 -0.18250000000E+03  0.18250000000E+03  0.00000000000E+00 0. -1.
        -11    1    1    2    0    0 -0.52233075589E+01  0.45718122943E+01  0.17392483953E+03  0.17406330519E+03  0.00000000000E+00 0.  1.
         11    1    1    2    0    0  0.50681222907E+01  0.90070550523E+01 -0.16909556673E+03  0.16941110824E+03  0.00000000000E+00 0. -1.
        -15    1    1    2    0    0 -0.32181993307E+01 -0.13209804822E+02  0.18397913784E+01  0.13834677867E+02  0.17770000000E+01 0.  1.
         15    1    1    2    0    0  0.33733845989E+01 -0.36906252513E+00 -0.66690641718E+01  0.76909087062E+01  0.17770000000E+01 0. -1.
</event>
<event>
 6    1  0.1097339E-002  0.1826114E+03  0.7546771E-02  0.1068366E+00
        -11   -1    0    0    0    0  0.00000000000E+00  0.00000000000E+00  0.18250000000E+03  0.18250000000E+03  0.00000000000E+00 0. -1.
         11   -1    0    0    0    0 -0.00000000000E+00 -0.00000000000E+00 -0.18250000000E+03  0.18250000000E+03  0.00000000000E+00 0. -1.
        -11    1    1    2    0    0  0.46536588936E+01  0.21909832370E+01  0.18231608558E+03  0.18238862906E+03  0.00000000000E+00 0. -1.
         11    1    1    2    0    0  0.37698334749E+00  0.97621311380E+00 -0.52084041888E+02  0.52094553726E+02  0.00000000000E+00 0. -1.
        -15    1    1    2    0    0 -0.29884415688E+01  0.32833302815E+00 -0.84346471095E+02  0.84418739038E+02  0.17770000000E+01 0. -1.
         15    1    1    2    0    0 -0.20422006723E+01 -0.34955293790E+01 -0.45885572602E+02  0.46098078173E+02  0.17770000000E+01 0.  1.
</event>
<event>
 6    1  0.1097339E-002  0.1827138E+03  0.7546771E-02  0.1068285E+00
        -11   -1    0    0    0    0  0.00000000000E+00  0.00000000000E+00  0.18250000000E+03  0.18250000000E+03  0.00000000000E+00 0.  1.
         11   -1    0    0    0    0 -0.00000000000E+00 -0.00000000000E+00 -0.18250000000E+03  0.18250000000E+03  0.00000000000E+00 0.  1.
        -11    1    1    2    0    0 -0.31660911005E+01  0.84540266632E+00  0.18225670555E+03  0.18228616391E+03  0.00000000000E+00 0.  1.
         11    1    1    2    0    0 -0.18016459573E+01 -0.18634280517E+01 -0.11551118226E+03  0.11554025930E+03  0.00000000000E+00 0.  1.
        -15    1    1    2    0    0  0.45521956339E+01  0.35364644909E+00 -0.31909110050E+02  0.32283069620E+02  0.17770000000E+01 0. -1.
         15    1    1    2    0    0  0.41554142398E+00  0.66437893629E+00 -0.34836413238E+02  0.34890507167E+02  0.17770000000E+01 0.  1.
</event>
<event>
 6    1  0.1097339E-002  0.1849413E+03  0.7546771E-02  0.1066528E+00
        -11   -1    0    0    0    0  0.00000000000E+00  0.00000000000E+00  0.18250000000E+03  0.18250000000E+03  0.00000000000E+00 0. -1.
         11   -1    0    0    0    0 -0.00000000000E+00 -0.00000000000E+00 -0.18250000000E+03  0.18250000000E+03  0.00000000000E+00 0. -1.
        -11    1    1    2    0    0  0.32591072284E+01  0.61739309039E+01  0.17992331572E+03  0.18005870916E+03  0.00000000000E+00 0. -1.
         11    1    1    2    0    0 -0.77345447931E+01  0.36356209428E+01 -0.12023633178E+03  0.12053968808E+03  0.00000000000E+00 0. -1.
        -15    1    1    2    0    0  0.32682473305E+01 -0.10244055414E+01 -0.53033882003E+02  0.53174065263E+02  0.17770000000E+01 0. -1.
         15    1    1    2    0    0  0.12071902341E+01 -0.87851463053E+01 -0.66531019381E+01  0.11227537498E+02  0.17770000000E+01 0.  1.
</event>
<event>
 6    1  0.1097339E-002  0.1848346E+03  0.7546771E-02  0.1066612E+00
        -11   -1    0    0    0    0  0.00000000000E+00  0.00000000000E+00  0.18250000000E+03  0.18250000000E+03  0.00000000000E+00 0. -1.
         11   -1    0    0    0    0 -0.00000000000E+00 -0.00000000000E+00 -0.18250000000E+03  0.18250000000E+03  0.00000000000E+00 0.  1.
        -11    1    1    2    0    0 -0.36661491501E+01  0.63615875136E+01  0.18001574456E+03  0.18016542047E+03  0.00000000000E+00 0. -1.
         11    1    1    2    0    0  0.43954313271E+01 -0.28797704532E+01 -0.15336617198E+03  0.15345616834E+03  0.00000000000E+00 0.  1.
        -15    1    1    2    0    0  0.98385092189E+00  0.61589563226E+01 -0.12462896172E+02  0.14049278117E+02  0.17770000000E+01 0. -1.
         15    1    1    2    0    0 -0.17131330989E+01 -0.96407733830E+01 -0.14186676408E+02  0.17329133070E+02  0.17770000000E+01 0.  1.
</event>
<event>
 6    1  0.1097339E-002  0.1841693E+03  0.7546771E-02  0.1067134E+00
        -11   -1    0    0    0    0  0.00000000000E+00  0.00000000000E+00  0.18250000000E+03  0.18250000000E+03  0.00000000000E+00 0.  1.
         11   -1    0    0    0    0 -0.00000000000E+00 -0.00000000000E+00 -0.18250000000E+03  0.18250000000E+03  0.00000000000E+00 0.  1.
        -11    1    1    2    0    0 -0.34887004879E+01  0.30011794930E+01  0.17569998322E+03  0.17576024070E+03  0.00000000000E+00 0.  1.
         11    1    1    2    0    0  0.31669645642E+01 -0.65813343457E-01 -0.18080299563E+03  0.18083074192E+03  0.00000000000E+00 0.  1.
        -15    1    1    2    0    0  0.10602551955E+01 -0.21669177188E+01  0.55335391920E+01  0.62926511479E+01  0.17770000000E+01 0. -1.
         15    1    1    2    0    0 -0.73851927180E+00 -0.76844843071E+00 -0.43052678179E+00  0.21163662290E+01  0.17770000000E+01 0.  1.
</event>
<event>
 6    1  0.1097339E-002  0.1854258E+03  0.7546771E-02  0.1066149E+00
        -11   -1    0    0    0    0  0.00000000000E+00  0.00000000000E+00  0.18250000000E+03  0.18250000000E+03  0.00000000000E+00 0.  1.
         11   -1    0    0    0    0 -0.00000000000E+00 -0.00000000000E+00 -0.18250000000E+03  0.18250000000E+03  0.00000000000E+00 0.  1.
        -11    1    1    2    0    0 -0.20143354947E+01  0.47457954167E+01  0.92318766047E+02  0.92462612369E+02  0.00000000000E+00 0.  1.
         11    1    1    2    0    0  0.20917146796E+01  0.57085532130E+01 -0.17947123869E+03  0.17957418624E+03  0.00000000000E+00 0.  1.
        -15    1    1    2    0    0 -0.16962873656E+01 -0.57221116033E+01  0.60873978555E+00  0.62568558521E+01  0.17770000000E+01 0.  1.
         15    1    1    2    0    0  0.16189081807E+01 -0.47322370264E+01  0.86543732853E+02  0.86706345535E+02  0.17770000000E+01 0.  1.
</event>
<event>
 6    1  0.1097339E-002  0.1828226E+03  0.7546771E-02  0.1068198E+00
        -11   -1    0    0    0    0  0.00000000000E+00  0.00000000000E+00  0.18250000000E+03  0.18250000000E+03  0.00000000000E+00 0.  1.
         11   -1    0    0    0    0 -0.00000000000E+00 -0.00000000000E+00 -0.18250000000E+03  0.18250000000E+03  0.00000000000E+00 0.  1.
        -11    1    1    2    0    0  0.34895723972E+01 -0.31582523752E+01  0.11899957444E+03  0.11909261266E+03  0.00000000000E+00 0.  1.
         11    1    1    2    0    0 -0.73934467301E+01 -0.24334724358E+01 -0.18201100014E+03  0.18217735593E+03  0.00000000000E+00 0.  1.
        -15    1    1    2    0    0 -0.11032394699E+01  0.16325921834E+01  0.25522752859E+02  0.25660302747E+02  0.17770000000E+01 0.  1.
         15    1    1    2    0    0  0.50071138028E+01  0.39591326277E+01  0.37488672844E+02  0.38069728662E+02  0.17770000000E+01 0.  1.
</event>
<event>
 6    1  0.1097339E-002  0.1854746E+03  0.7546771E-02  0.1066111E+00
        -11   -1    0    0    0    0  0.00000000000E+00  0.00000000000E+00  0.18250000000E+03  0.18250000000E+03  0.00000000000E+00 0.  1.
         11   -1    0    0    0    0 -0.00000000000E+00 -0.00000000000E+00 -0.18250000000E+03  0.18250000000E+03  0.00000000000E+00 0. -1.
        -11    1    1    2    0    0 -0.72273895032E+01 -0.16270613708E+01  0.17171690852E+03  0.17187663936E+03  0.00000000000E+00 0.  1.
         11    1    1    2    0    0  0.29463681438E+01  0.20147446517E+01 -0.17948987396E+03  0.17952536071E+03  0.00000000000E+00 0. -1.
        -15    1    1    2    0    0  0.57346762931E+01  0.30488854615E+01  0.62688322847E+01  0.91999022798E+01  0.17770000000E+01 0. -1.
         15    1    1    2    0    0 -0.14536549337E+01 -0.34365687424E+01  0.15041331625E+01  0.43980976522E+01  0.17770000000E+01 0.  1.
</event>
<event>
 6    1  0.1097339E-002  0.1941138E+03  0.7546771E-02  0.1059569E+00
        -11   -1    0    0    0    0  0.00000000000E+00  0.00000000000E+00  0.18250000000E+03  0.18250000000E+03  0.00000000000E+00 0.  1.
         11   -1    0    0    0    0 -0.00000000000E+00 -0.00000000000E+00 -0.18250000000E+03  0.18250000000E+03  0.00000000000E+00 0.  1.
        -11    1    1    2    0    0  0.85150972332E+01  0.19008365580E+02  0.16961213868E+03  0.17088622656E+03  0.00000000000E+00 0.  1.
         11    1    1    2    0    0 -0.99831138726E+01 -0.65519497181E+00 -0.12171522682E+03  0.12212570689E+03  0.00000000000E+00 0.  1.
        -15    1    1    2    0    0  0.43086399852E+01  0.23261015742E+01 -0.50598239453E+02  0.50865653361E+02  0.17770000000E+01 0. -1.
         15    1    1    2    0    0 -0.28406233459E+01 -0.20679272182E+02  0.27013276008E+01  0.21122413186E+02  0.17770000000E+01 0.  1.
</event>
<event>
 6    1  0.1097339E-002  0.1826323E+03  0.7546771E-02  0.1068350E+00
        -11   -1    0    0    0    0  0.00000000000E+00  0.00000000000E+00  0.18250000000E+03  0.18250000000E+03  0.00000000000E+00 0.  1.
         11   -1    0    0    0    0 -0.00000000000E+00 -0.00000000000E+00 -0.18250000000E+03  0.18250000000E+03  0.00000000000E+00 0.  1.
        -11    1    1    2    0    0 -0.17736501052E+01 -0.29226489771E+01  0.18233561144E+03  0.18236765862E+03  0.00000000000E+00 0.  1.
         11    1    1    2    0    0 -0.58689094483E+00 -0.90146474910E+00 -0.78599661734E+02  0.78607021979E+02  0.00000000000E+00 0.  1.
        -15    1    1    2    0    0  0.59336132627E-01  0.43328310293E+01 -0.54441127618E+02  0.54642209425E+02  0.17770000000E+01 0.  1.
         15    1    1    2    0    0  0.23012049174E+01 -0.50871730309E+00 -0.49294822086E+02  0.49383109976E+02  0.17770000000E+01 0.  1.
</event>
<event>
 6    1  0.1097339E-002  0.1894228E+03  0.7546771E-02  0.1063074E+00
        -11   -1    0    0    0    0  0.00000000000E+00  0.00000000000E+00  0.18250000000E+03  0.18250000000E+03  0.00000000000E+00 0.  1.
         11   -1    0    0    0    0 -0.00000000000E+00 -0.00000000000E+00 -0.18250000000E+03  0.18250000000E+03  0.00000000000E+00 0.  1.
        -11    1    1    2    0    0 -0.32593160125E+01 -0.58104210205E+00  0.17554596852E+03  0.17557718478E+03  0.00000000000E+00 0.  1.
         11    1    1    2    0    0  0.13447422772E+02  0.11890844835E+01 -0.50325180915E+02  0.52104423375E+02  0.00000000000E+00 0.  1.
        -15    1    1    2    0    0  0.70396161411E+01 -0.88776060635E+01 -0.87673552338E+00  0.11501933707E+02  0.17770000000E+01 0. -1.
         15    1    1    2    0    0 -0.17227722901E+02  0.82695636820E+01 -0.12434405209E+03  0.12581645814E+03  0.17770000000E+01 0.  1.
</event>
<event>
 6    1  0.1097339E-002  0.1629365E+03  0.7546771E-02  0.1085190E+00
        -11   -1    0    0    0    0  0.00000000000E+00  0.00000000000E+00  0.18250000000E+03  0.18250000000E+03  0.00000000000E+00 0. -1.
         11   -1    0    0    0    0 -0.00000000000E+00 -0.00000000000E+00 -0.18250000000E+03  0.18250000000E+03  0.00000000000E+00 0. -1.
        -11    1    1    2    0    0 -0.12112913434E+02  0.12022183598E+02  0.15778986766E+03  0.15871010651E+03  0.00000000000E+00 0. -1.
         11    1    1    2    0    0 -0.26680138091E+01 -0.43420929305E+01 -0.16766017873E+03  0.16773761534E+03  0.00000000000E+00 0. -1.
        -15    1    1    2    0    0 -0.34969251088E+01  0.14096305539E+01 -0.94882283362E+01  0.10363385039E+02  0.17770000000E+01 0. -1.
         15    1    1    2    0    0  0.18277852352E+02 -0.90897212217E+01  0.19358539399E+02  0.28188893117E+02  0.17770000000E+01 0.  1.
</event>
<event>
 6    1  0.1097339E-002  0.1911678E+03  0.7546771E-02  0.1061757E+00
        -11   -1    0    0    0    0  0.00000000000E+00  0.00000000000E+00  0.18250000000E+03  0.18250000000E+03  0.00000000000E+00 0.  1.
         11   -1    0    0    0    0 -0.00000000000E+00 -0.00000000000E+00 -0.18250000000E+03  0.18250000000E+03  0.00000000000E+00 0. -1.
        -11    1    1    2    0    0 -0.10257970159E+02 -0.84791632882E+01  0.17332199325E+03  0.17383220503E+03  0.00000000000E+00 0.  1.
         11    1    1    2    0    0  0.19955574467E+01 -0.10005853112E+01 -0.16542755605E+03  0.16544261761E+03  0.00000000000E+00 0. -1.
        -15    1    1    2    0    0  0.85085661754E+01  0.89968493494E+01  0.44227534514E+01  0.13268665105E+02  0.17770000000E+01 0.  1.
         15    1    1    2    0    0 -0.24615346333E+00  0.48289924995E+00 -0.12317190649E+02  0.12456512260E+02  0.17770000000E+01 0.  1.
</event>
<event>
 6    1  0.1097339E-002  0.1842009E+03  0.7546771E-02  0.1067109E+00
        -11   -1    0    0    0    0  0.00000000000E+00  0.00000000000E+00  0.18250000000E+03  0.18250000000E+03  0.00000000000E+00 0. -1.
         11   -1    0    0    0    0 -0.00000000000E+00 -0.00000000000E+00 -0.18250000000E+03  0.18250000000E+03  0.00000000000E+00 0.  1.
        -11    1    1    2    0    0  0.15382486909E+01 -0.89473482965E+01  0.36617091458E+02  0.37725755624E+02  0.00000000000E+00 0. -1.
         11    1    1    2    0    0 -0.16489663923E+01  0.21821912302E+01 -0.18077845364E+03  0.18079914366E+03  0.00000000000E+00 0.  1.
        -15    1    1    2    0    0 -0.57862665845E+01  0.63021215635E+01  0.13579545060E+03  0.13607630120E+03  0.17770000000E+01 0. -1.
         15    1    1    2    0    0  0.58969842859E+01  0.46303550286E+00  0.83659115881E+01  0.10398799510E+02  0.17770000000E+01 0.  1.
</event>
<event>
 6    1  0.1097339E-002  0.1827107E+03  0.7546771E-02  0.1068287E+00
        -11   -1    0    0    0    0  0.00000000000E+00  0.00000000000E+00  0.18250000000E+03  0.18250000000E+03  0.00000000000E+00 0.  1.
         11   -1    0    0    0    0 -0.00000000000E+00 -0.00000000000E+00 -0.18250000000E+03  0.18250000000E+03  0.00000000000E+00 0. -1.
        -11    1    1    2    0    0  0.29752450142E+01  0.42960496597E+01  0.18221437920E+03  0.18228929786E+03  0.00000000000E+00 0.  1.
         11    1    1    2    0    0 -0.32676725941E+00 -0.87972389076E+00 -0.38671703065E+02  0.38683088151E+02  0.00000000000E+00 0. -1.
        -15    1    1    2    0    0  0.23198852282E+01 -0.52035330394E+01 -0.89432912377E+02  0.89631814490E+02  0.17770000000E+01 0. -1.
         15    1    1    2    0    0 -0.49683629830E+01  0.17872072705E+01 -0.54109763758E+02  0.54395799502E+02  0.17770000000E+01 0.  1.
</event>
<event>
 6    1  0.1097339E-002  0.1828523E+03  0.7546771E-02  0.1068175E+00
        -11   -1    0    0    0    0  0.00000000000E+00  0.00000000000E+00  0.18250000000E+03  0.18250000000E+03  0.00000000000E+00 0. -1.
         11   -1    0    0    0    0 -0.00000000000E+00 -0.00000000000E+00 -0.18250000000E+03  0.18250000000E+03  0.00000000000E+00 0.  1.
        -11    1    1    2    0    0  0.26296430699E-01 -0.24459265287E+01  0.13816309159E+03  0.13818474274E+03  0.00000000000E+00 0. -1.
         11    1    1    2    0    0  0.24618036464E+01 -0.17336164062E+01 -0.18212281368E+03  0.18214770151E+03  0.00000000000E+00 0.  1.
        -15    1    1    2    0    0 -0.32160156253E+01  0.41934201540E+00  0.20403254914E+02  0.20735697344E+02  0.17770000000E+01 0.  1.
         15    1    1    2    0    0  0.72791554825E+00  0.37602009195E+01  0.23556467175E+02  0.23931858406E+02  0.17770000000E+01 0. -1.
</event>
<event>
 6    1  0.1097339E-002  0.1863793E+03  0.7546771E-02  0.1065408E+00
        -11   -1    0    0    0    0  0.00000000000E+00  0.00000000000E+00  0.18250000000E+03  0.18250000000E+03  0.00000000000E+00 0.  1.
         11   -1    0    0    0    0 -0.00000000000E+00 -0.00000000000E+00 -0.18250000000E+03  0.18250000000E+03  0.00000000000E+00 0. -1.
        -11    1    1    2    0    0  0.67406733100E+01  0.13573931688E+00  0.14376290188E+03  0.14392090556E+03  0.00000000000E+00 0.  1.
         11    1    1    2    0    0  0.79074479465E+00  0.45478339345E+01 -0.17856103498E+03  0.17862069108E+03  0.00000000000E+00 0. -1.
        -15    1    1    2    0    0 -0.39339322596E+01  0.90133988245E+01  0.15822203761E+02  0.18714086733E+02  0.17770000000E+01 0. -1.
         15    1    1    2    0    0 -0.35974858451E+01 -0.13696972076E+02  0.18975929342E+02  0.23744316622E+02  0.17770000000E+01 0.  1.
</event>
<event>
 6    1  0.1097339E-002  0.1834837E+03  0.7546771E-02  0.1067675E+00
        -11   -1    0    0    0    0  0.00000000000E+00  0.00000000000E+00  0.18250000000E+03  0.18250000000E+03  0.00000000000E+00 0. -1.
         11   -1    0    0    0    0 -0.00000000000E+00 -0.00000000000E+00 -0.18250000000E+03  0.18250000000E+03  0.00000000000E+00 0.  1.
        -11    1    1    2    0    0  0.25044012483E+01  0.32338308691E+01  0.96534413109E+02  0.96621025672E+02  0.00000000000E+00 0. -1.
         11    1    1    2    0    0 -0.42250580670E+01 -0.84127996278E+01 -0.18127205231E+03  0.18151634433E+03  0.00000000000E+00 0.  1.
        -15    1    1    2    0    0 -0.62014519263E+01  0.22488002724E+01  0.64504641834E+02  0.64865411861E+02  0.17770000000E+01 0. -1.
         15    1    1    2    0    0  0.79221087450E+01  0.29301684863E+01  0.20232997363E+02  0.21997218133E+02  0.17770000000E+01 0.  1.
</event>
<event>
 6    1  0.1097339E-002  0.1906363E+03  0.7546771E-02  0.1062157E+00
        -11   -1    0    0    0    0  0.00000000000E+00  0.00000000000E+00  0.18250000000E+03  0.18250000000E+03  0.00000000000E+00 0.  1.
         11   -1    0    0    0    0 -0.00000000000E+00 -0.00000000000E+00 -0.18250000000E+03  0.18250000000E+03  0.00000000000E+00 0.  1.
        -11    1    1    2    0    0 -0.21972287760E+00 -0.21705508470E+02  0.17300724856E+03  0.17436365857E+03  0.00000000000E+00 0.  1.
         11    1    1    2    0    0 -0.17523555829E+00 -0.15284231259E+01 -0.10447384602E+03  0.10448517257E+03  0.00000000000E+00 0.  1.
        -15    1    1    2    0    0 -0.33232778009E+01  0.10272742202E+01 -0.62703549059E+02  0.62825092609E+02  0.17770000000E+01 0.  1.
         15    1    1    2    0    0  0.37182362368E+01  0.22206657376E+02 -0.58298534782E+01  0.23326076247E+02  0.17770000000E+01 0. -1.
</event>
<event>
 6    1  0.1097339E-002  0.1835020E+03  0.7546771E-02  0.1067660E+00
        -11   -1    0    0    0    0  0.00000000000E+00  0.00000000000E+00  0.18250000000E+03  0.18250000000E+03  0.00000000000E+00 0.  1.
         11   -1    0    0    0    0 -0.00000000000E+00 -0.00000000000E+00 -0.18250000000E+03  0.18250000000E+03  0.00000000000E+00 0. -1.
        -11    1    1    2    0    0  0.11093225916E+01  0.30699044354E+01  0.18146868037E+03  0.18149803543E+03  0.00000000000E+00 0.  1.
         11    1    1    2    0    0 -0.57888086464E+01 -0.18385788980E+01 -0.16269604627E+03  0.16280937980E+03  0.00000000000E+00 0. -1.
        -15    1    1    2    0    0 -0.23588180398E-02  0.11841034688E+01 -0.10568100726E+02  0.10781678373E+02  0.17770000000E+01 0.  1.
         15    1    1    2    0    0  0.46818448729E+01 -0.24154290063E+01 -0.82045333726E+01  0.99109063945E+01  0.17770000000E+01 0. -1.
</event>
<event>
 6    1  0.1097339E-002  0.1827784E+03  0.7546771E-02  0.1068233E+00
        -11   -1    0    0    0    0  0.00000000000E+00  0.00000000000E+00  0.18250000000E+03  0.18250000000E+03  0.00000000000E+00 0. -1.
         11   -1    0    0    0    0 -0.00000000000E+00 -0.00000000000E+00 -0.18250000000E+03  0.18250000000E+03  0.00000000000E+00 0. -1.
        -11    1    1    2    0    0 -0.94315127770E+01  0.31967941335E+01  0.18194927447E+03  0.18222159972E+03  0.00000000000E+00 0. -1.
         11    1    1    2    0    0 -0.68555364694E+00 -0.72718424328E-01 -0.43741559404E+02  0.43746991792E+02  0.00000000000E+00 0. -1.
        -15    1    1    2    0    0  0.12423512880E+00 -0.40632717322E+01 -0.59724652846E+02  0.59889210198E+02  0.17770000000E+01 0. -1.
         15    1    1    2    0    0  0.99928312952E+01  0.93919602304E+00 -0.78483062216E+02  0.79142198290E+02  0.17770000000E+01 0.  1.
</event>
<event>
 6    1  0.1097339E-002  0.1880961E+03  0.7546771E-02  0.1064086E+00
        -11   -1    0    0    0    0  0.00000000000E+00  0.00000000000E+00  0.18250000000E+03  0.18250000000E+03  0.00000000000E+00 0. -1.
         11   -1    0    0    0    0 -0.00000000000E+00 -0.00000000000E+00 -0.18250000000E+03  0.18250000000E+03  0.00000000000E+00 0.  1.
        -11    1    1    2    0    0 -0.82974629175E+01 -0.99309687006E+00  0.17670641433E+03  0.17690390328E+03  0.00000000000E+00 0. -1.
         11    1    1    2    0    0 -0.37095315651E+01 -0.40763122980E+01 -0.16753828613E+03  0.16762891835E+03  0.00000000000E+00 0.  1.
        -15    1    1    2    0    0  0.68524384733E+01  0.89843970977E+01 -0.45016076980E+01  0.12292172514E+02  0.17770000000E+01 0. -1.
         15    1    1    2    0    0  0.51545560093E+01 -0.39149879296E+01 -0.46665204984E+01  0.81750058534E+01  0.17770000000E+01 0.  1.
</event>
<event>
 6    1  0.1097339E-002  0.1864745E+03  0.7546771E-02  0.1065334E+00
        -11   -1    0    0    0    0  0.00000000000E+00  0.00000000000E+00  0.18250000000E+03  0.18250000000E+03  0.00000000000E+00 0.  1.
         11   -1    0    0    0    0 -0.00000000000E+00 -0.00000000000E+00 -0.18250000000E+03  0.18250000000E+03  0.00000000000E+00 0.  1.
        -11    1    1    2    0    0 -0.12121728302E+02  0.53470469515E+01  0.14418324165E+03  0.14479065710E+03  0.00000000000E+00 0.  1.
         11    1    1    2    0    0  0.31102376055E+01 -0.28041229900E+01 -0.17847633063E+03  0.17852545275E+03  0.00000000000E+00 0.  1.
        -15    1    1    2    0    0  0.63695874132E+01  0.28487568170E+01  0.34671118542E+02  0.35410891674E+02  0.17770000000E+01 0.  1.
         15    1    1    2    0    0  0.26419032835E+01 -0.53916807786E+01 -0.37802956246E+00  0.62729984798E+01  0.17770000000E+01 0. -1.
</event>
<event>
 6    1  0.1097339E-002  0.1829585E+03  0.7546771E-02  0.1068090E+00
        -11   -1    0    0    0    0  0.00000000000E+00  0.00000000000E+00  0.18250000000E+03  0.18250000000E+03  0.00000000000E+00 0. -1.
         11   -1    0    0    0    0 -0.00000000000E+00 -0.00000000000E+00 -0.18250000000E+03  0.18250000000E+03  0.00000000000E+00 0. -1.
        -11    1    1    2    0    0  0.58640645459E+00  0.27041239614E+01  0.18202048029E+03  0.18204151012E+03  0.00000000000E+00 0. -1.
         11    1    1    2    0    0 -0.23078625629E+01  0.17643960860E+01 -0.14596939964E+03  0.14599830462E+03  0.00000000000E+00 0. -1.
        -15    1    1    2    0    0 -0.18635033540E+01 -0.13911115526E+01 -0.17085293455E+02  0.17334151769E+02  0.17770000000E+01 0. -1.
         15    1    1    2    0    0  0.35849594622E+01 -0.30774084948E+01 -0.18965787202E+02  0.19626033491E+02  0.17770000000E+01 0.  1.
</event>
<event>
 6    1  0.1097339E-002  0.1382228E+03  0.7546771E-02  0.1110443E+00
        -11   -1    0    0    0    0  0.00000000000E+00  0.00000000000E+00  0.18250000000E+03  0.18250000000E+03  0.00000000000E+00 0.  1.
         11   -1    0    0    0    0 -0.00000000000E+00 -0.00000000000E+00 -0.18250000000E+03  0.18250000000E+03  0.00000000000E+00 0. -1.
        -11    1    1    2    0    0  0.31618614272E+02 -0.16173339350E+02  0.13201669612E+03  0.13671035706E+03  0.00000000000E+00 0.  1.
         11    1    1    2    0    0  0.20489378091E+01 -0.13548835113E+02 -0.14291609364E+03  0.14357151145E+03  0.00000000000E+00 0. -1.
        -15    1    1    2    0    0  0.11631095762E+01  0.85667927123E+01 -0.27387025333E+02  0.28774114180E+02  0.17770000000E+01 0.  1.
         15    1    1    2    0    0 -0.34830661658E+02  0.21155381751E+02  0.38286422856E+02  0.55944017309E+02  0.17770000000E+01 0. -1.
</event>
<event>
 6    1  0.1097339E-002  0.1842619E+03  0.7546771E-02  0.1067061E+00
        -11   -1    0    0    0    0  0.00000000000E+00  0.00000000000E+00  0.18250000000E+03  0.18250000000E+03  0.00000000000E+00 0. -1.
         11   -1    0    0    0    0 -0.00000000000E+00 -0.00000000000E+00 -0.18250000000E+03  0.18250000000E+03  0.00000000000E+00 0. -1.
        -11    1    1    2    0    0  0.17292894296E+01  0.12632517881E+01  0.17491414681E+02  0.17622026970E+02  0.00000000000E+00 0. -1.
         11    1    1    2    0    0 -0.20904567669E+01 -0.20264327846E+01 -0.18071464555E+03  0.18073809658E+03  0.00000000000E+00 0. -1.
        -15    1    1    2    0    0  0.20252376608E+01  0.11427032544E+02  0.21512530422E+02  0.24507659098E+02  0.17770000000E+01 0.  1.
         15    1    1    2    0    0 -0.16640703234E+01 -0.10663851547E+02  0.14171070045E+03  0.14213221735E+03  0.17770000000E+01 0. -1.
</event>
<event>
 6    1  0.1097339E-002  0.1827619E+03  0.7546771E-02  0.1068247E+00
        -11   -1    0    0    0    0  0.00000000000E+00  0.00000000000E+00  0.18250000000E+03  0.18250000000E+03  0.00000000000E+00 0. -1.
         11   -1    0    0    0    0 -0.00000000000E+00 -0.00000000000E+00 -0.18250000000E+03  0.18250000000E+03  0.00000000000E+00 0. -1.
        -11    1    1    2    0    0  0.73546821552E+00 -0.59185611668E+00  0.68622314448E+02  0.68628807707E+02  0.00000000000E+00 0. -1.
         11    1    1    2    0    0  0.31004737448E+01 -0.37415456850E+01 -0.18217333813E+03  0.18223813329E+03  0.00000000000E+00 0. -1.
        -15    1    1    2    0    0 -0.16859204610E+01  0.31783124436E+01  0.10478343916E+03  0.10486024437E+03  0.17770000000E+01 0. -1.
         15    1    1    2    0    0 -0.21500214993E+01  0.11550893582E+01  0.87675845157E+01  0.92728146273E+01  0.17770000000E+01 0.  1.
</event>
<event>
 6    1  0.1097339E-002  0.1892017E+03  0.7546771E-02  0.1063242E+00
        -11   -1    0    0    0    0  0.00000000000E+00  0.00000000000E+00  0.18250000000E+03  0.18250000000E+03  0.00000000000E+00 0. -1.
         11   -1    0    0    0    0 -0.00000000000E+00 -0.00000000000E+00 -0.18250000000E+03  0.18250000000E+03  0.00000000000E+00 0.  1.
        -11    1    1    2    0    0  0.61950507530E+01  0.77797453710E+00  0.16702166975E+03  0.16713833212E+03  0.00000000000E+00 0. -1.
         11    1    1    2    0    0  0.30567746829E+01 -0.13471508651E+01 -0.17576654268E+03  0.17579828274E+03  0.00000000000E+00 0.  1.
        -15    1    1    2    0    0 -0.86395162923E+00  0.23773872851E+01 -0.49317022893E+01  0.58204638296E+01  0.17770000000E+01 0. -1.
         15    1    1    2    0    0 -0.83878738067E+01 -0.18082109571E+01  0.13676575222E+02  0.16242921309E+02  0.17770000000E+01 0. -1.
</event>
<event>
 6    1  0.1097339E-002  0.1882986E+03  0.7546771E-02  0.1063931E+00
        -11   -1    0    0    0    0  0.00000000000E+00  0.00000000000E+00  0.18250000000E+03  0.18250000000E+03  0.00000000000E+00 0. -1.
         11   -1    0    0    0    0 -0.00000000000E+00 -0.00000000000E+00 -0.18250000000E+03  0.18250000000E+03  0.00000000000E+00 0.  1.
        -11    1    1    2    0    0 -0.33416854603E+01 -0.10292563850E+01  0.17666684172E+03  0.17670144083E+03  0.00000000000E+00 0. -1.
         11    1    1    2    0    0  0.90728633151E+00  0.23763462232E+01 -0.96352107815E+02  0.96385677723E+02  0.00000000000E+00 0.  1.
        -15    1    1    2    0    0 -0.23508022527E+01  0.10963482331E+02 -0.90060020315E+00  0.11388284585E+02  0.17770000000E+01 0. -1.
         15    1    1    2    0    0  0.47852013815E+01 -0.12310572169E+02 -0.79414133698E+02  0.80524596860E+02  0.17770000000E+01 0.  1.
</event>
<event>
 6    1  0.1097339E-002  0.1836410E+03  0.7546771E-02  0.1067550E+00
        -11   -1    0    0    0    0  0.00000000000E+00  0.00000000000E+00  0.18250000000E+03  0.18250000000E+03  0.00000000000E+00 0.  1.
         11   -1    0    0    0    0 -0.00000000000E+00 -0.00000000000E+00 -0.18250000000E+03  0.18250000000E+03  0.00000000000E+00 0. -1.
        -11    1    1    2    0    0  0.25308157846E+01 -0.47662710220E+01  0.16012175911E+03  0.16021267150E+03  0.00000000000E+00 0.  1.
         11    1    1    2    0    0 -0.21766877240E+01  0.16735078710E+01 -0.18133825283E+03  0.18135903765E+03  0.00000000000E+00 0. -1.
        -15    1    1    2    0    0  0.28543476348E+00 -0.13682523626E+01  0.72838250496E+00  0.23752594817E+01  0.17770000000E+01 0. -1.
         15    1    1    2    0    0 -0.63956282405E+00  0.44610155136E+01  0.20488111213E+02  0.21053031375E+02  0.17770000000E+01 0.  1.
</event>
<event>
 6    1  0.1097339E-002  0.1828508E+03  0.7546771E-02  0.1068176E+00
        -11   -1    0    0    0    0  0.00000000000E+00  0.00000000000E+00  0.18250000000E+03  0.18250000000E+03  0.00000000000E+00 0. -1.
         11   -1    0    0    0    0 -0.00000000000E+00 -0.00000000000E+00 -0.18250000000E+03  0.18250000000E+03  0.00000000000E+00 0. -1.
        -11    1    1    2    0    0  0.19358045864E+01 -0.37231257927E+01  0.15091265249E+03  0.15097098293E+03  0.00000000000E+00 0. -1.
         11    1    1    2    0    0  0.17178098437E+01  0.18521109873E+01 -0.18213170770E+03  0.18214922492E+03  0.00000000000E+00 0. -1.
        -15    1    1    2    0    0 -0.27801730797E+01  0.85713195016E+00  0.25764459020E+02  0.25989019126E+02  0.17770000000E+01 0.  1.
         15    1    1    2    0    0 -0.87344135045E+00  0.10138828552E+01  0.54545961912E+01  0.58907730262E+01  0.17770000000E+01 0. -1.
</event>
<event>
 6    1  0.1097339E-002  0.1849717E+03  0.7546771E-02  0.1066504E+00
        -11   -1    0    0    0    0  0.00000000000E+00  0.00000000000E+00  0.18250000000E+03  0.18250000000E+03  0.00000000000E+00 0. -1.
         11   -1    0    0    0    0 -0.00000000000E+00 -0.00000000000E+00 -0.18250000000E+03  0.18250000000E+03  0.00000000000E+00 0. -1.
        -11    1    1    2    0    0 -0.10061503664E+01  0.38536550831E+01  0.16309409687E+03  0.16314272105E+03  0.00000000000E+00 0. -1.
         11    1    1    2    0    0  0.44429744533E+01 -0.41796526270E+01 -0.17992494459E+03  0.18002831778E+03  0.00000000000E+00 0. -1.
        -15    1    1    2    0    0 -0.21865430564E+01 -0.14676035793E+01 -0.13349604860E+01  0.34459656560E+01  0.17770000000E+01 0. -1.
         15    1    1    2    0    0 -0.12502810305E+01  0.17936011231E+01  0.18165808201E+02  0.18382995518E+02  0.17770000000E+01 0.  1.
</event>
<event>
 6    1  0.1097339E-002  0.1832420E+03  0.7546771E-02  0.1067866E+00
        -11   -1    0    0    0    0  0.00000000000E+00  0.00000000000E+00  0.18250000000E+03  0.18250000000E+03  0.00000000000E+00 0.  1.
         11   -1    0    0    0    0 -0.00000000000E+00 -0.00000000000E+00 -0.18250000000E+03  0.18250000000E+03  0.00000000000E+00 0. -1.
        -11    1    1    2    0    0 -0.33456741723E+01 -0.42067814967E+00  0.15964013560E+03  0.15967574456E+03  0.00000000000E+00 0.  1.
         11    1    1    2    0    0  0.15271752468E+01  0.56945228393E+01 -0.18166234072E+03  0.18175798714E+03  0.00000000000E+00 0. -1.
        -15    1    1    2    0    0  0.16148114422E+01 -0.23127146220E+01  0.17792022899E+02  0.18101659392E+02  0.17770000000E+01 0. -1.
         15    1    1    2    0    0  0.20368748328E+00 -0.29611300676E+01  0.42301822237E+01  0.54646089077E+01  0.17770000000E+01 0.  1.
</event>
<event>
 6    1  0.1097339E-002  0.1947082E+03  0.7546771E-02  0.1059132E+00
        -11   -1    0    0    0    0  0.00000000000E+00  0.00000000000E+00  0.18250000000E+03  0.18250000000E+03  0.00000000000E+00 0.  1.
         11   -1    0    0    0    0 -0.00000000000E+00 -0.00000000000E+00 -0.18250000000E+03  0.18250000000E+03  0.00000000000E+00 0.  1.
        -11    1    1    2    0    0  0.14138733132E+01  0.42610426047E+01  0.13451022978E+03  0.13458513082E+03  0.00000000000E+00 0.  1.
         11    1    1    2    0    0 -0.75066494801E+00 -0.43233495817E+01 -0.17023529209E+03  0.17029183633E+03  0.00000000000E+00 0.  1.
        -15    1    1    2    0    0  0.12381138155E+02 -0.17292519082E+01 -0.76467257114E+01  0.14761877837E+02  0.17770000000E+01 0.  1.
         15    1    1    2    0    0 -0.13044346520E+02  0.17915588853E+01  0.43371788013E+02  0.45361155010E+02  0.17770000000E+01 0. -1.
</event>
<event>
 6    1  0.1097339E-002  0.1830650E+03  0.7546771E-02  0.1068006E+00
        -11   -1    0    0    0    0  0.00000000000E+00  0.00000000000E+00  0.18250000000E+03  0.18250000000E+03  0.00000000000E+00 0.  1.
         11   -1    0    0    0    0 -0.00000000000E+00 -0.00000000000E+00 -0.18250000000E+03  0.18250000000E+03  0.00000000000E+00 0.  1.
        -11    1    1    2    0    0 -0.83880772658E+01  0.52656403668E+00  0.18174079106E+03  0.18193502205E+03  0.00000000000E+00 0.  1.
         11    1    1    2    0    0  0.22840071176E+01 -0.61003476891E-01 -0.12354099313E+03  0.12356211957E+03  0.00000000000E+00 0.  1.
        -15    1    1    2    0    0  0.72576259173E+01  0.19288977006E+01 -0.25368744190E+02  0.26516498470E+02  0.17770000000E+01 0. -1.
         15    1    1    2    0    0 -0.11535557692E+01 -0.23944582604E+01 -0.32831053748E+02  0.32986359915E+02  0.17770000000E+01 0.  1.
</event>
<event>
 6    1  0.1097339E-002  0.1794820E+03  0.7546771E-02  0.1070883E+00
        -11   -1    0    0    0    0  0.00000000000E+00  0.00000000000E+00  0.18250000000E+03  0.18250000000E+03  0.00000000000E+00 0.  1.
         11   -1    0    0    0    0 -0.00000000000E+00 -0.00000000000E+00 -0.18250000000E+03  0.18250000000E+03  0.00000000000E+00 0. -1.
        -11    1    1    2    0    0 -0.59051901576E+00  0.91915534982E-01  0.80350900111E+01  0.80572844470E+01  0.00000000000E+00 0.  1.
         11    1    1    2    0    0  0.10290889528E+02 -0.12805800217E+01 -0.18112253678E+03  0.18141917105E+03  0.00000000000E+00 0. -1.
        -15    1    1    2    0    0 -0.11260266275E+02  0.40907442915E+01  0.29528402021E+02  0.31915702098E+02  0.17770000000E+01 0. -1.
         15    1    1    2    0    0  0.15598957632E+01 -0.29020798048E+01  0.14355904475E+03  0.14360784241E+03  0.17770000000E+01 0.  1.
</event>
<event>
 6    1  0.1097339E-002  0.1857332E+03  0.7546771E-02  0.1065910E+00
        -11   -1    0    0    0    0  0.00000000000E+00  0.00000000000E+00  0.18250000000E+03  0.18250000000E+03  0.00000000000E+00 0. -1.
         11   -1    0    0    0    0 -0.00000000000E+00 -0.00000000000E+00 -0.18250000000E+03  0.18250000000E+03  0.00000000000E+00 0. -1.
        -11    1    1    2    0    0 -0.27142266183E+01  0.22857307090E+01  0.16276081646E+03  0.16279949314E+03  0.00000000000E+00 0. -1.
         11    1    1    2    0    0  0.19302206223E+01  0.21306645896E+01 -0.17924375958E+03  0.17926681465E+03  0.00000000000E+00 0. -1.
        -15    1    1    2    0    0 -0.32872279238E+01 -0.12729284964E+01 -0.14405555716E+01  0.42022783981E+01  0.17770000000E+01 0. -1.
         15    1    1    2    0    0  0.40712339198E+01 -0.31434668022E+01  0.17923498697E+02  0.18731413820E+02  0.17770000000E+01 0.  1.
</event>
<event>
 6    1  0.1097339E-002  0.1879370E+03  0.7546771E-02  0.1064208E+00
        -11   -1    0    0    0    0  0.00000000000E+00  0.00000000000E+00  0.18250000000E+03  0.18250000000E+03  0.00000000000E+00 0.  1.
         11   -1    0    0    0    0 -0.00000000000E+00 -0.00000000000E+00 -0.18250000000E+03  0.18250000000E+03  0.00000000000E+00 0. -1.
        -11    1    1    2    0    0 -0.10513359891E+01  0.94279028108E+00  0.80957181458E+02  0.80969496667E+02  0.00000000000E+00 0.  1.
         11    1    1    2    0    0 -0.50053894370E+01 -0.31648254165E+01 -0.17696397608E+03  0.17706303644E+03  0.00000000000E+00 0. -1.
        -15    1    1    2    0    0 -0.13282732358E+02  0.16535277238E+02  0.30780993928E+02  0.37422903260E+02  0.17770000000E+01 0. -1.
         15    1    1    2    0    0  0.19339457784E+02 -0.14313242102E+02  0.65225800689E+02  0.69544563637E+02  0.17770000000E+01 0.  1.
</event>
<event>
 6    1  0.1097339E-002  0.1825929E+03  0.7546771E-02  0.1068381E+00
        -11   -1    0    0    0    0  0.00000000000E+00  0.00000000000E+00  0.18250000000E+03  0.18250000000E+03  0.00000000000E+00 0.  1.
         11   -1    0    0    0    0 -0.00000000000E+00 -0.00000000000E+00 -0.18250000000E+03  0.18250000000E+03  0.00000000000E+00 0.  1.
        -11    1    1    2    0    0 -0.13211359914E+01  0.11581184227E+00  0.76906972978E+01  0.78042064053E+01  0.00000000000E+00 0.  1.
         11    1    1    2    0    0  0.64377966197E+01  0.29304174660E+01 -0.18226992585E+03  0.18240712278E+03  0.00000000000E+00 0.  1.
        -15    1    1    2    0    0 -0.16686502583E+01 -0.26073434597E+01  0.12680173294E+03  0.12685196033E+03  0.17770000000E+01 0.  1.
         15    1    1    2    0    0 -0.34480103700E+01 -0.43888584851E+00  0.47777495611E+02  0.47936710485E+02  0.17770000000E+01 0. -1.
</event>
<event>
 6    1  0.1097339E-002  0.1843854E+03  0.7546771E-02  0.1066964E+00
        -11   -1    0    0    0    0  0.00000000000E+00  0.00000000000E+00  0.18250000000E+03  0.18250000000E+03  0.00000000000E+00 0. -1.
         11   -1    0    0    0    0 -0.00000000000E+00 -0.00000000000E+00 -0.18250000000E+03  0.18250000000E+03  0.00000000000E+00 0. -1.
        -11    1    1    2    0    0 -0.82813398215E+00  0.23344687703E+01  0.45388933525E+02  0.45456471892E+02  0.00000000000E+00 0. -1.
         11    1    1    2    0    0 -0.12491967710E+01  0.41913539819E+01 -0.18056161509E+03  0.18061457523E+03  0.00000000000E+00 0. -1.
        -15    1    1    2    0    0 -0.93567660289E+01 -0.68508967893E+01  0.20084186085E+02  0.23259753159E+02  0.17770000000E+01 0.  1.
         15    1    1    2    0    0  0.11434096782E+02  0.32507403718E+00  0.11508849548E+03  0.11566919972E+03  0.17770000000E+01 0. -1.
</event>
<event>
 6    1  0.1097339E-002  0.1843997E+03  0.7546771E-02  0.1066953E+00
        -11   -1    0    0    0    0  0.00000000000E+00  0.00000000000E+00  0.18250000000E+03  0.18250000000E+03  0.00000000000E+00 0.  1.
         11   -1    0    0    0    0 -0.00000000000E+00 -0.00000000000E+00 -0.18250000000E+03  0.18250000000E+03  0.00000000000E+00 0.  1.
        -11    1    1    2    0    0 -0.97857695566E+00  0.79987715380E+01  0.18042045478E+03  0.18060032796E+03  0.00000000000E+00 0.  1.
         11    1    1    2    0    0 -0.18740487356E+01  0.98138164193E+00 -0.13677535699E+03  0.13679171557E+03  0.00000000000E+00 0.  1.
        -15    1    1    2    0    0 -0.85046594286E-01 -0.99258475166E+01 -0.11619896222E+02  0.15385363143E+02  0.17770000000E+01 0. -1.
         15    1    1    2    0    0  0.29376722855E+01  0.94569433666E+00 -0.32025201563E+02  0.32222593322E+02  0.17770000000E+01 0.  1.
</event>
<event>
 6    1  0.1097339E-002  0.1852475E+03  0.7546771E-02  0.1066289E+00
        -11   -1    0    0    0    0  0.00000000000E+00  0.00000000000E+00  0.18250000000E+03  0.18250000000E+03  0.00000000000E+00 0. -1.
         11   -1    0    0    0    0 -0.00000000000E+00 -0.00000000000E+00 -0.18250000000E+03  0.18250000000E+03  0.00000000000E+00 0. -1.
        -11    1    1    2    0    0  0.76917724069E+00  0.24008897071E+01  0.17973486086E+03  0.17975254133E+03  0.00000000000E+00 0. -1.
         11    1    1    2    0    0 -0.42314820775E+00 -0.26311164663E+01 -0.17840644193E+03  0.17842634433E+03  0.00000000000E+00 0. -1.
        -15    1    1    2    0    0  0.25122129773E+00  0.25749125949E+01 -0.20304186961E+01  0.37381300263E+01  0.17770000000E+01 0. -1.
         15    1    1    2    0    0 -0.59725033068E+00 -0.23446858357E+01  0.70199976240E+00  0.30829843159E+01  0.17770000000E+01 0. -1.
</event>
<event>
 6    1  0.1097339E-002  0.1834178E+03  0.7546771E-02  0.1067727E+00
        -11   -1    0    0    0    0  0.00000000000E+00  0.00000000000E+00  0.18250000000E+03  0.18250000000E+03  0.00000000000E+00 0.  1.
         11   -1    0    0    0    0 -0.00000000000E+00 -0.00000000000E+00 -0.18250000000E+03  0.18250000000E+03  0.00000000000E+00 0. -1.
        -11    1    1    2    0    0  0.21683278567E+00  0.19826512584E+01 -0.21742720941E+01  0.29504883678E+01  0.00000000000E+00 0.  1.
         11    1    1    2    0    0 -0.88119010056E+00 -0.23853111103E+01 -0.17861364154E+03  0.17863174172E+03  0.00000000000E+00 0. -1.
        -15    1    1    2    0    0 -0.61337151301E+01  0.30863354628E+01  0.89700839731E+01  0.11435386455E+02  0.17770000000E+01 0.  1.
         15    1    1    2    0    0  0.67980724450E+01 -0.26836756109E+01  0.17181782966E+03  0.17198238346E+03  0.17770000000E+01 0.  1.
</event>
<event>
 6    1  0.1097339E-002  0.1830960E+03  0.7546771E-02  0.1067981E+00
        -11   -1    0    0    0    0  0.00000000000E+00  0.00000000000E+00  0.18250000000E+03  0.18250000000E+03  0.00000000000E+00 0. -1.
         11   -1    0    0    0    0 -0.00000000000E+00 -0.00000000000E+00 -0.18250000000E+03  0.18250000000E+03  0.00000000000E+00 0.  1.
        -11    1    1    2    0    0  0.27171795926E+00 -0.26836512835E+01  0.15743400403E+03  0.15745710984E+03  0.00000000000E+00 0. -1.
         11    1    1    2    0    0 -0.36348358942E+01  0.19440255127E+00 -0.18186759309E+03  0.18190401656E+03  0.00000000000E+00 0.  1.
        -15    1    1    2    0    0  0.40063190739E-01 -0.71527810633E+00  0.13538561069E+02  0.13673463082E+02  0.17770000000E+01 0. -1.
         15    1    1    2    0    0  0.33230547442E+01  0.32045268386E+01  0.10895027986E+02  0.11965410520E+02  0.17770000000E+01 0. -1.
</event>
<event>
 6    1  0.1097339E-002  0.1826271E+03  0.7546771E-02  0.1068354E+00
        -11   -1    0    0    0    0  0.00000000000E+00  0.00000000000E+00  0.18250000000E+03  0.18250000000E+03  0.00000000000E+00 0. -1.
         11   -1    0    0    0    0 -0.00000000000E+00 -0.00000000000E+00 -0.18250000000E+03  0.18250000000E+03  0.00000000000E+00 0. -1.
        -11    1    1    2    0    0  0.51090604960E+01  0.17995113879E+01  0.18229247987E+03  0.18237293921E+03  0.00000000000E+00 0. -1.
         11    1    1    2    0    0 -0.51725544927E+00  0.16416753616E+01 -0.41848836546E+02  0.41884218644E+02  0.00000000000E+00 0. -1.
        -15    1    1    2    0    0 -0.58352068628E+01 -0.30609568998E+01 -0.11584038060E+03  0.11604124526E+03  0.17770000000E+01 0. -1.
         15    1    1    2    0    0  0.12434018161E+01 -0.38022984965E+00 -0.24603262725E+02  0.24701596882E+02  0.17770000000E+01 0.  1.
</event>
<event>
 6    1  0.1097339E-002  0.1718678E+03  0.7546771E-02  0.1077248E+00
        -11   -1    0    0    0    0  0.00000000000E+00  0.00000000000E+00  0.18250000000E+03  0.18250000000E+03  0.00000000000E+00 0.  1.
         11   -1    0    0    0    0 -0.00000000000E+00 -0.00000000000E+00 -0.18250000000E+03  0.18250000000E+03  0.00000000000E+00 0. -1.
        -11    1    1    2    0    0 -0.12018538264E+00  0.32166334809E+01  0.17051632540E+03  0.17054670447E+03  0.00000000000E+00 0.  1.
         11    1    1    2    0    0  0.63348246297E+01 -0.32031228670E+01 -0.17310935582E+03  0.17325483853E+03  0.00000000000E+00 0. -1.
        -15    1    1    2    0    0 -0.44353351354E+01  0.97798524863E+01  0.20253339745E+01  0.11071468698E+02  0.17770000000E+01 0.  1.
         15    1    1    2    0    0 -0.17793041118E+01 -0.97933631003E+01  0.56769644379E+00  0.10126988308E+02  0.17770000000E+01 0.  1.
</event>
<event>
 6    1  0.1097339E-002  0.1850810E+03  0.7546771E-02  0.1066419E+00
        -11   -1    0    0    0    0  0.00000000000E+00  0.00000000000E+00  0.18250000000E+03  0.18250000000E+03  0.00000000000E+00 0. -1.
         11   -1    0    0    0    0 -0.00000000000E+00 -0.00000000000E+00 -0.18250000000E+03  0.18250000000E+03  0.00000000000E+00 0.  1.
        -11    1    1    2    0    0  0.91053454597E+00 -0.66354303631E+01  0.13525836752E+03  0.13542408941E+03  0.00000000000E+00 0. -1.
         11    1    1    2    0    0 -0.20638948004E+01  0.24774186315E+01 -0.17989007977E+03  0.17991897639E+03  0.00000000000E+00 0.  1.
        -15    1    1    2    0    0  0.11029691089E+02  0.28925516922E+01  0.26288340008E+02  0.28709850056E+02  0.17770000000E+01 0.  1.
         15    1    1    2    0    0 -0.98763308350E+01  0.12654600393E+01  0.18343372242E+02  0.20947084143E+02  0.17770000000E+01 0. -1.
</event>
<event>
 6    1  0.1097339E-002  0.1924767E+03  0.7546771E-02  0.1060780E+00
        -11   -1    0    0    0    0  0.00000000000E+00  0.00000000000E+00  0.18250000000E+03  0.18250000000E+03  0.00000000000E+00 0. -1.
         11   -1    0    0    0    0 -0.00000000000E+00 -0.00000000000E+00 -0.18250000000E+03  0.18250000000E+03  0.00000000000E+00 0. -1.
        -11    1    1    2    0    0  0.59873169899E+01  0.59356289295E+01  0.17231717115E+03  0.17252329445E+03  0.00000000000E+00 0. -1.
         11    1    1    2    0    0 -0.31083235270E+01  0.73307541738E+00 -0.12963949851E+03  0.12967882884E+03  0.00000000000E+00 0. -1.
        -15    1    1    2    0    0  0.12910873437E+02  0.92703778471E+01 -0.17482188080E+01  0.16088646815E+02  0.17770000000E+01 0. -1.
         15    1    1    2    0    0 -0.15789866900E+02 -0.15939082194E+02 -0.40929453825E+02  0.46709229895E+02  0.17770000000E+01 0.  1.
</event>
<event>
 6    1  0.1097339E-002  0.1863557E+03  0.7546771E-02  0.1065426E+00
        -11   -1    0    0    0    0  0.00000000000E+00  0.00000000000E+00  0.18250000000E+03  0.18250000000E+03  0.00000000000E+00 0.  1.
         11   -1    0    0    0    0 -0.00000000000E+00 -0.00000000000E+00 -0.18250000000E+03  0.18250000000E+03  0.00000000000E+00 0.  1.
        -11    1    1    2    0    0  0.35608687185E+01  0.14092341146E+01  0.17433017961E+03  0.17437223761E+03  0.00000000000E+00 0.  1.
         11    1    1    2    0    0 -0.26757921203E+01  0.24110688949E+01 -0.17860802860E+03  0.17864434219E+03  0.00000000000E+00 0.  1.
        -15    1    1    2    0    0 -0.28202299857E+01 -0.22054636963E+01  0.68744611785E+01  0.79519628258E+01  0.17770000000E+01 0.  1.
         15    1    1    2    0    0  0.19351533876E+01 -0.16148393132E+01 -0.25966121932E+01  0.40314573696E+01  0.17770000000E+01 0.  1.
</event>
<event>
 6    1  0.1097339E-002  0.1716610E+03  0.7546771E-02  0.1077426E+00
        -11   -1    0    0    0    0  0.00000000000E+00  0.00000000000E+00  0.18250000000E+03  0.18250000000E+03  0.00000000000E+00 0.  1.
         11   -1    0    0    0    0 -0.00000000000E+00 -0.00000000000E+00 -0.18250000000E+03  0.18250000000E+03  0.00000000000E+00 0.  1.
        -11    1    1    2    0    0  0.95002336979E+01 -0.88231308699E+01  0.17096291843E+03  0.17145384672E+03  0.00000000000E+00 0.  1.
         11    1    1    2    0    0  0.21623816452E+01  0.29917776203E+01 -0.17207790516E+03  0.17211749497E+03  0.00000000000E+00 0.  1.
        -15    1    1    2    0    0 -0.28697789028E+01 -0.32696819540E+01  0.61100124436E+01  0.77082055040E+01  0.17770000000E+01 0. -1.
         15    1    1    2    0    0 -0.87928364403E+01  0.91010352036E+01 -0.49950257067E+01  0.13720452808E+02  0.17770000000E+01 0.  1.
</event>
<event>
 6    1  0.1097339E-002  0.1316711E+03  0.7546771E-02  0.1118128E+00
        -11   -1    0    0    0    0  0.00000000000E+00  0.00000000000E+00  0.18250000000E+03  0.18250000000E+03  0.00000000000E+00 0.  1.
         11   -1    0    0    0    0 -0.00000000000E+00 -0.00000000000E+00 -0.18250000000E+03  0.18250000000E+03  0.00000000000E+00 0.  1.
        -11    1    1    2    0    0  0.24965439173E+01  0.16997360215E+01  0.57751952431E+02  0.57830872756E+02  0.00000000000E+00 0.  1.
         11    1    1    2    0    0  0.23470666375E+01  0.15990109200E+01 -0.13903236922E+03  0.13906137224E+03  0.00000000000E+00 0.  1.
        -15    1    1    2    0    0 -0.29838297614E+01 -0.61500968748E+01  0.12450888753E+03  0.12470905234E+03  0.17770000000E+01 0. -1.
         15    1    1    2    0    0 -0.18597807934E+01  0.28513499334E+01 -0.43228470746E+02  0.43398702666E+02  0.17770000000E+01 0.  1.
</event>
<event>
 6    1  0.2692199E-002  0.1879671E+03  0.7546771E-02  0.1064184E+00
        -11   -1    0    0    0    0  0.00000000000E+00  0.00000000000E+00  0.18250000000E+03  0.18250000000E+03  0.00000000000E+00 0. -1.
         11   -1    0    0    0    0 -0.00000000000E+00 -0.00000000000E+00 -0.18250000000E+03  0.18250000000E+03  0.00000000000E+00 0. -1.
        -11    1    1    2    0    0  0.23666170867E+01  0.83367249393E-02  0.17020774188E+03  0.17022419435E+03  0.00000000000E+00 0. -1.
         11    1    1    2    0    0 -0.70405871964E+01 -0.65184829157E-01 -0.17689282904E+03  0.17703289830E+03  0.00000000000E+00 0. -1.
        -15    1    1    2    0    0  0.55461948331E+01  0.19200255687E+01 -0.35957614713E+01  0.71087273734E+01  0.17770000000E+01 0. -1.
         15    1    1    2    0    0 -0.87222472348E+00 -0.18631774645E+01  0.10280848625E+02  0.10634179972E+02  0.17770000000E+01 0. -1.
</event>
<event>
 6    1  0.1097339E-002  0.1830593E+03  0.7546771E-02  0.1068010E+00
        -11   -1    0    0    0    0  0.00000000000E+00  0.00000000000E+00  0.18250000000E+03  0.18250000000E+03  0.00000000000E+00 0.  1.
         11   -1    0    0    0    0 -0.00000000000E+00 -0.00000000000E+00 -0.18250000000E+03  0.18250000000E+03  0.00000000000E+00 0. -1.
        -11    1    1    2    0    0  0.79632710595E+00 -0.58545903874E+01  0.13580900392E+03  0.13593747059E+03  0.00000000000E+00 0.  1.
         11    1    1    2    0    0  0.22860206804E+01  0.22597301778E+01 -0.18191226711E+03  0.18194066394E+03  0.00000000000E+00 0. -1.
        -15    1    1    2    0    0 -0.12319587268E+01  0.58872642945E+01  0.31565453924E+02  0.32182498561E+02  0.17770000000E+01 0.  1.
         15    1    1    2    0    0 -0.18503890596E+01 -0.22924040849E+01  0.14537809270E+02  0.14939366906E+02  0.17770000000E+01 0.  1.
</event>
<event>
 6    1  0.1097339E-002  0.1852499E+03  0.7546771E-02  0.1066287E+00
        -11   -1    0    0    0    0  0.00000000000E+00  0.00000000000E+00  0.18250000000E+03  0.18250000000E+03  0.00000000000E+00 0. -1.
         11   -1    0    0    0    0 -0.00000000000E+00 -0.00000000000E+00 -0.18250000000E+03  0.18250000000E+03  0.00000000000E+00 0. -1.
        -11    1    1    2    0    0 -0.28617190597E+01  0.17007327302E+00  0.17258481006E+03  0.17260861805E+03  0.00000000000E+00 0. -1.
         11    1    1    2    0    0 -0.14746829896E+01  0.27786202996E+01 -0.17972253531E+03  0.17975006292E+03  0.00000000000E+00 0. -1.
        -15    1    1    2    0    0  0.41083751111E+01 -0.17987681633E+01  0.87358633906E+01  0.99793462280E+01  0.17770000000E+01 0.  1.
         15    1    1    2    0    0  0.22802693815E+00 -0.11499254094E+01 -0.15981381407E+01  0.26619728114E+01  0.17770000000E+01 0.  1.
</event>
<event>
 6    1  0.1097339E-002  0.1864632E+03  0.7546771E-02  0.1065343E+00
        -11   -1    0    0    0    0  0.00000000000E+00  0.00000000000E+00  0.18250000000E+03  0.18250000000E+03  0.00000000000E+00 0. -1.
         11   -1    0    0    0    0 -0.00000000000E+00 -0.00000000000E+00 -0.18250000000E+03  0.18250000000E+03  0.00000000000E+00 0. -1.
        -11    1    1    2    0    0 -0.52433696883E+01  0.10292961688E+02  0.17816268960E+03  0.17853678039E+03  0.00000000000E+00 0. -1.
         11    1    1    2    0    0 -0.29780263664E-01 -0.82334600025E+01 -0.11221162815E+03  0.11251328918E+03  0.00000000000E+00 0. -1.
        -15    1    1    2    0    0  0.59584273251E+00  0.60462500905E+01 -0.63891312989E+02  0.64204125827E+02  0.17770000000E+01 0. -1.
         15    1    1    2    0    0  0.46773072195E+01 -0.81057517764E+01 -0.20597484648E+01  0.97458046063E+01  0.17770000000E+01 0.  1.
</event>
<event>
 6    1  0.1097339E-002  0.1828059E+03  0.7546771E-02  0.1068212E+00
        -11   -1    0    0    0    0  0.00000000000E+00  0.00000000000E+00  0.18250000000E+03  0.18250000000E+03  0.00000000000E+00 0.  1.
         11   -1    0    0    0    0 -0.00000000000E+00 -0.00000000000E+00 -0.18250000000E+03  0.18250000000E+03  0.00000000000E+00 0. -1.
        -11    1    1    2    0    0 -0.36178126814E+00  0.33230281508E+01  0.18216341951E+03  0.18219408555E+03  0.00000000000E+00 0.  1.
         11    1    1    2    0    0 -0.12827548296E+01  0.79525376918E+00 -0.79247538041E+02  0.79261908721E+02  0.00000000000E+00 0. -1.
        -15    1    1    2    0    0  0.61149028163E+00 -0.68093628532E+01 -0.86177463582E+02  0.86466492361E+02  0.17770000000E+01 0. -1.
         15    1    1    2    0    0  0.10330458161E+01  0.26910809332E+01 -0.16738417890E+02  0.17077513365E+02  0.17770000000E+01 0.  1.
</event>
<event>
 6    1  0.1097339E-002  0.1527441E+03  0.7546771E-02  0.1094966E+00
        -11   -1    0    0    0    0  0.00000000000E+00  0.00000000000E+00  0.18250000000E+03  0.18250000000E+03  0.00000000000E+00 0. -1.
         11   -1    0    0    0    0 -0.00000000000E+00 -0.00000000000E+00 -0.18250000000E+03  0.18250000000E+03  0.00000000000E+00 0.  1.
        -11    1    1    2    0    0 -0.46638471104E+01 -0.88027194849E+01  0.15655473398E+03  0.15687136154E+03  0.00000000000E+00 0. -1.
         11    1    1    2    0    0  0.26533651706E+00 -0.25121977118E+01 -0.33768938089E+02  0.33863294590E+02  0.00000000000E+00 0.  1.
        -15    1    1    2    0    0 -0.28115140073E+01 -0.10206865272E+01  0.25271368693E+02  0.25509727882E+02  0.17770000000E+01 0. -1.
         15    1    1    2    0    0  0.72100246006E+01  0.12335603724E+02 -0.14805716458E+03  0.14875561599E+03  0.17770000000E+01 0.  1.
</event>
<event>
 6    1  0.1097339E-002  0.1929865E+03  0.7546771E-02  0.1060401E+00
        -11   -1    0    0    0    0  0.00000000000E+00  0.00000000000E+00  0.18250000000E+03  0.18250000000E+03  0.00000000000E+00 0.  1.
         11   -1    0    0    0    0 -0.00000000000E+00 -0.00000000000E+00 -0.18250000000E+03  0.18250000000E+03  0.00000000000E+00 0. -1.
        -11    1    1    2    0    0 -0.34764823715E+01  0.90352889526E+00  0.17197600352E+03  0.17201351134E+03  0.00000000000E+00 0.  1.
         11    1    1    2    0    0 -0.91551891718E+00  0.11471040680E+01 -0.95062492860E+02  0.95073821693E+02  0.00000000000E+00 0. -1.
        -15    1    1    2    0    0  0.11037372137E+02 -0.26426606417E+02 -0.18226520147E+02  0.33993424012E+02  0.17770000000E+01 0.  1.
         15    1    1    2    0    0 -0.66453708487E+01  0.24375973454E+02 -0.58686990516E+02  0.63919242959E+02  0.17770000000E+01 0. -1.
</event>
<event>
 6    1  0.1097339E-002  0.1825608E+03  0.7546771E-02  0.1068406E+00
        -11   -1    0    0    0    0  0.00000000000E+00  0.00000000000E+00  0.18250000000E+03  0.18250000000E+03  0.00000000000E+00 0. -1.
         11   -1    0    0    0    0 -0.00000000000E+00 -0.00000000000E+00 -0.18250000000E+03  0.18250000000E+03  0.00000000000E+00 0. -1.
        -11    1    1    2    0    0  0.11228278742E+01 -0.29351251670E+01  0.18241212134E+03  0.18243918908E+03  0.00000000000E+00 0. -1.
         11    1    1    2    0    0 -0.10038920588E+01  0.55238909583E+00 -0.14884848196E+02  0.14928886054E+02  0.00000000000E+00 0. -1.
        -15    1    1    2    0    0  0.32701648927E+00  0.31218147146E+01 -0.78611648513E+02  0.78694356073E+02  0.17770000000E+01 0.  1.
         15    1    1    2    0    0 -0.44595230469E+00 -0.73907864340E+00 -0.88915624628E+02  0.88937568792E+02  0.17770000000E+01 0. -1.
</event>
<event>
 6    1  0.1097339E-002  0.1842078E+03  0.7546771E-02  0.1067103E+00
        -11   -1    0    0    0    0  0.00000000000E+00  0.00000000000E+00  0.18250000000E+03  0.18250000000E+03  0.00000000000E+00 0. -1.
         11   -1    0    0    0    0 -0.00000000000E+00 -0.00000000000E+00 -0.18250000000E+03  0.18250000000E+03  0.00000000000E+00 0.  1.
        -11    1    1    2    0    0 -0.19271384601E+01 -0.10520928996E+01  0.14205104082E+03  0.14206800822E+03  0.00000000000E+00 0. -1.
         11    1    1    2    0    0 -0.24779459169E+01  0.34283717914E+00 -0.18077492364E+03  0.18079223095E+03  0.00000000000E+00 0.  1.
        -15    1    1    2    0    0  0.70520885154E-01  0.10095753857E+01 -0.90323078097E+00  0.22355693902E+01  0.17770000000E+01 0.  1.
         15    1    1    2    0    0  0.43345634918E+01 -0.30031966526E+00  0.39627113604E+02  0.39904191436E+02  0.17770000000E+01 0. -1.
</event>
<event>
 6    1  0.1097339E-002  0.1938307E+03  0.7546771E-02  0.1059777E+00
        -11   -1    0    0    0    0  0.00000000000E+00  0.00000000000E+00  0.18250000000E+03  0.18250000000E+03  0.00000000000E+00 0. -1.
         11   -1    0    0    0    0 -0.00000000000E+00 -0.00000000000E+00 -0.18250000000E+03  0.18250000000E+03  0.00000000000E+00 0.  1.
        -11    1    1    2    0    0  0.16282703447E+02 -0.23216523748E+01  0.17037730682E+03  0.17116934066E+03  0.00000000000E+00 0. -1.
         11    1    1    2    0    0  0.26190880527E+00  0.51114246998E+01 -0.15550906675E+03  0.15559326818E+03  0.00000000000E+00 0.  1.
        -15    1    1    2    0    0 -0.12278208303E+02  0.59871256077E+01  0.60815018820E+01  0.15057970192E+02  0.17770000000E+01 0.  1.
         15    1    1    2    0    0 -0.42664039488E+01 -0.87768979327E+01 -0.20949741949E+02  0.23179420974E+02  0.17770000000E+01 0. -1.
</event>
<event>
 6    1  0.1097339E-002  0.1829974E+03  0.7546771E-02  0.1068060E+00
        -11   -1    0    0    0    0  0.00000000000E+00  0.00000000000E+00  0.18250000000E+03  0.18250000000E+03  0.00000000000E+00 0.  1.
         11   -1    0    0    0    0 -0.00000000000E+00 -0.00000000000E+00 -0.18250000000E+03  0.18250000000E+03  0.00000000000E+00 0.  1.
        -11    1    1    2    0    0  0.18217414924E+01 -0.84428878694E+00  0.10622923566E+03  0.10624820974E+03  0.00000000000E+00 0.  1.
         11    1    1    2    0    0  0.25440855451E+01  0.40783036382E+01 -0.18193915632E+03  0.18200264155E+03  0.00000000000E+00 0.  1.
        -15    1    1    2    0    0 -0.26359544572E+01 -0.39093095930E+01  0.12366644613E+02  0.13353747990E+02  0.17770000000E+01 0. -1.
         15    1    1    2    0    0 -0.17298725803E+01  0.67529474167E+00  0.63343276045E+02  0.63395400711E+02  0.17770000000E+01 0. -1.
</event>
<event>
 6    1  0.1097339E-002  0.1859815E+03  0.7546771E-02  0.1065717E+00
        -11   -1    0    0    0    0  0.00000000000E+00  0.00000000000E+00  0.18250000000E+03  0.18250000000E+03  0.00000000000E+00 0. -1.
         11   -1    0    0    0    0 -0.00000000000E+00 -0.00000000000E+00 -0.18250000000E+03  0.18250000000E+03  0.00000000000E+00 0. -1.
        -11    1    1    2    0    0  0.46395253443E+00 -0.22238115789E+01  0.16818987879E+03  0.16820521965E+03  0.00000000000E+00 0. -1.
         11    1    1    2    0    0 -0.76971417220E+00  0.25787728931E+01 -0.17899823231E+03  0.17901846190E+03  0.00000000000E+00 0. -1.
        -15    1    1    2    0    0  0.41681594871E-01  0.39865968595E+01  0.12133265932E+02  0.12894516783E+02  0.17770000000E+01 0. -1.
         15    1    1    2    0    0  0.26408004291E+00 -0.43415581737E+01 -0.13249124149E+01  0.48818016707E+01  0.17770000000E+01 0. -1.
</event>
<event>
 6    1  0.1097339E-002  0.1833390E+03  0.7546771E-02  0.1067789E+00
        -11   -1    0    0    0    0  0.00000000000E+00  0.00000000000E+00  0.18250000000E+03  0.18250000000E+03  0.00000000000E+00 0. -1.
         11   -1    0    0    0    0 -0.00000000000E+00 -0.00000000000E+00 -0.18250000000E+03  0.18250000000E+03  0.00000000000E+00 0.  1.
        -11    1    1    2    0    0  0.63570080073E+01  0.27349808719E+01  0.18152913712E+03  0.18166100103E+03  0.00000000000E+00 0. -1.
         11    1    1    2    0    0  0.80188143033E+00 -0.31013157415E+01 -0.13316284271E+03  0.13320136580E+03  0.00000000000E+00 0.  1.
        -15    1    1    2    0    0 -0.64524809748E+01  0.42310321349E-01 -0.12166215266E+02  0.13885633720E+02  0.17770000000E+01 0. -1.
         15    1    1    2    0    0 -0.70640846283E+00  0.32402454822E+00 -0.36200079147E+02  0.36251999450E+02  0.17770000000E+01 0.  1.
</event>
<event>
 6    1  0.1097339E-002  0.1855036E+03  0.7546771E-02  0.1066089E+00
        -11   -1    0    0    0    0  0.00000000000E+00  0.00000000000E+00  0.18250000000E+03  0.18250000000E+03  0.00000000000E+00 0. -1.
         11   -1    0    0    0    0 -0.00000000000E+00 -0.00000000000E+00 -0.18250000000E+03  0.18250000000E+03  0.00000000000E+00 0. -1.
        -11    1    1    2    0    0  0.14461845114E+01 -0.10136988414E+02  0.17920410114E+03  0.17949640623E+03  0.00000000000E+00 0. -1.
         11    1    1    2    0    0 -0.37017519649E+01 -0.23632085557E+01 -0.13087683565E+03  0.13095050146E+03  0.00000000000E+00 0. -1.
        -15    1    1    2    0    0  0.11196500297E+01  0.40302056272E+01  0.83606426832E+00  0.46209204762E+01  0.17770000000E+01 0.  1.
         15    1    1    2    0    0  0.11359174237E+01  0.84699913426E+01 -0.49163329763E+02  0.49932171835E+02  0.17770000000E+01 0. -1.
</event>
<event>
 6    1  0.1097339E-002  0.2031720E+03  0.7546771E-02  0.1053096E+00
        -11   -1    0    0    0    0  0.00000000000E+00  0.00000000000E+00  0.18250000000E+03  0.18250000000E+03  0.00000000000E+00 0.  1.
         11   -1    0    0    0    0 -0.00000000000E+00 -0.00000000000E+00 -0.18250000000E+03  0.18250000000E+03  0.00000000000E+00 0. -1.
        -11    1    1    2    0    0 -0.75816749346E+00  0.40305095371E+01  0.16177599590E+03  0.16182797248E+03  0.00000000000E+00 0.  1.
         11    1    1    2    0    0 -0.26349210383E+01  0.95130943600E+00 -0.14512891051E+03  0.14515594533E+03  0.00000000000E+00 0. -1.
        -15    1    1    2    0    0  0.19851618520E+01 -0.58709897387E+01  0.20140865506E+02  0.21147614060E+02  0.17770000000E+01 0.  1.
         15    1    1    2    0    0  0.14079266797E+01  0.88917076557E+00 -0.36787950904E+02  0.36868468139E+02  0.17770000000E+01 0. -1.
</event>
<event>
 6    1  0.1097339E-002  0.1827581E+03  0.7546771E-02  0.1068250E+00
        -11   -1    0    0    0    0  0.00000000000E+00  0.00000000000E+00  0.18250000000E+03  0.18250000000E+03  0.00000000000E+00 0. -1.
         11   -1    0    0    0    0 -0.00000000000E+00 -0.00000000000E+00 -0.18250000000E+03  0.18250000000E+03  0.00000000000E+00 0.  1.
        -11    1    1    2    0    0  0.18674094742E+00  0.58708883937E+00  0.30612443332E+02  0.30618641907E+02  0.00000000000E+00 0. -1.
         11    1    1    2    0    0 -0.26972461231E+01 -0.10019948039E+01 -0.18221915248E+03  0.18224186858E+03  0.00000000000E+00 0.  1.
        -15    1    1    2    0    0  0.61247368805E+01 -0.28794520399E+01  0.64728136394E+02  0.65105245687E+02  0.17770000000E+01 0.  1.
         15    1    1    2    0    0 -0.36142317048E+01  0.32943580045E+01  0.86878572759E+02  0.87034243830E+02  0.17770000000E+01 0. -1.
</event>
<event>
 6    1  0.1097339E-002  0.1844208E+03  0.7546771E-02  0.1066936E+00
        -11   -1    0    0    0    0  0.00000000000E+00  0.00000000000E+00  0.18250000000E+03  0.18250000000E+03  0.00000000000E+00 0. -1.
         11   -1    0    0    0    0 -0.00000000000E+00 -0.00000000000E+00 -0.18250000000E+03  0.18250000000E+03  0.00000000000E+00 0.  1.
        -11    1    1    2    0    0 -0.23284708532E+01  0.16731881864E+01  0.18055644813E+03  0.18057921335E+03  0.00000000000E+00 0. -1.
         11    1    1    2    0    0  0.27323469630E+01  0.28403770470E+01 -0.17526224851E+03  0.17530655782E+03  0.00000000000E+00 0.  1.
        -15    1    1    2    0    0 -0.13183869808E+01 -0.54182022745E+00 -0.37872488551E+01  0.44195810073E+01  0.17770000000E+01 0.  1.
         15    1    1    2    0    0  0.91451087094E+00 -0.39717450059E+01 -0.15069507575E+01  0.46946478153E+01  0.17770000000E+01 0. -1.
</event>
<event>
 6    1  0.1097339E-002  0.1826639E+03  0.7546771E-02  0.1068324E+00
        -11   -1    0    0    0    0  0.00000000000E+00  0.00000000000E+00  0.18250000000E+03  0.18250000000E+03  0.00000000000E+00 0.  1.
         11   -1    0    0    0    0 -0.00000000000E+00 -0.00000000000E+00 -0.18250000000E+03  0.18250000000E+03  0.00000000000E+00 0.  1.
        -11    1    1    2    0    0  0.79167954231E+00  0.22469449288E+01  0.12072818997E+03  0.12075169304E+03  0.00000000000E+00 0.  1.
         11    1    1    2    0    0 -0.27067517909E+01  0.65756746078E+00 -0.18231485966E+03  0.18233613726E+03  0.00000000000E+00 0.  1.
        -15    1    1    2    0    0  0.16738246235E+01 -0.34447971995E+01  0.49681014217E+02  0.49860096463E+02  0.17770000000E+01 0.  1.
         15    1    1    2    0    0  0.24124762513E+00  0.54028480996E+00  0.11905655466E+02  0.12052073231E+02  0.17770000000E+01 0. -1.
</event>
<event>
 6    1  0.1097339E-002  0.1857249E+03  0.7546771E-02  0.1065916E+00
        -11   -1    0    0    0    0  0.00000000000E+00  0.00000000000E+00  0.18250000000E+03  0.18250000000E+03  0.00000000000E+00 0.  1.
         11   -1    0    0    0    0 -0.00000000000E+00 -0.00000000000E+00 -0.18250000000E+03  0.18250000000E+03  0.00000000000E+00 0.  1.
        -11    1    1    2    0    0 -0.11609710779E+00 -0.58089615176E+01  0.17918095204E+03  0.17927512679E+03  0.00000000000E+00 0.  1.
         11    1    1    2    0    0 -0.52275111356E+00  0.38403856147E+01 -0.16992256240E+03  0.16996675864E+03  0.00000000000E+00 0.  1.
        -15    1    1    2    0    0 -0.86825202409E+00  0.29717342163E+01  0.20853476833E+01  0.41341830861E+01  0.17770000000E+01 0.  1.
         15    1    1    2    0    0  0.15071002454E+01 -0.10031583134E+01 -0.11343737321E+02  0.11623931485E+02  0.17770000000E+01 0. -1.
</event>
<event>
 6    1  0.1097339E-002  0.1835744E+03  0.7546771E-02  0.1067603E+00
        -11   -1    0    0    0    0  0.00000000000E+00  0.00000000000E+00  0.18250000000E+03  0.18250000000E+03  0.00000000000E+00 0.  1.
         11   -1    0    0    0    0 -0.00000000000E+00 -0.00000000000E+00 -0.18250000000E+03  0.18250000000E+03  0.00000000000E+00 0.  1.
        -11    1    1    2    0    0  0.33373477931E+01 -0.24236636882E+01  0.18137870790E+03  0.18142559829E+03  0.00000000000E+00 0.  1.
         11    1    1    2    0    0 -0.26476590604E+01  0.16010600105E+01 -0.11790732653E+03  0.11794791707E+03  0.00000000000E+00 0.  1.
        -15    1    1    2    0    0 -0.45685060581E+01  0.29940424004E+01 -0.74808681957E+01  0.94316835963E+01  0.17770000000E+01 0.  1.
         15    1    1    2    0    0  0.38788173254E+01 -0.21714387227E+01 -0.55990513172E+02  0.56194801043E+02  0.17770000000E+01 0.  1.
</event>
<event>
 6    1  0.1097339E-002  0.1833411E+03  0.7546771E-02  0.1067787E+00
        -11   -1    0    0    0    0  0.00000000000E+00  0.00000000000E+00  0.18250000000E+03  0.18250000000E+03  0.00000000000E+00 0. -1.
         11   -1    0    0    0    0 -0.00000000000E+00 -0.00000000000E+00 -0.18250000000E+03  0.18250000000E+03  0.00000000000E+00 0.  1.
        -11    1    1    2    0    0 -0.34767317464E+01 -0.41980800327E+00  0.18162511160E+03  0.18165887004E+03  0.00000000000E+00 0. -1.
         11    1    1    2    0    0  0.15125846883E+01 -0.13909378886E+01 -0.11640703569E+03  0.11642517159E+03  0.00000000000E+00 0.  1.
        -15    1    1    2    0    0 -0.31538017528E+01  0.34982596784E+01 -0.54984505686E+02  0.55214471661E+02  0.17770000000E+01 0.  1.
         15    1    1    2    0    0  0.51179488108E+01 -0.16875137866E+01 -0.10233570221E+02  0.11701486712E+02  0.17770000000E+01 0.  1.
</event>
<event>
 6    1  0.1097339E-002  0.1835858E+03  0.7546771E-02  0.1067594E+00
        -11   -1    0    0    0    0  0.00000000000E+00  0.00000000000E+00  0.18250000000E+03  0.18250000000E+03  0.00000000000E+00 0.  1.
         11   -1    0    0    0    0 -0.00000000000E+00 -0.00000000000E+00 -0.18250000000E+03  0.18250000000E+03  0.00000000000E+00 0. -1.
        -11    1    1    2    0    0  0.30110756018E+01  0.81404597925E+01  0.65910109103E+02  0.66479140667E+02  0.00000000000E+00 0.  1.
         11    1    1    2    0    0  0.45240355833E+01  0.23472070709E+01 -0.18134257287E+03  0.18141418085E+03  0.00000000000E+00 0. -1.
        -15    1    1    2    0    0 -0.61151522992E+01  0.22719445773E+01  0.41285423001E+02  0.41835400096E+02  0.17770000000E+01 0. -1.
         15    1    1    2    0    0 -0.14199588859E+01 -0.12759611441E+02  0.74147040762E+02  0.75271278388E+02  0.17770000000E+01 0.  1.
</event>
<event>
 6    1  0.1097339E-002  0.1877422E+03  0.7546771E-02  0.1064357E+00
        -11   -1    0    0    0    0  0.00000000000E+00  0.00000000000E+00  0.18250000000E+03  0.18250000000E+03  0.00000000000E+00 0. -1.
         11   -1    0    0    0    0 -0.00000000000E+00 -0.00000000000E+00 -0.18250000000E+03  0.18250000000E+03  0.00000000000E+00 0. -1.
        -11    1    1    2    0    0  0.20929092423E+01  0.12942700030E+02  0.17677224963E+03  0.17725778401E+03  0.00000000000E+00 0. -1.
         11    1    1    2    0    0  0.30662428628E+01 -0.29858726081E+01 -0.16458884907E+03  0.16464448524E+03  0.00000000000E+00 0. -1.
        -15    1    1    2    0    0  0.22535927538E+01 -0.39590464721E+01  0.25062699107E+01  0.54947108326E+01  0.17770000000E+01 0.  1.
         15    1    1    2    0    0 -0.74127448589E+01 -0.59977809496E+01 -0.14689670469E+02  0.17603019915E+02  0.17770000000E+01 0. -1.
</event>
<event>
 6    1  0.1097339E-002  0.1827962E+03  0.7546771E-02  0.1068219E+00
        -11   -1    0    0    0    0  0.00000000000E+00  0.00000000000E+00  0.18250000000E+03  0.18250000000E+03  0.00000000000E+00 0. -1.
         11   -1    0    0    0    0 -0.00000000000E+00 -0.00000000000E+00 -0.18250000000E+03  0.18250000000E+03  0.00000000000E+00 0.  1.
        -11    1    1    2    0    0 -0.13176074359E+01  0.16031870459E+01  0.99577183549E+02  0.99598804118E+02  0.00000000000E+00 0. -1.
         11    1    1    2    0    0  0.19622431927E+01 -0.39308047801E+01 -0.18215087082E+03  0.18220384564E+03  0.00000000000E+00 0.  1.
        -15    1    1    2    0    0 -0.22597026569E+01  0.48345209903E+01  0.30940087602E+02  0.31447187460E+02  0.17770000000E+01 0.  1.
         15    1    1    2    0    0  0.16150669000E+01 -0.25069032561E+01  0.51633599666E+02  0.51750162787E+02  0.17770000000E+01 0.  1.
</event>
<event>
 6    1  0.1097339E-002  0.1836876E+03  0.7546771E-02  0.1067513E+00
        -11   -1    0    0    0    0  0.00000000000E+00  0.00000000000E+00  0.18250000000E+03  0.18250000000E+03  0.00000000000E+00 0. -1.
         11   -1    0    0    0    0 -0.00000000000E+00 -0.00000000000E+00 -0.18250000000E+03  0.18250000000E+03  0.00000000000E+00 0. -1.
        -11    1    1    2    0    0  0.38074348456E+01  0.11460563435E+01  0.18126881671E+03  0.18131242074E+03  0.00000000000E+00 0. -1.
         11    1    1    2    0    0  0.21354594751E+01 -0.16833854888E+01 -0.16773401535E+03  0.16775605467E+03  0.00000000000E+00 0. -1.
        -15    1    1    2    0    0 -0.18070776903E+00  0.13530960736E+01 -0.27376079560E+01  0.35377606763E+01  0.17770000000E+01 0.  1.
         15    1    1    2    0    0 -0.57621865516E+01 -0.81576692826E+00 -0.10797193398E+02  0.12393763908E+02  0.17770000000E+01 0.  1.
</event>
<event>
 6    1  0.1097339E-002  0.1836859E+03  0.7546771E-02  0.1067515E+00
        -11   -1    0    0    0    0  0.00000000000E+00  0.00000000000E+00  0.18250000000E+03  0.18250000000E+03  0.00000000000E+00 0.  1.
         11   -1    0    0    0    0 -0.00000000000E+00 -0.00000000000E+00 -0.18250000000E+03  0.18250000000E+03  0.00000000000E+00 0. -1.
        -11    1    1    2    0    0 -0.31989211892E+00 -0.23370561458E+01  0.15755675992E+03  0.15757441658E+03  0.00000000000E+00 0.  1.
         11    1    1    2    0    0  0.61568721328E+00  0.30429979832E+01 -0.18128750011E+03  0.18131408275E+03  0.00000000000E+00 0. -1.
        -15    1    1    2    0    0 -0.21387938209E+01  0.28007194970E+01  0.20004102928E+02  0.20389711416E+02  0.17770000000E+01 0. -1.
         15    1    1    2    0    0  0.18429987266E+01 -0.35066613345E+01  0.37266372597E+01  0.57217892557E+01  0.17770000000E+01 0.  1.
</event>
<event>
 6    1  0.1097339E-002  0.1859668E+03  0.7546771E-02  0.1065728E+00
        -11   -1    0    0    0    0  0.00000000000E+00  0.00000000000E+00  0.18250000000E+03  0.18250000000E+03  0.00000000000E+00 0. -1.
         11   -1    0    0    0    0 -0.00000000000E+00 -0.00000000000E+00 -0.18250000000E+03  0.18250000000E+03  0.00000000000E+00 0. -1.
        -11    1    1    2    0    0 -0.44821057558E+01  0.47083144389E+00  0.17897645095E+03  0.17903318393E+03  0.00000000000E+00 0. -1.
         11    1    1    2    0    0 -0.22499602642E+00 -0.18913265050E+01 -0.58407649118E+02  0.58438696209E+02  0.00000000000E+00 0. -1.
        -15    1    1    2    0    0  0.70127069658E+01  0.20192751002E+02 -0.78337008915E+02  0.81220502010E+02  0.17770000000E+01 0. -1.
         15    1    1    2    0    0 -0.23056051836E+01 -0.18772255940E+02 -0.42231792919E+02  0.46307617846E+02  0.17770000000E+01 0.  1.
</event>
<event>
 6    1  0.1097339E-002  0.1902020E+03  0.7546771E-02  0.1062484E+00
        -11   -1    0    0    0    0  0.00000000000E+00  0.00000000000E+00  0.18250000000E+03  0.18250000000E+03  0.00000000000E+00 0. -1.
         11   -1    0    0    0    0 -0.00000000000E+00 -0.00000000000E+00 -0.18250000000E+03  0.18250000000E+03  0.00000000000E+00 0. -1.
        -11    1    1    2    0    0 -0.42326340601E+01  0.13113773216E+01  0.17474178583E+03  0.17479795941E+03  0.00000000000E+00 0. -1.
         11    1    1    2    0    0  0.33019564615E+01 -0.48376963409E+01 -0.59097332526E+02  0.59386875099E+02  0.00000000000E+00 0. -1.
        -15    1    1    2    0    0 -0.86381409454E+01  0.34622637639E+01 -0.11984201640E+03  0.12021593644E+03  0.17770000000E+01 0. -1.
         15    1    1    2    0    0  0.95688185440E+01  0.64055255377E-01  0.41975631025E+01  0.10599229048E+02  0.17770000000E+01 0.  1.
</event>
<event>
 6    1  0.1097339E-002  0.1851963E+03  0.7546771E-02  0.1066329E+00
        -11   -1    0    0    0    0  0.00000000000E+00  0.00000000000E+00  0.18250000000E+03  0.18250000000E+03  0.00000000000E+00 0.  1.
         11   -1    0    0    0    0 -0.00000000000E+00 -0.00000000000E+00 -0.18250000000E+03  0.18250000000E+03  0.00000000000E+00 0.  1.
        -11    1    1    2    0    0 -0.17667393214E+01 -0.32293876534E-02  0.12962173738E+03  0.12963377715E+03  0.00000000000E+00 0.  1.
         11    1    1    2    0    0 -0.26212186015E+01 -0.31597031803E+00 -0.17978435936E+03  0.17980374439E+03  0.00000000000E+00 0.  1.
        -15    1    1    2    0    0 -0.89706903784E+01 -0.12737757304E+01  0.28894362612E+02  0.30333771777E+02  0.17770000000E+01 0.  1.
         15    1    1    2    0    0  0.13358648301E+02  0.15929754360E+01  0.21268259372E+02  0.25228706683E+02  0.17770000000E+01 0.  1.
</event>
<event>
 6    1  0.1097339E-002  0.1697901E+03  0.7546771E-02  0.1079047E+00
        -11   -1    0    0    0    0  0.00000000000E+00  0.00000000000E+00  0.18250000000E+03  0.18250000000E+03  0.00000000000E+00 0.  1.
         11   -1    0    0    0    0 -0.00000000000E+00 -0.00000000000E+00 -0.18250000000E+03  0.18250000000E+03  0.00000000000E+00 0.  1.
        -11    1    1    2    0    0  0.59105496857E+01  0.26365997946E+01  0.17054949167E+03  0.17067224545E+03  0.00000000000E+00 0.  1.
         11    1    1    2    0    0 -0.29640365238E+01  0.15328153714E+01 -0.16891739146E+03  0.16895034825E+03  0.00000000000E+00 0.  1.
        -15    1    1    2    0    0  0.44090833555E+01 -0.10316601301E+01 -0.11538917220E+02  0.12522327191E+02  0.17770000000E+01 0. -1.
         15    1    1    2    0    0 -0.73555965174E+01 -0.31377550359E+01  0.99068170062E+01  0.12855079112E+02  0.17770000000E+01 0. -1.
</event>
<event>
 6    1  0.1097339E-002  0.1829108E+03  0.7546771E-02  0.1068128E+00
        -11   -1    0    0    0    0  0.00000000000E+00  0.00000000000E+00  0.18250000000E+03  0.18250000000E+03  0.00000000000E+00 0.  1.
         11   -1    0    0    0    0 -0.00000000000E+00 -0.00000000000E+00 -0.18250000000E+03  0.18250000000E+03  0.00000000000E+00 0. -1.
        -11    1    1    2    0    0  0.26779375140E+01  0.74812086838E+01  0.18191569884E+03  0.18208915760E+03  0.00000000000E+00 0.  1.
         11    1    1    2    0    0 -0.36946192989E+00  0.96302676461E+00 -0.26767517288E+02  0.26787383306E+02  0.00000000000E+00 0. -1.
        -15    1    1    2    0    0 -0.21719792177E+01 -0.16573642436E+01 -0.61506512979E+01  0.69607894915E+01  0.17770000000E+01 0.  1.
         15    1    1    2    0    0 -0.13649636643E+00 -0.67868712048E+01 -0.14899753025E+03  0.14916266960E+03  0.17770000000E+01 0. -1.
</event>
<event>
 6    1  0.1097339E-002  0.1840247E+03  0.7546771E-02  0.1067248E+00
        -11   -1    0    0    0    0  0.00000000000E+00  0.00000000000E+00  0.18250000000E+03  0.18250000000E+03  0.00000000000E+00 0. -1.
         11   -1    0    0    0    0 -0.00000000000E+00 -0.00000000000E+00 -0.18250000000E+03  0.18250000000E+03  0.00000000000E+00 0. -1.
        -11    1    1    2    0    0  0.38297818201E+01 -0.20288099747E+01  0.18092341335E+03  0.18097531543E+03  0.00000000000E+00 0. -1.
         11    1    1    2    0    0  0.22256289329E+01 -0.56908057750E+00 -0.13955127672E+03  0.13957018346E+03  0.00000000000E+00 0. -1.
        -15    1    1    2    0    0 -0.34702369159E+01  0.76135048508E+00 -0.12448183783E+01  0.41628716781E+01  0.17770000000E+01 0.  1.
         15    1    1    2    0    0 -0.25851738371E+01  0.18365400671E+01 -0.40127318246E+02  0.40291629426E+02  0.17770000000E+01 0. -1.
</event>
<event>
 6    1  0.1097339E-002  0.1838981E+03  0.7546771E-02  0.1067347E+00
        -11   -1    0    0    0    0  0.00000000000E+00  0.00000000000E+00  0.18250000000E+03  0.18250000000E+03  0.00000000000E+00 0. -1.
         11   -1    0    0    0    0 -0.00000000000E+00 -0.00000000000E+00 -0.18250000000E+03  0.18250000000E+03  0.00000000000E+00 0. -1.
        -11    1    1    2    0    0  0.25585041486E+01 -0.11579115185E+01  0.18108013349E+03  0.18110190901E+03  0.00000000000E+00 0. -1.
         11    1    1    2    0    0 -0.19684020924E+01  0.34699314669E+01 -0.11682265665E+03  0.11689075300E+03  0.00000000000E+00 0. -1.
        -15    1    1    2    0    0  0.25623418133E+01 -0.58126282003E+01 -0.60147101709E+02  0.60507716989E+02  0.17770000000E+01 0. -1.
         15    1    1    2    0    0 -0.31524438694E+01  0.35006082519E+01 -0.41103751278E+01  0.64996210024E+01  0.17770000000E+01 0.  1.
</event>
<event>
 6    1  0.1097339E-002  0.1842443E+03  0.7546771E-02  0.1067075E+00
        -11   -1    0    0    0    0  0.00000000000E+00  0.00000000000E+00  0.18250000000E+03  0.18250000000E+03  0.00000000000E+00 0. -1.
         11   -1    0    0    0    0 -0.00000000000E+00 -0.00000000000E+00 -0.18250000000E+03  0.18250000000E+03  0.00000000000E+00 0. -1.
        -11    1    1    2    0    0  0.26187171086E+01  0.28172944078E+01  0.16713434987E+03  0.16717860429E+03  0.00000000000E+00 0. -1.
         11    1    1    2    0    0  0.16862252455E+00 -0.34961880191E+01 -0.18072176408E+03  0.18075565766E+03  0.00000000000E+00 0. -1.
        -15    1    1    2    0    0 -0.10279892717E+01 -0.20606895236E+00 -0.96200602164E+00  0.22764909272E+01  0.17770000000E+01 0.  1.
         15    1    1    2    0    0 -0.17593503614E+01  0.88496256367E+00  0.14549420228E+02  0.14789247121E+02  0.17770000000E+01 0. -1.
</event>
<event>
 6    1  0.1097339E-002  0.1828496E+03  0.7546771E-02  0.1068177E+00
        -11   -1    0    0    0    0  0.00000000000E+00  0.00000000000E+00  0.18250000000E+03  0.18250000000E+03  0.00000000000E+00 0.  1.
         11   -1    0    0    0    0 -0.00000000000E+00 -0.00000000000E+00 -0.18250000000E+03  0.18250000000E+03  0.00000000000E+00 0.  1.
        -11    1    1    2    0    0  0.53727050514E+00  0.39160025513E+01  0.18210753754E+03  0.18215042949E+03  0.00000000000E+00 0.  1.
         11    1    1    2    0    0  0.91433183767E+00  0.23583460429E+01 -0.57993830399E+02  0.58048963497E+02  0.00000000000E+00 0.  1.
        -15    1    1    2    0    0 -0.16603946250E+00  0.30050665854E+01 -0.28868247458E+02  0.29079054912E+02  0.17770000000E+01 0.  1.
         15    1    1    2    0    0 -0.12855628803E+01 -0.92794151796E+01 -0.95245459681E+02  0.95721552102E+02  0.17770000000E+01 0.  1.
</event>
<event>
 6    1  0.1097339E-002  0.1865449E+03  0.7546771E-02  0.1065280E+00
        -11   -1    0    0    0    0  0.00000000000E+00  0.00000000000E+00  0.18250000000E+03  0.18250000000E+03  0.00000000000E+00 0.  1.
         11   -1    0    0    0    0 -0.00000000000E+00 -0.00000000000E+00 -0.18250000000E+03  0.18250000000E+03  0.00000000000E+00 0.  1.
        -11    1    1    2    0    0  0.55324471613E+01 -0.65124502405E+01  0.87159924448E+02  0.87577807746E+02  0.00000000000E+00 0.  1.
         11    1    1    2    0    0  0.28088028847E+01 -0.24033076572E+01 -0.17841677543E+03  0.17845506722E+03  0.00000000000E+00 0.  1.
        -15    1    1    2    0    0  0.72688365606E-01 -0.86393844792E+01  0.68071710209E+02  0.68640802061E+02  0.17770000000E+01 0. -1.
         15    1    1    2    0    0 -0.84139384115E+01  0.17555142377E+02  0.23185140773E+02  0.30326322974E+02  0.17770000000E+01 0. -1.
</event>
<event>
 6    1  0.1097339E-002  0.1830308E+03  0.7546771E-02  0.1068033E+00
        -11   -1    0    0    0    0  0.00000000000E+00  0.00000000000E+00  0.18250000000E+03  0.18250000000E+03  0.00000000000E+00 0. -1.
         11   -1    0    0    0    0 -0.00000000000E+00 -0.00000000000E+00 -0.18250000000E+03  0.18250000000E+03  0.00000000000E+00 0. -1.
        -11    1    1    2    0    0 -0.62824414675E+01 -0.14562294258E+01  0.16105436076E+03  0.16118342593E+03  0.00000000000E+00 0. -1.
         11    1    1    2    0    0  0.49834952535E+01  0.94441766004E+00 -0.18189853343E+03  0.18196923810E+03  0.00000000000E+00 0. -1.
        -15    1    1    2    0    0  0.24742145680E+01  0.56129956198E+00  0.18149047619E+02  0.18411476133E+02  0.17770000000E+01 0.  1.
         15    1    1    2    0    0 -0.11752683540E+01 -0.49487796191E-01  0.26951250574E+01  0.34358598372E+01  0.17770000000E+01 0. -1.
</event>
<event>
 6    1  0.1097339E-002  0.1890796E+03  0.7546771E-02  0.1063335E+00
        -11   -1    0    0    0    0  0.00000000000E+00  0.00000000000E+00  0.18250000000E+03  0.18250000000E+03  0.00000000000E+00 0. -1.
         11   -1    0    0    0    0 -0.00000000000E+00 -0.00000000000E+00 -0.18250000000E+03  0.18250000000E+03  0.00000000000E+00 0.  1.
        -11    1    1    2    0    0  0.36940912524E+01 -0.78948783660E+01  0.17570430342E+03  0.17592037305E+03  0.00000000000E+00 0. -1.
         11    1    1    2    0    0  0.77361512650E+01 -0.16032766719E+00 -0.16352521569E+03  0.16370818522E+03  0.00000000000E+00 0.  1.
        -15    1    1    2    0    0 -0.27438555280E+01 -0.35746766363E+01 -0.92720819884E+01  0.10461180125E+02  0.17770000000E+01 0.  1.
         15    1    1    2    0    0 -0.86863869894E+01  0.11629882669E+02 -0.29070057406E+01  0.14910261608E+02  0.17770000000E+01 0. -1.
</event>
<event>
 6    1  0.1097339E-002  0.1834485E+03  0.7546771E-02  0.1067702E+00
        -11   -1    0    0    0    0  0.00000000000E+00  0.00000000000E+00  0.18250000000E+03  0.18250000000E+03  0.00000000000E+00 0.  1.
         11   -1    0    0    0    0 -0.00000000000E+00 -0.00000000000E+00 -0.18250000000E+03  0.18250000000E+03  0.00000000000E+00 0. -1.
        -11    1    1    2    0    0  0.41482812745E+01  0.60318234252E+00  0.18150307426E+03  0.18155147488E+03  0.00000000000E+00 0.  1.
         11    1    1    2    0    0  0.48940198189E+01 -0.39049341878E+01 -0.14444958026E+03  0.14458520387E+03  0.00000000000E+00 0. -1.
        -15    1    1    2    0    0 -0.28225607717E+01 -0.12284202245E+01 -0.15672858780E+02  0.16070846179E+02  0.17770000000E+01 0.  1.
         15    1    1    2    0    0 -0.62197403217E+01  0.45301720698E+01 -0.21380635218E+02  0.22792475074E+02  0.17770000000E+01 0. -1.
</event>
<event>
 6    1  0.1097339E-002  0.1844552E+03  0.7546771E-02  0.1066909E+00
        -11   -1    0    0    0    0  0.00000000000E+00  0.00000000000E+00  0.18250000000E+03  0.18250000000E+03  0.00000000000E+00 0. -1.
         11   -1    0    0    0    0 -0.00000000000E+00 -0.00000000000E+00 -0.18250000000E+03  0.18250000000E+03  0.00000000000E+00 0.  1.
        -11    1    1    2    0    0 -0.13903182444E+01  0.50501470754E+01  0.15116042272E+03  0.15125114997E+03  0.00000000000E+00 0. -1.
         11    1    1    2    0    0  0.23511286490E+01  0.25855504117E+01 -0.18051094368E+03  0.18054476915E+03  0.00000000000E+00 0.  1.
        -15    1    1    2    0    0  0.69973964932E+00 -0.25175009329E+01 -0.15073087227E+00  0.31635257736E+01  0.17770000000E+01 0.  1.
         15    1    1    2    0    0 -0.16605500539E+01 -0.51181965541E+01  0.29501251832E+02  0.30040555107E+02  0.17770000000E+01 0. -1.
</event>
<event>
 6    1  0.1097339E-002  0.1743371E+03  0.7546771E-02  0.1075145E+00
        -11   -1    0    0    0    0  0.00000000000E+00  0.00000000000E+00  0.18250000000E+03  0.18250000000E+03  0.00000000000E+00 0.  1.
         11   -1    0    0    0    0 -0.00000000000E+00 -0.00000000000E+00 -0.18250000000E+03  0.18250000000E+03  0.00000000000E+00 0. -1.
        -11    1    1    2    0    0 -0.15601546371E+01 -0.23248321262E+01  0.17467854369E+03  0.17470098040E+03  0.00000000000E+00 0.  1.
         11    1    1    2    0    0  0.62101855250E+00  0.34326894963E+01 -0.17394202432E+03  0.17397700091E+03  0.00000000000E+00 0. -1.
        -15    1    1    2    0    0  0.26336115733E+01 -0.62883171097E+01 -0.54443648055E+01  0.89038013862E+01  0.17770000000E+01 0. -1.
         15    1    1    2    0    0 -0.16944754886E+01  0.51804597395E+01  0.47078454422E+01  0.74182173062E+01  0.17770000000E+01 0.  1.
</event>
<event>
 6    1  0.1097339E-002  0.1837136E+03  0.7546771E-02  0.1067493E+00
        -11   -1    0    0    0    0  0.00000000000E+00  0.00000000000E+00  0.18250000000E+03  0.18250000000E+03  0.00000000000E+00 0. -1.
         11   -1    0    0    0    0 -0.00000000000E+00 -0.00000000000E+00 -0.18250000000E+03  0.18250000000E+03  0.00000000000E+00 0. -1.
        -11    1    1    2    0    0  0.24560293208E+01  0.17177458217E+01  0.18126165915E+03  0.18128643581E+03  0.00000000000E+00 0. -1.
         11    1    1    2    0    0 -0.48119814622E+00 -0.51125331805E+01 -0.13721487863E+03  0.13731093352E+03  0.00000000000E+00 0. -1.
        -15    1    1    2    0    0  0.50685324344E+00  0.50261890554E+01 -0.42085069028E+02  0.42424406192E+02  0.17770000000E+01 0.  1.
         15    1    1    2    0    0 -0.24816844180E+01 -0.16314016966E+01 -0.19617114863E+01  0.39782244786E+01  0.17770000000E+01 0.  1.
</event>
<event>
 6    1  0.1097339E-002  0.1828461E+03  0.7546771E-02  0.1068180E+00
        -11   -1    0    0    0    0  0.00000000000E+00  0.00000000000E+00  0.18250000000E+03  0.18250000000E+03  0.00000000000E+00 0.  1.
         11   -1    0    0    0    0 -0.00000000000E+00 -0.00000000000E+00 -0.18250000000E+03  0.18250000000E+03  0.00000000000E+00 0. -1.
        -11    1    1    2    0    0 -0.28099412363E+00 -0.10579330650E+02  0.18184618305E+03  0.18215387859E+03  0.00000000000E+00 0.  1.
         11    1    1    2    0    0  0.58868049024E+00  0.47170845487E+00 -0.34914063585E+02  0.34922211981E+02  0.00000000000E+00 0. -1.
        -15    1    1    2    0    0  0.40589304721E+01  0.56618716207E+01 -0.12030567766E+03  0.12052031162E+03  0.17770000000E+01 0. -1.
         15    1    1    2    0    0 -0.43666168387E+01  0.44457505749E+01 -0.26626441805E+02  0.27403597811E+02  0.17770000000E+01 0.  1.
</event>
<event>
 6    1  0.1097339E-002  0.9648960E+02  0.7546771E-02  0.1170031E+00
        -11   -1    0    0    0    0  0.00000000000E+00  0.00000000000E+00  0.18250000000E+03  0.18250000000E+03  0.00000000000E+00 0. -1.
         11   -1    0    0    0    0 -0.00000000000E+00 -0.00000000000E+00 -0.18250000000E+03  0.18250000000E+03  0.00000000000E+00 0.  1.
        -11    1    1    2    0    0 -0.64914572553E+01  0.26008461403E+01  0.15674426257E+03  0.15690018249E+03  0.00000000000E+00 0. -1.
         11    1    1    2    0    0 -0.82620379874E+01  0.19915130404E+02 -0.77584692770E+02  0.80524892071E+02  0.00000000000E+00 0.  1.
        -15    1    1    2    0    0 -0.40898445540E+02 -0.36189697123E+01 -0.36015487211E+02  0.54644787833E+02  0.17770000000E+01 0. -1.
         15    1    1    2    0    0  0.55651940782E+02 -0.18897006832E+02 -0.43144082585E+02  0.72930137606E+02  0.17770000000E+01 0.  1.
</event>
<event>
 6    1  0.1097339E-002  0.1696318E+03  0.7546771E-02  0.1079186E+00
        -11   -1    0    0    0    0  0.00000000000E+00  0.00000000000E+00  0.18250000000E+03  0.18250000000E+03  0.00000000000E+00 0.  1.
         11   -1    0    0    0    0 -0.00000000000E+00 -0.00000000000E+00 -0.18250000000E+03  0.18250000000E+03  0.00000000000E+00 0. -1.
        -11    1    1    2    0    0 -0.37018302684E+01  0.16787183168E+01  0.17220222633E+03  0.17225019128E+03  0.00000000000E+00 0.  1.
         11    1    1    2    0    0 -0.60204838618E+01  0.10450040896E+02 -0.16697458141E+03  0.16740955892E+03  0.00000000000E+00 0. -1.
        -15    1    1    2    0    0  0.79441909704E+00 -0.78770024207E+01 -0.11064541873E+02  0.13720790236E+02  0.17770000000E+01 0. -1.
         15    1    1    2    0    0  0.89278950332E+01 -0.42517567923E+01  0.58368969474E+01  0.11619459562E+02  0.17770000000E+01 0.  1.
</event>
<event>
 6    1  0.1097339E-002  0.1829617E+03  0.7546771E-02  0.1068088E+00
        -11   -1    0    0    0    0  0.00000000000E+00  0.00000000000E+00  0.18250000000E+03  0.18250000000E+03  0.00000000000E+00 0. -1.
         11   -1    0    0    0    0 -0.00000000000E+00 -0.00000000000E+00 -0.18250000000E+03  0.18250000000E+03  0.00000000000E+00 0.  1.
        -11    1    1    2    0    0  0.82406450242E+01  0.32397849605E+01  0.18182278615E+03  0.18203826521E+03  0.00000000000E+00 0. -1.
         11    1    1    2    0    0 -0.92739619278E+00  0.18975251982E-01 -0.64570081687E+02  0.64576744055E+02  0.00000000000E+00 0.  1.
        -15    1    1    2    0    0 -0.79371863554E+00 -0.73448686544E+01 -0.38884293923E+02  0.39619731545E+02  0.17770000000E+01 0. -1.
         15    1    1    2    0    0 -0.65195301959E+01  0.40861084419E+01 -0.78368410539E+02  0.78765259192E+02  0.17770000000E+01 0.  1.
</event>
<event>
 6    1  0.1097339E-002  0.1503361E+03  0.7546771E-02  0.1097398E+00
        -11   -1    0    0    0    0  0.00000000000E+00  0.00000000000E+00  0.18250000000E+03  0.18250000000E+03  0.00000000000E+00 0.  1.
         11   -1    0    0    0    0 -0.00000000000E+00 -0.00000000000E+00 -0.18250000000E+03  0.18250000000E+03  0.00000000000E+00 0. -1.
        -11    1    1    2    0    0  0.17673640992E+01 -0.24014910399E+01  0.15260857185E+03  0.15263769828E+03  0.00000000000E+00 0.  1.
         11    1    1    2    0    0 -0.41013669827E+01  0.18764830631E+02 -0.14728840332E+03  0.14853556420E+03  0.00000000000E+00 0. -1.
        -15    1    1    2    0    0  0.44730152538E+01 -0.17575723442E+02 -0.32080580928E+02  0.36894922709E+02  0.17770000000E+01 0.  1.
         15    1    1    2    0    0 -0.21390123702E+01  0.12123838504E+01  0.26760412399E+02  0.26931814816E+02  0.17770000000E+01 0.  1.
</event>
<event>
 6    1  0.1097339E-002  0.1748517E+03  0.7546771E-02  0.1074711E+00
        -11   -1    0    0    0    0  0.00000000000E+00  0.00000000000E+00  0.18250000000E+03  0.18250000000E+03  0.00000000000E+00 0. -1.
         11   -1    0    0    0    0 -0.00000000000E+00 -0.00000000000E+00 -0.18250000000E+03  0.18250000000E+03  0.00000000000E+00 0.  1.
        -11    1    1    2    0    0 -0.38715051830E+01 -0.75087737818E+00  0.17341253768E+03  0.17345737399E+03  0.00000000000E+00 0. -1.
         11    1    1    2    0    0  0.76609487122E+00 -0.31247413762E+01 -0.17626347438E+03  0.17629283398E+03  0.00000000000E+00 0.  1.
        -15    1    1    2    0    0  0.65563130067E+01  0.32294180326E+01  0.64566489820E+01  0.99126397164E+01  0.17770000000E+01 0.  1.
         15    1    1    2    0    0 -0.34509026949E+01  0.64620072176E+00 -0.36057122788E+01  0.53371523137E+01  0.17770000000E+01 0. -1.
</event>
<event>
 6    1  0.1097339E-002  0.1851577E+03  0.7546771E-02  0.1066359E+00
        -11   -1    0    0    0    0  0.00000000000E+00  0.00000000000E+00  0.18250000000E+03  0.18250000000E+03  0.00000000000E+00 0.  1.
         11   -1    0    0    0    0 -0.00000000000E+00 -0.00000000000E+00 -0.18250000000E+03  0.18250000000E+03  0.00000000000E+00 0. -1.
        -11    1    1    2    0    0  0.24409014607E+01 -0.11467714055E+01  0.13417007995E+03  0.13419718118E+03  0.00000000000E+00 0.  1.
         11    1    1    2    0    0  0.34194807744E+01 -0.43655968256E+00 -0.17980922115E+03  0.17984226267E+03  0.00000000000E+00 0. -1.
        -15    1    1    2    0    0 -0.55253272541E+01  0.50990156130E+01  0.32402086664E+01  0.83777015158E+01  0.17770000000E+01 0.  1.
         15    1    1    2    0    0 -0.33505498092E+00 -0.35156845250E+01  0.42398932534E+02  0.42582854632E+02  0.17770000000E+01 0. -1.
</event>
<event>
 6    1  0.1097339E-002  0.1827563E+03  0.7546771E-02  0.1068251E+00
        -11   -1    0    0    0    0  0.00000000000E+00  0.00000000000E+00  0.18250000000E+03  0.18250000000E+03  0.00000000000E+00 0. -1.
         11   -1    0    0    0    0 -0.00000000000E+00 -0.00000000000E+00 -0.18250000000E+03  0.18250000000E+03  0.00000000000E+00 0.  1.
        -11    1    1    2    0    0  0.15679661963E+01  0.58895923603E+01  0.18214177286E+03  0.18224371384E+03  0.00000000000E+00 0. -1.
         11    1    1    2    0    0  0.22938420681E+01  0.11109835941E+01 -0.10194569488E+03  0.10197754998E+03  0.00000000000E+00 0.  1.
        -15    1    1    2    0    0 -0.17301916869E+01 -0.19727574616E+01 -0.45532942462E+02  0.45643092726E+02  0.17770000000E+01 0. -1.
         15    1    1    2    0    0 -0.21316165775E+01 -0.50278184928E+01 -0.34663135515E+02  0.35135643452E+02  0.17770000000E+01 0.  1.
</event>
<event>
 6    1  0.1097339E-002  0.1847665E+03  0.7546771E-02  0.1066665E+00
        -11   -1    0    0    0    0  0.00000000000E+00  0.00000000000E+00  0.18250000000E+03  0.18250000000E+03  0.00000000000E+00 0. -1.
         11   -1    0    0    0    0 -0.00000000000E+00 -0.00000000000E+00 -0.18250000000E+03  0.18250000000E+03  0.00000000000E+00 0.  1.
        -11    1    1    2    0    0 -0.45526583344E+01 -0.17756379238E+01  0.17465862506E+03  0.17472697243E+03  0.00000000000E+00 0. -1.
         11    1    1    2    0    0  0.30646517180E+01 -0.26138537047E+01 -0.18018852319E+03  0.18023353797E+03  0.00000000000E+00 0.  1.
        -15    1    1    2    0    0  0.60604752838E+00  0.27467912083E+01 -0.60875868631E+00  0.33823766329E+01  0.17770000000E+01 0. -1.
         15    1    1    2    0    0  0.88195908801E+00  0.16427004202E+01  0.61386568167E+01  0.66571129641E+01  0.17770000000E+01 0.  1.
</event>
<event>
 6    1  0.1097339E-002  0.1833886E+03  0.7546771E-02  0.1067750E+00
        -11   -1    0    0    0    0  0.00000000000E+00  0.00000000000E+00  0.18250000000E+03  0.18250000000E+03  0.00000000000E+00 0. -1.
         11   -1    0    0    0    0 -0.00000000000E+00 -0.00000000000E+00 -0.18250000000E+03  0.18250000000E+03  0.00000000000E+00 0.  1.
        -11    1    1    2    0    0  0.22740593291E+01 -0.44414897242E+01  0.18154285222E+03  0.18161141310E+03  0.00000000000E+00 0. -1.
         11    1    1    2    0    0 -0.59042750399E+01  0.26482822222E+01 -0.12150743925E+03  0.12167962712E+03  0.00000000000E+00 0.  1.
        -15    1    1    2    0    0  0.45652098256E+01  0.17104544539E+01 -0.59363634910E+02  0.59589979644E+02  0.17770000000E+01 0.  1.
         15    1    1    2    0    0 -0.93499411477E+00  0.82753048087E-01 -0.67177805142E+00  0.21189801349E+01  0.17770000000E+01 0. -1.
</event>
<event>
 6    1  0.1097339E-002  0.1880750E+03  0.7546771E-02  0.1064102E+00
        -11   -1    0    0    0    0  0.00000000000E+00  0.00000000000E+00  0.18250000000E+03  0.18250000000E+03  0.00000000000E+00 0. -1.
         11   -1    0    0    0    0 -0.00000000000E+00 -0.00000000000E+00 -0.18250000000E+03  0.18250000000E+03  0.00000000000E+00 0. -1.
        -11    1    1    2    0    0  0.26929149610E+01 -0.46964840336E+01  0.17007466823E+03  0.17016081079E+03  0.00000000000E+00 0. -1.
         11    1    1    2    0    0 -0.33006076879E+01  0.11119541372E+01 -0.17689074865E+03  0.17692503330E+03  0.00000000000E+00 0. -1.
        -15    1    1    2    0    0  0.65228391482E+01  0.46625948064E+01 -0.56231586313E+00  0.82317160430E+01  0.17770000000E+01 0. -1.
         15    1    1    2    0    0 -0.59151464213E+01 -0.10780649100E+01  0.73783962788E+01  0.96824398672E+01  0.17770000000E+01 0.  1.
</event>
<event>
 6    1  0.1097339E-002  0.1830380E+03  0.7546771E-02  0.1068027E+00
        -11   -1    0    0    0    0  0.00000000000E+00  0.00000000000E+00  0.18250000000E+03  0.18250000000E+03  0.00000000000E+00 0.  1.
         11   -1    0    0    0    0 -0.00000000000E+00 -0.00000000000E+00 -0.18250000000E+03  0.18250000000E+03  0.00000000000E+00 0.  1.
        -11    1    1    2    0    0 -0.51764898894E+01 -0.10590488170E+02  0.18157980198E+03  0.18196202619E+03  0.00000000000E+00 0.  1.
         11    1    1    2    0    0 -0.46122544272E+00  0.11065404350E+01 -0.85395440255E+02  0.85403854580E+02  0.00000000000E+00 0.  1.
        -15    1    1    2    0    0  0.35517672404E+01  0.11388163480E+02 -0.54606197083E+02  0.55922265752E+02  0.17770000000E+01 0. -1.
         15    1    1    2    0    0  0.20859480917E+01 -0.19042157452E+01 -0.41578164641E+02  0.41711853482E+02  0.17770000000E+01 0.  1.
</event>
<event>
 6    1  0.1097339E-002  0.1835041E+03  0.7546771E-02  0.1067658E+00
        -11   -1    0    0    0    0  0.00000000000E+00  0.00000000000E+00  0.18250000000E+03  0.18250000000E+03  0.00000000000E+00 0. -1.
         11   -1    0    0    0    0 -0.00000000000E+00 -0.00000000000E+00 -0.18250000000E+03  0.18250000000E+03  0.00000000000E+00 0.  1.
        -11    1    1    2    0    0 -0.28152969575E+01  0.40020867284E+01  0.18142993502E+03  0.18149590606E+03  0.00000000000E+00 0. -1.
         11    1    1    2    0    0  0.41014369952E+00 -0.23644117554E+01 -0.16754067592E+03  0.16755786090E+03  0.00000000000E+00 0.  1.
        -15    1    1    2    0    0  0.30979853289E+01 -0.22501406701E+01 -0.38635666747E+01  0.57223703641E+01  0.17770000000E+01 0. -1.
         15    1    1    2    0    0 -0.69283207100E+00  0.61246569711E+00 -0.10025692427E+02  0.10223862682E+02  0.17770000000E+01 0.  1.
</event>
<event>
 6    1  0.1097339E-002  0.1785210E+03  0.7546771E-02  0.1071667E+00
        -11   -1    0    0    0    0  0.00000000000E+00  0.00000000000E+00  0.18250000000E+03  0.18250000000E+03  0.00000000000E+00 0. -1.
         11   -1    0    0    0    0 -0.00000000000E+00 -0.00000000000E+00 -0.18250000000E+03  0.18250000000E+03  0.00000000000E+00 0.  1.
        -11    1    1    2    0    0  0.69553852079E+00 -0.33762724650E+01  0.17700806282E+03  0.17704162587E+03  0.00000000000E+00 0. -1.
         11    1    1    2    0    0 -0.41777809346E+01 -0.15681929855E+01 -0.18000884841E+03  0.18006415131E+03  0.00000000000E+00 0.  1.
        -15    1    1    2    0    0  0.13711762578E+01  0.29541569896E+01  0.24540115788E+01  0.44482659181E+01  0.17770000000E+01 0. -1.
         15    1    1    2    0    0  0.21110661560E+01  0.19903084609E+01  0.54677401311E+00  0.34459568926E+01  0.17770000000E+01 0.  1.
</event>
<event>
 6    1  0.1097339E-002  0.1828780E+03  0.7546771E-02  0.1068154E+00
        -11   -1    0    0    0    0  0.00000000000E+00  0.00000000000E+00  0.18250000000E+03  0.18250000000E+03  0.00000000000E+00 0.  1.
         11   -1    0    0    0    0 -0.00000000000E+00 -0.00000000000E+00 -0.18250000000E+03  0.18250000000E+03  0.00000000000E+00 0. -1.
        -11    1    1    2    0    0  0.90080330433E+00  0.51354687318E+01  0.18204736619E+03  0.18212201410E+03  0.00000000000E+00 0.  1.
         11    1    1    2    0    0 -0.31828622595E+01 -0.47203641041E+01 -0.13322368891E+03  0.13334528014E+03  0.00000000000E+00 0. -1.
        -15    1    1    2    0    0 -0.58469214854E+00  0.30086651882E+01 -0.20183310835E+02  0.20491893431E+02  0.17770000000E+01 0. -1.
         15    1    1    2    0    0  0.28667511037E+01 -0.34237698158E+01 -0.28640366441E+02  0.29040812325E+02  0.17770000000E+01 0. -1.
</event>
<event>
 6    1  0.1097339E-002  0.1894078E+03  0.7546771E-02  0.1063085E+00
        -11   -1    0    0    0    0  0.00000000000E+00  0.00000000000E+00  0.18250000000E+03  0.18250000000E+03  0.00000000000E+00 0. -1.
         11   -1    0    0    0    0 -0.00000000000E+00 -0.00000000000E+00 -0.18250000000E+03  0.18250000000E+03  0.00000000000E+00 0.  1.
        -11    1    1    2    0    0  0.40569203148E+01  0.14346588293E+01  0.17553945901E+03  0.17559219379E+03  0.00000000000E+00 0. -1.
         11    1    1    2    0    0  0.60971568854E+01  0.60993623813E+01 -0.15503688377E+03  0.15527656898E+03  0.00000000000E+00 0.  1.
        -15    1    1    2    0    0 -0.12092889818E+02 -0.12796781159E+02 -0.21828387105E+02  0.28100387983E+02  0.17770000000E+01 0.  1.
         15    1    1    2    0    0  0.19388126183E+01  0.52627599481E+01  0.13258118646E+01  0.60308492553E+01  0.17770000000E+01 0. -1.
</event>
<event>
 6    1  0.1097339E-002  0.1641236E+03  0.7546771E-02  0.1084103E+00
        -11   -1    0    0    0    0  0.00000000000E+00  0.00000000000E+00  0.18250000000E+03  0.18250000000E+03  0.00000000000E+00 0. -1.
         11   -1    0    0    0    0 -0.00000000000E+00 -0.00000000000E+00 -0.18250000000E+03  0.18250000000E+03  0.00000000000E+00 0.  1.
        -11    1    1    2    0    0 -0.51420400388E+01  0.10110935391E+01  0.16466741664E+03  0.16475078449E+03  0.00000000000E+00 0. -1.
         11    1    1    2    0    0  0.11416779063E+02 -0.54402900554E+01 -0.16310033938E+03  0.16358991505E+03  0.00000000000E+00 0.  1.
        -15    1    1    2    0    0  0.41304477971E+01 -0.38603270419E+01  0.14535161912E+02  0.15696859071E+02  0.17770000000E+01 0.  1.
         15    1    1    2    0    0 -0.10405186822E+02  0.82895235582E+01 -0.16102239172E+02  0.20962441388E+02  0.17770000000E+01 0. -1.
</event>
<event>
 6    1  0.1097339E-002  0.1848794E+03  0.7546771E-02  0.1066576E+00
        -11   -1    0    0    0    0  0.00000000000E+00  0.00000000000E+00  0.18250000000E+03  0.18250000000E+03  0.00000000000E+00 0. -1.
         11   -1    0    0    0    0 -0.00000000000E+00 -0.00000000000E+00 -0.18250000000E+03  0.18250000000E+03  0.00000000000E+00 0.  1.
        -11    1    1    2    0    0  0.33692898399E+01 -0.23312435988E+00  0.79185104267E+02  0.79257095574E+02  0.00000000000E+00 0. -1.
         11    1    1    2    0    0  0.82120627388E+01 -0.29725323721E+00 -0.17993305335E+03  0.18012059855E+03  0.00000000000E+00 0.  1.
        -15    1    1    2    0    0  0.66930171301E+01  0.71579850676E+01  0.17685310102E+02  0.20296826130E+02  0.17770000000E+01 0.  1.
         15    1    1    2    0    0 -0.18274369709E+02 -0.66276074705E+01  0.83062638985E+02  0.85325479742E+02  0.17770000000E+01 0. -1.
</event>
<event>
 6    1  0.1202895E-002  0.1830266E+03  0.7546771E-02  0.1068036E+00
        -11   -1    0    0    0    0  0.00000000000E+00  0.00000000000E+00  0.18250000000E+03  0.18250000000E+03  0.00000000000E+00 0.  1.
         11   -1    0    0    0    0 -0.00000000000E+00 -0.00000000000E+00 -0.18250000000E+03  0.18250000000E+03  0.00000000000E+00 0.  1.
        -11    1    1    2    0    0  0.25414780377E+01  0.68556880969E+00  0.18195439015E+03  0.18197342996E+03  0.00000000000E+00 0.  1.
         11    1    1    2    0    0  0.11530783260E+01 -0.13769787235E+01 -0.71286845047E+02  0.71309465969E+02  0.00000000000E+00 0.  1.
        -15    1    1    2    0    0 -0.10542816628E+01  0.15523480579E+01 -0.28427202065E+01  0.38418851479E+01  0.17770000000E+01 0. -1.
         15    1    1    2    0    0 -0.26402747010E+01 -0.86093814407E+00 -0.10782482490E+03  0.10787521893E+03  0.17770000000E+01 0.  1.
</event>
<event>
 6    1  0.1097339E-002  0.1828110E+03  0.7546771E-02  0.1068208E+00
        -11   -1    0    0    0    0  0.00000000000E+00  0.00000000000E+00  0.18250000000E+03  0.18250000000E+03  0.00000000000E+00 0.  1.
         11   -1    0    0    0    0 -0.00000000000E+00 -0.00000000000E+00 -0.18250000000E+03  0.18250000000E+03  0.00000000000E+00 0.  1.
        -11    1    1    2    0    0 -0.11744710045E+01  0.96389879268E+00  0.11226164124E+03  0.11227192247E+03  0.00000000000E+00 0.  1.
         11    1    1    2    0    0  0.62477170171E+01 -0.16731720199E+01 -0.18207420029E+03  0.18218904436E+03  0.00000000000E+00 0.  1.
        -15    1    1    2    0    0 -0.46535236178E+01  0.13866132024E+00  0.66698057820E+02  0.66883952896E+02  0.17770000000E+01 0.  1.
         15    1    1    2    0    0 -0.41972239476E+00  0.57061190696E+00  0.31145012370E+01  0.36550802717E+01  0.17770000000E+01 0.  1.
</event>
<event>
 6    1  0.1097339E-002  0.1826191E+03  0.7546771E-02  0.1068360E+00
        -11   -1    0    0    0    0  0.00000000000E+00  0.00000000000E+00  0.18250000000E+03  0.18250000000E+03  0.00000000000E+00 0.  1.
         11   -1    0    0    0    0 -0.00000000000E+00 -0.00000000000E+00 -0.18250000000E+03  0.18250000000E+03  0.00000000000E+00 0. -1.
        -11    1    1    2    0    0  0.75858090248E+00 -0.71002607207E+00  0.42669190878E+02  0.42681839606E+02  0.00000000000E+00 0.  1.
         11    1    1    2    0    0 -0.31287488599E+01  0.22525119686E+01 -0.18234014418E+03  0.18238089555E+03  0.00000000000E+00 0. -1.
        -15    1    1    2    0    0 -0.75358210097E+00 -0.24820174062E+01  0.23800730307E+02  0.24007515251E+02  0.17770000000E+01 0. -1.
         15    1    1    2    0    0  0.31237500584E+01  0.93953150971E+00  0.11587022300E+03  0.11592974959E+03  0.17770000000E+01 0.  1.
</event>
<event>
 6    1  0.1097339E-002  0.1835954E+03  0.7546771E-02  0.1067586E+00
        -11   -1    0    0    0    0  0.00000000000E+00  0.00000000000E+00  0.18250000000E+03  0.18250000000E+03  0.00000000000E+00 0.  1.
         11   -1    0    0    0    0 -0.00000000000E+00 -0.00000000000E+00 -0.18250000000E+03  0.18250000000E+03  0.00000000000E+00 0. -1.
        -11    1    1    2    0    0 -0.17796632101E+01 -0.13399606022E+01  0.12662611368E+03  0.12664570802E+03  0.00000000000E+00 0.  1.
         11    1    1    2    0    0  0.54875772340E+01 -0.31584503896E+01 -0.18129408344E+03  0.18140461407E+03  0.00000000000E+00 0. -1.
        -15    1    1    2    0    0  0.30864446805E+01  0.25946746294E+01  0.46535251734E+01  0.64087052310E+01  0.17770000000E+01 0. -1.
         15    1    1    2    0    0 -0.67943587044E+01  0.19037363625E+01  0.50014444592E+02  0.50540972677E+02  0.17770000000E+01 0.  1.
</event>
<event>
 6    1  0.1097339E-002  0.1851990E+03  0.7546771E-02  0.1066327E+00
        -11   -1    0    0    0    0  0.00000000000E+00  0.00000000000E+00  0.18250000000E+03  0.18250000000E+03  0.00000000000E+00 0.  1.
         11   -1    0    0    0    0 -0.00000000000E+00 -0.00000000000E+00 -0.18250000000E+03  0.18250000000E+03  0.00000000000E+00 0.  1.
        -11    1    1    2    0    0  0.49574066524E+01 -0.45820839942E+01  0.17967427343E+03  0.17980104534E+03  0.00000000000E+00 0.  1.
         11    1    1    2    0    0  0.14822960138E+00 -0.64289369040E+00 -0.17328200508E+02  0.17340755957E+02  0.00000000000E+00 0.  1.
        -15    1    1    2    0    0  0.30787156913E+01  0.23348692943E+01 -0.15787861365E+03  0.15793588725E+03  0.17770000000E+01 0.  1.
         15    1    1    2    0    0 -0.81843519451E+01  0.28901083903E+01 -0.44674592702E+01  0.99223114545E+01  0.17770000000E+01 0. -1.
</event>
<event>
 6    1  0.1097339E-002  0.1828315E+03  0.7546771E-02  0.1068191E+00
        -11   -1    0    0    0    0  0.00000000000E+00  0.00000000000E+00  0.18250000000E+03  0.18250000000E+03  0.00000000000E+00 0.  1.
         11   -1    0    0    0    0 -0.00000000000E+00 -0.00000000000E+00 -0.18250000000E+03  0.18250000000E+03  0.00000000000E+00 0. -1.
        -11    1    1    2    0    0  0.47986659341E+00 -0.17005606736E+01  0.13021628963E+03  0.13022827751E+03  0.00000000000E+00 0.  1.
         11    1    1    2    0    0 -0.11654854184E+01  0.27300244084E+01 -0.18214427915E+03  0.18216846549E+03  0.00000000000E+00 0. -1.
        -15    1    1    2    0    0  0.93896749755E-01  0.26184302888E+01  0.10345328255E+02  0.10818897332E+02  0.17770000000E+01 0.  1.
         15    1    1    2    0    0  0.59172207521E+00 -0.36478940235E+01  0.41582661272E+02  0.41784359673E+02  0.17770000000E+01 0. -1.
</event>
<event>
 6    1  0.1097339E-002  0.1845244E+03  0.7546771E-02  0.1066855E+00
        -11   -1    0    0    0    0  0.00000000000E+00  0.00000000000E+00  0.18250000000E+03  0.18250000000E+03  0.00000000000E+00 0.  1.
         11   -1    0    0    0    0 -0.00000000000E+00 -0.00000000000E+00 -0.18250000000E+03  0.18250000000E+03  0.00000000000E+00 0.  1.
        -11    1    1    2    0    0 -0.39353938086E+01 -0.56319929790E+00  0.18043178954E+03  0.18047558061E+03  0.00000000000E+00 0.  1.
         11    1    1    2    0    0 -0.50304207889E+01 -0.38699979652E+01 -0.14738569021E+03  0.14752228203E+03  0.00000000000E+00 0.  1.
        -15    1    1    2    0    0 -0.85150290848E+00 -0.19852520050E+00  0.19345326403E+00  0.19898800526E+01  0.17770000000E+01 0.  1.
         15    1    1    2    0    0  0.98173175060E+01  0.46317224636E+01 -0.33239552601E+02  0.35012257312E+02  0.17770000000E+01 0. -1.
</event>
<event>
 6    1  0.1097339E-002  0.1836575E+03  0.7546771E-02  0.1067537E+00
        -11   -1    0    0    0    0  0.00000000000E+00  0.00000000000E+00  0.18250000000E+03  0.18250000000E+03  0.00000000000E+00 0.  1.
         11   -1    0    0    0    0 -0.00000000000E+00 -0.00000000000E+00 -0.18250000000E+03  0.18250000000E+03  0.00000000000E+00 0. -1.
        -11    1    1    2    0    0  0.67177390470E+00 -0.39050130844E+01  0.17109769895E+03  0.17114357421E+03  0.00000000000E+00 0.  1.
         11    1    1    2    0    0 -0.32635006568E+01  0.30189807767E+01 -0.18128795086E+03  0.18134245451E+03  0.00000000000E+00 0. -1.
        -15    1    1    2    0    0  0.54165560370E+00  0.27744600361E+01  0.76440027717E+01  0.83414343286E+01  0.17770000000E+01 0. -1.
         15    1    1    2    0    0  0.20500711484E+01 -0.18884277284E+01  0.25462491383E+01  0.41725369589E+01  0.17770000000E+01 0. -1.
</event>
<event>
 6    1  0.1097339E-002  0.1841158E+03  0.7546771E-02  0.1067176E+00
        -11   -1    0    0    0    0  0.00000000000E+00  0.00000000000E+00  0.18250000000E+03  0.18250000000E+03  0.00000000000E+00 0.  1.
         11   -1    0    0    0    0 -0.00000000000E+00 -0.00000000000E+00 -0.18250000000E+03  0.18250000000E+03  0.00000000000E+00 0.  1.
        -11    1    1    2    0    0 -0.45238439064E+00  0.55204849978E+01  0.11978861951E+03  0.11991661174E+03  0.00000000000E+00 0.  1.
         11    1    1    2    0    0  0.35092491052E+01  0.62067825156E+01 -0.18074358517E+03  0.18088416890E+03  0.00000000000E+00 0.  1.
        -15    1    1    2    0    0 -0.35363460617E+01 -0.11090463262E+01  0.43443287545E+02  0.43637285536E+02  0.17770000000E+01 0. -1.
         15    1    1    2    0    0  0.47948134708E+00 -0.10618221187E+02  0.17511678110E+02  0.20561933829E+02  0.17770000000E+01 0.  1.
</event>
<event>
 6    1  0.1097339E-002  0.1832132E+03  0.7546771E-02  0.1067889E+00
        -11   -1    0    0    0    0  0.00000000000E+00  0.00000000000E+00  0.18250000000E+03  0.18250000000E+03  0.00000000000E+00 0.  1.
         11   -1    0    0    0    0 -0.00000000000E+00 -0.00000000000E+00 -0.18250000000E+03  0.18250000000E+03  0.00000000000E+00 0. -1.
        -11    1    1    2    0    0 -0.23095079549E+01  0.10867416656E+00  0.44354964399E+02  0.44415183259E+02  0.00000000000E+00 0.  1.
         11    1    1    2    0    0 -0.25489894840E+01 -0.12623199895E+01 -0.18176455470E+03  0.18178680960E+03  0.00000000000E+00 0. -1.
        -15    1    1    2    0    0  0.26888449302E+01 -0.10623036926E+01  0.13333377557E+03  0.13337695383E+03  0.17770000000E+01 0.  1.
         15    1    1    2    0    0  0.21696525088E+01  0.22159495155E+01  0.40758147349E+01  0.54210533126E+01  0.17770000000E+01 0.  1.
</event>
<event>
 6    1  0.1097339E-002  0.1860155E+03  0.7546771E-02  0.1065690E+00
        -11   -1    0    0    0    0  0.00000000000E+00  0.00000000000E+00  0.18250000000E+03  0.18250000000E+03  0.00000000000E+00 0.  1.
         11   -1    0    0    0    0 -0.00000000000E+00 -0.00000000000E+00 -0.18250000000E+03  0.18250000000E+03  0.00000000000E+00 0.  1.
        -11    1    1    2    0    0  0.39777777271E+01  0.73542209378E+01  0.16511506249E+03  0.16532661958E+03  0.00000000000E+00 0.  1.
         11    1    1    2    0    0  0.58288412743E+01 -0.93897048956E+00 -0.17888706992E+03  0.17898447095E+03  0.00000000000E+00 0.  1.
        -15    1    1    2    0    0 -0.85080375347E+01 -0.82104105051E+01  0.13166003400E+02  0.17784794570E+02  0.17770000000E+01 0.  1.
         15    1    1    2    0    0 -0.12985814668E+01  0.17951600569E+01  0.60600403509E+00  0.29041148989E+01  0.17770000000E+01 0. -1.
</event>
<event>
 6    1  0.1097339E-002  0.1850264E+03  0.7546771E-02  0.1066461E+00
        -11   -1    0    0    0    0  0.00000000000E+00  0.00000000000E+00  0.18250000000E+03  0.18250000000E+03  0.00000000000E+00 0.  1.
         11   -1    0    0    0    0 -0.00000000000E+00 -0.00000000000E+00 -0.18250000000E+03  0.18250000000E+03  0.00000000000E+00 0. -1.
        -11    1    1    2    0    0 -0.28414647672E+01 -0.94567629151E-01  0.17995112697E+03  0.17997358407E+03  0.00000000000E+00 0.  1.
         11    1    1    2    0    0  0.35776091455E+01 -0.37756243158E+01 -0.13919573172E+03  0.13929287977E+03  0.00000000000E+00 0. -1.
        -15    1    1    2    0    0  0.31977165432E+01 -0.57686480862E+01 -0.50388748305E+01  0.84882672195E+01  0.17770000000E+01 0.  1.
         15    1    1    2    0    0 -0.39338609215E+01  0.96388400311E+01 -0.35716520416E+02  0.37245268942E+02  0.17770000000E+01 0. -1.
</event>
<event>
 6    1  0.1097339E-002  0.1860129E+03  0.7546771E-02  0.1065692E+00
        -11   -1    0    0    0    0  0.00000000000E+00  0.00000000000E+00  0.18250000000E+03  0.18250000000E+03  0.00000000000E+00 0. -1.
         11   -1    0    0    0    0 -0.00000000000E+00 -0.00000000000E+00 -0.18250000000E+03  0.18250000000E+03  0.00000000000E+00 0. -1.
        -11    1    1    2    0    0  0.29358497680E+01  0.20588775943E+01  0.15990446939E+03  0.15994467019E+03  0.00000000000E+00 0. -1.
         11    1    1    2    0    0 -0.36393956372E+01 -0.38136563010E+01 -0.17890949630E+03  0.17898714211E+03  0.00000000000E+00 0. -1.
        -15    1    1    2    0    0  0.24829212969E+01  0.18702009451E+01 -0.25314810570E+01  0.43850513205E+01  0.17770000000E+01 0.  1.
         15    1    1    2    0    0 -0.17793754276E+01 -0.11542223848E+00  0.21536507959E+02  0.21683136380E+02  0.17770000000E+01 0. -1.
</event>
<event>
 6    1  0.1097339E-002  0.1830247E+03  0.7546771E-02  0.1068038E+00
        -11   -1    0    0    0    0  0.00000000000E+00  0.00000000000E+00  0.18250000000E+03  0.18250000000E+03  0.00000000000E+00 0. -1.
         11   -1    0    0    0    0 -0.00000000000E+00 -0.00000000000E+00 -0.18250000000E+03  0.18250000000E+03  0.00000000000E+00 0.  1.
        -11    1    1    2    0    0 -0.29400146759E+01  0.30087042535E+01  0.18192662673E+03  0.18197525519E+03  0.00000000000E+00 0. -1.
         11    1    1    2    0    0  0.29926117343E+01 -0.47270674912E+01 -0.12532566793E+03  0.12545048399E+03  0.00000000000E+00 0.  1.
        -15    1    1    2    0    0 -0.10450925727E+00  0.36920599505E+01 -0.52674288530E+02  0.52833518054E+02  0.17770000000E+01 0.  1.
         15    1    1    2    0    0  0.51912198859E-01 -0.19736967128E+01 -0.39266702688E+01  0.47407427678E+01  0.17770000000E+01 0. -1.
</event>
<event>
 6    1  0.1097339E-002  0.1906190E+03  0.7546771E-02  0.1062170E+00
        -11   -1    0    0    0    0  0.00000000000E+00  0.00000000000E+00  0.18250000000E+03  0.18250000000E+03  0.00000000000E+00 0. -1.
         11   -1    0    0    0    0 -0.00000000000E+00 -0.00000000000E+00 -0.18250000000E+03  0.18250000000E+03  0.00000000000E+00 0.  1.
        -11    1    1    2    0    0 -0.29885158262E+01 -0.27525358566E+01  0.17433368302E+03  0.17438102167E+03  0.00000000000E+00 0. -1.
         11    1    1    2    0    0 -0.91946980412E+01  0.95676033449E+01 -0.15229775119E+03  0.15287474129E+03  0.00000000000E+00 0.  1.
        -15    1    1    2    0    0  0.12974561904E+02 -0.57066254143E+01 -0.27967325498E+02  0.31404360442E+02  0.17770000000E+01 0. -1.
         15    1    1    2    0    0 -0.79134803655E+00 -0.11084420740E+01  0.59313936662E+01  0.63398766053E+01  0.17770000000E+01 0. -1.
</event>
<event>
 6    1  0.1097339E-002  0.1841646E+03  0.7546771E-02  0.1067137E+00
        -11   -1    0    0    0    0  0.00000000000E+00  0.00000000000E+00  0.18250000000E+03  0.18250000000E+03  0.00000000000E+00 0. -1.
         11   -1    0    0    0    0 -0.00000000000E+00 -0.00000000000E+00 -0.18250000000E+03  0.18250000000E+03  0.00000000000E+00 0. -1.
        -11    1    1    2    0    0  0.32155780370E+01 -0.19382040490E+01  0.18079639758E+03  0.18083537805E+03  0.00000000000E+00 0. -1.
         11    1    1    2    0    0 -0.15166163158E+01 -0.18156039891E+01 -0.10414373951E+03  0.10417060536E+03  0.00000000000E+00 0. -1.
        -15    1    1    2    0    0  0.31844365196E+01 -0.83537111460E+01 -0.40562208816E+02  0.41573737370E+02  0.17770000000E+01 0. -1.
         15    1    1    2    0    0 -0.48833982408E+01  0.12107519184E+02 -0.36090449251E+02  0.38420279220E+02  0.17770000000E+01 0.  1.
</event>
<event>
 6    1  0.1097339E-002  0.1828474E+03  0.7546771E-02  0.1068179E+00
        -11   -1    0    0    0    0  0.00000000000E+00  0.00000000000E+00  0.18250000000E+03  0.18250000000E+03  0.00000000000E+00 0.  1.
         11   -1    0    0    0    0 -0.00000000000E+00 -0.00000000000E+00 -0.18250000000E+03  0.18250000000E+03  0.00000000000E+00 0.  1.
        -11    1    1    2    0    0  0.29345398388E+01  0.10075607102E+01  0.18212614077E+03  0.18215256752E+03  0.00000000000E+00 0.  1.
         11    1    1    2    0    0 -0.34557664439E+00  0.13597402756E+01 -0.76019716709E+02  0.76032661701E+02  0.00000000000E+00 0.  1.
        -15    1    1    2    0    0  0.20551682044E+00 -0.30418394732E+01 -0.97568399755E+02  0.97632194404E+02  0.17770000000E+01 0. -1.
         15    1    1    2    0    0 -0.27944800149E+01  0.67453848746E+00 -0.85380243085E+01  0.91825763714E+01  0.17770000000E+01 0.  1.
</event>
<event>
 6    1  0.1097339E-002  0.1834946E+03  0.7546771E-02  0.1067666E+00
        -11   -1    0    0    0    0  0.00000000000E+00  0.00000000000E+00  0.18250000000E+03  0.18250000000E+03  0.00000000000E+00 0.  1.
         11   -1    0    0    0    0 -0.00000000000E+00 -0.00000000000E+00 -0.18250000000E+03  0.18250000000E+03  0.00000000000E+00 0.  1.
        -11    1    1    2    0    0 -0.15130689318E+01  0.28570378546E+01  0.17040072946E+03  0.17043139571E+03  0.00000000000E+00 0.  1.
         11    1    1    2    0    0 -0.10384419815E+01 -0.26331913889E+01 -0.18148331916E+03  0.18150539163E+03  0.00000000000E+00 0.  1.
        -15    1    1    2    0    0  0.23430766805E+01  0.22860528216E+01  0.49010994889E+01  0.61558550205E+01  0.17770000000E+01 0.  1.
         15    1    1    2    0    0  0.20843423290E+00 -0.25098992873E+01  0.61814902075E+01  0.69073576313E+01  0.17770000000E+01 0.  1.
</event>
<event>
 6    1  0.1241006E-002  0.2119097E+03  0.7546771E-02  0.1047191E+00
        -11   -1    0    0    0    0  0.00000000000E+00  0.00000000000E+00  0.18250000000E+03  0.18250000000E+03  0.00000000000E+00 0.  1.
         11   -1    0    0    0    0 -0.00000000000E+00 -0.00000000000E+00 -0.18250000000E+03  0.18250000000E+03  0.00000000000E+00 0. -1.
        -11    1    1    2    0    0 -0.10827077922E+01  0.16665623084E+01  0.70685532510E+02  0.70713465424E+02  0.00000000000E+00 0.  1.
         11    1    1    2    0    0 -0.13378570463E+02  0.19918314032E+01 -0.15249163145E+03  0.15309033674E+03  0.00000000000E+00 0. -1.
        -15    1    1    2    0    0  0.12780644866E+02 -0.16002596044E+01 -0.28247399088E+02  0.31096285923E+02  0.17770000000E+01 0.  1.
         15    1    1    2    0    0  0.16806333885E+01 -0.20581341072E+01  0.11005349803E+03  0.11009991191E+03  0.17770000000E+01 0.  1.
</event>
<event>
 6    1  0.1097339E-002  0.1831400E+03  0.7546771E-02  0.1067947E+00
        -11   -1    0    0    0    0  0.00000000000E+00  0.00000000000E+00  0.18250000000E+03  0.18250000000E+03  0.00000000000E+00 0. -1.
         11   -1    0    0    0    0 -0.00000000000E+00 -0.00000000000E+00 -0.18250000000E+03  0.18250000000E+03  0.00000000000E+00 0.  1.
        -11    1    1    2    0    0 -0.35928588586E+01 -0.29065394900E+00  0.18182430915E+03  0.18186003550E+03  0.00000000000E+00 0. -1.
         11    1    1    2    0    0 -0.97177404115E+00 -0.26879509244E+01 -0.15904011937E+03  0.15906580083E+03  0.00000000000E+00 0.  1.
        -15    1    1    2    0    0  0.29636446049E+01  0.81485787551E+00 -0.59093814758E+01  0.68938886797E+01  0.17770000000E+01 0.  1.
         15    1    1    2    0    0  0.16009882948E+01  0.21637469979E+01 -0.16874808303E+02  0.17180274994E+02  0.17770000000E+01 0. -1.
</event>
<event>
 6    1  0.1097339E-002  0.1478232E+03  0.7546771E-02  0.1099990E+00
        -11   -1    0    0    0    0  0.00000000000E+00  0.00000000000E+00  0.18250000000E+03  0.18250000000E+03  0.00000000000E+00 0.  1.
         11   -1    0    0    0    0 -0.00000000000E+00 -0.00000000000E+00 -0.18250000000E+03  0.18250000000E+03  0.00000000000E+00 0.  1.
        -11    1    1    2    0    0 -0.18624313625E+01 -0.75557410260E+00  0.14118248366E+03  0.14119678904E+03  0.00000000000E+00 0.  1.
         11    1    1    2    0    0 -0.39068843860E+01 -0.21446675256E+02 -0.15408434156E+03  0.15561879044E+03  0.00000000000E+00 0.  1.
        -15    1    1    2    0    0 -0.64836057066E+01  0.32700765254E+02 -0.14450404800E+02  0.36377865785E+02  0.17770000000E+01 0. -1.
         15    1    1    2    0    0  0.12252921455E+02 -0.10498515896E+02  0.27352262703E+02  0.31806554736E+02  0.17770000000E+01 0.  1.
</event>
<event>
 6    1  0.1097339E-002  0.1865431E+03  0.7546771E-02  0.1065281E+00
        -11   -1    0    0    0    0  0.00000000000E+00  0.00000000000E+00  0.18250000000E+03  0.18250000000E+03  0.00000000000E+00 0. -1.
         11   -1    0    0    0    0 -0.00000000000E+00 -0.00000000000E+00 -0.18250000000E+03  0.18250000000E+03  0.00000000000E+00 0.  1.
        -11    1    1    2    0    0  0.43340950179E+01 -0.18492147698E+01  0.11928154093E+03  0.11937457845E+03  0.00000000000E+00 0. -1.
         11    1    1    2    0    0  0.34184722503E+01  0.17837324955E+01 -0.17841527506E+03  0.17845693606E+03  0.00000000000E+00 0.  1.
        -15    1    1    2    0    0 -0.79985001874E+01  0.42946167486E+01  0.61367127272E+02  0.62060468713E+02  0.17770000000E+01 0. -1.
         15    1    1    2    0    0  0.24593291929E+00 -0.42291344743E+01 -0.22333931413E+01  0.51080167704E+01  0.17770000000E+01 0.  1.
</event>
<event>
 6    1  0.1097339E-002  0.1889630E+03  0.7546771E-02  0.1063424E+00
        -11   -1    0    0    0    0  0.00000000000E+00  0.00000000000E+00  0.18250000000E+03  0.18250000000E+03  0.00000000000E+00 0.  1.
         11   -1    0    0    0    0 -0.00000000000E+00 -0.00000000000E+00 -0.18250000000E+03  0.18250000000E+03  0.00000000000E+00 0. -1.
        -11    1    1    2    0    0 -0.34109189347E+01  0.19644298926E+01  0.12183160666E+03  0.12189517519E+03  0.00000000000E+00 0.  1.
         11    1    1    2    0    0  0.95326848835E+00 -0.29115956110E+01 -0.17601029159E+03  0.17603695309E+03  0.00000000000E+00 0. -1.
        -15    1    1    2    0    0  0.79653355740E+00 -0.16039724439E+02  0.44553050730E+02  0.47392396903E+02  0.17770000000E+01 0. -1.
         15    1    1    2    0    0  0.16611168890E+01  0.16986890157E+02  0.96256341950E+01  0.19675474815E+02  0.17770000000E+01 0.  1.
</event>
<event>
 6    1  0.1498802E-002  0.2072534E+03  0.7546771E-02  0.1050298E+00
        -11   -1    0    0    0    0  0.00000000000E+00  0.00000000000E+00  0.18250000000E+03  0.18250000000E+03  0.00000000000E+00 0. -1.
         11   -1    0    0    0    0 -0.00000000000E+00 -0.00000000000E+00 -0.18250000000E+03  0.18250000000E+03  0.00000000000E+00 0. -1.
        -11    1    1    2    0    0 -0.30384701968E+01 -0.19310379999E+01  0.15770547484E+03  0.15774656257E+03  0.00000000000E+00 0. -1.
         11    1    1    2    0    0  0.45032839982E+01 -0.31188994306E+01 -0.12432830039E+03  0.12444891875E+03  0.00000000000E+00 0. -1.
        -15    1    1    2    0    0  0.12458210556E+01 -0.33205283577E+01  0.24204512770E+02  0.24527416214E+02  0.17770000000E+01 0.  1.
         15    1    1    2    0    0 -0.27106348570E+01  0.83704657881E+01 -0.57581687224E+02  0.58277102463E+02  0.17770000000E+01 0. -1.
</event>
<event>
 6    1  0.1097339E-002  0.1880478E+03  0.7546771E-02  0.1064123E+00
        -11   -1    0    0    0    0  0.00000000000E+00  0.00000000000E+00  0.18250000000E+03  0.18250000000E+03  0.00000000000E+00 0. -1.
         11   -1    0    0    0    0 -0.00000000000E+00 -0.00000000000E+00 -0.18250000000E+03  0.18250000000E+03  0.00000000000E+00 0.  1.
        -11    1    1    2    0    0  0.20248574350E+01 -0.26745626195E+01  0.17692038427E+03  0.17695218480E+03  0.00000000000E+00 0. -1.
         11    1    1    2    0    0 -0.77625307640E+01  0.46936250848E+01 -0.17239703964E+03  0.17263553017E+03  0.00000000000E+00 0.  1.
        -15    1    1    2    0    0  0.90388092261E+01 -0.74841579872E+00 -0.61832694197E+01  0.11119835797E+02  0.17770000000E+01 0. -1.
         15    1    1    2    0    0 -0.33011358971E+01 -0.12706466666E+01  0.16599247856E+01  0.42924492375E+01  0.17770000000E+01 0. -1.
</event>
<event>
 6    1  0.1097339E-002  0.1859656E+03  0.7546771E-02  0.1065729E+00
        -11   -1    0    0    0    0  0.00000000000E+00  0.00000000000E+00  0.18250000000E+03  0.18250000000E+03  0.00000000000E+00 0.  1.
         11   -1    0    0    0    0 -0.00000000000E+00 -0.00000000000E+00 -0.18250000000E+03  0.18250000000E+03  0.00000000000E+00 0. -1.
        -11    1    1    2    0    0  0.17069464496E+01  0.21882953261E+01  0.15449323119E+03  0.15451815681E+03  0.00000000000E+00 0.  1.
         11    1    1    2    0    0  0.19493756360E+01  0.99142256945E+01 -0.17874906081E+03  0.17903440640E+03  0.00000000000E+00 0. -1.
        -15    1    1    2    0    0  0.42968375991E+01 -0.81169523012E+01  0.18424528306E+02  0.20663220957E+02  0.17770000000E+01 0.  1.
         15    1    1    2    0    0 -0.79531596847E+01 -0.39855687194E+01  0.58313013154E+01  0.10784215828E+02  0.17770000000E+01 0. -1.
</event>
<event>
 6    1  0.1097339E-002  0.1844765E+03  0.7546771E-02  0.1066892E+00
        -11   -1    0    0    0    0  0.00000000000E+00  0.00000000000E+00  0.18250000000E+03  0.18250000000E+03  0.00000000000E+00 0. -1.
         11   -1    0    0    0    0 -0.00000000000E+00 -0.00000000000E+00 -0.18250000000E+03  0.18250000000E+03  0.00000000000E+00 0. -1.
        -11    1    1    2    0    0  0.59026394693E+01 -0.78627650423E+01  0.10880600457E+03  0.10924930598E+03  0.00000000000E+00 0. -1.
         11    1    1    2    0    0 -0.25845419066E+01 -0.11297937605E+02 -0.18015103266E+03  0.18052345504E+03  0.00000000000E+00 0. -1.
        -15    1    1    2    0    0 -0.38361535977E+01  0.18094873822E+02  0.70537022405E+02  0.72943606929E+02  0.17770000000E+01 0.  1.
         15    1    1    2    0    0  0.51805603497E+00  0.10658288252E+01  0.80800568459E+00  0.22836320470E+01  0.17770000000E+01 0.  1.
</event>
<event>
 6    1  0.1097339E-002  0.1661436E+03  0.7546771E-02  0.1082275E+00
        -11   -1    0    0    0    0  0.00000000000E+00  0.00000000000E+00  0.18250000000E+03  0.18250000000E+03  0.00000000000E+00 0.  1.
         11   -1    0    0    0    0 -0.00000000000E+00 -0.00000000000E+00 -0.18250000000E+03  0.18250000000E+03  0.00000000000E+00 0.  1.
        -11    1    1    2    0    0  0.15072119422E+02 -0.41463177028E+00  0.16930713798E+03  0.16997719751E+03  0.00000000000E+00 0.  1.
         11    1    1    2    0    0 -0.22068258821E+01 -0.40256523265E+00 -0.16261189768E+03  0.16262736979E+03  0.00000000000E+00 0.  1.
        -15    1    1    2    0    0 -0.42178446067E+01  0.60678567250E+01  0.10141108300E+02  0.12673156865E+02  0.17770000000E+01 0. -1.
         15    1    1    2    0    0 -0.86474489329E+01 -0.52506597220E+01 -0.16836348601E+02  0.19722275826E+02  0.17770000000E+01 0.  1.
</event>
<event>
 6    1  0.1097339E-002  0.1833576E+03  0.7546771E-02  0.1067774E+00
        -11   -1    0    0    0    0  0.00000000000E+00  0.00000000000E+00  0.18250000000E+03  0.18250000000E+03  0.00000000000E+00 0. -1.
         11   -1    0    0    0    0 -0.00000000000E+00 -0.00000000000E+00 -0.18250000000E+03  0.18250000000E+03  0.00000000000E+00 0. -1.
        -11    1    1    2    0    0  0.24369994883E+01  0.27059986227E+00  0.90911417610E+02  0.90944477802E+02  0.00000000000E+00 0. -1.
         11    1    1    2    0    0  0.10894627304E+01 -0.31961601936E+01 -0.18161097921E+03  0.18164236879E+03  0.00000000000E+00 0. -1.
        -15    1    1    2    0    0 -0.10022004364E+02  0.12304036173E+01  0.64459985708E+02  0.65270222544E+02  0.17770000000E+01 0. -1.
         15    1    1    2    0    0  0.64955421448E+01  0.16951567140E+01  0.26239575892E+02  0.27142930866E+02  0.17770000000E+01 0.  1.
</event>
<event>
 6    1  0.1097339E-002  0.1850064E+03  0.7546771E-02  0.1066477E+00
        -11   -1    0    0    0    0  0.00000000000E+00  0.00000000000E+00  0.18250000000E+03  0.18250000000E+03  0.00000000000E+00 0.  1.
         11   -1    0    0    0    0 -0.00000000000E+00 -0.00000000000E+00 -0.18250000000E+03  0.18250000000E+03  0.00000000000E+00 0.  1.
        -11    1    1    2    0    0  0.99966584771E+00 -0.26659649647E+01  0.17997104909E+03  0.17999356992E+03  0.00000000000E+00 0.  1.
         11    1    1    2    0    0  0.86207593261E-01  0.49850399238E+01 -0.17455906274E+03  0.17463025064E+03  0.00000000000E+00 0.  1.
        -15    1    1    2    0    0 -0.90653628389E-01  0.21774154958E+01  0.29868962159E+00  0.28277731189E+01  0.17770000000E+01 0. -1.
         15    1    1    2    0    0 -0.99521981258E+00 -0.44964904548E+01 -0.57106759744E+01  0.75484063199E+01  0.17770000000E+01 0.  1.
</event>
<event>
 6    1  0.1097339E-002  0.1826587E+03  0.7546771E-02  0.1068329E+00
        -11   -1    0    0    0    0  0.00000000000E+00  0.00000000000E+00  0.18250000000E+03  0.18250000000E+03  0.00000000000E+00 0.  1.
         11   -1    0    0    0    0 -0.00000000000E+00 -0.00000000000E+00 -0.18250000000E+03  0.18250000000E+03  0.00000000000E+00 0.  1.
        -11    1    1    2    0    0  0.16267845694E+01  0.58980519859E+00  0.72684631388E+02  0.72705226347E+02  0.00000000000E+00 0.  1.
         11    1    1    2    0    0  0.12753417532E+01  0.40017514387E+01 -0.18229294172E+03  0.18234132037E+03  0.00000000000E+00 0.  1.
        -15    1    1    2    0    0  0.13640170266E+01 -0.27321966345E+01  0.34604838083E+02  0.34784737869E+02  0.17770000000E+01 0. -1.
         15    1    1    2    0    0 -0.42661433491E+01 -0.18593600028E+01  0.75003472251E+02  0.75168715417E+02  0.17770000000E+01 0.  1.
</event>
<event>
 6    1  0.1097339E-002  0.1852876E+03  0.7546771E-02  0.1066257E+00
        -11   -1    0    0    0    0  0.00000000000E+00  0.00000000000E+00  0.18250000000E+03  0.18250000000E+03  0.00000000000E+00 0. -1.
         11   -1    0    0    0    0 -0.00000000000E+00 -0.00000000000E+00 -0.18250000000E+03  0.18250000000E+03  0.00000000000E+00 0.  1.
        -11    1    1    2    0    0 -0.36518660946E+01 -0.11938126946E+01  0.17967133549E+03  0.17971240946E+03  0.00000000000E+00 0. -1.
         11    1    1    2    0    0 -0.43463352553E+01  0.13183271199E+02 -0.12381703404E+03  0.12459272526E+03  0.00000000000E+00 0.  1.
        -15    1    1    2    0    0  0.67943179475E+01 -0.31547315164E+01 -0.53415487369E+01  0.93704300446E+01  0.17770000000E+01 0. -1.
         15    1    1    2    0    0  0.12038834024E+01 -0.88347269879E+01 -0.50512752717E+02  0.51324435235E+02  0.17770000000E+01 0.  1.
</event>
<event>
 6    1  0.1097339E-002  0.1904909E+03  0.7546771E-02  0.1062266E+00
        -11   -1    0    0    0    0  0.00000000000E+00  0.00000000000E+00  0.18250000000E+03  0.18250000000E+03  0.00000000000E+00 0.  1.
         11   -1    0    0    0    0 -0.00000000000E+00 -0.00000000000E+00 -0.18250000000E+03  0.18250000000E+03  0.00000000000E+00 0. -1.
        -11    1    1    2    0    0 -0.19198800659E+01 -0.19170586193E+01  0.17448804197E+03  0.17450913399E+03  0.00000000000E+00 0.  1.
         11    1    1    2    0    0 -0.10852887413E+01  0.28264941755E+01 -0.16839970828E+03  0.16842692382E+03  0.00000000000E+00 0. -1.
        -15    1    1    2    0    0  0.10565241092E+02  0.35408935465E+01 -0.66465920036E+01  0.13095692449E+02  0.17770000000E+01 0. -1.
         15    1    1    2    0    0 -0.75600722852E+01 -0.44503291027E+01  0.55825830639E+00  0.89682497410E+01  0.17770000000E+01 0.  1.
</event>
<event>
 6    1  0.1097339E-002  0.1826518E+03  0.7546771E-02  0.1068334E+00
        -11   -1    0    0    0    0  0.00000000000E+00  0.00000000000E+00  0.18250000000E+03  0.18250000000E+03  0.00000000000E+00 0. -1.
         11   -1    0    0    0    0 -0.00000000000E+00 -0.00000000000E+00 -0.18250000000E+03  0.18250000000E+03  0.00000000000E+00 0.  1.
        -11    1    1    2    0    0  0.44192034956E+00  0.12306234011E+01  0.25473343801E+02  0.25506880875E+02  0.00000000000E+00 0. -1.
         11    1    1    2    0    0  0.10109799323E+02 -0.18515143609E-01 -0.18206775627E+03  0.18234822801E+03  0.00000000000E+00 0.  1.
        -15    1    1    2    0    0 -0.50570660067E+00  0.13616616453E+01  0.44040863043E+02  0.44100625939E+02  0.17770000000E+01 0.  1.
         15    1    1    2    0    0 -0.10046013072E+02 -0.25737699028E+01  0.11255354943E+03  0.11304426517E+03  0.17770000000E+01 0. -1.
</event>
<event>
 6    1  0.1097339E-002  0.1920609E+03  0.7546771E-02  0.1061089E+00
        -11   -1    0    0    0    0  0.00000000000E+00  0.00000000000E+00  0.18250000000E+03  0.18250000000E+03  0.00000000000E+00 0.  1.
         11   -1    0    0    0    0 -0.00000000000E+00 -0.00000000000E+00 -0.18250000000E+03  0.18250000000E+03  0.00000000000E+00 0.  1.
        -11    1    1    2    0    0 -0.67772138169E+01  0.45730611531E+00  0.15130149248E+03  0.15145389193E+03  0.00000000000E+00 0.  1.
         11    1    1    2    0    0  0.93464153844E+00  0.39077940498E+01 -0.17289238415E+03  0.17293906703E+03  0.00000000000E+00 0.  1.
        -15    1    1    2    0    0  0.69876505013E+00  0.13812776157E+02  0.34701965577E+01  0.14369448525E+02  0.17770000000E+01 0. -1.
         15    1    1    2    0    0  0.51438072283E+01 -0.18177876322E+02  0.18120695113E+02  0.26237592511E+02  0.17770000000E+01 0.  1.
</event>
<event>
 6    1  0.1108335E-002  0.1846124E+03  0.7546771E-02  0.1066786E+00
        -11   -1    0    0    0    0  0.00000000000E+00  0.00000000000E+00  0.18250000000E+03  0.18250000000E+03  0.00000000000E+00 0.  1.
         11   -1    0    0    0    0 -0.00000000000E+00 -0.00000000000E+00 -0.18250000000E+03  0.18250000000E+03  0.00000000000E+00 0. -1.
        -11    1    1    2    0    0 -0.22947850984E+01  0.89344263763E+00  0.18037078599E+03  0.18038759579E+03  0.00000000000E+00 0.  1.
         11    1    1    2    0    0  0.20499027770E+01  0.26895588523E+01 -0.16547165522E+03  0.16550620686E+03  0.00000000000E+00 0. -1.
        -15    1    1    2    0    0 -0.99446468778E+00 -0.43760084501E+01 -0.15881458779E+02  0.16598700910E+02  0.17770000000E+01 0.  1.
         15    1    1    2    0    0  0.12393470091E+01  0.79300696016E+00  0.98232801504E+00  0.25074964361E+01  0.17770000000E+01 0. -1.
</event>
<event>
 6    1  0.1097339E-002  0.2173109E+03  0.7546771E-02  0.1043693E+00
        -11   -1    0    0    0    0  0.00000000000E+00  0.00000000000E+00  0.18250000000E+03  0.18250000000E+03  0.00000000000E+00 0. -1.
         11   -1    0    0    0    0 -0.00000000000E+00 -0.00000000000E+00 -0.18250000000E+03  0.18250000000E+03  0.00000000000E+00 0. -1.
        -11    1    1    2    0    0  0.28847111890E+01  0.14904728161E+02  0.76455361978E+02  0.77948026630E+02  0.00000000000E+00 0. -1.
         11    1    1    2    0    0  0.37681126841E+02 -0.27682319128E+02 -0.14009240596E+03  0.14768906635E+03  0.00000000000E+00 0. -1.
        -15    1    1    2    0    0 -0.79050382137E+01  0.50027925320E+01 -0.34414457461E+02  0.35707564656E+02  0.17770000000E+01 0. -1.
         15    1    1    2    0    0 -0.32660799817E+02  0.77747984348E+01  0.98051501445E+02  0.10365534236E+03  0.17770000000E+01 0.  1.
</event>
<event>
 6    1  0.1097339E-002  0.1910791E+03  0.7546771E-02  0.1061824E+00
        -11   -1    0    0    0    0  0.00000000000E+00  0.00000000000E+00  0.18250000000E+03  0.18250000000E+03  0.00000000000E+00 0. -1.
         11   -1    0    0    0    0 -0.00000000000E+00 -0.00000000000E+00 -0.18250000000E+03  0.18250000000E+03  0.00000000000E+00 0. -1.
        -11    1    1    2    0    0 -0.25710442823E+01 -0.88981756231E+00  0.16879451900E+03  0.16881644377E+03  0.00000000000E+00 0. -1.
         11    1    1    2    0    0  0.27778985633E+01 -0.25984424734E+01 -0.17387927937E+03  0.17392087976E+03  0.00000000000E+00 0. -1.
        -15    1    1    2    0    0 -0.65631492751E+01  0.60865906483E+01  0.10072352268E+02  0.13591597527E+02  0.17770000000E+01 0. -1.
         15    1    1    2    0    0  0.63562949940E+01 -0.25983306125E+01 -0.49875918970E+01  0.86710789383E+01  0.17770000000E+01 0.  1.
</event>
<event>
 6    1  0.1204847E-002  0.1658653E+03  0.7546771E-02  0.1082525E+00
        -11   -1    0    0    0    0  0.00000000000E+00  0.00000000000E+00  0.18250000000E+03  0.18250000000E+03  0.00000000000E+00 0. -1.
         11   -1    0    0    0    0 -0.00000000000E+00 -0.00000000000E+00 -0.18250000000E+03  0.18250000000E+03  0.00000000000E+00 0.  1.
        -11    1    1    2    0    0 -0.20675326963E+01 -0.99332750568E+01  0.15800595412E+03  0.15833138091E+03  0.00000000000E+00 0. -1.
         11    1    1    2    0    0  0.48875975195E+00 -0.83832589470E+00 -0.85748796529E+01  0.86296139811E+01  0.00000000000E+00 0.  1.
        -15    1    1    2    0    0  0.33010376409E+00  0.87565793759E+01 -0.17352922645E+03  0.17375942223E+03  0.17770000000E+01 0.  1.
         15    1    1    2    0    0  0.12486691803E+01  0.20150215757E+01  0.24098151984E+02  0.24279582878E+02  0.17770000000E+01 0. -1.
</event>
<event>
 6    1  0.1097339E-002  0.1829802E+03  0.7546771E-02  0.1068073E+00
        -11   -1    0    0    0    0  0.00000000000E+00  0.00000000000E+00  0.18250000000E+03  0.18250000000E+03  0.00000000000E+00 0. -1.
         11   -1    0    0    0    0 -0.00000000000E+00 -0.00000000000E+00 -0.18250000000E+03  0.18250000000E+03  0.00000000000E+00 0.  1.
        -11    1    1    2    0    0  0.22457585270E+01  0.20451641383E+01  0.18199445290E+03  0.18201979841E+03  0.00000000000E+00 0. -1.
         11    1    1    2    0    0 -0.62650046946E+01 -0.10829308769E+01 -0.15003672894E+03  0.15017137894E+03  0.00000000000E+00 0.  1.
        -15    1    1    2    0    0  0.47414291462E+01 -0.80657156534E-01 -0.18253496735E+02  0.18942954573E+02  0.17770000000E+01 0.  1.
         15    1    1    2    0    0 -0.72218297861E+00 -0.88157610484E+00 -0.13704227225E+02  0.13865868076E+02  0.17770000000E+01 0. -1.
</event>
<event>
 6    1  0.1097339E-002  0.1848055E+03  0.7546771E-02  0.1066634E+00
        -11   -1    0    0    0    0  0.00000000000E+00  0.00000000000E+00  0.18250000000E+03  0.18250000000E+03  0.00000000000E+00 0. -1.
         11   -1    0    0    0    0 -0.00000000000E+00 -0.00000000000E+00 -0.18250000000E+03  0.18250000000E+03  0.00000000000E+00 0. -1.
        -11    1    1    2    0    0  0.60916718097E+01  0.30043439552E+01  0.18006642558E+03  0.18019448429E+03  0.00000000000E+00 0. -1.
         11    1    1    2    0    0 -0.26744862908E+01 -0.39499228207E+01 -0.13719405124E+03  0.13727695532E+03  0.00000000000E+00 0. -1.
        -15    1    1    2    0    0  0.25987669004E+01  0.44828712059E+01 -0.38939877830E+02  0.39323295107E+02  0.17770000000E+01 0. -1.
         15    1    1    2    0    0 -0.60159524193E+01 -0.35372923404E+01 -0.39324965105E+01  0.82052652862E+01  0.17770000000E+01 0. -1.
</event>
<event>
 6    1  0.1097339E-002  0.1833497E+03  0.7546771E-02  0.1067780E+00
        -11   -1    0    0    0    0  0.00000000000E+00  0.00000000000E+00  0.18250000000E+03  0.18250000000E+03  0.00000000000E+00 0. -1.
         11   -1    0    0    0    0 -0.00000000000E+00 -0.00000000000E+00 -0.18250000000E+03  0.18250000000E+03  0.00000000000E+00 0. -1.
        -11    1    1    2    0    0 -0.83414217561E+00 -0.27772616553E+01  0.18162718190E+03  0.18165032943E+03  0.00000000000E+00 0. -1.
         11    1    1    2    0    0  0.46067383773E+00 -0.29246276278E+00 -0.35427417324E+02  0.35431619397E+02  0.00000000000E+00 0. -1.
        -15    1    1    2    0    0  0.10290152388E+02  0.18520731734E+01 -0.10289695579E+03  0.10344205456E+03  0.17770000000E+01 0. -1.
         15    1    1    2    0    0 -0.99166840499E+01  0.12176512446E+01 -0.43302808785E+02  0.44475996614E+02  0.17770000000E+01 0.  1.
</event>
<event>
 6    1  0.1097339E-002  0.1791075E+03  0.7546771E-02  0.1071188E+00
        -11   -1    0    0    0    0  0.00000000000E+00  0.00000000000E+00  0.18250000000E+03  0.18250000000E+03  0.00000000000E+00 0. -1.
         11   -1    0    0    0    0 -0.00000000000E+00 -0.00000000000E+00 -0.18250000000E+03  0.18250000000E+03  0.00000000000E+00 0.  1.
        -11    1    1    2    0    0  0.29499388044E+01  0.12555131462E+01  0.17780661347E+03  0.17783551458E+03  0.00000000000E+00 0. -1.
         11    1    1    2    0    0 -0.11205127776E+01 -0.58419249983E+01 -0.18032427998E+03  0.18042236443E+03  0.00000000000E+00 0.  1.
        -15    1    1    2    0    0 -0.45380344351E+00  0.29316580638E+01  0.15345651050E+01  0.37832757803E+01  0.17770000000E+01 0. -1.
         15    1    1    2    0    0 -0.13756225833E+01  0.16547537883E+01  0.98310140815E+00  0.29588452089E+01  0.17770000000E+01 0.  1.
</event>
<event>
 6    1  0.1097339E-002  0.1855232E+03  0.7546771E-02  0.1066074E+00
        -11   -1    0    0    0    0  0.00000000000E+00  0.00000000000E+00  0.18250000000E+03  0.18250000000E+03  0.00000000000E+00 0. -1.
         11   -1    0    0    0    0 -0.00000000000E+00 -0.00000000000E+00 -0.18250000000E+03  0.18250000000E+03  0.00000000000E+00 0.  1.
        -11    1    1    2    0    0  0.27799157575E+01 -0.48748897031E+00  0.17270394991E+03  0.17272700973E+03  0.00000000000E+00 0. -1.
         11    1    1    2    0    0 -0.29085283206E+01 -0.20673306171E+01 -0.17944133693E+03  0.17947681408E+03  0.00000000000E+00 0.  1.
        -15    1    1    2    0    0  0.32002211261E+01  0.29789859243E+01 -0.47858131600E+00  0.47436843770E+01  0.17770000000E+01 0. -1.
         15    1    1    2    0    0 -0.30716085630E+01 -0.42416633681E+00  0.72159683424E+01  0.80524918109E+01  0.17770000000E+01 0.  1.
</event>
<event>
 6    1  0.1097339E-002  0.1912741E+03  0.7546771E-02  0.1061678E+00
        -11   -1    0    0    0    0  0.00000000000E+00  0.00000000000E+00  0.18250000000E+03  0.18250000000E+03  0.00000000000E+00 0.  1.
         11   -1    0    0    0    0 -0.00000000000E+00 -0.00000000000E+00 -0.18250000000E+03  0.18250000000E+03  0.00000000000E+00 0. -1.
        -11    1    1    2    0    0  0.17326088641E+01 -0.11841458643E+01  0.73518723250E+02  0.73548669623E+02  0.00000000000E+00 0.  1.
         11    1    1    2    0    0  0.13748177795E+01 -0.45166629692E+01 -0.17366176302E+03  0.17372592870E+03  0.00000000000E+00 0. -1.
        -15    1    1    2    0    0 -0.10763365910E+02  0.84362209137E+00  0.10614524382E+03  0.10670769540E+03  0.17770000000E+01 0.  1.
         15    1    1    2    0    0  0.76559392666E+01  0.48571867421E+01 -0.60022040457E+01  0.11017706272E+02  0.17770000000E+01 0. -1.
</event>
<event>
 6    1  0.1097339E-002  0.1839339E+03  0.7546771E-02  0.1067319E+00
        -11   -1    0    0    0    0  0.00000000000E+00  0.00000000000E+00  0.18250000000E+03  0.18250000000E+03  0.00000000000E+00 0. -1.
         11   -1    0    0    0    0 -0.00000000000E+00 -0.00000000000E+00 -0.18250000000E+03  0.18250000000E+03  0.00000000000E+00 0.  1.
        -11    1    1    2    0    0 -0.23282180552E+01 -0.32952954186E+01  0.18102110963E+03  0.18106606999E+03  0.00000000000E+00 0. -1.
         11    1    1    2    0    0  0.13775496709E+00  0.30819849767E+01 -0.15715565138E+03  0.15718592929E+03  0.00000000000E+00 0.  1.
        -15    1    1    2    0    0  0.45600812515E+01  0.37974796212E+01 -0.74613249072E+01  0.96976435728E+01  0.17770000000E+01 0. -1.
         15    1    1    2    0    0 -0.23696181634E+01 -0.35841691793E+01 -0.16404133342E+02  0.17050357142E+02  0.17770000000E+01 0.  1.
</event>
<event>
 6    1  0.1097339E-002  0.1947409E+03  0.7546771E-02  0.1059108E+00
        -11   -1    0    0    0    0  0.00000000000E+00  0.00000000000E+00  0.18250000000E+03  0.18250000000E+03  0.00000000000E+00 0. -1.
         11   -1    0    0    0    0 -0.00000000000E+00 -0.00000000000E+00 -0.18250000000E+03  0.18250000000E+03  0.00000000000E+00 0. -1.
        -11    1    1    2    0    0 -0.48299107908E+01 -0.89514273423E+01  0.16482364297E+03  0.16513718349E+03  0.00000000000E+00 0. -1.
         11    1    1    2    0    0  0.94203176386E+00  0.24470865537E+01 -0.17023886264E+03  0.17025905558E+03  0.00000000000E+00 0. -1.
        -15    1    1    2    0    0 -0.75861720082E+01 -0.17375221717E+01 -0.70722047102E+01  0.10665026840E+02  0.17770000000E+01 0.  1.
         15    1    1    2    0    0  0.11474051035E+02  0.82418629603E+01  0.12487424376E+02  0.18938734086E+02  0.17770000000E+01 0. -1.
</event>
<event>
 6    1  0.1097339E-002  0.1826841E+03  0.7546771E-02  0.1068308E+00
        -11   -1    0    0    0    0  0.00000000000E+00  0.00000000000E+00  0.18250000000E+03  0.18250000000E+03  0.00000000000E+00 0. -1.
         11   -1    0    0    0    0 -0.00000000000E+00 -0.00000000000E+00 -0.18250000000E+03  0.18250000000E+03  0.00000000000E+00 0. -1.
        -11    1    1    2    0    0 -0.12395407612E+01 -0.22435944573E+01  0.38212453097E+02  0.38298325669E+02  0.00000000000E+00 0. -1.
         11    1    1    2    0    0 -0.20406847363E+01 -0.28735354174E+01 -0.18228182763E+03  0.18231589696E+03  0.00000000000E+00 0. -1.
        -15    1    1    2    0    0  0.22606366698E+01  0.73679959425E+00  0.10136939336E+03  0.10141284431E+03  0.17770000000E+01 0.  1.
         15    1    1    2    0    0  0.10195888277E+01  0.43803302805E+01  0.42699981177E+02  0.42972933066E+02  0.17770000000E+01 0. -1.
</event>
<event>
 6    1  0.1097339E-002  0.1888237E+03  0.7546771E-02  0.1063530E+00
        -11   -1    0    0    0    0  0.00000000000E+00  0.00000000000E+00  0.18250000000E+03  0.18250000000E+03  0.00000000000E+00 0.  1.
         11   -1    0    0    0    0 -0.00000000000E+00 -0.00000000000E+00 -0.18250000000E+03  0.18250000000E+03  0.00000000000E+00 0.  1.
        -11    1    1    2    0    0 -0.72818719700E+01  0.13655925223E+01  0.78506150567E+02  0.78854969274E+02  0.00000000000E+00 0.  1.
         11    1    1    2    0    0 -0.33010880816E+01 -0.48738872268E+01 -0.17607796696E+03  0.17617633896E+03  0.00000000000E+00 0.  1.
        -15    1    1    2    0    0  0.21851624912E+01  0.58810555062E+01 -0.42335979079E+01  0.77744986478E+01  0.17770000000E+01 0.  1.
         15    1    1    2    0    0  0.83977975605E+01 -0.23727608016E+01  0.10180541430E+03  0.10219419312E+03  0.17770000000E+01 0.  1.
</event>
<event>
 6    1  0.1097339E-002  0.1840852E+03  0.7546771E-02  0.1067200E+00
        -11   -1    0    0    0    0  0.00000000000E+00  0.00000000000E+00  0.18250000000E+03  0.18250000000E+03  0.00000000000E+00 0. -1.
         11   -1    0    0    0    0 -0.00000000000E+00 -0.00000000000E+00 -0.18250000000E+03  0.18250000000E+03  0.00000000000E+00 0.  1.
        -11    1    1    2    0    0 -0.26463203597E+01 -0.23730390877E+01  0.16989262078E+03  0.16992979998E+03  0.00000000000E+00 0. -1.
         11    1    1    2    0    0 -0.44923090707E+01  0.13481855834E+01 -0.18085399104E+03  0.18091479907E+03  0.00000000000E+00 0.  1.
        -15    1    1    2    0    0  0.20193973193E+01 -0.47510187952E-01  0.65670586144E+01  0.70967746615E+01  0.17770000000E+01 0. -1.
         15    1    1    2    0    0  0.51192321110E+01  0.10723636922E+01  0.43943116510E+01  0.70586262956E+01  0.17770000000E+01 0.  1.
</event>
<event>
 6    1  0.1097339E-002  0.2260860E+03  0.7546771E-02  0.1038241E+00
        -11   -1    0    0    0    0  0.00000000000E+00  0.00000000000E+00  0.18250000000E+03  0.18250000000E+03  0.00000000000E+00 0.  1.
         11   -1    0    0    0    0 -0.00000000000E+00 -0.00000000000E+00 -0.18250000000E+03  0.18250000000E+03  0.00000000000E+00 0.  1.
        -11    1    1    2    0    0  0.60203662269E+01 -0.71478505790E+01  0.87046683941E+02  0.87546911782E+02  0.00000000000E+00 0.  1.
         11    1    1    2    0    0  0.24315531672E+02  0.81557825939E+01 -0.13652593896E+03  0.13891398014E+03  0.00000000000E+00 0.  1.
        -15    1    1    2    0    0 -0.67050166432E+01 -0.53781543994E+01 -0.42530202368E+02  0.43426462386E+02  0.17770000000E+01 0. -1.
         15    1    1    2    0    0 -0.23630881256E+02  0.43702223845E+01  0.92009457386E+02  0.95112645689E+02  0.17770000000E+01 0.  1.
</event>
<event>
 6    1  0.1097339E-002  0.1918228E+03  0.7546771E-02  0.1061267E+00
        -11   -1    0    0    0    0  0.00000000000E+00  0.00000000000E+00  0.18250000000E+03  0.18250000000E+03  0.00000000000E+00 0.  1.
         11   -1    0    0    0    0 -0.00000000000E+00 -0.00000000000E+00 -0.18250000000E+03  0.18250000000E+03  0.00000000000E+00 0.  1.
        -11    1    1    2    0    0 -0.12621747734E+01  0.36585790112E+01  0.12000704185E+03  0.12006943150E+03  0.00000000000E+00 0.  1.
         11    1    1    2    0    0  0.93511557093E+01  0.22268176235E+01 -0.17291019555E+03  0.17317718832E+03  0.00000000000E+00 0.  1.
        -15    1    1    2    0    0 -0.14757247324E+01 -0.49686535911E+01  0.60922457905E+02  0.61168365093E+02  0.17770000000E+01 0.  1.
         15    1    1    2    0    0 -0.66132562034E+01 -0.91674304367E+00 -0.80193042087E+01  0.10585015088E+02  0.17770000000E+01 0.  1.
</event>
<event>
 6    1  0.1097339E-002  0.1828384E+03  0.7546771E-02  0.1068186E+00
        -11   -1    0    0    0    0  0.00000000000E+00  0.00000000000E+00  0.18250000000E+03  0.18250000000E+03  0.00000000000E+00 0. -1.
         11   -1    0    0    0    0 -0.00000000000E+00 -0.00000000000E+00 -0.18250000000E+03  0.18250000000E+03  0.00000000000E+00 0. -1.
        -11    1    1    2    0    0 -0.97896611213E+00 -0.22654507654E+01  0.18214491369E+03  0.18216163214E+03  0.00000000000E+00 0. -1.
         11    1    1    2    0    0  0.87197938859E+00 -0.22998614858E+01 -0.14532616437E+03  0.14534697713E+03  0.00000000000E+00 0. -1.
        -15    1    1    2    0    0  0.93610403111E+00  0.12772350003E+01 -0.63209341130E+01  0.67542251269E+01  0.17770000000E+01 0. -1.
         15    1    1    2    0    0 -0.82911730757E+00  0.32880772510E+01 -0.30497815212E+02  0.30737165601E+02  0.17770000000E+01 0.  1.
</event>
<event>
 6    1  0.1097339E-002  0.1870590E+03  0.7546771E-02  0.1064883E+00
        -11   -1    0    0    0    0  0.00000000000E+00  0.00000000000E+00  0.18250000000E+03  0.18250000000E+03  0.00000000000E+00 0. -1.
         11   -1    0    0    0    0 -0.00000000000E+00 -0.00000000000E+00 -0.18250000000E+03  0.18250000000E+03  0.00000000000E+00 0.  1.
        -11    1    1    2    0    0 -0.35200330700E+01 -0.68830870226E+01  0.17777294935E+03  0.17794097066E+03  0.00000000000E+00 0. -1.
         11    1    1    2    0    0 -0.28925496235E+00  0.50409941262E+01 -0.15779072092E+03  0.15787148855E+03  0.00000000000E+00 0.  1.
        -15    1    1    2    0    0  0.27620892552E+01 -0.46505970341E+01 -0.21472091379E+02  0.22214086230E+02  0.17770000000E+01 0.  1.
         15    1    1    2    0    0  0.10471987772E+01  0.64926899305E+01  0.14898629461E+01  0.69734545536E+01  0.17770000000E+01 0. -1.
</event>
<event>
 6    1  0.1097339E-002  0.1828765E+03  0.7546771E-02  0.1068155E+00
        -11   -1    0    0    0    0  0.00000000000E+00  0.00000000000E+00  0.18250000000E+03  0.18250000000E+03  0.00000000000E+00 0. -1.
         11   -1    0    0    0    0 -0.00000000000E+00 -0.00000000000E+00 -0.18250000000E+03  0.18250000000E+03  0.00000000000E+00 0. -1.
        -11    1    1    2    0    0 -0.21468966782E+01 -0.14008590244E+01  0.14201494087E+03  0.14203807589E+03  0.00000000000E+00 0. -1.
         11    1    1    2    0    0 -0.73041800263E+00  0.34188963672E+01 -0.18208991267E+03  0.18212347092E+03  0.00000000000E+00 0. -1.
        -15    1    1    2    0    0 -0.95336200542E+00 -0.22387245701E+01  0.93403281238E+01  0.98142878129E+01  0.17770000000E+01 0.  1.
         15    1    1    2    0    0  0.38306766863E+01  0.22068722728E+00  0.30734643676E+02  0.31024165382E+02  0.17770000000E+01 0. -1.
</event>
<event>
 6    1  0.1097339E-002  0.1827603E+03  0.7546771E-02  0.1068248E+00
        -11   -1    0    0    0    0  0.00000000000E+00  0.00000000000E+00  0.18250000000E+03  0.18250000000E+03  0.00000000000E+00 0.  1.
         11   -1    0    0    0    0 -0.00000000000E+00 -0.00000000000E+00 -0.18250000000E+03  0.18250000000E+03  0.00000000000E+00 0. -1.
        -11    1    1    2    0    0  0.88560161705E+01  0.33639600377E+01  0.18199333749E+03  0.18223973260E+03  0.00000000000E+00 0.  1.
         11    1    1    2    0    0 -0.12014142002E+01 -0.41581444658E+00 -0.34364903893E+02  0.34388412544E+02  0.00000000000E+00 0. -1.
        -15    1    1    2    0    0 -0.40398803206E+01  0.88320816546E+00 -0.15862368334E+02  0.16488576282E+02  0.17770000000E+01 0.  1.
         15    1    1    2    0    0 -0.36147216496E+01 -0.38313537566E+01 -0.13176606526E+03  0.13188327857E+03  0.17770000000E+01 0. -1.
</event>
<event>
 6    1  0.1097339E-002  0.1838951E+03  0.7546771E-02  0.1067350E+00
        -11   -1    0    0    0    0  0.00000000000E+00  0.00000000000E+00  0.18250000000E+03  0.18250000000E+03  0.00000000000E+00 0. -1.
         11   -1    0    0    0    0 -0.00000000000E+00 -0.00000000000E+00 -0.18250000000E+03  0.18250000000E+03  0.00000000000E+00 0. -1.
        -11    1    1    2    0    0  0.16087811551E+01  0.16852553961E+01  0.14269651079E+03  0.14271552983E+03  0.00000000000E+00 0. -1.
         11    1    1    2    0    0 -0.60963587958E+01 -0.27370019566E+01 -0.18098158503E+03  0.18110491681E+03  0.00000000000E+00 0. -1.
        -15    1    1    2    0    0  0.44191166135E+01  0.19947774266E+01  0.32818410034E+01  0.61184914805E+01  0.17770000000E+01 0.  1.
         15    1    1    2    0    0  0.68461027237E-01 -0.94303086615E+00  0.35003233242E+02  0.35061061885E+02  0.17770000000E+01 0. -1.
</event>
<event>
 6    1  0.1097339E-002  0.1936390E+03  0.7546771E-02  0.1059918E+00
        -11   -1    0    0    0    0  0.00000000000E+00  0.00000000000E+00  0.18250000000E+03  0.18250000000E+03  0.00000000000E+00 0. -1.
         11   -1    0    0    0    0 -0.00000000000E+00 -0.00000000000E+00 -0.18250000000E+03  0.18250000000E+03  0.00000000000E+00 0. -1.
        -11    1    1    2    0    0 -0.17148744398E+01 -0.77134187832E+01  0.17117874926E+03  0.17136102772E+03  0.00000000000E+00 0. -1.
         11    1    1    2    0    0 -0.29942375435E+01 -0.84656184722E+00 -0.15148188127E+03  0.15151383593E+03  0.00000000000E+00 0. -1.
        -15    1    1    2    0    0  0.14659297091E+02  0.40816023740E+01  0.41224644750E+01  0.15865273760E+02  0.17770000000E+01 0.  1.
         15    1    1    2    0    0 -0.99501851080E+01  0.44783782564E+01 -0.23819332463E+02  0.26259862594E+02  0.17770000000E+01 0. -1.
</event>
<event>
 6    1  0.1097339E-002  0.1832388E+03  0.7546771E-02  0.1067868E+00
        -11   -1    0    0    0    0  0.00000000000E+00  0.00000000000E+00  0.18250000000E+03  0.18250000000E+03  0.00000000000E+00 0.  1.
         11   -1    0    0    0    0 -0.00000000000E+00 -0.00000000000E+00 -0.18250000000E+03  0.18250000000E+03  0.00000000000E+00 0.  1.
        -11    1    1    2    0    0  0.27910728264E+01  0.10672986075E+01  0.18173660164E+03  0.18176116634E+03  0.00000000000E+00 0.  1.
         11    1    1    2    0    0 -0.51256802821E+01 -0.23056425912E+01 -0.13079351467E+03  0.13091421644E+03  0.00000000000E+00 0.  1.
        -15    1    1    2    0    0 -0.26000536455E+01 -0.28891409211E+01 -0.10532067978E+02  0.11366160263E+02  0.17770000000E+01 0.  1.
         15    1    1    2    0    0  0.49346611012E+01  0.41274849049E+01 -0.40411018985E+02  0.40958456957E+02  0.17770000000E+01 0.  1.
</event>
<event>
 6    1  0.1097339E-002  0.1878432E+03  0.7546771E-02  0.1064279E+00
        -11   -1    0    0    0    0  0.00000000000E+00  0.00000000000E+00  0.18250000000E+03  0.18250000000E+03  0.00000000000E+00 0.  1.
         11   -1    0    0    0    0 -0.00000000000E+00 -0.00000000000E+00 -0.18250000000E+03  0.18250000000E+03  0.00000000000E+00 0. -1.
        -11    1    1    2    0    0 -0.24361070180E+01 -0.88473510377E+00  0.15391010638E+03  0.15393192722E+03  0.00000000000E+00 0.  1.
         11    1    1    2    0    0 -0.14279669022E+01  0.20316424169E+01 -0.17713944381E+03  0.17715684919E+03  0.00000000000E+00 0. -1.
        -15    1    1    2    0    0  0.10122199579E+00  0.11444694579E+01  0.27465140989E+02  0.27546537982E+02  0.17770000000E+01 0. -1.
         15    1    1    2    0    0  0.37628519244E+01 -0.22913767710E+01 -0.42358035572E+01  0.63646856079E+01  0.17770000000E+01 0.  1.
</event>
<event>
 6    1  0.1097339E-002  0.1828004E+03  0.7546771E-02  0.1068216E+00
        -11   -1    0    0    0    0  0.00000000000E+00  0.00000000000E+00  0.18250000000E+03  0.18250000000E+03  0.00000000000E+00 0.  1.
         11   -1    0    0    0    0 -0.00000000000E+00 -0.00000000000E+00 -0.18250000000E+03  0.18250000000E+03  0.00000000000E+00 0.  1.
        -11    1    1    2    0    0  0.22457761521E+00  0.25679329107E+01  0.18218139047E+03  0.18219962610E+03  0.00000000000E+00 0.  1.
         11    1    1    2    0    0 -0.90074240534E+00  0.35639515595E+01 -0.13186047560E+03  0.13191170575E+03  0.00000000000E+00 0.  1.
        -15    1    1    2    0    0 -0.41718503843E+00 -0.23707813822E+01 -0.27814398888E+02  0.27974866616E+02  0.17770000000E+01 0.  1.
         15    1    1    2    0    0  0.10933498286E+01 -0.37611030880E+01 -0.22506515983E+02  0.22913801539E+02  0.17770000000E+01 0. -1.
</event>
<event>
 6    1  0.1097339E-002  0.1843964E+03  0.7546771E-02  0.1066955E+00
        -11   -1    0    0    0    0  0.00000000000E+00  0.00000000000E+00  0.18250000000E+03  0.18250000000E+03  0.00000000000E+00 0. -1.
         11   -1    0    0    0    0 -0.00000000000E+00 -0.00000000000E+00 -0.18250000000E+03  0.18250000000E+03  0.00000000000E+00 0.  1.
        -11    1    1    2    0    0  0.68825369102E+00 -0.31839073877E+01  0.18057424987E+03  0.18060362864E+03  0.00000000000E+00 0. -1.
         11    1    1    2    0    0  0.19818304754E+01 -0.80020876340E+00 -0.53087775809E+02  0.53130781346E+02  0.00000000000E+00 0.  1.
        -15    1    1    2    0    0 -0.17410994073E+01  0.24076648768E+01 -0.12848118315E+03  0.12852781967E+03  0.17770000000E+01 0.  1.
         15    1    1    2    0    0 -0.92898475911E+00  0.15764512743E+01  0.99470908561E+00  0.27377703461E+01  0.17770000000E+01 0. -1.
</event>
<event>
 6    1  0.1097339E-002  0.1831476E+03  0.7546771E-02  0.1067940E+00
        -11   -1    0    0    0    0  0.00000000000E+00  0.00000000000E+00  0.18250000000E+03  0.18250000000E+03  0.00000000000E+00 0.  1.
         11   -1    0    0    0    0 -0.00000000000E+00 -0.00000000000E+00 -0.18250000000E+03  0.18250000000E+03  0.00000000000E+00 0. -1.
        -11    1    1    2    0    0 -0.10592085030E+01 -0.30885022042E+01  0.14809724984E+03  0.14813323793E+03  0.00000000000E+00 0.  1.
         11    1    1    2    0    0  0.26578948092E+01 -0.18960314763E+01 -0.18182306087E+03  0.18185237091E+03  0.00000000000E+00 0. -1.
        -15    1    1    2    0    0  0.24310422224E+01  0.14352256922E+01  0.78818771810E+01  0.85587122846E+01  0.17770000000E+01 0.  1.
         15    1    1    2    0    0 -0.40297285285E+01  0.35493079883E+01  0.25843933849E+02  0.26455678880E+02  0.17770000000E+01 0.  1.
</event>
<event>
 6    1  0.1097339E-002  0.1826257E+03  0.7546771E-02  0.1068355E+00
        -11   -1    0    0    0    0  0.00000000000E+00  0.00000000000E+00  0.18250000000E+03  0.18250000000E+03  0.00000000000E+00 0.  1.
         11   -1    0    0    0    0 -0.00000000000E+00 -0.00000000000E+00 -0.18250000000E+03  0.18250000000E+03  0.00000000000E+00 0.  1.
        -11    1    1    2    0    0  0.19310742363E+01 -0.22998867849E+01  0.18234954899E+03  0.18237427599E+03  0.00000000000E+00 0.  1.
         11    1    1    2    0    0 -0.14282660438E+01  0.16592992860E+01 -0.90747079224E+02  0.90773485146E+02  0.00000000000E+00 0.  1.
        -15    1    1    2    0    0 -0.50374657806E+00 -0.23260234256E+01 -0.57018724847E+02  0.57096031891E+02  0.17770000000E+01 0.  1.
         15    1    1    2    0    0  0.93838547798E-03  0.29666109245E+01 -0.34583744920E+02  0.34756206970E+02  0.17770000000E+01 0. -1.
</event>
<event>
 6    1  0.1097339E-002  0.1833751E+03  0.7546771E-02  0.1067760E+00
        -11   -1    0    0    0    0  0.00000000000E+00  0.00000000000E+00  0.18250000000E+03  0.18250000000E+03  0.00000000000E+00 0. -1.
         11   -1    0    0    0    0 -0.00000000000E+00 -0.00000000000E+00 -0.18250000000E+03  0.18250000000E+03  0.00000000000E+00 0.  1.
        -11    1    1    2    0    0 -0.32764477650E+01  0.50876827731E+01  0.11951134483E+03  0.11966445240E+03  0.00000000000E+00 0. -1.
         11    1    1    2    0    0  0.32902402790E+01 -0.96864021142E+00 -0.18159247954E+03  0.18162486771E+03  0.00000000000E+00 0.  1.
        -15    1    1    2    0    0  0.36184225178E+00 -0.87564614269E+01  0.32256466421E+02  0.33473032451E+02  0.17770000000E+01 0. -1.
         15    1    1    2    0    0 -0.37563476580E+00  0.46374188652E+01  0.29824668291E+02  0.30237647443E+02  0.17770000000E+01 0.  1.
</event>
<event>
 6    1  0.1097339E-002  0.1903367E+03  0.7546771E-02  0.1062382E+00
        -11   -1    0    0    0    0  0.00000000000E+00  0.00000000000E+00  0.18250000000E+03  0.18250000000E+03  0.00000000000E+00 0. -1.
         11   -1    0    0    0    0 -0.00000000000E+00 -0.00000000000E+00 -0.18250000000E+03  0.18250000000E+03  0.00000000000E+00 0. -1.
        -11    1    1    2    0    0  0.10040248840E+02  0.14685274495E+02  0.17375497780E+03  0.17466326515E+03  0.00000000000E+00 0. -1.
         11    1    1    2    0    0 -0.20461178509E+01  0.87092322256E+00 -0.15932559908E+03  0.15934111719E+03  0.00000000000E+00 0. -1.
        -15    1    1    2    0    0  0.87982296166E+00 -0.65482464340E+00 -0.13366811932E+02  0.13528942087E+02  0.17770000000E+01 0. -1.
         15    1    1    2    0    0 -0.88739539506E+01 -0.14901373074E+02 -0.10625667902E+01  0.17466675568E+02  0.17770000000E+01 0. -1.
</event>
<event>
 6    1  0.1097339E-002  0.1855384E+03  0.7546771E-02  0.1066062E+00
        -11   -1    0    0    0    0  0.00000000000E+00  0.00000000000E+00  0.18250000000E+03  0.18250000000E+03  0.00000000000E+00 0.  1.
         11   -1    0    0    0    0 -0.00000000000E+00 -0.00000000000E+00 -0.18250000000E+03  0.18250000000E+03  0.00000000000E+00 0. -1.
        -11    1    1    2    0    0  0.13836021286E+01 -0.25230257252E+01  0.13378300998E+03  0.13381395208E+03  0.00000000000E+00 0.  1.
         11    1    1    2    0    0 -0.30755744145E+01  0.54960199656E+00 -0.17943435822E+03  0.17946155613E+03  0.00000000000E+00 0. -1.
        -15    1    1    2    0    0  0.16488605395E+01 -0.10571623020E+01 -0.23841653018E+01  0.35606609495E+01  0.17770000000E+01 0.  1.
         15    1    1    2    0    0  0.43111746453E-01  0.30305860307E+01  0.48035513542E+02  0.48163830834E+02  0.17770000000E+01 0. -1.
</event>
<event>
 6    1  0.1097339E-002  0.1834652E+03  0.7546771E-02  0.1067689E+00
        -11   -1    0    0    0    0  0.00000000000E+00  0.00000000000E+00  0.18250000000E+03  0.18250000000E+03  0.00000000000E+00 0. -1.
         11   -1    0    0    0    0 -0.00000000000E+00 -0.00000000000E+00 -0.18250000000E+03  0.18250000000E+03  0.00000000000E+00 0. -1.
        -11    1    1    2    0    0 -0.22571129960E+00  0.30028733393E+01  0.18150983055E+03  0.18153480873E+03  0.00000000000E+00 0. -1.
         11    1    1    2    0    0  0.11603031081E+01 -0.38207617134E+01 -0.14416076780E+03  0.14421605839E+03  0.00000000000E+00 0. -1.
        -15    1    1    2    0    0 -0.62546766694E+00  0.27603443273E+01 -0.36210212579E+02  0.36364102280E+02  0.17770000000E+01 0. -1.
         15    1    1    2    0    0 -0.30912414152E+00 -0.19424559533E+01 -0.11388501726E+01  0.28850306031E+01  0.17770000000E+01 0.  1.
</event>
<event>
 6    1  0.1097339E-002  0.1855706E+03  0.7546771E-02  0.1066037E+00
        -11   -1    0    0    0    0  0.00000000000E+00  0.00000000000E+00  0.18250000000E+03  0.18250000000E+03  0.00000000000E+00 0. -1.
         11   -1    0    0    0    0 -0.00000000000E+00 -0.00000000000E+00 -0.18250000000E+03  0.18250000000E+03  0.00000000000E+00 0. -1.
        -11    1    1    2    0    0 -0.19623039185E+01  0.19627254194E+01  0.17940794831E+03  0.17942941466E+03  0.00000000000E+00 0. -1.
         11    1    1    2    0    0 -0.19521446706E+01 -0.21685264599E+01 -0.17701641696E+03  0.17704046219E+03  0.00000000000E+00 0. -1.
        -15    1    1    2    0    0  0.79746913366E+00 -0.27234244657E+01 -0.69740955375E-01  0.33489685935E+01  0.17770000000E+01 0. -1.
         15    1    1    2    0    0  0.31169794555E+01  0.29292255062E+01 -0.23217903900E+01  0.51811545632E+01  0.17770000000E+01 0.  1.
</event>
<event>
 6    1  0.1097339E-002  0.1840488E+03  0.7546771E-02  0.1067229E+00
        -11   -1    0    0    0    0  0.00000000000E+00  0.00000000000E+00  0.18250000000E+03  0.18250000000E+03  0.00000000000E+00 0.  1.
         11   -1    0    0    0    0 -0.00000000000E+00 -0.00000000000E+00 -0.18250000000E+03  0.18250000000E+03  0.00000000000E+00 0.  1.
        -11    1    1    2    0    0  0.10396771314E+00  0.61198828761E+01  0.18084762215E+03  0.18095117080E+03  0.00000000000E+00 0.  1.
         11    1    1    2    0    0 -0.33411833421E+01  0.26296164477E+00 -0.14724617717E+03  0.14728431466E+03  0.00000000000E+00 0.  1.
        -15    1    1    2    0    0  0.57344556382E+00 -0.90502435636E+01 -0.29514935037E+02  0.30927736219E+02  0.17770000000E+01 0.  1.
         15    1    1    2    0    0  0.26637700651E+01  0.26673990428E+01 -0.40865099475E+01  0.58367783206E+01  0.17770000000E+01 0.  1.
</event>
<event>
 6    1  0.1097339E-002  0.1911930E+03  0.7546771E-02  0.1061738E+00
        -11   -1    0    0    0    0  0.00000000000E+00  0.00000000000E+00  0.18250000000E+03  0.18250000000E+03  0.00000000000E+00 0.  1.
         11   -1    0    0    0    0 -0.00000000000E+00 -0.00000000000E+00 -0.18250000000E+03  0.18250000000E+03  0.00000000000E+00 0. -1.
        -11    1    1    2    0    0 -0.56293906228E+01 -0.79948252398E+00  0.15679928309E+03  0.15690234029E+03  0.00000000000E+00 0.  1.
         11    1    1    2    0    0 -0.53647006754E+01  0.81495033059E+01 -0.17353295830E+03  0.17380702527E+03  0.00000000000E+00 0. -1.
        -15    1    1    2    0    0  0.77540614412E+01 -0.17295161969E+02  0.84393744106E+01  0.20823757245E+02  0.17770000000E+01 0. -1.
         15    1    1    2    0    0  0.32400298569E+01  0.99451411868E+01  0.82943007932E+01  0.13466877194E+02  0.17770000000E+01 0.  1.
</event>
<event>
 6    1  0.1097339E-002  0.1891685E+03  0.7546771E-02  0.1063267E+00
        -11   -1    0    0    0    0  0.00000000000E+00  0.00000000000E+00  0.18250000000E+03  0.18250000000E+03  0.00000000000E+00 0.  1.
         11   -1    0    0    0    0 -0.00000000000E+00 -0.00000000000E+00 -0.18250000000E+03  0.18250000000E+03  0.00000000000E+00 0. -1.
        -11    1    1    2    0    0  0.21884362587E+01  0.41164383898E+01  0.17359454154E+03  0.17365713107E+03  0.00000000000E+00 0.  1.
         11    1    1    2    0    0 -0.14019329035E+01 -0.30503356922E+01 -0.17579945400E+03  0.17583150454E+03  0.00000000000E+00 0. -1.
        -15    1    1    2    0    0 -0.18311436748E+01  0.49456549969E-01 -0.62429146094E+01  0.67444232466E+01  0.17770000000E+01 0.  1.
         15    1    1    2    0    0  0.10446403196E+01 -0.11155592475E+01  0.84478270645E+01  0.87669411395E+01  0.17770000000E+01 0. -1.
</event>
<event>
 6    1  0.1097339E-002  0.1858227E+03  0.7546771E-02  0.1065840E+00
        -11   -1    0    0    0    0  0.00000000000E+00  0.00000000000E+00  0.18250000000E+03  0.18250000000E+03  0.00000000000E+00 0.  1.
         11   -1    0    0    0    0 -0.00000000000E+00 -0.00000000000E+00 -0.18250000000E+03  0.18250000000E+03  0.00000000000E+00 0.  1.
        -11    1    1    2    0    0 -0.16881453105E+01 -0.19661256548E+01  0.16048678471E+03  0.16050770558E+03  0.00000000000E+00 0.  1.
         11    1    1    2    0    0 -0.55808807373E+01  0.12564708357E+02 -0.17864906230E+03  0.17917730209E+03  0.00000000000E+00 0.  1.
        -15    1    1    2    0    0  0.70351796232E+01 -0.12403414242E+02  0.12264782733E+02  0.18892354583E+02  0.17770000000E+01 0. -1.
         15    1    1    2    0    0  0.23384642466E+00  0.18048315399E+01  0.58974948535E+01  0.64226377435E+01  0.17770000000E+01 0.  1.
</event>
<event>
 6    1  0.1097339E-002  0.1845823E+03  0.7546771E-02  0.1066809E+00
        -11   -1    0    0    0    0  0.00000000000E+00  0.00000000000E+00  0.18250000000E+03  0.18250000000E+03  0.00000000000E+00 0. -1.
         11   -1    0    0    0    0 -0.00000000000E+00 -0.00000000000E+00 -0.18250000000E+03  0.18250000000E+03  0.00000000000E+00 0. -1.
        -11    1    1    2    0    0 -0.25620300244E+01 -0.22453565677E+01  0.18038557245E+03  0.18041773852E+03  0.00000000000E+00 0. -1.
         11    1    1    2    0    0 -0.30785053782E+01  0.23532651659E-01 -0.17577446006E+03  0.17580141797E+03  0.00000000000E+00 0. -1.
        -15    1    1    2    0    0  0.18869388160E+01  0.20695919531E+01 -0.20642572374E+01  0.39067423629E+01  0.17770000000E+01 0. -1.
         15    1    1    2    0    0  0.37535965865E+01  0.15223196292E+00 -0.25468551454E+01  0.48741011517E+01  0.17770000000E+01 0.  1.
</event>
<event>
 6    1  0.1097339E-002  0.1847297E+03  0.7546771E-02  0.1066694E+00
        -11   -1    0    0    0    0  0.00000000000E+00  0.00000000000E+00  0.18250000000E+03  0.18250000000E+03  0.00000000000E+00 0. -1.
         11   -1    0    0    0    0 -0.00000000000E+00 -0.00000000000E+00 -0.18250000000E+03  0.18250000000E+03  0.00000000000E+00 0. -1.
        -11    1    1    2    0    0 -0.41646630710E+01  0.35083143673E+01  0.18018803444E+03  0.18027029829E+03  0.00000000000E+00 0. -1.
         11    1    1    2    0    0  0.42513649173E+01 -0.93858511421E+01 -0.13266351243E+03  0.13306305211E+03  0.00000000000E+00 0. -1.
        -15    1    1    2    0    0  0.83756223010E+01  0.19087127339E+00 -0.12554748592E+02  0.15197595928E+02  0.17770000000E+01 0. -1.
         15    1    1    2    0    0 -0.84623241473E+01  0.56866655015E+01 -0.34969773414E+02  0.36469053677E+02  0.17770000000E+01 0.  1.
</event>
<event>
 6    1  0.1097339E-002  0.1828792E+03  0.7546771E-02  0.1068153E+00
        -11   -1    0    0    0    0  0.00000000000E+00  0.00000000000E+00  0.18250000000E+03  0.18250000000E+03  0.00000000000E+00 0. -1.
         11   -1    0    0    0    0 -0.00000000000E+00 -0.00000000000E+00 -0.18250000000E+03  0.18250000000E+03  0.00000000000E+00 0. -1.
        -11    1    1    2    0    0 -0.10738981832E+01 -0.40109536887E+01  0.13896229782E+03  0.13902431881E+03  0.00000000000E+00 0. -1.
         11    1    1    2    0    0 -0.31453149339E+01  0.12123547352E+01 -0.18208962684E+03  0.18212082531E+03  0.00000000000E+00 0. -1.
        -15    1    1    2    0    0  0.11796054387E+01  0.68662947845E+00  0.46780711558E+01  0.51870037372E+01  0.17770000000E+01 0.  1.
         15    1    1    2    0    0  0.30396076785E+01  0.21119694751E+01  0.38449257865E+02  0.38667852142E+02  0.17770000000E+01 0. -1.
</event>
<event>
 6    1  0.1097339E-002  0.1860461E+03  0.7546771E-02  0.1065667E+00
        -11   -1    0    0    0    0  0.00000000000E+00  0.00000000000E+00  0.18250000000E+03  0.18250000000E+03  0.00000000000E+00 0. -1.
         11   -1    0    0    0    0 -0.00000000000E+00 -0.00000000000E+00 -0.18250000000E+03  0.18250000000E+03  0.00000000000E+00 0.  1.
        -11    1    1    2    0    0 -0.58761921678E+01  0.27982185937E+01  0.17883548224E+03  0.17895387498E+03  0.00000000000E+00 0. -1.
         11    1    1    2    0    0  0.10166394534E+01  0.31108842690E+01 -0.17051628528E+03  0.17054769041E+03  0.00000000000E+00 0.  1.
        -15    1    1    2    0    0  0.39850285708E-01  0.11983372641E+01 -0.60811448945E+01  0.64479184604E+01  0.17770000000E+01 0. -1.
         15    1    1    2    0    0  0.48197024286E+01 -0.71074401268E+01 -0.22380520617E+01  0.90505161559E+01  0.17770000000E+01 0. -1.
</event>
<event>
 6    1  0.1097339E-002  0.1891421E+03  0.7546771E-02  0.1063287E+00
        -11   -1    0    0    0    0  0.00000000000E+00  0.00000000000E+00  0.18250000000E+03  0.18250000000E+03  0.00000000000E+00 0.  1.
         11   -1    0    0    0    0 -0.00000000000E+00 -0.00000000000E+00 -0.18250000000E+03  0.18250000000E+03  0.00000000000E+00 0. -1.
        -11    1    1    2    0    0  0.93866111389E+01 -0.19084052551E+01  0.15577221306E+03  0.15606643727E+03  0.00000000000E+00 0.  1.
         11    1    1    2    0    0  0.39945589192E+01 -0.15490243654E+01 -0.17580567886E+03  0.17585787641E+03  0.00000000000E+00 0. -1.
        -15    1    1    2    0    0 -0.26649542409E+00 -0.79652730760E+01  0.10030720444E+02  0.12934051052E+02  0.17770000000E+01 0.  1.
         15    1    1    2    0    0 -0.13114674634E+02  0.11422702697E+02  0.10002745354E+02  0.20141635268E+02  0.17770000000E+01 0. -1.
</event>
<event>
 6    1  0.1097339E-002  0.1839464E+03  0.7546771E-02  0.1067309E+00
        -11   -1    0    0    0    0  0.00000000000E+00  0.00000000000E+00  0.18250000000E+03  0.18250000000E+03  0.00000000000E+00 0. -1.
         11   -1    0    0    0    0 -0.00000000000E+00 -0.00000000000E+00 -0.18250000000E+03  0.18250000000E+03  0.00000000000E+00 0. -1.
        -11    1    1    2    0    0  0.76788793526E+01  0.51809500448E+01  0.18081647292E+03  0.18105359513E+03  0.00000000000E+00 0. -1.
         11    1    1    2    0    0 -0.16468700685E+01 -0.18158445294E+01 -0.16243387423E+03  0.16245237138E+03  0.00000000000E+00 0. -1.
        -15    1    1    2    0    0 -0.76514610172E+01 -0.36458017180E+01 -0.13402900653E+02  0.15957199027E+02  0.17770000000E+01 0. -1.
         15    1    1    2    0    0  0.16194517332E+01  0.28069620256E+00 -0.49796980378E+01  0.55368344586E+01  0.17770000000E+01 0.  1.
</event>
<event>
 6    1  0.1097339E-002  0.1834032E+03  0.7546771E-02  0.1067738E+00
        -11   -1    0    0    0    0  0.00000000000E+00  0.00000000000E+00  0.18250000000E+03  0.18250000000E+03  0.00000000000E+00 0.  1.
         11   -1    0    0    0    0 -0.00000000000E+00 -0.00000000000E+00 -0.18250000000E+03  0.18250000000E+03  0.00000000000E+00 0.  1.
        -11    1    1    2    0    0 -0.53956801807E+01 -0.65740879984E+01  0.18139754225E+03  0.18159680705E+03  0.00000000000E+00 0.  1.
         11    1    1    2    0    0  0.27140303868E+01  0.18647334813E+01 -0.93209065723E+02  0.93267213558E+02  0.00000000000E+00 0.  1.
        -15    1    1    2    0    0  0.25284560608E+01  0.55194481137E+01 -0.87933243611E+02  0.88160481274E+02  0.17770000000E+01 0.  1.
         15    1    1    2    0    0  0.15319373311E+00 -0.81009359659E+00 -0.25523291642E+00  0.19754981136E+01  0.17770000000E+01 0.  1.
</event>
<event>
 6    1  0.1097339E-002  0.1843997E+03  0.7546771E-02  0.1066953E+00
        -11   -1    0    0    0    0  0.00000000000E+00  0.00000000000E+00  0.18250000000E+03  0.18250000000E+03  0.00000000000E+00 0.  1.
         11   -1    0    0    0    0 -0.00000000000E+00 -0.00000000000E+00 -0.18250000000E+03  0.18250000000E+03  0.00000000000E+00 0. -1.
        -11    1    1    2    0    0 -0.40484824254E+00 -0.22327500407E+01  0.13530091795E+03  0.13531994485E+03  0.00000000000E+00 0.  1.
         11    1    1    2    0    0  0.15128628345E+01 -0.27744066681E+01 -0.18057263872E+03  0.18060028777E+03  0.00000000000E+00 0. -1.
        -15    1    1    2    0    0 -0.68079720875E+01 -0.25554203620E+01  0.30779934155E+02  0.31677132647E+02  0.17770000000E+01 0.  1.
         15    1    1    2    0    0  0.56999574955E+01  0.75625770708E+01  0.14491786617E+02  0.17402634736E+02  0.17770000000E+01 0. -1.
</event>
<event>
 6    1  0.1097339E-002  0.1791769E+03  0.7546771E-02  0.1071131E+00
        -11   -1    0    0    0    0  0.00000000000E+00  0.00000000000E+00  0.18250000000E+03  0.18250000000E+03  0.00000000000E+00 0.  1.
         11   -1    0    0    0    0 -0.00000000000E+00 -0.00000000000E+00 -0.18250000000E+03  0.18250000000E+03  0.00000000000E+00 0. -1.
        -11    1    1    2    0    0 -0.36435756062E+01  0.11314884542E+01  0.17854430888E+03  0.17858506696E+03  0.00000000000E+00 0.  1.
         11    1    1    2    0    0  0.73563991058E+00  0.24721977578E+01 -0.17978221230E+03  0.17980071409E+03  0.00000000000E+00 0. -1.
        -15    1    1    2    0    0  0.27154311384E+01 -0.14837571778E+01 -0.22355827603E-01  0.35683792418E+01  0.17770000000E+01 0.  1.
         15    1    1    2    0    0  0.19250455717E+00 -0.21199290342E+01  0.12602592497E+01  0.30458397021E+01  0.17770000000E+01 0. -1.
</event>
<event>
 6    1  0.1097339E-002  0.1856709E+03  0.7546771E-02  0.1065958E+00
        -11   -1    0    0    0    0  0.00000000000E+00  0.00000000000E+00  0.18250000000E+03  0.18250000000E+03  0.00000000000E+00 0.  1.
         11   -1    0    0    0    0 -0.00000000000E+00 -0.00000000000E+00 -0.18250000000E+03  0.18250000000E+03  0.00000000000E+00 0. -1.
        -11    1    1    2    0    0  0.12907202929E+02  0.25822140364E-01  0.93443473114E+02  0.94330690774E+02  0.00000000000E+00 0.  1.
         11    1    1    2    0    0  0.11568972819E+02 -0.87813644664E+01 -0.17873996750E+03  0.17932910939E+03  0.00000000000E+00 0. -1.
        -15    1    1    2    0    0 -0.12561987291E+02  0.13419563643E+02  0.37092970255E+02  0.41435906946E+02  0.17770000000E+01 0.  1.
         15    1    1    2    0    0 -0.11914188457E+02 -0.46640213165E+01  0.48203524128E+02  0.49904292889E+02  0.17770000000E+01 0. -1.
</event>
<event>
 6    1  0.1097339E-002  0.1836397E+03  0.7546771E-02  0.1067551E+00
        -11   -1    0    0    0    0  0.00000000000E+00  0.00000000000E+00  0.18250000000E+03  0.18250000000E+03  0.00000000000E+00 0.  1.
         11   -1    0    0    0    0 -0.00000000000E+00 -0.00000000000E+00 -0.18250000000E+03  0.18250000000E+03  0.00000000000E+00 0. -1.
        -11    1    1    2    0    0  0.10421320915E+01  0.42214206975E+01  0.17763906092E+03  0.17769226881E+03  0.00000000000E+00 0.  1.
         11    1    1    2    0    0 -0.15490547765E+00 -0.27997605966E+01 -0.18133861476E+03  0.18136029295E+03  0.00000000000E+00 0. -1.
        -15    1    1    2    0    0 -0.10235981009E+01  0.41955478373E+00  0.17261237621E+01  0.27131184145E+01  0.17770000000E+01 0. -1.
         15    1    1    2    0    0  0.13637148708E+00 -0.18412148846E+01  0.19734300843E+01  0.32343198252E+01  0.17770000000E+01 0.  1.
</event>
<event>
 6    1  0.1097339E-002  0.1864415E+03  0.7546771E-02  0.1065360E+00
        -11   -1    0    0    0    0  0.00000000000E+00  0.00000000000E+00  0.18250000000E+03  0.18250000000E+03  0.00000000000E+00 0.  1.
         11   -1    0    0    0    0 -0.00000000000E+00 -0.00000000000E+00 -0.18250000000E+03  0.18250000000E+03  0.00000000000E+00 0. -1.
        -11    1    1    2    0    0 -0.31521995901E+01 -0.63037658484E+00  0.17493178146E+03  0.17496131544E+03  0.00000000000E+00 0.  1.
         11    1    1    2    0    0 -0.87043650410E+00  0.28051864339E+01 -0.17853433546E+03  0.17855849369E+03  0.00000000000E+00 0. -1.
        -15    1    1    2    0    0  0.53119073387E+01  0.19787431599E+01  0.32437893981E+01  0.67684328117E+01  0.17770000000E+01 0.  1.
         15    1    1    2    0    0 -0.12892712445E+01 -0.41535530090E+01  0.35876460694E+00  0.47117580565E+01  0.17770000000E+01 0. -1.
</event>
<event>
 6    1  0.1097339E-002  0.1758824E+03  0.7546771E-02  0.1073848E+00
        -11   -1    0    0    0    0  0.00000000000E+00  0.00000000000E+00  0.18250000000E+03  0.18250000000E+03  0.00000000000E+00 0. -1.
         11   -1    0    0    0    0 -0.00000000000E+00 -0.00000000000E+00 -0.18250000000E+03  0.18250000000E+03  0.00000000000E+00 0. -1.
        -11    1    1    2    0    0 -0.15846577326E+01  0.34374054191E+01  0.17790293896E+03  0.17794320045E+03  0.00000000000E+00 0. -1.
         11    1    1    2    0    0 -0.22776410703E+01  0.31197509977E+01 -0.17388393782E+03  0.17392683613E+03  0.00000000000E+00 0. -1.
        -15    1    1    2    0    0  0.15832729071E+01 -0.42614026420E+00  0.26735183979E+01  0.36046883703E+01  0.17770000000E+01 0.  1.
         15    1    1    2    0    0  0.22790258958E+01 -0.61310161526E+01 -0.66925195345E+01  0.95252750521E+01  0.17770000000E+01 0. -1.
</event>
<event>
 6    1  0.1097339E-002  0.1833161E+03  0.7546771E-02  0.1067807E+00
        -11   -1    0    0    0    0  0.00000000000E+00  0.00000000000E+00  0.18250000000E+03  0.18250000000E+03  0.00000000000E+00 0. -1.
         11   -1    0    0    0    0 -0.00000000000E+00 -0.00000000000E+00 -0.18250000000E+03  0.18250000000E+03  0.00000000000E+00 0.  1.
        -11    1    1    2    0    0 -0.22108252964E+01 -0.38883433469E+00  0.16514442291E+03  0.16515967837E+03  0.00000000000E+00 0. -1.
         11    1    1    2    0    0 -0.52695732512E+00  0.30071423785E+01 -0.18165828871E+03  0.18168394108E+03  0.00000000000E+00 0.  1.
        -15    1    1    2    0    0  0.10380570736E+01 -0.21307722271E+01  0.14861612960E+02  0.15153977087E+02  0.17770000000E+01 0.  1.
         15    1    1    2    0    0  0.16997255479E+01 -0.48753581674E+00  0.16522528431E+01  0.30024034653E+01  0.17770000000E+01 0. -1.
</event>
<event>
 6    1  0.1097339E-002  0.1939934E+03  0.7546771E-02  0.1059657E+00
        -11   -1    0    0    0    0  0.00000000000E+00  0.00000000000E+00  0.18250000000E+03  0.18250000000E+03  0.00000000000E+00 0. -1.
         11   -1    0    0    0    0 -0.00000000000E+00 -0.00000000000E+00 -0.18250000000E+03  0.18250000000E+03  0.00000000000E+00 0.  1.
        -11    1    1    2    0    0  0.26819724873E+01 -0.22175163412E+01  0.16462645227E+03  0.16466322948E+03  0.00000000000E+00 0. -1.
         11    1    1    2    0    0 -0.14418775659E+01 -0.43862788356E+01 -0.17094424607E+03  0.17100658969E+03  0.00000000000E+00 0.  1.
        -15    1    1    2    0    0 -0.32698927210E+01  0.57103061104E+01  0.16979370511E+02  0.18296353359E+02  0.17770000000E+01 0. -1.
         15    1    1    2    0    0  0.20297977996E+01  0.89348906641E+00 -0.10661576713E+02  0.11033827479E+02  0.17770000000E+01 0.  1.
</event>
<event>
 6    1  0.1097339E-002  0.1830992E+03  0.7546771E-02  0.1067979E+00
        -11   -1    0    0    0    0  0.00000000000E+00  0.00000000000E+00  0.18250000000E+03  0.18250000000E+03  0.00000000000E+00 0. -1.
         11   -1    0    0    0    0 -0.00000000000E+00 -0.00000000000E+00 -0.18250000000E+03  0.18250000000E+03  0.00000000000E+00 0. -1.
        -11    1    1    2    0    0  0.42540778614E+00 -0.23222679326E+01  0.13802677010E+03  0.13804696000E+03  0.00000000000E+00 0. -1.
         11    1    1    2    0    0  0.41381027335E+01 -0.10273995639E+01 -0.18185085153E+03  0.18190082915E+03  0.00000000000E+00 0. -1.
        -15    1    1    2    0    0 -0.48857088921E+01  0.72785471828E+00  0.38443968529E+02  0.38800726400E+02  0.17770000000E+01 0. -1.
         15    1    1    2    0    0  0.32219837254E+00  0.26218127783E+01  0.53801128968E+01  0.62514844491E+01  0.17770000000E+01 0.  1.
</event>
<event>
 6    1  0.1097339E-002  0.1826778E+03  0.7546771E-02  0.1068313E+00
        -11   -1    0    0    0    0  0.00000000000E+00  0.00000000000E+00  0.18250000000E+03  0.18250000000E+03  0.00000000000E+00 0.  1.
         11   -1    0    0    0    0 -0.00000000000E+00 -0.00000000000E+00 -0.18250000000E+03  0.18250000000E+03  0.00000000000E+00 0. -1.
        -11    1    1    2    0    0  0.16625849395E+01 -0.19106034766E+01  0.12505831575E+03  0.12508395954E+03  0.00000000000E+00 0.  1.
         11    1    1    2    0    0 -0.20133227280E+01  0.36168642614E+01 -0.18227521283E+03  0.18232221035E+03  0.00000000000E+00 0. -1.
        -15    1    1    2    0    0  0.12945766829E+01 -0.26407354856E+01  0.18698901070E+02  0.19011997342E+02  0.17770000000E+01 0. -1.
         15    1    1    2    0    0 -0.94383889448E+00  0.93447470086E+00  0.38517996005E+02  0.38581832772E+02  0.17770000000E+01 0.  1.
</event>
<event>
 6    1  0.1097339E-002  0.1842794E+03  0.7546771E-02  0.1067047E+00
        -11   -1    0    0    0    0  0.00000000000E+00  0.00000000000E+00  0.18250000000E+03  0.18250000000E+03  0.00000000000E+00 0. -1.
         11   -1    0    0    0    0 -0.00000000000E+00 -0.00000000000E+00 -0.18250000000E+03  0.18250000000E+03  0.00000000000E+00 0.  1.
        -11    1    1    2    0    0  0.18160691425E+01 -0.28455176879E+01  0.18068903313E+03  0.18072056267E+03  0.00000000000E+00 0. -1.
         11    1    1    2    0    0  0.33024279141E+01 -0.55452267368E+01 -0.15452787772E+03  0.15466260234E+03  0.00000000000E+00 0.  1.
        -15    1    1    2    0    0 -0.36088233967E+01  0.69134610452E+01 -0.25572844486E+02  0.26794545229E+02  0.17770000000E+01 0.  1.
         15    1    1    2    0    0 -0.15096736599E+01  0.14772833795E+01 -0.58831092391E+00  0.28222897594E+01  0.17770000000E+01 0. -1.
</event>
<event>
 6    1  0.1908730E-002  0.1826317E+03  0.7546771E-02  0.1068350E+00
        -11   -1    0    0    0    0  0.00000000000E+00  0.00000000000E+00  0.18250000000E+03  0.18250000000E+03  0.00000000000E+00 0.  1.
         11   -1    0    0    0    0 -0.00000000000E+00 -0.00000000000E+00 -0.18250000000E+03  0.18250000000E+03  0.00000000000E+00 0. -1.
        -11    1    1    2    0    0 -0.39868647614E+01 -0.13974874925E+01  0.18231939858E+03  0.18236833925E+03  0.00000000000E+00 0.  1.
         11    1    1    2    0    0 -0.17535490982E+00  0.11959211091E+01 -0.57056485918E+02  0.57069287380E+02  0.00000000000E+00 0. -1.
        -15    1    1    2    0    0  0.34028484056E+01  0.17968623843E-01 -0.26133762733E+02  0.26414219347E+02  0.17770000000E+01 0.  1.
         15    1    1    2    0    0  0.75937126566E+00  0.18359775951E+00 -0.99129149926E+02  0.99148154026E+02  0.17770000000E+01 0. -1.
</event>
<event>
 6    1  0.1097339E-002  0.1860009E+03  0.7546771E-02  0.1065702E+00
        -11   -1    0    0    0    0  0.00000000000E+00  0.00000000000E+00  0.18250000000E+03  0.18250000000E+03  0.00000000000E+00 0.  1.
         11   -1    0    0    0    0 -0.00000000000E+00 -0.00000000000E+00 -0.18250000000E+03  0.18250000000E+03  0.00000000000E+00 0. -1.
        -11    1    1    2    0    0 -0.39488069441E+01 -0.34549277652E+01  0.11308108434E+03  0.11320274395E+03  0.00000000000E+00 0.  1.
         11    1    1    2    0    0  0.18877629200E+02 -0.17874815980E+02 -0.17710111365E+03  0.17899910163E+03  0.00000000000E+00 0. -1.
        -15    1    1    2    0    0  0.48106915956E+01  0.76518766939E+01  0.27946465335E+02  0.29425441785E+02  0.17770000000E+01 0.  1.
         15    1    1    2    0    0 -0.19739513852E+02  0.13677867051E+02  0.36073563975E+02  0.43372712632E+02  0.17770000000E+01 0. -1.
</event>
<event>
 6    1  0.1097339E-002  0.1841960E+03  0.7546771E-02  0.1067113E+00
        -11   -1    0    0    0    0  0.00000000000E+00  0.00000000000E+00  0.18250000000E+03  0.18250000000E+03  0.00000000000E+00 0. -1.
         11   -1    0    0    0    0 -0.00000000000E+00 -0.00000000000E+00 -0.18250000000E+03  0.18250000000E+03  0.00000000000E+00 0. -1.
        -11    1    1    2    0    0 -0.27385121483E+01  0.55427733300E+01  0.18069827390E+03  0.18080400431E+03  0.00000000000E+00 0. -1.
         11    1    1    2    0    0  0.30910238852E+01 -0.10945408432E+01 -0.17492682390E+03  0.17495755533E+03  0.00000000000E+00 0. -1.
        -15    1    1    2    0    0 -0.87580423238E+00 -0.44731873432E+01 -0.25368835645E+01  0.55108933287E+01  0.17770000000E+01 0. -1.
         15    1    1    2    0    0  0.52329249551E+00  0.24954856460E-01 -0.32345664391E+01  0.37275470258E+01  0.17770000000E+01 0.  1.
</event>
<event>
 6    1  0.1097339E-002  0.1907809E+03  0.7546771E-02  0.1062048E+00
        -11   -1    0    0    0    0  0.00000000000E+00  0.00000000000E+00  0.18250000000E+03  0.18250000000E+03  0.00000000000E+00 0.  1.
         11   -1    0    0    0    0 -0.00000000000E+00 -0.00000000000E+00 -0.18250000000E+03  0.18250000000E+03  0.00000000000E+00 0.  1.
        -11    1    1    2    0    0  0.79329053503E+01  0.16040331992E+02  0.17329759024E+03  0.17421905183E+03  0.00000000000E+00 0.  1.
         11    1    1    2    0    0  0.32818207185E+01  0.42365932793E+01 -0.13978260395E+03  0.13988529385E+03  0.00000000000E+00 0.  1.
        -15    1    1    2    0    0  0.33984794948E+01 -0.11340050931E+02  0.13128385347E+01  0.12042744373E+02  0.17770000000E+01 0.  1.
         15    1    1    2    0    0 -0.14613205564E+02 -0.89368743401E+01 -0.34827824830E+02  0.38852909945E+02  0.17770000000E+01 0. -1.
</event>
<event>
 6    1  0.1097339E-002  0.1826933E+03  0.7546771E-02  0.1068301E+00
        -11   -1    0    0    0    0  0.00000000000E+00  0.00000000000E+00  0.18250000000E+03  0.18250000000E+03  0.00000000000E+00 0.  1.
         11   -1    0    0    0    0 -0.00000000000E+00 -0.00000000000E+00 -0.18250000000E+03  0.18250000000E+03  0.00000000000E+00 0.  1.
        -11    1    1    2    0    0 -0.27739473249E+01  0.11547163328E+01  0.18228194479E+03  0.18230670737E+03  0.00000000000E+00 0.  1.
         11    1    1    2    0    0  0.21866816379E+01  0.48176819075E+00 -0.13838016533E+03  0.13839827974E+03  0.00000000000E+00 0.  1.
        -15    1    1    2    0    0  0.18751720861E+01 -0.24373768035E+01 -0.26917629873E+02  0.27150941108E+02  0.17770000000E+01 0. -1.
         15    1    1    2    0    0 -0.12879063991E+01  0.80089227993E+00 -0.16984149583E+02  0.17144071786E+02  0.17770000000E+01 0.  1.
</event>
<event>
 6    1  0.1097339E-002  0.1860145E+03  0.7546771E-02  0.1065691E+00
        -11   -1    0    0    0    0  0.00000000000E+00  0.00000000000E+00  0.18250000000E+03  0.18250000000E+03  0.00000000000E+00 0. -1.
         11   -1    0    0    0    0 -0.00000000000E+00 -0.00000000000E+00 -0.18250000000E+03  0.18250000000E+03  0.00000000000E+00 0.  1.
        -11    1    1    2    0    0 -0.28960596543E+01 -0.51114160873E+01  0.10399501138E+02  0.11944176818E+02  0.00000000000E+00 0. -1.
         11    1    1    2    0    0  0.22305929433E+01 -0.20334139247E+01 -0.17896001425E+03  0.17898546594E+03  0.00000000000E+00 0.  1.
        -15    1    1    2    0    0  0.29424093226E+01  0.53892621851E+01  0.17019564781E+03  0.17031564280E+03  0.17770000000E+01 0. -1.
         15    1    1    2    0    0 -0.22769426116E+01  0.17555678269E+01 -0.16351347040E+01  0.37547144434E+01  0.17770000000E+01 0. -1.
</event>
<event>
 6    1  0.1097339E-002  0.1887496E+03  0.7546771E-02  0.1063586E+00
        -11   -1    0    0    0    0  0.00000000000E+00  0.00000000000E+00  0.18250000000E+03  0.18250000000E+03  0.00000000000E+00 0. -1.
         11   -1    0    0    0    0 -0.00000000000E+00 -0.00000000000E+00 -0.18250000000E+03  0.18250000000E+03  0.00000000000E+00 0.  1.
        -11    1    1    2    0    0 -0.36567207895E+00 -0.30293083261E+01  0.15667424742E+03  0.15670395729E+03  0.00000000000E+00 0. -1.
         11    1    1    2    0    0  0.60807514185E+01 -0.29259126380E+01 -0.17612121788E+03  0.17625044650E+03  0.00000000000E+00 0.  1.
        -15    1    1    2    0    0 -0.35656086534E+01  0.52631518228E+01  0.24965698587E+02  0.25823597099E+02  0.17770000000E+01 0.  1.
         15    1    1    2    0    0 -0.21494706861E+01  0.69206914131E+00 -0.55187281238E+01  0.62219991185E+01  0.17770000000E+01 0. -1.
</event>
<event>
 6    1  0.1097339E-002  0.1846630E+03  0.7546771E-02  0.1066746E+00
        -11   -1    0    0    0    0  0.00000000000E+00  0.00000000000E+00  0.18250000000E+03  0.18250000000E+03  0.00000000000E+00 0.  1.
         11   -1    0    0    0    0 -0.00000000000E+00 -0.00000000000E+00 -0.18250000000E+03  0.18250000000E+03  0.00000000000E+00 0. -1.
        -11    1    1    2    0    0 -0.95911587144E+01  0.57094071316E+01  0.12248968423E+03  0.12299719671E+03  0.00000000000E+00 0.  1.
         11    1    1    2    0    0 -0.66337097058E+01 -0.23107891291E+01 -0.18020009470E+03  0.18033696233E+03  0.00000000000E+00 0. -1.
        -15    1    1    2    0    0  0.49731051908E+01  0.40122922929E+00  0.39494272586E+02  0.39847811185E+02  0.17770000000E+01 0.  1.
         15    1    1    2    0    0  0.11251763229E+02 -0.37998472318E+01  0.18216137886E+02  0.21818029774E+02  0.17770000000E+01 0. -1.
</event>
<event>
 6    1  0.1097339E-002  0.1832254E+03  0.7546771E-02  0.1067879E+00
        -11   -1    0    0    0    0  0.00000000000E+00  0.00000000000E+00  0.18250000000E+03  0.18250000000E+03  0.00000000000E+00 0.  1.
         11   -1    0    0    0    0 -0.00000000000E+00 -0.00000000000E+00 -0.18250000000E+03  0.18250000000E+03  0.00000000000E+00 0.  1.
        -11    1    1    2    0    0 -0.33496244737E+01  0.44909974163E+01  0.18168823678E+03  0.18177459786E+03  0.00000000000E+00 0.  1.
         11    1    1    2    0    0 -0.22681200188E+01 -0.22837216837E+01 -0.85189047943E+02  0.85249830748E+02  0.00000000000E+00 0.  1.
        -15    1    1    2    0    0 -0.29313851125E+01  0.13934142691E+01 -0.64788582421E+01  0.74610961074E+01  0.17770000000E+01 0.  1.
         15    1    1    2    0    0  0.85491296049E+01 -0.36006900017E+01 -0.90020330600E+02  0.90514475283E+02  0.17770000000E+01 0. -1.
</event>
<event>
 6    1  0.1097339E-002  0.1863469E+03  0.7546771E-02  0.1065433E+00
        -11   -1    0    0    0    0  0.00000000000E+00  0.00000000000E+00  0.18250000000E+03  0.18250000000E+03  0.00000000000E+00 0.  1.
         11   -1    0    0    0    0 -0.00000000000E+00 -0.00000000000E+00 -0.18250000000E+03  0.18250000000E+03  0.00000000000E+00 0. -1.
        -11    1    1    2    0    0  0.21559164943E+01  0.19788325660E+01  0.17283216907E+03  0.17285694206E+03  0.00000000000E+00 0.  1.
         11    1    1    2    0    0  0.29607831207E+01  0.57999929715E+00 -0.17862766602E+03  0.17865314356E+03  0.00000000000E+00 0. -1.
        -15    1    1    2    0    0 -0.28626328182E+01 -0.62375737815E+01  0.17210197639E+01  0.72953157135E+01  0.17770000000E+01 0.  1.
         15    1    1    2    0    0 -0.22540667968E+01  0.36787419183E+01  0.40744771875E+01  0.61945986615E+01  0.17770000000E+01 0. -1.
</event>
<event>
 6    1  0.1097339E-002  0.1849521E+03  0.7546771E-02  0.1066520E+00
        -11   -1    0    0    0    0  0.00000000000E+00  0.00000000000E+00  0.18250000000E+03  0.18250000000E+03  0.00000000000E+00 0. -1.
         11   -1    0    0    0    0 -0.00000000000E+00 -0.00000000000E+00 -0.18250000000E+03  0.18250000000E+03  0.00000000000E+00 0.  1.
        -11    1    1    2    0    0  0.81745560022E+01 -0.30252698417E+01  0.17983680215E+03  0.18004791315E+03  0.00000000000E+00 0. -1.
         11    1    1    2    0    0 -0.32739501448E+01 -0.25594038534E+01 -0.14573277646E+03  0.14579201429E+03  0.00000000000E+00 0.  1.
        -15    1    1    2    0    0 -0.35258674840E+01  0.23225287635E+01  0.24126094633E+00  0.45871360582E+01  0.17770000000E+01 0. -1.
         15    1    1    2    0    0 -0.13747383734E+01  0.32621449316E+01 -0.34345286633E+02  0.34572936498E+02  0.17770000000E+01 0.  1.
</event>
<event>
 6    1  0.1097339E-002  0.1392789E+03  0.7546771E-02  0.1109248E+00
        -11   -1    0    0    0    0  0.00000000000E+00  0.00000000000E+00  0.18250000000E+03  0.18250000000E+03  0.00000000000E+00 0. -1.
         11   -1    0    0    0    0 -0.00000000000E+00 -0.00000000000E+00 -0.18250000000E+03  0.18250000000E+03  0.00000000000E+00 0.  1.
        -11    1    1    2    0    0  0.32388591528E+01  0.47406600545E+01  0.19579499154E+02  0.20403942106E+02  0.00000000000E+00 0. -1.
         11    1    1    2    0    0  0.37681704181E+02  0.60706173013E+02 -0.11155212859E+03  0.13247274310E+03  0.00000000000E+00 0.  1.
        -15    1    1    2    0    0 -0.19109266272E+02 -0.29935047051E+02 -0.51570940274E+02  0.62641764895E+02  0.17770000000E+01 0.  1.
         15    1    1    2    0    0 -0.21811297061E+02 -0.35511786017E+02  0.14354356971E+03  0.14948154990E+03  0.17770000000E+01 0. -1.
</event>
<event>
 6    1  0.1097339E-002  0.1863509E+03  0.7546771E-02  0.1065430E+00
        -11   -1    0    0    0    0  0.00000000000E+00  0.00000000000E+00  0.18250000000E+03  0.18250000000E+03  0.00000000000E+00 0. -1.
         11   -1    0    0    0    0 -0.00000000000E+00 -0.00000000000E+00 -0.18250000000E+03  0.18250000000E+03  0.00000000000E+00 0. -1.
        -11    1    1    2    0    0  0.25441649411E+01 -0.37274795076E+01  0.16754575452E+03  0.16760652355E+03  0.00000000000E+00 0. -1.
         11    1    1    2    0    0 -0.34986997482E+01 -0.23868450728E+00 -0.17861464165E+03  0.17864906404E+03  0.00000000000E+00 0. -1.
        -15    1    1    2    0    0 -0.56931472981E+01  0.90322905426E+00  0.91711114918E+01  0.10977010699E+02  0.17770000000E+01 0.  1.
         15    1    1    2    0    0  0.66476821052E+01  0.30629349606E+01  0.18977756411E+01  0.77674017103E+01  0.17770000000E+01 0.  1.
</event>
<event>
 6    1  0.1097339E-002  0.1839909E+03  0.7546771E-02  0.1067274E+00
        -11   -1    0    0    0    0  0.00000000000E+00  0.00000000000E+00  0.18250000000E+03  0.18250000000E+03  0.00000000000E+00 0.  1.
         11   -1    0    0    0    0 -0.00000000000E+00 -0.00000000000E+00 -0.18250000000E+03  0.18250000000E+03  0.00000000000E+00 0. -1.
        -11    1    1    2    0    0 -0.14686460327E+01  0.18046291534E+01  0.15998952600E+03  0.16000644374E+03  0.00000000000E+00 0.  1.
         11    1    1    2    0    0 -0.20906678205E+01  0.19813505896E+01 -0.18098622972E+03  0.18100914891E+03  0.00000000000E+00 0. -1.
        -15    1    1    2    0    0  0.58060839813E-01 -0.59456749399E+01  0.16533363129E+02  0.17659678562E+02  0.17770000000E+01 0.  1.
         15    1    1    2    0    0  0.35012530134E+01  0.21596951968E+01  0.44633405913E+01  0.63247287879E+01  0.17770000000E+01 0. -1.
</event>
<event>
 6    1  0.1097339E-002  0.1773135E+03  0.7546771E-02  0.1072660E+00
        -11   -1    0    0    0    0  0.00000000000E+00  0.00000000000E+00  0.18250000000E+03  0.18250000000E+03  0.00000000000E+00 0.  1.
         11   -1    0    0    0    0 -0.00000000000E+00 -0.00000000000E+00 -0.18250000000E+03  0.18250000000E+03  0.00000000000E+00 0.  1.
        -11    1    1    2    0    0  0.43063723963E+01 -0.11461853366E+01  0.17681665836E+03  0.17687280530E+03  0.00000000000E+00 0.  1.
         11    1    1    2    0    0 -0.21588937625E+00  0.30535684254E+01 -0.17775772813E+03  0.17778408478E+03  0.00000000000E+00 0.  1.
        -15    1    1    2    0    0 -0.62836987737E+01 -0.15730506749E+01 -0.11495691278E+01  0.68145870663E+01  0.17770000000E+01 0.  1.
         15    1    1    2    0    0  0.21932157537E+01 -0.33433241380E+00  0.20906389054E+01  0.35285228550E+01  0.17770000000E+01 0. -1.
</event>
<event>
 6    1  0.1097339E-002  0.1825683E+03  0.7546771E-02  0.1068400E+00
        -11   -1    0    0    0    0  0.00000000000E+00  0.00000000000E+00  0.18250000000E+03  0.18250000000E+03  0.00000000000E+00 0. -1.
         11   -1    0    0    0    0 -0.00000000000E+00 -0.00000000000E+00 -0.18250000000E+03  0.18250000000E+03  0.00000000000E+00 0. -1.
        -11    1    1    2    0    0 -0.30196058528E+00 -0.41575731173E+00  0.46827905724E+01  0.47108982034E+01  0.00000000000E+00 0. -1.
         11    1    1    2    0    0 -0.19469566970E+01 -0.37760965437E+01 -0.18238218070E+03  0.18243165675E+03  0.00000000000E+00 0. -1.
        -15    1    1    2    0    0 -0.16586048485E+00  0.34910286513E+01  0.12979778923E+03  0.12985699292E+03  0.17770000000E+01 0. -1.
         15    1    1    2    0    0  0.24147777672E+01  0.70082520414E+00  0.47901600897E+02  0.48000452135E+02  0.17770000000E+01 0. -1.
</event>
<event>
 6    1  0.1097339E-002  0.1603334E+03  0.7546771E-02  0.1087611E+00
        -11   -1    0    0    0    0  0.00000000000E+00  0.00000000000E+00  0.18250000000E+03  0.18250000000E+03  0.00000000000E+00 0.  1.
         11   -1    0    0    0    0 -0.00000000000E+00 -0.00000000000E+00 -0.18250000000E+03  0.18250000000E+03  0.00000000000E+00 0. -1.
        -11    1    1    2    0    0  0.10833892689E+02 -0.31372475802E+02  0.15290058023E+03  0.15646147418E+03  0.00000000000E+00 0.  1.
         11    1    1    2    0    0  0.59064965268E+01  0.81430475595E+01 -0.16541879669E+03  0.16572439236E+03  0.00000000000E+00 0. -1.
        -15    1    1    2    0    0 -0.21903265771E+02  0.26212674984E+02  0.12955632969E+02  0.36576816918E+02  0.17770000000E+01 0. -1.
         15    1    1    2    0    0  0.51628765554E+01 -0.29832467414E+01 -0.43741650747E+00  0.62373165422E+01  0.17770000000E+01 0.  1.
</event>
<event>
 6    1  0.1097339E-002  0.1935283E+03  0.7546771E-02  0.1060000E+00
        -11   -1    0    0    0    0  0.00000000000E+00  0.00000000000E+00  0.18250000000E+03  0.18250000000E+03  0.00000000000E+00 0. -1.
         11   -1    0    0    0    0 -0.00000000000E+00 -0.00000000000E+00 -0.18250000000E+03  0.18250000000E+03  0.00000000000E+00 0. -1.
        -11    1    1    2    0    0  0.16124890081E+01 -0.54363270125E+01  0.17137789324E+03  0.17147167714E+03  0.00000000000E+00 0. -1.
         11    1    1    2    0    0  0.51340390291E+01  0.50550207036E+00 -0.16076252614E+03  0.16084527876E+03  0.00000000000E+00 0. -1.
        -15    1    1    2    0    0 -0.45659769693E+01 -0.12326246034E+01 -0.20269049687E+02  0.20889222420E+02  0.17770000000E+01 0. -1.
         15    1    1    2    0    0 -0.21805510679E+01  0.61634495455E+01  0.96536825883E+01  0.11793821678E+02  0.17770000000E+01 0.  1.
</event>
<event>
 6    1  0.1097339E-002  0.1835129E+03  0.7546771E-02  0.1067651E+00
        -11   -1    0    0    0    0  0.00000000000E+00  0.00000000000E+00  0.18250000000E+03  0.18250000000E+03  0.00000000000E+00 0.  1.
         11   -1    0    0    0    0 -0.00000000000E+00 -0.00000000000E+00 -0.18250000000E+03  0.18250000000E+03  0.00000000000E+00 0. -1.
        -11    1    1    2    0    0  0.16596491653E+01  0.30901708475E+01  0.15523324493E+03  0.15527286924E+03  0.00000000000E+00 0.  1.
         11    1    1    2    0    0  0.26923339318E+01 -0.25963406348E+01 -0.18144856148E+03  0.18148710729E+03  0.00000000000E+00 0. -1.
        -15    1    1    2    0    0 -0.26627967102E+01  0.11368149594E+00  0.25377401633E+02  0.25578773475E+02  0.17770000000E+01 0. -1.
         15    1    1    2    0    0 -0.16891863869E+01 -0.60751170862E+00  0.83791491860E+00  0.26612499951E+01  0.17770000000E+01 0.  1.
</event>
<event>
 6    1  0.1097339E-002  0.1845386E+03  0.7546771E-02  0.1066844E+00
        -11   -1    0    0    0    0  0.00000000000E+00  0.00000000000E+00  0.18250000000E+03  0.18250000000E+03  0.00000000000E+00 0.  1.
         11   -1    0    0    0    0 -0.00000000000E+00 -0.00000000000E+00 -0.18250000000E+03  0.18250000000E+03  0.00000000000E+00 0.  1.
        -11    1    1    2    0    0  0.21903357214E+01  0.26354635266E+00  0.13898075722E+03  0.13899826583E+03  0.00000000000E+00 0.  1.
         11    1    1    2    0    0  0.50021553706E+01  0.34076226865E+00 -0.18039173149E+03  0.18046139328E+03  0.00000000000E+00 0.  1.
        -15    1    1    2    0    0 -0.27005623624E+00 -0.30518647022E+01  0.98857951810E-01  0.35432062353E+01  0.17770000000E+01 0.  1.
         15    1    1    2    0    0 -0.69224348557E+01  0.24475560809E+01  0.41312116317E+02  0.41997134649E+02  0.17770000000E+01 0. -1.
</event>
<event>
 6    1  0.1097339E-002  0.1845628E+03  0.7546771E-02  0.1066825E+00
        -11   -1    0    0    0    0  0.00000000000E+00  0.00000000000E+00  0.18250000000E+03  0.18250000000E+03  0.00000000000E+00 0.  1.
         11   -1    0    0    0    0 -0.00000000000E+00 -0.00000000000E+00 -0.18250000000E+03  0.18250000000E+03  0.00000000000E+00 0.  1.
        -11    1    1    2    0    0 -0.27349166439E+01 -0.24475224983E+01  0.14801925931E+03  0.14806475361E+03  0.00000000000E+00 0.  1.
         11    1    1    2    0    0 -0.17289617459E+01  0.20965939656E+01 -0.18041670972E+03  0.18043717511E+03  0.00000000000E+00 0.  1.
        -15    1    1    2    0    0  0.21034201896E+01  0.28717662401E+01  0.32370568326E+02  0.32614150925E+02  0.17770000000E+01 0.  1.
         15    1    1    2    0    0  0.23604582002E+01 -0.25208377074E+01  0.26882082817E-01  0.38839203530E+01  0.17770000000E+01 0.  1.
</event>
<event>
 6    1  0.1097339E-002  0.1827842E+03  0.7546771E-02  0.1068229E+00
        -11   -1    0    0    0    0  0.00000000000E+00  0.00000000000E+00  0.18250000000E+03  0.18250000000E+03  0.00000000000E+00 0. -1.
         11   -1    0    0    0    0 -0.00000000000E+00 -0.00000000000E+00 -0.18250000000E+03  0.18250000000E+03  0.00000000000E+00 0. -1.
        -11    1    1    2    0    0  0.22046050223E+00  0.20265783949E+01  0.13915181879E+03  0.13916674996E+03  0.00000000000E+00 0. -1.
         11    1    1    2    0    0 -0.10475203408E+01 -0.23846499223E+01 -0.18219721134E+03  0.18221582718E+03  0.00000000000E+00 0. -1.
        -15    1    1    2    0    0  0.31980214326E+01  0.70067450433E+00  0.30276193645E+02  0.30504490104E+02  0.17770000000E+01 0. -1.
         15    1    1    2    0    0 -0.23709615941E+01 -0.34260297697E+00  0.12769198906E+02  0.13112932753E+02  0.17770000000E+01 0.  1.
</event>
<event>
 6    1  0.1097339E-002  0.1837394E+03  0.7546771E-02  0.1067473E+00
        -11   -1    0    0    0    0  0.00000000000E+00  0.00000000000E+00  0.18250000000E+03  0.18250000000E+03  0.00000000000E+00 0. -1.
         11   -1    0    0    0    0 -0.00000000000E+00 -0.00000000000E+00 -0.18250000000E+03  0.18250000000E+03  0.00000000000E+00 0. -1.
        -11    1    1    2    0    0  0.15354346319E+00  0.51127960506E+01  0.18118844189E+03  0.18126062930E+03  0.00000000000E+00 0. -1.
         11    1    1    2    0    0  0.52432109716E+01 -0.54311703909E+01 -0.14866553671E+03  0.14885708139E+03  0.00000000000E+00 0. -1.
        -15    1    1    2    0    0 -0.35727535702E+01 -0.89959246180E+00 -0.31670565106E+02  0.31933622685E+02  0.17770000000E+01 0.  1.
         15    1    1    2    0    0 -0.18240008646E+01  0.12179668021E+01 -0.85234007299E+00  0.29486666284E+01  0.17770000000E+01 0. -1.
</event>
<event>
 6    1  0.1097339E-002  0.1695231E+03  0.7546771E-02  0.1079281E+00
        -11   -1    0    0    0    0  0.00000000000E+00  0.00000000000E+00  0.18250000000E+03  0.18250000000E+03  0.00000000000E+00 0.  1.
         11   -1    0    0    0    0 -0.00000000000E+00 -0.00000000000E+00 -0.18250000000E+03  0.18250000000E+03  0.00000000000E+00 0. -1.
        -11    1    1    2    0    0  0.51990825587E+00  0.76987491855E+01  0.16893474752E+03  0.16911088068E+03  0.00000000000E+00 0.  1.
         11    1    1    2    0    0 -0.21726048975E+01 -0.28349491660E+01 -0.98843056283E+01  0.10509835706E+02  0.00000000000E+00 0. -1.
        -15    1    1    2    0    0  0.91571143965E+01  0.63578823198E+01  0.10420072296E+02  0.15362651051E+02  0.17770000000E+01 0.  1.
         15    1    1    2    0    0 -0.75044177549E+01 -0.11221682339E+02 -0.16947051419E+03  0.17001663257E+03  0.17770000000E+01 0. -1.
</event>
<event>
 6    1  0.1097339E-002  0.1840252E+03  0.7546771E-02  0.1067247E+00
        -11   -1    0    0    0    0  0.00000000000E+00  0.00000000000E+00  0.18250000000E+03  0.18250000000E+03  0.00000000000E+00 0.  1.
         11   -1    0    0    0    0 -0.00000000000E+00 -0.00000000000E+00 -0.18250000000E+03  0.18250000000E+03  0.00000000000E+00 0.  1.
        -11    1    1    2    0    0  0.45708884277E+00  0.23801414531E+01  0.17335042774E+03  0.17336736948E+03  0.00000000000E+00 0.  1.
         11    1    1    2    0    0 -0.25087508398E+01  0.15950997412E+01 -0.18095042482E+03  0.18097484470E+03  0.00000000000E+00 0.  1.
        -15    1    1    2    0    0  0.53700701215E+00  0.33819955573E+00  0.37284943105E+00  0.19234087368E+01  0.17770000000E+01 0. -1.
         15    1    1    2    0    0  0.15146549848E+01 -0.43134407501E+01  0.72271476440E+01  0.87343770755E+01  0.17770000000E+01 0. -1.
</event>
<event>
 6    1  0.1097339E-002  0.1845771E+03  0.7546771E-02  0.1066813E+00
        -11   -1    0    0    0    0  0.00000000000E+00  0.00000000000E+00  0.18250000000E+03  0.18250000000E+03  0.00000000000E+00 0.  1.
         11   -1    0    0    0    0 -0.00000000000E+00 -0.00000000000E+00 -0.18250000000E+03  0.18250000000E+03  0.00000000000E+00 0.  1.
        -11    1    1    2    0    0  0.29592369783E+01  0.45935416259E+01  0.16982749892E+03  0.16991538217E+03  0.00000000000E+00 0.  1.
         11    1    1    2    0    0 -0.17175043876E+01  0.24809485642E+01 -0.18039769124E+03  0.18042292518E+03  0.00000000000E+00 0.  1.
        -15    1    1    2    0    0  0.20578480584E-01 -0.13650940078E+01 -0.22963781732E+00  0.22526357120E+01  0.17770000000E+01 0.  1.
         15    1    1    2    0    0 -0.12623110713E+01 -0.57093961823E+01  0.10799830141E+02  0.12409056938E+02  0.17770000000E+01 0. -1.
</event>
<event>
 6    1  0.1097339E-002  0.1835850E+03  0.7546771E-02  0.1067594E+00
        -11   -1    0    0    0    0  0.00000000000E+00  0.00000000000E+00  0.18250000000E+03  0.18250000000E+03  0.00000000000E+00 0.  1.
         11   -1    0    0    0    0 -0.00000000000E+00 -0.00000000000E+00 -0.18250000000E+03  0.18250000000E+03  0.00000000000E+00 0.  1.
        -11    1    1    2    0    0  0.26016831534E+01 -0.35450734122E+01  0.97187461935E+02  0.97286890474E+02  0.00000000000E+00 0.  1.
         11    1    1    2    0    0  0.20974866223E+01  0.24029535147E+01 -0.18138694326E+03  0.18141498510E+03  0.00000000000E+00 0.  1.
        -15    1    1    2    0    0 -0.52466135318E+01 -0.95514235432E+00  0.83095961644E+02  0.83285868075E+02  0.17770000000E+01 0.  1.
         15    1    1    2    0    0  0.54744375605E+00  0.20972622519E+01  0.11035196786E+01  0.30122563471E+01  0.17770000000E+01 0.  1.
</event>
<event>
 6    1  0.1097339E-002  0.1835325E+03  0.7546771E-02  0.1067636E+00
        -11   -1    0    0    0    0  0.00000000000E+00  0.00000000000E+00  0.18250000000E+03  0.18250000000E+03  0.00000000000E+00 0.  1.
         11   -1    0    0    0    0 -0.00000000000E+00 -0.00000000000E+00 -0.18250000000E+03  0.18250000000E+03  0.00000000000E+00 0. -1.
        -11    1    1    2    0    0  0.51099955608E+01 -0.11010348724E+01  0.13661545593E+03  0.13671542389E+03  0.00000000000E+00 0.  1.
         11    1    1    2    0    0 -0.31705484824E+01  0.56644538046E+01 -0.18135132561E+03  0.18146746738E+03  0.00000000000E+00 0. -1.
        -15    1    1    2    0    0  0.37967929993E+01 -0.20040703880E+01  0.62850350693E+01  0.78160942946E+01  0.17770000000E+01 0.  1.
         15    1    1    2    0    0 -0.57362400777E+01 -0.25593485442E+01  0.38450834617E+02  0.39001014435E+02  0.17770000000E+01 0. -1.
</event>
<event>
 6    1  0.1097339E-002  0.1871571E+03  0.7546771E-02  0.1064807E+00
        -11   -1    0    0    0    0  0.00000000000E+00  0.00000000000E+00  0.18250000000E+03  0.18250000000E+03  0.00000000000E+00 0.  1.
         11   -1    0    0    0    0 -0.00000000000E+00 -0.00000000000E+00 -0.18250000000E+03  0.18250000000E+03  0.00000000000E+00 0. -1.
        -11    1    1    2    0    0 -0.20015123465E+01 -0.35479465673E+01  0.16819373275E+03  0.16824305546E+03  0.00000000000E+00 0.  1.
         11    1    1    2    0    0 -0.84826268275E+01 -0.28229487036E+01 -0.17761801641E+03  0.17784286253E+03  0.00000000000E+00 0. -1.
        -15    1    1    2    0    0  0.91292826723E+01  0.84374474044E+01  0.96861163693E+01  0.15859158242E+02  0.17770000000E+01 0. -1.
         15    1    1    2    0    0  0.13548565017E+01 -0.20665521336E+01 -0.26183270368E+00  0.30549237676E+01  0.17770000000E+01 0.  1.
</event>
<event>
 6    1  0.1097339E-002  0.1846671E+03  0.7546771E-02  0.1066743E+00
        -11   -1    0    0    0    0  0.00000000000E+00  0.00000000000E+00  0.18250000000E+03  0.18250000000E+03  0.00000000000E+00 0. -1.
         11   -1    0    0    0    0 -0.00000000000E+00 -0.00000000000E+00 -0.18250000000E+03  0.18250000000E+03  0.00000000000E+00 0.  1.
        -11    1    1    2    0    0 -0.85628557337E+00  0.30272157045E+01  0.13851508421E+03  0.13855080589E+03  0.00000000000E+00 0. -1.
         11    1    1    2    0    0 -0.98242061546E+01 -0.36495460481E+01 -0.18002814769E+03  0.18033293702E+03  0.00000000000E+00 0.  1.
        -15    1    1    2    0    0  0.13034840772E+02 -0.46390141948E+01  0.31040815665E+02  0.34031125353E+02  0.17770000000E+01 0.  1.
         15    1    1    2    0    0 -0.23543490437E+01  0.52613445384E+01  0.10472247815E+02  0.12085131736E+02  0.17770000000E+01 0. -1.
</event>
<event>
 6    1  0.1097339E-002  0.1838425E+03  0.7546771E-02  0.1067391E+00
        -11   -1    0    0    0    0  0.00000000000E+00  0.00000000000E+00  0.18250000000E+03  0.18250000000E+03  0.00000000000E+00 0.  1.
         11   -1    0    0    0    0 -0.00000000000E+00 -0.00000000000E+00 -0.18250000000E+03  0.18250000000E+03  0.00000000000E+00 0. -1.
        -11    1    1    2    0    0  0.33110565222E+01  0.23744449556E+01  0.18111171507E+03  0.18115754034E+03  0.00000000000E+00 0.  1.
         11    1    1    2    0    0  0.21267352078E+01 -0.43619506585E+00 -0.15579866587E+03  0.15581379129E+03  0.00000000000E+00 0. -1.
        -15    1    1    2    0    0  0.25821277433E+01 -0.23235771185E+00 -0.10977263816E+02  0.11418380956E+02  0.17770000000E+01 0. -1.
         15    1    1    2    0    0 -0.80199194733E+01 -0.17058921779E+01 -0.14335785382E+02  0.16610287415E+02  0.17770000000E+01 0. -1.
</event>
<event>
 6    1  0.1097339E-002  0.1835848E+03  0.7546771E-02  0.1067595E+00
        -11   -1    0    0    0    0  0.00000000000E+00  0.00000000000E+00  0.18250000000E+03  0.18250000000E+03  0.00000000000E+00 0.  1.
         11   -1    0    0    0    0 -0.00000000000E+00 -0.00000000000E+00 -0.18250000000E+03  0.18250000000E+03  0.00000000000E+00 0.  1.
        -11    1    1    2    0    0 -0.28772127250E+01 -0.59032497928E+01  0.18129626486E+03  0.18141516575E+03  0.00000000000E+00 0.  1.
         11    1    1    2    0    0 -0.18633600935E+01 -0.99194693380E+00 -0.14047875168E+03  0.14049461108E+03  0.00000000000E+00 0.  1.
        -15    1    1    2    0    0 -0.96456059423E+00  0.32366968181E+01 -0.36939715617E+01  0.53112840567E+01  0.17770000000E+01 0.  1.
         15    1    1    2    0    0  0.57051334127E+01  0.36584999085E+01 -0.37123541624E+02  0.37778939113E+02  0.17770000000E+01 0. -1.
</event>
<event>
 6    1  0.1097339E-002  0.1873746E+03  0.7546771E-02  0.1064640E+00
        -11   -1    0    0    0    0  0.00000000000E+00  0.00000000000E+00  0.18250000000E+03  0.18250000000E+03  0.00000000000E+00 0. -1.
         11   -1    0    0    0    0 -0.00000000000E+00 -0.00000000000E+00 -0.18250000000E+03  0.18250000000E+03  0.00000000000E+00 0. -1.
        -11    1    1    2    0    0  0.23997641693E+01  0.34838834665E+00  0.17760885703E+03  0.17762541017E+03  0.00000000000E+00 0. -1.
         11    1    1    2    0    0 -0.78716787864E+01 -0.15308340427E+01 -0.17324449070E+03  0.17342998685E+03  0.00000000000E+00 0. -1.
        -15    1    1    2    0    0  0.22129130297E+00 -0.43005578885E+01  0.60680191124E+00  0.46978405201E+01  0.17770000000E+01 0.  1.
         15    1    1    2    0    0  0.52506233142E+01  0.54830035846E+01 -0.49711682353E+01  0.92467624669E+01  0.17770000000E+01 0. -1.
</event>
<event>
 6    1  0.1097339E-002  0.1517772E+03  0.7546771E-02  0.1095936E+00
        -11   -1    0    0    0    0  0.00000000000E+00  0.00000000000E+00  0.18250000000E+03  0.18250000000E+03  0.00000000000E+00 0. -1.
         11   -1    0    0    0    0 -0.00000000000E+00 -0.00000000000E+00 -0.18250000000E+03  0.18250000000E+03  0.00000000000E+00 0.  1.
        -11    1    1    2    0    0  0.57095487072E+01  0.15861621927E+01  0.15069631865E+03  0.15081278232E+03  0.00000000000E+00 0. -1.
         11    1    1    2    0    0  0.12237990597E+00  0.23967192718E+01 -0.15281224230E+03  0.15283108531E+03  0.00000000000E+00 0.  1.
        -15    1    1    2    0    0 -0.19026120279E+01  0.24579636536E+01  0.31124533161E+02  0.31329791116E+02  0.17770000000E+01 0. -1.
         15    1    1    2    0    0 -0.39293165853E+01 -0.64408451181E+01 -0.29008609512E+02  0.30026341261E+02  0.17770000000E+01 0.  1.
</event>
<event>
 6    1  0.1097339E-002  0.1898938E+03  0.7546771E-02  0.1062717E+00
        -11   -1    0    0    0    0  0.00000000000E+00  0.00000000000E+00  0.18250000000E+03  0.18250000000E+03  0.00000000000E+00 0. -1.
         11   -1    0    0    0    0 -0.00000000000E+00 -0.00000000000E+00 -0.18250000000E+03  0.18250000000E+03  0.00000000000E+00 0. -1.
        -11    1    1    2    0    0  0.24303061406E+01  0.21673082754E+01  0.17507589376E+03  0.17510617405E+03  0.00000000000E+00 0. -1.
         11    1    1    2    0    0  0.17215639767E+01  0.28338118584E+01 -0.16898039627E+03  0.16901292435E+03  0.00000000000E+00 0. -1.
        -15    1    1    2    0    0 -0.28860044596E+01 -0.42122384030E+01  0.62818352929E+01  0.82880128952E+01  0.17770000000E+01 0. -1.
         15    1    1    2    0    0 -0.12658656577E+01 -0.78888173072E+00 -0.12377332781E+02  0.12592888709E+02  0.17770000000E+01 0. -1.
</event>
<event>
 6    1  0.1097339E-002  0.1839370E+03  0.7546771E-02  0.1067317E+00
        -11   -1    0    0    0    0  0.00000000000E+00  0.00000000000E+00  0.18250000000E+03  0.18250000000E+03  0.00000000000E+00 0.  1.
         11   -1    0    0    0    0 -0.00000000000E+00 -0.00000000000E+00 -0.18250000000E+03  0.18250000000E+03  0.00000000000E+00 0.  1.
        -11    1    1    2    0    0  0.15423639015E+01  0.11681827453E+01  0.10183839634E+03  0.10185677447E+03  0.00000000000E+00 0.  1.
         11    1    1    2    0    0 -0.22823764593E+01 -0.31678432196E+01 -0.18102093648E+03  0.18106303851E+03  0.00000000000E+00 0.  1.
        -15    1    1    2    0    0 -0.67400177340E+00  0.18150411474E+00  0.79147858234E+02  0.79170881100E+02  0.17770000000E+01 0.  1.
         15    1    1    2    0    0  0.14140143312E+01  0.18181563596E+01  0.34681905828E-01  0.29093059157E+01  0.17770000000E+01 0. -1.
</event>
<event>
 6    1  0.1097339E-002  0.1839153E+03  0.7546771E-02  0.1067334E+00
        -11   -1    0    0    0    0  0.00000000000E+00  0.00000000000E+00  0.18250000000E+03  0.18250000000E+03  0.00000000000E+00 0.  1.
         11   -1    0    0    0    0 -0.00000000000E+00 -0.00000000000E+00 -0.18250000000E+03  0.18250000000E+03  0.00000000000E+00 0. -1.
        -11    1    1    2    0    0 -0.21951811264E+00  0.82294908958E+01  0.80759379267E+02  0.81177891375E+02  0.00000000000E+00 0.  1.
         11    1    1    2    0    0  0.12073708846E+00 -0.62293137118E+01 -0.18097744846E+03  0.18108466467E+03  0.00000000000E+00 0. -1.
        -15    1    1    2    0    0 -0.99664722286E+01  0.27567685533E+01  0.62357203890E+02  0.63233764300E+02  0.17770000000E+01 0.  1.
         15    1    1    2    0    0  0.10065253253E+02 -0.47569457374E+01  0.37860865304E+02  0.39503679656E+02  0.17770000000E+01 0. -1.
</event>
<event>
 6    1  0.1097339E-002  0.1844776E+03  0.7546771E-02  0.1066891E+00
        -11   -1    0    0    0    0  0.00000000000E+00  0.00000000000E+00  0.18250000000E+03  0.18250000000E+03  0.00000000000E+00 0. -1.
         11   -1    0    0    0    0 -0.00000000000E+00 -0.00000000000E+00 -0.18250000000E+03  0.18250000000E+03  0.00000000000E+00 0.  1.
        -11    1    1    2    0    0 -0.30922539115E+01  0.71531304348E+00  0.18049446490E+03  0.18052236860E+03  0.00000000000E+00 0. -1.
         11    1    1    2    0    0  0.43416858703E+00 -0.23155001932E+01 -0.16372495188E+03  0.16374190029E+03  0.00000000000E+00 0.  1.
        -15    1    1    2    0    0  0.54465175175E+01 -0.14939194697E+01 -0.38922939512E+01  0.70854801992E+01  0.17770000000E+01 0. -1.
         15    1    1    2    0    0 -0.27884321930E+01  0.30941066194E+01 -0.12877219067E+02  0.13650250905E+02  0.17770000000E+01 0. -1.
</event>
<event>
 6    1  0.1097339E-002  0.1842829E+03  0.7546771E-02  0.1067044E+00
        -11   -1    0    0    0    0  0.00000000000E+00  0.00000000000E+00  0.18250000000E+03  0.18250000000E+03  0.00000000000E+00 0. -1.
         11   -1    0    0    0    0 -0.00000000000E+00 -0.00000000000E+00 -0.18250000000E+03  0.18250000000E+03  0.00000000000E+00 0.  1.
        -11    1    1    2    0    0  0.22953265141E+01  0.44982793852E+00  0.14224800863E+03  0.14226723736E+03  0.00000000000E+00 0. -1.
         11    1    1    2    0    0  0.37075308846E+01 -0.38624169397E+01 -0.18063776301E+03  0.18071708684E+03  0.00000000000E+00 0.  1.
        -15    1    1    2    0    0 -0.13837550516E+01  0.35459669993E+01  0.10245498518E+01  0.43238977094E+01  0.17770000000E+01 0.  1.
         15    1    1    2    0    0 -0.46191023471E+01 -0.13337799809E+00  0.37365204536E+02  0.37691778084E+02  0.17770000000E+01 0. -1.
</event>
<event>
 6    1  0.1097339E-002  0.1826813E+03  0.7546771E-02  0.1068311E+00
        -11   -1    0    0    0    0  0.00000000000E+00  0.00000000000E+00  0.18250000000E+03  0.18250000000E+03  0.00000000000E+00 0. -1.
         11   -1    0    0    0    0 -0.00000000000E+00 -0.00000000000E+00 -0.18250000000E+03  0.18250000000E+03  0.00000000000E+00 0. -1.
        -11    1    1    2    0    0  0.68856303740E+00  0.55938794085E+00  0.56880976107E+02  0.56887893939E+02  0.00000000000E+00 0. -1.
         11    1    1    2    0    0  0.15565980476E+01 -0.48709151872E+01 -0.18224694319E+03  0.18231866913E+03  0.00000000000E+00 0. -1.
        -15    1    1    2    0    0 -0.34828369276E+01  0.47746266394E+01  0.47911133640E+02  0.48306952588E+02  0.17770000000E+01 0. -1.
         15    1    1    2    0    0  0.12376758426E+01 -0.46309939301E+00  0.77454833444E+02  0.77486484340E+02  0.17770000000E+01 0. -1.
</event>
<event>
 6    1  0.1097339E-002  0.1908621E+03  0.7546771E-02  0.1061987E+00
        -11   -1    0    0    0    0  0.00000000000E+00  0.00000000000E+00  0.18250000000E+03  0.18250000000E+03  0.00000000000E+00 0. -1.
         11   -1    0    0    0    0 -0.00000000000E+00 -0.00000000000E+00 -0.18250000000E+03  0.18250000000E+03  0.00000000000E+00 0. -1.
        -11    1    1    2    0    0 -0.70698043331E+00  0.30178911929E+01  0.17411033293E+03  0.17413792098E+03  0.00000000000E+00 0. -1.
         11    1    1    2    0    0  0.29764357814E+01  0.47998254239E+01 -0.16608245432E+03  0.16617845566E+03  0.00000000000E+00 0. -1.
        -15    1    1    2    0    0 -0.66657661651E+01  0.36842422070E+01  0.26818939002E+01  0.82677907024E+01  0.17770000000E+01 0. -1.
         15    1    1    2    0    0  0.43963108170E+01 -0.11501958824E+02 -0.10709772516E+02  0.16415832661E+02  0.17770000000E+01 0.  1.
</event>
<event>
 6    1  0.1097339E-002  0.1891084E+03  0.7546771E-02  0.1063313E+00
        -11   -1    0    0    0    0  0.00000000000E+00  0.00000000000E+00  0.18250000000E+03  0.18250000000E+03  0.00000000000E+00 0. -1.
         11   -1    0    0    0    0 -0.00000000000E+00 -0.00000000000E+00 -0.18250000000E+03  0.18250000000E+03  0.00000000000E+00 0. -1.
        -11    1    1    2    0    0 -0.94404195507E+01 -0.35705876484E+01  0.17560175586E+03  0.17589157819E+03  0.00000000000E+00 0. -1.
         11    1    1    2    0    0 -0.28186013651E+01 -0.33853474427E+01 -0.12455774731E+03  0.12463561893E+03  0.00000000000E+00 0. -1.
        -15    1    1    2    0    0  0.10899012033E+02  0.17797846364E+01 -0.55914011375E+02  0.57021842251E+02  0.17770000000E+01 0.  1.
         15    1    1    2    0    0  0.13600088825E+01  0.51761504547E+01  0.48700028263E+01  0.74509606239E+01  0.17770000000E+01 0. -1.
</event>
<event>
 6    1  0.1097339E-002  0.1867512E+03  0.7546771E-02  0.1065120E+00
        -11   -1    0    0    0    0  0.00000000000E+00  0.00000000000E+00  0.18250000000E+03  0.18250000000E+03  0.00000000000E+00 0.  1.
         11   -1    0    0    0    0 -0.00000000000E+00 -0.00000000000E+00 -0.18250000000E+03  0.18250000000E+03  0.00000000000E+00 0. -1.
        -11    1    1    2    0    0 -0.69737276348E+01 -0.43476188280E+01  0.16310544657E+03  0.16331234297E+03  0.00000000000E+00 0.  1.
         11    1    1    2    0    0  0.14243342586E+01  0.10974552123E+02 -0.17790492013E+03  0.17824878717E+03  0.00000000000E+00 0. -1.
        -15    1    1    2    0    0 -0.17837806274E+00  0.40734799463E+01  0.86291753719E+01  0.97080097963E+01  0.17770000000E+01 0. -1.
         15    1    1    2    0    0  0.57277714390E+01 -0.10700413242E+02  0.61702981878E+01  0.13730860058E+02  0.17770000000E+01 0.  1.
</event>
<event>
 6    1  0.1097339E-002  0.1826456E+03  0.7546771E-02  0.1068339E+00
        -11   -1    0    0    0    0  0.00000000000E+00  0.00000000000E+00  0.18250000000E+03  0.18250000000E+03  0.00000000000E+00 0.  1.
         11   -1    0    0    0    0 -0.00000000000E+00 -0.00000000000E+00 -0.18250000000E+03  0.18250000000E+03  0.00000000000E+00 0.  1.
        -11    1    1    2    0    0  0.68741407886E+00  0.23446584434E+01  0.98765284100E+02  0.98795502451E+02  0.00000000000E+00 0.  1.
         11    1    1    2    0    0  0.33041586849E+00  0.26697878242E+01 -0.18233452549E+03  0.18235436964E+03  0.00000000000E+00 0.  1.
        -15    1    1    2    0    0 -0.66345933598E+00 -0.18028822757E+01  0.19493735518E+02  0.19668604837E+02  0.17770000000E+01 0. -1.
         15    1    1    2    0    0 -0.35437061136E+00 -0.32115639919E+01  0.64075505872E+02  0.64181523070E+02  0.17770000000E+01 0.  1.
</event>
<event>
 6    1  0.1097339E-002  0.1883163E+03  0.7546771E-02  0.1063917E+00
        -11   -1    0    0    0    0  0.00000000000E+00  0.00000000000E+00  0.18250000000E+03  0.18250000000E+03  0.00000000000E+00 0. -1.
         11   -1    0    0    0    0 -0.00000000000E+00 -0.00000000000E+00 -0.18250000000E+03  0.18250000000E+03  0.00000000000E+00 0. -1.
        -11    1    1    2    0    0 -0.73342541489E+01 -0.22561696075E+01  0.17651702772E+03  0.17668373626E+03  0.00000000000E+00 0. -1.
         11    1    1    2    0    0  0.21800654147E+01  0.46554545369E+01 -0.14700979532E+03  0.14709964603E+03  0.00000000000E+00 0. -1.
        -15    1    1    2    0    0  0.78199283964E+01  0.35125347534E+00  0.29005143059E+01  0.85349499921E+01  0.17770000000E+01 0.  1.
         15    1    1    2    0    0 -0.26657396622E+01 -0.27505384047E+01 -0.32407746707E+02  0.32681667722E+02  0.17770000000E+01 0. -1.
</event>
<event>
 6    1  0.1097339E-002  0.1778231E+03  0.7546771E-02  0.1072240E+00
        -11   -1    0    0    0    0  0.00000000000E+00  0.00000000000E+00  0.18250000000E+03  0.18250000000E+03  0.00000000000E+00 0. -1.
         11   -1    0    0    0    0 -0.00000000000E+00 -0.00000000000E+00 -0.18250000000E+03  0.18250000000E+03  0.00000000000E+00 0.  1.
        -11    1    1    2    0    0 -0.10936877709E+01 -0.47687610772E+01  0.17923651511E+03  0.17930327823E+03  0.00000000000E+00 0. -1.
         11    1    1    2    0    0  0.24873527687E+01  0.35853066673E-01 -0.17637120534E+03  0.17638874761E+03  0.00000000000E+00 0.  1.
        -15    1    1    2    0    0 -0.23004626867E+01  0.20547417182E+01  0.14565320813E+01  0.38462068074E+01  0.17770000000E+01 0.  1.
         15    1    1    2    0    0  0.90679768891E+00  0.26781662923E+01 -0.43218418458E+01  0.54617673584E+01  0.17770000000E+01 0. -1.
</event>
<event>
 6    1  0.1097339E-002  0.1832761E+03  0.7546771E-02  0.1067839E+00
        -11   -1    0    0    0    0  0.00000000000E+00  0.00000000000E+00  0.18250000000E+03  0.18250000000E+03  0.00000000000E+00 0. -1.
         11   -1    0    0    0    0 -0.00000000000E+00 -0.00000000000E+00 -0.18250000000E+03  0.18250000000E+03  0.00000000000E+00 0.  1.
        -11    1    1    2    0    0  0.15492968243E+01 -0.33816638532E+01  0.40423970483E+02  0.40594745481E+02  0.00000000000E+00 0. -1.
         11    1    1    2    0    0 -0.42014403708E+01  0.64192994226E+01 -0.18156192648E+03  0.18172394628E+03  0.00000000000E+00 0.  1.
        -15    1    1    2    0    0  0.72993124774E+01 -0.98179242777E+01  0.92359308159E+02  0.93182998086E+02  0.17770000000E+01 0. -1.
         15    1    1    2    0    0 -0.46471689309E+01  0.67802887082E+01  0.48778647835E+02  0.49498310150E+02  0.17770000000E+01 0.  1.
</event>
<event>
 6    1  0.1097339E-002  0.1827181E+03  0.7546771E-02  0.1068281E+00
        -11   -1    0    0    0    0  0.00000000000E+00  0.00000000000E+00  0.18250000000E+03  0.18250000000E+03  0.00000000000E+00 0.  1.
         11   -1    0    0    0    0 -0.00000000000E+00 -0.00000000000E+00 -0.18250000000E+03  0.18250000000E+03  0.00000000000E+00 0. -1.
        -11    1    1    2    0    0 -0.88330844275E+00  0.25497507643E+01  0.18226197368E+03  0.18228194785E+03  0.00000000000E+00 0.  1.
         11    1    1    2    0    0 -0.20385483244E+01 -0.73860528310E+00 -0.14080540418E+03  0.14082209721E+03  0.00000000000E+00 0. -1.
        -15    1    1    2    0    0  0.13454529112E+01 -0.15086385685E+01 -0.32921129554E+02  0.33030966289E+02  0.17770000000E+01 0. -1.
         15    1    1    2    0    0  0.15764038559E+01 -0.30250691261E+00 -0.85354399507E+01  0.88649886464E+01  0.17770000000E+01 0.  1.
</event>
<event>
 6    1  0.1097339E-002  0.1842336E+03  0.7546771E-02  0.1067083E+00
        -11   -1    0    0    0    0  0.00000000000E+00  0.00000000000E+00  0.18250000000E+03  0.18250000000E+03  0.00000000000E+00 0. -1.
         11   -1    0    0    0    0 -0.00000000000E+00 -0.00000000000E+00 -0.18250000000E+03  0.18250000000E+03  0.00000000000E+00 0.  1.
        -11    1    1    2    0    0 -0.50078488480E+00  0.20480691268E+01  0.14732106946E+03  0.14733615604E+03  0.00000000000E+00 0. -1.
         11    1    1    2    0    0 -0.26512751363E+01  0.22499897228E+01 -0.18073295342E+03  0.18076640220E+03  0.00000000000E+00 0.  1.
        -15    1    1    2    0    0  0.18130356842E+01 -0.60388457177E+01  0.33436600589E+02  0.34072257688E+02  0.17770000000E+01 0.  1.
         15    1    1    2    0    0  0.13390243368E+01  0.17407868680E+01 -0.24716625532E-01  0.28251840658E+01  0.17770000000E+01 0. -1.
</event>
<event>
 6    1  0.1097339E-002  0.1834759E+03  0.7546771E-02  0.1067681E+00
        -11   -1    0    0    0    0  0.00000000000E+00  0.00000000000E+00  0.18250000000E+03  0.18250000000E+03  0.00000000000E+00 0.  1.
         11   -1    0    0    0    0 -0.00000000000E+00 -0.00000000000E+00 -0.18250000000E+03  0.18250000000E+03  0.00000000000E+00 0. -1.
        -11    1    1    2    0    0 -0.84164856432E+00  0.10641369103E+01  0.78597484098E+02  0.78609193268E+02  0.00000000000E+00 0.  1.
         11    1    1    2    0    0 -0.36418901820E+01 -0.11785226806E+02 -0.18110446272E+03  0.18152405172E+03  0.00000000000E+00 0. -1.
        -15    1    1    2    0    0  0.71695899758E-01  0.12507350925E+02  0.35745489509E+02  0.37912223842E+02  0.17770000000E+01 0. -1.
         15    1    1    2    0    0  0.44118428466E+01 -0.17862610291E+01  0.66761489117E+02  0.66954531168E+02  0.17770000000E+01 0.  1.
</event>
<event>
 6    1  0.1097339E-002  0.1861077E+03  0.7546771E-02  0.1065619E+00
        -11   -1    0    0    0    0  0.00000000000E+00  0.00000000000E+00  0.18250000000E+03  0.18250000000E+03  0.00000000000E+00 0. -1.
         11   -1    0    0    0    0 -0.00000000000E+00 -0.00000000000E+00 -0.18250000000E+03  0.18250000000E+03  0.00000000000E+00 0.  1.
        -11    1    1    2    0    0 -0.31092398474E+01  0.78877149326E+00  0.17379356888E+03  0.17382316910E+03  0.00000000000E+00 0. -1.
         11    1    1    2    0    0  0.51779065371E+01 -0.27506093638E+01 -0.17879622087E+03  0.17889232841E+03  0.00000000000E+00 0.  1.
        -15    1    1    2    0    0  0.31387735387E+01 -0.11554142562E+01 -0.60127911327E+00  0.38348594502E+01  0.17770000000E+01 0. -1.
         15    1    1    2    0    0 -0.52074402284E+01  0.31172521267E+01  0.56039311037E+01  0.84496430320E+01  0.17770000000E+01 0.  1.
</event>
<event>
 6    1  0.1097339E-002  0.1830861E+03  0.7546771E-02  0.1067989E+00
        -11   -1    0    0    0    0  0.00000000000E+00  0.00000000000E+00  0.18250000000E+03  0.18250000000E+03  0.00000000000E+00 0. -1.
         11   -1    0    0    0    0 -0.00000000000E+00 -0.00000000000E+00 -0.18250000000E+03  0.18250000000E+03  0.00000000000E+00 0.  1.
        -11    1    1    2    0    0  0.20633176927E+01  0.36703878698E+01  0.18186513081E+03  0.18191386651E+03  0.00000000000E+00 0. -1.
         11    1    1    2    0    0 -0.17610393865E+01 -0.34566165988E+01 -0.11216337808E+03  0.11223044525E+03  0.00000000000E+00 0.  1.
        -15    1    1    2    0    0 -0.37956272489E+01  0.39265810375E+01 -0.50497832586E+02  0.50823357324E+02  0.17770000000E+01 0.  1.
         15    1    1    2    0    0  0.34933489427E+01 -0.41403523085E+01 -0.19203920136E+02  0.20032330909E+02  0.17770000000E+01 0. -1.
</event>
<event>
 6    1  0.1097339E-002  0.1886421E+03  0.7546771E-02  0.1063668E+00
        -11   -1    0    0    0    0  0.00000000000E+00  0.00000000000E+00  0.18250000000E+03  0.18250000000E+03  0.00000000000E+00 0.  1.
         11   -1    0    0    0    0 -0.00000000000E+00 -0.00000000000E+00 -0.18250000000E+03  0.18250000000E+03  0.00000000000E+00 0.  1.
        -11    1    1    2    0    0 -0.39876925003E+01  0.38501254481E+01  0.16328230345E+03  0.16337636236E+03  0.00000000000E+00 0.  1.
         11    1    1    2    0    0 -0.44826791312E+01 -0.37927004982E+01 -0.17626012187E+03  0.17635790186E+03  0.00000000000E+00 0.  1.
        -15    1    1    2    0    0 -0.41402100883E+01 -0.59520387830E+01  0.60863526405E+01  0.96316936576E+01  0.17770000000E+01 0. -1.
         15    1    1    2    0    0  0.12610581720E+02  0.58946138331E+01  0.68914657783E+01  0.15634042124E+02  0.17770000000E+01 0.  1.
</event>
<event>
 6    1  0.1097339E-002  0.1848069E+03  0.7546771E-02  0.1066633E+00
        -11   -1    0    0    0    0  0.00000000000E+00  0.00000000000E+00  0.18250000000E+03  0.18250000000E+03  0.00000000000E+00 0.  1.
         11   -1    0    0    0    0 -0.00000000000E+00 -0.00000000000E+00 -0.18250000000E+03  0.18250000000E+03  0.00000000000E+00 0.  1.
        -11    1    1    2    0    0  0.63760197087E+01 -0.28671372201E+00  0.18008000471E+03  0.18019307403E+03  0.00000000000E+00 0.  1.
         11    1    1    2    0    0  0.73040862075E+01 -0.33918424550E+01 -0.68312092660E+02  0.68785145738E+02  0.00000000000E+00 0.  1.
        -15    1    1    2    0    0  0.70075239824E+01  0.69575879274E+01 -0.39943723637E+02  0.41184611314E+02  0.17770000000E+01 0. -1.
         15    1    1    2    0    0 -0.20687629899E+02 -0.32790317503E+01 -0.71824188418E+02  0.74837168913E+02  0.17770000000E+01 0.  1.
</event>
<event>
 6    1  0.1097339E-002  0.1839072E+03  0.7546771E-02  0.1067340E+00
        -11   -1    0    0    0    0  0.00000000000E+00  0.00000000000E+00  0.18250000000E+03  0.18250000000E+03  0.00000000000E+00 0.  1.
         11   -1    0    0    0    0 -0.00000000000E+00 -0.00000000000E+00 -0.18250000000E+03  0.18250000000E+03  0.00000000000E+00 0. -1.
        -11    1    1    2    0    0 -0.12680106510E+01 -0.32981916191E+01  0.16626025149E+03  0.16629779657E+03  0.00000000000E+00 0.  1.
         11    1    1    2    0    0 -0.20553779045E+01 -0.15359041480E+01 -0.18107457741E+03  0.18109275570E+03  0.00000000000E+00 0. -1.
        -15    1    1    2    0    0  0.69572492400E+00 -0.10604556065E+01  0.13336464944E+01  0.25583082761E+01  0.17770000000E+01 0. -1.
         15    1    1    2    0    0  0.26276636315E+01  0.58945513735E+01  0.13480679429E+02  0.15051139456E+02  0.17770000000E+01 0.  1.
</event>
<event>
 6    1  0.1097339E-002  0.1840399E+03  0.7546771E-02  0.1067236E+00
        -11   -1    0    0    0    0  0.00000000000E+00  0.00000000000E+00  0.18250000000E+03  0.18250000000E+03  0.00000000000E+00 0.  1.
         11   -1    0    0    0    0 -0.00000000000E+00 -0.00000000000E+00 -0.18250000000E+03  0.18250000000E+03  0.00000000000E+00 0. -1.
        -11    1    1    2    0    0 -0.15217728938E+01 -0.31513204953E+01  0.14681537076E+03  0.14685707237E+03  0.00000000000E+00 0.  1.
         11    1    1    2    0    0  0.35605282768E+01  0.10310765863E+00 -0.18092501142E+03  0.18096007225E+03  0.00000000000E+00 0. -1.
        -15    1    1    2    0    0  0.49663321841E+00  0.12184704067E+01  0.33454266396E+02  0.33527257325E+02  0.17770000000E+01 0.  1.
         15    1    1    2    0    0 -0.25353886015E+01  0.18297424299E+01  0.65537426452E+00  0.36555980560E+01  0.17770000000E+01 0.  1.
</event>
<event>
 6    1  0.1097339E-002  0.1845595E+03  0.7546771E-02  0.1066827E+00
        -11   -1    0    0    0    0  0.00000000000E+00  0.00000000000E+00  0.18250000000E+03  0.18250000000E+03  0.00000000000E+00 0.  1.
         11   -1    0    0    0    0 -0.00000000000E+00 -0.00000000000E+00 -0.18250000000E+03  0.18250000000E+03  0.00000000000E+00 0.  1.
        -11    1    1    2    0    0  0.10777430808E+02  0.39979524654E+01  0.13217071937E+03  0.13266964875E+03  0.00000000000E+00 0.  1.
         11    1    1    2    0    0  0.47670343194E+00  0.24518731401E+01 -0.18042323601E+03  0.18044052489E+03  0.00000000000E+00 0.  1.
        -15    1    1    2    0    0 -0.32748269191E+01 -0.91762126560E+01  0.31951183045E+02  0.33450907268E+02  0.17770000000E+01 0. -1.
         15    1    1    2    0    0 -0.79793073209E+01  0.27263870504E+01  0.16301333594E+02  0.18438919101E+02  0.17770000000E+01 0.  1.
</event>
<event>
 6    1  0.1097339E-002  0.1855248E+03  0.7546771E-02  0.1066072E+00
        -11   -1    0    0    0    0  0.00000000000E+00  0.00000000000E+00  0.18250000000E+03  0.18250000000E+03  0.00000000000E+00 0.  1.
         11   -1    0    0    0    0 -0.00000000000E+00 -0.00000000000E+00 -0.18250000000E+03  0.18250000000E+03  0.00000000000E+00 0.  1.
        -11    1    1    2    0    0  0.54404608102E+01  0.30985162888E+00  0.16734781073E+03  0.16743650849E+03  0.00000000000E+00 0.  1.
         11    1    1    2    0    0 -0.65839773125E+01  0.27694002438E+00 -0.17935413977E+03  0.17947515958E+03  0.00000000000E+00 0.  1.
        -15    1    1    2    0    0 -0.44095986909E+00 -0.67528155576E+00  0.14505110302E+02  0.14635791905E+02  0.17770000000E+01 0. -1.
         15    1    1    2    0    0  0.15844763714E+01  0.88489902502E-01 -0.24987812623E+01  0.34525400260E+01  0.17770000000E+01 0.  1.
</event>
<event>
 6    1  0.1097339E-002  0.1852688E+03  0.7546771E-02  0.1066272E+00
        -11   -1    0    0    0    0  0.00000000000E+00  0.00000000000E+00  0.18250000000E+03  0.18250000000E+03  0.00000000000E+00 0. -1.
         11   -1    0    0    0    0 -0.00000000000E+00 -0.00000000000E+00 -0.18250000000E+03  0.18250000000E+03  0.00000000000E+00 0.  1.
        -11    1    1    2    0    0  0.26077099512E+01  0.14501742908E+01  0.17970645804E+03  0.17973122772E+03  0.00000000000E+00 0. -1.
         11    1    1    2    0    0 -0.13064936128E+01  0.25833574554E+01 -0.17595935429E+03  0.17598316687E+03  0.00000000000E+00 0.  1.
        -15    1    1    2    0    0  0.10108689793E+01 -0.33569120840E+01  0.63215937961E+00  0.39809633651E+01  0.17770000000E+01 0. -1.
         15    1    1    2    0    0 -0.23120853177E+01 -0.67661966212E+00 -0.43792631272E+01  0.53046420446E+01  0.17770000000E+01 0. -1.
</event>
<event>
 6    1  0.1097339E-002  0.1970791E+03  0.7546771E-02  0.1057408E+00
        -11   -1    0    0    0    0  0.00000000000E+00  0.00000000000E+00  0.18250000000E+03  0.18250000000E+03  0.00000000000E+00 0.  1.
         11   -1    0    0    0    0 -0.00000000000E+00 -0.00000000000E+00 -0.18250000000E+03  0.18250000000E+03  0.00000000000E+00 0.  1.
        -11    1    1    2    0    0 -0.37543326141E+01 -0.55315659559E+01  0.16778776363E+03  0.16792089464E+03  0.00000000000E+00 0.  1.
         11    1    1    2    0    0  0.16903982769E+01 -0.23320695702E+01 -0.15963307647E+03  0.15965905893E+03  0.00000000000E+00 0.  1.
        -15    1    1    2    0    0  0.79712801741E+01  0.16060192441E+02  0.68229319122E+01  0.19266063888E+02  0.17770000000E+01 0.  1.
         15    1    1    2    0    0 -0.59073458368E+01 -0.81965569148E+01 -0.14977619070E+02  0.18153982541E+02  0.17770000000E+01 0. -1.
</event>
<event>
 6    1  0.1097339E-002  0.1917289E+03  0.7546771E-02  0.1061337E+00
        -11   -1    0    0    0    0  0.00000000000E+00  0.00000000000E+00  0.18250000000E+03  0.18250000000E+03  0.00000000000E+00 0. -1.
         11   -1    0    0    0    0 -0.00000000000E+00 -0.00000000000E+00 -0.18250000000E+03  0.18250000000E+03  0.00000000000E+00 0. -1.
        -11    1    1    2    0    0 -0.29689942553E+01 -0.46984314437E+01  0.17318196279E+03  0.17327112403E+03  0.00000000000E+00 0. -1.
         11    1    1    2    0    0  0.66749444127E+01  0.25845772995E+01 -0.15046113242E+03  0.15063129586E+03  0.00000000000E+00 0. -1.
        -15    1    1    2    0    0 -0.37610543360E+01 -0.15073208333E+02 -0.16502179733E+02  0.22733825110E+02  0.17770000000E+01 0.  1.
         15    1    1    2    0    0  0.55104178616E-01  0.17187062478E+02 -0.62186506375E+01  0.18363755003E+02  0.17770000000E+01 0. -1.
</event>
<event>
 6    1  0.1097339E-002  0.1838273E+03  0.7546771E-02  0.1067403E+00
        -11   -1    0    0    0    0  0.00000000000E+00  0.00000000000E+00  0.18250000000E+03  0.18250000000E+03  0.00000000000E+00 0.  1.
         11   -1    0    0    0    0 -0.00000000000E+00 -0.00000000000E+00 -0.18250000000E+03  0.18250000000E+03  0.00000000000E+00 0.  1.
        -11    1    1    2    0    0  0.17767990544E+01 -0.15592587315E+01  0.14146655096E+03  0.14148630090E+03  0.00000000000E+00 0.  1.
         11    1    1    2    0    0  0.36233870428E+01  0.60336005869E+01 -0.18103596206E+03  0.18117271547E+03  0.00000000000E+00 0.  1.
        -15    1    1    2    0    0 -0.67663495609E+01 -0.59534041206E+01  0.38271139959E+02  0.39358155315E+02  0.17770000000E+01 0.  1.
         15    1    1    2    0    0  0.13661634637E+01  0.14790622652E+01  0.12982711441E+01  0.29828283151E+01  0.17770000000E+01 0. -1.
</event>
<event>
 6    1  0.1097339E-002  0.1832094E+03  0.7546771E-02  0.1067891E+00
        -11   -1    0    0    0    0  0.00000000000E+00  0.00000000000E+00  0.18250000000E+03  0.18250000000E+03  0.00000000000E+00 0.  1.
         11   -1    0    0    0    0 -0.00000000000E+00 -0.00000000000E+00 -0.18250000000E+03  0.18250000000E+03  0.00000000000E+00 0. -1.
        -11    1    1    2    0    0 -0.13130062489E+01  0.23200193673E+01  0.18177100427E+03  0.18179055110E+03  0.00000000000E+00 0.  1.
         11    1    1    2    0    0 -0.26197856997E+01  0.34495651708E+00 -0.15655276875E+03  0.15657506722E+03  0.00000000000E+00 0. -1.
        -15    1    1    2    0    0  0.49163570416E+01 -0.17831586958E+01 -0.22284738770E+02  0.22959040322E+02  0.17770000000E+01 0. -1.
         15    1    1    2    0    0 -0.98356509293E+00 -0.88181718857E+00 -0.29334967545E+01  0.36753413521E+01  0.17770000000E+01 0. -1.
</event>
<event>
 6    1  0.1097339E-002  0.1838479E+03  0.7546771E-02  0.1067387E+00
        -11   -1    0    0    0    0  0.00000000000E+00  0.00000000000E+00  0.18250000000E+03  0.18250000000E+03  0.00000000000E+00 0.  1.
         11   -1    0    0    0    0 -0.00000000000E+00 -0.00000000000E+00 -0.18250000000E+03  0.18250000000E+03  0.00000000000E+00 0.  1.
        -11    1    1    2    0    0 -0.22265052869E+01  0.18363527758E+01  0.18112906990E+03  0.18115206176E+03  0.00000000000E+00 0.  1.
         11    1    1    2    0    0  0.19548273849E+01  0.13388027131E+01 -0.16974400239E+03  0.16976053750E+03  0.00000000000E+00 0.  1.
        -15    1    1    2    0    0 -0.13885093804E+01 -0.68553394271E+00 -0.19096010338E+00  0.23647642266E+01  0.17770000000E+01 0.  1.
         15    1    1    2    0    0  0.16601872825E+01 -0.24896215461E+01 -0.11194107404E+02  0.11722636514E+02  0.17770000000E+01 0. -1.
</event>
<event>
 6    1  0.1097339E-002  0.1839873E+03  0.7546771E-02  0.1067277E+00
        -11   -1    0    0    0    0  0.00000000000E+00  0.00000000000E+00  0.18250000000E+03  0.18250000000E+03  0.00000000000E+00 0. -1.
         11   -1    0    0    0    0 -0.00000000000E+00 -0.00000000000E+00 -0.18250000000E+03  0.18250000000E+03  0.00000000000E+00 0. -1.
        -11    1    1    2    0    0 -0.35418772395E+01  0.12885193846E+01  0.18097342648E+03  0.18101266881E+03  0.00000000000E+00 0. -1.
         11    1    1    2    0    0  0.92981218407E+00  0.64121809041E+01 -0.12103815937E+03  0.12121145424E+03  0.00000000000E+00 0. -1.
        -15    1    1    2    0    0  0.81217524896E+01 -0.32534797862E+01 -0.47699882710E+02  0.48528182881E+02  0.17770000000E+01 0.  1.
         15    1    1    2    0    0 -0.55096874342E+01 -0.44472205025E+01 -0.12235384404E+02  0.14247694071E+02  0.17770000000E+01 0. -1.
</event>
<event>
 6    1  0.1097339E-002  0.1853049E+03  0.7546771E-02  0.1066244E+00
        -11   -1    0    0    0    0  0.00000000000E+00  0.00000000000E+00  0.18250000000E+03  0.18250000000E+03  0.00000000000E+00 0.  1.
         11   -1    0    0    0    0 -0.00000000000E+00 -0.00000000000E+00 -0.18250000000E+03  0.18250000000E+03  0.00000000000E+00 0. -1.
        -11    1    1    2    0    0 -0.32212307432E+01  0.78763535621E-01  0.17966622967E+03  0.17969512128E+03  0.00000000000E+00 0.  1.
         11    1    1    2    0    0  0.28234384070E+01 -0.47383350038E+01 -0.94041385913E+02  0.94203003601E+02  0.00000000000E+00 0. -1.
        -15    1    1    2    0    0 -0.42500279684E+01  0.64402757286E+01 -0.85447853610E+02  0.85813945864E+02  0.17770000000E+01 0. -1.
         15    1    1    2    0    0  0.46478203045E+01 -0.17807042604E+01 -0.17699014226E+00  0.52879292504E+01  0.17770000000E+01 0.  1.
</event>
<event>
 6    1  0.1097339E-002  0.1856606E+03  0.7546771E-02  0.1065966E+00
        -11   -1    0    0    0    0  0.00000000000E+00  0.00000000000E+00  0.18250000000E+03  0.18250000000E+03  0.00000000000E+00 0.  1.
         11   -1    0    0    0    0 -0.00000000000E+00 -0.00000000000E+00 -0.18250000000E+03  0.18250000000E+03  0.00000000000E+00 0.  1.
        -11    1    1    2    0    0 -0.24714724910E+01 -0.42155960781E+01  0.11352434157E+03  0.11362946606E+03  0.00000000000E+00 0.  1.
         11    1    1    2    0    0  0.57784456021E+01 -0.14603203503E+02 -0.17865047480E+03  0.17933944389E+03  0.00000000000E+00 0.  1.
        -15    1    1    2    0    0  0.58358414111E+01  0.84045184639E+01  0.51422945002E+02  0.52461128250E+02  0.17770000000E+01 0.  1.
         15    1    1    2    0    0 -0.91428145223E+01  0.10414281117E+02  0.13703188227E+02  0.19569961808E+02  0.17770000000E+01 0.  1.
</event>
<event>
 6    1  0.1097339E-002  0.1833552E+03  0.7546771E-02  0.1067776E+00
        -11   -1    0    0    0    0  0.00000000000E+00  0.00000000000E+00  0.18250000000E+03  0.18250000000E+03  0.00000000000E+00 0. -1.
         11   -1    0    0    0    0 -0.00000000000E+00 -0.00000000000E+00 -0.18250000000E+03  0.18250000000E+03  0.00000000000E+00 0. -1.
        -11    1    1    2    0    0  0.25467135864E+01 -0.45263179474E+01  0.88723782434E+02  0.88875659624E+02  0.00000000000E+00 0. -1.
         11    1    1    2    0    0 -0.14510340975E+02  0.18388311130E+01 -0.18105495151E+03  0.18164478182E+03  0.00000000000E+00 0. -1.
        -15    1    1    2    0    0  0.12177564498E+02  0.12616797383E+01  0.35344797272E+02  0.37447260728E+02  0.17770000000E+01 0.  1.
         15    1    1    2    0    0 -0.21393710915E+00  0.14258070961E+01  0.56986371806E+02  0.57032297828E+02  0.17770000000E+01 0. -1.
</event>
<event>
 6    1  0.1097339E-002  0.2035150E+03  0.7546771E-02  0.1052858E+00
        -11   -1    0    0    0    0  0.00000000000E+00  0.00000000000E+00  0.18250000000E+03  0.18250000000E+03  0.00000000000E+00 0.  1.
         11   -1    0    0    0    0 -0.00000000000E+00 -0.00000000000E+00 -0.18250000000E+03  0.18250000000E+03  0.00000000000E+00 0.  1.
        -11    1    1    2    0    0 -0.18402911547E+01  0.15038336538E+01  0.11582230318E+03  0.11584668360E+03  0.00000000000E+00 0.  1.
         11    1    1    2    0    0 -0.36187744760E+01  0.35291743884E+02 -0.15753985676E+03  0.16148501226E+03  0.00000000000E+00 0.  1.
        -15    1    1    2    0    0  0.18341601024E+02 -0.29089724638E+02 -0.82958865866E+01  0.35420416019E+02  0.17770000000E+01 0.  1.
         15    1    1    2    0    0 -0.12882535394E+02 -0.77058528995E+01  0.50013440166E+02  0.52247888123E+02  0.17770000000E+01 0. -1.
</event>
<event>
 6    1  0.1097339E-002  0.1835301E+03  0.7546771E-02  0.1067638E+00
        -11   -1    0    0    0    0  0.00000000000E+00  0.00000000000E+00  0.18250000000E+03  0.18250000000E+03  0.00000000000E+00 0.  1.
         11   -1    0    0    0    0 -0.00000000000E+00 -0.00000000000E+00 -0.18250000000E+03  0.18250000000E+03  0.00000000000E+00 0.  1.
        -11    1    1    2    0    0  0.56966896920E+00 -0.46511095782E+01  0.99281253373E+02  0.99391773374E+02  0.00000000000E+00 0.  1.
         11    1    1    2    0    0  0.56750399538E+01  0.44608709877E+01 -0.18132632742E+03  0.18146994920E+03  0.00000000000E+00 0.  1.
        -15    1    1    2    0    0 -0.11225357139E+02 -0.10704089577E+01  0.35829386341E+02  0.37603950228E+02  0.17770000000E+01 0. -1.
         15    1    1    2    0    0  0.49806482158E+01  0.12606475481E+01  0.46215687703E+02  0.46534327198E+02  0.17770000000E+01 0.  1.
</event>
<event>
 6    1  0.1097339E-002  0.1837800E+03  0.7546771E-02  0.1067440E+00
        -11   -1    0    0    0    0  0.00000000000E+00  0.00000000000E+00  0.18250000000E+03  0.18250000000E+03  0.00000000000E+00 0.  1.
         11   -1    0    0    0    0 -0.00000000000E+00 -0.00000000000E+00 -0.18250000000E+03  0.18250000000E+03  0.00000000000E+00 0.  1.
        -11    1    1    2    0    0  0.56490602765E+01 -0.46040440216E+01  0.95433824124E+02  0.95711670606E+02  0.00000000000E+00 0.  1.
         11    1    1    2    0    0 -0.99648689101E+01 -0.33426880054E+01 -0.18091491647E+03  0.18121997455E+03  0.00000000000E+00 0.  1.
        -15    1    1    2    0    0  0.54819488233E+01  0.68636499553E+01  0.14492624086E+02  0.17039816182E+02  0.17770000000E+01 0.  1.
         15    1    1    2    0    0 -0.11661401897E+01  0.10830820717E+01  0.70988468258E+02  0.71028538662E+02  0.17770000000E+01 0. -1.
</event>
<event>
 6    1  0.1097339E-002  0.1827020E+03  0.7546771E-02  0.1068294E+00
        -11   -1    0    0    0    0  0.00000000000E+00  0.00000000000E+00  0.18250000000E+03  0.18250000000E+03  0.00000000000E+00 0. -1.
         11   -1    0    0    0    0 -0.00000000000E+00 -0.00000000000E+00 -0.18250000000E+03  0.18250000000E+03  0.00000000000E+00 0. -1.
        -11    1    1    2    0    0  0.96455922740E+00 -0.51234806715E+00  0.67822290157E+02  0.67831083710E+02  0.00000000000E+00 0. -1.
         11    1    1    2    0    0 -0.86019515704E+00 -0.35724216669E+01 -0.18226099566E+03  0.18229803255E+03  0.00000000000E+00 0. -1.
        -15    1    1    2    0    0 -0.19350786966E+01  0.78499153913E+00  0.92415621939E+02  0.92456290476E+02  0.17770000000E+01 0. -1.
         15    1    1    2    0    0  0.18307146262E+01  0.32997781949E+01  0.22023083568E+02  0.22414593260E+02  0.17770000000E+01 0. -1.
</event>
<event>
 6    1  0.1097339E-002  0.1846659E+03  0.7546771E-02  0.1066744E+00
        -11   -1    0    0    0    0  0.00000000000E+00  0.00000000000E+00  0.18250000000E+03  0.18250000000E+03  0.00000000000E+00 0. -1.
         11   -1    0    0    0    0 -0.00000000000E+00 -0.00000000000E+00 -0.18250000000E+03  0.18250000000E+03  0.00000000000E+00 0.  1.
        -11    1    1    2    0    0  0.49707595452E+01  0.68409426341E+01  0.18013573356E+03  0.18033410507E+03  0.00000000000E+00 0. -1.
         11    1    1    2    0    0 -0.65503156203E+01  0.73568809940E+00 -0.15829501463E+03  0.15843219221E+03  0.00000000000E+00 0.  1.
        -15    1    1    2    0    0 -0.34484158091E+01 -0.46248101802E+01 -0.36619692442E+01  0.70603249600E+01  0.17770000000E+01 0.  1.
         15    1    1    2    0    0  0.50279718842E+01 -0.29518205533E+01 -0.18178749680E+02  0.19173377761E+02  0.17770000000E+01 0. -1.
</event>
<event>
 6    1  0.1097339E-002  0.1852464E+03  0.7546771E-02  0.1066289E+00
        -11   -1    0    0    0    0  0.00000000000E+00  0.00000000000E+00  0.18250000000E+03  0.18250000000E+03  0.00000000000E+00 0. -1.
         11   -1    0    0    0    0 -0.00000000000E+00 -0.00000000000E+00 -0.18250000000E+03  0.18250000000E+03  0.00000000000E+00 0. -1.
        -11    1    1    2    0    0  0.47269441620E+01  0.48916682061E+01  0.17962480655E+03  0.17975356338E+03  0.00000000000E+00 0. -1.
         11    1    1    2    0    0 -0.24418988457E+01 -0.10471827361E+00 -0.14231462137E+03  0.14233560795E+03  0.00000000000E+00 0. -1.
        -15    1    1    2    0    0  0.16547881746E+00  0.40819157647E+01 -0.13690738014E-01  0.44550349028E+01  0.17770000000E+01 0. -1.
         15    1    1    2    0    0 -0.24505241338E+01 -0.88688656972E+01 -0.37296494444E+02  0.38455793765E+02  0.17770000000E+01 0. -1.
</event>
<event>
 6    1  0.1097339E-002  0.1854364E+03  0.7546771E-02  0.1066141E+00
        -11   -1    0    0    0    0  0.00000000000E+00  0.00000000000E+00  0.18250000000E+03  0.18250000000E+03  0.00000000000E+00 0.  1.
         11   -1    0    0    0    0 -0.00000000000E+00 -0.00000000000E+00 -0.18250000000E+03  0.18250000000E+03  0.00000000000E+00 0. -1.
        -11    1    1    2    0    0  0.16148340266E+01  0.24068289384E+01  0.17954016066E+03  0.17956355366E+03  0.00000000000E+00 0.  1.
         11    1    1    2    0    0  0.30686045211E+01 -0.22114776197E+01 -0.16864696764E+03  0.16868937922E+03  0.00000000000E+00 0. -1.
        -15    1    1    2    0    0 -0.42416271741E+01 -0.28874374230E+01 -0.55007276722E-01  0.54304190222E+01  0.17770000000E+01 0. -1.
         15    1    1    2    0    0 -0.44181137354E+00  0.26920861043E+01 -0.10838185742E+02  0.11316648093E+02  0.17770000000E+01 0.  1.
</event>
<event>
 6    1  0.1097339E-002  0.1934296E+03  0.7546771E-02  0.1060073E+00
        -11   -1    0    0    0    0  0.00000000000E+00  0.00000000000E+00  0.18250000000E+03  0.18250000000E+03  0.00000000000E+00 0. -1.
         11   -1    0    0    0    0 -0.00000000000E+00 -0.00000000000E+00 -0.18250000000E+03  0.18250000000E+03  0.00000000000E+00 0. -1.
        -11    1    1    2    0    0 -0.93170526393E-02  0.15153403615E+01  0.11096889844E+03  0.11097924475E+03  0.00000000000E+00 0. -1.
         11    1    1    2    0    0  0.14335218512E+01  0.25875699350E+01 -0.17154494421E+03  0.17157044730E+03  0.00000000000E+00 0. -1.
        -15    1    1    2    0    0 -0.33415891551E+01  0.58587771929E+01 -0.94085530569E+01  0.11711963452E+02  0.17770000000E+01 0.  1.
         15    1    1    2    0    0  0.19173843565E+01 -0.99616874895E+01  0.69984598827E+02  0.70738344499E+02  0.17770000000E+01 0. -1.
</event>
<event>
 6    1  0.1097339E-002  0.1896978E+03  0.7546771E-02  0.1062865E+00
        -11   -1    0    0    0    0  0.00000000000E+00  0.00000000000E+00  0.18250000000E+03  0.18250000000E+03  0.00000000000E+00 0.  1.
         11   -1    0    0    0    0 -0.00000000000E+00 -0.00000000000E+00 -0.18250000000E+03  0.18250000000E+03  0.00000000000E+00 0. -1.
        -11    1    1    2    0    0  0.92293619240E+01 -0.85569482500E+01  0.17484981726E+03  0.17530219930E+03  0.00000000000E+00 0.  1.
         11    1    1    2    0    0  0.11969665443E+02  0.50685323537E+00 -0.14947765269E+03  0.14995698865E+03  0.00000000000E+00 0. -1.
        -15    1    1    2    0    0 -0.17193052783E+02 -0.26682730340E+00 -0.24920320876E+02  0.30329068274E+02  0.17770000000E+01 0. -1.
         15    1    1    2    0    0 -0.40059745836E+01  0.83169223180E+01 -0.45184369244E+00  0.94117437774E+01  0.17770000000E+01 0.  1.
</event>
<event>
 6    1  0.1097339E-002  0.1858684E+03  0.7546771E-02  0.1065805E+00
        -11   -1    0    0    0    0  0.00000000000E+00  0.00000000000E+00  0.18250000000E+03  0.18250000000E+03  0.00000000000E+00 0. -1.
         11   -1    0    0    0    0 -0.00000000000E+00 -0.00000000000E+00 -0.18250000000E+03  0.18250000000E+03  0.00000000000E+00 0.  1.
        -11    1    1    2    0    0  0.12124019283E+02  0.27182605855E+01  0.17870017705E+03  0.17913161100E+03  0.00000000000E+00 0. -1.
         11    1    1    2    0    0  0.13683759415E+02  0.33705806942E+00 -0.11375282145E+03  0.11457339686E+03  0.00000000000E+00 0.  1.
        -15    1    1    2    0    0 -0.19441104365E+02  0.11015072551E+00 -0.31539351405E+02  0.37092547610E+02  0.17770000000E+01 0.  1.
         15    1    1    2    0    0 -0.63666743337E+01 -0.31654693804E+01 -0.33408004196E+02  0.34202444530E+02  0.17770000000E+01 0. -1.
</event>
<event>
 6    1  0.1097339E-002  0.1761373E+03  0.7546771E-02  0.1073635E+00
        -11   -1    0    0    0    0  0.00000000000E+00  0.00000000000E+00  0.18250000000E+03  0.18250000000E+03  0.00000000000E+00 0. -1.
         11   -1    0    0    0    0 -0.00000000000E+00 -0.00000000000E+00 -0.18250000000E+03  0.18250000000E+03  0.00000000000E+00 0.  1.
        -11    1    1    2    0    0  0.32158635571E+01  0.13462264109E+01  0.17781038834E+03  0.17784456220E+03  0.00000000000E+00 0. -1.
         11    1    1    2    0    0  0.20633973853E+01  0.39313329770E+01 -0.17446858041E+03  0.17452506565E+03  0.00000000000E+00 0.  1.
        -15    1    1    2    0    0 -0.68612848220E+01 -0.20873946490E+01  0.69139452085E-01  0.73889752397E+01  0.17770000000E+01 0. -1.
         15    1    1    2    0    0  0.15820238796E+01 -0.31901647389E+01 -0.34109473747E+01  0.52413969140E+01  0.17770000000E+01 0.  1.
</event>
<event>
 6    1  0.1097339E-002  0.1837373E+03  0.7546771E-02  0.1067474E+00
        -11   -1    0    0    0    0  0.00000000000E+00  0.00000000000E+00  0.18250000000E+03  0.18250000000E+03  0.00000000000E+00 0. -1.
         11   -1    0    0    0    0 -0.00000000000E+00 -0.00000000000E+00 -0.18250000000E+03  0.18250000000E+03  0.00000000000E+00 0.  1.
        -11    1    1    2    0    0  0.12336316659E+01 -0.35895473842E+01  0.76411030929E+02  0.76505243906E+02  0.00000000000E+00 0. -1.
         11    1    1    2    0    0 -0.58617947763E+01  0.27624573928E+01 -0.18114684806E+03  0.18126271644E+03  0.00000000000E+00 0.  1.
        -15    1    1    2    0    0 -0.20427703457E+01 -0.67008752765E+01  0.81872430755E+02  0.82190798067E+02  0.17770000000E+01 0. -1.
         15    1    1    2    0    0  0.66709334561E+01  0.75279652679E+01  0.22863386381E+02  0.25041241584E+02  0.17770000000E+01 0.  1.
</event>
<event>
 6    1  0.1097339E-002  0.1832431E+03  0.7546771E-02  0.1067865E+00
        -11   -1    0    0    0    0  0.00000000000E+00  0.00000000000E+00  0.18250000000E+03  0.18250000000E+03  0.00000000000E+00 0. -1.
         11   -1    0    0    0    0 -0.00000000000E+00 -0.00000000000E+00 -0.18250000000E+03  0.18250000000E+03  0.00000000000E+00 0.  1.
        -11    1    1    2    0    0 -0.18161950266E+01 -0.24413656740E+01  0.15349941190E+03  0.15352956811E+03  0.00000000000E+00 0. -1.
         11    1    1    2    0    0  0.35687356027E+01 -0.24933613640E+01 -0.18170474699E+03  0.18175689203E+03  0.00000000000E+00 0.  1.
        -15    1    1    2    0    0 -0.33566988668E+01  0.15210469386E+01  0.70491609842E+01  0.81504239554E+01  0.17770000000E+01 0. -1.
         15    1    1    2    0    0  0.16041582906E+01  0.34136800995E+01  0.21156174101E+02  0.21563115899E+02  0.17770000000E+01 0.  1.
</event>
<event>
 6    1  0.1097339E-002  0.1829651E+03  0.7546771E-02  0.1068085E+00
        -11   -1    0    0    0    0  0.00000000000E+00  0.00000000000E+00  0.18250000000E+03  0.18250000000E+03  0.00000000000E+00 0. -1.
         11   -1    0    0    0    0 -0.00000000000E+00 -0.00000000000E+00 -0.18250000000E+03  0.18250000000E+03  0.00000000000E+00 0. -1.
        -11    1    1    2    0    0 -0.49119151852E+01 -0.12337791217E+01  0.14013838764E+03  0.14022987132E+03  0.00000000000E+00 0. -1.
         11    1    1    2    0    0  0.16394573136E+01  0.20303300084E+01 -0.18201623812E+03  0.18203494445E+03  0.00000000000E+00 0. -1.
        -15    1    1    2    0    0  0.62396965780E+00 -0.20941802922E+01  0.34256731413E+02  0.34372318882E+02  0.17770000000E+01 0. -1.
         15    1    1    2    0    0  0.26484882138E+01  0.12976294055E+01  0.76211190715E+01  0.83628653459E+01  0.17770000000E+01 0.  1.
</event>
<event>
 6    1  0.1097339E-002  0.1837076E+03  0.7546771E-02  0.1067498E+00
        -11   -1    0    0    0    0  0.00000000000E+00  0.00000000000E+00  0.18250000000E+03  0.18250000000E+03  0.00000000000E+00 0.  1.
         11   -1    0    0    0    0 -0.00000000000E+00 -0.00000000000E+00 -0.18250000000E+03  0.18250000000E+03  0.00000000000E+00 0.  1.
        -11    1    1    2    0    0  0.47808449373E+01 -0.16554208353E+01  0.16522405271E+03  0.16530149573E+03  0.00000000000E+00 0.  1.
         11    1    1    2    0    0 -0.30004847035E+01 -0.18269053878E-01 -0.18126755512E+03  0.18129238755E+03  0.00000000000E+00 0.  1.
        -15    1    1    2    0    0  0.13322487874E+01 -0.25672381707E+01  0.72646847421E+01  0.80186639821E+01  0.17770000000E+01 0. -1.
         15    1    1    2    0    0 -0.31126090212E+01  0.42409280599E+01  0.87788176677E+01  0.10387452737E+02  0.17770000000E+01 0.  1.
</event>
<event>
 6    1  0.1097339E-002  0.1858843E+03  0.7546771E-02  0.1065792E+00
        -11   -1    0    0    0    0  0.00000000000E+00  0.00000000000E+00  0.18250000000E+03  0.18250000000E+03  0.00000000000E+00 0.  1.
         11   -1    0    0    0    0 -0.00000000000E+00 -0.00000000000E+00 -0.18250000000E+03  0.18250000000E+03  0.00000000000E+00 0.  1.
        -11    1    1    2    0    0 -0.20614937321E+01  0.43451840546E+01  0.17905114430E+03  0.17911572421E+03  0.00000000000E+00 0.  1.
         11    1    1    2    0    0  0.15754958988E+01 -0.42071665606E+01 -0.17442999376E+03  0.17448783672E+03  0.00000000000E+00 0.  1.
        -15    1    1    2    0    0 -0.41434627254E+00  0.31995690125E+01 -0.61915538226E+01  0.72043037441E+01  0.17770000000E+01 0.  1.
         15    1    1    2    0    0  0.90034410584E+00 -0.33375865065E+01  0.15704032813E+01  0.41921353345E+01  0.17770000000E+01 0.  1.
</event>
<event>
 6    1  0.1097339E-002  0.1761225E+03  0.7546771E-02  0.1073648E+00
        -11   -1    0    0    0    0  0.00000000000E+00  0.00000000000E+00  0.18250000000E+03  0.18250000000E+03  0.00000000000E+00 0. -1.
         11   -1    0    0    0    0 -0.00000000000E+00 -0.00000000000E+00 -0.18250000000E+03  0.18250000000E+03  0.00000000000E+00 0. -1.
        -11    1    1    2    0    0  0.66942786004E+01  0.10130448286E+01  0.17774656699E+03  0.17787546683E+03  0.00000000000E+00 0. -1.
         11    1    1    2    0    0  0.29232095241E+01 -0.12729706524E+01 -0.17448689404E+03  0.17451602161E+03  0.00000000000E+00 0. -1.
        -15    1    1    2    0    0 -0.92734241557E+00 -0.16336473473E+01  0.74925323465E+00  0.26921881473E+01  0.17770000000E+01 0.  1.
         15    1    1    2    0    0 -0.86901457089E+01  0.18935731710E+01 -0.40089261862E+01  0.99163234095E+01  0.17770000000E+01 0. -1.
</event>
<event>
 6    1  0.1097339E-002  0.1693800E+03  0.7546771E-02  0.1079406E+00
        -11   -1    0    0    0    0  0.00000000000E+00  0.00000000000E+00  0.18250000000E+03  0.18250000000E+03  0.00000000000E+00 0.  1.
         11   -1    0    0    0    0 -0.00000000000E+00 -0.00000000000E+00 -0.18250000000E+03  0.18250000000E+03  0.00000000000E+00 0.  1.
        -11    1    1    2    0    0  0.29421130469E+01  0.57205387875E+01  0.16701406138E+03  0.16713789903E+03  0.00000000000E+00 0.  1.
         11    1    1    2    0    0 -0.14917555287E+02 -0.45657543490E+01 -0.17115138153E+03  0.17186091751E+03  0.00000000000E+00 0.  1.
        -15    1    1    2    0    0 -0.63138477166E+01 -0.20235359811E+01  0.32212474130E+01  0.75824491262E+01  0.17770000000E+01 0. -1.
         15    1    1    2    0    0  0.18289289957E+02  0.86875154258E+00  0.91607273607E+00  0.18418734339E+02  0.17770000000E+01 0. -1.
</event>
<event>
 6    1  0.1097339E-002  0.1836132E+03  0.7546771E-02  0.1067572E+00
        -11   -1    0    0    0    0  0.00000000000E+00  0.00000000000E+00  0.18250000000E+03  0.18250000000E+03  0.00000000000E+00 0. -1.
         11   -1    0    0    0    0 -0.00000000000E+00 -0.00000000000E+00 -0.18250000000E+03  0.18250000000E+03  0.00000000000E+00 0. -1.
        -11    1    1    2    0    0 -0.72601236557E+01  0.11895806465E+01  0.79260397559E+02  0.79601099985E+02  0.00000000000E+00 0. -1.
         11    1    1    2    0    0 -0.39239066077E+01 -0.35571885561E+01 -0.18130950560E+03  0.18138684476E+03  0.00000000000E+00 0. -1.
        -15    1    1    2    0    0  0.80331033945E+01 -0.27771379366E+01  0.90021899004E+02  0.90439721774E+02  0.17770000000E+01 0. -1.
         15    1    1    2    0    0  0.31509268689E+01  0.51447458462E+01  0.12027209032E+02  0.13572333479E+02  0.17770000000E+01 0.  1.
</event>
<event>
 6    1  0.1097339E-002  0.1730242E+03  0.7546771E-02  0.1076258E+00
        -11   -1    0    0    0    0  0.00000000000E+00  0.00000000000E+00  0.18250000000E+03  0.18250000000E+03  0.00000000000E+00 0.  1.
         11   -1    0    0    0    0 -0.00000000000E+00 -0.00000000000E+00 -0.18250000000E+03  0.18250000000E+03  0.00000000000E+00 0. -1.
        -11    1    1    2    0    0  0.26620312075E+01 -0.50912822400E+01  0.17424172488E+03  0.17433641690E+03  0.00000000000E+00 0.  1.
         11    1    1    2    0    0  0.25713929995E+01  0.16670584151E+00 -0.17177611617E+03  0.17179544214E+03  0.00000000000E+00 0. -1.
        -15    1    1    2    0    0 -0.25471818566E+01  0.16341648033E+01 -0.96873475826E+01  0.10303449044E+02  0.17770000000E+01 0. -1.
         15    1    1    2    0    0 -0.26862423504E+01  0.32904115951E+01  0.72217388689E+01  0.85646919222E+01  0.17770000000E+01 0.  1.
</event>
<event>
 6    1  0.1097339E-002  0.1832064E+03  0.7546771E-02  0.1067894E+00
        -11   -1    0    0    0    0  0.00000000000E+00  0.00000000000E+00  0.18250000000E+03  0.18250000000E+03  0.00000000000E+00 0.  1.
         11   -1    0    0    0    0 -0.00000000000E+00 -0.00000000000E+00 -0.18250000000E+03  0.18250000000E+03  0.00000000000E+00 0. -1.
        -11    1    1    2    0    0 -0.26752117403E+01 -0.11537579613E+02  0.18140740203E+03  0.18179361379E+03  0.00000000000E+00 0.  1.
         11    1    1    2    0    0  0.25913804546E+00  0.20552619804E+01 -0.18533824947E+02  0.18649233804E+02  0.00000000000E+00 0. -1.
        -15    1    1    2    0    0 -0.54307107345E+01 -0.69143001177E+00 -0.14247563198E+02  0.15366244845E+02  0.17770000000E+01 0.  1.
         15    1    1    2    0    0  0.78467844294E+01  0.10173747645E+02 -0.14862601389E+03  0.14919090757E+03  0.17770000000E+01 0. -1.
</event>
<event>
 6    1  0.1097339E-002  0.1826694E+03  0.7546771E-02  0.1068320E+00
        -11   -1    0    0    0    0  0.00000000000E+00  0.00000000000E+00  0.18250000000E+03  0.18250000000E+03  0.00000000000E+00 0.  1.
         11   -1    0    0    0    0 -0.00000000000E+00 -0.00000000000E+00 -0.18250000000E+03  0.18250000000E+03  0.00000000000E+00 0. -1.
        -11    1    1    2    0    0 -0.33490413173E+01  0.53174267310E-01  0.18229982259E+03  0.18233059047E+03  0.00000000000E+00 0.  1.
         11    1    1    2    0    0  0.24168186082E+01  0.16108771737E+01 -0.12797748183E+03  0.12801043627E+03  0.00000000000E+00 0. -1.
        -15    1    1    2    0    0 -0.14347903996E+01  0.52270406854E+00 -0.18380135527E+02  0.18528868126E+02  0.17770000000E+01 0. -1.
         15    1    1    2    0    0  0.23670131087E+01 -0.21867555095E+01 -0.35942205237E+02  0.36130105134E+02  0.17770000000E+01 0. -1.
</event>
<event>
 6    1  0.1097339E-002  0.1831193E+03  0.7546771E-02  0.1067963E+00
        -11   -1    0    0    0    0  0.00000000000E+00  0.00000000000E+00  0.18250000000E+03  0.18250000000E+03  0.00000000000E+00 0.  1.
         11   -1    0    0    0    0 -0.00000000000E+00 -0.00000000000E+00 -0.18250000000E+03  0.18250000000E+03  0.00000000000E+00 0. -1.
        -11    1    1    2    0    0 -0.30975603145E+01 -0.11721933821E+01  0.18185052698E+03  0.18188068363E+03  0.00000000000E+00 0.  1.
         11    1    1    2    0    0  0.32354166305E+01 -0.38279521920E+01 -0.11640030625E+03  0.11650816467E+03  0.00000000000E+00 0. -1.
        -15    1    1    2    0    0  0.12590928788E+01 -0.18522596039E+01 -0.52321749419E+01  0.59623455234E+01  0.17770000000E+01 0.  1.
         15    1    1    2    0    0 -0.13969491948E+01  0.68524051780E+01 -0.60218045781E+02  0.60648806175E+02  0.17770000000E+01 0. -1.
</event>
<event>
 6    1  0.1097339E-002  0.1876024E+03  0.7546771E-02  0.1064464E+00
        -11   -1    0    0    0    0  0.00000000000E+00  0.00000000000E+00  0.18250000000E+03  0.18250000000E+03  0.00000000000E+00 0.  1.
         11   -1    0    0    0    0 -0.00000000000E+00 -0.00000000000E+00 -0.18250000000E+03  0.18250000000E+03  0.00000000000E+00 0. -1.
        -11    1    1    2    0    0  0.26504123042E+01  0.45535351547E+01  0.38327581767E+02  0.38688020005E+02  0.00000000000E+00 0.  1.
         11    1    1    2    0    0  0.47576343706E+01 -0.19176216337E+01 -0.17732337504E+03  0.17739755267E+03  0.00000000000E+00 0. -1.
        -15    1    1    2    0    0 -0.47352045384E+01 -0.25092670796E+00  0.14309692160E+03  0.14318649317E+03  0.17770000000E+01 0.  1.
         15    1    1    2    0    0 -0.26728421364E+01 -0.23849868130E+01 -0.41011283252E+01  0.57279341585E+01  0.17770000000E+01 0. -1.
</event>
<event>
 6    1  0.1097339E-002  0.1831970E+03  0.7546771E-02  0.1067901E+00
        -11   -1    0    0    0    0  0.00000000000E+00  0.00000000000E+00  0.18250000000E+03  0.18250000000E+03  0.00000000000E+00 0. -1.
         11   -1    0    0    0    0 -0.00000000000E+00 -0.00000000000E+00 -0.18250000000E+03  0.18250000000E+03  0.00000000000E+00 0.  1.
        -11    1    1    2    0    0 -0.30540088483E+01  0.95418918183E-01  0.11749753735E+03  0.11753725944E+03  0.00000000000E+00 0. -1.
         11    1    1    2    0    0 -0.29957440763E+01  0.26074450924E+01 -0.18175964946E+03  0.18180303470E+03  0.00000000000E+00 0.  1.
        -15    1    1    2    0    0  0.13615690056E+01 -0.26043827261E+01  0.43698394947E+01  0.55578688137E+01  0.17770000000E+01 0.  1.
         15    1    1    2    0    0  0.46881839190E+01 -0.98481284552E-01  0.59892272623E+02  0.60101837044E+02  0.17770000000E+01 0. -1.
</event>
<event>
 6    1  0.1097339E-002  0.1830075E+03  0.7546771E-02  0.1068052E+00
        -11   -1    0    0    0    0  0.00000000000E+00  0.00000000000E+00  0.18250000000E+03  0.18250000000E+03  0.00000000000E+00 0.  1.
         11   -1    0    0    0    0 -0.00000000000E+00 -0.00000000000E+00 -0.18250000000E+03  0.18250000000E+03  0.00000000000E+00 0. -1.
        -11    1    1    2    0    0  0.29410463693E+01  0.19428578378E+00  0.97815102200E+02  0.97859499892E+02  0.00000000000E+00 0.  1.
         11    1    1    2    0    0 -0.58661832090E+01 -0.88258833095E+00 -0.18189576627E+03  0.18199247472E+03  0.00000000000E+00 0. -1.
        -15    1    1    2    0    0 -0.21515389923E+01  0.14766489930E+01  0.52217948900E+01  0.61020064861E+01  0.17770000000E+01 0.  1.
         15    1    1    2    0    0  0.50766758320E+01 -0.78834644579E+00  0.78858869178E+02  0.79046018905E+02  0.17770000000E+01 0. -1.
</event>
<event>
 6    1  0.1097339E-002  0.1853629E+03  0.7546771E-02  0.1066199E+00
        -11   -1    0    0    0    0  0.00000000000E+00  0.00000000000E+00  0.18250000000E+03  0.18250000000E+03  0.00000000000E+00 0. -1.
         11   -1    0    0    0    0 -0.00000000000E+00 -0.00000000000E+00 -0.18250000000E+03  0.18250000000E+03  0.00000000000E+00 0. -1.
        -11    1    1    2    0    0  0.21082243084E+01 -0.13607426977E+01  0.17961957189E+03  0.17963709760E+03  0.00000000000E+00 0. -1.
         11    1    1    2    0    0 -0.11659465171E+01  0.33047937221E+01 -0.17482944157E+03  0.17486456111E+03  0.00000000000E+00 0. -1.
        -15    1    1    2    0    0  0.28359794439E+01 -0.33366014516E+01 -0.35943826945E+01  0.59374240718E+01  0.17770000000E+01 0. -1.
         15    1    1    2    0    0 -0.37782572352E+01  0.13925504272E+01 -0.11957476209E+01  0.45609172105E+01  0.17770000000E+01 0.  1.
</event>
<event>
 6    1  0.1097339E-002  0.1856619E+03  0.7546771E-02  0.1065965E+00
        -11   -1    0    0    0    0  0.00000000000E+00  0.00000000000E+00  0.18250000000E+03  0.18250000000E+03  0.00000000000E+00 0. -1.
         11   -1    0    0    0    0 -0.00000000000E+00 -0.00000000000E+00 -0.18250000000E+03  0.18250000000E+03  0.00000000000E+00 0. -1.
        -11    1    1    2    0    0 -0.10035134914E+02 -0.69592669353E+01  0.17892180077E+03  0.17933807772E+03  0.00000000000E+00 0. -1.
         11    1    1    2    0    0 -0.19862583915E+01  0.15360771958E+01 -0.13563745670E+03  0.13566069591E+03  0.00000000000E+00 0. -1.
        -15    1    1    2    0    0  0.23510766471E+01  0.53493611294E+01 -0.52952644989E+00  0.61303632155E+01  0.17770000000E+01 0.  1.
         15    1    1    2    0    0  0.96703166585E+01  0.73828610048E-01 -0.42754817622E+02  0.43870863153E+02  0.17770000000E+01 0. -1.
</event>
<event>
 6    1  0.1097339E-002  0.1825370E+03  0.7546771E-02  0.1068425E+00
        -11   -1    0    0    0    0  0.00000000000E+00  0.00000000000E+00  0.18250000000E+03  0.18250000000E+03  0.00000000000E+00 0. -1.
         11   -1    0    0    0    0 -0.00000000000E+00 -0.00000000000E+00 -0.18250000000E+03  0.18250000000E+03  0.00000000000E+00 0.  1.
        -11    1    1    2    0    0 -0.21857459909E+01 -0.46638031933E+01  0.18239027940E+03  0.18246298957E+03  0.00000000000E+00 0. -1.
         11    1    1    2    0    0 -0.12424595340E+00  0.72768516848E+00 -0.51520503867E+02  0.51525792391E+02  0.00000000000E+00 0.  1.
        -15    1    1    2    0    0  0.15756368145E+01  0.25288642673E+01 -0.58959325866E+02  0.59061303926E+02  0.17770000000E+01 0. -1.
         15    1    1    2    0    0  0.73435512976E+00  0.14072537576E+01 -0.71910449663E+02  0.71949914110E+02  0.17770000000E+01 0.  1.
</event>
<event>
 6    1  0.1097339E-002  0.1826860E+03  0.7546771E-02  0.1068307E+00
        -11   -1    0    0    0    0  0.00000000000E+00  0.00000000000E+00  0.18250000000E+03  0.18250000000E+03  0.00000000000E+00 0. -1.
         11   -1    0    0    0    0 -0.00000000000E+00 -0.00000000000E+00 -0.18250000000E+03  0.18250000000E+03  0.00000000000E+00 0. -1.
        -11    1    1    2    0    0 -0.18595081727E+01 -0.17739885497E+01  0.18229586311E+03  0.18231397783E+03  0.00000000000E+00 0. -1.
         11    1    1    2    0    0  0.99591179667E-01 -0.97399587094E+00 -0.46431768587E+02  0.46442089966E+02  0.00000000000E+00 0. -1.
        -15    1    1    2    0    0  0.75479276621E+00  0.22588928305E+01 -0.12013596125E+02  0.12375642601E+02  0.17770000000E+01 0.  1.
         15    1    1    2    0    0  0.10051242268E+01  0.48909159009E+00 -0.12385049840E+03  0.12386828960E+03  0.17770000000E+01 0. -1.
</event>
<event>
 6    1  0.1097339E-002  0.1915253E+03  0.7546771E-02  0.1061489E+00
        -11   -1    0    0    0    0  0.00000000000E+00  0.00000000000E+00  0.18250000000E+03  0.18250000000E+03  0.00000000000E+00 0. -1.
         11   -1    0    0    0    0 -0.00000000000E+00 -0.00000000000E+00 -0.18250000000E+03  0.18250000000E+03  0.00000000000E+00 0.  1.
        -11    1    1    2    0    0  0.13042175933E+02  0.52708098931E+01  0.17290338742E+03  0.17347467011E+03  0.00000000000E+00 0. -1.
         11    1    1    2    0    0  0.18868736487E+01 -0.35855763894E+01 -0.13167158343E+03  0.13173390806E+03  0.00000000000E+00 0.  1.
        -15    1    1    2    0    0 -0.13151679193E+02 -0.43506497236E+01  0.39084838682E+01  0.14502716772E+02  0.17770000000E+01 0. -1.
         15    1    1    2    0    0 -0.17773703887E+01  0.26654162199E+01 -0.45140287858E+02  0.45288705060E+02  0.17770000000E+01 0.  1.
</event>
<event>
 6    1  0.1097339E-002  0.1836976E+03  0.7546771E-02  0.1067505E+00
        -11   -1    0    0    0    0  0.00000000000E+00  0.00000000000E+00  0.18250000000E+03  0.18250000000E+03  0.00000000000E+00 0. -1.
         11   -1    0    0    0    0 -0.00000000000E+00 -0.00000000000E+00 -0.18250000000E+03  0.18250000000E+03  0.00000000000E+00 0.  1.
        -11    1    1    2    0    0  0.26121696018E+01  0.27489815017E+01  0.17270041680E+03  0.17274204553E+03  0.00000000000E+00 0. -1.
         11    1    1    2    0    0  0.25581616057E+01 -0.15778854179E+01 -0.18127748206E+03  0.18130239770E+03  0.00000000000E+00 0.  1.
        -15    1    1    2    0    0 -0.23242908394E+01 -0.17212044788E+01  0.38504699778E+01  0.51331005069E+01  0.17770000000E+01 0.  1.
         15    1    1    2    0    0 -0.28460403682E+01  0.55010839500E+00  0.47265952774E+01  0.58224562635E+01  0.17770000000E+01 0.  1.
</event>
<event>
 6    1  0.1097339E-002  0.1769265E+03  0.7546771E-02  0.1072980E+00
        -11   -1    0    0    0    0  0.00000000000E+00  0.00000000000E+00  0.18250000000E+03  0.18250000000E+03  0.00000000000E+00 0.  1.
         11   -1    0    0    0    0 -0.00000000000E+00 -0.00000000000E+00 -0.18250000000E+03  0.18250000000E+03  0.00000000000E+00 0.  1.
        -11    1    1    2    0    0 -0.31779408905E+01 -0.17242621315E+01  0.17603266914E+03  0.17606979580E+03  0.00000000000E+00 0.  1.
         11    1    1    2    0    0  0.44392969727E+00  0.28451986556E+01 -0.17777654206E+03  0.17779986259E+03  0.00000000000E+00 0.  1.
        -15    1    1    2    0    0  0.54837413912E+01  0.62064285705E+00  0.37591096648E+01  0.69097938951E+01  0.17770000000E+01 0. -1.
         15    1    1    2    0    0 -0.27497301979E+01 -0.17415793811E+01 -0.20152367394E+01  0.42205477154E+01  0.17770000000E+01 0.  1.
</event>
<event>
 6    1  0.1097339E-002  0.1830576E+03  0.7546771E-02  0.1068012E+00
        -11   -1    0    0    0    0  0.00000000000E+00  0.00000000000E+00  0.18250000000E+03  0.18250000000E+03  0.00000000000E+00 0. -1.
         11   -1    0    0    0    0 -0.00000000000E+00 -0.00000000000E+00 -0.18250000000E+03  0.18250000000E+03  0.00000000000E+00 0. -1.
        -11    1    1    2    0    0 -0.28111677883E+00 -0.28389796678E+01  0.18192001621E+03  0.18194238409E+03  0.00000000000E+00 0. -1.
         11    1    1    2    0    0  0.24529682213E+01  0.97127163310E+01 -0.97374282073E+02  0.97888225650E+02  0.00000000000E+00 0. -1.
        -15    1    1    2    0    0 -0.38700677237E+01 -0.65444627055E+01 -0.64317774711E+02  0.64789978308E+02  0.17770000000E+01 0. -1.
         15    1    1    2    0    0  0.16982162813E+01 -0.32927395774E+00 -0.20227959425E+02  0.20379411949E+02  0.17770000000E+01 0.  1.
</event>
<event>
 6    1  0.1097339E-002  0.1836774E+03  0.7546771E-02  0.1067521E+00
        -11   -1    0    0    0    0  0.00000000000E+00  0.00000000000E+00  0.18250000000E+03  0.18250000000E+03  0.00000000000E+00 0.  1.
         11   -1    0    0    0    0 -0.00000000000E+00 -0.00000000000E+00 -0.18250000000E+03  0.18250000000E+03  0.00000000000E+00 0.  1.
        -11    1    1    2    0    0 -0.38232797177E+01 -0.45716013984E+01  0.18122460580E+03  0.18132257100E+03  0.00000000000E+00 0.  1.
         11    1    1    2    0    0 -0.28616285132E+01 -0.14409751495E+01 -0.15083470473E+03  0.15086872930E+03  0.00000000000E+00 0.  1.
        -15    1    1    2    0    0  0.34909861348E+01 -0.13046924761E+01 -0.87694090291E+01  0.96927534978E+01  0.17770000000E+01 0.  1.
         15    1    1    2    0    0  0.31939220961E+01  0.73172690240E+01 -0.21620492033E+02  0.23115946208E+02  0.17770000000E+01 0. -1.
</event>
<event>
 6    1  0.1097339E-002  0.1282863E+03  0.7546771E-02  0.1122295E+00
        -11   -1    0    0    0    0  0.00000000000E+00  0.00000000000E+00  0.18250000000E+03  0.18250000000E+03  0.00000000000E+00 0.  1.
         11   -1    0    0    0    0 -0.00000000000E+00 -0.00000000000E+00 -0.18250000000E+03  0.18250000000E+03  0.00000000000E+00 0. -1.
        -11    1    1    2    0    0 -0.76254616128E+01  0.39359510946E+01  0.13753356379E+03  0.13780101794E+03  0.00000000000E+00 0.  1.
         11    1    1    2    0    0 -0.11626228684E+01  0.42805367861E+00 -0.46499307105E+02  0.46515808959E+02  0.00000000000E+00 0. -1.
        -15    1    1    2    0    0 -0.37236019773E+02  0.15162826017E+02 -0.11741957668E+03  0.12412472428E+03  0.17770000000E+01 0. -1.
         15    1    1    2    0    0  0.46024104254E+02 -0.19526830790E+02  0.26385319996E+02  0.56558448824E+02  0.17770000000E+01 0.  1.
</event>
<event>
 6    1  0.1097339E-002  0.1842741E+03  0.7546771E-02  0.1067051E+00
        -11   -1    0    0    0    0  0.00000000000E+00  0.00000000000E+00  0.18250000000E+03  0.18250000000E+03  0.00000000000E+00 0.  1.
         11   -1    0    0    0    0 -0.00000000000E+00 -0.00000000000E+00 -0.18250000000E+03  0.18250000000E+03  0.00000000000E+00 0.  1.
        -11    1    1    2    0    0  0.13648859805E+01  0.38056791567E+01  0.17511933319E+03  0.17516599831E+03  0.00000000000E+00 0.  1.
         11    1    1    2    0    0 -0.42270165165E+01 -0.30824609706E+00 -0.18067615001E+03  0.18072585279E+03  0.00000000000E+00 0.  1.
        -15    1    1    2    0    0 -0.88766720336E+00 -0.19588602243E+01  0.22326189022E+01  0.35731502354E+01  0.17770000000E+01 0.  1.
         15    1    1    2    0    0  0.37497977393E+01 -0.15385728353E+01  0.33241979169E+01  0.55349986672E+01  0.17770000000E+01 0.  1.
</event>
<event>
 6    1  0.1097339E-002  0.1830476E+03  0.7546771E-02  0.1068020E+00
        -11   -1    0    0    0    0  0.00000000000E+00  0.00000000000E+00  0.18250000000E+03  0.18250000000E+03  0.00000000000E+00 0.  1.
         11   -1    0    0    0    0 -0.00000000000E+00 -0.00000000000E+00 -0.18250000000E+03  0.18250000000E+03  0.00000000000E+00 0.  1.
        -11    1    1    2    0    0 -0.90224829319E+00 -0.28667314898E+01  0.18192759379E+03  0.18195241572E+03  0.00000000000E+00 0.  1.
         11    1    1    2    0    0  0.13699220742E+01  0.71001720960E+00 -0.58190883441E+02  0.58211336753E+02  0.00000000000E+00 0.  1.
        -15    1    1    2    0    0  0.68940348079E+00  0.47769353545E+01 -0.11848039248E+03  0.11859197072E+03  0.17770000000E+01 0. -1.
         15    1    1    2    0    0 -0.11570772618E+01 -0.26202210743E+01 -0.52563178776E+01  0.62442768115E+01  0.17770000000E+01 0.  1.
</event>
<event>
 6    1  0.1097339E-002  0.1842086E+03  0.7546771E-02  0.1067103E+00
        -11   -1    0    0    0    0  0.00000000000E+00  0.00000000000E+00  0.18250000000E+03  0.18250000000E+03  0.00000000000E+00 0. -1.
         11   -1    0    0    0    0 -0.00000000000E+00 -0.00000000000E+00 -0.18250000000E+03  0.18250000000E+03  0.00000000000E+00 0. -1.
        -11    1    1    2    0    0 -0.12028598338E+01 -0.10329164725E+00  0.56107994381E+02  0.56120981588E+02  0.00000000000E+00 0. -1.
         11    1    1    2    0    0  0.34588462370E+01 -0.62709824855E+01 -0.18064950482E+03  0.18079140585E+03  0.00000000000E+00 0. -1.
        -15    1    1    2    0    0  0.51145442797E+01  0.31018819994E+01  0.11613916229E+03  0.11630667643E+03  0.17770000000E+01 0. -1.
         15    1    1    2    0    0 -0.73705306829E+01  0.32723921333E+01  0.84023481473E+01  0.11780936135E+02  0.17770000000E+01 0.  1.
</event>
<event>
 6    1  0.1097339E-002  0.1830894E+03  0.7546771E-02  0.1067987E+00
        -11   -1    0    0    0    0  0.00000000000E+00  0.00000000000E+00  0.18250000000E+03  0.18250000000E+03  0.00000000000E+00 0. -1.
         11   -1    0    0    0    0 -0.00000000000E+00 -0.00000000000E+00 -0.18250000000E+03  0.18250000000E+03  0.00000000000E+00 0. -1.
        -11    1    1    2    0    0  0.24974488607E+01 -0.32135826253E-01  0.18189344704E+03  0.18191059442E+03  0.00000000000E+00 0. -1.
         11    1    1    2    0    0  0.53744101640E+00 -0.13897399892E+00 -0.14856209225E+02  0.14866576915E+02  0.00000000000E+00 0. -1.
        -15    1    1    2    0    0  0.23558790209E+01 -0.80073945402E+01 -0.10938530030E+03  0.10971768400E+03  0.17770000000E+01 0.  1.
         15    1    1    2    0    0 -0.53907688981E+01  0.81785043654E+01 -0.57651937524E+02  0.58505144665E+02  0.17770000000E+01 0. -1.
</event>
<event>
 6    1  0.1097339E-002  0.1829337E+03  0.7546771E-02  0.1068110E+00
        -11   -1    0    0    0    0  0.00000000000E+00  0.00000000000E+00  0.18250000000E+03  0.18250000000E+03  0.00000000000E+00 0.  1.
         11   -1    0    0    0    0 -0.00000000000E+00 -0.00000000000E+00 -0.18250000000E+03  0.18250000000E+03  0.00000000000E+00 0.  1.
        -11    1    1    2    0    0 -0.18399033845E+01  0.85034981557E+01  0.18185833736E+03  0.18206633295E+03  0.00000000000E+00 0.  1.
         11    1    1    2    0    0  0.22683360039E+01 -0.11736298483E+01 -0.12457079095E+03  0.12459696911E+03  0.00000000000E+00 0.  1.
        -15    1    1    2    0    0  0.20118694781E+01 -0.73889036961E+01 -0.45147160442E+02  0.45826491701E+02  0.17770000000E+01 0.  1.
         15    1    1    2    0    0 -0.24403020975E+01  0.59035388639E-01 -0.12140385974E+02  0.12510206238E+02  0.17770000000E+01 0. -1.
</event>
<event>
 6    1  0.1097339E-002  0.1831388E+03  0.7546771E-02  0.1067947E+00
        -11   -1    0    0    0    0  0.00000000000E+00  0.00000000000E+00  0.18250000000E+03  0.18250000000E+03  0.00000000000E+00 0.  1.
         11   -1    0    0    0    0 -0.00000000000E+00 -0.00000000000E+00 -0.18250000000E+03  0.18250000000E+03  0.00000000000E+00 0. -1.
        -11    1    1    2    0    0 -0.44969887120E+00 -0.38470341543E+01  0.18181993342E+03  0.18186118357E+03  0.00000000000E+00 0.  1.
         11    1    1    2    0    0 -0.48762547339E+01 -0.35840253833E+00 -0.70164038125E+02  0.70334191960E+02  0.00000000000E+00 0. -1.
        -15    1    1    2    0    0  0.61055007062E+01  0.22944273614E+01 -0.10816963527E+03  0.10838066829E+03  0.17770000000E+01 0. -1.
         15    1    1    2    0    0 -0.77954710110E+00  0.19110093312E+01 -0.34862600232E+01  0.44239561815E+01  0.17770000000E+01 0.  1.
</event>
<event>
 6    1  0.1097339E-002  0.1656756E+03  0.7546771E-02  0.1082696E+00
        -11   -1    0    0    0    0  0.00000000000E+00  0.00000000000E+00  0.18250000000E+03  0.18250000000E+03  0.00000000000E+00 0.  1.
         11   -1    0    0    0    0 -0.00000000000E+00 -0.00000000000E+00 -0.18250000000E+03  0.18250000000E+03  0.00000000000E+00 0. -1.
        -11    1    1    2    0    0 -0.54860227531E+01 -0.10857361828E+02  0.16731181677E+03  0.16775345833E+03  0.00000000000E+00 0.  1.
         11    1    1    2    0    0  0.24129940900E+01 -0.98632433634E+01 -0.16396201646E+03  0.16427613628E+03  0.00000000000E+00 0. -1.
        -15    1    1    2    0    0 -0.23980740717E+01  0.24793028895E+02 -0.55607600023E+01  0.25583682726E+02  0.17770000000E+01 0.  1.
         15    1    1    2    0    0  0.54711027348E+01 -0.40724237031E+01  0.22109596915E+01  0.73867226636E+01  0.17770000000E+01 0. -1.
</event>
<event>
 6    1  0.1097339E-002  0.1762605E+03  0.7546771E-02  0.1073533E+00
        -11   -1    0    0    0    0  0.00000000000E+00  0.00000000000E+00  0.18250000000E+03  0.18250000000E+03  0.00000000000E+00 0.  1.
         11   -1    0    0    0    0 -0.00000000000E+00 -0.00000000000E+00 -0.18250000000E+03  0.18250000000E+03  0.00000000000E+00 0. -1.
        -11    1    1    2    0    0  0.54216574456E+01 -0.73081752956E+00  0.17716656960E+03  0.17725101367E+03  0.00000000000E+00 0.  1.
         11    1    1    2    0    0  0.34242685384E+01 -0.15728549393E+01 -0.17535274736E+03  0.17539323104E+03  0.00000000000E+00 0. -1.
        -15    1    1    2    0    0 -0.85385445171E+01  0.39487402350E+01 -0.23469009786E+01  0.98572290791E+01  0.17770000000E+01 0.  1.
         15    1    1    2    0    0 -0.30738146695E+00 -0.16450677661E+01  0.53307873885E+00  0.24985262182E+01  0.17770000000E+01 0. -1.
</event>
<event>
 6    1  0.1097339E-002  0.1835423E+03  0.7546771E-02  0.1067628E+00
        -11   -1    0    0    0    0  0.00000000000E+00  0.00000000000E+00  0.18250000000E+03  0.18250000000E+03  0.00000000000E+00 0.  1.
         11   -1    0    0    0    0 -0.00000000000E+00 -0.00000000000E+00 -0.18250000000E+03  0.18250000000E+03  0.00000000000E+00 0. -1.
        -11    1    1    2    0    0  0.45773213435E+01  0.16874081197E+01  0.18139212919E+03  0.18145771890E+03  0.00000000000E+00 0.  1.
         11    1    1    2    0    0 -0.21840572781E+01  0.15547396139E+01 -0.15317465397E+03  0.15319811337E+03  0.00000000000E+00 0. -1.
        -15    1    1    2    0    0  0.36983071935E+01 -0.20988636927E+01 -0.97722097165E+01  0.10804467439E+02  0.17770000000E+01 0.  1.
         15    1    1    2    0    0 -0.60915712589E+01 -0.11432840408E+01 -0.18445265509E+02  0.19539700292E+02  0.17770000000E+01 0. -1.
</event>
<event>
 6    1  0.1097339E-002  0.1848859E+03  0.7546771E-02  0.1066571E+00
        -11   -1    0    0    0    0  0.00000000000E+00  0.00000000000E+00  0.18250000000E+03  0.18250000000E+03  0.00000000000E+00 0.  1.
         11   -1    0    0    0    0 -0.00000000000E+00 -0.00000000000E+00 -0.18250000000E+03  0.18250000000E+03  0.00000000000E+00 0.  1.
        -11    1    1    2    0    0  0.19725760493E+01 -0.47824696322E+00  0.13995155143E+03  0.13996626923E+03  0.00000000000E+00 0.  1.
         11    1    1    2    0    0 -0.87431002771E+01 -0.56111918620E+01 -0.17981427614E+03  0.18011413376E+03  0.00000000000E+00 0.  1.
        -15    1    1    2    0    0 -0.22024202335E+01  0.75915254264E+01  0.31190954312E+02  0.32226003058E+02  0.17770000000E+01 0.  1.
         15    1    1    2    0    0  0.89729444613E+01 -0.15020866012E+01  0.86717704000E+01  0.12693593949E+02  0.17770000000E+01 0. -1.
</event>
<event>
 6    1  0.1097339E-002  0.1864075E+03  0.7546771E-02  0.1065386E+00
        -11   -1    0    0    0    0  0.00000000000E+00  0.00000000000E+00  0.18250000000E+03  0.18250000000E+03  0.00000000000E+00 0. -1.
         11   -1    0    0    0    0 -0.00000000000E+00 -0.00000000000E+00 -0.18250000000E+03  0.18250000000E+03  0.00000000000E+00 0. -1.
        -11    1    1    2    0    0  0.11184699600E+02 -0.13421538124E+01  0.17823687819E+03  0.17859250720E+03  0.00000000000E+00 0. -1.
         11    1    1    2    0    0 -0.40647734416E+01 -0.95471011112E+00 -0.13972928240E+03  0.13979165287E+03  0.00000000000E+00 0. -1.
        -15    1    1    2    0    0 -0.26327928518E+01  0.84580366567E+01 -0.37677458479E+02  0.38745562181E+02  0.17770000000E+01 0.  1.
         15    1    1    2    0    0 -0.44871333071E+01 -0.61611727332E+01 -0.83013731637E+00  0.78702777415E+01  0.17770000000E+01 0. -1.
</event>
<event>
 6    1  0.1097339E-002  0.1758480E+03  0.7546771E-02  0.1073877E+00
        -11   -1    0    0    0    0  0.00000000000E+00  0.00000000000E+00  0.18250000000E+03  0.18250000000E+03  0.00000000000E+00 0.  1.
         11   -1    0    0    0    0 -0.00000000000E+00 -0.00000000000E+00 -0.18250000000E+03  0.18250000000E+03  0.00000000000E+00 0. -1.
        -11    1    1    2    0    0  0.44506453695E+00 -0.38780375431E+01  0.17609732920E+03  0.17614058762E+03  0.00000000000E+00 0.  1.
         11    1    1    2    0    0  0.88071857857E+00  0.30274254998E+01 -0.17553110019E+03  0.17555941475E+03  0.00000000000E+00 0. -1.
        -15    1    1    2    0    0 -0.39800509880E+01  0.22632986077E+01 -0.54238846390E+01  0.73170745542E+01  0.17770000000E+01 0.  1.
         15    1    1    2    0    0  0.26542678725E+01 -0.14126865644E+01  0.48576556359E+01  0.59829230770E+01  0.17770000000E+01 0. -1.
</event>
<event>
 6    1  0.1097339E-002  0.1746643E+03  0.7546771E-02  0.1074869E+00
        -11   -1    0    0    0    0  0.00000000000E+00  0.00000000000E+00  0.18250000000E+03  0.18250000000E+03  0.00000000000E+00 0. -1.
         11   -1    0    0    0    0 -0.00000000000E+00 -0.00000000000E+00 -0.18250000000E+03  0.18250000000E+03  0.00000000000E+00 0. -1.
        -11    1    1    2    0    0  0.13014537388E+01  0.54855536555E+01  0.17494973370E+03  0.17504055074E+03  0.00000000000E+00 0. -1.
         11    1    1    2    0    0  0.33508068546E+01  0.72994094986E+01 -0.17436849232E+03  0.17455337407E+03  0.00000000000E+00 0. -1.
        -15    1    1    2    0    0 -0.31849670643E+01 -0.83126711961E+01  0.26135458965E+01  0.94463150894E+01  0.17770000000E+01 0.  1.
         15    1    1    2    0    0 -0.14672935291E+01 -0.44722919580E+01 -0.31947872758E+01  0.59597600955E+01  0.17770000000E+01 0. -1.
</event>
<event>
 6    1  0.1097339E-002  0.1825358E+03  0.7546771E-02  0.1068426E+00
        -11   -1    0    0    0    0  0.00000000000E+00  0.00000000000E+00  0.18250000000E+03  0.18250000000E+03  0.00000000000E+00 0. -1.
         11   -1    0    0    0    0 -0.00000000000E+00 -0.00000000000E+00 -0.18250000000E+03  0.18250000000E+03  0.00000000000E+00 0. -1.
        -11    1    1    2    0    0 -0.40357868923E+01  0.64551877644E+00  0.18241844125E+03  0.18246422109E+03  0.00000000000E+00 0. -1.
         11    1    1    2    0    0 -0.36512199569E+00 -0.38094191969E+00 -0.26003911198E+02  0.26009264281E+02  0.00000000000E+00 0. -1.
        -15    1    1    2    0    0  0.28731466269E+01 -0.37086914105E+00 -0.73093031520E+02  0.73171999434E+02  0.17770000000E+01 0.  1.
         15    1    1    2    0    0  0.15277622612E+01  0.10629228430E+00 -0.83321498535E+02  0.83354515191E+02  0.17770000000E+01 0. -1.
</event>
<event>
 6    1  0.1097339E-002  0.1860544E+03  0.7546771E-02  0.1065660E+00
        -11   -1    0    0    0    0  0.00000000000E+00  0.00000000000E+00  0.18250000000E+03  0.18250000000E+03  0.00000000000E+00 0. -1.
         11   -1    0    0    0    0 -0.00000000000E+00 -0.00000000000E+00 -0.18250000000E+03  0.18250000000E+03  0.00000000000E+00 0.  1.
        -11    1    1    2    0    0 -0.18919421793E+01 -0.20250366571E+01  0.14548909258E+03  0.14551548467E+03  0.00000000000E+00 0. -1.
         11    1    1    2    0    0  0.75607884924E+01 -0.24335827393E+01 -0.17876920454E+03  0.17894556809E+03  0.00000000000E+00 0.  1.
        -15    1    1    2    0    0  0.17902410007E+01  0.25273912533E+01 -0.21961937834E+01  0.41920956003E+01  0.17770000000E+01 0.  1.
         15    1    1    2    0    0 -0.74590873138E+01  0.19312281431E+01  0.35476305747E+02  0.36346851641E+02  0.17770000000E+01 0. -1.
</event>
<event>
 6    1  0.1097339E-002  0.1832842E+03  0.7546771E-02  0.1067832E+00
        -11   -1    0    0    0    0  0.00000000000E+00  0.00000000000E+00  0.18250000000E+03  0.18250000000E+03  0.00000000000E+00 0. -1.
         11   -1    0    0    0    0 -0.00000000000E+00 -0.00000000000E+00 -0.18250000000E+03  0.18250000000E+03  0.00000000000E+00 0.  1.
        -11    1    1    2    0    0 -0.21322268241E+01  0.25606034207E+01  0.16749345706E+03  0.16752659860E+03  0.00000000000E+00 0. -1.
         11    1    1    2    0    0 -0.31816705254E+01 -0.85577833798E+00 -0.18168593655E+03  0.18171580813E+03  0.00000000000E+00 0.  1.
        -15    1    1    2    0    0  0.22401249012E+01 -0.90229007872E+00  0.45317401188E+01  0.54338461943E+01  0.17770000000E+01 0.  1.
         15    1    1    2    0    0  0.30737724483E+01 -0.80253500401E+00  0.96607393678E+01  0.10323747073E+02  0.17770000000E+01 0. -1.
</event>
<event>
 6    1  0.1097339E-002  0.1671591E+03  0.7546771E-02  0.1081367E+00
        -11   -1    0    0    0    0  0.00000000000E+00  0.00000000000E+00  0.18250000000E+03  0.18250000000E+03  0.00000000000E+00 0. -1.
         11   -1    0    0    0    0 -0.00000000000E+00 -0.00000000000E+00 -0.18250000000E+03  0.18250000000E+03  0.00000000000E+00 0.  1.
        -11    1    1    2    0    0  0.11869237037E+02 -0.81264604865E+01  0.16545768069E+03  0.16608179385E+03  0.00000000000E+00 0. -1.
         11    1    1    2    0    0 -0.61979042331E+01 -0.64608974968E+00 -0.16829637903E+03  0.16841170578E+03  0.00000000000E+00 0.  1.
        -15    1    1    2    0    0  0.84844611865E+01  0.96801353698E+01 -0.53261994691E+01  0.14043405292E+02  0.17770000000E+01 0. -1.
         15    1    1    2    0    0 -0.14155793990E+02 -0.90758513360E+00  0.81648978087E+01  0.16463095076E+02  0.17770000000E+01 0.  1.
</event>
<event>
 6    1  0.1097339E-002  0.1850689E+03  0.7546771E-02  0.1066428E+00
        -11   -1    0    0    0    0  0.00000000000E+00  0.00000000000E+00  0.18250000000E+03  0.18250000000E+03  0.00000000000E+00 0. -1.
         11   -1    0    0    0    0 -0.00000000000E+00 -0.00000000000E+00 -0.18250000000E+03  0.18250000000E+03  0.00000000000E+00 0.  1.
        -11    1    1    2    0    0 -0.57677826110E+01  0.90328287009E+01  0.97853547198E+02  0.98438691630E+02  0.00000000000E+00 0. -1.
         11    1    1    2    0    0  0.36174430395E+01 -0.30495713107E+01 -0.17986888015E+03  0.17993109744E+03  0.00000000000E+00 0.  1.
        -15    1    1    2    0    0  0.21280156931E+01 -0.94404453315E+01  0.82153457598E+02  0.82740551020E+02  0.17770000000E+01 0. -1.
         15    1    1    2    0    0  0.22323878327E-01  0.34571879413E+01 -0.13812464910E+00  0.38896599126E+01  0.17770000000E+01 0.  1.
</event>
<event>
 6    1  0.1097339E-002  0.1832186E+03  0.7546771E-02  0.1067884E+00
        -11   -1    0    0    0    0  0.00000000000E+00  0.00000000000E+00  0.18250000000E+03  0.18250000000E+03  0.00000000000E+00 0. -1.
         11   -1    0    0    0    0 -0.00000000000E+00 -0.00000000000E+00 -0.18250000000E+03  0.18250000000E+03  0.00000000000E+00 0. -1.
        -11    1    1    2    0    0 -0.58180362111E+01  0.17995724399E+00  0.82758255196E+02  0.82962706881E+02  0.00000000000E+00 0. -1.
         11    1    1    2    0    0 -0.40026631950E+01  0.58334518855E+01 -0.18164370306E+03  0.18178142186E+03  0.00000000000E+00 0. -1.
        -15    1    1    2    0    0  0.70969824767E+01 -0.40867893478E+01  0.26988260616E+02  0.28259386892E+02  0.17770000000E+01 0.  1.
         15    1    1    2    0    0  0.27237169295E+01 -0.19266197817E+01  0.71897187247E+02  0.71996484364E+02  0.17770000000E+01 0. -1.
</event>
<event>
 6    1  0.1097339E-002  0.1880303E+03  0.7546771E-02  0.1064136E+00
        -11   -1    0    0    0    0  0.00000000000E+00  0.00000000000E+00  0.18250000000E+03  0.18250000000E+03  0.00000000000E+00 0. -1.
         11   -1    0    0    0    0 -0.00000000000E+00 -0.00000000000E+00 -0.18250000000E+03  0.18250000000E+03  0.00000000000E+00 0. -1.
        -11    1    1    2    0    0  0.18368537108E+02 -0.71866887535E+01  0.17586704458E+03  0.17696968390E+03  0.00000000000E+00 0. -1.
         11    1    1    2    0    0 -0.61431122791E+01 -0.11062358976E+02 -0.80152059341E+02  0.81144723989E+02  0.00000000000E+00 0. -1.
        -15    1    1    2    0    0 -0.71587340171E+01 -0.16979675924E+01  0.13139709578E+01  0.76821100845E+01  0.17770000000E+01 0. -1.
         15    1    1    2    0    0 -0.50666908116E+01  0.19947015322E+02 -0.97028956198E+02  0.99203482025E+02  0.17770000000E+01 0.  1.
</event>
<event>
 6    1  0.1097339E-002  0.1836725E+03  0.7546771E-02  0.1067525E+00
        -11   -1    0    0    0    0  0.00000000000E+00  0.00000000000E+00  0.18250000000E+03  0.18250000000E+03  0.00000000000E+00 0. -1.
         11   -1    0    0    0    0 -0.00000000000E+00 -0.00000000000E+00 -0.18250000000E+03  0.18250000000E+03  0.00000000000E+00 0. -1.
        -11    1    1    2    0    0  0.53190770101E+01 -0.53039732599E+01  0.18117183541E+03  0.18132749008E+03  0.00000000000E+00 0. -1.
         11    1    1    2    0    0 -0.11970072707E+01 -0.17220039095E+01 -0.77950288770E+02  0.77978494748E+02  0.00000000000E+00 0. -1.
        -15    1    1    2    0    0 -0.64658020009E+01  0.87841285642E+01 -0.24263328989E+02  0.26661477318E+02  0.17770000000E+01 0.  1.
         15    1    1    2    0    0  0.23437322616E+01 -0.17581513948E+01 -0.78958217648E+02  0.79032537859E+02  0.17770000000E+01 0. -1.
</event>
<event>
 6    1  0.1097339E-002  0.1847908E+03  0.7546771E-02  0.1066646E+00
        -11   -1    0    0    0    0  0.00000000000E+00  0.00000000000E+00  0.18250000000E+03  0.18250000000E+03  0.00000000000E+00 0. -1.
         11   -1    0    0    0    0 -0.00000000000E+00 -0.00000000000E+00 -0.18250000000E+03  0.18250000000E+03  0.00000000000E+00 0.  1.
        -11    1    1    2    0    0 -0.10514770781E+01 -0.13579354962E+01  0.78411728669E+02  0.78430534779E+02  0.00000000000E+00 0. -1.
         11    1    1    2    0    0 -0.50632631540E+01 -0.49315492884E+01 -0.18007054569E+03  0.18020920687E+03  0.00000000000E+00 0.  1.
        -15    1    1    2    0    0  0.61384465903E+01  0.25874171394E+01  0.28404746309E+01  0.74566265244E+01  0.17770000000E+01 0. -1.
         15    1    1    2    0    0 -0.23706358134E-01  0.37020676452E+01  0.98818342394E+02  0.98903631831E+02  0.17770000000E+01 0. -1.
</event>
<event>
 6    1  0.1097339E-002  0.1838410E+03  0.7546771E-02  0.1067392E+00
        -11   -1    0    0    0    0  0.00000000000E+00  0.00000000000E+00  0.18250000000E+03  0.18250000000E+03  0.00000000000E+00 0.  1.
         11   -1    0    0    0    0 -0.00000000000E+00 -0.00000000000E+00 -0.18250000000E+03  0.18250000000E+03  0.00000000000E+00 0.  1.
        -11    1    1    2    0    0  0.25070386368E+01 -0.22377241542E+01  0.18112778851E+03  0.18115895899E+03  0.00000000000E+00 0.  1.
         11    1    1    2    0    0  0.23642783467E+01 -0.81605652754E+00 -0.15695308377E+03  0.15697301126E+03  0.00000000000E+00 0.  1.
        -15    1    1    2    0    0 -0.22921417540E+00 -0.11251381917E+01 -0.17232952463E+02  0.17362340127E+02  0.17770000000E+01 0. -1.
         15    1    1    2    0    0 -0.46421028081E+01  0.41789188734E+01 -0.69417522780E+01  0.95056896184E+01  0.17770000000E+01 0. -1.
</event>
<event>
 6    1  0.1097339E-002  0.1828721E+03  0.7546771E-02  0.1068159E+00
        -11   -1    0    0    0    0  0.00000000000E+00  0.00000000000E+00  0.18250000000E+03  0.18250000000E+03  0.00000000000E+00 0.  1.
         11   -1    0    0    0    0 -0.00000000000E+00 -0.00000000000E+00 -0.18250000000E+03  0.18250000000E+03  0.00000000000E+00 0.  1.
        -11    1    1    2    0    0 -0.13252538296E+01 -0.53897687495E+01  0.18204331444E+03  0.18212790625E+03  0.00000000000E+00 0.  1.
         11    1    1    2    0    0 -0.94807292720E+00 -0.24629852330E+01 -0.88587478505E+02  0.88626781993E+02  0.00000000000E+00 0.  1.
        -15    1    1    2    0    0  0.19548443579E+01  0.16702255769E+01 -0.86872403858E+01  0.92323856323E+01  0.17770000000E+01 0. -1.
         15    1    1    2    0    0  0.31848239894E+00  0.61825284056E+01 -0.84768595544E+02  0.85012926124E+02  0.17770000000E+01 0.  1.
</event>
<event>
 6    1  0.1097339E-002  0.1431134E+03  0.7546771E-02  0.1105005E+00
        -11   -1    0    0    0    0  0.00000000000E+00  0.00000000000E+00  0.18250000000E+03  0.18250000000E+03  0.00000000000E+00 0. -1.
         11   -1    0    0    0    0 -0.00000000000E+00 -0.00000000000E+00 -0.18250000000E+03  0.18250000000E+03  0.00000000000E+00 0.  1.
        -11    1    1    2    0    0  0.95181701034E+01 -0.60686914996E+01  0.14148669009E+03  0.14193628166E+03  0.00000000000E+00 0. -1.
         11    1    1    2    0    0  0.90194429396E+01 -0.23118899021E+02 -0.14426604439E+03  0.14638485375E+03  0.00000000000E+00 0.  1.
        -15    1    1    2    0    0 -0.44547994614E+02  0.15767314037E+02  0.24930422814E+01  0.47355094815E+02  0.17770000000E+01 0. -1.
         15    1    1    2    0    0  0.26010381571E+02  0.13420276484E+02  0.28631201767E+00  0.29323769778E+02  0.17770000000E+01 0.  1.
</event>
<event>
 6    1  0.1097339E-002  0.1783523E+03  0.7546771E-02  0.1071805E+00
        -11   -1    0    0    0    0  0.00000000000E+00  0.00000000000E+00  0.18250000000E+03  0.18250000000E+03  0.00000000000E+00 0. -1.
         11   -1    0    0    0    0 -0.00000000000E+00 -0.00000000000E+00 -0.18250000000E+03  0.18250000000E+03  0.00000000000E+00 0. -1.
        -11    1    1    2    0    0 -0.10679159296E+01  0.30128650814E+01  0.17929838382E+03  0.17932687540E+03  0.00000000000E+00 0. -1.
         11    1    1    2    0    0  0.38544421225E+01  0.22725915621E+01 -0.17737654628E+03  0.17743297486E+03  0.00000000000E+00 0. -1.
        -15    1    1    2    0    0 -0.13332871577E+00 -0.40673498646E+01 -0.28245719009E+00  0.44495643081E+01  0.17770000000E+01 0. -1.
         15    1    1    2    0    0 -0.26531974771E+01 -0.12181067789E+01 -0.16393803452E+01  0.37905854289E+01  0.17770000000E+01 0.  1.
</event>
<event>
 6    1  0.1097339E-002  0.1863849E+03  0.7546771E-02  0.1065404E+00
        -11   -1    0    0    0    0  0.00000000000E+00  0.00000000000E+00  0.18250000000E+03  0.18250000000E+03  0.00000000000E+00 0.  1.
         11   -1    0    0    0    0 -0.00000000000E+00 -0.00000000000E+00 -0.18250000000E+03  0.18250000000E+03  0.00000000000E+00 0.  1.
        -11    1    1    2    0    0  0.15137338554E+01  0.41835374509E+01  0.16745945279E+03  0.16751854137E+03  0.00000000000E+00 0.  1.
         11    1    1    2    0    0  0.44074445291E+00 -0.12420447514E+02 -0.17818218176E+03  0.17861509362E+03  0.00000000000E+00 0.  1.
        -15    1    1    2    0    0 -0.18615655402E+01 -0.21768937080E+01  0.68132570833E+01  0.76014796954E+01  0.17770000000E+01 0. -1.
         15    1    1    2    0    0 -0.92912768019E-01  0.10413803771E+02  0.39094718835E+01  0.11264885316E+02  0.17770000000E+01 0.  1.
</event>
<event>
 6    1  0.1097339E-002  0.1827100E+03  0.7546771E-02  0.1068288E+00
        -11   -1    0    0    0    0  0.00000000000E+00  0.00000000000E+00  0.18250000000E+03  0.18250000000E+03  0.00000000000E+00 0.  1.
         11   -1    0    0    0    0 -0.00000000000E+00 -0.00000000000E+00 -0.18250000000E+03  0.18250000000E+03  0.00000000000E+00 0. -1.
        -11    1    1    2    0    0 -0.16389689273E+01 -0.11476960812E+00  0.11144694320E+03  0.11145905320E+03  0.00000000000E+00 0.  1.
         11    1    1    2    0    0  0.20914019402E+01  0.19889277523E+01 -0.18226717123E+03  0.18229002031E+03  0.00000000000E+00 0. -1.
        -15    1    1    2    0    0 -0.23235788210E+01 -0.32349465765E+01  0.28667094316E+02  0.28996964037E+02  0.17770000000E+01 0.  1.
         15    1    1    2    0    0  0.18711458081E+01  0.13607884323E+01  0.42153133718E+02  0.42253962454E+02  0.17770000000E+01 0.  1.
</event>
<event>
 6    1  0.2055970E-002  0.1845352E+03  0.7546771E-02  0.1066846E+00
        -11   -1    0    0    0    0  0.00000000000E+00  0.00000000000E+00  0.18250000000E+03  0.18250000000E+03  0.00000000000E+00 0. -1.
         11   -1    0    0    0    0 -0.00000000000E+00 -0.00000000000E+00 -0.18250000000E+03  0.18250000000E+03  0.00000000000E+00 0.  1.
        -11    1    1    2    0    0 -0.81151279821E+00  0.43761027194E+01  0.18040986706E+03  0.18046475823E+03  0.00000000000E+00 0. -1.
         11    1    1    2    0    0 -0.61757610362E+00 -0.12730546243E+01 -0.31040827657E+02  0.31073059875E+02  0.00000000000E+00 0.  1.
        -15    1    1    2    0    0 -0.56660807865E+00 -0.22203166203E+01 -0.15042754546E+03  0.15045549180E+03  0.17770000000E+01 0.  1.
         15    1    1    2    0    0  0.19956969805E+01 -0.88273147476E+00  0.10585060552E+01  0.30066901010E+01  0.17770000000E+01 0. -1.
</event>
<event>
 6    1  0.1097339E-002  0.1886296E+03  0.7546771E-02  0.1063678E+00
        -11   -1    0    0    0    0  0.00000000000E+00  0.00000000000E+00  0.18250000000E+03  0.18250000000E+03  0.00000000000E+00 0.  1.
         11   -1    0    0    0    0 -0.00000000000E+00 -0.00000000000E+00 -0.18250000000E+03  0.18250000000E+03  0.00000000000E+00 0. -1.
        -11    1    1    2    0    0  0.13003188838E+01 -0.42331891561E+01  0.16661997303E+03  0.16667881129E+03  0.00000000000E+00 0.  1.
         11    1    1    2    0    0  0.34389693972E+01  0.56493254625E+01 -0.17624630458E+03  0.17637035258E+03  0.00000000000E+00 0. -1.
        -15    1    1    2    0    0  0.18307996266E+01 -0.36695649594E+01 -0.43538319908E+01  0.62394804485E+01  0.17770000000E+01 0.  1.
         15    1    1    2    0    0 -0.65700879076E+01  0.22534286529E+01  0.13980163545E+02  0.15711355688E+02  0.17770000000E+01 0. -1.
</event>
<event>
 6    1  0.1097339E-002  0.1860663E+03  0.7546771E-02  0.1065651E+00
        -11   -1    0    0    0    0  0.00000000000E+00  0.00000000000E+00  0.18250000000E+03  0.18250000000E+03  0.00000000000E+00 0. -1.
         11   -1    0    0    0    0 -0.00000000000E+00 -0.00000000000E+00 -0.18250000000E+03  0.18250000000E+03  0.00000000000E+00 0.  1.
        -11    1    1    2    0    0 -0.36112603123E+01 -0.22742288107E+01  0.17888283642E+03  0.17893373769E+03  0.00000000000E+00 0. -1.
         11    1    1    2    0    0 -0.10488295587E+01  0.33592306718E+01 -0.17082686272E+03  0.17086310749E+03  0.00000000000E+00 0.  1.
        -15    1    1    2    0    0  0.44967340263E+01  0.24540545589E+01  0.81863097564E+00  0.54836927663E+01  0.17770000000E+01 0.  1.
         15    1    1    2    0    0  0.16335584476E+00 -0.35390564199E+01 -0.88746046781E+01  0.97194620565E+01  0.17770000000E+01 0.  1.
</event>
<event>
 6    1  0.1097339E-002  0.1915918E+03  0.7546771E-02  0.1061440E+00
        -11   -1    0    0    0    0  0.00000000000E+00  0.00000000000E+00  0.18250000000E+03  0.18250000000E+03  0.00000000000E+00 0.  1.
         11   -1    0    0    0    0 -0.00000000000E+00 -0.00000000000E+00 -0.18250000000E+03  0.18250000000E+03  0.00000000000E+00 0.  1.
        -11    1    1    2    0    0 -0.17440659385E+02 -0.10914949724E+01  0.15186011949E+03  0.15286223815E+03  0.00000000000E+00 0.  1.
         11    1    1    2    0    0  0.37489381488E+01  0.17393638678E+01 -0.17335894426E+03  0.17340819900E+03  0.00000000000E+00 0.  1.
        -15    1    1    2    0    0 -0.55702252062E+01  0.27052465074E+00 -0.37184611184E+01  0.69343546581E+01  0.17770000000E+01 0.  1.
         15    1    1    2    0    0  0.19261946443E+02 -0.91839354609E+00  0.25217285893E+02  0.31795208197E+02  0.17770000000E+01 0. -1.
</event>
<event>
 6    1  0.1097339E-002  0.1931689E+03  0.7546771E-02  0.1060266E+00
        -11   -1    0    0    0    0  0.00000000000E+00  0.00000000000E+00  0.18250000000E+03  0.18250000000E+03  0.00000000000E+00 0.  1.
         11   -1    0    0    0    0 -0.00000000000E+00 -0.00000000000E+00 -0.18250000000E+03  0.18250000000E+03  0.00000000000E+00 0. -1.
        -11    1    1    2    0    0 -0.64265007766E+01  0.12433597510E+02  0.17126009171E+03  0.17183106027E+03  0.00000000000E+00 0.  1.
         11    1    1    2    0    0  0.53674903955E+01 -0.57528155420E+01 -0.56199251645E+02  0.56747341130E+02  0.00000000000E+00 0. -1.
        -15    1    1    2    0    0 -0.26311550972E+02  0.80978491682E+01 -0.96027645735E+02  0.99911657729E+02  0.17770000000E+01 0. -1.
         15    1    1    2    0    0  0.27370561354E+02 -0.14778631136E+02 -0.19033194333E+02  0.36509940874E+02  0.17770000000E+01 0.  1.
</event>
<event>
 6    1  0.1097339E-002  0.1965407E+03  0.7546771E-02  0.1057797E+00
        -11   -1    0    0    0    0  0.00000000000E+00  0.00000000000E+00  0.18250000000E+03  0.18250000000E+03  0.00000000000E+00 0. -1.
         11   -1    0    0    0    0 -0.00000000000E+00 -0.00000000000E+00 -0.18250000000E+03  0.18250000000E+03  0.00000000000E+00 0.  1.
        -11    1    1    2    0    0 -0.86645623451E+01  0.36538744667E+02  0.16422053602E+03  0.16845930948E+03  0.00000000000E+00 0. -1.
         11    1    1    2    0    0  0.38420310465E+01 -0.91194513783E+00 -0.10165021799E+03  0.10172688761E+03  0.00000000000E+00 0.  1.
        -15    1    1    2    0    0 -0.17021316132E+01  0.18253851442E+01 -0.56131654843E+02  0.56215208684E+02  0.17770000000E+01 0.  1.
         15    1    1    2    0    0  0.65246629118E+01 -0.37452184674E+02 -0.64386631837E+01  0.38598594217E+02  0.17770000000E+01 0. -1.
</event>
<event>
 6    1  0.1097339E-002  0.1844221E+03  0.7546771E-02  0.1066935E+00
        -11   -1    0    0    0    0  0.00000000000E+00  0.00000000000E+00  0.18250000000E+03  0.18250000000E+03  0.00000000000E+00 0. -1.
         11   -1    0    0    0    0 -0.00000000000E+00 -0.00000000000E+00 -0.18250000000E+03  0.18250000000E+03  0.00000000000E+00 0.  1.
        -11    1    1    2    0    0 -0.28689140024E+01 -0.25059169559E+01  0.18053771690E+03  0.18057789874E+03  0.00000000000E+00 0. -1.
         11    1    1    2    0    0  0.60233320270E+00 -0.27009745361E+01 -0.16797127049E+03  0.16799406471E+03  0.00000000000E+00 0.  1.
        -15    1    1    2    0    0  0.24921522263E+01  0.71176878322E+01 -0.78283097304E+01  0.11014193798E+02  0.17770000000E+01 0.  1.
         15    1    1    2    0    0 -0.22557142660E+00 -0.19107963402E+01 -0.47381366852E+01  0.54138427545E+01  0.17770000000E+01 0.  1.
</event>
<event>
 6    1  0.1097339E-002  0.1941781E+03  0.7546771E-02  0.1059521E+00
        -11   -1    0    0    0    0  0.00000000000E+00  0.00000000000E+00  0.18250000000E+03  0.18250000000E+03  0.00000000000E+00 0.  1.
         11   -1    0    0    0    0 -0.00000000000E+00 -0.00000000000E+00 -0.18250000000E+03  0.18250000000E+03  0.00000000000E+00 0. -1.
        -11    1    1    2    0    0 -0.88966581230E+00  0.18881233487E+01  0.11673706593E+03  0.11675572396E+03  0.00000000000E+00 0.  1.
         11    1    1    2    0    0 -0.14268169254E+02  0.16401784396E+02 -0.16943294884E+03  0.17082190533E+03  0.00000000000E+00 0. -1.
        -15    1    1    2    0    0  0.62006378715E+01  0.15452983707E+02  0.35580718159E+01  0.17119001709E+02  0.17770000000E+01 0. -1.
         15    1    1    2    0    0  0.89571971950E+01 -0.33742891451E+02  0.49137811099E+02  0.60303369008E+02  0.17770000000E+01 0.  1.
</event>
<event>
 6    1  0.1257163E-002  0.1830059E+03  0.7546771E-02  0.1068053E+00
        -11   -1    0    0    0    0  0.00000000000E+00  0.00000000000E+00  0.18250000000E+03  0.18250000000E+03  0.00000000000E+00 0.  1.
         11   -1    0    0    0    0 -0.00000000000E+00 -0.00000000000E+00 -0.18250000000E+03  0.18250000000E+03  0.00000000000E+00 0.  1.
        -11    1    1    2    0    0  0.43861131334E+01 -0.24386574130E+01  0.18192489134E+03  0.18199409641E+03  0.00000000000E+00 0.  1.
         11    1    1    2    0    0  0.98246875470E+00  0.12275315093E+01 -0.11038243598E+03  0.11039363320E+03  0.00000000000E+00 0.  1.
        -15    1    1    2    0    0 -0.39862683772E+01 -0.15782153591E+01 -0.64888223702E+02  0.65053980689E+02  0.17770000000E+01 0.  1.
         15    1    1    2    0    0 -0.13823135109E+01  0.27893412628E+01 -0.66542316569E+01  0.75582897052E+01  0.17770000000E+01 0. -1.
</event>
<event>
 6    1  0.1097339E-002  0.1781326E+03  0.7546771E-02  0.1071985E+00
        -11   -1    0    0    0    0  0.00000000000E+00  0.00000000000E+00  0.18250000000E+03  0.18250000000E+03  0.00000000000E+00 0.  1.
         11   -1    0    0    0    0 -0.00000000000E+00 -0.00000000000E+00 -0.18250000000E+03  0.18250000000E+03  0.00000000000E+00 0. -1.
        -11    1    1    2    0    0  0.48169473218E+00  0.30474328881E+01  0.17667147034E+03  0.17669840777E+03  0.00000000000E+00 0.  1.
         11    1    1    2    0    0 -0.37147910761E+01  0.24379125211E+01 -0.17958061663E+03  0.17963557821E+03  0.00000000000E+00 0. -1.
        -15    1    1    2    0    0  0.79321659667E+00 -0.46262263411E+01  0.19509298013E+01  0.53847022962E+01  0.17770000000E+01 0. -1.
         15    1    1    2    0    0  0.24398797473E+01 -0.85911906810E+00  0.95821649524E+00  0.32813117204E+01  0.17770000000E+01 0. -1.
</event>
<event>
 6    1  0.1097339E-002  0.1829588E+03  0.7546771E-02  0.1068090E+00
        -11   -1    0    0    0    0  0.00000000000E+00  0.00000000000E+00  0.18250000000E+03  0.18250000000E+03  0.00000000000E+00 0.  1.
         11   -1    0    0    0    0 -0.00000000000E+00 -0.00000000000E+00 -0.18250000000E+03  0.18250000000E+03  0.00000000000E+00 0. -1.
        -11    1    1    2    0    0 -0.33028107341E+01 -0.13151797678E+01  0.18200652947E+03  0.18204124540E+03  0.00000000000E+00 0.  1.
         11    1    1    2    0    0 -0.30436100177E+01 -0.11834218638E+01 -0.12232411729E+03  0.12236769884E+03  0.00000000000E+00 0. -1.
        -15    1    1    2    0    0  0.60750378654E+01  0.35760646545E+01 -0.54768265088E+02  0.55248664357E+02  0.17770000000E+01 0. -1.
         15    1    1    2    0    0  0.27138288632E+00 -0.10774630230E+01 -0.49141470962E+01  0.53423914046E+01  0.17770000000E+01 0. -1.
</event>
<event>
 6    1  0.1097339E-002  0.2100972E+03  0.7546771E-02  0.1048390E+00
        -11   -1    0    0    0    0  0.00000000000E+00  0.00000000000E+00  0.18250000000E+03  0.18250000000E+03  0.00000000000E+00 0.  1.
         11   -1    0    0    0    0 -0.00000000000E+00 -0.00000000000E+00 -0.18250000000E+03  0.18250000000E+03  0.00000000000E+00 0. -1.
        -11    1    1    2    0    0  0.45699645245E+01  0.44209985591E+01  0.14494069270E+03  0.14508009583E+03  0.00000000000E+00 0.  1.
         11    1    1    2    0    0 -0.98361027264E+00  0.57510667268E+01 -0.15479288656E+03  0.15490280819E+03  0.00000000000E+00 0. -1.
        -15    1    1    2    0    0 -0.69346768320E+00 -0.57556213921E+01 -0.27037556368E+02  0.27709118686E+02  0.17770000000E+01 0.  1.
         15    1    1    2    0    0 -0.28928865686E+01 -0.44164438938E+01  0.36889750221E+02  0.37307977293E+02  0.17770000000E+01 0.  1.
</event>
<event>
 6    1  0.1097339E-002  0.1875652E+03  0.7546771E-02  0.1064493E+00
        -11   -1    0    0    0    0  0.00000000000E+00  0.00000000000E+00  0.18250000000E+03  0.18250000000E+03  0.00000000000E+00 0. -1.
         11   -1    0    0    0    0 -0.00000000000E+00 -0.00000000000E+00 -0.18250000000E+03  0.18250000000E+03  0.00000000000E+00 0. -1.
        -11    1    1    2    0    0  0.59893576131E+01  0.37315750264E+00  0.15255097324E+03  0.15266895915E+03  0.00000000000E+00 0. -1.
         11    1    1    2    0    0  0.28545723613E+01 -0.63693690041E+00 -0.17741064589E+03  0.17743475293E+03  0.00000000000E+00 0. -1.
        -15    1    1    2    0    0  0.65927171187E+01 -0.44129565371E+01  0.10054142913E+02  0.12929873283E+02  0.17770000000E+01 0.  1.
         15    1    1    2    0    0 -0.15436647093E+02  0.46767359349E+01  0.14805529732E+02  0.21966414640E+02  0.17770000000E+01 0.  1.
</event>
<event>
 6    1  0.1097339E-002  0.1834499E+03  0.7546771E-02  0.1067701E+00
        -11   -1    0    0    0    0  0.00000000000E+00  0.00000000000E+00  0.18250000000E+03  0.18250000000E+03  0.00000000000E+00 0. -1.
         11   -1    0    0    0    0 -0.00000000000E+00 -0.00000000000E+00 -0.18250000000E+03  0.18250000000E+03  0.00000000000E+00 0.  1.
        -11    1    1    2    0    0 -0.16473703535E+01  0.16556014575E+01  0.72090542959E+02  0.72128366330E+02  0.00000000000E+00 0. -1.
         11    1    1    2    0    0 -0.13436687266E+02 -0.46935161624E+01 -0.18099135458E+03  0.18155011454E+03  0.00000000000E+00 0.  1.
        -15    1    1    2    0    0  0.56692147602E+01 -0.26737221456E+01  0.10979769277E+02  0.12767217727E+02  0.17770000000E+01 0.  1.
         15    1    1    2    0    0  0.94148428596E+01  0.57116368504E+01  0.97921042344E+02  0.98554301399E+02  0.17770000000E+01 0. -1.
</event>
<event>
 6    1  0.1097339E-002  0.1848616E+03  0.7546771E-02  0.1066590E+00
        -11   -1    0    0    0    0  0.00000000000E+00  0.00000000000E+00  0.18250000000E+03  0.18250000000E+03  0.00000000000E+00 0. -1.
         11   -1    0    0    0    0 -0.00000000000E+00 -0.00000000000E+00 -0.18250000000E+03  0.18250000000E+03  0.00000000000E+00 0. -1.
        -11    1    1    2    0    0  0.17031175454E+01 -0.53308682917E+01  0.18005143270E+03  0.18013838343E+03  0.00000000000E+00 0. -1.
         11    1    1    2    0    0 -0.43408273218E+01 -0.20373434372E+01 -0.16675742251E+03  0.16682635138E+03  0.00000000000E+00 0. -1.
        -15    1    1    2    0    0  0.27979495602E+01  0.13104331149E+00 -0.86223673159E+01  0.92384328336E+01  0.17770000000E+01 0.  1.
         15    1    1    2    0    0 -0.16023978370E+00  0.72371684173E+01 -0.46716428733E+01  0.87968323631E+01  0.17770000000E+01 0.  1.
</event>
<event>
 6    1  0.1097339E-002  0.1846260E+03  0.7546771E-02  0.1066775E+00
        -11   -1    0    0    0    0  0.00000000000E+00  0.00000000000E+00  0.18250000000E+03  0.18250000000E+03  0.00000000000E+00 0. -1.
         11   -1    0    0    0    0 -0.00000000000E+00 -0.00000000000E+00 -0.18250000000E+03  0.18250000000E+03  0.00000000000E+00 0.  1.
        -11    1    1    2    0    0  0.96569870004E+00 -0.37265986222E+01  0.15207574863E+03  0.15212446691E+03  0.00000000000E+00 0. -1.
         11    1    1    2    0    0  0.21114832955E+01 -0.59916508238E+01 -0.18026209747E+03  0.18037400595E+03  0.00000000000E+00 0.  1.
        -15    1    1    2    0    0 -0.60354250531E+01  0.56679570224E+01  0.24771516249E+02  0.26178957937E+02  0.17770000000E+01 0. -1.
         15    1    1    2    0    0  0.29582430576E+01  0.40502924236E+01  0.34148325885E+01  0.63225692018E+01  0.17770000000E+01 0.  1.
</event>
<event>
 6    1  0.1097339E-002  0.1830980E+03  0.7546771E-02  0.1067980E+00
        -11   -1    0    0    0    0  0.00000000000E+00  0.00000000000E+00  0.18250000000E+03  0.18250000000E+03  0.00000000000E+00 0.  1.
         11   -1    0    0    0    0 -0.00000000000E+00 -0.00000000000E+00 -0.18250000000E+03  0.18250000000E+03  0.00000000000E+00 0.  1.
        -11    1    1    2    0    0 -0.50729747655E+00  0.27185847928E+01  0.12177603440E+03  0.12180743248E+03  0.00000000000E+00 0.  1.
         11    1    1    2    0    0 -0.27354412563E+01  0.31500875420E+01 -0.18185410355E+03  0.18190195345E+03  0.00000000000E+00 0.  1.
        -15    1    1    2    0    0 -0.10682408270E+01  0.17311398299E+01  0.77224159135E+01  0.81811625162E+01  0.17770000000E+01 0.  1.
         15    1    1    2    0    0  0.43109795598E+01 -0.75998121646E+01  0.52355653234E+02  0.53109451553E+02  0.17770000000E+01 0.  1.
</event>
<event>
 6    1  0.1097339E-002  0.1826405E+03  0.7546771E-02  0.1068343E+00
        -11   -1    0    0    0    0  0.00000000000E+00  0.00000000000E+00  0.18250000000E+03  0.18250000000E+03  0.00000000000E+00 0.  1.
         11   -1    0    0    0    0 -0.00000000000E+00 -0.00000000000E+00 -0.18250000000E+03  0.18250000000E+03  0.00000000000E+00 0.  1.
        -11    1    1    2    0    0 -0.21726751840E+00  0.26817626802E+01  0.18233962412E+03  0.18235947351E+03  0.00000000000E+00 0.  1.
         11    1    1    2    0    0 -0.16611827675E+01  0.13303553977E+01 -0.10749971987E+03  0.10752078471E+03  0.00000000000E+00 0.  1.
        -15    1    1    2    0    0  0.11822183013E+01 -0.38999928609E+01 -0.58417833151E+02  0.58586760821E+02  0.17770000000E+01 0. -1.
         15    1    1    2    0    0  0.69623198455E+00 -0.11212521695E+00 -0.16422071098E+02  0.16532980953E+02  0.17770000000E+01 0.  1.
</event>
<event>
 6    1  0.1097339E-002  0.1830945E+03  0.7546771E-02  0.1067983E+00
        -11   -1    0    0    0    0  0.00000000000E+00  0.00000000000E+00  0.18250000000E+03  0.18250000000E+03  0.00000000000E+00 0. -1.
         11   -1    0    0    0    0 -0.00000000000E+00 -0.00000000000E+00 -0.18250000000E+03  0.18250000000E+03  0.00000000000E+00 0.  1.
        -11    1    1    2    0    0  0.22318407202E+01  0.12140121128E+01  0.11699977996E+03  0.11702736197E+03  0.00000000000E+00 0. -1.
         11    1    1    2    0    0 -0.24930490122E+01 -0.15505618910E+01 -0.18188178488E+03  0.18190547877E+03  0.00000000000E+00 0.  1.
        -15    1    1    2    0    0  0.28749642193E+01  0.16991211240E-01  0.46348530544E+01  0.57363141301E+01  0.17770000000E+01 0.  1.
         15    1    1    2    0    0 -0.26137559273E+01  0.31955856693E+00  0.60247151864E+02  0.60330845133E+02  0.17770000000E+01 0. -1.
</event>
<event>
 6    1  0.1097339E-002  0.1869363E+03  0.7546771E-02  0.1064977E+00
        -11   -1    0    0    0    0  0.00000000000E+00  0.00000000000E+00  0.18250000000E+03  0.18250000000E+03  0.00000000000E+00 0.  1.
         11   -1    0    0    0    0 -0.00000000000E+00 -0.00000000000E+00 -0.18250000000E+03  0.18250000000E+03  0.00000000000E+00 0.  1.
        -11    1    1    2    0    0  0.87754164215E+01 -0.34074142562E+01  0.17781467558E+03  0.17806368877E+03  0.00000000000E+00 0.  1.
         11    1    1    2    0    0 -0.11306588067E+01  0.21696669919E+01 -0.16514367794E+03  0.16516180008E+03  0.00000000000E+00 0.  1.
        -15    1    1    2    0    0 -0.64946582309E+01  0.79417549985E+01 -0.93719961580E+01  0.14008715108E+02  0.17770000000E+01 0.  1.
         15    1    1    2    0    0 -0.11500993839E+01 -0.67040077343E+01 -0.32990014898E+01  0.77657960393E+01  0.17770000000E+01 0. -1.
</event>
<event>
 6    1  0.1097339E-002  0.1863670E+03  0.7546771E-02  0.1065418E+00
        -11   -1    0    0    0    0  0.00000000000E+00  0.00000000000E+00  0.18250000000E+03  0.18250000000E+03  0.00000000000E+00 0. -1.
         11   -1    0    0    0    0 -0.00000000000E+00 -0.00000000000E+00 -0.18250000000E+03  0.18250000000E+03  0.00000000000E+00 0.  1.
        -11    1    1    2    0    0 -0.24985690966E+01 -0.39514369270E+01  0.17857179818E+03  0.17863298633E+03  0.00000000000E+00 0. -1.
         11    1    1    2    0    0 -0.36854179795E+01  0.60490890186E+01 -0.17291549797E+03  0.17306051896E+03  0.00000000000E+00 0.  1.
        -15    1    1    2    0    0  0.15559307746E+01 -0.10988056401E+01  0.25640265616E+01  0.36551683434E+01  0.17770000000E+01 0.  1.
         15    1    1    2    0    0  0.46280563015E+01 -0.99884645157E+00 -0.82203267717E+01  0.96513263647E+01  0.17770000000E+01 0. -1.
</event>
<event>
 6    1  0.1097339E-002  0.1916088E+03  0.7546771E-02  0.1061427E+00
        -11   -1    0    0    0    0  0.00000000000E+00  0.00000000000E+00  0.18250000000E+03  0.18250000000E+03  0.00000000000E+00 0.  1.
         11   -1    0    0    0    0 -0.00000000000E+00 -0.00000000000E+00 -0.18250000000E+03  0.18250000000E+03  0.00000000000E+00 0.  1.
        -11    1    1    2    0    0  0.12913161660E+02 -0.22314591994E+01  0.88557659648E+02  0.89521998618E+02  0.00000000000E+00 0.  1.
         11    1    1    2    0    0  0.39772689266E+01 -0.18760725043E+00 -0.17334548376E+03  0.17339120682E+03  0.00000000000E+00 0.  1.
        -15    1    1    2    0    0 -0.15301002234E+02  0.54806923752E+01  0.92243761737E+02  0.93681524147E+02  0.17770000000E+01 0.  1.
         15    1    1    2    0    0 -0.15894283526E+01 -0.30616259253E+01 -0.74559376261E+01  0.84052704108E+01  0.17770000000E+01 0.  1.
</event>
<event>
 6    1  0.1097339E-002  0.1825623E+03  0.7546771E-02  0.1068405E+00
        -11   -1    0    0    0    0  0.00000000000E+00  0.00000000000E+00  0.18250000000E+03  0.18250000000E+03  0.00000000000E+00 0.  1.
         11   -1    0    0    0    0 -0.00000000000E+00 -0.00000000000E+00 -0.18250000000E+03  0.18250000000E+03  0.00000000000E+00 0. -1.
        -11    1    1    2    0    0  0.68105557487E+00 -0.91332022593E+00  0.72434566805E+02  0.72443525996E+02  0.00000000000E+00 0.  1.
         11    1    1    2    0    0  0.24459267610E+01 -0.79301519926E+00 -0.18241955961E+03  0.18243768021E+03  0.00000000000E+00 0. -1.
        -15    1    1    2    0    0 -0.13572631096E+01  0.56920085062E+00  0.70578904608E+02  0.70616610351E+02  0.17770000000E+01 0.  1.
         15    1    1    2    0    0 -0.17697192263E+01  0.11371345746E+01  0.39406088196E+02  0.39502183447E+02  0.17770000000E+01 0.  1.
</event>
<event>
 6    1  0.1097339E-002  0.1834148E+03  0.7546771E-02  0.1067729E+00
        -11   -1    0    0    0    0  0.00000000000E+00  0.00000000000E+00  0.18250000000E+03  0.18250000000E+03  0.00000000000E+00 0. -1.
         11   -1    0    0    0    0 -0.00000000000E+00 -0.00000000000E+00 -0.18250000000E+03  0.18250000000E+03  0.00000000000E+00 0.  1.
        -11    1    1    2    0    0 -0.25698471032E+01  0.38581991953E+01  0.16787840473E+03  0.16794239664E+03  0.00000000000E+00 0. -1.
         11    1    1    2    0    0  0.20036135683E+01 -0.22371975548E+01 -0.18156037961E+03  0.18158521681E+03  0.00000000000E+00 0.  1.
        -15    1    1    2    0    0  0.71379861350E+00  0.15545116593E+01  0.99762526771E+01  0.10276641545E+02  0.17770000000E+01 0.  1.
         15    1    1    2    0    0 -0.14756507860E+00 -0.31755132997E+01  0.37057221978E+01  0.51957450069E+01  0.17770000000E+01 0. -1.
</event>
<event>
 6    1  0.1097339E-002  0.1842137E+03  0.7546771E-02  0.1067099E+00
        -11   -1    0    0    0    0  0.00000000000E+00  0.00000000000E+00  0.18250000000E+03  0.18250000000E+03  0.00000000000E+00 0. -1.
         11   -1    0    0    0    0 -0.00000000000E+00 -0.00000000000E+00 -0.18250000000E+03  0.18250000000E+03  0.00000000000E+00 0.  1.
        -11    1    1    2    0    0 -0.35699905383E+01  0.18744081429E+01  0.18074134617E+03  0.18078631711E+03  0.00000000000E+00 0. -1.
         11    1    1    2    0    0  0.71992531391E+00  0.31704667908E+01 -0.13785131211E+03  0.13788964575E+03  0.00000000000E+00 0.  1.
        -15    1    1    2    0    0  0.44203059815E+01  0.51619601448E+01 -0.17152138029E+02  0.18534791757E+02  0.17770000000E+01 0.  1.
         15    1    1    2    0    0 -0.15702407571E+01 -0.10206835079E+02 -0.25737896027E+02  0.27789245388E+02  0.17770000000E+01 0. -1.
</event>
<event>
 6    1  0.1097339E-002  0.1854930E+03  0.7546771E-02  0.1066097E+00
        -11   -1    0    0    0    0  0.00000000000E+00  0.00000000000E+00  0.18250000000E+03  0.18250000000E+03  0.00000000000E+00 0.  1.
         11   -1    0    0    0    0 -0.00000000000E+00 -0.00000000000E+00 -0.18250000000E+03  0.18250000000E+03  0.00000000000E+00 0. -1.
        -11    1    1    2    0    0  0.16129761626E+01 -0.58224585192E+01  0.17940530240E+03  0.17950700611E+03  0.00000000000E+00 0.  1.
         11    1    1    2    0    0 -0.69346764492E+01 -0.13719677351E+01 -0.16594669773E+03  0.16609719600E+03  0.00000000000E+00 0. -1.
        -15    1    1    2    0    0  0.18889477276E+01  0.24894884818E+01  0.97968303257E+00  0.37260145280E+01  0.17770000000E+01 0.  1.
         15    1    1    2    0    0  0.34327525591E+01  0.47049377725E+01 -0.14438287706E+02  0.15669783357E+02  0.17770000000E+01 0. -1.
</event>
<event>
 6    1  0.1097339E-002  0.1891425E+03  0.7546771E-02  0.1063287E+00
        -11   -1    0    0    0    0  0.00000000000E+00  0.00000000000E+00  0.18250000000E+03  0.18250000000E+03  0.00000000000E+00 0. -1.
         11   -1    0    0    0    0 -0.00000000000E+00 -0.00000000000E+00 -0.18250000000E+03  0.18250000000E+03  0.00000000000E+00 0.  1.
        -11    1    1    2    0    0  0.11121289034E+01  0.31193165789E+01  0.17582634149E+03  0.17585752565E+03  0.00000000000E+00 0. -1.
         11    1    1    2    0    0  0.16493866648E+01 -0.51838283597E+01 -0.15031313277E+03  0.15041153691E+03  0.00000000000E+00 0.  1.
        -15    1    1    2    0    0 -0.77798255344E+01 -0.34681887955E+01 -0.29015331106E+02  0.30291932706E+02  0.17770000000E+01 0. -1.
         15    1    1    2    0    0  0.50183099663E+01  0.55327005763E+01  0.35021223845E+01  0.84390047269E+01  0.17770000000E+01 0.  1.
</event>
<event>
 6    1  0.1097339E-002  0.1792247E+03  0.7546771E-02  0.1071092E+00
        -11   -1    0    0    0    0  0.00000000000E+00  0.00000000000E+00  0.18250000000E+03  0.18250000000E+03  0.00000000000E+00 0.  1.
         11   -1    0    0    0    0 -0.00000000000E+00 -0.00000000000E+00 -0.18250000000E+03  0.18250000000E+03  0.00000000000E+00 0.  1.
        -11    1    1    2    0    0  0.24743048906E+01 -0.15677755881E+01  0.17982380675E+03  0.17984766214E+03  0.00000000000E+00 0.  1.
         11    1    1    2    0    0  0.13154213277E+01  0.23368824980E+01 -0.17860452157E+03  0.17862465249E+03  0.00000000000E+00 0.  1.
        -15    1    1    2    0    0 -0.21739042619E+01  0.20940474332E+00 -0.23796294900E+01  0.36864719714E+01  0.17770000000E+01 0.  1.
         15    1    1    2    0    0 -0.16158219564E+01 -0.97851165322E+00  0.11603443054E+01  0.28412133952E+01  0.17770000000E+01 0. -1.
</event>
<event>
 6    1  0.1097339E-002  0.1826408E+03  0.7546771E-02  0.1068343E+00
        -11   -1    0    0    0    0  0.00000000000E+00  0.00000000000E+00  0.18250000000E+03  0.18250000000E+03  0.00000000000E+00 0.  1.
         11   -1    0    0    0    0 -0.00000000000E+00 -0.00000000000E+00 -0.18250000000E+03  0.18250000000E+03  0.00000000000E+00 0.  1.
        -11    1    1    2    0    0  0.49585914831E+00  0.17473795227E+00  0.31079057812E+02  0.31083504373E+02  0.00000000000E+00 0.  1.
         11    1    1    2    0    0 -0.94482307611E+01  0.20931179844E+01 -0.18210226557E+03  0.18235922059E+03  0.00000000000E+00 0.  1.
        -15    1    1    2    0    0  0.56173686798E+01 -0.30783832653E+01  0.47605499967E+02  0.48067375948E+02  0.17770000000E+01 0.  1.
         15    1    1    2    0    0  0.33350029330E+01  0.81052732859E+00  0.10341770779E+03  0.10348989909E+03  0.17770000000E+01 0. -1.
</event>
<event>
 6    1  0.1097339E-002  0.1846855E+03  0.7546771E-02  0.1066728E+00
        -11   -1    0    0    0    0  0.00000000000E+00  0.00000000000E+00  0.18250000000E+03  0.18250000000E+03  0.00000000000E+00 0. -1.
         11   -1    0    0    0    0 -0.00000000000E+00 -0.00000000000E+00 -0.18250000000E+03  0.18250000000E+03  0.00000000000E+00 0. -1.
        -11    1    1    2    0    0  0.19521686393E+01 -0.14801292513E+01  0.16506115061E+03  0.16507932998E+03  0.00000000000E+00 0. -1.
         11    1    1    2    0    0  0.49027840689E+01 -0.37535688368E+01 -0.18020869866E+03  0.18031445212E+03  0.00000000000E+00 0. -1.
        -15    1    1    2    0    0  0.12422124319E+01  0.22505131532E+01  0.67345688541E+01  0.74242876984E+01  0.17770000000E+01 0. -1.
         15    1    1    2    0    0 -0.80971651401E+01  0.29831849349E+01  0.84129791920E+01  0.12181930206E+02  0.17770000000E+01 0.  1.
</event>
<event>
 6    1  0.1097339E-002  0.1861049E+03  0.7546771E-02  0.1065621E+00
        -11   -1    0    0    0    0  0.00000000000E+00  0.00000000000E+00  0.18250000000E+03  0.18250000000E+03  0.00000000000E+00 0.  1.
         11   -1    0    0    0    0 -0.00000000000E+00 -0.00000000000E+00 -0.18250000000E+03  0.18250000000E+03  0.00000000000E+00 0.  1.
        -11    1    1    2    0    0 -0.22288791016E+01  0.10043825491E+01  0.17887839162E+03  0.17889509684E+03  0.00000000000E+00 0.  1.
         11    1    1    2    0    0  0.30516830396E+01  0.38766871212E+01 -0.15970229196E+03  0.15977848268E+03  0.00000000000E+00 0.  1.
        -15    1    1    2    0    0  0.11502707496E+01 -0.29616449002E+01 -0.21816721936E+02  0.22118353202E+02  0.17770000000E+01 0.  1.
         15    1    1    2    0    0 -0.19730746875E+01 -0.19194247701E+01  0.26406222722E+01  0.42080672707E+01  0.17770000000E+01 0. -1.
</event>
<event>
 6    1  0.1097339E-002  0.1828186E+03  0.7546771E-02  0.1068202E+00
        -11   -1    0    0    0    0  0.00000000000E+00  0.00000000000E+00  0.18250000000E+03  0.18250000000E+03  0.00000000000E+00 0. -1.
         11   -1    0    0    0    0 -0.00000000000E+00 -0.00000000000E+00 -0.18250000000E+03  0.18250000000E+03  0.00000000000E+00 0. -1.
        -11    1    1    2    0    0  0.25570661157E+01 -0.38998803490E+00  0.52857193814E+02  0.52920446103E+02  0.00000000000E+00 0. -1.
         11    1    1    2    0    0  0.43781438752E+01  0.79560678229E+01 -0.18195494604E+03  0.18218141933E+03  0.00000000000E+00 0. -1.
        -15    1    1    2    0    0 -0.65299414493E+00 -0.17151634252E+01  0.78847364499E+02  0.78888736866E+02  0.17770000000E+01 0. -1.
         15    1    1    2    0    0 -0.62822158460E+01 -0.58509163627E+01  0.50250387729E+02  0.51009397704E+02  0.17770000000E+01 0.  1.
</event>
<event>
 6    1  0.1097339E-002  0.1743009E+03  0.7546771E-02  0.1075175E+00
        -11   -1    0    0    0    0  0.00000000000E+00  0.00000000000E+00  0.18250000000E+03  0.18250000000E+03  0.00000000000E+00 0.  1.
         11   -1    0    0    0    0 -0.00000000000E+00 -0.00000000000E+00 -0.18250000000E+03  0.18250000000E+03  0.00000000000E+00 0. -1.
        -11    1    1    2    0    0 -0.53887337088E+01  0.60830853748E+01  0.17460977991E+03  0.17479879181E+03  0.00000000000E+00 0.  1.
         11    1    1    2    0    0 -0.53419439977E+01  0.28805485531E+00 -0.17394475505E+03  0.17402700121E+03  0.00000000000E+00 0. -1.
        -15    1    1    2    0    0  0.11398491056E+02 -0.29242646039E+01 -0.18959734496E+01  0.12051114726E+02  0.17770000000E+01 0. -1.
         15    1    1    2    0    0 -0.66781334942E+00 -0.34468756262E+01  0.12309485895E+01  0.41230922476E+01  0.17770000000E+01 0.  1.
</event>
<event>
 6    1  0.1097339E-002  0.1835279E+03  0.7546771E-02  0.1067640E+00
        -11   -1    0    0    0    0  0.00000000000E+00  0.00000000000E+00  0.18250000000E+03  0.18250000000E+03  0.00000000000E+00 0. -1.
         11   -1    0    0    0    0 -0.00000000000E+00 -0.00000000000E+00 -0.18250000000E+03  0.18250000000E+03  0.00000000000E+00 0.  1.
        -11    1    1    2    0    0  0.15691299632E+02  0.56192644963E+01  0.18070507667E+03  0.18147208532E+03  0.00000000000E+00 0. -1.
         11    1    1    2    0    0 -0.62399632676E+00 -0.22572673807E+00 -0.48162606682E+02  0.48167177687E+02  0.00000000000E+00 0.  1.
        -15    1    1    2    0    0 -0.16588171562E+02 -0.10022119084E+02 -0.71596430406E+02  0.74194453180E+02  0.17770000000E+01 0.  1.
         15    1    1    2    0    0  0.15208682575E+01  0.46285813254E+01 -0.60946039582E+02  0.61166283810E+02  0.17770000000E+01 0. -1.
</event>
<event>
 6    1  0.1097339E-002  0.1919790E+03  0.7546771E-02  0.1061150E+00
        -11   -1    0    0    0    0  0.00000000000E+00  0.00000000000E+00  0.18250000000E+03  0.18250000000E+03  0.00000000000E+00 0.  1.
         11   -1    0    0    0    0 -0.00000000000E+00 -0.00000000000E+00 -0.18250000000E+03  0.18250000000E+03  0.00000000000E+00 0. -1.
        -11    1    1    2    0    0 -0.14566206998E+01 -0.18506578678E+01  0.16034252496E+03  0.16035982037E+03  0.00000000000E+00 0.  1.
         11    1    1    2    0    0  0.61438401939E+01  0.29117861554E+01 -0.17288736719E+03  0.17302100163E+03  0.00000000000E+00 0. -1.
        -15    1    1    2    0    0 -0.26188449372E+01 -0.76901209407E+01 -0.69567014551E+01  0.10842035465E+02  0.17770000000E+01 0. -1.
         15    1    1    2    0    0 -0.20683745569E+01  0.66289926531E+01  0.19501543681E+02  0.20777142533E+02  0.17770000000E+01 0.  1.
</event>
<event>
 6    1  0.1097339E-002  0.1466299E+03  0.7546771E-02  0.1101241E+00
        -11   -1    0    0    0    0  0.00000000000E+00  0.00000000000E+00  0.18250000000E+03  0.18250000000E+03  0.00000000000E+00 0. -1.
         11   -1    0    0    0    0 -0.00000000000E+00 -0.00000000000E+00 -0.18250000000E+03  0.18250000000E+03  0.00000000000E+00 0. -1.
        -11    1    1    2    0    0  0.55002113644E+01  0.35485916581E+01  0.15092706231E+03  0.15106893448E+03  0.00000000000E+00 0. -1.
         11    1    1    2    0    0  0.64254994307E+01  0.18556678616E+02 -0.14204733829E+03  0.14339833918E+03  0.00000000000E+00 0. -1.
        -15    1    1    2    0    0 -0.23180292747E+02 -0.11803470079E+02 -0.32925915868E+02  0.41999065971E+02  0.17770000000E+01 0. -1.
         15    1    1    2    0    0  0.11254581951E+02 -0.10301800195E+02  0.24046191856E+02  0.28533660367E+02  0.17770000000E+01 0.  1.
</event>
<event>
 6    1  0.1097339E-002  0.1837444E+03  0.7546771E-02  0.1067469E+00
        -11   -1    0    0    0    0  0.00000000000E+00  0.00000000000E+00  0.18250000000E+03  0.18250000000E+03  0.00000000000E+00 0.  1.
         11   -1    0    0    0    0 -0.00000000000E+00 -0.00000000000E+00 -0.18250000000E+03  0.18250000000E+03  0.00000000000E+00 0.  1.
        -11    1    1    2    0    0 -0.26616646063E+01  0.30782493224E+01  0.15107846694E+03  0.15113326322E+03  0.00000000000E+00 0.  1.
         11    1    1    2    0    0  0.27545230969E+01 -0.30388440128E+01 -0.18120916362E+03  0.18125557357E+03  0.00000000000E+00 0.  1.
        -15    1    1    2    0    0 -0.47380424170E+01  0.28795555190E+01  0.21163088947E+02  0.21949372399E+02  0.17770000000E+01 0.  1.
         15    1    1    2    0    0  0.46451839264E+01 -0.29189608286E+01  0.89676077266E+01  0.10661790814E+02  0.17770000000E+01 0. -1.
</event>
<event>
 6    1  0.1097339E-002  0.1828489E+03  0.7546771E-02  0.1068177E+00
        -11   -1    0    0    0    0  0.00000000000E+00  0.00000000000E+00  0.18250000000E+03  0.18250000000E+03  0.00000000000E+00 0. -1.
         11   -1    0    0    0    0 -0.00000000000E+00 -0.00000000000E+00 -0.18250000000E+03  0.18250000000E+03  0.00000000000E+00 0. -1.
        -11    1    1    2    0    0 -0.15371768893E+00  0.33204332242E+01  0.18212077574E+03  0.18215110723E+03  0.00000000000E+00 0. -1.
         11    1    1    2    0    0  0.10831349789E+01  0.25646834974E+01 -0.14323413466E+03  0.14326118844E+03  0.00000000000E+00 0. -1.
        -15    1    1    2    0    0  0.28901005950E+00 -0.42141117587E+01 -0.27496438453E+02  0.27875690509E+02  0.17770000000E+01 0. -1.
         15    1    1    2    0    0 -0.12184273494E+01 -0.16710049629E+01 -0.11390202632E+02  0.11712013823E+02  0.17770000000E+01 0. -1.
</event>
<event>
 6    1  0.1097339E-002  0.1876286E+03  0.7546771E-02  0.1064444E+00
        -11   -1    0    0    0    0  0.00000000000E+00  0.00000000000E+00  0.18250000000E+03  0.18250000000E+03  0.00000000000E+00 0.  1.
         11   -1    0    0    0    0 -0.00000000000E+00 -0.00000000000E+00 -0.18250000000E+03  0.18250000000E+03  0.00000000000E+00 0. -1.
        -11    1    1    2    0    0 -0.10861575979E+02  0.47321774692E+01  0.16234961402E+03  0.16278133956E+03  0.00000000000E+00 0.  1.
         11    1    1    2    0    0 -0.69611768399E+00  0.51138134900E+01 -0.17729627239E+03  0.17737137275E+03  0.00000000000E+00 0. -1.
        -15    1    1    2    0    0  0.34962324968E+01 -0.43803855158E+01 -0.11102993719E+01  0.59834699493E+01  0.17770000000E+01 0. -1.
         15    1    1    2    0    0  0.80614611657E+01 -0.54656054434E+01  0.16056957743E+02  0.18863817746E+02  0.17770000000E+01 0.  1.
</event>
<event>
 6    1  0.1097339E-002  0.1869553E+03  0.7546771E-02  0.1064963E+00
        -11   -1    0    0    0    0  0.00000000000E+00  0.00000000000E+00  0.18250000000E+03  0.18250000000E+03  0.00000000000E+00 0. -1.
         11   -1    0    0    0    0 -0.00000000000E+00 -0.00000000000E+00 -0.18250000000E+03  0.18250000000E+03  0.00000000000E+00 0. -1.
        -11    1    1    2    0    0 -0.10525335743E+02  0.68711679630E+01  0.17760046600E+03  0.17804471675E+03  0.00000000000E+00 0. -1.
         11    1    1    2    0    0  0.33613963914E+01 -0.16252586337E+00 -0.15913020097E+03  0.15916578231E+03  0.00000000000E+00 0. -1.
        -15    1    1    2    0    0 -0.39191641802E+00 -0.11090185803E+02 -0.69131328492E+01  0.13194504705E+02  0.17770000000E+01 0.  1.
         15    1    1    2    0    0  0.75558557700E+01  0.43815437030E+01 -0.11557132182E+02  0.14594996228E+02  0.17770000000E+01 0. -1.
</event>
<event>
 6    1  0.1097339E-002  0.1838325E+03  0.7546771E-02  0.1067399E+00
        -11   -1    0    0    0    0  0.00000000000E+00  0.00000000000E+00  0.18250000000E+03  0.18250000000E+03  0.00000000000E+00 0.  1.
         11   -1    0    0    0    0 -0.00000000000E+00 -0.00000000000E+00 -0.18250000000E+03  0.18250000000E+03  0.00000000000E+00 0.  1.
        -11    1    1    2    0    0 -0.94219390424E+00  0.21189770552E+01  0.17029927282E+03  0.17031506133E+03  0.00000000000E+00 0.  1.
         11    1    1    2    0    0 -0.48847404701E+01  0.78827378484E-01 -0.18110163804E+03  0.18116751973E+03  0.00000000000E+00 0.  1.
        -15    1    1    2    0    0  0.42558461129E+01 -0.30657687383E+01  0.66131368279E+01  0.86256867435E+01  0.17770000000E+01 0.  1.
         15    1    1    2    0    0  0.15710882615E+01  0.86796430464E+00  0.41892283953E+01  0.48917321991E+01  0.17770000000E+01 0.  1.
</event>
<event>
 6    1  0.1097339E-002  0.1837809E+03  0.7546771E-02  0.1067440E+00
        -11   -1    0    0    0    0  0.00000000000E+00  0.00000000000E+00  0.18250000000E+03  0.18250000000E+03  0.00000000000E+00 0.  1.
         11   -1    0    0    0    0 -0.00000000000E+00 -0.00000000000E+00 -0.18250000000E+03  0.18250000000E+03  0.00000000000E+00 0. -1.
        -11    1    1    2    0    0 -0.42420283815E+01  0.18767026806E+01  0.97675243585E+02  0.97785326236E+02  0.00000000000E+00 0.  1.
         11    1    1    2    0    0 -0.42042716030E+00 -0.29813354947E+01 -0.18119409784E+03  0.18121911105E+03  0.00000000000E+00 0. -1.
        -15    1    1    2    0    0  0.11333378209E+02 -0.36639174254E+01  0.52332164155E+02  0.53699933768E+02  0.17770000000E+01 0.  1.
         15    1    1    2    0    0 -0.66709226669E+01  0.47685502395E+01  0.31186690096E+02  0.32295628942E+02  0.17770000000E+01 0. -1.
</event>
<event>
 6    1  0.1097339E-002  0.1795356E+03  0.7546771E-02  0.1070839E+00
        -11   -1    0    0    0    0  0.00000000000E+00  0.00000000000E+00  0.18250000000E+03  0.18250000000E+03  0.00000000000E+00 0.  1.
         11   -1    0    0    0    0 -0.00000000000E+00 -0.00000000000E+00 -0.18250000000E+03  0.18250000000E+03  0.00000000000E+00 0. -1.
        -11    1    1    2    0    0  0.29556793705E+00 -0.38044204091E+01  0.17989337296E+03  0.17993383954E+03  0.00000000000E+00 0.  1.
         11    1    1    2    0    0 -0.15398322397E+01  0.23945500482E+01 -0.17912057706E+03  0.17914319992E+03  0.00000000000E+00 0. -1.
        -15    1    1    2    0    0  0.55357962578E+00  0.28283204067E+01 -0.10142213333E+01  0.35344335668E+01  0.17770000000E+01 0.  1.
         15    1    1    2    0    0  0.69068467682E+00 -0.14184500458E+01  0.24142542873E+00  0.23885269714E+01  0.17770000000E+01 0.  1.
</event>
<event>
 6    1  0.1097339E-002  0.1880963E+03  0.7546771E-02  0.1064085E+00
        -11   -1    0    0    0    0  0.00000000000E+00  0.00000000000E+00  0.18250000000E+03  0.18250000000E+03  0.00000000000E+00 0.  1.
         11   -1    0    0    0    0 -0.00000000000E+00 -0.00000000000E+00 -0.18250000000E+03  0.18250000000E+03  0.00000000000E+00 0. -1.
        -11    1    1    2    0    0 -0.15143484270E+01  0.16394028566E+01  0.16314493962E+03  0.16316020415E+03  0.00000000000E+00 0.  1.
         11    1    1    2    0    0 -0.21345798934E+01 -0.46591995797E+01 -0.17682946050E+03  0.17690371017E+03  0.00000000000E+00 0. -1.
        -15    1    1    2    0    0  0.75234362717E+01  0.89252654710E+01  0.13090153132E+02  0.17628734926E+02  0.17770000000E+01 0.  1.
         15    1    1    2    0    0 -0.38745079513E+01 -0.59054687480E+01  0.59436774504E+00  0.73073507521E+01  0.17770000000E+01 0. -1.
</event>
<event>
 6    1  0.1097339E-002  0.1833748E+03  0.7546771E-02  0.1067761E+00
        -11   -1    0    0    0    0  0.00000000000E+00  0.00000000000E+00  0.18250000000E+03  0.18250000000E+03  0.00000000000E+00 0. -1.
         11   -1    0    0    0    0 -0.00000000000E+00 -0.00000000000E+00 -0.18250000000E+03  0.18250000000E+03  0.00000000000E+00 0. -1.
        -11    1    1    2    0    0  0.86782442059E+00 -0.32223005494E+01  0.18159457340E+03  0.18162523345E+03  0.00000000000E+00 0. -1.
         11    1    1    2    0    0 -0.14244383958E+01  0.29198863196E+01 -0.16885553708E+03  0.16888678800E+03  0.00000000000E+00 0. -1.
        -15    1    1    2    0    0  0.12909783568E+01 -0.29554250421E+00 -0.12205251450E+02  0.12404832222E+02  0.17770000000E+01 0.  1.
         15    1    1    2    0    0 -0.73436438163E+00  0.59795673397E+00 -0.53378486996E+00  0.20831463194E+01  0.17770000000E+01 0. -1.
</event>
<event>
 6    1  0.1097339E-002  0.1826775E+03  0.7546771E-02  0.1068314E+00
        -11   -1    0    0    0    0  0.00000000000E+00  0.00000000000E+00  0.18250000000E+03  0.18250000000E+03  0.00000000000E+00 0. -1.
         11   -1    0    0    0    0 -0.00000000000E+00 -0.00000000000E+00 -0.18250000000E+03  0.18250000000E+03  0.00000000000E+00 0. -1.
        -11    1    1    2    0    0 -0.10910633925E+01 -0.20387128997E+01  0.13321258804E+03  0.13323265509E+03  0.00000000000E+00 0. -1.
         11    1    1    2    0    0  0.30000396503E+01 -0.16664837873E+00 -0.18229771481E+03  0.18232247484E+03  0.00000000000E+00 0. -1.
        -15    1    1    2    0    0 -0.71292017089E+00  0.14081877255E+01  0.40209751527E+02  0.40279934145E+02  0.17770000000E+01 0.  1.
         15    1    1    2    0    0 -0.11960560869E+01  0.79717355289E+00  0.88753752377E+01  0.91649359215E+01  0.17770000000E+01 0. -1.
</event>
<event>
 6    1  0.1097339E-002  0.1882223E+03  0.7546771E-02  0.1063989E+00
        -11   -1    0    0    0    0  0.00000000000E+00  0.00000000000E+00  0.18250000000E+03  0.18250000000E+03  0.00000000000E+00 0. -1.
         11   -1    0    0    0    0 -0.00000000000E+00 -0.00000000000E+00 -0.18250000000E+03  0.18250000000E+03  0.00000000000E+00 0. -1.
        -11    1    1    2    0    0 -0.58126224390E+01 -0.27328172710E+01  0.15503156964E+03  0.15516456572E+03  0.00000000000E+00 0. -1.
         11    1    1    2    0    0  0.12896103446E+01 -0.28671451461E+01 -0.17674979112E+03  0.17677774825E+03  0.00000000000E+00 0. -1.
        -15    1    1    2    0    0  0.79639860241E+00 -0.22136132034E+01  0.23797229000E+02  0.23979161187E+02  0.17770000000E+01 0.  1.
         15    1    1    2    0    0  0.37266134920E+01  0.78135756204E+01 -0.20790075229E+01  0.90785248458E+01  0.17770000000E+01 0. -1.
</event>
<event>
 6    1  0.1097339E-002  0.1856773E+03  0.7546771E-02  0.1065953E+00
        -11   -1    0    0    0    0  0.00000000000E+00  0.00000000000E+00  0.18250000000E+03  0.18250000000E+03  0.00000000000E+00 0.  1.
         11   -1    0    0    0    0 -0.00000000000E+00 -0.00000000000E+00 -0.18250000000E+03  0.18250000000E+03  0.00000000000E+00 0.  1.
        -11    1    1    2    0    0  0.23889981589E+01  0.68845452854E+01  0.15374282982E+03  0.15391543782E+03  0.00000000000E+00 0.  1.
         11    1    1    2    0    0 -0.38494720619E+01 -0.14327056776E+01 -0.17927563881E+03  0.17932268610E+03  0.00000000000E+00 0.  1.
        -15    1    1    2    0    0  0.13792357581E+01  0.64448617751E+01  0.10205758070E+02  0.12278182331E+02  0.17770000000E+01 0. -1.
         15    1    1    2    0    0  0.81238144789E-01 -0.11896701383E+02  0.15327050914E+02  0.19483693750E+02  0.17770000000E+01 0.  1.
</event>
<event>
 6    1  0.1097339E-002  0.1819330E+03  0.7546771E-02  0.1068907E+00
        -11   -1    0    0    0    0  0.00000000000E+00  0.00000000000E+00  0.18250000000E+03  0.18250000000E+03  0.00000000000E+00 0. -1.
         11   -1    0    0    0    0 -0.00000000000E+00 -0.00000000000E+00 -0.18250000000E+03  0.18250000000E+03  0.00000000000E+00 0. -1.
        -11    1    1    2    0    0  0.13533067435E+01 -0.61532663739E-01  0.19718675050E+01  0.23923810039E+01  0.00000000000E+00 0. -1.
         11    1    1    2    0    0  0.28039149172E+01  0.14035488584E+02 -0.18107461231E+03  0.18163940130E+03  0.00000000000E+00 0. -1.
        -15    1    1    2    0    0  0.11890550719E+01 -0.13416584148E+01  0.12805201869E+03  0.12807689533E+03  0.17770000000E+01 0.  1.
         15    1    1    2    0    0 -0.53462767327E+01 -0.12632297506E+02  0.51050726121E+02  0.52891322367E+02  0.17770000000E+01 0. -1.
</event>
<event>
 6    1  0.1097339E-002  0.1826549E+03  0.7546771E-02  0.1068332E+00
        -11   -1    0    0    0    0  0.00000000000E+00  0.00000000000E+00  0.18250000000E+03  0.18250000000E+03  0.00000000000E+00 0. -1.
         11   -1    0    0    0    0 -0.00000000000E+00 -0.00000000000E+00 -0.18250000000E+03  0.18250000000E+03  0.00000000000E+00 0. -1.
        -11    1    1    2    0    0 -0.26422199992E+01  0.16652846353E+01  0.18231830255E+03  0.18234505188E+03  0.00000000000E+00 0. -1.
         11    1    1    2    0    0 -0.22019865590E+01  0.58898820659E-01 -0.10385779359E+03  0.10388115086E+03  0.00000000000E+00 0. -1.
        -15    1    1    2    0    0  0.35343357586E+01 -0.11166723793E+01 -0.32899459135E+02  0.33155250366E+02  0.17770000000E+01 0. -1.
         15    1    1    2    0    0  0.13098707996E+01 -0.60751107663E+00 -0.45561049823E+02  0.45618546899E+02  0.17770000000E+01 0. -1.
</event>
<event>
 6    1  0.1097339E-002  0.2032601E+03  0.7546771E-02  0.1053034E+00
        -11   -1    0    0    0    0  0.00000000000E+00  0.00000000000E+00  0.18250000000E+03  0.18250000000E+03  0.00000000000E+00 0.  1.
         11   -1    0    0    0    0 -0.00000000000E+00 -0.00000000000E+00 -0.18250000000E+03  0.18250000000E+03  0.00000000000E+00 0.  1.
        -11    1    1    2    0    0  0.17782602441E+01  0.62041790196E+01  0.16161103417E+03  0.16173985412E+03  0.00000000000E+00 0.  1.
         11    1    1    2    0    0 -0.16417689185E+02 -0.18085915697E+02 -0.12117467568E+03  0.12361206613E+03  0.00000000000E+00 0.  1.
        -15    1    1    2    0    0 -0.43958005847E+01  0.20675430758E+02 -0.51626458102E+02  0.55814383496E+02  0.17770000000E+01 0.  1.
         15    1    1    2    0    0  0.19035229526E+02 -0.87936940805E+01  0.11190099617E+02  0.23833696254E+02  0.17770000000E+01 0. -1.
</event>
<event>
 6    1  0.1097339E-002  0.1783256E+03  0.7546771E-02  0.1071827E+00
        -11   -1    0    0    0    0  0.00000000000E+00  0.00000000000E+00  0.18250000000E+03  0.18250000000E+03  0.00000000000E+00 0.  1.
         11   -1    0    0    0    0 -0.00000000000E+00 -0.00000000000E+00 -0.18250000000E+03  0.18250000000E+03  0.00000000000E+00 0. -1.
        -11    1    1    2    0    0  0.13056317476E+01 -0.30926644596E+01  0.17896194700E+03  0.17899342927E+03  0.00000000000E+00 0.  1.
         11    1    1    2    0    0 -0.37828137385E+01  0.96360879280E+00 -0.17763232802E+03  0.17767521543E+03  0.00000000000E+00 0. -1.
        -15    1    1    2    0    0  0.30470670506E+01 -0.17362678707E+01 -0.57730105856E+00  0.39736946588E+01  0.17770000000E+01 0.  1.
         15    1    1    2    0    0 -0.56988505972E+00  0.38653235375E+01 -0.75231791923E+00  0.43576606433E+01  0.17770000000E+01 0.  1.
</event>
<event>
 6    1  0.1097339E-002  0.1847726E+03  0.7546771E-02  0.1066660E+00
        -11   -1    0    0    0    0  0.00000000000E+00  0.00000000000E+00  0.18250000000E+03  0.18250000000E+03  0.00000000000E+00 0.  1.
         11   -1    0    0    0    0 -0.00000000000E+00 -0.00000000000E+00 -0.18250000000E+03  0.18250000000E+03  0.00000000000E+00 0. -1.
        -11    1    1    2    0    0 -0.28359201704E+01 -0.96025775059E+01  0.14372197700E+03  0.14407032523E+03  0.00000000000E+00 0.  1.
         11    1    1    2    0    0  0.49747480906E+01 -0.30302019055E+01 -0.18013327724E+03  0.18022743357E+03  0.00000000000E+00 0. -1.
        -15    1    1    2    0    0  0.33805822892E+01  0.69776206539E+01  0.27646523778E+02  0.28768099218E+02  0.17770000000E+01 0. -1.
         15    1    1    2    0    0 -0.55194102093E+01  0.56551587575E+01  0.87647764547E+01  0.11934141986E+02  0.17770000000E+01 0. -1.
</event>
<event>
 6    1  0.1097339E-002  0.1924226E+03  0.7546771E-02  0.1060820E+00
        -11   -1    0    0    0    0  0.00000000000E+00  0.00000000000E+00  0.18250000000E+03  0.18250000000E+03  0.00000000000E+00 0.  1.
         11   -1    0    0    0    0 -0.00000000000E+00 -0.00000000000E+00 -0.18250000000E+03  0.18250000000E+03  0.00000000000E+00 0.  1.
        -11    1    1    2    0    0 -0.43818318955E+00  0.83941644744E+00  0.58458849827E+02  0.58466518175E+02  0.00000000000E+00 0.  1.
         11    1    1    2    0    0  0.19027365951E+01 -0.27535001583E+01 -0.17254496926E+03  0.17257742780E+03  0.00000000000E+00 0.  1.
        -15    1    1    2    0    0  0.25178877989E+00 -0.34089063766E+01  0.12312174155E+03  0.12318199954E+03  0.17770000000E+01 0.  1.
         15    1    1    2    0    0 -0.17163421854E+01  0.53229900874E+01 -0.90356221165E+01  0.10774054483E+02  0.17770000000E+01 0. -1.
</event>
<event>
 6    1  0.1097339E-002  0.1827482E+03  0.7546771E-02  0.1068257E+00
        -11   -1    0    0    0    0  0.00000000000E+00  0.00000000000E+00  0.18250000000E+03  0.18250000000E+03  0.00000000000E+00 0.  1.
         11   -1    0    0    0    0 -0.00000000000E+00 -0.00000000000E+00 -0.18250000000E+03  0.18250000000E+03  0.00000000000E+00 0. -1.
        -11    1    1    2    0    0 -0.51893868820E+00  0.66780027317E+00  0.26314446840E+02  0.26328033863E+02  0.00000000000E+00 0.  1.
         11    1    1    2    0    0 -0.26468490495E+01 -0.21616939389E+01 -0.18221979305E+03  0.18225183595E+03  0.00000000000E+00 0. -1.
        -15    1    1    2    0    0 -0.28473132835E+01  0.43469252012E+00  0.15246100427E+02  0.15617216709E+02  0.17770000000E+01 0.  1.
         15    1    1    2    0    0  0.60131010212E+01  0.10592011456E+01  0.14065924578E+03  0.14080291348E+03  0.17770000000E+01 0.  1.
</event>
<event>
 6    1  0.1097339E-002  0.1861394E+03  0.7546771E-02  0.1065594E+00
        -11   -1    0    0    0    0  0.00000000000E+00  0.00000000000E+00  0.18250000000E+03  0.18250000000E+03  0.00000000000E+00 0.  1.
         11   -1    0    0    0    0 -0.00000000000E+00 -0.00000000000E+00 -0.18250000000E+03  0.18250000000E+03  0.00000000000E+00 0. -1.
        -11    1    1    2    0    0 -0.22704480749E+00  0.25268905156E+01  0.17884256106E+03  0.17886055567E+03  0.00000000000E+00 0.  1.
         11    1    1    2    0    0  0.28195071790E+01  0.52347748369E+00 -0.17545072503E+03  0.17547415924E+03  0.00000000000E+00 0. -1.
        -15    1    1    2    0    0 -0.12534045065E+01  0.13539206267E+00 -0.57299731837E+01  0.61302263869E+01  0.17770000000E+01 0.  1.
         15    1    1    2    0    0 -0.13390578650E+01 -0.31857600619E+01  0.23381371465E+01  0.45350587045E+01  0.17770000000E+01 0.  1.
</event>
<event>
 6    1  0.1097339E-002  0.1839792E+03  0.7546771E-02  0.1067283E+00
        -11   -1    0    0    0    0  0.00000000000E+00  0.00000000000E+00  0.18250000000E+03  0.18250000000E+03  0.00000000000E+00 0.  1.
         11   -1    0    0    0    0 -0.00000000000E+00 -0.00000000000E+00 -0.18250000000E+03  0.18250000000E+03  0.00000000000E+00 0. -1.
        -11    1    1    2    0    0  0.10006140420E+02  0.19969339521E+02  0.17963746078E+03  0.18102075760E+03  0.00000000000E+00 0.  1.
         11    1    1    2    0    0 -0.37390696124E+01 -0.11979564712E+01 -0.45965325114E+02  0.46132709157E+02  0.00000000000E+00 0. -1.
        -15    1    1    2    0    0 -0.14423510944E+01 -0.47175071650E+01 -0.24740737483E+01  0.57977599504E+01  0.17770000000E+01 0.  1.
         15    1    1    2    0    0 -0.48247197135E+01 -0.14053875885E+02 -0.13119806192E+03  0.13204877329E+03  0.17770000000E+01 0. -1.
</event>
<event>
 6    1  0.1097339E-002  0.1758860E+03  0.7546771E-02  0.1073845E+00
        -11   -1    0    0    0    0  0.00000000000E+00  0.00000000000E+00  0.18250000000E+03  0.18250000000E+03  0.00000000000E+00 0. -1.
         11   -1    0    0    0    0 -0.00000000000E+00 -0.00000000000E+00 -0.18250000000E+03  0.18250000000E+03  0.00000000000E+00 0.  1.
        -11    1    1    2    0    0 -0.17219278299E+01  0.27863376480E+01  0.17514286467E+03  0.17517349046E+03  0.00000000000E+00 0. -1.
         11    1    1    2    0    0  0.14809927196E+01  0.42825877557E+01 -0.17661448116E+03  0.17667260357E+03  0.00000000000E+00 0.  1.
        -15    1    1    2    0    0 -0.36980466046E+01 -0.75759530448E+01  0.18813844540E+00  0.86176411100E+01  0.17770000000E+01 0. -1.
         15    1    1    2    0    0  0.39389817149E+01  0.50702764105E+00  0.12834780450E+01  0.45362648590E+01  0.17770000000E+01 0.  1.
</event>
<event>
 6    1  0.1097339E-002  0.1902623E+03  0.7546771E-02  0.1062439E+00
        -11   -1    0    0    0    0  0.00000000000E+00  0.00000000000E+00  0.18250000000E+03  0.18250000000E+03  0.00000000000E+00 0. -1.
         11   -1    0    0    0    0 -0.00000000000E+00 -0.00000000000E+00 -0.18250000000E+03  0.18250000000E+03  0.00000000000E+00 0. -1.
        -11    1    1    2    0    0  0.44994187573E+00 -0.98205694204E+01  0.17446094367E+03  0.17473770886E+03  0.00000000000E+00 0. -1.
         11    1    1    2    0    0 -0.67611257139E+01  0.13282413439E+01 -0.13386206117E+03  0.13403927956E+03  0.00000000000E+00 0. -1.
        -15    1    1    2    0    0  0.16278119017E+02  0.11638994453E+01 -0.31132184879E+01  0.16708730622E+02  0.17770000000E+01 0.  1.
         15    1    1    2    0    0 -0.99669351790E+01  0.73284286312E+01 -0.37485664020E+02  0.39514280951E+02  0.17770000000E+01 0. -1.
</event>
<event>
 6    1  0.1097339E-002  0.1827157E+03  0.7546771E-02  0.1068283E+00
        -11   -1    0    0    0    0  0.00000000000E+00  0.00000000000E+00  0.18250000000E+03  0.18250000000E+03  0.00000000000E+00 0. -1.
         11   -1    0    0    0    0 -0.00000000000E+00 -0.00000000000E+00 -0.18250000000E+03  0.18250000000E+03  0.00000000000E+00 0. -1.
        -11    1    1    2    0    0  0.50693609729E+01 -0.31524087476E+01  0.18218654368E+03  0.18228431858E+03  0.00000000000E+00 0. -1.
         11    1    1    2    0    0 -0.62669554801E+00  0.11569394316E+01 -0.39320704684E+02  0.39342713086E+02  0.00000000000E+00 0. -1.
        -15    1    1    2    0    0 -0.96782096275E+00  0.48003731032E+01 -0.33596766439E+02  0.33998245595E+02  0.17770000000E+01 0.  1.
         15    1    1    2    0    0 -0.34748444621E+01 -0.28049037872E+01 -0.10926907255E+03  0.10937472274E+03  0.17770000000E+01 0. -1.
</event>
<event>
 6    1  0.1097339E-002  0.1848254E+03  0.7546771E-02  0.1066619E+00
        -11   -1    0    0    0    0  0.00000000000E+00  0.00000000000E+00  0.18250000000E+03  0.18250000000E+03  0.00000000000E+00 0.  1.
         11   -1    0    0    0    0 -0.00000000000E+00 -0.00000000000E+00 -0.18250000000E+03  0.18250000000E+03  0.00000000000E+00 0. -1.
        -11    1    1    2    0    0 -0.12402847068E+01 -0.60153697557E+01  0.11737440694E+03  0.11753499216E+03  0.00000000000E+00 0.  1.
         11    1    1    2    0    0 -0.16729955905E+02  0.95738712925E+01 -0.17914059136E+03  0.18017464280E+03  0.00000000000E+00 0. -1.
        -15    1    1    2    0    0  0.14951266331E+02 -0.13530534485E+01  0.61286155713E+02  0.63123068126E+02  0.17770000000E+01 0. -1.
         15    1    1    2    0    0  0.30189742816E+01 -0.22054480883E+01  0.48002870818E+00  0.41672969109E+01  0.17770000000E+01 0.  1.
</event>
<event>
 6    1  0.1097339E-002  0.1842664E+03  0.7546771E-02  0.1067057E+00
        -11   -1    0    0    0    0  0.00000000000E+00  0.00000000000E+00  0.18250000000E+03  0.18250000000E+03  0.00000000000E+00 0. -1.
         11   -1    0    0    0    0 -0.00000000000E+00 -0.00000000000E+00 -0.18250000000E+03  0.18250000000E+03  0.00000000000E+00 0.  1.
        -11    1    1    2    0    0  0.20539509723E+01  0.15376634586E+01  0.18071535141E+03  0.18073356456E+03  0.00000000000E+00 0. -1.
         11    1    1    2    0    0 -0.42266301205E+01  0.47988280634E+00 -0.16423784923E+03  0.16429292684E+03  0.00000000000E+00 0.  1.
        -15    1    1    2    0    0 -0.15118568155E+01  0.13044108175E+01  0.92820236009E-03  0.26729999014E+01  0.17770000000E+01 0. -1.
         15    1    1    2    0    0  0.36845359637E+01 -0.33219570824E+01 -0.16478430388E+02  0.17300508697E+02  0.17770000000E+01 0.  1.
</event>
<event>
 6    1  0.1097339E-002  0.1969151E+03  0.7546771E-02  0.1057526E+00
        -11   -1    0    0    0    0  0.00000000000E+00  0.00000000000E+00  0.18250000000E+03  0.18250000000E+03  0.00000000000E+00 0. -1.
         11   -1    0    0    0    0 -0.00000000000E+00 -0.00000000000E+00 -0.18250000000E+03  0.18250000000E+03  0.00000000000E+00 0.  1.
        -11    1    1    2    0    0  0.15757503826E+01  0.15921291367E+01  0.13647245736E+03  0.13649084029E+03  0.00000000000E+00 0. -1.
         11    1    1    2    0    0 -0.37271332372E+01 -0.79371841359E+01 -0.16785601568E+03  0.16808489645E+03  0.00000000000E+00 0.  1.
        -15    1    1    2    0    0  0.26942159257E+01  0.70136392470E+01 -0.13470813814E+02  0.15526444820E+02  0.17770000000E+01 0. -1.
         15    1    1    2    0    0 -0.54283307117E+00 -0.66858424785E+00  0.44854372134E+02  0.44897818446E+02  0.17770000000E+01 0.  1.
</event>
<event>
 6    1  0.1097339E-002  0.1827789E+03  0.7546771E-02  0.1068233E+00
        -11   -1    0    0    0    0  0.00000000000E+00  0.00000000000E+00  0.18250000000E+03  0.18250000000E+03  0.00000000000E+00 0. -1.
         11   -1    0    0    0    0 -0.00000000000E+00 -0.00000000000E+00 -0.18250000000E+03  0.18250000000E+03  0.00000000000E+00 0. -1.
        -11    1    1    2    0    0 -0.15913762283E+01  0.51395173600E-01  0.10149788553E+03  0.10151037330E+03  0.00000000000E+00 0. -1.
         11    1    1    2    0    0 -0.52128268031E+00  0.24029837047E+01 -0.18220454511E+03  0.18222113578E+03  0.00000000000E+00 0. -1.
        -15    1    1    2    0    0  0.90022003257E+00 -0.22025626223E+01  0.76305355482E+02  0.76363123839E+02  0.17770000000E+01 0. -1.
         15    1    1    2    0    0  0.12124388760E+01 -0.25181625606E+00  0.44013040942E+01  0.49053670795E+01  0.17770000000E+01 0.  1.
</event>
<event>
 6    1  0.1097339E-002  0.1832546E+03  0.7546771E-02  0.1067856E+00
        -11   -1    0    0    0    0  0.00000000000E+00  0.00000000000E+00  0.18250000000E+03  0.18250000000E+03  0.00000000000E+00 0.  1.
         11   -1    0    0    0    0 -0.00000000000E+00 -0.00000000000E+00 -0.18250000000E+03  0.18250000000E+03  0.00000000000E+00 0.  1.
        -11    1    1    2    0    0 -0.26267348589E+01  0.98539421181E+00  0.10555310778E+03  0.10559038450E+03  0.00000000000E+00 0.  1.
         11    1    1    2    0    0 -0.26087273937E+01 -0.43169212252E+01 -0.18167539928E+03  0.18174540426E+03  0.00000000000E+00 0.  1.
        -15    1    1    2    0    0 -0.17984727907E+01 -0.40218968839E+01  0.17233474510E+02  0.17876256085E+02  0.17770000000E+01 0. -1.
         15    1    1    2    0    0  0.70339350434E+01  0.73534238973E+01  0.58888816991E+02  0.59787955148E+02  0.17770000000E+01 0.  1.
</event>
<event>
 6    1  0.1097339E-002  0.1852820E+03  0.7546771E-02  0.1066262E+00
        -11   -1    0    0    0    0  0.00000000000E+00  0.00000000000E+00  0.18250000000E+03  0.18250000000E+03  0.00000000000E+00 0. -1.
         11   -1    0    0    0    0 -0.00000000000E+00 -0.00000000000E+00 -0.18250000000E+03  0.18250000000E+03  0.00000000000E+00 0. -1.
        -11    1    1    2    0    0  0.10595775351E+01 -0.28870921146E+01  0.17969164660E+03  0.17971796199E+03  0.00000000000E+00 0. -1.
         11    1    1    2    0    0 -0.81835115219E+00 -0.49723605284E+01 -0.89721092665E+02  0.89862497944E+02  0.00000000000E+00 0. -1.
        -15    1    1    2    0    0 -0.19975358344E+01  0.93582447696E+01 -0.91576821309E+02  0.92092555750E+02  0.17770000000E+01 0.  1.
         15    1    1    2    0    0  0.17563094515E+01 -0.14987921267E+01  0.16062673732E+01  0.33269843105E+01  0.17770000000E+01 0. -1.
</event>
<event>
 6    1  0.1097339E-002  0.1441321E+03  0.7546771E-02  0.1103903E+00
        -11   -1    0    0    0    0  0.00000000000E+00  0.00000000000E+00  0.18250000000E+03  0.18250000000E+03  0.00000000000E+00 0. -1.
         11   -1    0    0    0    0 -0.00000000000E+00 -0.00000000000E+00 -0.18250000000E+03  0.18250000000E+03  0.00000000000E+00 0. -1.
        -11    1    1    2    0    0  0.16848575934E+02  0.36967629733E+01  0.14224785038E+03  0.14328988626E+03  0.00000000000E+00 0. -1.
         11    1    1    2    0    0  0.51999996734E+01  0.10427825961E+02 -0.14571669956E+03  0.14618185962E+03  0.00000000000E+00 0. -1.
        -15    1    1    2    0    0 -0.26816383127E+02  0.51759726095E+01 -0.27426362918E+02  0.38746254120E+02  0.17770000000E+01 0. -1.
         15    1    1    2    0    0  0.47678075187E+01 -0.19300561543E+02  0.30895212097E+02  0.36781999999E+02  0.17770000000E+01 0.  1.
</event>
<event>
 6    1  0.1097339E-002  0.1743902E+03  0.7546771E-02  0.1075100E+00
        -11   -1    0    0    0    0  0.00000000000E+00  0.00000000000E+00  0.18250000000E+03  0.18250000000E+03  0.00000000000E+00 0.  1.
         11   -1    0    0    0    0 -0.00000000000E+00 -0.00000000000E+00 -0.18250000000E+03  0.18250000000E+03  0.00000000000E+00 0. -1.
        -11    1    1    2    0    0 -0.31473675172E+01 -0.50799540778E+00  0.17571849895E+03  0.17574741777E+03  0.00000000000E+00 0.  1.
         11    1    1    2    0    0 -0.60810470665E+01 -0.86640382787E+00 -0.17305889781E+03  0.17316787202E+03  0.00000000000E+00 0. -1.
        -15    1    1    2    0    0  0.17671669893E+01 -0.45075306892E+01 -0.37229626602E+01  0.63607304652E+01  0.17770000000E+01 0. -1.
         15    1    1    2    0    0  0.74612475945E+01  0.58819299248E+01  0.10633615203E+01  0.97239797423E+01  0.17770000000E+01 0.  1.
</event>
<event>
 6    1  0.1097339E-002  0.1833628E+03  0.7546771E-02  0.1067770E+00
        -11   -1    0    0    0    0  0.00000000000E+00  0.00000000000E+00  0.18250000000E+03  0.18250000000E+03  0.00000000000E+00 0. -1.
         11   -1    0    0    0    0 -0.00000000000E+00 -0.00000000000E+00 -0.18250000000E+03  0.18250000000E+03  0.00000000000E+00 0.  1.
        -11    1    1    2    0    0  0.17014064310E+01  0.20648792169E+01  0.17216226230E+03  0.17218305106E+03  0.00000000000E+00 0. -1.
         11    1    1    2    0    0 -0.22990643503E+01  0.18799304132E+01 -0.18161295977E+03  0.18163724010E+03  0.00000000000E+00 0.  1.
        -15    1    1    2    0    0 -0.97685480571E+00 -0.18029815280E+01  0.51436561214E+01  0.58154892311E+01  0.17770000000E+01 0.  1.
         15    1    1    2    0    0  0.15745127250E+01 -0.21418281021E+01  0.43070413437E+01  0.53642196149E+01  0.17770000000E+01 0. -1.
</event>
<event>
 6    1  0.1097339E-002  0.1833674E+03  0.7546771E-02  0.1067766E+00
        -11   -1    0    0    0    0  0.00000000000E+00  0.00000000000E+00  0.18250000000E+03  0.18250000000E+03  0.00000000000E+00 0. -1.
         11   -1    0    0    0    0 -0.00000000000E+00 -0.00000000000E+00 -0.18250000000E+03  0.18250000000E+03  0.00000000000E+00 0. -1.
        -11    1    1    2    0    0  0.71314090920E+01  0.12596162376E+02  0.18105492043E+03  0.18163260862E+03  0.00000000000E+00 0. -1.
         11    1    1    2    0    0  0.20156830146E+01  0.46488076355E+01 -0.17549561290E+02  0.18266403366E+02  0.00000000000E+00 0. -1.
        -15    1    1    2    0    0 -0.19308503221E+01 -0.12711710893E+02 -0.12225342843E+03  0.12294053143E+03  0.17770000000E+01 0. -1.
         15    1    1    2    0    0 -0.72162417846E+01 -0.45332591184E+01 -0.41251930705E+02  0.42160456587E+02  0.17770000000E+01 0.  1.
</event>
<event>
 6    1  0.1097339E-002  0.1827762E+03  0.7546771E-02  0.1068235E+00
        -11   -1    0    0    0    0  0.00000000000E+00  0.00000000000E+00  0.18250000000E+03  0.18250000000E+03  0.00000000000E+00 0. -1.
         11   -1    0    0    0    0 -0.00000000000E+00 -0.00000000000E+00 -0.18250000000E+03  0.18250000000E+03  0.00000000000E+00 0. -1.
        -11    1    1    2    0    0 -0.64007617467E+00 -0.30363086257E+01  0.68939791411E+02  0.69009591416E+02  0.00000000000E+00 0. -1.
         11    1    1    2    0    0  0.31290022396E+01 -0.25073416918E+01 -0.18217963591E+03  0.18222375574E+03  0.00000000000E+00 0. -1.
        -15    1    1    2    0    0 -0.43664965863E+01  0.48784413221E+01  0.10153056664E+03  0.10175696130E+03  0.17770000000E+01 0.  1.
         15    1    1    2    0    0  0.18775705213E+01  0.66520899539E+00  0.11709277853E+02  0.12009691541E+02  0.17770000000E+01 0. -1.
</event>
<event>
 6    1  0.1097339E-002  0.1837907E+03  0.7546771E-02  0.1067432E+00
        -11   -1    0    0    0    0  0.00000000000E+00  0.00000000000E+00  0.18250000000E+03  0.18250000000E+03  0.00000000000E+00 0. -1.
         11   -1    0    0    0    0 -0.00000000000E+00 -0.00000000000E+00 -0.18250000000E+03  0.18250000000E+03  0.00000000000E+00 0.  1.
        -11    1    1    2    0    0  0.74464322725E+01  0.41014657422E+01  0.14457199039E+03  0.14482172413E+03  0.00000000000E+00 0. -1.
         11    1    1    2    0    0 -0.50061680325E+01  0.10918668514E+00 -0.18114005306E+03  0.18120925049E+03  0.00000000000E+00 0.  1.
        -15    1    1    2    0    0  0.47864928368E+01 -0.11346756799E+01  0.11364830475E+02  0.12510599638E+02  0.17770000000E+01 0.  1.
         15    1    1    2    0    0 -0.72267570768E+01 -0.30759767475E+01  0.25203232198E+02  0.26458425748E+02  0.17770000000E+01 0. -1.
</event>
<event>
 6    1  0.1097339E-002  0.1755026E+03  0.7546771E-02  0.1074165E+00
        -11   -1    0    0    0    0  0.00000000000E+00  0.00000000000E+00  0.18250000000E+03  0.18250000000E+03  0.00000000000E+00 0.  1.
         11   -1    0    0    0    0 -0.00000000000E+00 -0.00000000000E+00 -0.18250000000E+03  0.18250000000E+03  0.00000000000E+00 0.  1.
        -11    1    1    2    0    0  0.38584612860E+01  0.12297888256E+01  0.17536488739E+03  0.17541164110E+03  0.00000000000E+00 0.  1.
         11    1    1    2    0    0  0.34290960901E+01 -0.52177230015E+01 -0.17558087910E+03  0.17569185650E+03  0.00000000000E+00 0.  1.
        -15    1    1    2    0    0 -0.39462095377E+01  0.33716344103E+01 -0.49999931553E+01  0.74228127327E+01  0.17770000000E+01 0. -1.
         15    1    1    2    0    0 -0.33413478383E+01  0.61629976554E+00  0.52159848642E+01  0.64736896652E+01  0.17770000000E+01 0. -1.
</event>
<event>
 6    1  0.1097339E-002  0.1891917E+03  0.7546771E-02  0.1063250E+00
        -11   -1    0    0    0    0  0.00000000000E+00  0.00000000000E+00  0.18250000000E+03  0.18250000000E+03  0.00000000000E+00 0.  1.
         11   -1    0    0    0    0 -0.00000000000E+00 -0.00000000000E+00 -0.18250000000E+03  0.18250000000E+03  0.00000000000E+00 0.  1.
        -11    1    1    2    0    0 -0.87502805410E-01 -0.30832711799E+01  0.16195226588E+03  0.16198163675E+03  0.00000000000E+00 0.  1.
         11    1    1    2    0    0  0.41396327484E+01 -0.68961097865E+00 -0.17575822251E+03  0.17580831864E+03  0.00000000000E+00 0.  1.
        -15    1    1    2    0    0 -0.10183777512E+01  0.12841296221E+02  0.11145882836E+02  0.17126716412E+02  0.17770000000E+01 0.  1.
         15    1    1    2    0    0 -0.30337521918E+01 -0.90684140624E+01  0.26600737935E+01  0.10083328198E+02  0.17770000000E+01 0. -1.
</event>
<event>
 6    1  0.1097339E-002  0.1827462E+03  0.7546771E-02  0.1068259E+00
        -11   -1    0    0    0    0  0.00000000000E+00  0.00000000000E+00  0.18250000000E+03  0.18250000000E+03  0.00000000000E+00 0. -1.
         11   -1    0    0    0    0 -0.00000000000E+00 -0.00000000000E+00 -0.18250000000E+03  0.18250000000E+03  0.00000000000E+00 0. -1.
        -11    1    1    2    0    0  0.73981700969E+01  0.25860786798E+01  0.18208525677E+03  0.18225383798E+03  0.00000000000E+00 0. -1.
         11    1    1    2    0    0 -0.15881055263E+01  0.12110934533E+01 -0.10076528378E+03  0.10078507450E+03  0.00000000000E+00 0. -1.
        -15    1    1    2    0    0 -0.47620451006E+01  0.52879341253E+00 -0.31585608370E+02  0.31996329182E+02  0.17770000000E+01 0.  1.
         15    1    1    2    0    0 -0.10480194700E+01 -0.43259655457E+01 -0.49734364624E+02  0.49964758343E+02  0.17770000000E+01 0. -1.
</event>
<event>
 6    1  0.1097339E-002  0.1939424E+03  0.7546771E-02  0.1059695E+00
        -11   -1    0    0    0    0  0.00000000000E+00  0.00000000000E+00  0.18250000000E+03  0.18250000000E+03  0.00000000000E+00 0.  1.
         11   -1    0    0    0    0 -0.00000000000E+00 -0.00000000000E+00 -0.18250000000E+03  0.18250000000E+03  0.00000000000E+00 0.  1.
        -11    1    1    2    0    0 -0.14858473515E+01  0.14336459994E+01  0.15152585327E+03  0.15153991980E+03  0.00000000000E+00 0.  1.
         11    1    1    2    0    0 -0.48364935999E+01  0.54027669960E+01 -0.17090382171E+03  0.17105758632E+03  0.00000000000E+00 0.  1.
        -15    1    1    2    0    0 -0.51511488326E+01  0.92554663281E+01 -0.42472297386E+01  0.11549661497E+02  0.17770000000E+01 0. -1.
         15    1    1    2    0    0  0.11473489784E+02 -0.16091879324E+02  0.23625198180E+02  0.30852832383E+02  0.17770000000E+01 0.  1.
</event>
<event>
 6    1  0.1097339E-002  0.1849551E+03  0.7546771E-02  0.1066517E+00
        -11   -1    0    0    0    0  0.00000000000E+00  0.00000000000E+00  0.18250000000E+03  0.18250000000E+03  0.00000000000E+00 0.  1.
         11   -1    0    0    0    0 -0.00000000000E+00 -0.00000000000E+00 -0.18250000000E+03  0.18250000000E+03  0.00000000000E+00 0. -1.
        -11    1    1    2    0    0  0.38084475632E+01  0.15646432698E+01  0.17999781905E+03  0.18004490341E+03  0.00000000000E+00 0.  1.
         11    1    1    2    0    0  0.48119687929E-01  0.23510436841E+01 -0.17092101280E+03  0.17093718828E+03  0.00000000000E+00 0. -1.
        -15    1    1    2    0    0 -0.23701543134E+01  0.10600806063E+01  0.29192125571E+00  0.31598021110E+01  0.17770000000E+01 0. -1.
         15    1    1    2    0    0 -0.14864129377E+01 -0.49757675602E+01 -0.93687275042E+01  0.10858106202E+02  0.17770000000E+01 0.  1.
</event>
<event>
 6    1  0.1097339E-002  0.1888412E+03  0.7546771E-02  0.1063516E+00
        -11   -1    0    0    0    0  0.00000000000E+00  0.00000000000E+00  0.18250000000E+03  0.18250000000E+03  0.00000000000E+00 0. -1.
         11   -1    0    0    0    0 -0.00000000000E+00 -0.00000000000E+00 -0.18250000000E+03  0.18250000000E+03  0.00000000000E+00 0. -1.
        -11    1    1    2    0    0  0.12874973956E+02 -0.15064627532E+02  0.13478798587E+03  0.13623695935E+03  0.00000000000E+00 0. -1.
         11    1    1    2    0    0 -0.88079082047E+00  0.41731114521E+01 -0.17610711298E+03  0.17615875196E+03  0.00000000000E+00 0. -1.
        -15    1    1    2    0    0  0.76766074693E+01  0.16382174176E+01  0.22149924270E+02  0.23566733603E+02  0.17770000000E+01 0.  1.
         15    1    1    2    0    0 -0.19670790605E+02  0.92532986625E+01  0.19169202836E+02  0.29037555088E+02  0.17770000000E+01 0. -1.
</event>
<event>
 6    1  0.1097339E-002  0.1845612E+03  0.7546771E-02  0.1066826E+00
        -11   -1    0    0    0    0  0.00000000000E+00  0.00000000000E+00  0.18250000000E+03  0.18250000000E+03  0.00000000000E+00 0. -1.
         11   -1    0    0    0    0 -0.00000000000E+00 -0.00000000000E+00 -0.18250000000E+03  0.18250000000E+03  0.00000000000E+00 0.  1.
        -11    1    1    2    0    0 -0.27424452671E+01  0.60005783780E+00  0.18041692867E+03  0.18043876863E+03  0.00000000000E+00 0. -1.
         11    1    1    2    0    0  0.44899339549E+01  0.56076767691E+00 -0.17581214952E+03  0.17587036670E+03  0.00000000000E+00 0.  1.
        -15    1    1    2    0    0  0.41152768095E+00 -0.18943519475E+01 -0.51186551075E+01  0.57546749207E+01  0.17770000000E+01 0. -1.
         15    1    1    2    0    0 -0.21590163687E+01  0.73352643281E+00  0.51387595625E+00  0.29361897429E+01  0.17770000000E+01 0.  1.
</event>
<event>
 6    1  0.1097339E-002  0.1837357E+03  0.7546771E-02  0.1067475E+00
        -11   -1    0    0    0    0  0.00000000000E+00  0.00000000000E+00  0.18250000000E+03  0.18250000000E+03  0.00000000000E+00 0. -1.
         11   -1    0    0    0    0 -0.00000000000E+00 -0.00000000000E+00 -0.18250000000E+03  0.18250000000E+03  0.00000000000E+00 0.  1.
        -11    1    1    2    0    0  0.70307874315E+01 -0.10605647580E+02  0.18081709101E+03  0.18126426050E+03  0.00000000000E+00 0. -1.
         11    1    1    2    0    0  0.31212141766E+01  0.44712461171E+01 -0.71131210154E+02  0.71339912235E+02  0.00000000000E+00 0.  1.
        -15    1    1    2    0    0 -0.26259383938E+00 -0.47757869026E+01 -0.71000352256E+01  0.87433017372E+01  0.17770000000E+01 0. -1.
         15    1    1    2    0    0 -0.98894077687E+01  0.10910188366E+02 -0.10258584563E+03  0.10365252553E+03  0.17770000000E+01 0.  1.
</event>
<event>
 6    1  0.1097339E-002  0.1949733E+03  0.7546771E-02  0.1058938E+00
        -11   -1    0    0    0    0  0.00000000000E+00  0.00000000000E+00  0.18250000000E+03  0.18250000000E+03  0.00000000000E+00 0. -1.
         11   -1    0    0    0    0 -0.00000000000E+00 -0.00000000000E+00 -0.18250000000E+03  0.18250000000E+03  0.00000000000E+00 0.  1.
        -11    1    1    2    0    0  0.36405598102E+01  0.19203923424E+01  0.16997685980E+03  0.17002668747E+03  0.00000000000E+00 0. -1.
         11    1    1    2    0    0  0.24347282377E+01 -0.41932680500E+01 -0.73376202378E+02  0.73536239188E+02  0.00000000000E+00 0.  1.
        -15    1    1    2    0    0  0.49642678158E+01 -0.35291914039E+01 -0.10570430386E+03  0.10589455477E+03  0.17770000000E+01 0.  1.
         15    1    1    2    0    0 -0.11039555864E+02  0.58020671114E+01  0.91036464308E+01  0.15542518579E+02  0.17770000000E+01 0. -1.
</event>
<event>
 6    1  0.1097339E-002  0.1854357E+03  0.7546771E-02  0.1066142E+00
        -11   -1    0    0    0    0  0.00000000000E+00  0.00000000000E+00  0.18250000000E+03  0.18250000000E+03  0.00000000000E+00 0. -1.
         11   -1    0    0    0    0 -0.00000000000E+00 -0.00000000000E+00 -0.18250000000E+03  0.18250000000E+03  0.00000000000E+00 0.  1.
        -11    1    1    2    0    0 -0.89409565184E+00 -0.24774270815E+01  0.17954501557E+03  0.17956433295E+03  0.00000000000E+00 0. -1.
         11    1    1    2    0    0 -0.10259498934E+01 -0.43376503491E+01 -0.16276557495E+03  0.16282659541E+03  0.00000000000E+00 0.  1.
        -15    1    1    2    0    0 -0.47402651440E+01  0.29186863345E+00 -0.30456252811E+01  0.59151384842E+01  0.17770000000E+01 0. -1.
         15    1    1    2    0    0  0.66603106892E+01  0.65232087972E+01 -0.13733815343E+02  0.16693933160E+02  0.17770000000E+01 0.  1.
</event>
<event>
 6    1  0.1097339E-002  0.1831128E+03  0.7546771E-02  0.1067968E+00
        -11   -1    0    0    0    0  0.00000000000E+00  0.00000000000E+00  0.18250000000E+03  0.18250000000E+03  0.00000000000E+00 0.  1.
         11   -1    0    0    0    0 -0.00000000000E+00 -0.00000000000E+00 -0.18250000000E+03  0.18250000000E+03  0.00000000000E+00 0. -1.
        -11    1    1    2    0    0  0.29690897326E+01 -0.12585932910E+01  0.15416212011E+03  0.15419584569E+03  0.00000000000E+00 0.  1.
         11    1    1    2    0    0 -0.43657448299E+01 -0.27345070639E+01 -0.18181426139E+03  0.18188722578E+03  0.00000000000E+00 0. -1.
        -15    1    1    2    0    0 -0.59461429702E+00  0.70088885027E+00  0.20544326012E+02  0.20641508463E+02  0.17770000000E+01 0. -1.
         15    1    1    2    0    0  0.19912693943E+01  0.32922115046E+01  0.71078152657E+01  0.82754200644E+01  0.17770000000E+01 0.  1.
</event>
<event>
 6    1  0.1097339E-002  0.1829600E+03  0.7546771E-02  0.1068089E+00
        -11   -1    0    0    0    0  0.00000000000E+00  0.00000000000E+00  0.18250000000E+03  0.18250000000E+03  0.00000000000E+00 0. -1.
         11   -1    0    0    0    0 -0.00000000000E+00 -0.00000000000E+00 -0.18250000000E+03  0.18250000000E+03  0.00000000000E+00 0. -1.
        -11    1    1    2    0    0 -0.12560531449E+01  0.14097295607E+01  0.14028259688E+02  0.14154754566E+02  0.00000000000E+00 0. -1.
         11    1    1    2    0    0  0.14313721794E+01  0.38202859828E+01 -0.18199429577E+03  0.18204001512E+03  0.00000000000E+00 0. -1.
        -15    1    1    2    0    0 -0.28827688278E+01  0.16619873196E+01  0.13142690498E+03  0.13148103148E+03  0.17770000000E+01 0. -1.
         15    1    1    2    0    0  0.27074497934E+01 -0.68920028631E+01  0.36539131100E+02  0.37324198831E+02  0.17770000000E+01 0.  1.
</event>
<event>
 6    1  0.1097339E-002  0.1833924E+03  0.7546771E-02  0.1067747E+00
        -11   -1    0    0    0    0  0.00000000000E+00  0.00000000000E+00  0.18250000000E+03  0.18250000000E+03  0.00000000000E+00 0. -1.
         11   -1    0    0    0    0 -0.00000000000E+00 -0.00000000000E+00 -0.18250000000E+03  0.18250000000E+03  0.00000000000E+00 0.  1.
        -11    1    1    2    0    0  0.41370263035E+01  0.81470925645E+00  0.14198864643E+03  0.14205123883E+03  0.00000000000E+00 0. -1.
         11    1    1    2    0    0  0.14123759776E+01 -0.36715252280E+01 -0.18156498135E+03  0.18160759168E+03  0.00000000000E+00 0.  1.
        -15    1    1    2    0    0  0.20029369273E+01  0.31882497435E+01  0.15002536153E+02  0.15569537976E+02  0.17770000000E+01 0. -1.
         15    1    1    2    0    0 -0.75523392084E+01 -0.33143377194E+00  0.24573798769E+02  0.25771631512E+02  0.17770000000E+01 0.  1.
</event>
<event>
 6    1  0.1097339E-002  0.1850535E+03  0.7546771E-02  0.1066440E+00
        -11   -1    0    0    0    0  0.00000000000E+00  0.00000000000E+00  0.18250000000E+03  0.18250000000E+03  0.00000000000E+00 0.  1.
         11   -1    0    0    0    0 -0.00000000000E+00 -0.00000000000E+00 -0.18250000000E+03  0.18250000000E+03  0.00000000000E+00 0.  1.
        -11    1    1    2    0    0 -0.27874154344E+01 -0.70183260700E+01  0.17978794620E+03  0.17994647033E+03  0.00000000000E+00 0.  1.
         11    1    1    2    0    0  0.80355705792E+01 -0.46386213886E+01 -0.13874612707E+03  0.13905601382E+03  0.00000000000E+00 0.  1.
        -15    1    1    2    0    0 -0.60464113615E+01 -0.21281765434E+01 -0.16349147930E+02  0.17650512536E+02  0.17770000000E+01 0.  1.
         15    1    1    2    0    0  0.79825621678E+00  0.13785124002E+02 -0.24692671200E+02  0.28347003312E+02  0.17770000000E+01 0.  1.
</event>
<event>
 6    1  0.1097339E-002  0.1860078E+03  0.7546771E-02  0.1065696E+00
        -11   -1    0    0    0    0  0.00000000000E+00  0.00000000000E+00  0.18250000000E+03  0.18250000000E+03  0.00000000000E+00 0.  1.
         11   -1    0    0    0    0 -0.00000000000E+00 -0.00000000000E+00 -0.18250000000E+03  0.18250000000E+03  0.00000000000E+00 0.  1.
        -11    1    1    2    0    0 -0.16459627824E+01  0.25217835307E+01  0.15892995690E+03  0.15895848447E+03  0.00000000000E+00 0.  1.
         11    1    1    2    0    0  0.19109524613E+01  0.30874605985E+01 -0.17895534999E+03  0.17899218263E+03  0.00000000000E+00 0.  1.
        -15    1    1    2    0    0 -0.68546409876E+01  0.25459511917E+01  0.89940492093E+01  0.11726833363E+02  0.17770000000E+01 0.  1.
         15    1    1    2    0    0  0.65896513088E+01 -0.81551953210E+01  0.11031343884E+02  0.15322499534E+02  0.17770000000E+01 0. -1.
</event>
<event>
 6    1  0.1097339E-002  0.1885506E+03  0.7546771E-02  0.1063738E+00
        -11   -1    0    0    0    0  0.00000000000E+00  0.00000000000E+00  0.18250000000E+03  0.18250000000E+03  0.00000000000E+00 0. -1.
         11   -1    0    0    0    0 -0.00000000000E+00 -0.00000000000E+00 -0.18250000000E+03  0.18250000000E+03  0.00000000000E+00 0. -1.
        -11    1    1    2    0    0  0.38549511198E+01 -0.23365796135E+00  0.17411318352E+03  0.17415601028E+03  0.00000000000E+00 0. -1.
         11    1    1    2    0    0 -0.21435896368E+01  0.10553499457E+01 -0.17643321552E+03  0.17644939296E+03  0.00000000000E+00 0. -1.
        -15    1    1    2    0    0 -0.57606708745E+01  0.76248717665E+00 -0.34237235787E+01  0.69746919475E+01  0.17770000000E+01 0.  1.
         15    1    1    2    0    0  0.40493093915E+01 -0.15841791610E+01  0.57437555789E+01  0.74199048049E+01  0.17770000000E+01 0. -1.
</event>
<event>
 6    1  0.1097339E-002  0.1859618E+03  0.7546771E-02  0.1065732E+00
        -11   -1    0    0    0    0  0.00000000000E+00  0.00000000000E+00  0.18250000000E+03  0.18250000000E+03  0.00000000000E+00 0.  1.
         11   -1    0    0    0    0 -0.00000000000E+00 -0.00000000000E+00 -0.18250000000E+03  0.18250000000E+03  0.00000000000E+00 0.  1.
        -11    1    1    2    0    0 -0.13612047778E+01  0.29550844507E+01  0.17900862372E+03  0.17903818802E+03  0.00000000000E+00 0.  1.
         11    1    1    2    0    0 -0.29268064743E+01  0.15959406177E+00 -0.17348323551E+03  0.17350799598E+03  0.00000000000E+00 0.  1.
        -15    1    1    2    0    0  0.54107330766E+01 -0.55422095575E+01 -0.37995061944E+01  0.88082969709E+01  0.17770000000E+01 0.  1.
         15    1    1    2    0    0 -0.11227218245E+01  0.24275310451E+01 -0.17258820210E+01  0.36455190330E+01  0.17770000000E+01 0. -1.
</event>
<event>
 6    1  0.1097339E-002  0.1725092E+03  0.7546771E-02  0.1076698E+00
        -11   -1    0    0    0    0  0.00000000000E+00  0.00000000000E+00  0.18250000000E+03  0.18250000000E+03  0.00000000000E+00 0. -1.
         11   -1    0    0    0    0 -0.00000000000E+00 -0.00000000000E+00 -0.18250000000E+03  0.18250000000E+03  0.00000000000E+00 0. -1.
        -11    1    1    2    0    0  0.39549874195E+01 -0.35993660449E+01  0.17528612727E+03  0.17536768167E+03  0.00000000000E+00 0. -1.
         11    1    1    2    0    0  0.83959071944E+01  0.15326009206E+01 -0.16970850549E+03  0.16992297360E+03  0.00000000000E+00 0. -1.
        -15    1    1    2    0    0 -0.62652426578E+01  0.37505922089E+01 -0.94639894274E+01  0.12084909282E+02  0.17770000000E+01 0.  1.
         15    1    1    2    0    0 -0.60856519560E+01 -0.16838270845E+01  0.38863676415E+01  0.76244354430E+01  0.17770000000E+01 0. -1.
</event>
<event>
 6    1  0.1097339E-002  0.1868994E+03  0.7546771E-02  0.1065006E+00
        -11   -1    0    0    0    0  0.00000000000E+00  0.00000000000E+00  0.18250000000E+03  0.18250000000E+03  0.00000000000E+00 0. -1.
         11   -1    0    0    0    0 -0.00000000000E+00 -0.00000000000E+00 -0.18250000000E+03  0.18250000000E+03  0.00000000000E+00 0.  1.
        -11    1    1    2    0    0 -0.20993149096E+01 -0.18284231499E+01  0.17807882211E+03  0.17810058152E+03  0.00000000000E+00 0. -1.
         11    1    1    2    0    0  0.11328659421E+01  0.13433175115E+02 -0.13050357860E+03  0.13119800916E+03  0.00000000000E+00 0.  1.
        -15    1    1    2    0    0 -0.26063430857E+01  0.84208301257E+00  0.23955028673E+01  0.40494803454E+01  0.17770000000E+01 0.  1.
         15    1    1    2    0    0  0.35727920532E+01 -0.12446834978E+02 -0.49970746379E+02  0.51651928973E+02  0.17770000000E+01 0. -1.
</event>
<event>
 6    1  0.1097339E-002  0.1827946E+03  0.7546771E-02  0.1068221E+00
        -11   -1    0    0    0    0  0.00000000000E+00  0.00000000000E+00  0.18250000000E+03  0.18250000000E+03  0.00000000000E+00 0.  1.
         11   -1    0    0    0    0 -0.00000000000E+00 -0.00000000000E+00 -0.18250000000E+03  0.18250000000E+03  0.00000000000E+00 0.  1.
        -11    1    1    2    0    0  0.25407518393E+01 -0.23590686854E+01  0.13135895221E+03  0.13140469912E+03  0.00000000000E+00 0.  1.
         11    1    1    2    0    0 -0.22866923570E+01  0.11944589169E+01 -0.18218717541E+03  0.18220544058E+03  0.00000000000E+00 0.  1.
        -15    1    1    2    0    0 -0.33164053059E+01  0.10331586412E+01  0.31368726949E+02  0.31610452707E+02  0.17770000000E+01 0.  1.
         15    1    1    2    0    0  0.30623458236E+01  0.13145112730E+00  0.19459496253E+02  0.19779407594E+02  0.17770000000E+01 0.  1.
</event>
<event>
 6    1  0.1097339E-002  0.1829929E+03  0.7546771E-02  0.1068063E+00
        -11   -1    0    0    0    0  0.00000000000E+00  0.00000000000E+00  0.18250000000E+03  0.18250000000E+03  0.00000000000E+00 0.  1.
         11   -1    0    0    0    0 -0.00000000000E+00 -0.00000000000E+00 -0.18250000000E+03  0.18250000000E+03  0.00000000000E+00 0.  1.
        -11    1    1    2    0    0 -0.41668029654E+01  0.10308890133E+01  0.18195642903E+03  0.18200705218E+03  0.00000000000E+00 0.  1.
         11    1    1    2    0    0  0.26526995804E+01 -0.10414482906E+01 -0.15032052061E+03  0.15034753189E+03  0.00000000000E+00 0.  1.
        -15    1    1    2    0    0  0.33736236545E+01  0.90155191110E-01 -0.79224942166E+01  0.87927872789E+01  0.17770000000E+01 0. -1.
         15    1    1    2    0    0 -0.18595202695E+01 -0.79595913863E-01 -0.23713414204E+02  0.23852628646E+02  0.17770000000E+01 0.  1.
</event>
<event>
 6    1  0.1097339E-002  0.1830907E+03  0.7546771E-02  0.1067986E+00
        -11   -1    0    0    0    0  0.00000000000E+00  0.00000000000E+00  0.18250000000E+03  0.18250000000E+03  0.00000000000E+00 0. -1.
         11   -1    0    0    0    0 -0.00000000000E+00 -0.00000000000E+00 -0.18250000000E+03  0.18250000000E+03  0.00000000000E+00 0.  1.
        -11    1    1    2    0    0  0.18773945519E+01 -0.10419077614E+01  0.77480148677E+02  0.77509893698E+02  0.00000000000E+00 0. -1.
         11    1    1    2    0    0 -0.92539442945E+01 -0.17662516588E+01 -0.18166518826E+03  0.18190930640E+03  0.00000000000E+00 0.  1.
        -15    1    1    2    0    0  0.43329579589E+01  0.71940692231E+00  0.98277807922E+02  0.98391957648E+02  0.17770000000E+01 0. -1.
         15    1    1    2    0    0  0.30435917837E+01  0.20887524979E+01  0.59072316644E+01  0.71888422489E+01  0.17770000000E+01 0.  1.
</event>
<event>
 6    1  0.1097339E-002  0.1855873E+03  0.7546771E-02  0.1066024E+00
        -11   -1    0    0    0    0  0.00000000000E+00  0.00000000000E+00  0.18250000000E+03  0.18250000000E+03  0.00000000000E+00 0. -1.
         11   -1    0    0    0    0 -0.00000000000E+00 -0.00000000000E+00 -0.18250000000E+03  0.18250000000E+03  0.00000000000E+00 0.  1.
        -11    1    1    2    0    0 -0.42190187936E+01  0.57002945944E+01  0.16375792588E+03  0.16391141439E+03  0.00000000000E+00 0. -1.
         11    1    1    2    0    0  0.31027061766E+01  0.36769685256E+01 -0.17934820533E+03  0.17941272429E+03  0.00000000000E+00 0.  1.
        -15    1    1    2    0    0  0.53051018280E+01 -0.21223886847E+01  0.92654058676E+01  0.11029692381E+02  0.17770000000E+01 0.  1.
         15    1    1    2    0    0 -0.41887892110E+01 -0.72548744353E+01  0.63248735795E+01  0.10646168932E+02  0.17770000000E+01 0. -1.
</event>
<event>
 6    1  0.1097339E-002  0.1860597E+03  0.7546771E-02  0.1065656E+00
        -11   -1    0    0    0    0  0.00000000000E+00  0.00000000000E+00  0.18250000000E+03  0.18250000000E+03  0.00000000000E+00 0.  1.
         11   -1    0    0    0    0 -0.00000000000E+00 -0.00000000000E+00 -0.18250000000E+03  0.18250000000E+03  0.00000000000E+00 0. -1.
        -11    1    1    2    0    0 -0.76369484236E+01 -0.39694758054E+01  0.17873316612E+03  0.17894028163E+03  0.00000000000E+00 0.  1.
         11    1    1    2    0    0  0.62576039844E+01  0.28448865198E+01 -0.17019556454E+03  0.17033432178E+03  0.00000000000E+00 0. -1.
        -15    1    1    2    0    0 -0.40829103352E+01 -0.36333202341E+01 -0.37607400724E+01  0.68681924566E+01  0.17770000000E+01 0.  1.
         15    1    1    2    0    0  0.54622547744E+01  0.47579095197E+01 -0.47768615079E+01  0.88572041347E+01  0.17770000000E+01 0. -1.
</event>
<event>
 6    1  0.1097339E-002  0.1838888E+03  0.7546771E-02  0.1067355E+00
        -11   -1    0    0    0    0  0.00000000000E+00  0.00000000000E+00  0.18250000000E+03  0.18250000000E+03  0.00000000000E+00 0. -1.
         11   -1    0    0    0    0 -0.00000000000E+00 -0.00000000000E+00 -0.18250000000E+03  0.18250000000E+03  0.00000000000E+00 0.  1.
        -11    1    1    2    0    0  0.29700951693E+01 -0.46493947833E+01  0.15717375468E+03  0.15727055509E+03  0.00000000000E+00 0. -1.
         11    1    1    2    0    0  0.35883477522E+01  0.74356386429E-01 -0.18107562956E+03  0.18111119620E+03  0.00000000000E+00 0.  1.
        -15    1    1    2    0    0  0.15315234176E+00  0.68929149331E+00  0.12899916169E+02  0.13040864411E+02  0.17770000000E+01 0.  1.
         15    1    1    2    0    0 -0.67115952633E+01  0.38857469035E+01  0.11001958714E+02  0.13577384303E+02  0.17770000000E+01 0. -1.
</event>
<event>
 6    1  0.1097339E-002  0.1829875E+03  0.7546771E-02  0.1068067E+00
        -11   -1    0    0    0    0  0.00000000000E+00  0.00000000000E+00  0.18250000000E+03  0.18250000000E+03  0.00000000000E+00 0.  1.
         11   -1    0    0    0    0 -0.00000000000E+00 -0.00000000000E+00 -0.18250000000E+03  0.18250000000E+03  0.00000000000E+00 0. -1.
        -11    1    1    2    0    0  0.10803359244E+01  0.24857762254E+01  0.18199229439E+03  0.18201247602E+03  0.00000000000E+00 0.  1.
         11    1    1    2    0    0  0.34022616895E+01  0.17914585096E+00 -0.14420220597E+03  0.14424244759E+03  0.00000000000E+00 0. -1.
        -15    1    1    2    0    0  0.86744002452E+00 -0.19702214316E+01 -0.15022975272E+02  0.15280109284E+02  0.17770000000E+01 0. -1.
         15    1    1    2    0    0 -0.53500376383E+01 -0.69470064479E+00 -0.22767113142E+02  0.23464967112E+02  0.17770000000E+01 0.  1.
</event>
<event>
 6    1  0.1097339E-002  0.1839508E+03  0.7546771E-02  0.1067306E+00
        -11   -1    0    0    0    0  0.00000000000E+00  0.00000000000E+00  0.18250000000E+03  0.18250000000E+03  0.00000000000E+00 0.  1.
         11   -1    0    0    0    0 -0.00000000000E+00 -0.00000000000E+00 -0.18250000000E+03  0.18250000000E+03  0.00000000000E+00 0. -1.
        -11    1    1    2    0    0  0.31948340845E+01 -0.48228699572E+01  0.12547584886E+03  0.12560913854E+03  0.00000000000E+00 0.  1.
         11    1    1    2    0    0 -0.14297085976E+01 -0.25279690009E+01 -0.18102590734E+03  0.18104920277E+03  0.00000000000E+00 0. -1.
        -15    1    1    2    0    0  0.40502785120E+01  0.92910766326E+01  0.23376921912E+02  0.25541477406E+02  0.17770000000E+01 0. -1.
         15    1    1    2    0    0 -0.58154039988E+01 -0.19402376744E+01  0.32173136575E+02  0.32800181280E+02  0.17770000000E+01 0.  1.
</event>
<event>
 6    1  0.1097339E-002  0.1839853E+03  0.7546771E-02  0.1067279E+00
        -11   -1    0    0    0    0  0.00000000000E+00  0.00000000000E+00  0.18250000000E+03  0.18250000000E+03  0.00000000000E+00 0. -1.
         11   -1    0    0    0    0 -0.00000000000E+00 -0.00000000000E+00 -0.18250000000E+03  0.18250000000E+03  0.00000000000E+00 0.  1.
        -11    1    1    2    0    0 -0.68621082675E+00 -0.32917969160E+01  0.18098347867E+03  0.18101471312E+03  0.00000000000E+00 0. -1.
         11    1    1    2    0    0  0.26086759320E+01 -0.22359922504E+01 -0.17267541805E+03  0.17270959687E+03  0.00000000000E+00 0.  1.
        -15    1    1    2    0    0  0.69330854986E+00  0.18346619757E+01 -0.20320696310E+01  0.33367195410E+01  0.17770000000E+01 0. -1.
         15    1    1    2    0    0 -0.26157736551E+01  0.36931271907E+01 -0.62759909901E+01  0.79389704729E+01  0.17770000000E+01 0.  1.
</event>
<event>
 6    1  0.1097339E-002  0.1830348E+03  0.7546771E-02  0.1068030E+00
        -11   -1    0    0    0    0  0.00000000000E+00  0.00000000000E+00  0.18250000000E+03  0.18250000000E+03  0.00000000000E+00 0.  1.
         11   -1    0    0    0    0 -0.00000000000E+00 -0.00000000000E+00 -0.18250000000E+03  0.18250000000E+03  0.00000000000E+00 0.  1.
        -11    1    1    2    0    0 -0.25338849550E+01  0.37814691707E+01  0.13465952952E+03  0.13473644263E+03  0.00000000000E+00 0.  1.
         11    1    1    2    0    0  0.22486013433E+01 -0.27308385850E+01 -0.18193078767E+03  0.18196517576E+03  0.00000000000E+00 0.  1.
        -15    1    1    2    0    0 -0.14361995225E+01  0.33464810594E+01  0.30976184375E+02  0.31240091741E+02  0.17770000000E+01 0. -1.
         15    1    1    2    0    0  0.17214831342E+01 -0.43971116452E+01  0.16295073771E+02  0.17058289867E+02  0.17770000000E+01 0.  1.
</event>
<event>
 6    1  0.1097339E-002  0.1838373E+03  0.7546771E-02  0.1067395E+00
        -11   -1    0    0    0    0  0.00000000000E+00  0.00000000000E+00  0.18250000000E+03  0.18250000000E+03  0.00000000000E+00 0.  1.
         11   -1    0    0    0    0 -0.00000000000E+00 -0.00000000000E+00 -0.18250000000E+03  0.18250000000E+03  0.00000000000E+00 0. -1.
        -11    1    1    2    0    0  0.39642960951E+01  0.68752550876E+00  0.18111801125E+03  0.18116269575E+03  0.00000000000E+00 0.  1.
         11    1    1    2    0    0 -0.78752799389E+00 -0.22343057061E+01 -0.16311582264E+03  0.16313302522E+03  0.00000000000E+00 0. -1.
        -15    1    1    2    0    0  0.30172859795E+01  0.12155224350E+01 -0.77465819847E+01  0.85877104584E+01  0.17770000000E+01 0.  1.
         15    1    1    2    0    0 -0.61940540807E+01  0.33125776230E+00 -0.10255606623E+02  0.12116568568E+02  0.17770000000E+01 0. -1.
</event>
<event>
 6    1  0.1097339E-002  0.1745359E+03  0.7546771E-02  0.1074977E+00
        -11   -1    0    0    0    0  0.00000000000E+00  0.00000000000E+00  0.18250000000E+03  0.18250000000E+03  0.00000000000E+00 0.  1.
         11   -1    0    0    0    0 -0.00000000000E+00 -0.00000000000E+00 -0.18250000000E+03  0.18250000000E+03  0.00000000000E+00 0.  1.
        -11    1    1    2    0    0 -0.95755889212E+00  0.90270941688E+01  0.17721969862E+03  0.17745204121E+03  0.00000000000E+00 0.  1.
         11    1    1    2    0    0 -0.45197611023E+01  0.25200643720E+01 -0.17181743880E+03  0.17189534967E+03  0.00000000000E+00 0.  1.
        -15    1    1    2    0    0 -0.87458572907E+00 -0.92206343715E+00 -0.83546068807E+00  0.23389794229E+01  0.17770000000E+01 0.  1.
         15    1    1    2    0    0  0.63519057235E+01 -0.10625095104E+02 -0.45667991398E+01  0.13313629695E+02  0.17770000000E+01 0. -1.
</event>
<event>
 6    1  0.1097339E-002  0.1857029E+03  0.7546771E-02  0.1065934E+00
        -11   -1    0    0    0    0  0.00000000000E+00  0.00000000000E+00  0.18250000000E+03  0.18250000000E+03  0.00000000000E+00 0.  1.
         11   -1    0    0    0    0 -0.00000000000E+00 -0.00000000000E+00 -0.18250000000E+03  0.18250000000E+03  0.00000000000E+00 0. -1.
        -11    1    1    2    0    0  0.94798212024E-01 -0.27273134260E+01  0.17927634774E+03  0.17929711678E+03  0.00000000000E+00 0.  1.
         11    1    1    2    0    0  0.50137420292E+01  0.30919671083E+01 -0.16204241513E+03  0.16214944394E+03  0.00000000000E+00 0. -1.
        -15    1    1    2    0    0 -0.27523434406E+01  0.47650763590E+00  0.21373389111E+01  0.39406091614E+01  0.17770000000E+01 0.  1.
         15    1    1    2    0    0 -0.23561968006E+01 -0.84116131813E+00 -0.19371271526E+02  0.19612830118E+02  0.17770000000E+01 0. -1.
</event>
<event>
 6    1  0.1097339E-002  0.1867495E+03  0.7546771E-02  0.1065122E+00
        -11   -1    0    0    0    0  0.00000000000E+00  0.00000000000E+00  0.18250000000E+03  0.18250000000E+03  0.00000000000E+00 0.  1.
         11   -1    0    0    0    0 -0.00000000000E+00 -0.00000000000E+00 -0.18250000000E+03  0.18250000000E+03  0.00000000000E+00 0. -1.
        -11    1    1    2    0    0 -0.33450099849E+01 -0.53643087582E+00  0.15657297893E+03  0.15660962480E+03  0.00000000000E+00 0.  1.
         11    1    1    2    0    0 -0.42696058774E+01  0.12636637415E+01 -0.17819486951E+03  0.17825049201E+03  0.00000000000E+00 0. -1.
        -15    1    1    2    0    0  0.41690045846E+01 -0.58509387125E+01  0.22471494106E+02  0.23658822020E+02  0.17770000000E+01 0.  1.
         15    1    1    2    0    0  0.34456112778E+01  0.51237058468E+01 -0.84960352317E+00  0.64810611653E+01  0.17770000000E+01 0. -1.
</event>
<event>
 6    1  0.1097339E-002  0.1836660E+03  0.7546771E-02  0.1067530E+00
        -11   -1    0    0    0    0  0.00000000000E+00  0.00000000000E+00  0.18250000000E+03  0.18250000000E+03  0.00000000000E+00 0.  1.
         11   -1    0    0    0    0 -0.00000000000E+00 -0.00000000000E+00 -0.18250000000E+03  0.18250000000E+03  0.00000000000E+00 0. -1.
        -11    1    1    2    0    0  0.46024874612E+01  0.27619041698E+01  0.18125452235E+03  0.18133398159E+03  0.00000000000E+00 0.  1.
         11    1    1    2    0    0  0.23184144695E+01 -0.10773144537E+01 -0.16409401238E+03  0.16411392552E+03  0.00000000000E+00 0. -1.
        -15    1    1    2    0    0 -0.27723730269E+01 -0.31299994634E+01 -0.97400440144E+01  0.10747517632E+02  0.17770000000E+01 0.  1.
         15    1    1    2    0    0 -0.41485289038E+01  0.14454097473E+01 -0.74204659595E+01  0.88045752572E+01  0.17770000000E+01 0. -1.
</event>
<event>
 6    1  0.1097339E-002  0.1902228E+03  0.7546771E-02  0.1062468E+00
        -11   -1    0    0    0    0  0.00000000000E+00  0.00000000000E+00  0.18250000000E+03  0.18250000000E+03  0.00000000000E+00 0. -1.
         11   -1    0    0    0    0 -0.00000000000E+00 -0.00000000000E+00 -0.18250000000E+03  0.18250000000E+03  0.00000000000E+00 0.  1.
        -11    1    1    2    0    0 -0.69379822029E+00 -0.34748933754E+01  0.14986811296E+03  0.14990999807E+03  0.00000000000E+00 0. -1.
         11    1    1    2    0    0  0.74962115933E+01  0.47611753744E+00 -0.17461576600E+03  0.17477724570E+03  0.00000000000E+00 0.  1.
        -15    1    1    2    0    0  0.42877931905E+01 -0.65917526917E+01  0.24228373784E+02  0.25534451222E+02  0.17770000000E+01 0.  1.
         15    1    1    2    0    0 -0.11090206564E+02  0.95905285296E+01  0.51927926440E+00  0.14778305013E+02  0.17770000000E+01 0. -1.
</event>
<event>
 6    1  0.1097339E-002  0.1804045E+03  0.7546771E-02  0.1070135E+00
        -11   -1    0    0    0    0  0.00000000000E+00  0.00000000000E+00  0.18250000000E+03  0.18250000000E+03  0.00000000000E+00 0. -1.
         11   -1    0    0    0    0 -0.00000000000E+00 -0.00000000000E+00 -0.18250000000E+03  0.18250000000E+03  0.00000000000E+00 0. -1.
        -11    1    1    2    0    0 -0.89981382087E-01 -0.28681637958E+01  0.51029307054E+01  0.58544309708E+01  0.00000000000E+00 0. -1.
         11    1    1    2    0    0 -0.19606264583E+01 -0.94634137139E+01 -0.18090600848E+03  0.18116397037E+03  0.00000000000E+00 0. -1.
        -15    1    1    2    0    0 -0.73542981611E+00  0.10101984317E+02  0.23804201987E+02  0.25930459028E+02  0.17770000000E+01 0.  1.
         15    1    1    2    0    0  0.27860376565E+01  0.22295931932E+01  0.15199887579E+03  0.15205113963E+03  0.17770000000E+01 0. -1.
</event>
<event>
 6    1  0.1097339E-002  0.1952105E+03  0.7546771E-02  0.1058765E+00
        -11   -1    0    0    0    0  0.00000000000E+00  0.00000000000E+00  0.18250000000E+03  0.18250000000E+03  0.00000000000E+00 0.  1.
         11   -1    0    0    0    0 -0.00000000000E+00 -0.00000000000E+00 -0.18250000000E+03  0.18250000000E+03  0.00000000000E+00 0.  1.
        -11    1    1    2    0    0  0.18454175970E+01  0.17257120712E+00  0.12570491370E+03  0.12571857729E+03  0.00000000000E+00 0.  1.
         11    1    1    2    0    0  0.21525717322E+01  0.61359142578E+01 -0.16966498284E+03  0.16978954447E+03  0.00000000000E+00 0.  1.
        -15    1    1    2    0    0  0.28539050282E+01 -0.22416968666E+00 -0.12151123932E+02  0.12609622032E+02  0.17770000000E+01 0. -1.
         15    1    1    2    0    0 -0.68518943574E+01 -0.60843157782E+01  0.56111193067E+02  0.56882256207E+02  0.17770000000E+01 0. -1.
</event>
<event>
 6    1  0.1097339E-002  0.1904160E+03  0.7546771E-02  0.1062323E+00
        -11   -1    0    0    0    0  0.00000000000E+00  0.00000000000E+00  0.18250000000E+03  0.18250000000E+03  0.00000000000E+00 0. -1.
         11   -1    0    0    0    0 -0.00000000000E+00 -0.00000000000E+00 -0.18250000000E+03  0.18250000000E+03  0.00000000000E+00 0.  1.
        -11    1    1    2    0    0  0.13894344513E+01 -0.24233038753E+01  0.17456163884E+03  0.17458398748E+03  0.00000000000E+00 0. -1.
         11    1    1    2    0    0 -0.22679558191E+01 -0.25692170439E+01 -0.16884667768E+03  0.16888145269E+03  0.00000000000E+00 0.  1.
        -15    1    1    2    0    0  0.37579739005E+01  0.12093119948E+02 -0.46025422757E+01  0.13590696903E+02  0.17770000000E+01 0.  1.
         15    1    1    2    0    0 -0.28794525327E+01 -0.71005990285E+01 -0.11124188838E+01  0.79438629284E+01  0.17770000000E+01 0. -1.
</event>
<event>
 6    1  0.1097339E-002  0.1837188E+03  0.7546771E-02  0.1067489E+00
        -11   -1    0    0    0    0  0.00000000000E+00  0.00000000000E+00  0.18250000000E+03  0.18250000000E+03  0.00000000000E+00 0.  1.
         11   -1    0    0    0    0 -0.00000000000E+00 -0.00000000000E+00 -0.18250000000E+03  0.18250000000E+03  0.00000000000E+00 0. -1.
        -11    1    1    2    0    0  0.73066683802E+01 -0.27160118479E+01  0.18111354589E+03  0.18128121973E+03  0.00000000000E+00 0.  1.
         11    1    1    2    0    0  0.76369403858E+00  0.20551610343E+01 -0.16019768190E+03  0.16021268427E+03  0.00000000000E+00 0. -1.
        -15    1    1    2    0    0 -0.47657226097E+01 -0.25977381648E+01 -0.10093893997E+02  0.11597619609E+02  0.17770000000E+01 0.  1.
         15    1    1    2    0    0 -0.33046398090E+01  0.32585889785E+01 -0.10821969994E+02  0.11908476391E+02  0.17770000000E+01 0. -1.
</event>
<event>
 6    1  0.1097339E-002  0.1754120E+03  0.7546771E-02  0.1074241E+00
        -11   -1    0    0    0    0  0.00000000000E+00  0.00000000000E+00  0.18250000000E+03  0.18250000000E+03  0.00000000000E+00 0.  1.
         11   -1    0    0    0    0 -0.00000000000E+00 -0.00000000000E+00 -0.18250000000E+03  0.18250000000E+03  0.00000000000E+00 0. -1.
        -11    1    1    2    0    0 -0.22610257322E+01  0.15480771559E+01  0.17511938879E+03  0.17514082651E+03  0.00000000000E+00 0.  1.
         11    1    1    2    0    0  0.56222604765E+01  0.16223855475E+00 -0.17561378641E+03  0.17570383636E+03  0.00000000000E+00 0. -1.
        -15    1    1    2    0    0 -0.65876134187E+00 -0.47166775073E+01  0.54940126970E+01  0.74848458721E+01  0.17770000000E+01 0.  1.
         15    1    1    2    0    0 -0.27024734025E+01  0.30063617967E+01 -0.49996150795E+01  0.66704912628E+01  0.17770000000E+01 0. -1.
</event>
<event>
 6    1  0.1097339E-002  0.1826670E+03  0.7546771E-02  0.1068322E+00
        -11   -1    0    0    0    0  0.00000000000E+00  0.00000000000E+00  0.18250000000E+03  0.18250000000E+03  0.00000000000E+00 0.  1.
         11   -1    0    0    0    0 -0.00000000000E+00 -0.00000000000E+00 -0.18250000000E+03  0.18250000000E+03  0.00000000000E+00 0.  1.
        -11    1    1    2    0    0 -0.46884404390E+00  0.91409835981E+00  0.38999361732E+02  0.39012890255E+02  0.00000000000E+00 0.  1.
         11    1    1    2    0    0  0.36709363072E+01 -0.77566698329E+00 -0.18229439892E+03  0.18233300664E+03  0.00000000000E+00 0.  1.
        -15    1    1    2    0    0  0.38913923228E+00  0.17108748149E+01  0.11410899102E+03  0.11413631360E+03  0.17770000000E+01 0.  1.
         15    1    1    2    0    0 -0.35912314955E+01 -0.18493061914E+01  0.29186046171E+02  0.29517789503E+02  0.17770000000E+01 0.  1.
</event>
<event>
 6    1  0.1097339E-002  0.1826596E+03  0.7546771E-02  0.1068328E+00
        -11   -1    0    0    0    0  0.00000000000E+00  0.00000000000E+00  0.18250000000E+03  0.18250000000E+03  0.00000000000E+00 0. -1.
         11   -1    0    0    0    0 -0.00000000000E+00 -0.00000000000E+00 -0.18250000000E+03  0.18250000000E+03  0.00000000000E+00 0.  1.
        -11    1    1    2    0    0  0.11487485932E+01 -0.23866944942E+01  0.18232112515E+03  0.18234036473E+03  0.00000000000E+00 0. -1.
         11    1    1    2    0    0 -0.28923641789E+01 -0.11913866476E+00 -0.13397823763E+03  0.13400950758E+03  0.00000000000E+00 0.  1.
        -15    1    1    2    0    0 -0.21134680532E+00  0.12853487565E+01 -0.29683818105E+02  0.29765476230E+02  0.17770000000E+01 0. -1.
         15    1    1    2    0    0  0.19549623910E+01  0.12204844024E+01 -0.18659069415E+02  0.18884651455E+02  0.17770000000E+01 0.  1.
</event>
<event>
 6    1  0.1097339E-002  0.1830302E+03  0.7546771E-02  0.1068034E+00
        -11   -1    0    0    0    0  0.00000000000E+00  0.00000000000E+00  0.18250000000E+03  0.18250000000E+03  0.00000000000E+00 0. -1.
         11   -1    0    0    0    0 -0.00000000000E+00 -0.00000000000E+00 -0.18250000000E+03  0.18250000000E+03  0.00000000000E+00 0. -1.
        -11    1    1    2    0    0 -0.26520319638E+01  0.12232223697E+01  0.18194635758E+03  0.18196979580E+03  0.00000000000E+00 0. -1.
         11    1    1    2    0    0  0.20179662379E+01  0.30322857238E+01 -0.15888545348E+03  0.15892719803E+03  0.00000000000E+00 0. -1.
        -15    1    1    2    0    0 -0.13823840041E+01 -0.23596293722E+01 -0.15782253282E+02  0.16115709229E+02  0.17770000000E+01 0.  1.
         15    1    1    2    0    0  0.20164497301E+01 -0.18958787212E+01 -0.72786508189E+01  0.79872969384E+01  0.17770000000E+01 0. -1.
</event>
<event>
 6    1  0.1097339E-002  0.1868312E+03  0.7546771E-02  0.1065059E+00
        -11   -1    0    0    0    0  0.00000000000E+00  0.00000000000E+00  0.18250000000E+03  0.18250000000E+03  0.00000000000E+00 0. -1.
         11   -1    0    0    0    0 -0.00000000000E+00 -0.00000000000E+00 -0.18250000000E+03  0.18250000000E+03  0.00000000000E+00 0. -1.
        -11    1    1    2    0    0  0.20520779780E+01  0.36584615048E+01  0.11421722459E+03  0.11429422452E+03  0.00000000000E+00 0. -1.
         11    1    1    2    0    0  0.10062731397E+02 -0.89115694905E+01 -0.17766105056E+03  0.17816880625E+03  0.00000000000E+00 0. -1.
        -15    1    1    2    0    0  0.39018189144E+01  0.15187815018E+02  0.34685516783E+02  0.38106911701E+02  0.17770000000E+01 0. -1.
         15    1    1    2    0    0 -0.16016628290E+02 -0.99347070320E+01  0.28758309181E+02  0.34430057531E+02  0.17770000000E+01 0.  1.
</event>
<event>
 6    1  0.1097339E-002  0.1826537E+03  0.7546771E-02  0.1068333E+00
        -11   -1    0    0    0    0  0.00000000000E+00  0.00000000000E+00  0.18250000000E+03  0.18250000000E+03  0.00000000000E+00 0.  1.
         11   -1    0    0    0    0 -0.00000000000E+00 -0.00000000000E+00 -0.18250000000E+03  0.18250000000E+03  0.00000000000E+00 0.  1.
        -11    1    1    2    0    0 -0.11963926250E+00  0.14136260589E+01  0.84656136204E+01  0.85836627472E+01  0.00000000000E+00 0.  1.
         11    1    1    2    0    0 -0.15762794944E+01 -0.21292055922E+01 -0.18232707357E+03  0.18234631867E+03  0.00000000000E+00 0.  1.
        -15    1    1    2    0    0  0.45713326606E+01  0.26869853683E+00  0.12022173584E+03  0.12032203779E+03  0.17770000000E+01 0.  1.
         15    1    1    2    0    0 -0.28754139037E+01  0.44688099644E+00  0.53639724110E+02  0.53747980794E+02  0.17770000000E+01 0.  1.
</event>
<event>
 6    1  0.1097339E-002  0.1825949E+03  0.7546771E-02  0.1068379E+00
        -11   -1    0    0    0    0  0.00000000000E+00  0.00000000000E+00  0.18250000000E+03  0.18250000000E+03  0.00000000000E+00 0. -1.
         11   -1    0    0    0    0 -0.00000000000E+00 -0.00000000000E+00 -0.18250000000E+03  0.18250000000E+03  0.00000000000E+00 0. -1.
        -11    1    1    2    0    0 -0.78356488333E+00  0.51029217819E+01  0.18233206838E+03  0.18240514506E+03  0.00000000000E+00 0. -1.
         11    1    1    2    0    0 -0.56002759966E+00 -0.31109198470E+00 -0.30897186316E+02  0.30903827132E+02  0.00000000000E+00 0. -1.
        -15    1    1    2    0    0 -0.15650593252E+01 -0.31861233757E+01 -0.40960467657E+02  0.41152380643E+02  0.17770000000E+01 0.  1.
         15    1    1    2    0    0  0.29086518082E+01 -0.16057064216E+01 -0.11047441441E+03  0.11053864716E+03  0.17770000000E+01 0. -1.
</event>
<event>
 6    1  0.1097339E-002  0.1827177E+03  0.7546771E-02  0.1068282E+00
        -11   -1    0    0    0    0  0.00000000000E+00  0.00000000000E+00  0.18250000000E+03  0.18250000000E+03  0.00000000000E+00 0. -1.
         11   -1    0    0    0    0 -0.00000000000E+00 -0.00000000000E+00 -0.18250000000E+03  0.18250000000E+03  0.00000000000E+00 0. -1.
        -11    1    1    2    0    0  0.12398607297E+01 -0.21421239916E+01  0.18226547398E+03  0.18228227823E+03  0.00000000000E+00 0. -1.
         11    1    1    2    0    0 -0.25732144822E+00  0.19580199493E+01 -0.76970427330E+02  0.76995757934E+02  0.00000000000E+00 0. -1.
        -15    1    1    2    0    0 -0.41393497080E+00 -0.42794911629E+01 -0.50727607763E+02  0.50940487877E+02  0.17770000000E+01 0. -1.
         15    1    1    2    0    0 -0.56860431072E+00  0.44635952051E+01 -0.54567438887E+02  0.54781475964E+02  0.17770000000E+01 0. -1.
</event>
<event>
 6    1  0.1097339E-002  0.1827724E+03  0.7546771E-02  0.1068238E+00
        -11   -1    0    0    0    0  0.00000000000E+00  0.00000000000E+00  0.18250000000E+03  0.18250000000E+03  0.00000000000E+00 0. -1.
         11   -1    0    0    0    0 -0.00000000000E+00 -0.00000000000E+00 -0.18250000000E+03  0.18250000000E+03  0.00000000000E+00 0.  1.
        -11    1    1    2    0    0  0.47421819633E+00 -0.69344170430E+00  0.16292508718E+02  0.16314152894E+02  0.00000000000E+00 0. -1.
         11    1    1    2    0    0  0.30013121632E+01  0.15575995437E+01 -0.18219617532E+03  0.18222755086E+03  0.00000000000E+00 0.  1.
        -15    1    1    2    0    0 -0.59735949999E+01  0.94802703345E+00  0.15113213255E+03  0.15126355083E+03  0.17770000000E+01 0. -1.
         15    1    1    2    0    0  0.24980646403E+01 -0.18121848728E+01  0.14771534050E+02  0.15194745413E+02  0.17770000000E+01 0.  1.
</event>
<event>
 6    1  0.1097339E-002  0.1861542E+03  0.7546771E-02  0.1065583E+00
        -11   -1    0    0    0    0  0.00000000000E+00  0.00000000000E+00  0.18250000000E+03  0.18250000000E+03  0.00000000000E+00 0.  1.
         11   -1    0    0    0    0 -0.00000000000E+00 -0.00000000000E+00 -0.18250000000E+03  0.18250000000E+03  0.00000000000E+00 0. -1.
        -11    1    1    2    0    0  0.19327733668E+01 -0.21761308806E+01  0.17882209367E+03  0.17884577809E+03  0.00000000000E+00 0.  1.
         11    1    1    2    0    0  0.11422056425E+01 -0.31924076195E+01 -0.17353999495E+03  0.17357311412E+03  0.00000000000E+00 0. -1.
        -15    1    1    2    0    0 -0.14462840205E+01  0.33316568507E+01  0.20974596473E+01  0.45550785735E+01  0.17770000000E+01 0. -1.
         15    1    1    2    0    0 -0.16286949889E+01  0.20368816494E+01 -0.73795583670E+01  0.80260292120E+01  0.17770000000E+01 0. -1.
</event>
<event>
 6    1  0.1097339E-002  0.1854044E+03  0.7546771E-02  0.1066166E+00
        -11   -1    0    0    0    0  0.00000000000E+00  0.00000000000E+00  0.18250000000E+03  0.18250000000E+03  0.00000000000E+00 0. -1.
         11   -1    0    0    0    0 -0.00000000000E+00 -0.00000000000E+00 -0.18250000000E+03  0.18250000000E+03  0.00000000000E+00 0.  1.
        -11    1    1    2    0    0  0.17624353702E+01  0.29934048421E+01  0.17956204090E+03  0.17959563799E+03  0.00000000000E+00 0. -1.
         11    1    1    2    0    0  0.16816143277E+01 -0.48616659058E+01 -0.17494848779E+03  0.17502410406E+03  0.00000000000E+00 0.  1.
        -15    1    1    2    0    0 -0.12072549111E+01 -0.37964024161E+00 -0.60807256617E+01  0.64602279145E+01  0.17770000000E+01 0.  1.
         15    1    1    2    0    0 -0.22367947869E+01  0.22479013053E+01  0.14671725473E+01  0.39200300357E+01  0.17770000000E+01 0. -1.
</event>
<event>
 6    1  0.1097339E-002  0.1668587E+03  0.7546771E-02  0.1081635E+00
        -11   -1    0    0    0    0  0.00000000000E+00  0.00000000000E+00  0.18250000000E+03  0.18250000000E+03  0.00000000000E+00 0.  1.
         11   -1    0    0    0    0 -0.00000000000E+00 -0.00000000000E+00 -0.18250000000E+03  0.18250000000E+03  0.00000000000E+00 0. -1.
        -11    1    1    2    0    0  0.59253633338E+01  0.87364879557E+01  0.17211838180E+03  0.17244179745E+03  0.00000000000E+00 0.  1.
         11    1    1    2    0    0 -0.76825278381E+00  0.72296657715E+01 -0.16169626436E+03  0.16185963112E+03  0.00000000000E+00 0. -1.
        -15    1    1    2    0    0 -0.52705573610E+01 -0.13361044956E+02  0.47265130074E+01  0.15224780834E+02  0.17770000000E+01 0.  1.
         15    1    1    2    0    0  0.11344681105E+00 -0.26051087707E+01 -0.15148630449E+02  0.15473790595E+02  0.17770000000E+01 0. -1.
</event>
<event>
 6    1  0.1097339E-002  0.1240596E+03  0.7546771E-02  0.1127703E+00
        -11   -1    0    0    0    0  0.00000000000E+00  0.00000000000E+00  0.18250000000E+03  0.18250000000E+03  0.00000000000E+00 0.  1.
         11   -1    0    0    0    0 -0.00000000000E+00 -0.00000000000E+00 -0.18250000000E+03  0.18250000000E+03  0.00000000000E+00 0. -1.
        -11    1    1    2    0    0 -0.95386496009E+02 -0.39535066857E+02  0.11041620359E+03  0.15117322233E+03  0.00000000000E+00 0.  1.
         11    1    1    2    0    0 -0.11617331273E+01  0.78542651785E-01 -0.19548259431E+01  0.22753323439E+01  0.00000000000E+00 0. -1.
        -15    1    1    2    0    0  0.70590621994E+02  0.66093304807E+02  0.16660874846E+00  0.96718903743E+02  0.17770000000E+01 0.  1.
         15    1    1    2    0    0  0.25957607141E+02 -0.26636780602E+02 -0.10862798640E+03  0.11483254159E+03  0.17770000000E+01 0. -1.
</event>
<event>
 6    1  0.1335997E-002  0.1845645E+03  0.7546771E-02  0.1066823E+00
        -11   -1    0    0    0    0  0.00000000000E+00  0.00000000000E+00  0.18250000000E+03  0.18250000000E+03  0.00000000000E+00 0.  1.
         11   -1    0    0    0    0 -0.00000000000E+00 -0.00000000000E+00 -0.18250000000E+03  0.18250000000E+03  0.00000000000E+00 0. -1.
        -11    1    1    2    0    0 -0.10721888229E+01  0.24719374823E+01  0.18041541595E+03  0.18043553524E+03  0.00000000000E+00 0.  1.
         11    1    1    2    0    0  0.70991042611E+01  0.22267332698E+01 -0.11408129364E+03  0.11432365102E+03  0.00000000000E+00 0. -1.
        -15    1    1    2    0    0 -0.12948612206E+01 -0.59162060535E+00  0.10748940524E+01  0.25178972864E+01  0.17770000000E+01 0.  1.
         15    1    1    2    0    0 -0.47320542176E+01 -0.41070501467E+01 -0.67409016359E+02  0.67722916458E+02  0.17770000000E+01 0. -1.
</event>
<event>
 6    1  0.1097339E-002  0.1729029E+03  0.7546771E-02  0.1076361E+00
        -11   -1    0    0    0    0  0.00000000000E+00  0.00000000000E+00  0.18250000000E+03  0.18250000000E+03  0.00000000000E+00 0.  1.
         11   -1    0    0    0    0 -0.00000000000E+00 -0.00000000000E+00 -0.18250000000E+03  0.18250000000E+03  0.00000000000E+00 0. -1.
        -11    1    1    2    0    0  0.11829630389E+01 -0.24532060123E+01  0.17197537968E+03  0.17199694427E+03  0.00000000000E+00 0.  1.
         11    1    1    2    0    0 -0.34863730473E+01 -0.37796739363E+00 -0.17379763015E+03  0.17383300579E+03  0.00000000000E+00 0. -1.
        -15    1    1    2    0    0 -0.23484326830E+01 -0.52609893923E+01  0.62529214682E+01  0.86861902662E+01  0.17770000000E+01 0.  1.
         15    1    1    2    0    0  0.46518426915E+01  0.80921627982E+01 -0.44306709930E+01  0.10483859672E+02  0.17770000000E+01 0. -1.
</event>
<event>
 6    1  0.1097339E-002  0.1749444E+03  0.7546771E-02  0.1074633E+00
        -11   -1    0    0    0    0  0.00000000000E+00  0.00000000000E+00  0.18250000000E+03  0.18250000000E+03  0.00000000000E+00 0.  1.
         11   -1    0    0    0    0 -0.00000000000E+00 -0.00000000000E+00 -0.18250000000E+03  0.18250000000E+03  0.00000000000E+00 0.  1.
        -11    1    1    2    0    0  0.59071911397E+01 -0.79359511217E+01  0.17535514513E+03  0.17563399771E+03  0.00000000000E+00 0.  1.
         11    1    1    2    0    0 -0.25612573814E+01  0.33981994539E+01 -0.17425001235E+03  0.17430196386E+03  0.00000000000E+00 0.  1.
        -15    1    1    2    0    0  0.19195106407E+01 -0.28870628822E+01 -0.37631001783E+01  0.54164845738E+01  0.17770000000E+01 0.  1.
         15    1    1    2    0    0 -0.52654443990E+01  0.74248145500E+01  0.26579674041E+01  0.96475538632E+01  0.17770000000E+01 0. -1.
</event>
<event>
 6    1  0.1097339E-002  0.1856918E+03  0.7546771E-02  0.1065942E+00
        -11   -1    0    0    0    0  0.00000000000E+00  0.00000000000E+00  0.18250000000E+03  0.18250000000E+03  0.00000000000E+00 0.  1.
         11   -1    0    0    0    0 -0.00000000000E+00 -0.00000000000E+00 -0.18250000000E+03  0.18250000000E+03  0.00000000000E+00 0.  1.
        -11    1    1    2    0    0  0.36809279241E+01 -0.89808675964E+00  0.17102809825E+03  0.17107006220E+03  0.00000000000E+00 0.  1.
         11    1    1    2    0    0  0.43654487304E+01 -0.47619502777E+01 -0.17919177151E+03  0.17930818244E+03  0.00000000000E+00 0.  1.
        -15    1    1    2    0    0 -0.73900656583E+01  0.22423596573E+01  0.38795886432E+01  0.88232751463E+01  0.17770000000E+01 0.  1.
         15    1    1    2    0    0 -0.65631099620E+00  0.34176773800E+01  0.42840846215E+01  0.57984802182E+01  0.17770000000E+01 0. -1.
</event>
<event>
 6    1  0.1097339E-002  0.1727039E+03  0.7546771E-02  0.1076531E+00
        -11   -1    0    0    0    0  0.00000000000E+00  0.00000000000E+00  0.18250000000E+03  0.18250000000E+03  0.00000000000E+00 0.  1.
         11   -1    0    0    0    0 -0.00000000000E+00 -0.00000000000E+00 -0.18250000000E+03  0.18250000000E+03  0.00000000000E+00 0.  1.
        -11    1    1    2    0    0 -0.79120331165E+01 -0.22864023408E+01  0.16881144228E+03  0.16901222130E+03  0.00000000000E+00 0.  1.
         11    1    1    2    0    0 -0.54650883589E+01 -0.59050668304E+01 -0.17665738389E+03  0.17684051653E+03  0.00000000000E+00 0.  1.
        -15    1    1    2    0    0  0.11935331129E+02  0.67660851437E+01  0.86718764358E+01  0.16327620991E+02  0.17770000000E+01 0. -1.
         15    1    1    2    0    0  0.14417903467E+01  0.14253840275E+01 -0.82593482938E+00  0.28196411779E+01  0.17770000000E+01 0.  1.
</event>
<event>
 6    1  0.1097339E-002  0.1863517E+03  0.7546771E-02  0.1065430E+00
        -11   -1    0    0    0    0  0.00000000000E+00  0.00000000000E+00  0.18250000000E+03  0.18250000000E+03  0.00000000000E+00 0.  1.
         11   -1    0    0    0    0 -0.00000000000E+00 -0.00000000000E+00 -0.18250000000E+03  0.18250000000E+03  0.00000000000E+00 0.  1.
        -11    1    1    2    0    0 -0.10203832039E+01 -0.67969358100E+01  0.17851608479E+03  0.17864834745E+03  0.00000000000E+00 0.  1.
         11    1    1    2    0    0  0.39048661726E+00  0.28034674814E+01 -0.17420086928E+03  0.17422386394E+03  0.00000000000E+00 0.  1.
        -15    1    1    2    0    0  0.25422295312E+01 -0.24038944144E+01 -0.33334372404E+01  0.51489000943E+01  0.17770000000E+01 0.  1.
         15    1    1    2    0    0 -0.19123329445E+01  0.63973627431E+01 -0.98177826990E+00  0.69788885167E+01  0.17770000000E+01 0. -1.
</event>
<event>
 6    1  0.1097339E-002  0.1841625E+03  0.7546771E-02  0.1067139E+00
        -11   -1    0    0    0    0  0.00000000000E+00  0.00000000000E+00  0.18250000000E+03  0.18250000000E+03  0.00000000000E+00 0. -1.
         11   -1    0    0    0    0 -0.00000000000E+00 -0.00000000000E+00 -0.18250000000E+03  0.18250000000E+03  0.00000000000E+00 0. -1.
        -11    1    1    2    0    0  0.17296862507E+01 -0.11372185678E+00  0.60488425924E+02  0.60513258200E+02  0.00000000000E+00 0. -1.
         11    1    1    2    0    0 -0.19451432268E+01  0.19937085281E+01 -0.18081608202E+03  0.18083753474E+03  0.00000000000E+00 0. -1.
        -15    1    1    2    0    0  0.35786102993E+01 -0.13088615521E+01  0.10818647402E+01  0.43413973042E+01  0.17770000000E+01 0.  1.
         15    1    1    2    0    0 -0.33631533232E+01 -0.57112511922E+00  0.11924579135E+03  0.11930780975E+03  0.17770000000E+01 0. -1.
</event>
<event>
 6    1  0.1097339E-002  0.1852250E+03  0.7546771E-02  0.1066306E+00
        -11   -1    0    0    0    0  0.00000000000E+00  0.00000000000E+00  0.18250000000E+03  0.18250000000E+03  0.00000000000E+00 0.  1.
         11   -1    0    0    0    0 -0.00000000000E+00 -0.00000000000E+00 -0.18250000000E+03  0.18250000000E+03  0.00000000000E+00 0.  1.
        -11    1    1    2    0    0  0.22847756240E+01  0.44277086970E-01  0.16392074460E+03  0.16393667274E+03  0.00000000000E+00 0.  1.
         11    1    1    2    0    0  0.60996925946E+01 -0.58445385536E+00 -0.17967056271E+03  0.17977502313E+03  0.00000000000E+00 0.  1.
        -15    1    1    2    0    0 -0.23682985453E+01  0.10689497276E+01  0.14541126295E+02  0.14877955990E+02  0.17770000000E+01 0.  1.
         15    1    1    2    0    0 -0.60161696732E+01 -0.52877295916E+00  0.12086918213E+01  0.64103481417E+01  0.17770000000E+01 0.  1.
</event>
<event>
 6    1  0.1212746E-002  0.2208128E+03  0.7546771E-02  0.1041484E+00
        -11   -1    0    0    0    0  0.00000000000E+00  0.00000000000E+00  0.18250000000E+03  0.18250000000E+03  0.00000000000E+00 0. -1.
         11   -1    0    0    0    0 -0.00000000000E+00 -0.00000000000E+00 -0.18250000000E+03  0.18250000000E+03  0.00000000000E+00 0.  1.
        -11    1    1    2    0    0 -0.93462561349E-01 -0.22259859196E+01  0.14416995391E+03  0.14418716780E+03  0.00000000000E+00 0. -1.
         11    1    1    2    0    0  0.11567929253E+02  0.12122300418E+01 -0.13153252927E+03  0.13204579791E+03  0.00000000000E+00 0.  1.
        -15    1    1    2    0    0 -0.39634369009E+01 -0.25138084356E+01  0.37541556938E+02  0.37875510442E+02  0.17770000000E+01 0. -1.
         15    1    1    2    0    0 -0.75110297904E+01  0.35275643134E+01 -0.50178981577E+02  0.50891523849E+02  0.17770000000E+01 0.  1.
</event>
<event>
 6    1  0.1097339E-002  0.1831519E+03  0.7546771E-02  0.1067937E+00
        -11   -1    0    0    0    0  0.00000000000E+00  0.00000000000E+00  0.18250000000E+03  0.18250000000E+03  0.00000000000E+00 0. -1.
         11   -1    0    0    0    0 -0.00000000000E+00 -0.00000000000E+00 -0.18250000000E+03  0.18250000000E+03  0.00000000000E+00 0.  1.
        -11    1    1    2    0    0  0.37695487642E+01 -0.23448056686E+01  0.15392515678E+03  0.15398916034E+03  0.00000000000E+00 0. -1.
         11    1    1    2    0    0  0.36103310032E+00 -0.28644184622E+01 -0.18182522696E+03  0.18184814653E+03  0.00000000000E+00 0.  1.
        -15    1    1    2    0    0  0.10286839759E+00  0.11169071102E+01  0.44774260474E+01  0.49460222816E+01  0.17770000000E+01 0.  1.
         15    1    1    2    0    0 -0.42334502621E+01  0.40923170205E+01  0.23422644133E+02  0.24216670847E+02  0.17770000000E+01 0. -1.
</event>
<event>
 6    1  0.1097339E-002  0.1915018E+03  0.7546771E-02  0.1061507E+00
        -11   -1    0    0    0    0  0.00000000000E+00  0.00000000000E+00  0.18250000000E+03  0.18250000000E+03  0.00000000000E+00 0.  1.
         11   -1    0    0    0    0 -0.00000000000E+00 -0.00000000000E+00 -0.18250000000E+03  0.18250000000E+03  0.00000000000E+00 0. -1.
        -11    1    1    2    0    0  0.32375842395E+01  0.35809479611E+01  0.16253815379E+03  0.16260982928E+03  0.00000000000E+00 0.  1.
         11    1    1    2    0    0 -0.74690227229E+01 -0.19266510706E+01 -0.17332661010E+03  0.17349816153E+03  0.00000000000E+00 0. -1.
        -15    1    1    2    0    0 -0.51102793925E+01 -0.11232264751E+02  0.87749781674E+01  0.15245874778E+02  0.17770000000E+01 0.  1.
         15    1    1    2    0    0  0.93417178759E+01  0.95779678610E+01  0.20134781429E+01  0.13646134414E+02  0.17770000000E+01 0. -1.
</event>
<event>
 6    1  0.1097339E-002  0.1851350E+03  0.7546771E-02  0.1066376E+00
        -11   -1    0    0    0    0  0.00000000000E+00  0.00000000000E+00  0.18250000000E+03  0.18250000000E+03  0.00000000000E+00 0. -1.
         11   -1    0    0    0    0 -0.00000000000E+00 -0.00000000000E+00 -0.18250000000E+03  0.18250000000E+03  0.00000000000E+00 0. -1.
        -11    1    1    2    0    0 -0.44088797799E+00  0.29745723968E+01  0.17983984014E+03  0.17986497871E+03  0.00000000000E+00 0. -1.
         11    1    1    2    0    0  0.20872026247E+01  0.39523252493E+01 -0.16702371631E+03  0.16708350936E+03  0.00000000000E+00 0. -1.
        -15    1    1    2    0    0  0.13880414972E+01  0.20193457001E+01 -0.22815673373E+01  0.37904742143E+01  0.17770000000E+01 0.  1.
         15    1    1    2    0    0 -0.30343561440E+01 -0.89462433462E+01 -0.10534556492E+02  0.14261037715E+02  0.17770000000E+01 0.  1.
</event>
<event>
 6    1  0.1097339E-002  0.1723559E+03  0.7546771E-02  0.1076829E+00
        -11   -1    0    0    0    0  0.00000000000E+00  0.00000000000E+00  0.18250000000E+03  0.18250000000E+03  0.00000000000E+00 0. -1.
         11   -1    0    0    0    0 -0.00000000000E+00 -0.00000000000E+00 -0.18250000000E+03  0.18250000000E+03  0.00000000000E+00 0. -1.
        -11    1    1    2    0    0 -0.18552746326E+01 -0.42055510330E+01  0.17379131257E+03  0.17385208952E+03  0.00000000000E+00 0. -1.
         11    1    1    2    0    0  0.20674587209E+01  0.96645453965E+01 -0.17063143224E+03  0.17091741717E+03  0.00000000000E+00 0. -1.
        -15    1    1    2    0    0 -0.36726888706E+01  0.63183542046E+01 -0.44922410750E+00  0.75345719649E+01  0.17770000000E+01 0. -1.
         15    1    1    2    0    0  0.34605047823E+01 -0.11777348568E+02 -0.27106562241E+01  0.12695921345E+02  0.17770000000E+01 0.  1.
</event>
<event>
 6    1  0.1097339E-002  0.1826169E+03  0.7546771E-02  0.1068362E+00
        -11   -1    0    0    0    0  0.00000000000E+00  0.00000000000E+00  0.18250000000E+03  0.18250000000E+03  0.00000000000E+00 0.  1.
         11   -1    0    0    0    0 -0.00000000000E+00 -0.00000000000E+00 -0.18250000000E+03  0.18250000000E+03  0.00000000000E+00 0.  1.
        -11    1    1    2    0    0 -0.41950810853E+00 -0.45977978961E+00  0.36119528325E+02  0.36124890463E+02  0.00000000000E+00 0.  1.
         11    1    1    2    0    0 -0.16327754989E+01  0.29716592273E+01 -0.18235155117E+03  0.18238307194E+03  0.00000000000E+00 0.  1.
        -15    1    1    2    0    0 -0.23093501138E+01 -0.25840224058E+01  0.78395084895E+02  0.78491766029E+02  0.17770000000E+01 0.  1.
         15    1    1    2    0    0  0.43616337212E+01  0.72142968123E-01  0.67836937955E+02  0.68000271568E+02  0.17770000000E+01 0. -1.
</event>
<event>
 6    1  0.1097339E-002  0.1826689E+03  0.7546771E-02  0.1068320E+00
        -11   -1    0    0    0    0  0.00000000000E+00  0.00000000000E+00  0.18250000000E+03  0.18250000000E+03  0.00000000000E+00 0. -1.
         11   -1    0    0    0    0 -0.00000000000E+00 -0.00000000000E+00 -0.18250000000E+03  0.18250000000E+03  0.00000000000E+00 0.  1.
        -11    1    1    2    0    0 -0.27644613134E+01  0.81651995516E+00  0.18230827479E+03  0.18233106156E+03  0.00000000000E+00 0. -1.
         11    1    1    2    0    0  0.40801463903E+00 -0.51981540864E+00 -0.29507190157E+02  0.29514588849E+02  0.00000000000E+00 0.  1.
        -15    1    1    2    0    0 -0.13019294571E+01 -0.36366829193E+01 -0.38885837059E+02  0.39117598798E+02  0.17770000000E+01 0. -1.
         15    1    1    2    0    0  0.36583761314E+01  0.33399783728E+01 -0.11391524758E+03  0.11403675079E+03  0.17770000000E+01 0.  1.
</event>
<event>
 6    1  0.1097339E-002  0.1890100E+03  0.7546771E-02  0.1063388E+00
        -11   -1    0    0    0    0  0.00000000000E+00  0.00000000000E+00  0.18250000000E+03  0.18250000000E+03  0.00000000000E+00 0.  1.
         11   -1    0    0    0    0 -0.00000000000E+00 -0.00000000000E+00 -0.18250000000E+03  0.18250000000E+03  0.00000000000E+00 0. -1.
        -11    1    1    2    0    0 -0.51118275664E+01 -0.12241537856E+01  0.17591149361E+03  0.17599000800E+03  0.00000000000E+00 0.  1.
         11    1    1    2    0    0 -0.14442902642E+01 -0.64447462129E+01 -0.15334647139E+03  0.15348863481E+03  0.00000000000E+00 0. -1.
        -15    1    1    2    0    0 -0.19001895974E+01  0.15129488246E+02 -0.90131954757E+01  0.17801897561E+02  0.17770000000E+01 0. -1.
         15    1    1    2    0    0  0.84563074280E+01 -0.74605882470E+01 -0.13551826739E+02  0.17719459621E+02  0.17770000000E+01 0.  1.
</event>
<event>
 6    1  0.1097339E-002  0.1861402E+03  0.7546771E-02  0.1065594E+00
        -11   -1    0    0    0    0  0.00000000000E+00  0.00000000000E+00  0.18250000000E+03  0.18250000000E+03  0.00000000000E+00 0. -1.
         11   -1    0    0    0    0 -0.00000000000E+00 -0.00000000000E+00 -0.18250000000E+03  0.18250000000E+03  0.00000000000E+00 0. -1.
        -11    1    1    2    0    0 -0.26892182090E+01  0.10698591362E+00  0.17883955128E+03  0.17885980108E+03  0.00000000000E+00 0. -1.
         11    1    1    2    0    0 -0.39545136615E+01 -0.21469971702E+01 -0.16509625960E+03  0.16515756934E+03  0.00000000000E+00 0. -1.
        -15    1    1    2    0    0  0.96687746161E+01 -0.23015703313E+01 -0.73083301265E+01  0.12464022096E+02  0.17770000000E+01 0. -1.
         15    1    1    2    0    0 -0.30250427456E+01  0.43415815879E+01 -0.64349615552E+01  0.85186074868E+01  0.17770000000E+01 0.  1.
</event>
<event>
 6    1  0.1097339E-002  0.1920398E+03  0.7546771E-02  0.1061105E+00
        -11   -1    0    0    0    0  0.00000000000E+00  0.00000000000E+00  0.18250000000E+03  0.18250000000E+03  0.00000000000E+00 0.  1.
         11   -1    0    0    0    0 -0.00000000000E+00 -0.00000000000E+00 -0.18250000000E+03  0.18250000000E+03  0.00000000000E+00 0. -1.
        -11    1    1    2    0    0  0.31697162491E+01 -0.10404798480E+01  0.10823086199E+03  0.10828226626E+03  0.00000000000E+00 0.  1.
         11    1    1    2    0    0  0.14389784175E+02 -0.10233522260E+00 -0.17236050758E+03  0.17296017153E+03  0.00000000000E+00 0. -1.
        -15    1    1    2    0    0 -0.16446449066E+02 -0.30778599723E+01  0.72350683189E+02  0.74281478147E+02  0.17770000000E+01 0.  1.
         15    1    1    2    0    0 -0.11130513583E+01  0.42206750429E+01 -0.82210375907E+01  0.94760840652E+01  0.17770000000E+01 0. -1.
</event>
<event>
 6    1  0.1097339E-002  0.1826986E+03  0.7546771E-02  0.1068297E+00
        -11   -1    0    0    0    0  0.00000000000E+00  0.00000000000E+00  0.18250000000E+03  0.18250000000E+03  0.00000000000E+00 0. -1.
         11   -1    0    0    0    0 -0.00000000000E+00 -0.00000000000E+00 -0.18250000000E+03  0.18250000000E+03  0.00000000000E+00 0.  1.
        -11    1    1    2    0    0 -0.17442777666E+01 -0.13109257029E+00  0.12410287263E+03  0.12411519925E+03  0.00000000000E+00 0. -1.
         11    1    1    2    0    0  0.12199719265E+01  0.22526427916E+01 -0.18228335677E+03  0.18230135734E+03  0.00000000000E+00 0.  1.
        -15    1    1    2    0    0 -0.20619519937E+00 -0.26383838761E+01  0.14005667730E+02  0.14363845011E+02  0.17770000000E+01 0. -1.
         15    1    1    2    0    0  0.73050103945E+00  0.51683365485E+00  0.44174816408E+02  0.44219598398E+02  0.17770000000E+01 0.  1.
</event>
<event>
 6    1  0.1097339E-002  0.1857036E+03  0.7546771E-02  0.1065933E+00
        -11   -1    0    0    0    0  0.00000000000E+00  0.00000000000E+00  0.18250000000E+03  0.18250000000E+03  0.00000000000E+00 0. -1.
         11   -1    0    0    0    0 -0.00000000000E+00 -0.00000000000E+00 -0.18250000000E+03  0.18250000000E+03  0.00000000000E+00 0. -1.
        -11    1    1    2    0    0 -0.42416322692E-02  0.29304717513E+01  0.17927248325E+03  0.17929643313E+03  0.00000000000E+00 0. -1.
         11    1    1    2    0    0  0.59604603811E+01  0.58162954800E+01 -0.15496189239E+03  0.15518551632E+03  0.00000000000E+00 0. -1.
        -15    1    1    2    0    0 -0.71314419678E+01 -0.63169922897E+01 -0.25337225956E+02  0.27127377394E+02  0.17770000000E+01 0.  1.
         15    1    1    2    0    0  0.11752232190E+01 -0.24297749416E+01  0.10266351002E+01  0.33906731647E+01  0.17770000000E+01 0.  1.
</event>
<event>
 6    1  0.1509737E-002  0.1827736E+03  0.7546771E-02  0.1068237E+00
        -11   -1    0    0    0    0  0.00000000000E+00  0.00000000000E+00  0.18250000000E+03  0.18250000000E+03  0.00000000000E+00 0.  1.
         11   -1    0    0    0    0 -0.00000000000E+00 -0.00000000000E+00 -0.18250000000E+03  0.18250000000E+03  0.00000000000E+00 0. -1.
        -11    1    1    2    0    0  0.29803147016E+01 -0.18897157777E+01  0.18219220865E+03  0.18222638172E+03  0.00000000000E+00 0.  1.
         11    1    1    2    0    0  0.30372031861E+01  0.17751699881E+01 -0.46402850885E+02  0.46536011883E+02  0.00000000000E+00 0. -1.
        -15    1    1    2    0    0 -0.17481935779E+01  0.76164814569E+00 -0.91987946570E+01  0.95609539704E+01  0.17770000000E+01 0.  1.
         15    1    1    2    0    0 -0.42693243099E+01 -0.64710235606E+00 -0.12659056311E+03  0.12667665242E+03  0.17770000000E+01 0. -1.
</event>
<event>
 6    1  0.1097339E-002  0.1874936E+03  0.7546771E-02  0.1064548E+00
        -11   -1    0    0    0    0  0.00000000000E+00  0.00000000000E+00  0.18250000000E+03  0.18250000000E+03  0.00000000000E+00 0. -1.
         11   -1    0    0    0    0 -0.00000000000E+00 -0.00000000000E+00 -0.18250000000E+03  0.18250000000E+03  0.00000000000E+00 0. -1.
        -11    1    1    2    0    0 -0.16327801568E-01 -0.13265140129E+02  0.17701001862E+03  0.17750636862E+03  0.00000000000E+00 0. -1.
         11    1    1    2    0    0  0.18582252188E+00  0.95181110540E+01 -0.12141242456E+03  0.12178508039E+03  0.00000000000E+00 0. -1.
        -15    1    1    2    0    0 -0.12239083220E+02 -0.25885134269E+00 -0.50332788684E+02  0.51830584675E+02  0.17770000000E+01 0. -1.
         15    1    1    2    0    0  0.12069588499E+02  0.40058804180E+01 -0.52648053699E+01  0.13877966315E+02  0.17770000000E+01 0.  1.
</event>
<event>
 6    1  0.1097339E-002  0.1857030E+03  0.7546771E-02  0.1065933E+00
        -11   -1    0    0    0    0  0.00000000000E+00  0.00000000000E+00  0.18250000000E+03  0.18250000000E+03  0.00000000000E+00 0.  1.
         11   -1    0    0    0    0 -0.00000000000E+00 -0.00000000000E+00 -0.18250000000E+03  0.18250000000E+03  0.00000000000E+00 0.  1.
        -11    1    1    2    0    0  0.89751868597E+01  0.35244186056E+00  0.17907188101E+03  0.17929700712E+03  0.00000000000E+00 0.  1.
         11    1    1    2    0    0 -0.28697326999E+01 -0.26504298612E+01 -0.13944047619E+03  0.13949518466E+03  0.00000000000E+00 0.  1.
        -15    1    1    2    0    0 -0.70193031100E+01 -0.18889223106E+01 -0.40753437425E+02  0.41434756360E+02  0.17770000000E+01 0. -1.
         15    1    1    2    0    0  0.91384895013E+00  0.41869103112E+01  0.11220326058E+01  0.47730518567E+01  0.17770000000E+01 0.  1.
</event>
<event>
 6    1  0.1097339E-002  0.1826690E+03  0.7546771E-02  0.1068320E+00
        -11   -1    0    0    0    0  0.00000000000E+00  0.00000000000E+00  0.18250000000E+03  0.18250000000E+03  0.00000000000E+00 0.  1.
         11   -1    0    0    0    0 -0.00000000000E+00 -0.00000000000E+00 -0.18250000000E+03  0.18250000000E+03  0.00000000000E+00 0.  1.
        -11    1    1    2    0    0 -0.16063046271E+01  0.18961264830E+01  0.13123918742E+03  0.13126271300E+03  0.00000000000E+00 0.  1.
         11    1    1    2    0    0 -0.10582089541E+01 -0.26403551783E+01 -0.18230877650E+03  0.18233096630E+03  0.00000000000E+00 0.  1.
        -15    1    1    2    0    0  0.28923973769E+01 -0.53856684864E+00  0.37701553431E+02  0.37857903758E+02  0.17770000000E+01 0. -1.
         15    1    1    2    0    0 -0.22788379570E+00  0.12827955439E+01  0.13368035656E+02  0.13548416946E+02  0.17770000000E+01 0.  1.
</event>
<event>
 6    1  0.1097339E-002  0.1847136E+03  0.7546771E-02  0.1066706E+00
        -11   -1    0    0    0    0  0.00000000000E+00  0.00000000000E+00  0.18250000000E+03  0.18250000000E+03  0.00000000000E+00 0. -1.
         11   -1    0    0    0    0 -0.00000000000E+00 -0.00000000000E+00 -0.18250000000E+03  0.18250000000E+03  0.00000000000E+00 0.  1.
        -11    1    1    2    0    0  0.31823533406E+00 -0.25895892044E+01  0.80460615102E+02  0.80502905715E+02  0.00000000000E+00 0. -1.
         11    1    1    2    0    0 -0.16596011047E+01  0.85362933191E+01 -0.18007652054E+03  0.18028637172E+03  0.00000000000E+00 0.  1.
        -15    1    1    2    0    0 -0.33471208530E+00  0.52645739549E+01  0.86919716317E+02  0.87097776003E+02  0.17770000000E+01 0. -1.
         15    1    1    2    0    0  0.16760778560E+01 -0.11211278070E+02  0.12696189117E+02  0.17112946562E+02  0.17770000000E+01 0. -1.
</event>
<event>
 6    1  0.1097339E-002  0.1825821E+03  0.7546771E-02  0.1068389E+00
        -11   -1    0    0    0    0  0.00000000000E+00  0.00000000000E+00  0.18250000000E+03  0.18250000000E+03  0.00000000000E+00 0.  1.
         11   -1    0    0    0    0 -0.00000000000E+00 -0.00000000000E+00 -0.18250000000E+03  0.18250000000E+03  0.00000000000E+00 0. -1.
        -11    1    1    2    0    0  0.56794962367E+00 -0.25719041875E-01  0.40127698055E+02  0.40131725349E+02  0.00000000000E+00 0.  1.
         11    1    1    2    0    0  0.22944509073E+01 -0.37141560555E+01 -0.18236564161E+03  0.18241789029E+03  0.00000000000E+00 0. -1.
        -15    1    1    2    0    0 -0.33962269250E+01  0.20618798670E+01  0.11872095552E+03  0.11880071007E+03  0.17770000000E+01 0.  1.
         15    1    1    2    0    0  0.53382639401E+00  0.16779952303E+01  0.23516988033E+02  0.23649674284E+02  0.17770000000E+01 0.  1.
</event>
<event>
 6    1  0.1097339E-002  0.1850303E+03  0.7546771E-02  0.1066458E+00
        -11   -1    0    0    0    0  0.00000000000E+00  0.00000000000E+00  0.18250000000E+03  0.18250000000E+03  0.00000000000E+00 0. -1.
         11   -1    0    0    0    0 -0.00000000000E+00 -0.00000000000E+00 -0.18250000000E+03  0.18250000000E+03  0.00000000000E+00 0.  1.
        -11    1    1    2    0    0 -0.13388265533E+01 -0.20247845165E+01  0.17698713591E+03  0.17700378099E+03  0.00000000000E+00 0. -1.
         11    1    1    2    0    0  0.20303208489E+01 -0.27902510783E+01 -0.17993659389E+03  0.17996967945E+03  0.00000000000E+00 0.  1.
        -15    1    1    2    0    0 -0.48395278604E-01  0.37820191264E+01 -0.23115405306E+00  0.41853520726E+01  0.17770000000E+01 0.  1.
         15    1    1    2    0    0 -0.64309901693E+00  0.10330164683E+01  0.31806120312E+01  0.38411874808E+01  0.17770000000E+01 0. -1.
</event>
<event>
 6    1  0.1097339E-002  0.1837564E+03  0.7546771E-02  0.1067459E+00
        -11   -1    0    0    0    0  0.00000000000E+00  0.00000000000E+00  0.18250000000E+03  0.18250000000E+03  0.00000000000E+00 0.  1.
         11   -1    0    0    0    0 -0.00000000000E+00 -0.00000000000E+00 -0.18250000000E+03  0.18250000000E+03  0.00000000000E+00 0. -1.
        -11    1    1    2    0    0 -0.12535333335E+02 -0.23676506872E+00  0.18080947532E+03  0.18124363990E+03  0.00000000000E+00 0.  1.
         11    1    1    2    0    0  0.90856601924E+00  0.21772973172E+00 -0.49299840465E+02  0.49308692624E+02  0.00000000000E+00 0. -1.
        -15    1    1    2    0    0 -0.26304779978E+01 -0.33274484210E+01 -0.94419909724E+02  0.94531838069E+02  0.17770000000E+01 0. -1.
         15    1    1    2    0    0  0.14257245313E+02  0.33464837580E+01 -0.37089725133E+02  0.39915829403E+02  0.17770000000E+01 0. -1.
</event>
<event>
 6    1  0.1097339E-002  0.1852285E+03  0.7546771E-02  0.1066303E+00
        -11   -1    0    0    0    0  0.00000000000E+00  0.00000000000E+00  0.18250000000E+03  0.18250000000E+03  0.00000000000E+00 0.  1.
         11   -1    0    0    0    0 -0.00000000000E+00 -0.00000000000E+00 -0.18250000000E+03  0.18250000000E+03  0.00000000000E+00 0.  1.
        -11    1    1    2    0    0  0.30703524964E+01 -0.52966723343E+01  0.14243555684E+03  0.14256707073E+03  0.00000000000E+00 0.  1.
         11    1    1    2    0    0  0.49224871601E+01 -0.71849813273E+01 -0.17956037910E+03  0.17977147877E+03  0.00000000000E+00 0.  1.
        -15    1    1    2    0    0 -0.13189615638E+01 -0.22677846324E+01  0.14145094011E+02  0.14495651773E+02  0.17770000000E+01 0.  1.
         15    1    1    2    0    0 -0.66738780927E+01  0.14749438294E+02  0.22979728248E+02  0.28165798730E+02  0.17770000000E+01 0. -1.
</event>
<event>
 6    1  0.1097339E-002  0.1889736E+03  0.7546771E-02  0.1063415E+00
        -11   -1    0    0    0    0  0.00000000000E+00  0.00000000000E+00  0.18250000000E+03  0.18250000000E+03  0.00000000000E+00 0. -1.
         11   -1    0    0    0    0 -0.00000000000E+00 -0.00000000000E+00 -0.18250000000E+03  0.18250000000E+03  0.00000000000E+00 0. -1.
        -11    1    1    2    0    0  0.40072589431E+01  0.14715088398E+01  0.17597462511E+03  0.17602639616E+03  0.00000000000E+00 0. -1.
         11    1    1    2    0    0 -0.67985776004E+01  0.35215689694E+01 -0.16423562449E+03  0.16441399714E+03  0.00000000000E+00 0. -1.
        -15    1    1    2    0    0 -0.32469078630E+01 -0.38492543339E+01  0.45776673506E+01  0.70336290043E+01  0.17770000000E+01 0.  1.
         15    1    1    2    0    0  0.60382265203E+01 -0.11438234754E+01 -0.16316667967E+02  0.17525977696E+02  0.17770000000E+01 0. -1.
</event>
<event>
 6    1  0.1097339E-002  0.1937755E+03  0.7546771E-02  0.1059818E+00
        -11   -1    0    0    0    0  0.00000000000E+00  0.00000000000E+00  0.18250000000E+03  0.18250000000E+03  0.00000000000E+00 0.  1.
         11   -1    0    0    0    0 -0.00000000000E+00 -0.00000000000E+00 -0.18250000000E+03  0.18250000000E+03  0.00000000000E+00 0.  1.
        -11    1    1    2    0    0  0.22485325817E+00 -0.72952339280E+01  0.17106882602E+03  0.17122445571E+03  0.00000000000E+00 0.  1.
         11    1    1    2    0    0 -0.34356337795E+01 -0.81991344613E+00 -0.16143839224E+03  0.16147702724E+03  0.00000000000E+00 0.  1.
        -15    1    1    2    0    0  0.16103477644E+02  0.73541932514E+01 -0.56283231123E+01  0.18661240598E+02  0.17770000000E+01 0. -1.
         15    1    1    2    0    0 -0.12892697123E+02  0.76095412278E+00 -0.40021106608E+01  0.13637276452E+02  0.17770000000E+01 0.  1.
</event>
<event>
 6    1  0.1097339E-002  0.1703568E+03  0.7546771E-02  0.1078554E+00
        -11   -1    0    0    0    0  0.00000000000E+00  0.00000000000E+00  0.18250000000E+03  0.18250000000E+03  0.00000000000E+00 0. -1.
         11   -1    0    0    0    0 -0.00000000000E+00 -0.00000000000E+00 -0.18250000000E+03  0.18250000000E+03  0.00000000000E+00 0.  1.
        -11    1    1    2    0    0  0.10404755630E+01 -0.25515715354E+01  0.17094566482E+03  0.17096787250E+03  0.00000000000E+00 0. -1.
         11    1    1    2    0    0  0.35019992388E+01 -0.43295696387E+01 -0.16975622396E+03  0.16984753382E+03  0.00000000000E+00 0.  1.
        -15    1    1    2    0    0  0.75294395379E+01  0.33668479271E+01 -0.62659587467E+01  0.10509428754E+02  0.17770000000E+01 0. -1.
         15    1    1    2    0    0 -0.12071914340E+02  0.35142932471E+01  0.50765178887E+01  0.13675164925E+02  0.17770000000E+01 0. -1.
</event>
<event>
 6    1  0.1097339E-002  0.1853985E+03  0.7546771E-02  0.1066171E+00
        -11   -1    0    0    0    0  0.00000000000E+00  0.00000000000E+00  0.18250000000E+03  0.18250000000E+03  0.00000000000E+00 0.  1.
         11   -1    0    0    0    0 -0.00000000000E+00 -0.00000000000E+00 -0.18250000000E+03  0.18250000000E+03  0.00000000000E+00 0. -1.
        -11    1    1    2    0    0 -0.14198597825E+01 -0.19915733443E+01  0.17958487979E+03  0.17960153512E+03  0.00000000000E+00 0.  1.
         11    1    1    2    0    0  0.13109176664E+01  0.81069758593E+01 -0.15106111463E+03  0.15128417603E+03  0.00000000000E+00 0. -1.
        -15    1    1    2    0    0 -0.12957432208E+01 -0.75306995393E+01 -0.30036882620E+02  0.31044523391E+02  0.17770000000E+01 0.  1.
         15    1    1    2    0    0  0.14046853369E+01  0.14152970244E+01  0.15131174569E+01  0.30697654636E+01  0.17770000000E+01 0. -1.
</event>
<event>
 6    1  0.1097339E-002  0.1846002E+03  0.7546771E-02  0.1066795E+00
        -11   -1    0    0    0    0  0.00000000000E+00  0.00000000000E+00  0.18250000000E+03  0.18250000000E+03  0.00000000000E+00 0. -1.
         11   -1    0    0    0    0 -0.00000000000E+00 -0.00000000000E+00 -0.18250000000E+03  0.18250000000E+03  0.00000000000E+00 0. -1.
        -11    1    1    2    0    0  0.35204843408E+01 -0.37260754490E+01  0.18032694776E+03  0.18039979362E+03  0.00000000000E+00 0. -1.
         11    1    1    2    0    0 -0.12200164331E+01 -0.14743661201E+01 -0.13293479580E+03  0.13294856950E+03  0.00000000000E+00 0. -1.
        -15    1    1    2    0    0  0.30912188319E+01 -0.40382111829E+01 -0.33980214811E+02  0.34404585610E+02  0.17770000000E+01 0.  1.
         15    1    1    2    0    0 -0.53916867396E+01  0.92386527520E+01 -0.13411937149E+02  0.17247051275E+02  0.17770000000E+01 0.  1.
</event>
<event>
 6    1  0.1097339E-002  0.1737471E+03  0.7546771E-02  0.1075644E+00
        -11   -1    0    0    0    0  0.00000000000E+00  0.00000000000E+00  0.18250000000E+03  0.18250000000E+03  0.00000000000E+00 0. -1.
         11   -1    0    0    0    0 -0.00000000000E+00 -0.00000000000E+00 -0.18250000000E+03  0.18250000000E+03  0.00000000000E+00 0. -1.
        -11    1    1    2    0    0 -0.32562535293E+01  0.75302762622E+01  0.17545796871E+03  0.17564967131E+03  0.00000000000E+00 0. -1.
         11    1    1    2    0    0  0.76842944054E+01 -0.11606855613E+02 -0.17135636579E+03  0.17192082938E+03  0.00000000000E+00 0. -1.
        -15    1    1    2    0    0 -0.10104567358E+01  0.96249868042E+01 -0.69385201347E+00  0.98641042884E+01  0.17770000000E+01 0.  1.
         15    1    1    2    0    0 -0.34175841404E+01 -0.55484074536E+01 -0.34077509021E+01  0.75653950220E+01  0.17770000000E+01 0. -1.
</event>
<event>
 6    1  0.1097339E-002  0.1825777E+03  0.7546771E-02  0.1068393E+00
        -11   -1    0    0    0    0  0.00000000000E+00  0.00000000000E+00  0.18250000000E+03  0.18250000000E+03  0.00000000000E+00 0. -1.
         11   -1    0    0    0    0 -0.00000000000E+00 -0.00000000000E+00 -0.18250000000E+03  0.18250000000E+03  0.00000000000E+00 0. -1.
        -11    1    1    2    0    0 -0.58581838215E+00 -0.25223068973E+01  0.18240391498E+03  0.18242229419E+03  0.00000000000E+00 0. -1.
         11    1    1    2    0    0  0.10055076763E+01 -0.96869237178E+00 -0.86090038572E+02  0.86101359757E+02  0.00000000000E+00 0. -1.
        -15    1    1    2    0    0 -0.25381908051E+00  0.74812938925E+00 -0.54470853379E+02  0.54505556768E+02  0.17770000000E+01 0.  1.
         15    1    1    2    0    0 -0.16587021365E+00  0.27428698798E+01 -0.41843023032E+02  0.41970789289E+02  0.17770000000E+01 0.  1.
</event>
<event>
 6    1  0.1097339E-002  0.1742895E+03  0.7546771E-02  0.1075185E+00
        -11   -1    0    0    0    0  0.00000000000E+00  0.00000000000E+00  0.18250000000E+03  0.18250000000E+03  0.00000000000E+00 0.  1.
         11   -1    0    0    0    0 -0.00000000000E+00 -0.00000000000E+00 -0.18250000000E+03  0.18250000000E+03  0.00000000000E+00 0. -1.
        -11    1    1    2    0    0  0.21431031250E+01  0.29604182994E+01  0.17500645868E+03  0.17504461587E+03  0.00000000000E+00 0.  1.
         11    1    1    2    0    0  0.14910095442E+01  0.66834260729E+01 -0.17355478172E+03  0.17368981994E+03  0.00000000000E+00 0. -1.
        -15    1    1    2    0    0  0.22962034603E+01 -0.47733517138E+00 -0.39501720513E+01  0.49256458898E+01  0.17770000000E+01 0. -1.
         15    1    1    2    0    0 -0.59303161294E+01 -0.91665092009E+01  0.24984950882E+01  0.11339918299E+02  0.17770000000E+01 0.  1.
</event>
<event>
 6    1  0.1097339E-002  0.1906368E+03  0.7546771E-02  0.1062156E+00
        -11   -1    0    0    0    0  0.00000000000E+00  0.00000000000E+00  0.18250000000E+03  0.18250000000E+03  0.00000000000E+00 0.  1.
         11   -1    0    0    0    0 -0.00000000000E+00 -0.00000000000E+00 -0.18250000000E+03  0.18250000000E+03  0.00000000000E+00 0. -1.
        -11    1    1    2    0    0 -0.89474647220E+01  0.11160379940E+02  0.17377549877E+03  0.17436322771E+03  0.00000000000E+00 0.  1.
         11    1    1    2    0    0 -0.35021706226E+01 -0.83006496433E+01 -0.82000940438E+02  0.82494364755E+02  0.00000000000E+00 0. -1.
        -15    1    1    2    0    0  0.15541449739E+02 -0.20401311111E+02 -0.85327899133E+02  0.89116543102E+02  0.17770000000E+01 0. -1.
         15    1    1    2    0    0 -0.30918143942E+01  0.17541580814E+02 -0.64466591950E+01  0.19025864435E+02  0.17770000000E+01 0.  1.
</event>
<event>
 6    1  0.1097339E-002  0.1826395E+03  0.7546771E-02  0.1068344E+00
        -11   -1    0    0    0    0  0.00000000000E+00  0.00000000000E+00  0.18250000000E+03  0.18250000000E+03  0.00000000000E+00 0.  1.
         11   -1    0    0    0    0 -0.00000000000E+00 -0.00000000000E+00 -0.18250000000E+03  0.18250000000E+03  0.00000000000E+00 0.  1.
        -11    1    1    2    0    0  0.47762703509E+00  0.66703701036E+00  0.17439506113E+02  0.17458792610E+02  0.00000000000E+00 0.  1.
         11    1    1    2    0    0  0.60095604925E+01  0.44899949658E+01 -0.18220609218E+03  0.18236045322E+03  0.00000000000E+00 0.  1.
        -15    1    1    2    0    0  0.14416157955E+01 -0.68935737779E+00  0.38553088486E+02  0.38627086746E+02  0.17770000000E+01 0. -1.
         15    1    1    2    0    0 -0.79288033230E+01 -0.44676745983E+01  0.12621349758E+03  0.12655366742E+03  0.17770000000E+01 0. -1.
</event>
<event>
 6    1  0.1097339E-002  0.1863603E+03  0.7546771E-02  0.1065423E+00
        -11   -1    0    0    0    0  0.00000000000E+00  0.00000000000E+00  0.18250000000E+03  0.18250000000E+03  0.00000000000E+00 0.  1.
         11   -1    0    0    0    0 -0.00000000000E+00 -0.00000000000E+00 -0.18250000000E+03  0.18250000000E+03  0.00000000000E+00 0. -1.
        -11    1    1    2    0    0  0.72432589705E+00  0.52655710219E+01  0.17856056393E+03  0.17863965371E+03  0.00000000000E+00 0.  1.
         11    1    1    2    0    0  0.33146849056E+01  0.10859381012E+01 -0.16613934789E+03  0.16617595890E+03  0.00000000000E+00 0. -1.
        -15    1    1    2    0    0 -0.13628950252E+01 -0.17677676539E+01 -0.14064388025E+02  0.14350861467E+02  0.17770000000E+01 0. -1.
         15    1    1    2    0    0 -0.26761157775E+01 -0.45837414692E+01  0.16431719860E+01  0.58335259224E+01  0.17770000000E+01 0.  1.
</event>
<event>
 6    1  0.1097339E-002  0.1835567E+03  0.7546771E-02  0.1067617E+00
        -11   -1    0    0    0    0  0.00000000000E+00  0.00000000000E+00  0.18250000000E+03  0.18250000000E+03  0.00000000000E+00 0. -1.
         11   -1    0    0    0    0 -0.00000000000E+00 -0.00000000000E+00 -0.18250000000E+03  0.18250000000E+03  0.00000000000E+00 0. -1.
        -11    1    1    2    0    0 -0.12755329114E-01  0.26053124588E+01  0.10042267122E+03  0.10045646176E+03  0.00000000000E+00 0. -1.
         11    1    1    2    0    0  0.57869256145E+01  0.33103012365E+00 -0.18135067926E+03  0.18144328855E+03  0.00000000000E+00 0. -1.
        -15    1    1    2    0    0 -0.96053516425E+01 -0.89821164749E+00  0.23286716919E+02  0.25268527425E+02  0.17770000000E+01 0.  1.
         15    1    1    2    0    0  0.38311813571E+01 -0.20381309349E+01  0.57641291129E+02  0.57831722267E+02  0.17770000000E+01 0. -1.
</event>
<event>
 6    1  0.1097339E-002  0.1858779E+03  0.7546771E-02  0.1065797E+00
        -11   -1    0    0    0    0  0.00000000000E+00  0.00000000000E+00  0.18250000000E+03  0.18250000000E+03  0.00000000000E+00 0.  1.
         11   -1    0    0    0    0 -0.00000000000E+00 -0.00000000000E+00 -0.18250000000E+03  0.18250000000E+03  0.00000000000E+00 0.  1.
        -11    1    1    2    0    0  0.31067959442E+01  0.49543968011E+00  0.17315427163E+03  0.17318284969E+03  0.00000000000E+00 0.  1.
         11    1    1    2    0    0  0.50779179604E+01  0.87205086187E+00 -0.17904802575E+03  0.17912214059E+03  0.00000000000E+00 0.  1.
        -15    1    1    2    0    0 -0.13251721946E+01  0.78133648184E+00  0.46173982034E+01  0.51811835725E+01  0.17770000000E+01 0.  1.
         15    1    1    2    0    0 -0.68595417100E+01 -0.21488270238E+01  0.12763559153E+01  0.75138261540E+01  0.17770000000E+01 0.  1.
</event>
<event>
 6    1  0.1097339E-002  0.1834450E+03  0.7546771E-02  0.1067705E+00
        -11   -1    0    0    0    0  0.00000000000E+00  0.00000000000E+00  0.18250000000E+03  0.18250000000E+03  0.00000000000E+00 0.  1.
         11   -1    0    0    0    0 -0.00000000000E+00 -0.00000000000E+00 -0.18250000000E+03  0.18250000000E+03  0.00000000000E+00 0. -1.
        -11    1    1    2    0    0  0.23029050047E+01  0.18803644956E+02  0.18056393914E+03  0.18155499595E+03  0.00000000000E+00 0.  1.
         11    1    1    2    0    0  0.12037972235E+01  0.28520875062E+01 -0.21329564511E+02  0.21553047421E+02  0.00000000000E+00 0. -1.
        -15    1    1    2    0    0 -0.17291135434E+01 -0.11056181227E+02 -0.27992875081E+02  0.30199135108E+02  0.17770000000E+01 0.  1.
         15    1    1    2    0    0 -0.17775886848E+01 -0.10599551235E+02 -0.13124149955E+03  0.13169282152E+03  0.17770000000E+01 0. -1.
</event>
<event>
 6    1  0.1097339E-002  0.1834110E+03  0.7546771E-02  0.1067732E+00
        -11   -1    0    0    0    0  0.00000000000E+00  0.00000000000E+00  0.18250000000E+03  0.18250000000E+03  0.00000000000E+00 0.  1.
         11   -1    0    0    0    0 -0.00000000000E+00 -0.00000000000E+00 -0.18250000000E+03  0.18250000000E+03  0.00000000000E+00 0. -1.
        -11    1    1    2    0    0 -0.14855458605E+01 -0.19480075726E+01  0.15330400580E+03  0.15332357867E+03  0.00000000000E+00 0.  1.
         11    1    1    2    0    0 -0.41083968465E+01 -0.42992803862E+01 -0.18149163579E+03  0.18158903215E+03  0.00000000000E+00 0. -1.
        -15    1    1    2    0    0  0.14074899153E+01  0.23798069222E+01  0.17847029549E+02  0.18147140314E+02  0.17770000000E+01 0.  1.
         15    1    1    2    0    0  0.41864527918E+01  0.38674810366E+01  0.10340600437E+02  0.11940248864E+02  0.17770000000E+01 0.  1.
</event>
<event>
 6    1  0.1097339E-002  0.1663927E+03  0.7546771E-02  0.1082052E+00
        -11   -1    0    0    0    0  0.00000000000E+00  0.00000000000E+00  0.18250000000E+03  0.18250000000E+03  0.00000000000E+00 0.  1.
         11   -1    0    0    0    0 -0.00000000000E+00 -0.00000000000E+00 -0.18250000000E+03  0.18250000000E+03  0.00000000000E+00 0.  1.
        -11    1    1    2    0    0  0.16493940688E+01 -0.30364797173E+01  0.16726691862E+03  0.16730260840E+03  0.00000000000E+00 0.  1.
         11    1    1    2    0    0 -0.35244524728E+01  0.68726859155E+01 -0.16533555033E+03  0.16551585960E+03  0.00000000000E+00 0.  1.
        -15    1    1    2    0    0  0.25777067245E+01  0.26839779876E+01  0.14142058501E+02  0.14731050792E+02  0.17770000000E+01 0.  1.
         15    1    1    2    0    0 -0.70264832046E+00 -0.65201841857E+01 -0.16073426795E+02  0.17450481209E+02  0.17770000000E+01 0. -1.
</event>
<event>
 6    1  0.1097339E-002  0.1862659E+03  0.7546771E-02  0.1065496E+00
        -11   -1    0    0    0    0  0.00000000000E+00  0.00000000000E+00  0.18250000000E+03  0.18250000000E+03  0.00000000000E+00 0.  1.
         11   -1    0    0    0    0 -0.00000000000E+00 -0.00000000000E+00 -0.18250000000E+03  0.18250000000E+03  0.00000000000E+00 0.  1.
        -11    1    1    2    0    0  0.47890478202E+01 -0.19727626975E+01  0.13807551635E+03  0.13817262749E+03  0.00000000000E+00 0.  1.
         11    1    1    2    0    0  0.10142424310E+02 -0.10928203975E+02 -0.17811119180E+03  0.17873413512E+03  0.00000000000E+00 0.  1.
        -15    1    1    2    0    0 -0.45108548689E+01 -0.41422169017E+01  0.72055999718E+01  0.96220669538E+01  0.17770000000E+01 0.  1.
         15    1    1    2    0    0 -0.10420617262E+02  0.17043183574E+02  0.32830075472E+02  0.38471170439E+02  0.17770000000E+01 0. -1.
</event>
<event>
 6    1  0.1097339E-002  0.1858462E+03  0.7546771E-02  0.1065822E+00
        -11   -1    0    0    0    0  0.00000000000E+00  0.00000000000E+00  0.18250000000E+03  0.18250000000E+03  0.00000000000E+00 0.  1.
         11   -1    0    0    0    0 -0.00000000000E+00 -0.00000000000E+00 -0.18250000000E+03  0.18250000000E+03  0.00000000000E+00 0. -1.
        -11    1    1    2    0    0 -0.57154966034E+01 -0.10271457540E+01  0.16609622832E+03  0.16619771055E+03  0.00000000000E+00 0.  1.
         11    1    1    2    0    0  0.41577846690E+01 -0.36579886805E+01 -0.17906815284E+03  0.17915376473E+03  0.00000000000E+00 0. -1.
        -15    1    1    2    0    0 -0.46513268832E+01  0.15933515493E+01  0.47989231167E+00  0.52499177674E+01  0.17770000000E+01 0.  1.
         15    1    1    2    0    0  0.62090388176E+01  0.30917828852E+01  0.12492032214E+02  0.14398606956E+02  0.17770000000E+01 0. -1.
</event>
<event>
 6    1  0.1097339E-002  0.1835167E+03  0.7546771E-02  0.1067648E+00
        -11   -1    0    0    0    0  0.00000000000E+00  0.00000000000E+00  0.18250000000E+03  0.18250000000E+03  0.00000000000E+00 0.  1.
         11   -1    0    0    0    0 -0.00000000000E+00 -0.00000000000E+00 -0.18250000000E+03  0.18250000000E+03  0.00000000000E+00 0.  1.
        -11    1    1    2    0    0 -0.18808080212E+01  0.31892116691E+01  0.18144549376E+03  0.18148326566E+03  0.00000000000E+00 0.  1.
         11    1    1    2    0    0  0.50187915730E+01 -0.43354422041E+00 -0.13700936215E+03  0.13710193852E+03  0.00000000000E+00 0.  1.
        -15    1    1    2    0    0 -0.32642972556E+01 -0.65333416279E+01 -0.16048095660E+02  0.17721153820E+02  0.17770000000E+01 0. -1.
         15    1    1    2    0    0  0.12631370384E+00  0.37776741792E+01 -0.28388035948E+02  0.28693642002E+02  0.17770000000E+01 0.  1.
</event>
<event>
 6    1  0.1097339E-002  0.1841649E+03  0.7546771E-02  0.1067137E+00
        -11   -1    0    0    0    0  0.00000000000E+00  0.00000000000E+00  0.18250000000E+03  0.18250000000E+03  0.00000000000E+00 0.  1.
         11   -1    0    0    0    0 -0.00000000000E+00 -0.00000000000E+00 -0.18250000000E+03  0.18250000000E+03  0.00000000000E+00 0. -1.
        -11    1    1    2    0    0 -0.54876972255E+00  0.37402949728E+00  0.48166938768E+02  0.48171516860E+02  0.00000000000E+00 0.  1.
         11    1    1    2    0    0 -0.46917348486E+01 -0.79293168121E+01 -0.18060022741E+03  0.18083508670E+03  0.00000000000E+00 0. -1.
        -15    1    1    2    0    0 -0.17851265418E+01  0.59038634280E+01  0.12599962719E+03  0.12616301384E+03  0.17770000000E+01 0.  1.
         15    1    1    2    0    0  0.70256311130E+01  0.16514238868E+01  0.64336614527E+01  0.98303826008E+01  0.17770000000E+01 0. -1.
</event>
<event>
 6    1  0.1097339E-002  0.1842075E+03  0.7546771E-02  0.1067104E+00
        -11   -1    0    0    0    0  0.00000000000E+00  0.00000000000E+00  0.18250000000E+03  0.18250000000E+03  0.00000000000E+00 0.  1.
         11   -1    0    0    0    0 -0.00000000000E+00 -0.00000000000E+00 -0.18250000000E+03  0.18250000000E+03  0.00000000000E+00 0. -1.
        -11    1    1    2    0    0  0.11947902315E+01  0.39066872587E+01  0.18074630469E+03  0.18079246773E+03  0.00000000000E+00 0.  1.
         11    1    1    2    0    0 -0.22609364610E+01  0.24860205857E+01 -0.16437869714E+03  0.16441304147E+03  0.00000000000E+00 0. -1.
        -15    1    1    2    0    0  0.41319162803E+01 -0.20640228963E+01 -0.45627226281E+01  0.67312026745E+01  0.17770000000E+01 0.  1.
         15    1    1    2    0    0 -0.30657700508E+01 -0.43286849481E+01 -0.11804884923E+02  0.13063288117E+02  0.17770000000E+01 0. -1.
</event>
<event>
 6    1  0.1097339E-002  0.1833181E+03  0.7546771E-02  0.1067805E+00
        -11   -1    0    0    0    0  0.00000000000E+00  0.00000000000E+00  0.18250000000E+03  0.18250000000E+03  0.00000000000E+00 0. -1.
         11   -1    0    0    0    0 -0.00000000000E+00 -0.00000000000E+00 -0.18250000000E+03  0.18250000000E+03  0.00000000000E+00 0.  1.
        -11    1    1    2    0    0 -0.31633609012E+01  0.12839427600E+01  0.18164986891E+03  0.18168194802E+03  0.00000000000E+00 0. -1.
         11    1    1    2    0    0 -0.41048416532E-01 -0.21718677064E+01 -0.15930679468E+03  0.15932160407E+03  0.00000000000E+00 0.  1.
        -15    1    1    2    0    0 -0.56946105538E+00  0.72387487655E-02 -0.17267161665E+02  0.17367698157E+02  0.17770000000E+01 0.  1.
         15    1    1    2    0    0  0.37738703732E+01  0.88068619762E+00 -0.50759125705E+01  0.66287497460E+01  0.17770000000E+01 0.  1.
</event>
<event>
 6    1  0.1097339E-002  0.1845774E+03  0.7546771E-02  0.1066813E+00
        -11   -1    0    0    0    0  0.00000000000E+00  0.00000000000E+00  0.18250000000E+03  0.18250000000E+03  0.00000000000E+00 0.  1.
         11   -1    0    0    0    0 -0.00000000000E+00 -0.00000000000E+00 -0.18250000000E+03  0.18250000000E+03  0.00000000000E+00 0.  1.
        -11    1    1    2    0    0 -0.23175635436E+01 -0.79188901813E+00  0.17223948775E+03  0.17225689922E+03  0.00000000000E+00 0.  1.
         11    1    1    2    0    0  0.35822306510E+00 -0.65178838625E+01 -0.18030443704E+03  0.18042256276E+03  0.00000000000E+00 0.  1.
        -15    1    1    2    0    0  0.10109816459E+01  0.68420830408E+01  0.54294978999E+01  0.89706945479E+01  0.17770000000E+01 0.  1.
         15    1    1    2    0    0  0.94835883263E+00  0.46768983979E+00  0.26354513920E+01  0.33498434742E+01  0.17770000000E+01 0.  1.
</event>
<event>
 6    1  0.1097339E-002  0.1833990E+03  0.7546771E-02  0.1067741E+00
        -11   -1    0    0    0    0  0.00000000000E+00  0.00000000000E+00  0.18250000000E+03  0.18250000000E+03  0.00000000000E+00 0. -1.
         11   -1    0    0    0    0 -0.00000000000E+00 -0.00000000000E+00 -0.18250000000E+03  0.18250000000E+03  0.00000000000E+00 0. -1.
        -11    1    1    2    0    0 -0.44672546076E+01 -0.20104396630E+01  0.18153486455E+03  0.18160095065E+03  0.00000000000E+00 0. -1.
         11    1    1    2    0    0 -0.18717627703E+00 -0.24498628180E+01 -0.14961666526E+03  0.14963683834E+03  0.00000000000E+00 0. -1.
        -15    1    1    2    0    0  0.43874989108E+01  0.65732141699E+01 -0.21316753578E+02  0.22803925173E+02  0.17770000000E+01 0.  1.
         15    1    1    2    0    0  0.26693197385E+00 -0.21129116888E+01 -0.10601445706E+02  0.10958285839E+02  0.17770000000E+01 0. -1.
</event>
<event>
 6    1  0.1097339E-002  0.1563634E+03  0.7546771E-02  0.1091401E+00
        -11   -1    0    0    0    0  0.00000000000E+00  0.00000000000E+00  0.18250000000E+03  0.18250000000E+03  0.00000000000E+00 0. -1.
         11   -1    0    0    0    0 -0.00000000000E+00 -0.00000000000E+00 -0.18250000000E+03  0.18250000000E+03  0.00000000000E+00 0. -1.
        -11    1    1    2    0    0 -0.42076248104E+00 -0.28085225393E+01  0.16614604437E+03  0.16617031293E+03  0.00000000000E+00 0. -1.
         11    1    1    2    0    0  0.25926273289E+02  0.90490905068E+01 -0.14575455792E+03  0.14831874069E+03  0.00000000000E+00 0. -1.
        -15    1    1    2    0    0  0.71114894778E+01 -0.99067980759E+01 -0.10409912658E+01  0.12367672478E+02  0.17770000000E+01 0. -1.
         15    1    1    2    0    0 -0.32617000286E+02  0.36662301085E+01 -0.19350495182E+02  0.38143273898E+02  0.17770000000E+01 0.  1.
</event>
<event>
 6    1  0.1097339E-002  0.1010596E+03  0.7546771E-02  0.1161995E+00
        -11   -1    0    0    0    0  0.00000000000E+00  0.00000000000E+00  0.18250000000E+03  0.18250000000E+03  0.00000000000E+00 0.  1.
         11   -1    0    0    0    0 -0.00000000000E+00 -0.00000000000E+00 -0.18250000000E+03  0.18250000000E+03  0.00000000000E+00 0.  1.
        -11    1    1    2    0    0  0.99353896456E+01  0.11243932408E+02  0.71109462700E+02  0.72675261740E+02  0.00000000000E+00 0.  1.
         11    1    1    2    0    0  0.23788052336E+02 -0.35815710787E+02 -0.14560527804E+03  0.15182072838E+03  0.00000000000E+00 0.  1.
        -15    1    1    2    0    0 -0.58830419366E+02 -0.20303443239E+02  0.19617819084E+02  0.65278362454E+02  0.17770000000E+01 0. -1.
         15    1    1    2    0    0  0.25106977384E+02  0.44875221618E+02  0.54877996255E+02  0.75225647425E+02  0.17770000000E+01 0.  1.
</event>
<event>
 6    1  0.1097339E-002  0.1863977E+03  0.7546771E-02  0.1065394E+00
        -11   -1    0    0    0    0  0.00000000000E+00  0.00000000000E+00  0.18250000000E+03  0.18250000000E+03  0.00000000000E+00 0. -1.
         11   -1    0    0    0    0 -0.00000000000E+00 -0.00000000000E+00 -0.18250000000E+03  0.18250000000E+03  0.00000000000E+00 0. -1.
        -11    1    1    2    0    0  0.17134470727E+01 -0.26868439133E+01  0.15652277557E+03  0.15655521168E+03  0.00000000000E+00 0. -1.
         11    1    1    2    0    0  0.28899953967E+01 -0.52354846325E+01 -0.17850216671E+03  0.17860231211E+03  0.00000000000E+00 0. -1.
        -15    1    1    2    0    0  0.10321267472E+00  0.25150786018E+01  0.22239748435E+02  0.22452180577E+02  0.17770000000E+01 0.  1.
         15    1    1    2    0    0 -0.47066551442E+01  0.54072499440E+01 -0.26035729956E+00  0.73902956319E+01  0.17770000000E+01 0. -1.
</event>
<event>
 6    1  0.1097339E-002  0.1836276E+03  0.7546771E-02  0.1067561E+00
        -11   -1    0    0    0    0  0.00000000000E+00  0.00000000000E+00  0.18250000000E+03  0.18250000000E+03  0.00000000000E+00 0. -1.
         11   -1    0    0    0    0 -0.00000000000E+00 -0.00000000000E+00 -0.18250000000E+03  0.18250000000E+03  0.00000000000E+00 0. -1.
        -11    1    1    2    0    0  0.19620248055E+00  0.41646168642E+01  0.18132450295E+03  0.18137242872E+03  0.00000000000E+00 0. -1.
         11    1    1    2    0    0 -0.21945121660E+01 -0.16728222413E+01 -0.16549561471E+03  0.16551861740E+03  0.00000000000E+00 0. -1.
        -15    1    1    2    0    0  0.70658403813E+00 -0.45591203643E+01 -0.57246084456E+01  0.75639745078E+01  0.17770000000E+01 0.  1.
         15    1    1    2    0    0  0.12917256473E+01  0.20673257415E+01 -0.10104279789E+02  0.10544979370E+02  0.17770000000E+01 0. -1.
</event>
<event>
 6    1  0.1097339E-002  0.1861406E+03  0.7546771E-02  0.1065593E+00
        -11   -1    0    0    0    0  0.00000000000E+00  0.00000000000E+00  0.18250000000E+03  0.18250000000E+03  0.00000000000E+00 0. -1.
         11   -1    0    0    0    0 -0.00000000000E+00 -0.00000000000E+00 -0.18250000000E+03  0.18250000000E+03  0.00000000000E+00 0.  1.
        -11    1    1    2    0    0 -0.19319404925E+01  0.78828559958E+00  0.13952176423E+03  0.13953736590E+03  0.00000000000E+00 0. -1.
         11    1    1    2    0    0 -0.24982054593E+01 -0.24419847111E+01 -0.17882529638E+03  0.17885941671E+03  0.00000000000E+00 0.  1.
        -15    1    1    2    0    0  0.17181458111E+01 -0.94504839165E+00  0.41715040215E+02  0.41798892935E+02  0.17770000000E+01 0. -1.
         15    1    1    2    0    0  0.27120001408E+01  0.25987475032E+01 -0.24115080667E+01  0.48043244587E+01  0.17770000000E+01 0. -1.
</event>
<event>
 6    1  0.1097339E-002  0.1828885E+03  0.7546771E-02  0.1068146E+00
        -11   -1    0    0    0    0  0.00000000000E+00  0.00000000000E+00  0.18250000000E+03  0.18250000000E+03  0.00000000000E+00 0. -1.
         11   -1    0    0    0    0 -0.00000000000E+00 -0.00000000000E+00 -0.18250000000E+03  0.18250000000E+03  0.00000000000E+00 0.  1.
        -11    1    1    2    0    0 -0.15538794894E+01  0.22148938815E+01  0.10345696201E+03  0.10349233442E+03  0.00000000000E+00 0. -1.
         11    1    1    2    0    0 -0.52277192294E+01  0.38815645601E+01 -0.18199504918E+03  0.18211148650E+03  0.00000000000E+00 0.  1.
        -15    1    1    2    0    0  0.11774313099E+01 -0.23326079497E+01  0.96252547495E+01  0.10130679263E+02  0.17770000000E+01 0. -1.
         15    1    1    2    0    0  0.56041674088E+01 -0.37638504919E+01  0.68912832421E+02  0.69265499812E+02  0.17770000000E+01 0.  1.
</event>
<event>
 6    1  0.1097339E-002  0.1916705E+03  0.7546771E-02  0.1061381E+00
        -11   -1    0    0    0    0  0.00000000000E+00  0.00000000000E+00  0.18250000000E+03  0.18250000000E+03  0.00000000000E+00 0. -1.
         11   -1    0    0    0    0 -0.00000000000E+00 -0.00000000000E+00 -0.18250000000E+03  0.18250000000E+03  0.00000000000E+00 0.  1.
        -11    1    1    2    0    0  0.23808339374E+01 -0.55741704112E+00  0.17331226590E+03  0.17332951450E+03  0.00000000000E+00 0. -1.
         11    1    1    2    0    0  0.26300660765E+01  0.22577878939E+01 -0.16108004443E+03  0.16111733479E+03  0.00000000000E+00 0.  1.
        -15    1    1    2    0    0  0.88844803618E+01 -0.64716650955E+01  0.33324337703E+00  0.11139354584E+02  0.17770000000E+01 0. -1.
         15    1    1    2    0    0 -0.13895380376E+02  0.47712942427E+01 -0.12565464845E+02  0.19413796133E+02  0.17770000000E+01 0.  1.
</event>
<event>
 6    1  0.1097339E-002  0.1843627E+03  0.7546771E-02  0.1066982E+00
        -11   -1    0    0    0    0  0.00000000000E+00  0.00000000000E+00  0.18250000000E+03  0.18250000000E+03  0.00000000000E+00 0. -1.
         11   -1    0    0    0    0 -0.00000000000E+00 -0.00000000000E+00 -0.18250000000E+03  0.18250000000E+03  0.00000000000E+00 0. -1.
        -11    1    1    2    0    0 -0.35989638132E+01 -0.18378470654E+01  0.14016774763E+03  0.14022598795E+03  0.00000000000E+00 0. -1.
         11    1    1    2    0    0 -0.52184253165E+01  0.96414864716E+01 -0.18030434290E+03  0.18063733361E+03  0.00000000000E+00 0. -1.
        -15    1    1    2    0    0  0.95056464822E+01 -0.85870096626E+01  0.40037009466E+02  0.42073910039E+02  0.17770000000E+01 0. -1.
         15    1    1    2    0    0 -0.68825735245E+00  0.78337025634E+00  0.99585803847E-01  0.20627684005E+01  0.17770000000E+01 0. -1.
</event>
<event>
 6    1  0.1097339E-002  0.1998383E+03  0.7546771E-02  0.1055434E+00
        -11   -1    0    0    0    0  0.00000000000E+00  0.00000000000E+00  0.18250000000E+03  0.18250000000E+03  0.00000000000E+00 0. -1.
         11   -1    0    0    0    0 -0.00000000000E+00 -0.00000000000E+00 -0.18250000000E+03  0.18250000000E+03  0.00000000000E+00 0.  1.
        -11    1    1    2    0    0  0.34476193650E+01  0.31925140733E+01  0.14748300412E+03  0.14755783520E+03  0.00000000000E+00 0. -1.
         11    1    1    2    0    0 -0.41635945669E+01 -0.36079764366E+01 -0.16506978381E+03  0.16516169817E+03  0.00000000000E+00 0.  1.
        -15    1    1    2    0    0 -0.48802856170E+00  0.11616446553E+02 -0.14241564461E+02  0.18470514061E+02  0.17770000000E+01 0.  1.
         15    1    1    2    0    0  0.12040037635E+01 -0.11200984189E+02  0.31828344154E+02  0.33809952565E+02  0.17770000000E+01 0. -1.
</event>
<event>
 6    1  0.1097339E-002  0.1976143E+03  0.7546771E-02  0.1057022E+00
        -11   -1    0    0    0    0  0.00000000000E+00  0.00000000000E+00  0.18250000000E+03  0.18250000000E+03  0.00000000000E+00 0. -1.
         11   -1    0    0    0    0 -0.00000000000E+00 -0.00000000000E+00 -0.18250000000E+03  0.18250000000E+03  0.00000000000E+00 0. -1.
        -11    1    1    2    0    0  0.15596724552E+02 -0.60384374306E+02  0.15533328770E+03  0.16738566470E+03  0.00000000000E+00 0. -1.
         11    1    1    2    0    0 -0.54727914808E+00  0.15841730710E+02 -0.11831525169E+03  0.11937235328E+03  0.00000000000E+00 0. -1.
        -15    1    1    2    0    0 -0.13859985989E+02 -0.45415711006E+01 -0.22748506276E+02  0.27080940650E+02  0.17770000000E+01 0.  1.
         15    1    1    2    0    0 -0.11894594148E+01  0.49084214696E+02 -0.14269529739E+02  0.51161041369E+02  0.17770000000E+01 0. -1.
</event>
<event>
 6    1  0.1097339E-002  0.1834703E+03  0.7546771E-02  0.1067685E+00
        -11   -1    0    0    0    0  0.00000000000E+00  0.00000000000E+00  0.18250000000E+03  0.18250000000E+03  0.00000000000E+00 0.  1.
         11   -1    0    0    0    0 -0.00000000000E+00 -0.00000000000E+00 -0.18250000000E+03  0.18250000000E+03  0.00000000000E+00 0. -1.
        -11    1    1    2    0    0 -0.24277432341E+01  0.13049805667E+01  0.18150879104E+03  0.18152971695E+03  0.00000000000E+00 0.  1.
         11    1    1    2    0    0  0.14085261413E+01 -0.40384705734E+01 -0.14943093454E+03  0.14949213152E+03  0.00000000000E+00 0. -1.
        -15    1    1    2    0    0 -0.20093369915E+01  0.13961605847E+01 -0.19088328572E+01  0.35760413029E+01  0.17770000000E+01 0. -1.
         15    1    1    2    0    0  0.30285540843E+01  0.13373294219E+01 -0.30169023640E+02  0.30402110227E+02  0.17770000000E+01 0.  1.
</event>
<event>
 6    1  0.1097339E-002  0.1858174E+03  0.7546771E-02  0.1065844E+00
        -11   -1    0    0    0    0  0.00000000000E+00  0.00000000000E+00  0.18250000000E+03  0.18250000000E+03  0.00000000000E+00 0.  1.
         11   -1    0    0    0    0 -0.00000000000E+00 -0.00000000000E+00 -0.18250000000E+03  0.18250000000E+03  0.00000000000E+00 0. -1.
        -11    1    1    2    0    0 -0.89531813271E+00 -0.71656206772E+01  0.15229314041E+03  0.15246425263E+03  0.00000000000E+00 0.  1.
         11    1    1    2    0    0 -0.97483672257E+01 -0.20130566966E+01 -0.17890586434E+03  0.17918256432E+03  0.00000000000E+00 0. -1.
        -15    1    1    2    0    0  0.37290520608E+01 -0.31368640008E+01  0.36734824197E+01  0.63559379418E+01  0.17770000000E+01 0. -1.
         15    1    1    2    0    0  0.69146332976E+01  0.12315541375E+02  0.22939241515E+02  0.26997245105E+02  0.17770000000E+01 0.  1.
</event>
<event>
 6    1  0.1097339E-002  0.1850246E+03  0.7546771E-02  0.1066463E+00
        -11   -1    0    0    0    0  0.00000000000E+00  0.00000000000E+00  0.18250000000E+03  0.18250000000E+03  0.00000000000E+00 0. -1.
         11   -1    0    0    0    0 -0.00000000000E+00 -0.00000000000E+00 -0.18250000000E+03  0.18250000000E+03  0.00000000000E+00 0.  1.
        -11    1    1    2    0    0 -0.22507120577E+01 -0.25497858655E+01  0.17994324889E+03  0.17997538702E+03  0.00000000000E+00 0. -1.
         11    1    1    2    0    0  0.19074465688E+01 -0.22659049585E+01 -0.16653558057E+03  0.16656191724E+03  0.00000000000E+00 0.  1.
        -15    1    1    2    0    0 -0.12049094433E+01  0.59778822838E+00 -0.13447410089E+02  0.13630837268E+02  0.17770000000E+01 0.  1.
         15    1    1    2    0    0  0.15481749323E+01  0.42179025957E+01  0.39741773316E-01  0.48318584764E+01  0.17770000000E+01 0.  1.
</event>
<event>
 6    1  0.1097339E-002  0.1837368E+03  0.7546771E-02  0.1067475E+00
        -11   -1    0    0    0    0  0.00000000000E+00  0.00000000000E+00  0.18250000000E+03  0.18250000000E+03  0.00000000000E+00 0. -1.
         11   -1    0    0    0    0 -0.00000000000E+00 -0.00000000000E+00 -0.18250000000E+03  0.18250000000E+03  0.00000000000E+00 0. -1.
        -11    1    1    2    0    0  0.35321102303E+00  0.29834079616E+01  0.18123828122E+03  0.18126317900E+03  0.00000000000E+00 0. -1.
         11    1    1    2    0    0 -0.23836685786E+01 -0.18106784531E+00 -0.17347897566E+03  0.17349544564E+03  0.00000000000E+00 0. -1.
        -15    1    1    2    0    0  0.11950080200E+01  0.37679777534E+00 -0.75321823802E+00  0.23011057006E+01  0.17770000000E+01 0. -1.
         15    1    1    2    0    0  0.83544953555E+00 -0.31791378916E+01 -0.70060873284E+01  0.79402696625E+01  0.17770000000E+01 0.  1.
</event>
<event>
 6    1  0.1097339E-002  0.1830040E+03  0.7546771E-02  0.1068054E+00
        -11   -1    0    0    0    0  0.00000000000E+00  0.00000000000E+00  0.18250000000E+03  0.18250000000E+03  0.00000000000E+00 0. -1.
         11   -1    0    0    0    0 -0.00000000000E+00 -0.00000000000E+00 -0.18250000000E+03  0.18250000000E+03  0.00000000000E+00 0.  1.
        -11    1    1    2    0    0 -0.58378268608E+01  0.29425577687E+01  0.18187856384E+03  0.18199601878E+03  0.00000000000E+00 0. -1.
         11    1    1    2    0    0  0.56294975342E+01 -0.43144475551E+01 -0.11561572758E+03  0.11583307888E+03  0.00000000000E+00 0.  1.
        -15    1    1    2    0    0  0.36543108452E+01 -0.18235983218E+01 -0.14597870042E+02  0.15262209452E+02  0.17770000000E+01 0. -1.
         15    1    1    2    0    0 -0.34459815186E+01  0.31954881083E+01 -0.51664966221E+02  0.51908692880E+02  0.17770000000E+01 0. -1.
</event>
<event>
 6    1  0.1097339E-002  0.1751645E+03  0.7546771E-02  0.1074449E+00
        -11   -1    0    0    0    0  0.00000000000E+00  0.00000000000E+00  0.18250000000E+03  0.18250000000E+03  0.00000000000E+00 0.  1.
         11   -1    0    0    0    0 -0.00000000000E+00 -0.00000000000E+00 -0.18250000000E+03  0.18250000000E+03  0.00000000000E+00 0. -1.
        -11    1    1    2    0    0  0.31785988913E+01 -0.25188735739E+01  0.17474447904E+03  0.17479153632E+03  0.00000000000E+00 0.  1.
         11    1    1    2    0    0 -0.45978325478E+01  0.88504454017E+01 -0.17531459069E+03  0.17559805283E+03  0.00000000000E+00 0. -1.
        -15    1    1    2    0    0  0.69474331858E+01 -0.46683865580E+01  0.20826322598E+00  0.85593085876E+01  0.17770000000E+01 0. -1.
         15    1    1    2    0    0 -0.55281995293E+01 -0.16631852698E+01  0.36184842896E+00  0.60511022602E+01  0.17770000000E+01 0.  1.
</event>
<event>
 6    1  0.1097339E-002  0.1854887E+03  0.7546771E-02  0.1066100E+00
        -11   -1    0    0    0    0  0.00000000000E+00  0.00000000000E+00  0.18250000000E+03  0.18250000000E+03  0.00000000000E+00 0.  1.
         11   -1    0    0    0    0 -0.00000000000E+00 -0.00000000000E+00 -0.18250000000E+03  0.18250000000E+03  0.00000000000E+00 0. -1.
        -11    1    1    2    0    0 -0.23426772745E+00 -0.55588748624E+01  0.17942507880E+03  0.17951132241E+03  0.00000000000E+00 0.  1.
         11    1    1    2    0    0  0.32563682280E+01  0.26494690503E+01 -0.17309464628E+03  0.17314554626E+03  0.00000000000E+00 0. -1.
        -15    1    1    2    0    0 -0.14237028417E+01 -0.21473260830E+01 -0.59672367664E+01  0.67382180667E+01  0.17770000000E+01 0.  1.
         15    1    1    2    0    0 -0.15983976588E+01  0.50567318951E+01 -0.36319574936E+00  0.56049132631E+01  0.17770000000E+01 0. -1.
</event>
<event>
 6    1  0.1097339E-002  0.1833282E+03  0.7546771E-02  0.1067797E+00
        -11   -1    0    0    0    0  0.00000000000E+00  0.00000000000E+00  0.18250000000E+03  0.18250000000E+03  0.00000000000E+00 0.  1.
         11   -1    0    0    0    0 -0.00000000000E+00 -0.00000000000E+00 -0.18250000000E+03  0.18250000000E+03  0.00000000000E+00 0. -1.
        -11    1    1    2    0    0 -0.21870379412E+00 -0.16525113514E+01  0.12360301780E+03  0.12361425741E+03  0.00000000000E+00 0.  1.
         11    1    1    2    0    0  0.11649940499E+01  0.52707812674E+01 -0.18159155486E+03  0.18167176760E+03  0.00000000000E+00 0. -1.
        -15    1    1    2    0    0  0.53368283453E+01  0.46071473631E+00  0.35458147173E+02  0.35904483352E+02  0.17770000000E+01 0. -1.
         15    1    1    2    0    0 -0.62831186010E+01 -0.40789846523E+01  0.22530389884E+02  0.23809491647E+02  0.17770000000E+01 0.  1.
</event>
<event>
 6    1  0.1097339E-002  0.1926741E+03  0.7546771E-02  0.1060633E+00
        -11   -1    0    0    0    0  0.00000000000E+00  0.00000000000E+00  0.18250000000E+03  0.18250000000E+03  0.00000000000E+00 0. -1.
         11   -1    0    0    0    0 -0.00000000000E+00 -0.00000000000E+00 -0.18250000000E+03  0.18250000000E+03  0.00000000000E+00 0.  1.
        -11    1    1    2    0    0  0.25684156121E+01 -0.59616461531E+01  0.14641400223E+03  0.14655783170E+03  0.00000000000E+00 0. -1.
         11    1    1    2    0    0  0.30278306342E+01  0.83307553169E+00 -0.17229724060E+03  0.17232585671E+03  0.00000000000E+00 0.  1.
        -15    1    1    2    0    0  0.18725781273E+01 -0.47216137786E+01  0.31831681628E+02  0.32283337340E+02  0.17770000000E+01 0. -1.
         15    1    1    2    0    0 -0.74688243736E+01  0.98501844000E+01 -0.59484432671E+01  0.13832974248E+02  0.17770000000E+01 0.  1.
</event>
<event>
 6    1  0.1097339E-002  0.1760683E+03  0.7546771E-02  0.1073693E+00
        -11   -1    0    0    0    0  0.00000000000E+00  0.00000000000E+00  0.18250000000E+03  0.18250000000E+03  0.00000000000E+00 0.  1.
         11   -1    0    0    0    0 -0.00000000000E+00 -0.00000000000E+00 -0.18250000000E+03  0.18250000000E+03  0.00000000000E+00 0.  1.
        -11    1    1    2    0    0  0.23655531020E+01  0.19255078539E+01  0.17657744069E+03  0.17660378247E+03  0.00000000000E+00 0.  1.
         11    1    1    2    0    0  0.27259177450E+01 -0.94117848543E-02 -0.17555514718E+03  0.17557630938E+03  0.00000000000E+00 0.  1.
        -15    1    1    2    0    0 -0.54311234041E+01 -0.81174943363E-01 -0.53206213024E+01  0.78083564754E+01  0.17770000000E+01 0. -1.
         15    1    1    2    0    0  0.33965255708E+00 -0.18349211257E+01  0.42983277847E+01  0.50115516701E+01  0.17770000000E+01 0.  1.
</event>
<event>
 6    1  0.1097339E-002  0.1825558E+03  0.7546771E-02  0.1068410E+00
        -11   -1    0    0    0    0  0.00000000000E+00  0.00000000000E+00  0.18250000000E+03  0.18250000000E+03  0.00000000000E+00 0.  1.
         11   -1    0    0    0    0 -0.00000000000E+00 -0.00000000000E+00 -0.18250000000E+03  0.18250000000E+03  0.00000000000E+00 0.  1.
        -11    1    1    2    0    0  0.20327891221E+00  0.68919622215E+00  0.42746803966E+02  0.42752842748E+02  0.00000000000E+00 0.  1.
         11    1    1    2    0    0 -0.99987843118E-01  0.25927143590E+01 -0.18242573390E+03  0.18244418476E+03  0.00000000000E+00 0.  1.
        -15    1    1    2    0    0 -0.10512916510E+01 -0.10055378777E+01  0.32540612637E+02  0.32621549938E+02  0.17770000000E+01 0. -1.
         15    1    1    2    0    0  0.94800058193E+00 -0.22763727035E+01  0.10713831730E+03  0.10718142255E+03  0.17770000000E+01 0.  1.
</event>
<event>
 6    1  0.1097339E-002  0.1829341E+03  0.7546771E-02  0.1068110E+00
        -11   -1    0    0    0    0  0.00000000000E+00  0.00000000000E+00  0.18250000000E+03  0.18250000000E+03  0.00000000000E+00 0.  1.
         11   -1    0    0    0    0 -0.00000000000E+00 -0.00000000000E+00 -0.18250000000E+03  0.18250000000E+03  0.00000000000E+00 0. -1.
        -11    1    1    2    0    0 -0.16084460622E+01 -0.34023583067E+01  0.15887279289E+03  0.15891736048E+03  0.00000000000E+00 0.  1.
         11    1    1    2    0    0  0.21972987436E+01  0.53258305680E+01 -0.18197473836E+03  0.18206591662E+03  0.00000000000E+00 0. -1.
        -15    1    1    2    0    0 -0.22388153672E+01 -0.16634602373E+01  0.18646271683E+02  0.18937279923E+02  0.17770000000E+01 0. -1.
         15    1    1    2    0    0  0.16499626858E+01 -0.26001202392E+00  0.44556737851E+01  0.50794429809E+01  0.17770000000E+01 0.  1.
</event>
<event>
 6    1  0.1097339E-002  0.1825982E+03  0.7546771E-02  0.1068377E+00
        -11   -1    0    0    0    0  0.00000000000E+00  0.00000000000E+00  0.18250000000E+03  0.18250000000E+03  0.00000000000E+00 0. -1.
         11   -1    0    0    0    0 -0.00000000000E+00 -0.00000000000E+00 -0.18250000000E+03  0.18250000000E+03  0.00000000000E+00 0.  1.
        -11    1    1    2    0    0  0.15220678595E+01  0.10662499438E+01  0.81972596258E+02  0.81993659003E+02  0.00000000000E+00 0. -1.
         11    1    1    2    0    0 -0.28571317002E+00  0.29955552163E+01 -0.18237699963E+03  0.18240182285E+03  0.00000000000E+00 0.  1.
        -15    1    1    2    0    0 -0.10478551617E+01 -0.27420688516E+00  0.26528079247E+02  0.26609583000E+02  0.17770000000E+01 0.  1.
         15    1    1    2    0    0 -0.18849952776E+00 -0.37875982750E+01  0.73876324126E+02  0.73994935151E+02  0.17770000000E+01 0. -1.
</event>
<event>
 6    1  0.1097339E-002  0.1895591E+03  0.7546771E-02  0.1062971E+00
        -11   -1    0    0    0    0  0.00000000000E+00  0.00000000000E+00  0.18250000000E+03  0.18250000000E+03  0.00000000000E+00 0.  1.
         11   -1    0    0    0    0 -0.00000000000E+00 -0.00000000000E+00 -0.18250000000E+03  0.18250000000E+03  0.00000000000E+00 0.  1.
        -11    1    1    2    0    0 -0.12765765096E+02 -0.64764857069E+01  0.10049360502E+03  0.10150800104E+03  0.00000000000E+00 0.  1.
         11    1    1    2    0    0 -0.80073283796E+01 -0.38444993138E+01 -0.17521593596E+03  0.17544093506E+03  0.00000000000E+00 0.  1.
        -15    1    1    2    0    0  0.11281637995E+02  0.22868485163E+02  0.64035531081E+02  0.68948893677E+02  0.17770000000E+01 0.  1.
         15    1    1    2    0    0  0.94914554801E+01 -0.12547500142E+02  0.10686799858E+02  0.19102170221E+02  0.17770000000E+01 0. -1.
</event>
<event>
 6    1  0.1097339E-002  0.1898527E+03  0.7546771E-02  0.1062748E+00
        -11   -1    0    0    0    0  0.00000000000E+00  0.00000000000E+00  0.18250000000E+03  0.18250000000E+03  0.00000000000E+00 0. -1.
         11   -1    0    0    0    0 -0.00000000000E+00 -0.00000000000E+00 -0.18250000000E+03  0.18250000000E+03  0.00000000000E+00 0.  1.
        -11    1    1    2    0    0 -0.87384354953E+01 -0.14922016347E+01  0.15845124259E+03  0.15869903339E+03  0.00000000000E+00 0. -1.
         11    1    1    2    0    0  0.22699518800E+01 -0.34095472674E+01 -0.17509935120E+03  0.17514725372E+03  0.00000000000E+00 0.  1.
        -15    1    1    2    0    0  0.10954108432E+02  0.54513680461E+01  0.21171485966E+02  0.24517329629E+02  0.17770000000E+01 0.  1.
         15    1    1    2    0    0 -0.44856248168E+01 -0.54961914409E+00 -0.45233773533E+01  0.66363832681E+01  0.17770000000E+01 0. -1.
</event>
<event>
 6    1  0.1097339E-002  0.1881228E+03  0.7546771E-02  0.1064065E+00
        -11   -1    0    0    0    0  0.00000000000E+00  0.00000000000E+00  0.18250000000E+03  0.18250000000E+03  0.00000000000E+00 0. -1.
         11   -1    0    0    0    0 -0.00000000000E+00 -0.00000000000E+00 -0.18250000000E+03  0.18250000000E+03  0.00000000000E+00 0. -1.
        -11    1    1    2    0    0 -0.10993760871E+02  0.86179602108E+01  0.17632475231E+03  0.17687721813E+03  0.00000000000E+00 0. -1.
         11    1    1    2    0    0  0.11612644334E+01 -0.45677232112E+01 -0.11012592780E+03  0.11022673271E+03  0.00000000000E+00 0. -1.
        -15    1    1    2    0    0  0.18267684639E+02  0.85689327099E+01 -0.17212653609E+02  0.26581348407E+02  0.17770000000E+01 0.  1.
         15    1    1    2    0    0 -0.84351882014E+01 -0.12619169710E+02 -0.48986170900E+02  0.51314700746E+02  0.17770000000E+01 0. -1.
</event>
<event>
 6    1  0.1097339E-002  0.1827572E+03  0.7546771E-02  0.1068250E+00
        -11   -1    0    0    0    0  0.00000000000E+00  0.00000000000E+00  0.18250000000E+03  0.18250000000E+03  0.00000000000E+00 0.  1.
         11   -1    0    0    0    0 -0.00000000000E+00 -0.00000000000E+00 -0.18250000000E+03  0.18250000000E+03  0.00000000000E+00 0.  1.
        -11    1    1    2    0    0 -0.11128866963E+01 -0.12064633000E+01  0.11320824609E+03  0.11322014421E+03  0.00000000000E+00 0.  1.
         11    1    1    2    0    0 -0.12291790837E-01  0.54599440505E+01 -0.18216097676E+03  0.18224278475E+03  0.00000000000E+00 0.  1.
        -15    1    1    2    0    0  0.18867054583E+01  0.14457730365E+01  0.21268851055E+02  0.21474907947E+02  0.17770000000E+01 0.  1.
         15    1    1    2    0    0 -0.76152697115E+00 -0.56992537870E+01  0.47683879613E+02  0.48062163091E+02  0.17770000000E+01 0. -1.
</event>
<event>
 6    1  0.1097339E-002  0.1848799E+03  0.7546771E-02  0.1066576E+00
        -11   -1    0    0    0    0  0.00000000000E+00  0.00000000000E+00  0.18250000000E+03  0.18250000000E+03  0.00000000000E+00 0. -1.
         11   -1    0    0    0    0 -0.00000000000E+00 -0.00000000000E+00 -0.18250000000E+03  0.18250000000E+03  0.00000000000E+00 0.  1.
        -11    1    1    2    0    0  0.13412913635E+01  0.34723542954E+01  0.18008159921E+03  0.18012006740E+03  0.00000000000E+00 0. -1.
         11    1    1    2    0    0  0.15255626475E+01 -0.24106431402E+01 -0.17435938215E+03  0.17438271900E+03  0.00000000000E+00 0.  1.
        -15    1    1    2    0    0 -0.42952280311E+00 -0.28896240823E+01  0.38881727627E+00  0.34414132344E+01  0.17770000000E+01 0. -1.
         15    1    1    2    0    0 -0.24373312079E+01  0.18279129271E+01 -0.61110343417E+01  0.70558003665E+01  0.17770000000E+01 0. -1.
</event>
<event>
 6    1  0.1097339E-002  0.1825974E+03  0.7546771E-02  0.1068377E+00
        -11   -1    0    0    0    0  0.00000000000E+00  0.00000000000E+00  0.18250000000E+03  0.18250000000E+03  0.00000000000E+00 0.  1.
         11   -1    0    0    0    0 -0.00000000000E+00 -0.00000000000E+00 -0.18250000000E+03  0.18250000000E+03  0.00000000000E+00 0. -1.
        -11    1    1    2    0    0 -0.16984872870E+01  0.81492124475E+00  0.91230680728E+02  0.91250129105E+02  0.00000000000E+00 0.  1.
         11    1    1    2    0    0  0.28657569853E+01  0.11287152847E+01 -0.18237657340E+03  0.18240257972E+03  0.00000000000E+00 0. -1.
        -15    1    1    2    0    0  0.77508604330E+00  0.92822637075E+00  0.35769221987E+02  0.35833745731E+02  0.17770000000E+01 0.  1.
         15    1    1    2    0    0 -0.19423557416E+01 -0.28718629002E+01  0.55376670689E+02  0.55513545445E+02  0.17770000000E+01 0. -1.
</event>
<event>
 6    1  0.1097339E-002  0.1836555E+03  0.7546771E-02  0.1067539E+00
        -11   -1    0    0    0    0  0.00000000000E+00  0.00000000000E+00  0.18250000000E+03  0.18250000000E+03  0.00000000000E+00 0.  1.
         11   -1    0    0    0    0 -0.00000000000E+00 -0.00000000000E+00 -0.18250000000E+03  0.18250000000E+03  0.00000000000E+00 0.  1.
        -11    1    1    2    0    0  0.52415962974E+01 -0.16648132722E+01  0.18126108286E+03  0.18134449563E+03  0.00000000000E+00 0.  1.
         11    1    1    2    0    0  0.14967481790E+01  0.25121480530E+01 -0.12895310008E+03  0.12898625184E+03  0.00000000000E+00 0.  1.
        -15    1    1    2    0    0 -0.62031675868E+01  0.86508782530E+00 -0.81131444048E+01  0.10402331767E+02  0.17770000000E+01 0.  1.
         15    1    1    2    0    0 -0.53517688968E+00 -0.17124226061E+01 -0.44194838381E+02  0.44266920765E+02  0.17770000000E+01 0. -1.
</event>
<event>
 6    1  0.1097339E-002  0.1839919E+03  0.7546771E-02  0.1067273E+00
        -11   -1    0    0    0    0  0.00000000000E+00  0.00000000000E+00  0.18250000000E+03  0.18250000000E+03  0.00000000000E+00 0. -1.
         11   -1    0    0    0    0 -0.00000000000E+00 -0.00000000000E+00 -0.18250000000E+03  0.18250000000E+03  0.00000000000E+00 0. -1.
        -11    1    1    2    0    0  0.55952589014E+01  0.13945390437E+01  0.15130670243E+03  0.15141654421E+03  0.00000000000E+00 0. -1.
         11    1    1    2    0    0  0.22785818834E+01  0.14436532904E+01 -0.18098798903E+03  0.18100808888E+03  0.00000000000E+00 0. -1.
        -15    1    1    2    0    0 -0.51808726202E+01  0.28898153311E+01  0.94119369292E+01  0.11266532719E+02  0.17770000000E+01 0.  1.
         15    1    1    2    0    0 -0.26929681646E+01 -0.57280076652E+01  0.20269349668E+02  0.21308834184E+02  0.17770000000E+01 0. -1.
</event>
<event>
 6    1  0.1097339E-002  0.1840225E+03  0.7546771E-02  0.1067249E+00
        -11   -1    0    0    0    0  0.00000000000E+00  0.00000000000E+00  0.18250000000E+03  0.18250000000E+03  0.00000000000E+00 0. -1.
         11   -1    0    0    0    0 -0.00000000000E+00 -0.00000000000E+00 -0.18250000000E+03  0.18250000000E+03  0.00000000000E+00 0.  1.
        -11    1    1    2    0    0 -0.26901846836E+01 -0.20872611452E+00  0.18095734831E+03  0.18097746425E+03  0.00000000000E+00 0. -1.
         11    1    1    2    0    0 -0.34054952251E+01 -0.42635054721E+00 -0.16993498574E+03  0.16996964009E+03  0.00000000000E+00 0.  1.
        -15    1    1    2    0    0  0.52334283472E+01  0.66632092700E+00 -0.42655122310E+01  0.70132074998E+01  0.17770000000E+01 0. -1.
         15    1    1    2    0    0  0.86225156159E+00 -0.31244265275E-01 -0.67568503373E+01  0.70396881635E+01  0.17770000000E+01 0.  1.
</event>
<event>
 6    1  0.1097339E-002  0.1882525E+03  0.7546771E-02  0.1063966E+00
        -11   -1    0    0    0    0  0.00000000000E+00  0.00000000000E+00  0.18250000000E+03  0.18250000000E+03  0.00000000000E+00 0.  1.
         11   -1    0    0    0    0 -0.00000000000E+00 -0.00000000000E+00 -0.18250000000E+03  0.18250000000E+03  0.00000000000E+00 0. -1.
        -11    1    1    2    0    0  0.19338159769E+00 -0.15102268219E+02  0.13856058607E+03  0.13938131838E+03  0.00000000000E+00 0.  1.
         11    1    1    2    0    0 -0.59796462539E+01  0.17942073543E+01 -0.17663725382E+03  0.17674754535E+03  0.00000000000E+00 0. -1.
        -15    1    1    2    0    0  0.15624253975E+02  0.12690710957E+02  0.29054744855E+02  0.35390781066E+02  0.17770000000E+01 0. -1.
         15    1    1    2    0    0 -0.98379893191E+01  0.61734990733E+00  0.90219228981E+01  0.13480355208E+02  0.17770000000E+01 0.  1.
</event>
<event>
 6    1  0.1097339E-002  0.1876667E+03  0.7546771E-02  0.1064415E+00
        -11   -1    0    0    0    0  0.00000000000E+00  0.00000000000E+00  0.18250000000E+03  0.18250000000E+03  0.00000000000E+00 0. -1.
         11   -1    0    0    0    0 -0.00000000000E+00 -0.00000000000E+00 -0.18250000000E+03  0.18250000000E+03  0.00000000000E+00 0.  1.
        -11    1    1    2    0    0  0.36163281067E+01 -0.15952179515E+01  0.17728929586E+03  0.17733334987E+03  0.00000000000E+00 0. -1.
         11    1    1    2    0    0  0.27283044762E+00 -0.26637146715E+01 -0.16473224993E+03  0.16475401051E+03  0.00000000000E+00 0.  1.
        -15    1    1    2    0    0  0.23526504938E+01  0.26171353737E+01 -0.15209418978E+02  0.15712050043E+02  0.17770000000E+01 0. -1.
         15    1    1    2    0    0 -0.62418090481E+01  0.16417972493E+01  0.26523730548E+01  0.72005895747E+01  0.17770000000E+01 0.  1.
</event>
<event>
 6    1  0.1097339E-002  0.1842808E+03  0.7546771E-02  0.1067046E+00
        -11   -1    0    0    0    0  0.00000000000E+00  0.00000000000E+00  0.18250000000E+03  0.18250000000E+03  0.00000000000E+00 0.  1.
         11   -1    0    0    0    0 -0.00000000000E+00 -0.00000000000E+00 -0.18250000000E+03  0.18250000000E+03  0.00000000000E+00 0. -1.
        -11    1    1    2    0    0  0.26481371973E+01 -0.50634250433E+00  0.15680533812E+03  0.15682851487E+03  0.00000000000E+00 0.  1.
         11    1    1    2    0    0  0.19469039727E+01 -0.68348922408E+01 -0.18057936989E+03  0.18071916063E+03  0.00000000000E+00 0. -1.
        -15    1    1    2    0    0 -0.26008860739E+01  0.55069427467E+01  0.41920631765E+01  0.76040876811E+01  0.17770000000E+01 0.  1.
         15    1    1    2    0    0 -0.19941550961E+01  0.18342919984E+01  0.19581968594E+02  0.19848236816E+02  0.17770000000E+01 0.  1.
</event>
<event>
 6    1  0.1097339E-002  0.1877435E+03  0.7546771E-02  0.1064356E+00
        -11   -1    0    0    0    0  0.00000000000E+00  0.00000000000E+00  0.18250000000E+03  0.18250000000E+03  0.00000000000E+00 0. -1.
         11   -1    0    0    0    0 -0.00000000000E+00 -0.00000000000E+00 -0.18250000000E+03  0.18250000000E+03  0.00000000000E+00 0. -1.
        -11    1    1    2    0    0  0.21971692338E+00 -0.13211934657E+01  0.42907448422E+02  0.42928346786E+02  0.00000000000E+00 0. -1.
         11    1    1    2    0    0 -0.12488293850E+02  0.48471286926E+01 -0.17674962469E+03  0.17725654281E+03  0.00000000000E+00 0. -1.
        -15    1    1    2    0    0  0.20917595878E+01 -0.24079633866E+01  0.13436143163E+03  0.13441103297E+03  0.17770000000E+01 0. -1.
         15    1    1    2    0    0  0.10176817339E+02 -0.11179718402E+01 -0.51925535754E+00  0.10404077437E+02  0.17770000000E+01 0. -1.
</event>
<event>
 6    1  0.1097339E-002  0.1854469E+03  0.7546771E-02  0.1066133E+00
        -11   -1    0    0    0    0  0.00000000000E+00  0.00000000000E+00  0.18250000000E+03  0.18250000000E+03  0.00000000000E+00 0. -1.
         11   -1    0    0    0    0 -0.00000000000E+00 -0.00000000000E+00 -0.18250000000E+03  0.18250000000E+03  0.00000000000E+00 0. -1.
        -11    1    1    2    0    0  0.53724139732E+01  0.15143402810E+01  0.15757571061E+03  0.15767454022E+03  0.00000000000E+00 0. -1.
         11    1    1    2    0    0  0.69223420922E+01  0.29414835377E-01 -0.17941965171E+03  0.17955314284E+03  0.00000000000E+00 0. -1.
        -15    1    1    2    0    0 -0.77984638715E+01 -0.24452369117E+01  0.40151150931E+01  0.92776128676E+01  0.17770000000E+01 0.  1.
         15    1    1    2    0    0 -0.44962921939E+01  0.90148179531E+00  0.17828826003E+02  0.18494704068E+02  0.17770000000E+01 0. -1.
</event>
<event>
 6    1  0.1097339E-002  0.1856106E+03  0.7546771E-02  0.1066005E+00
        -11   -1    0    0    0    0  0.00000000000E+00  0.00000000000E+00  0.18250000000E+03  0.18250000000E+03  0.00000000000E+00 0. -1.
         11   -1    0    0    0    0 -0.00000000000E+00 -0.00000000000E+00 -0.18250000000E+03  0.18250000000E+03  0.00000000000E+00 0.  1.
        -11    1    1    2    0    0 -0.39532956205E+01  0.66009904580E+00  0.17934461228E+03  0.17938939275E+03  0.00000000000E+00 0. -1.
         11    1    1    2    0    0 -0.39047682153E+00  0.68135563273E+01 -0.15966016060E+03  0.15980595704E+03  0.00000000000E+00 0.  1.
        -15    1    1    2    0    0  0.46811998830E+01 -0.42265009673E+01 -0.20892824869E+02  0.21896228050E+02  0.17770000000E+01 0.  1.
         15    1    1    2    0    0 -0.33742744088E+00 -0.32471544058E+01  0.12083731962E+01  0.39084221617E+01  0.17770000000E+01 0. -1.
</event>
<event>
 6    1  0.1097339E-002  0.1827629E+03  0.7546771E-02  0.1068246E+00
        -11   -1    0    0    0    0  0.00000000000E+00  0.00000000000E+00  0.18250000000E+03  0.18250000000E+03  0.00000000000E+00 0. -1.
         11   -1    0    0    0    0 -0.00000000000E+00 -0.00000000000E+00 -0.18250000000E+03  0.18250000000E+03  0.00000000000E+00 0. -1.
        -11    1    1    2    0    0  0.28251573313E+01 -0.20717355296E+00  0.12560610185E+03  0.12563804064E+03  0.00000000000E+00 0. -1.
         11    1    1    2    0    0  0.20770238704E+01 -0.16382726550E+01 -0.18221791183E+03  0.18223711301E+03  0.00000000000E+00 0. -1.
        -15    1    1    2    0    0 -0.47391883059E+01  0.89138894323E+00  0.48194036670E+02  0.48467281537E+02  0.17770000000E+01 0. -1.
         15    1    1    2    0    0 -0.16299289580E+00  0.95405726473E+00  0.84177733115E+01  0.86575648119E+01  0.17770000000E+01 0.  1.
</event>
<event>
 6    1  0.1097339E-002  0.1827133E+03  0.7546771E-02  0.1068285E+00
        -11   -1    0    0    0    0  0.00000000000E+00  0.00000000000E+00  0.18250000000E+03  0.18250000000E+03  0.00000000000E+00 0.  1.
         11   -1    0    0    0    0 -0.00000000000E+00 -0.00000000000E+00 -0.18250000000E+03  0.18250000000E+03  0.00000000000E+00 0.  1.
        -11    1    1    2    0    0  0.31131765078E+01  0.21346640363E+01  0.71986467791E+02  0.72085367472E+02  0.00000000000E+00 0.  1.
         11    1    1    2    0    0  0.88265243361E+00 -0.43527243371E+01 -0.18223259242E+03  0.18228670556E+03  0.00000000000E+00 0.  1.
        -15    1    1    2    0    0 -0.47917607355E+01 -0.31186719227E+00  0.88581011334E+02  0.88728865259E+02  0.17770000000E+01 0. -1.
         15    1    1    2    0    0  0.79593179409E+00  0.25299274930E+01  0.21665113295E+02  0.21899061707E+02  0.17770000000E+01 0.  1.
</event>
<event>
 6    1  0.1097339E-002  0.1986018E+03  0.7546771E-02  0.1056314E+00
        -11   -1    0    0    0    0  0.00000000000E+00  0.00000000000E+00  0.18250000000E+03  0.18250000000E+03  0.00000000000E+00 0.  1.
         11   -1    0    0    0    0 -0.00000000000E+00 -0.00000000000E+00 -0.18250000000E+03  0.18250000000E+03  0.00000000000E+00 0.  1.
        -11    1    1    2    0    0 -0.31082685384E+01 -0.74177901334E+01  0.16620369490E+03  0.16639817650E+03  0.00000000000E+00 0.  1.
         11    1    1    2    0    0 -0.65942863569E+01 -0.21494020131E+02 -0.90214142485E+02  0.92973485566E+02  0.00000000000E+00 0.  1.
        -15    1    1    2    0    0 -0.20533446763E+01  0.31437594966E+02 -0.84888902813E+02  0.90563911970E+02  0.17770000000E+01 0.  1.
         15    1    1    2    0    0  0.11755899572E+02 -0.25257847022E+01  0.88993503949E+01  0.15064425961E+02  0.17770000000E+01 0. -1.
</event>
<event>
 6    1  0.1097339E-002  0.1834236E+03  0.7546771E-02  0.1067722E+00
        -11   -1    0    0    0    0  0.00000000000E+00  0.00000000000E+00  0.18250000000E+03  0.18250000000E+03  0.00000000000E+00 0.  1.
         11   -1    0    0    0    0 -0.00000000000E+00 -0.00000000000E+00 -0.18250000000E+03  0.18250000000E+03  0.00000000000E+00 0. -1.
        -11    1    1    2    0    0  0.32673404086E+01  0.34145186878E+01  0.18151492349E+03  0.18157643542E+03  0.00000000000E+00 0.  1.
         11    1    1    2    0    0  0.10508357251E+01 -0.51385784903E+01 -0.16684397654E+03  0.16692639621E+03  0.00000000000E+00 0. -1.
        -15    1    1    2    0    0 -0.89530070123E-01 -0.49967674777E+00 -0.73338711046E+01  0.75631400136E+01  0.17770000000E+01 0. -1.
         15    1    1    2    0    0 -0.42286460636E+01  0.22237365502E+01 -0.73370758427E+01  0.89340283578E+01  0.17770000000E+01 0.  1.
</event>
<event>
 6    1  0.1097339E-002  0.1828045E+03  0.7546771E-02  0.1068213E+00
        -11   -1    0    0    0    0  0.00000000000E+00  0.00000000000E+00  0.18250000000E+03  0.18250000000E+03  0.00000000000E+00 0. -1.
         11   -1    0    0    0    0 -0.00000000000E+00 -0.00000000000E+00 -0.18250000000E+03  0.18250000000E+03  0.00000000000E+00 0.  1.
        -11    1    1    2    0    0 -0.23620958668E+01 -0.14053932049E+01  0.18217475569E+03  0.18219548907E+03  0.00000000000E+00 0. -1.
         11    1    1    2    0    0  0.21939981231E+01  0.30308019543E+01 -0.15496299989E+03  0.15500816341E+03  0.00000000000E+00 0.  1.
        -15    1    1    2    0    0  0.40882680044E+00  0.80686205389E+00 -0.50480647528E+01  0.54276009871E+01  0.17770000000E+01 0. -1.
         15    1    1    2    0    0 -0.24072905678E+00 -0.24322708033E+01 -0.22163691049E+02  0.22368746538E+02  0.17770000000E+01 0.  1.
</event>
<event>
 6    1  0.1097339E-002  0.1835060E+03  0.7546771E-02  0.1067657E+00
        -11   -1    0    0    0    0  0.00000000000E+00  0.00000000000E+00  0.18250000000E+03  0.18250000000E+03  0.00000000000E+00 0. -1.
         11   -1    0    0    0    0 -0.00000000000E+00 -0.00000000000E+00 -0.18250000000E+03  0.18250000000E+03  0.00000000000E+00 0. -1.
        -11    1    1    2    0    0  0.17830169875E+01 -0.18474656364E+01  0.18147584313E+03  0.18149400519E+03  0.00000000000E+00 0. -1.
         11    1    1    2    0    0  0.54183368000E+00  0.35757140632E+01 -0.13269761552E+03  0.13274688878E+03  0.00000000000E+00 0. -1.
        -15    1    1    2    0    0  0.91407840762E+00 -0.31342512014E+01 -0.45421306430E+02  0.45573148638E+02  0.17770000000E+01 0. -1.
         15    1    1    2    0    0 -0.32389290751E+01  0.14060027746E+01 -0.33569211775E+01  0.51859573993E+01  0.17770000000E+01 0. -1.
</event>
<event>
 6    1  0.1097339E-002  0.1830211E+03  0.7546771E-02  0.1068041E+00
        -11   -1    0    0    0    0  0.00000000000E+00  0.00000000000E+00  0.18250000000E+03  0.18250000000E+03  0.00000000000E+00 0.  1.
         11   -1    0    0    0    0 -0.00000000000E+00 -0.00000000000E+00 -0.18250000000E+03  0.18250000000E+03  0.00000000000E+00 0. -1.
        -11    1    1    2    0    0 -0.84794031108E+00 -0.50790902254E+01  0.18190599932E+03  0.18197886896E+03  0.00000000000E+00 0.  1.
         11    1    1    2    0    0 -0.13114063110E+01 -0.17894354746E+01 -0.12865634899E+03  0.12867547552E+03  0.00000000000E+00 0. -1.
        -15    1    1    2    0    0 -0.68489245370E-02  0.31098205718E+01 -0.42078744664E+02  0.42230907075E+02  0.17770000000E+01 0. -1.
         15    1    1    2    0    0  0.21661955467E+01  0.37587051282E+01 -0.11170905667E+02  0.12114748442E+02  0.17770000000E+01 0.  1.
</event>
<event>
 6    1  0.1097339E-002  0.1826035E+03  0.7546771E-02  0.1068372E+00
        -11   -1    0    0    0    0  0.00000000000E+00  0.00000000000E+00  0.18250000000E+03  0.18250000000E+03  0.00000000000E+00 0.  1.
         11   -1    0    0    0    0 -0.00000000000E+00 -0.00000000000E+00 -0.18250000000E+03  0.18250000000E+03  0.00000000000E+00 0.  1.
        -11    1    1    2    0    0  0.24104467439E+00  0.19965239388E+01  0.37003668548E+02  0.37058274331E+02  0.00000000000E+00 0.  1.
         11    1    1    2    0    0 -0.32767515057E+01  0.18973752777E+01 -0.18235722276E+03  0.18239652909E+03  0.00000000000E+00 0.  1.
        -15    1    1    2    0    0  0.21411215087E+01 -0.45522469556E+01  0.11045999514E+03  0.11058876801E+03  0.17770000000E+01 0.  1.
         15    1    1    2    0    0  0.89458532256E+00  0.65834773912E+00  0.34893559071E+02  0.34956428569E+02  0.17770000000E+01 0. -1.
</event>
<event>
 6    1  0.1097339E-002  0.1842945E+03  0.7546771E-02  0.1067035E+00
        -11   -1    0    0    0    0  0.00000000000E+00  0.00000000000E+00  0.18250000000E+03  0.18250000000E+03  0.00000000000E+00 0.  1.
         11   -1    0    0    0    0 -0.00000000000E+00 -0.00000000000E+00 -0.18250000000E+03  0.18250000000E+03  0.00000000000E+00 0.  1.
        -11    1    1    2    0    0  0.76703182839E+00  0.36158613480E+01  0.17198229087E+03  0.17202200779E+03  0.00000000000E+00 0.  1.
         11    1    1    2    0    0  0.10122344908E+01  0.27967924694E+01 -0.18068104159E+03  0.18070552138E+03  0.00000000000E+00 0.  1.
        -15    1    1    2    0    0  0.13060499034E+01 -0.22396882582E+01  0.36546507788E+01  0.48203911832E+01  0.17770000000E+01 0. -1.
         15    1    1    2    0    0 -0.30853162226E+01 -0.41729655591E+01  0.50440999472E+01  0.74520796445E+01  0.17770000000E+01 0. -1.
</event>
<event>
 6    1  0.1097339E-002  0.1877683E+03  0.7546771E-02  0.1064337E+00
        -11   -1    0    0    0    0  0.00000000000E+00  0.00000000000E+00  0.18250000000E+03  0.18250000000E+03  0.00000000000E+00 0. -1.
         11   -1    0    0    0    0 -0.00000000000E+00 -0.00000000000E+00 -0.18250000000E+03  0.18250000000E+03  0.00000000000E+00 0.  1.
        -11    1    1    2    0    0  0.15523686085E+01 -0.19937470111E+01  0.17721369210E+03  0.17723170581E+03  0.00000000000E+00 0. -1.
         11    1    1    2    0    0 -0.14074925334E+01 -0.16071995975E+02 -0.89487999653E+02  0.90930699830E+02  0.00000000000E+00 0.  1.
        -15    1    1    2    0    0 -0.98722131697E+01 -0.16074623973E+00 -0.43721365936E+01  0.10943479319E+02  0.17770000000E+01 0. -1.
         15    1    1    2    0    0  0.97273370946E+01  0.18226489225E+02 -0.83353555854E+02  0.85894115043E+02  0.17770000000E+01 0.  1.
</event>
<event>
 6    1  0.1097339E-002  0.1731890E+03  0.7546771E-02  0.1076118E+00
        -11   -1    0    0    0    0  0.00000000000E+00  0.00000000000E+00  0.18250000000E+03  0.18250000000E+03  0.00000000000E+00 0.  1.
         11   -1    0    0    0    0 -0.00000000000E+00 -0.00000000000E+00 -0.18250000000E+03  0.18250000000E+03  0.00000000000E+00 0. -1.
        -11    1    1    2    0    0  0.54644573066E+01 -0.34651492190E+01  0.17598002309E+03  0.17609893833E+03  0.00000000000E+00 0.  1.
         11    1    1    2    0    0  0.18939507533E+01 -0.61897780692E+01 -0.17041360415E+03  0.17053649721E+03  0.00000000000E+00 0. -1.
        -15    1    1    2    0    0 -0.18531481885E+01  0.47084649546E+01  0.35930634183E+01  0.64553570130E+01  0.17770000000E+01 0.  1.
         15    1    1    2    0    0 -0.55052598714E+01  0.49464623337E+01 -0.91594823608E+01  0.11909207446E+02  0.17770000000E+01 0. -1.
</event>
<event>
 6    1  0.1097339E-002  0.1839968E+03  0.7546771E-02  0.1067270E+00
        -11   -1    0    0    0    0  0.00000000000E+00  0.00000000000E+00  0.18250000000E+03  0.18250000000E+03  0.00000000000E+00 0.  1.
         11   -1    0    0    0    0 -0.00000000000E+00 -0.00000000000E+00 -0.18250000000E+03  0.18250000000E+03  0.00000000000E+00 0.  1.
        -11    1    1    2    0    0 -0.48870267033E+01 -0.30541343050E-01  0.49690255075E+01  0.69695894618E+01  0.00000000000E+00 0.  1.
         11    1    1    2    0    0  0.29280260735E+01  0.20340625358E+01 -0.18096810403E+03  0.18100321937E+03  0.00000000000E+00 0.  1.
        -15    1    1    2    0    0  0.35488013072E+01 -0.50509543113E+01  0.16818438390E+03  0.16830701366E+03  0.17770000000E+01 0.  1.
         15    1    1    2    0    0 -0.15898006774E+01  0.30474331185E+01  0.78146946202E+01  0.87201775104E+01  0.17770000000E+01 0.  1.
</event>
<event>
 6    1  0.1097339E-002  0.1852880E+03  0.7546771E-02  0.1066257E+00
        -11   -1    0    0    0    0  0.00000000000E+00  0.00000000000E+00  0.18250000000E+03  0.18250000000E+03  0.00000000000E+00 0. -1.
         11   -1    0    0    0    0 -0.00000000000E+00 -0.00000000000E+00 -0.18250000000E+03  0.18250000000E+03  0.00000000000E+00 0.  1.
        -11    1    1    2    0    0  0.64521981046E+00 -0.21817722194E+01  0.14813033141E+03  0.14814780296E+03  0.00000000000E+00 0. -1.
         11    1    1    2    0    0  0.50144429934E+01  0.98883924531E+00 -0.17963926315E+03  0.17971195649E+03  0.00000000000E+00 0.  1.
        -15    1    1    2    0    0 -0.50150403724E+01  0.39623670653E+01  0.13178575069E+01  0.67635390222E+01  0.17770000000E+01 0. -1.
         15    1    1    2    0    0 -0.64462243151E+00 -0.27694340911E+01  0.30191074235E+02  0.30376701528E+02  0.17770000000E+01 0.  1.
</event>
<event>
 6    1  0.1097339E-002  0.1859288E+03  0.7546771E-02  0.1065758E+00
        -11   -1    0    0    0    0  0.00000000000E+00  0.00000000000E+00  0.18250000000E+03  0.18250000000E+03  0.00000000000E+00 0. -1.
         11   -1    0    0    0    0 -0.00000000000E+00 -0.00000000000E+00 -0.18250000000E+03  0.18250000000E+03  0.00000000000E+00 0.  1.
        -11    1    1    2    0    0 -0.43948382296E+01 -0.11107980100E+02  0.14260032192E+03  0.14309980307E+03  0.00000000000E+00 0. -1.
         11    1    1    2    0    0  0.16092353285E+00 -0.54513000365E+01 -0.17898813735E+03  0.17907120338E+03  0.00000000000E+00 0.  1.
        -15    1    1    2    0    0  0.89222069044E+01  0.14268309283E+02  0.29478633636E+02  0.33990263251E+02  0.17770000000E+01 0.  1.
         15    1    1    2    0    0 -0.46882922077E+01  0.22909708539E+01  0.69091817930E+01  0.88387303007E+01  0.17770000000E+01 0. -1.
</event>
<event>
 6    1  0.1097339E-002  0.1854851E+03  0.7546771E-02  0.1066103E+00
        -11   -1    0    0    0    0  0.00000000000E+00  0.00000000000E+00  0.18250000000E+03  0.18250000000E+03  0.00000000000E+00 0. -1.
         11   -1    0    0    0    0 -0.00000000000E+00 -0.00000000000E+00 -0.18250000000E+03  0.18250000000E+03  0.00000000000E+00 0. -1.
        -11    1    1    2    0    0  0.51858084161E+01 -0.84925111441E+00  0.15513583169E+03  0.15522480508E+03  0.00000000000E+00 0. -1.
         11    1    1    2    0    0  0.54947668162E+00 -0.26581793254E+01 -0.17949436102E+03  0.17951488373E+03  0.00000000000E+00 0. -1.
        -15    1    1    2    0    0 -0.31173567185E+01 -0.24736805200E+01  0.22935393054E+02  0.23345813153E+02  0.17770000000E+01 0. -1.
         15    1    1    2    0    0 -0.26179283792E+01  0.59811109598E+01  0.14231362715E+01  0.69144980410E+01  0.17770000000E+01 0. -1.
</event>
<event>
 6    1  0.1097339E-002  0.1830472E+03  0.7546771E-02  0.1068020E+00
        -11   -1    0    0    0    0  0.00000000000E+00  0.00000000000E+00  0.18250000000E+03  0.18250000000E+03  0.00000000000E+00 0.  1.
         11   -1    0    0    0    0 -0.00000000000E+00 -0.00000000000E+00 -0.18250000000E+03  0.18250000000E+03  0.00000000000E+00 0. -1.
        -11    1    1    2    0    0 -0.26358227998E+01 -0.75182073327E+01  0.11813233333E+03  0.11840067222E+03  0.00000000000E+00 0.  1.
         11    1    1    2    0    0 -0.44567294948E+01  0.87145943180E+01 -0.18168937634E+03  0.18195284023E+03  0.00000000000E+00 0. -1.
        -15    1    1    2    0    0  0.75400736552E+01 -0.35947139366E+01  0.52260250112E+02  0.52953433786E+02  0.17770000000E+01 0. -1.
         15    1    1    2    0    0 -0.44752136052E+00  0.23983269514E+01  0.11296792898E+02  0.11693053764E+02  0.17770000000E+01 0.  1.
</event>
<event>
 6    1  0.1097339E-002  0.1898776E+03  0.7546771E-02  0.1062729E+00
        -11   -1    0    0    0    0  0.00000000000E+00  0.00000000000E+00  0.18250000000E+03  0.18250000000E+03  0.00000000000E+00 0. -1.
         11   -1    0    0    0    0 -0.00000000000E+00 -0.00000000000E+00 -0.18250000000E+03  0.18250000000E+03  0.00000000000E+00 0.  1.
        -11    1    1    2    0    0  0.92336468941E+00 -0.53053386684E+01  0.16478421101E+03  0.16487217904E+03  0.00000000000E+00 0. -1.
         11    1    1    2    0    0 -0.38834525343E+01  0.77985491412E+01 -0.17490556410E+03  0.17512239984E+03  0.00000000000E+00 0.  1.
        -15    1    1    2    0    0 -0.51923690358E+01  0.65877918929E+01 -0.69427149954E+00  0.86022927260E+01  0.17770000000E+01 0. -1.
         15    1    1    2    0    0  0.81524568807E+01 -0.90810023658E+01  0.10815624585E+02  0.16403128400E+02  0.17770000000E+01 0.  1.
</event>
<event>
 6    1  0.1097339E-002  0.1853563E+03  0.7546771E-02  0.1066204E+00
        -11   -1    0    0    0    0  0.00000000000E+00  0.00000000000E+00  0.18250000000E+03  0.18250000000E+03  0.00000000000E+00 0.  1.
         11   -1    0    0    0    0 -0.00000000000E+00 -0.00000000000E+00 -0.18250000000E+03  0.18250000000E+03  0.00000000000E+00 0. -1.
        -11    1    1    2    0    0  0.10769213357E+01  0.28630613691E+01  0.17961768154E+03  0.17964372631E+03  0.00000000000E+00 0.  1.
         11    1    1    2    0    0 -0.38125944060E+00 -0.34651320315E+01 -0.17600601146E+03  0.17604053104E+03  0.00000000000E+00 0. -1.
        -15    1    1    2    0    0  0.65173340045E+00 -0.27379242821E+01  0.72352503322E+00  0.34062007095E+01  0.17770000000E+01 0.  1.
         15    1    1    2    0    0 -0.13473952956E+01  0.33399949444E+01 -0.43351951156E+01  0.59095419451E+01  0.17770000000E+01 0. -1.
</event>
<event>
 6    1  0.1097339E-002  0.1938288E+03  0.7546771E-02  0.1059778E+00
        -11   -1    0    0    0    0  0.00000000000E+00  0.00000000000E+00  0.18250000000E+03  0.18250000000E+03  0.00000000000E+00 0. -1.
         11   -1    0    0    0    0 -0.00000000000E+00 -0.00000000000E+00 -0.18250000000E+03  0.18250000000E+03  0.00000000000E+00 0. -1.
        -11    1    1    2    0    0 -0.25701563697E+01 -0.48473079327E+00  0.10193031509E+03  0.10196386518E+03  0.00000000000E+00 0. -1.
         11    1    1    2    0    0  0.78866112355E+01 -0.59348293909E+00 -0.17098835232E+03  0.17117116430E+03  0.00000000000E+00 0. -1.
        -15    1    1    2    0    0 -0.81920170517E+01  0.53923586360E+01 -0.91110915136E+01  0.13503939892E+02  0.17770000000E+01 0.  1.
         15    1    1    2    0    0  0.28755621860E+01 -0.43141449036E+01  0.78169128739E+02  0.78361030627E+02  0.17770000000E+01 0. -1.
</event>
<event>
 6    1  0.1097339E-002  0.1828931E+03  0.7546771E-02  0.1068142E+00
        -11   -1    0    0    0    0  0.00000000000E+00  0.00000000000E+00  0.18250000000E+03  0.18250000000E+03  0.00000000000E+00 0. -1.
         11   -1    0    0    0    0 -0.00000000000E+00 -0.00000000000E+00 -0.18250000000E+03  0.18250000000E+03  0.00000000000E+00 0. -1.
        -11    1    1    2    0    0 -0.44684357373E+01  0.21795096279E+01  0.18203906201E+03  0.18210693913E+03  0.00000000000E+00 0. -1.
         11    1    1    2    0    0 -0.20279739963E+01  0.72128669175E+00 -0.65575200519E+02  0.65610516353E+02  0.00000000000E+00 0. -1.
        -15    1    1    2    0    0  0.72471085593E+01 -0.23183778055E+01 -0.38109551279E+02  0.38902327511E+02  0.17770000000E+01 0.  1.
         15    1    1    2    0    0 -0.75069882567E+00 -0.58241851409E+00 -0.78354310215E+02  0.78380217009E+02  0.17770000000E+01 0. -1.
</event>
<event>
 6    1  0.1097339E-002  0.1836800E+03  0.7546771E-02  0.1067519E+00
        -11   -1    0    0    0    0  0.00000000000E+00  0.00000000000E+00  0.18250000000E+03  0.18250000000E+03  0.00000000000E+00 0.  1.
         11   -1    0    0    0    0 -0.00000000000E+00 -0.00000000000E+00 -0.18250000000E+03  0.18250000000E+03  0.00000000000E+00 0. -1.
        -11    1    1    2    0    0  0.13002631309E+00  0.26720157929E+01  0.18130029473E+03  0.18132003045E+03  0.00000000000E+00 0.  1.
         11    1    1    2    0    0  0.12338360080E+00 -0.45515969549E+01 -0.17326198032E+03  0.17332179922E+03  0.00000000000E+00 0. -1.
        -15    1    1    2    0    0 -0.86924022090E+00 -0.88441037692E+00 -0.61455881086E+01  0.65164209868E+01  0.17770000000E+01 0.  1.
         15    1    1    2    0    0  0.61583030700E+00  0.27639915389E+01 -0.18927262941E+01  0.38417493435E+01  0.17770000000E+01 0.  1.
</event>
<event>
 6    1  0.1097339E-002  0.1836202E+03  0.7546771E-02  0.1067567E+00
        -11   -1    0    0    0    0  0.00000000000E+00  0.00000000000E+00  0.18250000000E+03  0.18250000000E+03  0.00000000000E+00 0. -1.
         11   -1    0    0    0    0 -0.00000000000E+00 -0.00000000000E+00 -0.18250000000E+03  0.18250000000E+03  0.00000000000E+00 0.  1.
        -11    1    1    2    0    0  0.61600053737E+01 -0.52444707813E+01  0.82106447506E+02  0.82504053610E+02  0.00000000000E+00 0. -1.
         11    1    1    2    0    0 -0.80541956876E+01  0.35513962157E+01 -0.18116604502E+03  0.18137976280E+03  0.00000000000E+00 0.  1.
        -15    1    1    2    0    0 -0.38611217218E+01  0.86480763912E+01  0.69300260369E+02  0.69967001525E+02  0.17770000000E+01 0. -1.
         15    1    1    2    0    0  0.57553120356E+01 -0.69550018256E+01  0.29759337148E+02  0.31149182068E+02  0.17770000000E+01 0.  1.
</event>
<event>
 6    1  0.1097339E-002  0.1835964E+03  0.7546771E-02  0.1067585E+00
        -11   -1    0    0    0    0  0.00000000000E+00  0.00000000000E+00  0.18250000000E+03  0.18250000000E+03  0.00000000000E+00 0. -1.
         11   -1    0    0    0    0 -0.00000000000E+00 -0.00000000000E+00 -0.18250000000E+03  0.18250000000E+03  0.00000000000E+00 0. -1.
        -11    1    1    2    0    0 -0.60193824558E+00 -0.27878726810E+01  0.18138113977E+03  0.18140356233E+03  0.00000000000E+00 0. -1.
         11    1    1    2    0    0  0.35100409930E+01 -0.78433217886E+01 -0.13806858202E+03  0.13833571999E+03  0.00000000000E+00 0. -1.
        -15    1    1    2    0    0  0.18516995896E+01  0.35140558957E+01 -0.12772303478E+02  0.13493214789E+02  0.17770000000E+01 0.  1.
         15    1    1    2    0    0 -0.47598023370E+01  0.71171385739E+01 -0.30540254268E+02  0.31767502885E+02  0.17770000000E+01 0. -1.
</event>
<event>
 6    1  0.1097339E-002  0.1753860E+03  0.7546771E-02  0.1074263E+00
        -11   -1    0    0    0    0  0.00000000000E+00  0.00000000000E+00  0.18250000000E+03  0.18250000000E+03  0.00000000000E+00 0.  1.
         11   -1    0    0    0    0 -0.00000000000E+00 -0.00000000000E+00 -0.18250000000E+03  0.18250000000E+03  0.00000000000E+00 0. -1.
        -11    1    1    2    0    0 -0.46841677865E+01 -0.49742495154E+00  0.17729324894E+03  0.17735581462E+03  0.00000000000E+00 0.  1.
         11    1    1    2    0    0 -0.39903557822E+01 -0.92885402565E+00 -0.17349840840E+03  0.17354677590E+03  0.00000000000E+00 0. -1.
        -15    1    1    2    0    0  0.83151208079E+01 -0.74358849621E-01  0.11889055070E+01  0.85859180402E+01  0.17770000000E+01 0. -1.
         15    1    1    2    0    0  0.35940276084E+00  0.15006378268E+01 -0.49837460445E+01  0.55114914377E+01  0.17770000000E+01 0.  1.
</event>
<event>
 6    1  0.1097339E-002  0.1832928E+03  0.7546771E-02  0.1067826E+00
        -11   -1    0    0    0    0  0.00000000000E+00  0.00000000000E+00  0.18250000000E+03  0.18250000000E+03  0.00000000000E+00 0. -1.
         11   -1    0    0    0    0 -0.00000000000E+00 -0.00000000000E+00 -0.18250000000E+03  0.18250000000E+03  0.00000000000E+00 0.  1.
        -11    1    1    2    0    0  0.23048741188E+01 -0.12288054050E+01  0.18168845031E+03  0.18170722436E+03  0.00000000000E+00 0. -1.
         11    1    1    2    0    0  0.14964569849E+01  0.13141080069E+01 -0.41222741573E+02  0.41270821244E+02  0.00000000000E+00 0.  1.
        -15    1    1    2    0    0  0.43631367746E+01  0.75838218260E+01 -0.80460341412E+02  0.80954157306E+02  0.17770000000E+01 0.  1.
         15    1    1    2    0    0 -0.81644678783E+01 -0.76691244279E+01 -0.60005367323E+02  0.61067797094E+02  0.17770000000E+01 0. -1.
</event>
<event>
 6    1  0.1097339E-002  0.1843311E+03  0.7546771E-02  0.1067007E+00
        -11   -1    0    0    0    0  0.00000000000E+00  0.00000000000E+00  0.18250000000E+03  0.18250000000E+03  0.00000000000E+00 0. -1.
         11   -1    0    0    0    0 -0.00000000000E+00 -0.00000000000E+00 -0.18250000000E+03  0.18250000000E+03  0.00000000000E+00 0.  1.
        -11    1    1    2    0    0  0.13278073388E+00  0.24862029598E+01  0.17851805430E+03  0.17853541538E+03  0.00000000000E+00 0. -1.
         11    1    1    2    0    0 -0.26103411804E+01 -0.35020696291E-01 -0.18065003412E+03  0.18066889587E+03  0.00000000000E+00 0.  1.
        -15    1    1    2    0    0  0.21319847664E+01 -0.89802310538E+00  0.65360366184E+00  0.29894366173E+01  0.17770000000E+01 0.  1.
         15    1    1    2    0    0  0.34557568007E+00 -0.15531591581E+01  0.14783761623E+01  0.28062521267E+01  0.17770000000E+01 0.  1.
</event>
<event>
 6    1  0.1097339E-002  0.1828554E+03  0.7546771E-02  0.1068172E+00
        -11   -1    0    0    0    0  0.00000000000E+00  0.00000000000E+00  0.18250000000E+03  0.18250000000E+03  0.00000000000E+00 0. -1.
         11   -1    0    0    0    0 -0.00000000000E+00 -0.00000000000E+00 -0.18250000000E+03  0.18250000000E+03  0.00000000000E+00 0. -1.
        -11    1    1    2    0    0  0.15189701873E+01  0.24464572332E+01  0.18212188328E+03  0.18214464799E+03  0.00000000000E+00 0. -1.
         11    1    1    2    0    0 -0.35203163593E+00 -0.26939632527E+01 -0.13360615958E+03  0.13363378032E+03  0.00000000000E+00 0. -1.
        -15    1    1    2    0    0 -0.29376783496E+01 -0.23599506373E+01 -0.34321271769E+02  0.34573208499E+02  0.17770000000E+01 0.  1.
         15    1    1    2    0    0  0.17707397983E+01  0.26074566569E+01 -0.14194451927E+02  0.14648363190E+02  0.17770000000E+01 0.  1.
</event>
<event>
 6    1  0.1097339E-002  0.1858433E+03  0.7546771E-02  0.1065824E+00
        -11   -1    0    0    0    0  0.00000000000E+00  0.00000000000E+00  0.18250000000E+03  0.18250000000E+03  0.00000000000E+00 0. -1.
         11   -1    0    0    0    0 -0.00000000000E+00 -0.00000000000E+00 -0.18250000000E+03  0.18250000000E+03  0.00000000000E+00 0. -1.
        -11    1    1    2    0    0  0.57690322796E+01 -0.32626554043E+01  0.17903408120E+03  0.17915671599E+03  0.00000000000E+00 0. -1.
         11    1    1    2    0    0 -0.38975188720E+01 -0.14826102553E+01 -0.17603836796E+03  0.17608775023E+03  0.00000000000E+00 0. -1.
        -15    1    1    2    0    0  0.17670798754E+01  0.14931153289E-01  0.58378887306E+00  0.25731950322E+01  0.17770000000E+01 0. -1.
         15    1    1    2    0    0 -0.36385932831E+01  0.47303345063E+01 -0.35795021090E+01  0.71823387534E+01  0.17770000000E+01 0.  1.
</event>
<event>
 6    1  0.1097339E-002  0.1827037E+03  0.7546771E-02  0.1068293E+00
        -11   -1    0    0    0    0  0.00000000000E+00  0.00000000000E+00  0.18250000000E+03  0.18250000000E+03  0.00000000000E+00 0.  1.
         11   -1    0    0    0    0 -0.00000000000E+00 -0.00000000000E+00 -0.18250000000E+03  0.18250000000E+03  0.00000000000E+00 0.  1.
        -11    1    1    2    0    0  0.65872658368E+00 -0.22412320660E+01  0.91600876937E+02  0.91630659157E+02  0.00000000000E+00 0.  1.
         11    1    1    2    0    0 -0.32140283189E+01  0.26876118919E+00 -0.18226772541E+03  0.18229625870E+03  0.00000000000E+00 0.  1.
        -15    1    1    2    0    0 -0.11321525659E+01  0.82776768670E+00  0.66277491516E+02  0.66316141169E+02  0.17770000000E+01 0. -1.
         15    1    1    2    0    0  0.36874543010E+01  0.11447031901E+01  0.24389356956E+02  0.24756940973E+02  0.17770000000E+01 0.  1.
</event>
<event>
 6    1  0.1097339E-002  0.1841642E+03  0.7546771E-02  0.1067138E+00
        -11   -1    0    0    0    0  0.00000000000E+00  0.00000000000E+00  0.18250000000E+03  0.18250000000E+03  0.00000000000E+00 0.  1.
         11   -1    0    0    0    0 -0.00000000000E+00 -0.00000000000E+00 -0.18250000000E+03  0.18250000000E+03  0.00000000000E+00 0. -1.
        -11    1    1    2    0    0 -0.35203482009E+01  0.33922857312E+01  0.15875172555E+03  0.15882698391E+03  0.00000000000E+00 0.  1.
         11    1    1    2    0    0 -0.47375621868E+00 -0.11725425028E+02 -0.18045464096E+03  0.18083580254E+03  0.00000000000E+00 0. -1.
        -15    1    1    2    0    0  0.23210152248E+01  0.30667250920E+01  0.17965970877E+01  0.46018914111E+01  0.17770000000E+01 0. -1.
         15    1    1    2    0    0  0.16730891948E+01  0.52664142047E+01  0.19906318321E+02  0.20735322137E+02  0.17770000000E+01 0.  1.
</event>
<event>
 6    1  0.1097339E-002  0.1791384E+03  0.7546771E-02  0.1071163E+00
        -11   -1    0    0    0    0  0.00000000000E+00  0.00000000000E+00  0.18250000000E+03  0.18250000000E+03  0.00000000000E+00 0.  1.
         11   -1    0    0    0    0 -0.00000000000E+00 -0.00000000000E+00 -0.18250000000E+03  0.18250000000E+03  0.00000000000E+00 0.  1.
        -11    1    1    2    0    0 -0.22891213105E+01  0.17421235146E+01  0.17946849631E+03  0.17949154921E+03  0.00000000000E+00 0.  1.
         11    1    1    2    0    0  0.33186789263E+01 -0.39994889122E+00 -0.17875863824E+03  0.17878988879E+03  0.00000000000E+00 0.  1.
        -15    1    1    2    0    0 -0.14044744911E+01  0.12130053020E+01  0.14132808422E+01  0.29324089410E+01  0.17770000000E+01 0. -1.
         15    1    1    2    0    0  0.37491687533E+00 -0.25551799254E+01 -0.21231389136E+01  0.37861530557E+01  0.17770000000E+01 0.  1.
</event>
<event>
 6    1  0.1097339E-002  0.1846339E+03  0.7546771E-02  0.1066769E+00
        -11   -1    0    0    0    0  0.00000000000E+00  0.00000000000E+00  0.18250000000E+03  0.18250000000E+03  0.00000000000E+00 0. -1.
         11   -1    0    0    0    0 -0.00000000000E+00 -0.00000000000E+00 -0.18250000000E+03  0.18250000000E+03  0.00000000000E+00 0. -1.
        -11    1    1    2    0    0 -0.81557973867E+00  0.23392128766E+01  0.18034905857E+03  0.18036607223E+03  0.00000000000E+00 0. -1.
         11    1    1    2    0    0  0.27690262993E+01 -0.42870126175E-01 -0.13392678439E+03  0.13395541393E+03  0.00000000000E+00 0. -1.
        -15    1    1    2    0    0  0.15476703736E+01 -0.39713078686E+01 -0.46172237434E+02  0.46402584071E+02  0.17770000000E+01 0. -1.
         15    1    1    2    0    0 -0.35011169342E+01  0.16749651181E+01 -0.25003673965E+00  0.42759297592E+01  0.17770000000E+01 0. -1.
</event>
<event>
 6    1  0.1097339E-002  0.1829465E+03  0.7546771E-02  0.1068100E+00
        -11   -1    0    0    0    0  0.00000000000E+00  0.00000000000E+00  0.18250000000E+03  0.18250000000E+03  0.00000000000E+00 0.  1.
         11   -1    0    0    0    0 -0.00000000000E+00 -0.00000000000E+00 -0.18250000000E+03  0.18250000000E+03  0.00000000000E+00 0.  1.
        -11    1    1    2    0    0  0.49504801568E-02 -0.29190109628E+01  0.18203013035E+03  0.18205353335E+03  0.00000000000E+00 0.  1.
         11    1    1    2    0    0  0.69610355167E+00  0.21098873436E+01 -0.12701297904E+03  0.12703240937E+03  0.00000000000E+00 0.  1.
        -15    1    1    2    0    0 -0.18157384018E+01 -0.21353945424E+01 -0.68522644294E+01  0.76136766812E+01  0.17770000000E+01 0.  1.
         15    1    1    2    0    0  0.11146843699E+01  0.29445181616E+01 -0.48164886886E+02  0.48300380601E+02  0.17770000000E+01 0.  1.
</event>
<event>
 6    1  0.1097339E-002  0.1753763E+03  0.7546771E-02  0.1074271E+00
        -11   -1    0    0    0    0  0.00000000000E+00  0.00000000000E+00  0.18250000000E+03  0.18250000000E+03  0.00000000000E+00 0. -1.
         11   -1    0    0    0    0 -0.00000000000E+00 -0.00000000000E+00 -0.18250000000E+03  0.18250000000E+03  0.00000000000E+00 0. -1.
        -11    1    1    2    0    0 -0.18800128983E+01  0.34787431203E+01  0.17653912113E+03  0.17658340067E+03  0.00000000000E+00 0. -1.
         11    1    1    2    0    0 -0.33271337555E+01  0.35192421625E+01 -0.17421809641E+03  0.17428539812E+03  0.00000000000E+00 0. -1.
        -15    1    1    2    0    0  0.35004156043E+00  0.24963921792E+01 -0.98292962956E+00  0.32370330031E+01  0.17770000000E+01 0.  1.
         15    1    1    2    0    0  0.48571050933E+01 -0.94943774620E+01 -0.13380950988E+01  0.10894168200E+02  0.17770000000E+01 0. -1.
</event>
<event>
 6    1  0.1097339E-002  0.1830423E+03  0.7546771E-02  0.1068024E+00
        -11   -1    0    0    0    0  0.00000000000E+00  0.00000000000E+00  0.18250000000E+03  0.18250000000E+03  0.00000000000E+00 0. -1.
         11   -1    0    0    0    0 -0.00000000000E+00 -0.00000000000E+00 -0.18250000000E+03  0.18250000000E+03  0.00000000000E+00 0. -1.
        -11    1    1    2    0    0  0.52163453236E+01  0.16672681938E+01  0.18187526976E+03  0.18195769781E+03  0.00000000000E+00 0. -1.
         11    1    1    2    0    0  0.17849806965E+01  0.18215880392E+01 -0.11129308153E+03  0.11132229937E+03  0.00000000000E+00 0. -1.
        -15    1    1    2    0    0  0.12211600353E+01  0.17713561039E+01 -0.14215027335E+02  0.14486326843E+02  0.17770000000E+01 0. -1.
         15    1    1    2    0    0 -0.82224860554E+01 -0.52602123369E+01 -0.56367160890E+02  0.57233675984E+02  0.17770000000E+01 0. -1.
</event>
<event>
 6    1  0.1097339E-002  0.1675846E+03  0.7546771E-02  0.1080989E+00
        -11   -1    0    0    0    0  0.00000000000E+00  0.00000000000E+00  0.18250000000E+03  0.18250000000E+03  0.00000000000E+00 0. -1.
         11   -1    0    0    0    0 -0.00000000000E+00 -0.00000000000E+00 -0.18250000000E+03  0.18250000000E+03  0.00000000000E+00 0.  1.
        -11    1    1    2    0    0 -0.21770867701E+01  0.96027140249E+01  0.16691695800E+03  0.16720712512E+03  0.00000000000E+00 0. -1.
         11    1    1    2    0    0  0.64513790928E+00 -0.39130186470E+01 -0.16796868346E+03  0.16801549494E+03  0.00000000000E+00 0.  1.
        -15    1    1    2    0    0 -0.63662024929E+01  0.98145382055E+01  0.29191609309E+01  0.12187408416E+02  0.17770000000E+01 0.  1.
         15    1    1    2    0    0  0.78981513537E+01 -0.15504233583E+02 -0.18674354730E+01  0.17589971520E+02  0.17770000000E+01 0. -1.
</event>
<event>
 6    1  0.1097339E-002  0.1859004E+03  0.7546771E-02  0.1065780E+00
        -11   -1    0    0    0    0  0.00000000000E+00  0.00000000000E+00  0.18250000000E+03  0.18250000000E+03  0.00000000000E+00 0. -1.
         11   -1    0    0    0    0 -0.00000000000E+00 -0.00000000000E+00 -0.18250000000E+03  0.18250000000E+03  0.00000000000E+00 0. -1.
        -11    1    1    2    0    0 -0.96789187965E+01  0.34443050938E+01  0.17880471481E+03  0.17909961123E+03  0.00000000000E+00 0. -1.
         11    1    1    2    0    0  0.77303124449E+01 -0.60009080012E+01 -0.15190699457E+03  0.15222188945E+03  0.00000000000E+00 0. -1.
        -15    1    1    2    0    0 -0.55843662169E+01 -0.54247825829E+01 -0.59337419324E+01  0.99488911159E+01  0.17770000000E+01 0. -1.
         15    1    1    2    0    0  0.75329725686E+01  0.79813854903E+01 -0.20963978302E+02  0.23729608199E+02  0.17770000000E+01 0.  1.
</event>
<event>
 6    1  0.1097339E-002  0.1867634E+03  0.7546771E-02  0.1065111E+00
        -11   -1    0    0    0    0  0.00000000000E+00  0.00000000000E+00  0.18250000000E+03  0.18250000000E+03  0.00000000000E+00 0. -1.
         11   -1    0    0    0    0 -0.00000000000E+00 -0.00000000000E+00 -0.18250000000E+03  0.18250000000E+03  0.00000000000E+00 0.  1.
        -11    1    1    2    0    0  0.31670795001E+01  0.85107024726E+00  0.98424459175E+02  0.98479078372E+02  0.00000000000E+00 0. -1.
         11    1    1    2    0    0 -0.20156672312E+01  0.39640321203E+01 -0.17818110910E+03  0.17823659586E+03  0.00000000000E+00 0.  1.
        -15    1    1    2    0    0 -0.10897971294E+02 -0.10004819856E+02  0.10740553752E+02  0.18367891076E+02  0.17770000000E+01 0.  1.
         15    1    1    2    0    0  0.97465590246E+01  0.51897174889E+01  0.69016096171E+02  0.69916434692E+02  0.17770000000E+01 0. -1.
</event>
<event>
 6    1  0.1097339E-002  0.1826282E+03  0.7546771E-02  0.1068353E+00
        -11   -1    0    0    0    0  0.00000000000E+00  0.00000000000E+00  0.18250000000E+03  0.18250000000E+03  0.00000000000E+00 0.  1.
         11   -1    0    0    0    0 -0.00000000000E+00 -0.00000000000E+00 -0.18250000000E+03  0.18250000000E+03  0.00000000000E+00 0. -1.
        -11    1    1    2    0    0 -0.46484125172E+01 -0.33140509217E+01  0.18228239801E+03  0.18237177220E+03  0.00000000000E+00 0.  1.
         11    1    1    2    0    0  0.21703383987E+01 -0.13948019610E+01 -0.59936445633E+02  0.59991944096E+02  0.00000000000E+00 0. -1.
        -15    1    1    2    0    0 -0.60189102776E+00  0.43742866787E+01 -0.60253748628E+02  0.60441447778E+02  0.17770000000E+01 0.  1.
         15    1    1    2    0    0  0.30799651463E+01  0.33456620400E+00 -0.62092203750E+02  0.62194835922E+02  0.17770000000E+01 0. -1.
</event>
<event>
 6    1  0.1251222E-002  0.1825726E+03  0.7546771E-02  0.1068397E+00
        -11   -1    0    0    0    0  0.00000000000E+00  0.00000000000E+00  0.18250000000E+03  0.18250000000E+03  0.00000000000E+00 0. -1.
         11   -1    0    0    0    0 -0.00000000000E+00 -0.00000000000E+00 -0.18250000000E+03  0.18250000000E+03  0.00000000000E+00 0.  1.
        -11    1    1    2    0    0  0.24593403658E+01  0.13068884300E+01  0.18240613226E+03  0.18242739213E+03  0.00000000000E+00 0. -1.
         11    1    1    2    0    0 -0.76161928539E+00 -0.41137331432E-02 -0.39031963600E+02  0.39039393736E+02  0.00000000000E+00 0.  1.
        -15    1    1    2    0    0  0.18863709981E+01 -0.41562697649E+00 -0.63026538272E+02  0.63081165151E+02  0.17770000000E+01 0.  1.
         15    1    1    2    0    0 -0.35840920786E+01 -0.88714772034E+00 -0.80347630391E+02  0.80452048983E+02  0.17770000000E+01 0.  1.
</event>
<event>
 6    1  0.1097339E-002  0.1829017E+03  0.7546771E-02  0.1068135E+00
        -11   -1    0    0    0    0  0.00000000000E+00  0.00000000000E+00  0.18250000000E+03  0.18250000000E+03  0.00000000000E+00 0. -1.
         11   -1    0    0    0    0 -0.00000000000E+00 -0.00000000000E+00 -0.18250000000E+03  0.18250000000E+03  0.00000000000E+00 0. -1.
        -11    1    1    2    0    0 -0.25084756359E+01 -0.10627289713E+01  0.12565947078E+03  0.12568899888E+03  0.00000000000E+00 0. -1.
         11    1    1    2    0    0 -0.21012331514E+01  0.18224222869E+01 -0.18207701000E+03  0.18209825363E+03  0.00000000000E+00 0. -1.
        -15    1    1    2    0    0  0.56191680173E+01 -0.13830706143E+01  0.24993704874E+02  0.25716355610E+02  0.17770000000E+01 0. -1.
         15    1    1    2    0    0 -0.10094592301E+01  0.62337729871E+00  0.31423834350E+02  0.31496391880E+02  0.17770000000E+01 0. -1.
</event>
<event>
 6    1  0.1097339E-002  0.1843643E+03  0.7546771E-02  0.1066980E+00
        -11   -1    0    0    0    0  0.00000000000E+00  0.00000000000E+00  0.18250000000E+03  0.18250000000E+03  0.00000000000E+00 0. -1.
         11   -1    0    0    0    0 -0.00000000000E+00 -0.00000000000E+00 -0.18250000000E+03  0.18250000000E+03  0.00000000000E+00 0.  1.
        -11    1    1    2    0    0 -0.15703304852E+01  0.61143429799E+01  0.18052534367E+03  0.18063568538E+03  0.00000000000E+00 0. -1.
         11    1    1    2    0    0  0.53782004550E+01 -0.59152016153E+01 -0.13481141267E+03  0.13504825670E+03  0.00000000000E+00 0.  1.
        -15    1    1    2    0    0 -0.27735903320E+01  0.83064839385E+01 -0.15837122483E+02  0.18184131992E+02  0.17770000000E+01 0.  1.
         15    1    1    2    0    0 -0.10342796378E+01 -0.85056253031E+01 -0.29876808509E+02  0.31131925925E+02  0.17770000000E+01 0. -1.
</event>
<event>
 6    1  0.1097339E-002  0.1842578E+03  0.7546771E-02  0.1067064E+00
        -11   -1    0    0    0    0  0.00000000000E+00  0.00000000000E+00  0.18250000000E+03  0.18250000000E+03  0.00000000000E+00 0.  1.
         11   -1    0    0    0    0 -0.00000000000E+00 -0.00000000000E+00 -0.18250000000E+03  0.18250000000E+03  0.00000000000E+00 0. -1.
        -11    1    1    2    0    0 -0.34731946335E+01 -0.58860196808E+00  0.18070788837E+03  0.18074222100E+03  0.00000000000E+00 0.  1.
         11    1    1    2    0    0  0.56567655795E+01  0.24657563180E+01 -0.11306972434E+03  0.11323798618E+03  0.00000000000E+00 0. -1.
        -15    1    1    2    0    0 -0.10031040220E+02 -0.92084512569E+00 -0.55439734061E+02  0.56375451798E+02  0.17770000000E+01 0.  1.
         15    1    1    2    0    0  0.78474692737E+01 -0.95630922426E+00 -0.12198429964E+02  0.14644341020E+02  0.17770000000E+01 0. -1.
</event>
<event>
 6    1  0.1097339E-002  0.1889603E+03  0.7546771E-02  0.1063426E+00
        -11   -1    0    0    0    0  0.00000000000E+00  0.00000000000E+00  0.18250000000E+03  0.18250000000E+03  0.00000000000E+00 0. -1.
         11   -1    0    0    0    0 -0.00000000000E+00 -0.00000000000E+00 -0.18250000000E+03  0.18250000000E+03  0.00000000000E+00 0. -1.
        -11    1    1    2    0    0 -0.72582799467E+00 -0.44965785985E+01  0.16291071684E+03  0.16297437745E+03  0.00000000000E+00 0. -1.
         11    1    1    2    0    0 -0.13421514758E+01 -0.35080667122E+01 -0.17599961226E+03  0.17603968705E+03  0.00000000000E+00 0. -1.
        -15    1    1    2    0    0  0.17720458211E+01  0.78443885590E+00  0.17257294070E+02  0.17456443461E+02  0.17770000000E+01 0.  1.
         15    1    1    2    0    0  0.29593364937E+00  0.72202064547E+01 -0.41683986507E+01  0.85294920297E+01  0.17770000000E+01 0. -1.
</event>
<event>
 6    1  0.1097339E-002  0.1839019E+03  0.7546771E-02  0.1067344E+00
        -11   -1    0    0    0    0  0.00000000000E+00  0.00000000000E+00  0.18250000000E+03  0.18250000000E+03  0.00000000000E+00 0. -1.
         11   -1    0    0    0    0 -0.00000000000E+00 -0.00000000000E+00 -0.18250000000E+03  0.18250000000E+03  0.00000000000E+00 0.  1.
        -11    1    1    2    0    0  0.29710972210E+01  0.33901828832E+01  0.18104201403E+03  0.18109812700E+03  0.00000000000E+00 0. -1.
         11    1    1    2    0    0  0.36136789251E+01 -0.18804815990E+00 -0.16295779878E+03  0.16299796999E+03  0.00000000000E+00 0.  1.
        -15    1    1    2    0    0 -0.63176683319E+01 -0.46516469497E+01 -0.12541548441E+02  0.14899628143E+02  0.17770000000E+01 0. -1.
         15    1    1    2    0    0 -0.26710781417E+00  0.14495122263E+01 -0.55426668142E+01  0.60042748681E+01  0.17770000000E+01 0.  1.
</event>
<event>
 6    1  0.1097339E-002  0.1867770E+03  0.7546771E-02  0.1065100E+00
        -11   -1    0    0    0    0  0.00000000000E+00  0.00000000000E+00  0.18250000000E+03  0.18250000000E+03  0.00000000000E+00 0. -1.
         11   -1    0    0    0    0 -0.00000000000E+00 -0.00000000000E+00 -0.18250000000E+03  0.18250000000E+03  0.00000000000E+00 0.  1.
        -11    1    1    2    0    0 -0.27032430565E+01  0.13852291637E+01  0.17819709886E+03  0.17822298512E+03  0.00000000000E+00 0. -1.
         11    1    1    2    0    0  0.17160705835E+01 -0.14111467804E+01 -0.15887134782E+03  0.15888688238E+03  0.00000000000E+00 0.  1.
        -15    1    1    2    0    0  0.33780801034E+01 -0.45069478752E-01  0.33140309012E+01  0.50550950789E+01  0.17770000000E+01 0.  1.
         15    1    1    2    0    0 -0.23909076304E+01  0.70987095361E-01 -0.22639781947E+02  0.22835037422E+02  0.17770000000E+01 0.  1.
</event>
<event>
 6    1  0.1097339E-002  0.1831816E+03  0.7546771E-02  0.1067914E+00
        -11   -1    0    0    0    0  0.00000000000E+00  0.00000000000E+00  0.18250000000E+03  0.18250000000E+03  0.00000000000E+00 0. -1.
         11   -1    0    0    0    0 -0.00000000000E+00 -0.00000000000E+00 -0.18250000000E+03  0.18250000000E+03  0.00000000000E+00 0. -1.
        -11    1    1    2    0    0 -0.27341783230E+01  0.13196584514E+01  0.18179308361E+03  0.18181843272E+03  0.00000000000E+00 0. -1.
         11    1    1    2    0    0  0.18637431068E+01  0.18802059141E+01 -0.16048232159E+03  0.16050415650E+03  0.00000000000E+00 0. -1.
        -15    1    1    2    0    0  0.23904314722E+01 -0.29063808494E+01 -0.67693743974E+01  0.79462803246E+01  0.17770000000E+01 0. -1.
         15    1    1    2    0    0 -0.15199962560E+01 -0.29348351609E+00 -0.14541387624E+02  0.14731130446E+02  0.17770000000E+01 0. -1.
</event>
<event>
 6    1  0.1097339E-002  0.1859104E+03  0.7546771E-02  0.1065772E+00
        -11   -1    0    0    0    0  0.00000000000E+00  0.00000000000E+00  0.18250000000E+03  0.18250000000E+03  0.00000000000E+00 0.  1.
         11   -1    0    0    0    0 -0.00000000000E+00 -0.00000000000E+00 -0.18250000000E+03  0.18250000000E+03  0.00000000000E+00 0. -1.
        -11    1    1    2    0    0  0.36144798850E+00  0.89447414132E+01  0.16141538839E+03  0.16166343635E+03  0.00000000000E+00 0.  1.
         11    1    1    2    0    0 -0.33922649737E+01  0.30025108853E+01 -0.17903227456E+03  0.17908958057E+03  0.00000000000E+00 0. -1.
        -15    1    1    2    0    0  0.13943320836E+01 -0.11402335671E+02  0.18298606052E+02  0.21678425523E+02  0.17770000000E+01 0.  1.
         15    1    1    2    0    0  0.16364849016E+01 -0.54491662744E+00 -0.68171987964E+00  0.25685575638E+01  0.17770000000E+01 0. -1.
</event>
<event>
 6    1  0.1097339E-002  0.1836466E+03  0.7546771E-02  0.1067546E+00
        -11   -1    0    0    0    0  0.00000000000E+00  0.00000000000E+00  0.18250000000E+03  0.18250000000E+03  0.00000000000E+00 0. -1.
         11   -1    0    0    0    0 -0.00000000000E+00 -0.00000000000E+00 -0.18250000000E+03  0.18250000000E+03  0.00000000000E+00 0.  1.
        -11    1    1    2    0    0  0.37376835352E+01  0.34493590351E+00  0.18131459131E+03  0.18135344022E+03  0.00000000000E+00 0. -1.
         11    1    1    2    0    0  0.24246973003E+01  0.12785907335E+01 -0.16244130761E+03  0.16246443417E+03  0.00000000000E+00 0.  1.
        -15    1    1    2    0    0 -0.30743920089E+01 -0.25616455388E+01 -0.42503718727E+01  0.61022376344E+01  0.17770000000E+01 0. -1.
         15    1    1    2    0    0 -0.30879888266E+01  0.93811890177E+00 -0.14622911824E+02  0.15079887973E+02  0.17770000000E+01 0.  1.
</event>
<event>
 6    1  0.1097339E-002  0.1829574E+03  0.7546771E-02  0.1068091E+00
        -11   -1    0    0    0    0  0.00000000000E+00  0.00000000000E+00  0.18250000000E+03  0.18250000000E+03  0.00000000000E+00 0.  1.
         11   -1    0    0    0    0 -0.00000000000E+00 -0.00000000000E+00 -0.18250000000E+03  0.18250000000E+03  0.00000000000E+00 0. -1.
        -11    1    1    2    0    0  0.51727714462E+01  0.51559333889E+01  0.18189602666E+03  0.18204259317E+03  0.00000000000E+00 0.  1.
         11    1    1    2    0    0  0.11266103314E+01  0.21210857024E+01 -0.84786703055E+02  0.84820712507E+02  0.00000000000E+00 0. -1.
        -15    1    1    2    0    0 -0.85787820772E+00 -0.39228722242E+00 -0.57198448932E+02  0.57233819840E+02  0.17770000000E+01 0.  1.
         15    1    1    2    0    0 -0.54415035699E+01 -0.68847318689E+01 -0.39910874678E+02  0.40902874478E+02  0.17770000000E+01 0. -1.
</event>
<event>
 6    1  0.1097339E-002  0.1831860E+03  0.7546771E-02  0.1067910E+00
        -11   -1    0    0    0    0  0.00000000000E+00  0.00000000000E+00  0.18250000000E+03  0.18250000000E+03  0.00000000000E+00 0. -1.
         11   -1    0    0    0    0 -0.00000000000E+00 -0.00000000000E+00 -0.18250000000E+03  0.18250000000E+03  0.00000000000E+00 0.  1.
        -11    1    1    2    0    0  0.27475980164E+01  0.40967391092E+00  0.18179279903E+03  0.18181402285E+03  0.00000000000E+00 0. -1.
         11    1    1    2    0    0  0.28405435935E+01  0.99220751703E+00 -0.14396357126E+03  0.14399501038E+03  0.00000000000E+00 0.  1.
        -15    1    1    2    0    0 -0.43899888863E+00  0.19606884364E+01 -0.43905398251E+01  0.51450547251E+01  0.17770000000E+01 0.  1.
         15    1    1    2    0    0 -0.51491427213E+01 -0.33625698643E+01 -0.33438687941E+02  0.34045912046E+02  0.17770000000E+01 0.  1.
</event>
<event>
 6    1  0.1097339E-002  0.1849087E+03  0.7546771E-02  0.1066553E+00
        -11   -1    0    0    0    0  0.00000000000E+00  0.00000000000E+00  0.18250000000E+03  0.18250000000E+03  0.00000000000E+00 0.  1.
         11   -1    0    0    0    0 -0.00000000000E+00 -0.00000000000E+00 -0.18250000000E+03  0.18250000000E+03  0.00000000000E+00 0. -1.
        -11    1    1    2    0    0  0.13747407849E+01  0.69429272711E+01  0.74259694648E+02  0.74596222428E+02  0.00000000000E+00 0.  1.
         11    1    1    2    0    0  0.16436990164E+01 -0.37435091198E+01 -0.18004485807E+03  0.18009127276E+03  0.00000000000E+00 0. -1.
        -15    1    1    2    0    0  0.63846780030E+01 -0.11104221319E+02  0.85925246463E+02  0.86892885514E+02  0.17770000000E+01 0.  1.
         15    1    1    2    0    0 -0.94031178043E+01  0.79048031678E+01  0.19859916957E+02  0.23419619299E+02  0.17770000000E+01 0. -1.
</event>
<event>
 6    1  0.1097339E-002  0.1829671E+03  0.7546771E-02  0.1068084E+00
        -11   -1    0    0    0    0  0.00000000000E+00  0.00000000000E+00  0.18250000000E+03  0.18250000000E+03  0.00000000000E+00 0. -1.
         11   -1    0    0    0    0 -0.00000000000E+00 -0.00000000000E+00 -0.18250000000E+03  0.18250000000E+03  0.00000000000E+00 0.  1.
        -11    1    1    2    0    0  0.10900411076E+01 -0.26206388460E+01  0.94155029110E+02  0.94197799573E+02  0.00000000000E+00 0. -1.
         11    1    1    2    0    0  0.31317784941E+01  0.95343862061E+00 -0.18200347765E+03  0.18203291724E+03  0.00000000000E+00 0.  1.
        -15    1    1    2    0    0  0.53296462012E+00  0.21692469365E+01  0.73246059050E+02  0.73301654680E+02  0.17770000000E+01 0. -1.
         15    1    1    2    0    0 -0.47547842219E+01 -0.50204671114E+00  0.14602389489E+02  0.15467628509E+02  0.17770000000E+01 0.  1.
</event>
<event>
 6    1  0.1097339E-002  0.1713702E+03  0.7546771E-02  0.1077676E+00
        -11   -1    0    0    0    0  0.00000000000E+00  0.00000000000E+00  0.18250000000E+03  0.18250000000E+03  0.00000000000E+00 0. -1.
         11   -1    0    0    0    0 -0.00000000000E+00 -0.00000000000E+00 -0.18250000000E+03  0.18250000000E+03  0.00000000000E+00 0.  1.
        -11    1    1    2    0    0 -0.38977230264E+01  0.96923334946E+01  0.16744191791E+03  0.16776748626E+03  0.00000000000E+00 0. -1.
         11    1    1    2    0    0 -0.18363713756E+01  0.34314313930E+01 -0.17531917433E+03  0.17536236732E+03  0.00000000000E+00 0.  1.
        -15    1    1    2    0    0  0.66790162923E+01 -0.12845623546E+02  0.91283338643E+00  0.14615412985E+02  0.17770000000E+01 0. -1.
         15    1    1    2    0    0 -0.94492189031E+00 -0.27814134137E+00  0.69644230428E+01  0.72547334413E+01  0.17770000000E+01 0.  1.
</event>
<event>
 6    1  0.1097339E-002  0.1825450E+03  0.7546771E-02  0.1068419E+00
        -11   -1    0    0    0    0  0.00000000000E+00  0.00000000000E+00  0.18250000000E+03  0.18250000000E+03  0.00000000000E+00 0. -1.
         11   -1    0    0    0    0 -0.00000000000E+00 -0.00000000000E+00 -0.18250000000E+03  0.18250000000E+03  0.00000000000E+00 0. -1.
        -11    1    1    2    0    0  0.40574521182E+01  0.10295892315E+01  0.18240701272E+03  0.18245503901E+03  0.00000000000E+00 0. -1.
         11    1    1    2    0    0 -0.26316913917E+01  0.51268641145E+00 -0.91005304524E+02  0.91044791715E+02  0.00000000000E+00 0. -1.
        -15    1    1    2    0    0 -0.48515153102E+00 -0.27855130488E+00 -0.37796822032E+02  0.37842706662E+02  0.17770000000E+01 0. -1.
         15    1    1    2    0    0 -0.94060919547E+00 -0.12637243380E+01 -0.53604886161E+02  0.53657462614E+02  0.17770000000E+01 0. -1.
</event>
<event>
 6    1  0.1097339E-002  0.1839549E+03  0.7546771E-02  0.1067303E+00
        -11   -1    0    0    0    0  0.00000000000E+00  0.00000000000E+00  0.18250000000E+03  0.18250000000E+03  0.00000000000E+00 0.  1.
         11   -1    0    0    0    0 -0.00000000000E+00 -0.00000000000E+00 -0.18250000000E+03  0.18250000000E+03  0.00000000000E+00 0. -1.
        -11    1    1    2    0    0  0.28380693902E+01  0.25801033690E+01  0.17717833869E+03  0.17721985010E+03  0.00000000000E+00 0.  1.
         11    1    1    2    0    0 -0.44699493717E+01  0.11034426183E+01 -0.18098658241E+03  0.18104513538E+03  0.00000000000E+00 0. -1.
        -15    1    1    2    0    0  0.12538946736E+01 -0.17220780031E+01  0.25965498069E+01  0.37996847765E+01  0.17770000000E+01 0.  1.
         15    1    1    2    0    0  0.37798530793E+00 -0.19614679842E+01  0.12116939142E+01  0.29353297409E+01  0.17770000000E+01 0. -1.
</event>
<event>
 6    1  0.1097339E-002  0.1872492E+03  0.7546771E-02  0.1064736E+00
        -11   -1    0    0    0    0  0.00000000000E+00  0.00000000000E+00  0.18250000000E+03  0.18250000000E+03  0.00000000000E+00 0.  1.
         11   -1    0    0    0    0 -0.00000000000E+00 -0.00000000000E+00 -0.18250000000E+03  0.18250000000E+03  0.00000000000E+00 0. -1.
        -11    1    1    2    0    0  0.10631066783E+02 -0.66006100577E+01  0.16727892541E+03  0.16774631596E+03  0.00000000000E+00 0.  1.
         11    1    1    2    0    0 -0.20411570056E+01  0.26289260371E+01 -0.17771965958E+03  0.17775082271E+03  0.00000000000E+00 0. -1.
        -15    1    1    2    0    0 -0.10236805743E+02  0.14896998102E+01  0.24304131101E+01  0.10773858836E+02  0.17770000000E+01 0.  1.
         15    1    1    2    0    0  0.16468959651E+01  0.24819842104E+01  0.80103210600E+01  0.87290024874E+01  0.17770000000E+01 0. -1.
</event>
<event>
 6    1  0.1097339E-002  0.1849745E+03  0.7546771E-02  0.1066502E+00
        -11   -1    0    0    0    0  0.00000000000E+00  0.00000000000E+00  0.18250000000E+03  0.18250000000E+03  0.00000000000E+00 0.  1.
         11   -1    0    0    0    0 -0.00000000000E+00 -0.00000000000E+00 -0.18250000000E+03  0.18250000000E+03  0.00000000000E+00 0. -1.
        -11    1    1    2    0    0  0.38785201613E+01  0.31884996999E+01  0.17995545192E+03  0.18002548188E+03  0.00000000000E+00 0.  1.
         11    1    1    2    0    0 -0.25162125537E+01  0.17916975669E+01 -0.13647704434E+03  0.13651199631E+03  0.00000000000E+00 0. -1.
        -15    1    1    2    0    0  0.36065915186E+01 -0.15153742950E+01 -0.41676632116E+02  0.41897532805E+02  0.17770000000E+01 0. -1.
         15    1    1    2    0    0 -0.49688991262E+01 -0.34648229719E+01 -0.18017754691E+01  0.65649890018E+01  0.17770000000E+01 0. -1.
</event>
<event>
 6    1  0.1097339E-002  0.1835984E+03  0.7546771E-02  0.1067584E+00
        -11   -1    0    0    0    0  0.00000000000E+00  0.00000000000E+00  0.18250000000E+03  0.18250000000E+03  0.00000000000E+00 0.  1.
         11   -1    0    0    0    0 -0.00000000000E+00 -0.00000000000E+00 -0.18250000000E+03  0.18250000000E+03  0.00000000000E+00 0.  1.
        -11    1    1    2    0    0 -0.17713860839E+01 -0.29221731198E+01  0.68883468301E+02  0.68968174614E+02  0.00000000000E+00 0.  1.
         11    1    1    2    0    0 -0.88386307742E+01  0.51359299595E+01 -0.18111329357E+03  0.18140155534E+03  0.00000000000E+00 0.  1.
        -15    1    1    2    0    0  0.14832352799E+02 -0.59067842742E+01  0.96658323115E+02  0.97984069861E+02  0.17770000000E+01 0.  1.
         15    1    1    2    0    0 -0.42223359408E+01  0.36930274345E+01  0.15571502154E+02  0.16646200190E+02  0.17770000000E+01 0. -1.
</event>
<event>
 6    1  0.1097339E-002  0.1881878E+03  0.7546771E-02  0.1064015E+00
        -11   -1    0    0    0    0  0.00000000000E+00  0.00000000000E+00  0.18250000000E+03  0.18250000000E+03  0.00000000000E+00 0. -1.
         11   -1    0    0    0    0 -0.00000000000E+00 -0.00000000000E+00 -0.18250000000E+03  0.18250000000E+03  0.00000000000E+00 0.  1.
        -11    1    1    2    0    0  0.33701419390E+01 -0.71085392926E+00  0.17677864188E+03  0.17681219244E+03  0.00000000000E+00 0. -1.
         11    1    1    2    0    0  0.42882899251E+01  0.30003593157E+01 -0.14474044690E+03  0.14483503911E+03  0.00000000000E+00 0.  1.
        -15    1    1    2    0    0 -0.11113403962E+02 -0.21769972215E+00 -0.24832095692E+00  0.11259419749E+02  0.17770000000E+01 0. -1.
         15    1    1    2    0    0  0.34549720974E+01 -0.20718056643E+01 -0.31789874027E+02  0.32093348697E+02  0.17770000000E+01 0.  1.
</event>
<event>
 6    1  0.1097339E-002  0.1891731E+03  0.7546771E-02  0.1063264E+00
        -11   -1    0    0    0    0  0.00000000000E+00  0.00000000000E+00  0.18250000000E+03  0.18250000000E+03  0.00000000000E+00 0.  1.
         11   -1    0    0    0    0 -0.00000000000E+00 -0.00000000000E+00 -0.18250000000E+03  0.18250000000E+03  0.00000000000E+00 0. -1.
        -11    1    1    2    0    0  0.16626521650E+01  0.44971547973E+01  0.17140612519E+03  0.17147317156E+03  0.00000000000E+00 0.  1.
         11    1    1    2    0    0  0.38993550148E+00 -0.29167659590E+01 -0.17580222498E+03  0.17582685199E+03  0.00000000000E+00 0. -1.
        -15    1    1    2    0    0 -0.71344025055E+01  0.20720343123E+00 -0.33636411746E+01  0.80879195918E+01  0.17770000000E+01 0. -1.
         15    1    1    2    0    0  0.50818148390E+01 -0.17875922696E+01  0.77597409651E+01  0.96120568572E+01  0.17770000000E+01 0.  1.
</event>
<event>
 6    1  0.1097339E-002  0.1848086E+03  0.7546771E-02  0.1066632E+00
        -11   -1    0    0    0    0  0.00000000000E+00  0.00000000000E+00  0.18250000000E+03  0.18250000000E+03  0.00000000000E+00 0. -1.
         11   -1    0    0    0    0 -0.00000000000E+00 -0.00000000000E+00 -0.18250000000E+03  0.18250000000E+03  0.00000000000E+00 0.  1.
        -11    1    1    2    0    0 -0.70064686650E+00  0.32208964009E+01  0.13852470684E+03  0.13856391841E+03  0.00000000000E+00 0. -1.
         11    1    1    2    0    0  0.16679647986E+01 -0.47013158428E+01 -0.18012232512E+03  0.18019138848E+03  0.00000000000E+00 0.  1.
        -15    1    1    2    0    0 -0.95523374788E+00  0.52181516116E+01  0.13111069415E+01  0.57461559470E+01  0.17770000000E+01 0.  1.
         15    1    1    2    0    0 -0.12084184192E-01 -0.37377321697E+01  0.40286511337E+02  0.40498537165E+02  0.17770000000E+01 0.  1.
</event>
<event>
 6    1  0.1097339E-002  0.1723986E+03  0.7546771E-02  0.1076792E+00
        -11   -1    0    0    0    0  0.00000000000E+00  0.00000000000E+00  0.18250000000E+03  0.18250000000E+03  0.00000000000E+00 0. -1.
         11   -1    0    0    0    0 -0.00000000000E+00 -0.00000000000E+00 -0.18250000000E+03  0.18250000000E+03  0.00000000000E+00 0.  1.
        -11    1    1    2    0    0  0.45130057865E+01  0.73386243645E+01  0.17449930935E+03  0.17471185304E+03  0.00000000000E+00 0. -1.
         11    1    1    2    0    0  0.81884902170E+00  0.88758796556E+01 -0.17029997628E+03  0.17053308674E+03  0.00000000000E+00 0.  1.
        -15    1    1    2    0    0 -0.55791751575E+01 -0.91679075801E+01 -0.57732351572E+01  0.12315262807E+02  0.17770000000E+01 0.  1.
         15    1    1    2    0    0  0.24732034929E+00 -0.70465964401E+01  0.15739020862E+01  0.74397974113E+01  0.17770000000E+01 0. -1.
</event>
<event>
 6    1  0.1097339E-002  0.1836379E+03  0.7546771E-02  0.1067553E+00
        -11   -1    0    0    0    0  0.00000000000E+00  0.00000000000E+00  0.18250000000E+03  0.18250000000E+03  0.00000000000E+00 0. -1.
         11   -1    0    0    0    0 -0.00000000000E+00 -0.00000000000E+00 -0.18250000000E+03  0.18250000000E+03  0.00000000000E+00 0.  1.
        -11    1    1    2    0    0  0.27053025978E+01  0.19447670508E+01  0.18133151194E+03  0.18136211843E+03  0.00000000000E+00 0. -1.
         11    1    1    2    0    0 -0.20727035321E+01 -0.42813303219E+01 -0.17294504018E+03  0.17301044134E+03  0.00000000000E+00 0.  1.
        -15    1    1    2    0    0  0.19982272458E+01  0.51707005441E+00 -0.25039445088E+01  0.36996946726E+01  0.17770000000E+01 0.  1.
         15    1    1    2    0    0 -0.26308263114E+01  0.18194932167E+01 -0.58825272523E+01  0.69277455583E+01  0.17770000000E+01 0.  1.
</event>
<event>
 6    1  0.1097339E-002  0.1876053E+03  0.7546771E-02  0.1064462E+00
        -11   -1    0    0    0    0  0.00000000000E+00  0.00000000000E+00  0.18250000000E+03  0.18250000000E+03  0.00000000000E+00 0. -1.
         11   -1    0    0    0    0 -0.00000000000E+00 -0.00000000000E+00 -0.18250000000E+03  0.18250000000E+03  0.00000000000E+00 0.  1.
        -11    1    1    2    0    0 -0.80401480696E+00  0.12353461969E+02  0.17696225096E+03  0.17739473704E+03  0.00000000000E+00 0. -1.
         11    1    1    2    0    0  0.10918409504E+01  0.20731244446E+01 -0.16442090044E+03  0.16443759443E+03  0.00000000000E+00 0.  1.
        -15    1    1    2    0    0 -0.14872811963E+01 -0.95719103593E+00 -0.86185064150E+01  0.89757786215E+01  0.17770000000E+01 0.  1.
         15    1    1    2    0    0  0.11994550528E+01 -0.13469395378E+02 -0.39228441124E+01  0.14191889909E+02  0.17770000000E+01 0.  1.
</event>
<event>
 6    1  0.1097339E-002  0.1828926E+03  0.7546771E-02  0.1068143E+00
        -11   -1    0    0    0    0  0.00000000000E+00  0.00000000000E+00  0.18250000000E+03  0.18250000000E+03  0.00000000000E+00 0.  1.
         11   -1    0    0    0    0 -0.00000000000E+00 -0.00000000000E+00 -0.18250000000E+03  0.18250000000E+03  0.00000000000E+00 0. -1.
        -11    1    1    2    0    0  0.23024953532E+01 -0.11623377737E+01  0.18208912258E+03  0.18210738886E+03  0.00000000000E+00 0.  1.
         11    1    1    2    0    0 -0.43295998201E+00  0.29159370434E+01 -0.16852813164E+03  0.16855391213E+03  0.00000000000E+00 0. -1.
        -15    1    1    2    0    0 -0.11965925821E+01 -0.13648789955E+00 -0.56774853777E+01  0.60697637490E+01  0.17770000000E+01 0. -1.
         15    1    1    2    0    0 -0.67294278907E+00 -0.16171113702E+01 -0.78835055718E+01  0.82689352568E+01  0.17770000000E+01 0.  1.
</event>
<event>
 6    1  0.1097339E-002  0.1836074E+03  0.7546771E-02  0.1067577E+00
        -11   -1    0    0    0    0  0.00000000000E+00  0.00000000000E+00  0.18250000000E+03  0.18250000000E+03  0.00000000000E+00 0.  1.
         11   -1    0    0    0    0 -0.00000000000E+00 -0.00000000000E+00 -0.18250000000E+03  0.18250000000E+03  0.00000000000E+00 0.  1.
        -11    1    1    2    0    0 -0.21767480554E+01 -0.20176722267E+01  0.18136828435E+03  0.18139256821E+03  0.00000000000E+00 0.  1.
         11    1    1    2    0    0 -0.13626875020E+01  0.73996873532E+01 -0.14170301068E+03  0.14190262692E+03  0.00000000000E+00 0.  1.
        -15    1    1    2    0    0 -0.26653173530E+01 -0.47901972042E+01 -0.12307563019E+02  0.13589839672E+02  0.17770000000E+01 0. -1.
         15    1    1    2    0    0  0.62047529103E+01 -0.59181792227E+00 -0.27357710652E+02  0.28114965201E+02  0.17770000000E+01 0.  1.
</event>
<event>
 6    1  0.1097339E-002  0.1885219E+03  0.7546771E-02  0.1063760E+00
        -11   -1    0    0    0    0  0.00000000000E+00  0.00000000000E+00  0.18250000000E+03  0.18250000000E+03  0.00000000000E+00 0.  1.
         11   -1    0    0    0    0 -0.00000000000E+00 -0.00000000000E+00 -0.18250000000E+03  0.18250000000E+03  0.00000000000E+00 0. -1.
        -11    1    1    2    0    0 -0.36661735395E+01 -0.21629816100E+01  0.16351721015E+03  0.16357260570E+03  0.00000000000E+00 0.  1.
         11    1    1    2    0    0 -0.26045340702E+01  0.10054238350E+01 -0.17645597384E+03  0.17647805863E+03  0.00000000000E+00 0. -1.
        -15    1    1    2    0    0  0.67212635291E+01  0.15898095246E+01  0.18100450390E+02  0.19454740067E+02  0.17770000000E+01 0. -1.
         15    1    1    2    0    0 -0.45055591935E+00 -0.43225174956E+00 -0.51616867017E+01  0.54945956010E+01  0.17770000000E+01 0. -1.
</event>
<event>
 6    1  0.1097339E-002  0.1829831E+03  0.7546771E-02  0.1068071E+00
        -11   -1    0    0    0    0  0.00000000000E+00  0.00000000000E+00  0.18250000000E+03  0.18250000000E+03  0.00000000000E+00 0.  1.
         11   -1    0    0    0    0 -0.00000000000E+00 -0.00000000000E+00 -0.18250000000E+03  0.18250000000E+03  0.00000000000E+00 0.  1.
        -11    1    1    2    0    0 -0.51116075648E+01  0.47172874095E+01  0.18188397942E+03  0.18201693136E+03  0.00000000000E+00 0.  1.
         11    1    1    2    0    0  0.11796336560E+01  0.11313021320E+01 -0.94461742827E+02  0.94475881779E+02  0.00000000000E+00 0.  1.
        -15    1    1    2    0    0  0.79339283134E+01 -0.35842624078E+01 -0.55801380165E+02  0.56504388439E+02  0.17770000000E+01 0. -1.
         15    1    1    2    0    0 -0.40019544046E+01 -0.22643271336E+01 -0.31620856428E+02  0.32002798420E+02  0.17770000000E+01 0.  1.
</event>
<event>
 6    1  0.1097339E-002  0.1838074E+03  0.7546771E-02  0.1067419E+00
        -11   -1    0    0    0    0  0.00000000000E+00  0.00000000000E+00  0.18250000000E+03  0.18250000000E+03  0.00000000000E+00 0. -1.
         11   -1    0    0    0    0 -0.00000000000E+00 -0.00000000000E+00 -0.18250000000E+03  0.18250000000E+03  0.00000000000E+00 0.  1.
        -11    1    1    2    0    0  0.24354460035E+01  0.84086329902E+00  0.17172059045E+03  0.17173991858E+03  0.00000000000E+00 0. -1.
         11    1    1    2    0    0 -0.21562908340E+01  0.48430031958E+01 -0.18111502279E+03  0.18119259298E+03  0.00000000000E+00 0.  1.
        -15    1    1    2    0    0 -0.13212357695E+01 -0.41091164064E+01  0.42785178803E+01  0.63319780362E+01  0.17770000000E+01 0. -1.
         15    1    1    2    0    0  0.10420805999E+01 -0.15747500885E+01  0.51159144590E+01  0.57355104018E+01  0.17770000000E+01 0.  1.
</event>
<event>
 6    1  0.1097339E-002  0.1837693E+03  0.7546771E-02  0.1067449E+00
        -11   -1    0    0    0    0  0.00000000000E+00  0.00000000000E+00  0.18250000000E+03  0.18250000000E+03  0.00000000000E+00 0.  1.
         11   -1    0    0    0    0 -0.00000000000E+00 -0.00000000000E+00 -0.18250000000E+03  0.18250000000E+03  0.00000000000E+00 0. -1.
        -11    1    1    2    0    0 -0.99083063684E+00  0.13190885503E+02  0.66142056195E+02  0.67451855448E+02  0.00000000000E+00 0.  1.
         11    1    1    2    0    0 -0.49543757418E+01 -0.79436509858E+01 -0.18098871647E+03  0.18123068979E+03  0.00000000000E+00 0. -1.
        -15    1    1    2    0    0 -0.13552823743E+01 -0.63138486115E+01  0.91997400088E+02  0.92240884788E+02  0.17770000000E+01 0.  1.
         15    1    1    2    0    0  0.73004887530E+01  0.10666140943E+01  0.22849260190E+02  0.24076569977E+02  0.17770000000E+01 0. -1.
</event>
<event>
 6    1  0.1097339E-002  0.1834625E+03  0.7546771E-02  0.1067691E+00
        -11   -1    0    0    0    0  0.00000000000E+00  0.00000000000E+00  0.18250000000E+03  0.18250000000E+03  0.00000000000E+00 0. -1.
         11   -1    0    0    0    0 -0.00000000000E+00 -0.00000000000E+00 -0.18250000000E+03  0.18250000000E+03  0.00000000000E+00 0.  1.
        -11    1    1    2    0    0  0.26922058809E+01  0.13981489044E+01  0.15332864163E+03  0.15335864872E+03  0.00000000000E+00 0. -1.
         11    1    1    2    0    0  0.41393761851E+01 -0.86273224020E+00 -0.18148820510E+03  0.18153745435E+03  0.00000000000E+00 0.  1.
        -15    1    1    2    0    0 -0.59820903713E+01  0.60683856000E+00  0.10006018764E+02  0.11808124269E+02  0.17770000000E+01 0.  1.
         15    1    1    2    0    0 -0.84949169470E+00 -0.11422552242E+01  0.18153544705E+02  0.18295772667E+02  0.17770000000E+01 0.  1.
</event>
<event>
 6    1  0.1097339E-002  0.1864061E+03  0.7546771E-02  0.1065387E+00
        -11   -1    0    0    0    0  0.00000000000E+00  0.00000000000E+00  0.18250000000E+03  0.18250000000E+03  0.00000000000E+00 0.  1.
         11   -1    0    0    0    0 -0.00000000000E+00 -0.00000000000E+00 -0.18250000000E+03  0.18250000000E+03  0.00000000000E+00 0.  1.
        -11    1    1    2    0    0  0.24547107535E+01 -0.71449788626E+01  0.17843399740E+03  0.17859386260E+03  0.00000000000E+00 0.  1.
         11    1    1    2    0    0 -0.21760628178E+01  0.55719840274E+01 -0.10810459391E+03  0.10826996574E+03  0.00000000000E+00 0.  1.
        -15    1    1    2    0    0 -0.23310123363E+01 -0.15407848013E+02 -0.43774428547E+02  0.46499394862E+02  0.17770000000E+01 0.  1.
         15    1    1    2    0    0  0.20523644007E+01  0.16980842848E+02 -0.26554974941E+02  0.31636776804E+02  0.17770000000E+01 0. -1.
</event>
<event>
 6    1  0.1097339E-002  0.1825656E+03  0.7546771E-02  0.1068403E+00
        -11   -1    0    0    0    0  0.00000000000E+00  0.00000000000E+00  0.18250000000E+03  0.18250000000E+03  0.00000000000E+00 0.  1.
         11   -1    0    0    0    0 -0.00000000000E+00 -0.00000000000E+00 -0.18250000000E+03  0.18250000000E+03  0.00000000000E+00 0. -1.
        -11    1    1    2    0    0  0.54635959696E+00 -0.38423036849E-01  0.23331632964E+02  0.23338060800E+02  0.00000000000E+00 0.  1.
         11    1    1    2    0    0 -0.18518095540E+01 -0.30795655603E+01 -0.18239902320E+03  0.18243441722E+03  0.00000000000E+00 0. -1.
        -15    1    1    2    0    0 -0.81782387793E+00 -0.50489322237E+00  0.82328004944E+02  0.82352789146E+02  0.17770000000E+01 0.  1.
         15    1    1    2    0    0  0.21232738349E+01  0.36228818195E+01  0.76739385291E+02  0.76874732834E+02  0.17770000000E+01 0.  1.
</event>
<event>
 6    1  0.1097339E-002  0.1841983E+03  0.7546771E-02  0.1067111E+00
        -11   -1    0    0    0    0  0.00000000000E+00  0.00000000000E+00  0.18250000000E+03  0.18250000000E+03  0.00000000000E+00 0.  1.
         11   -1    0    0    0    0 -0.00000000000E+00 -0.00000000000E+00 -0.18250000000E+03  0.18250000000E+03  0.00000000000E+00 0.  1.
        -11    1    1    2    0    0  0.33740991085E+01 -0.78030115118E+01  0.18060173563E+03  0.18080171030E+03  0.00000000000E+00 0.  1.
         11    1    1    2    0    0 -0.55365684668E+00  0.98578427394E+00 -0.66105268313E+02  0.66114936325E+02  0.00000000000E+00 0.  1.
        -15    1    1    2    0    0  0.12925887996E+01  0.37008921939E+01 -0.95239943690E+00  0.44081949280E+01  0.17770000000E+01 0. -1.
         15    1    1    2    0    0 -0.41130310614E+01  0.31163350439E+01 -0.11354406788E+03  0.11367515845E+03  0.17770000000E+01 0.  1.
</event>
<event>
 6    1  0.1097339E-002  0.1883864E+03  0.7546771E-02  0.1063863E+00
        -11   -1    0    0    0    0  0.00000000000E+00  0.00000000000E+00  0.18250000000E+03  0.18250000000E+03  0.00000000000E+00 0.  1.
         11   -1    0    0    0    0 -0.00000000000E+00 -0.00000000000E+00 -0.18250000000E+03  0.18250000000E+03  0.00000000000E+00 0.  1.
        -11    1    1    2    0    0 -0.41176359384E+00 -0.98030733795E+01  0.15374414295E+03  0.15405690925E+03  0.00000000000E+00 0.  1.
         11    1    1    2    0    0 -0.17973163238E+01 -0.20414777963E+01 -0.17659267478E+03  0.17661361998E+03  0.00000000000E+00 0.  1.
        -15    1    1    2    0    0  0.55804635251E+00  0.17307729947E+01 -0.44453471199E+01  0.51211161778E+01  0.17770000000E+01 0.  1.
         15    1    1    2    0    0  0.16510335651E+01  0.10113778181E+02  0.27293878951E+02  0.29208354594E+02  0.17770000000E+01 0.  1.
</event>
<event>
 6    1  0.1097339E-002  0.1862273E+03  0.7546771E-02  0.1065526E+00
        -11   -1    0    0    0    0  0.00000000000E+00  0.00000000000E+00  0.18250000000E+03  0.18250000000E+03  0.00000000000E+00 0.  1.
         11   -1    0    0    0    0 -0.00000000000E+00 -0.00000000000E+00 -0.18250000000E+03  0.18250000000E+03  0.00000000000E+00 0. -1.
        -11    1    1    2    0    0  0.11577947425E+01 -0.20441017884E+01  0.16054433349E+03  0.16056152047E+03  0.00000000000E+00 0.  1.
         11    1    1    2    0    0 -0.13595356037E+02  0.15081748256E+01 -0.17824859952E+03  0.17877268116E+03  0.00000000000E+00 0. -1.
        -15    1    1    2    0    0  0.56598394834E+01 -0.59141319943E+01  0.11763545758E+02  0.14441242260E+02  0.17770000000E+01 0.  1.
         15    1    1    2    0    0  0.67777218110E+01  0.64500589571E+01  0.59407202704E+01  0.11224556108E+02  0.17770000000E+01 0. -1.
</event>
<event>
 6    1  0.1097339E-002  0.1875170E+03  0.7546771E-02  0.1064530E+00
        -11   -1    0    0    0    0  0.00000000000E+00  0.00000000000E+00  0.18250000000E+03  0.18250000000E+03  0.00000000000E+00 0. -1.
         11   -1    0    0    0    0 -0.00000000000E+00 -0.00000000000E+00 -0.18250000000E+03  0.18250000000E+03  0.00000000000E+00 0. -1.
        -11    1    1    2    0    0  0.13248494716E+01 -0.49148718666E+01  0.17741001296E+03  0.17748302423E+03  0.00000000000E+00 0. -1.
         11    1    1    2    0    0 -0.26230624966E+01 -0.16268103336E+01 -0.15578770514E+03  0.15581827890E+03  0.00000000000E+00 0. -1.
        -15    1    1    2    0    0 -0.45074628327E+01  0.10843005974E+02 -0.39369547215E+01  0.12511808072E+02  0.17770000000E+01 0. -1.
         15    1    1    2    0    0  0.58056758576E+01 -0.43013237740E+01 -0.17685353102E+02  0.19186888797E+02  0.17770000000E+01 0.  1.
</event>
<event>
 6    1  0.1114784E-002  0.1765811E+03  0.7546771E-02  0.1073266E+00
        -11   -1    0    0    0    0  0.00000000000E+00  0.00000000000E+00  0.18250000000E+03  0.18250000000E+03  0.00000000000E+00 0. -1.
         11   -1    0    0    0    0 -0.00000000000E+00 -0.00000000000E+00 -0.18250000000E+03  0.18250000000E+03  0.00000000000E+00 0.  1.
        -11    1    1    2    0    0 -0.22419706994E+01 -0.20470381511E+01  0.17641831632E+03  0.17644443638E+03  0.00000000000E+00 0. -1.
         11    1    1    2    0    0  0.52143752748E+01  0.23815284530E+01 -0.17663746713E+03  0.17673046195E+03  0.00000000000E+00 0.  1.
        -15    1    1    2    0    0 -0.38596089843E+01 -0.28838786323E+01 -0.40008152967E+01  0.65098071796E+01  0.17770000000E+01 0.  1.
         15    1    1    2    0    0  0.88720440892E+00  0.25493883304E+01  0.42199661102E+01  0.53152944879E+01  0.17770000000E+01 0.  1.
</event>
<event>
 6    1  0.1097339E-002  0.1939644E+03  0.7546771E-02  0.1059679E+00
        -11   -1    0    0    0    0  0.00000000000E+00  0.00000000000E+00  0.18250000000E+03  0.18250000000E+03  0.00000000000E+00 0. -1.
         11   -1    0    0    0    0 -0.00000000000E+00 -0.00000000000E+00 -0.18250000000E+03  0.18250000000E+03  0.00000000000E+00 0. -1.
        -11    1    1    2    0    0 -0.21407994291E+01  0.17130852392E+01  0.17101363869E+03  0.17103561705E+03  0.00000000000E+00 0. -1.
         11    1    1    2    0    0  0.35491002720E+01 -0.23836512022E+01 -0.53960799866E+02  0.54129897727E+02  0.00000000000E+00 0. -1.
        -15    1    1    2    0    0  0.59965760265E+01  0.82934568261E+01  0.87435585736E+01  0.13577477516E+02  0.17770000000E+01 0.  1.
         15    1    1    2    0    0 -0.74048768694E+01 -0.76228908631E+01 -0.12579639740E+03  0.12625700770E+03  0.17770000000E+01 0. -1.
</event>
<event>
 6    1  0.1097339E-002  0.1897081E+03  0.7546771E-02  0.1062858E+00
        -11   -1    0    0    0    0  0.00000000000E+00  0.00000000000E+00  0.18250000000E+03  0.18250000000E+03  0.00000000000E+00 0. -1.
         11   -1    0    0    0    0 -0.00000000000E+00 -0.00000000000E+00 -0.18250000000E+03  0.18250000000E+03  0.00000000000E+00 0. -1.
        -11    1    1    2    0    0 -0.19138129425E+01  0.28912451121E+01  0.72661437635E+02  0.72744116583E+02  0.00000000000E+00 0. -1.
         11    1    1    2    0    0 -0.17515520424E+01 -0.64603038774E+01 -0.17516408061E+03  0.17529192393E+03  0.00000000000E+00 0. -1.
        -15    1    1    2    0    0  0.28347611320E+01  0.22921666446E+01 -0.66484475714E+01  0.77877777775E+01  0.17770000000E+01 0.  1.
         15    1    1    2    0    0  0.83060385294E+00  0.12768921207E+01  0.10915109054E+03  0.10917618171E+03  0.17770000000E+01 0. -1.
</event>
<event>
 6    1  0.1097339E-002  0.1832643E+03  0.7546771E-02  0.1067848E+00
        -11   -1    0    0    0    0  0.00000000000E+00  0.00000000000E+00  0.18250000000E+03  0.18250000000E+03  0.00000000000E+00 0. -1.
         11   -1    0    0    0    0 -0.00000000000E+00 -0.00000000000E+00 -0.18250000000E+03  0.18250000000E+03  0.00000000000E+00 0.  1.
        -11    1    1    2    0    0 -0.60232072206E+01  0.19599682630E+01  0.18162533219E+03  0.18173574715E+03  0.00000000000E+00 0. -1.
         11    1    1    2    0    0 -0.71605113658E+00  0.29486093124E+01 -0.92232492857E+02  0.92282391412E+02  0.00000000000E+00 0.  1.
        -15    1    1    2    0    0  0.77445023211E+01 -0.29889176398E+01 -0.22785331373E+02  0.24315427194E+02  0.17770000000E+01 0.  1.
         15    1    1    2    0    0 -0.10052439639E+01 -0.19196599356E+01 -0.66607507956E+02  0.66666434244E+02  0.17770000000E+01 0. -1.
</event>
<event>
 6    1  0.1097339E-002  0.1851785E+03  0.7546771E-02  0.1066343E+00
        -11   -1    0    0    0    0  0.00000000000E+00  0.00000000000E+00  0.18250000000E+03  0.18250000000E+03  0.00000000000E+00 0.  1.
         11   -1    0    0    0    0 -0.00000000000E+00 -0.00000000000E+00 -0.18250000000E+03  0.18250000000E+03  0.00000000000E+00 0.  1.
        -11    1    1    2    0    0  0.28409855036E+01 -0.18611106456E+01  0.17579342176E+03  0.17582622690E+03  0.00000000000E+00 0.  1.
         11    1    1    2    0    0  0.14748919289E+01 -0.19814480089E+01 -0.17980457971E+03  0.17982154579E+03  0.00000000000E+00 0.  1.
        -15    1    1    2    0    0 -0.19133786671E+01 -0.14637804472E+00  0.34607008587E+01  0.43378132612E+01  0.17770000000E+01 0.  1.
         15    1    1    2    0    0 -0.24024987653E+01  0.39889366992E+01  0.55045709742E+00  0.50144140559E+01  0.17770000000E+01 0. -1.
</event>
<event>
 6    1  0.1097339E-002  0.2112173E+03  0.7546771E-02  0.1047647E+00
        -11   -1    0    0    0    0  0.00000000000E+00  0.00000000000E+00  0.18250000000E+03  0.18250000000E+03  0.00000000000E+00 0. -1.
         11   -1    0    0    0    0 -0.00000000000E+00 -0.00000000000E+00 -0.18250000000E+03  0.18250000000E+03  0.00000000000E+00 0.  1.
        -11    1    1    2    0    0  0.42187401348E+01  0.14382930977E+01  0.14416403570E+03  0.14423292150E+03  0.00000000000E+00 0. -1.
         11    1    1    2    0    0 -0.18863295419E+01 -0.30579182541E+01 -0.15374074234E+03  0.15378271996E+03  0.00000000000E+00 0.  1.
        -15    1    1    2    0    0 -0.72199277060E+01 -0.48355303959E+01  0.37148896955E+02  0.38193035808E+02  0.17770000000E+01 0. -1.
         15    1    1    2    0    0  0.48875171131E+01  0.64551555524E+01 -0.27572190319E+02  0.28791322733E+02  0.17770000000E+01 0.  1.
</event>
<event>
 6    1  0.1097339E-002  0.2024065E+03  0.7546771E-02  0.1053628E+00
        -11   -1    0    0    0    0  0.00000000000E+00  0.00000000000E+00  0.18250000000E+03  0.18250000000E+03  0.00000000000E+00 0. -1.
         11   -1    0    0    0    0 -0.00000000000E+00 -0.00000000000E+00 -0.18250000000E+03  0.18250000000E+03  0.00000000000E+00 0.  1.
        -11    1    1    2    0    0  0.50488398641E+00  0.22190051013E+01  0.14586640057E+03  0.14588415166E+03  0.00000000000E+00 0. -1.
         11    1    1    2    0    0 -0.10521528047E+02  0.22054209707E+01 -0.16223774372E+03  0.16259351746E+03  0.00000000000E+00 0.  1.
        -15    1    1    2    0    0  0.12954296692E+01 -0.14275413494E+01  0.35297215942E+02  0.35394451466E+02  0.17770000000E+01 0.  1.
         15    1    1    2    0    0  0.87212143913E+01 -0.29968847226E+01 -0.18925872794E+02  0.21127879413E+02  0.17770000000E+01 0.  1.
</event>
<event>
 6    1  0.1097339E-002  0.1833503E+03  0.7546771E-02  0.1067780E+00
        -11   -1    0    0    0    0  0.00000000000E+00  0.00000000000E+00  0.18250000000E+03  0.18250000000E+03  0.00000000000E+00 0. -1.
         11   -1    0    0    0    0 -0.00000000000E+00 -0.00000000000E+00 -0.18250000000E+03  0.18250000000E+03  0.00000000000E+00 0. -1.
        -11    1    1    2    0    0 -0.27500018858E+01 -0.11673486156E+01  0.18162508268E+03  0.18164965145E+03  0.00000000000E+00 0. -1.
         11    1    1    2    0    0 -0.20130149717E+01  0.49299843439E+00 -0.73064792064E+02  0.73094179769E+02  0.00000000000E+00 0. -1.
        -15    1    1    2    0    0  0.47227151716E+01  0.14290192304E+01 -0.73593561892E+01  0.90368128825E+01  0.17770000000E+01 0.  1.
         15    1    1    2    0    0  0.40301685851E-01 -0.75466904923E+00 -0.10120093443E+03  0.10121935590E+03  0.17770000000E+01 0.  1.
</event>
<event>
 6    1  0.1097339E-002  0.1829307E+03  0.7546771E-02  0.1068113E+00
        -11   -1    0    0    0    0  0.00000000000E+00  0.00000000000E+00  0.18250000000E+03  0.18250000000E+03  0.00000000000E+00 0. -1.
         11   -1    0    0    0    0 -0.00000000000E+00 -0.00000000000E+00 -0.18250000000E+03  0.18250000000E+03  0.00000000000E+00 0. -1.
        -11    1    1    2    0    0 -0.12610325810E+00  0.44437043190E+01  0.18201506257E+03  0.18206934232E+03  0.00000000000E+00 0. -1.
         11    1    1    2    0    0  0.14299257702E+01 -0.24916069995E+01 -0.11381286477E+03  0.11384911498E+03  0.00000000000E+00 0. -1.
        -15    1    1    2    0    0  0.32983428990E+01 -0.31912512564E+01 -0.19381757967E+02  0.19996835284E+02  0.17770000000E+01 0.  1.
         15    1    1    2    0    0 -0.46021654111E+01  0.12391539369E+01 -0.48820439825E+02  0.49084707422E+02  0.17770000000E+01 0. -1.
</event>
<event>
 6    1  0.1097339E-002  0.1902714E+03  0.7546771E-02  0.1062432E+00
        -11   -1    0    0    0    0  0.00000000000E+00  0.00000000000E+00  0.18250000000E+03  0.18250000000E+03  0.00000000000E+00 0. -1.
         11   -1    0    0    0    0 -0.00000000000E+00 -0.00000000000E+00 -0.18250000000E+03  0.18250000000E+03  0.00000000000E+00 0.  1.
        -11    1    1    2    0    0 -0.47540767449E+01 -0.99664286277E+01  0.15953766321E+03  0.15991934508E+03  0.00000000000E+00 0. -1.
         11    1    1    2    0    0  0.27340596602E+01  0.56801556212E+01 -0.17461488833E+03  0.17472864241E+03  0.00000000000E+00 0.  1.
        -15    1    1    2    0    0  0.11368074179E+01 -0.11097008011E+01 -0.70750745739E+01  0.74658004393E+01  0.17770000000E+01 0. -1.
         15    1    1    2    0    0  0.88320966680E+00  0.53959738076E+01  0.22152299692E+02  0.22886212078E+02  0.17770000000E+01 0.  1.
</event>
<event>
 6    1  0.1097339E-002  0.1771449E+03  0.7546771E-02  0.1072799E+00
        -11   -1    0    0    0    0  0.00000000000E+00  0.00000000000E+00  0.18250000000E+03  0.18250000000E+03  0.00000000000E+00 0. -1.
         11   -1    0    0    0    0 -0.00000000000E+00 -0.00000000000E+00 -0.18250000000E+03  0.18250000000E+03  0.00000000000E+00 0. -1.
        -11    1    1    2    0    0 -0.13479224650E+01 -0.21886106988E+01  0.17762097352E+03  0.17763957089E+03  0.00000000000E+00 0. -1.
         11    1    1    2    0    0 -0.61404107938E+00  0.53591962975E+01 -0.17658900915E+03  0.17667137907E+03  0.00000000000E+00 0. -1.
        -15    1    1    2    0    0  0.99849389477E+00  0.25063818499E+01 -0.29399909605E+01  0.43680906450E+01  0.17770000000E+01 0.  1.
         15    1    1    2    0    0  0.96346964962E+00 -0.56769674486E+01  0.19080265902E+01  0.63209593929E+01  0.17770000000E+01 0. -1.
</event>
<event>
 6    1  0.1097339E-002  0.1835457E+03  0.7546771E-02  0.1067626E+00
        -11   -1    0    0    0    0  0.00000000000E+00  0.00000000000E+00  0.18250000000E+03  0.18250000000E+03  0.00000000000E+00 0. -1.
         11   -1    0    0    0    0 -0.00000000000E+00 -0.00000000000E+00 -0.18250000000E+03  0.18250000000E+03  0.00000000000E+00 0. -1.
        -11    1    1    2    0    0 -0.18756608174E+01 -0.14589653611E+01  0.62658312170E+02  0.62703355312E+02  0.00000000000E+00 0. -1.
         11    1    1    2    0    0  0.35078757799E+01 -0.13042383311E+01 -0.18141574758E+03  0.18145434605E+03  0.00000000000E+00 0. -1.
        -15    1    1    2    0    0 -0.21566917976E+00  0.25159374360E+01  0.12798645493E+01  0.33424895873E+01  0.17770000000E+01 0.  1.
         15    1    1    2    0    0 -0.14165457827E+01  0.24726625630E+00  0.11747757086E+03  0.11749980905E+03  0.17770000000E+01 0. -1.
</event>
<event>
 6    1  0.1097339E-002  0.1837623E+03  0.7546771E-02  0.1067454E+00
        -11   -1    0    0    0    0  0.00000000000E+00  0.00000000000E+00  0.18250000000E+03  0.18250000000E+03  0.00000000000E+00 0.  1.
         11   -1    0    0    0    0 -0.00000000000E+00 -0.00000000000E+00 -0.18250000000E+03  0.18250000000E+03  0.00000000000E+00 0. -1.
        -11    1    1    2    0    0 -0.57528564326E+01  0.14636864110E+00  0.18114627993E+03  0.18123766582E+03  0.00000000000E+00 0.  1.
         11    1    1    2    0    0  0.48509868000E+01  0.99857255328E+00 -0.15221136700E+03  0.15229192187E+03  0.00000000000E+00 0. -1.
        -15    1    1    2    0    0  0.27915760452E+01  0.13946237542E+01 -0.16620638085E+01  0.39570263248E+01  0.17770000000E+01 0. -1.
         15    1    1    2    0    0 -0.18897064126E+01 -0.25395649485E+01 -0.27272849117E+02  0.27513385986E+02  0.17770000000E+01 0.  1.
</event>
<event>
 6    1  0.1097339E-002  0.1761367E+03  0.7546771E-02  0.1073636E+00
        -11   -1    0    0    0    0  0.00000000000E+00  0.00000000000E+00  0.18250000000E+03  0.18250000000E+03  0.00000000000E+00 0. -1.
         11   -1    0    0    0    0 -0.00000000000E+00 -0.00000000000E+00 -0.18250000000E+03  0.18250000000E+03  0.00000000000E+00 0.  1.
        -11    1    1    2    0    0 -0.30007538855E+01 -0.25163521692E+00  0.17455573306E+03  0.17458170519E+03  0.00000000000E+00 0. -1.
         11    1    1    2    0    0 -0.27058140515E+01 -0.34080148487E+00 -0.17773185854E+03  0.17775278089E+03  0.00000000000E+00 0.  1.
        -15    1    1    2    0    0 -0.18946558311E+00 -0.31863134425E+01 -0.16171173859E+01  0.39951580946E+01  0.17770000000E+01 0.  1.
         15    1    1    2    0    0  0.58960335201E+01  0.37787501443E+01  0.47932428658E+01  0.86703558228E+01  0.17770000000E+01 0. -1.
</event>
<event>
 6    1  0.1097339E-002  0.1864763E+03  0.7546771E-02  0.1065333E+00
        -11   -1    0    0    0    0  0.00000000000E+00  0.00000000000E+00  0.18250000000E+03  0.18250000000E+03  0.00000000000E+00 0.  1.
         11   -1    0    0    0    0 -0.00000000000E+00 -0.00000000000E+00 -0.18250000000E+03  0.18250000000E+03  0.00000000000E+00 0.  1.
        -11    1    1    2    0    0  0.13225821202E+01  0.26228290278E+01  0.17849948357E+03  0.17852365135E+03  0.00000000000E+00 0.  1.
         11    1    1    2    0    0 -0.38784861640E+01 -0.17296211841E+01 -0.14198681188E+03  0.14205030444E+03  0.00000000000E+00 0.  1.
        -15    1    1    2    0    0 -0.11140690258E+02  0.11495927518E+01 -0.15865600509E+02  0.19501578177E+02  0.17770000000E+01 0.  1.
         15    1    1    2    0    0  0.13696594302E+02 -0.20428005955E+01 -0.20647071182E+02  0.24924466035E+02  0.17770000000E+01 0. -1.
</event>
<event>
 6    1  0.1097339E-002  0.1907854E+03  0.7546771E-02  0.1062044E+00
        -11   -1    0    0    0    0  0.00000000000E+00  0.00000000000E+00  0.18250000000E+03  0.18250000000E+03  0.00000000000E+00 0. -1.
         11   -1    0    0    0    0 -0.00000000000E+00 -0.00000000000E+00 -0.18250000000E+03  0.18250000000E+03  0.00000000000E+00 0. -1.
        -11    1    1    2    0    0 -0.58824004533E+01 -0.49995340972E+01  0.63584443275E+02  0.64051380960E+02  0.00000000000E+00 0. -1.
         11    1    1    2    0    0  0.11038338314E+02 -0.61703956542E+01 -0.17375502970E+03  0.17421460628E+03  0.00000000000E+00 0. -1.
        -15    1    1    2    0    0 -0.23302585300E+02  0.12841598393E+02  0.16648490441E+02  0.31436397598E+02  0.17770000000E+01 0.  1.
         15    1    1    2    0    0  0.18146647440E+02 -0.16716686420E+01  0.93522095984E+02  0.95297615162E+02  0.17770000000E+01 0. -1.
</event>
<event>
 6    1  0.1097339E-002  0.1829879E+03  0.7546771E-02  0.1068067E+00
        -11   -1    0    0    0    0  0.00000000000E+00  0.00000000000E+00  0.18250000000E+03  0.18250000000E+03  0.00000000000E+00 0. -1.
         11   -1    0    0    0    0 -0.00000000000E+00 -0.00000000000E+00 -0.18250000000E+03  0.18250000000E+03  0.00000000000E+00 0. -1.
        -11    1    1    2    0    0 -0.86075896942E-01  0.77285379494E+00  0.27928349119E+02  0.27939173154E+02  0.00000000000E+00 0. -1.
         11    1    1    2    0    0 -0.78606436922E+00  0.33143342154E+01 -0.18198019332E+03  0.18201206957E+03  0.00000000000E+00 0. -1.
        -15    1    1    2    0    0  0.93287088400E+00  0.64303115621E+01  0.50034600888E+02  0.50486019549E+02  0.17770000000E+01 0. -1.
         15    1    1    2    0    0 -0.60730617843E-01 -0.10517499572E+02  0.10401724331E+03  0.10456273773E+03  0.17770000000E+01 0. -1.
</event>
<event>
 6    1  0.1097339E-002  0.1832498E+03  0.7546771E-02  0.1067860E+00
        -11   -1    0    0    0    0  0.00000000000E+00  0.00000000000E+00  0.18250000000E+03  0.18250000000E+03  0.00000000000E+00 0.  1.
         11   -1    0    0    0    0 -0.00000000000E+00 -0.00000000000E+00 -0.18250000000E+03  0.18250000000E+03  0.00000000000E+00 0. -1.
        -11    1    1    2    0    0  0.55459441296E+00 -0.20773383763E+01  0.13029398876E+03  0.13031172785E+03  0.00000000000E+00 0.  1.
         11    1    1    2    0    0  0.82016440272E+01  0.47150391536E+01 -0.18150378165E+03  0.18175016180E+03  0.00000000000E+00 0. -1.
        -15    1    1    2    0    0 -0.49006230306E+01  0.20579413528E+01  0.12298430322E+02  0.13515189458E+02  0.17770000000E+01 0. -1.
         15    1    1    2    0    0 -0.38556154096E+01 -0.46956421300E+01  0.38911362574E+02  0.39422920891E+02  0.17770000000E+01 0.  1.
</event>
<event>
 6    1  0.1097339E-002  0.1433153E+03  0.7546771E-02  0.1104786E+00
        -11   -1    0    0    0    0  0.00000000000E+00  0.00000000000E+00  0.18250000000E+03  0.18250000000E+03  0.00000000000E+00 0.  1.
         11   -1    0    0    0    0 -0.00000000000E+00 -0.00000000000E+00 -0.18250000000E+03  0.18250000000E+03  0.00000000000E+00 0.  1.
        -11    1    1    2    0    0  0.11477570850E+02 -0.18901005454E+02  0.13638462302E+03  0.13816565432E+03  0.00000000000E+00 0.  1.
         11    1    1    2    0    0  0.36205082220E+02 -0.81292077853E+01 -0.14941028563E+03  0.15394910019E+03  0.00000000000E+00 0.  1.
        -15    1    1    2    0    0 -0.28358437562E+02 -0.48752102025E+01 -0.81455014772E+01  0.29957896769E+02  0.17770000000E+01 0. -1.
         15    1    1    2    0    0 -0.19324215507E+02  0.31905423442E+02  0.21171164090E+02  0.42927348717E+02  0.17770000000E+01 0.  1.
</event>
<event>
 6    1  0.1097339E-002  0.1880515E+03  0.7546771E-02  0.1064120E+00
        -11   -1    0    0    0    0  0.00000000000E+00  0.00000000000E+00  0.18250000000E+03  0.18250000000E+03  0.00000000000E+00 0. -1.
         11   -1    0    0    0    0 -0.00000000000E+00 -0.00000000000E+00 -0.18250000000E+03  0.18250000000E+03  0.00000000000E+00 0.  1.
        -11    1    1    2    0    0 -0.60699739844E+00  0.31800296302E+01  0.17691885538E+03  0.17694847392E+03  0.00000000000E+00 0. -1.
         11    1    1    2    0    0 -0.59631329784E+01 -0.70053626047E+01 -0.17159791041E+03  0.17184433920E+03  0.00000000000E+00 0.  1.
        -15    1    1    2    0    0 -0.22574986945E+01 -0.23728441303E+01  0.60126327968E+00  0.37743789097E+01  0.17770000000E+01 0.  1.
         15    1    1    2    0    0  0.88276290713E+01  0.61981771048E+01 -0.59222082480E+01  0.12432807968E+02  0.17770000000E+01 0. -1.
</event>
<event>
 6    1  0.1110047E-002  0.1753663E+03  0.7546771E-02  0.1074279E+00
        -11   -1    0    0    0    0  0.00000000000E+00  0.00000000000E+00  0.18250000000E+03  0.18250000000E+03  0.00000000000E+00 0.  1.
         11   -1    0    0    0    0 -0.00000000000E+00 -0.00000000000E+00 -0.18250000000E+03  0.18250000000E+03  0.00000000000E+00 0. -1.
        -11    1    1    2    0    0 -0.18808809712E+01 -0.30788242519E+01  0.17540652760E+03  0.17544362855E+03  0.00000000000E+00 0.  1.
         11    1    1    2    0    0  0.45083715369E+01 -0.45626488234E+01 -0.17526473600E+03  0.17538207110E+03  0.00000000000E+00 0. -1.
        -15    1    1    2    0    0  0.83317847338E+00  0.29857894641E+01  0.50519350350E+01  0.61878026544E+01  0.17770000000E+01 0.  1.
         15    1    1    2    0    0 -0.34606690391E+01  0.46556836112E+01 -0.51937266388E+01  0.79864976982E+01  0.17770000000E+01 0. -1.
</event>
<event>
 6    1  0.1097339E-002  0.1827787E+03  0.7546771E-02  0.1068233E+00
        -11   -1    0    0    0    0  0.00000000000E+00  0.00000000000E+00  0.18250000000E+03  0.18250000000E+03  0.00000000000E+00 0. -1.
         11   -1    0    0    0    0 -0.00000000000E+00 -0.00000000000E+00 -0.18250000000E+03  0.18250000000E+03  0.00000000000E+00 0.  1.
        -11    1    1    2    0    0 -0.24559414246E+01  0.28169060763E+00  0.18220449893E+03  0.18222126777E+03  0.00000000000E+00 0. -1.
         11    1    1    2    0    0 -0.17120761567E+01  0.16083806275E+00 -0.10089848086E+03  0.10091313351E+03  0.00000000000E+00 0.  1.
        -15    1    1    2    0    0  0.45881180889E+01  0.40030935468E+00 -0.22948688756E+02  0.23473626047E+02  0.17770000000E+01 0.  1.
         15    1    1    2    0    0 -0.42010050761E+00 -0.84283802506E+00 -0.58357329309E+02  0.58391972680E+02  0.17770000000E+01 0.  1.
</event>
<event>
 6    1  0.1097339E-002  0.1876609E+03  0.7546771E-02  0.1064419E+00
        -11   -1    0    0    0    0  0.00000000000E+00  0.00000000000E+00  0.18250000000E+03  0.18250000000E+03  0.00000000000E+00 0.  1.
         11   -1    0    0    0    0 -0.00000000000E+00 -0.00000000000E+00 -0.18250000000E+03  0.18250000000E+03  0.00000000000E+00 0. -1.
        -11    1    1    2    0    0 -0.28161494194E+01  0.12798695184E+01  0.17731215576E+03  0.17733913652E+03  0.00000000000E+00 0.  1.
         11    1    1    2    0    0  0.13280362767E+02 -0.10925318496E+01 -0.12196361466E+03  0.12268938406E+03  0.00000000000E+00 0. -1.
        -15    1    1    2    0    0  0.40754752302E+01  0.32839424664E+01  0.18472519601E+01  0.58278508284E+01  0.17770000000E+01 0.  1.
         15    1    1    2    0    0 -0.14539688578E+02 -0.34712801351E+01 -0.57195793060E+02  0.59143628587E+02  0.17770000000E+01 0. -1.
</event>
<event>
 6    1  0.1097339E-002  0.1872781E+03  0.7546771E-02  0.1064714E+00
        -11   -1    0    0    0    0  0.00000000000E+00  0.00000000000E+00  0.18250000000E+03  0.18250000000E+03  0.00000000000E+00 0. -1.
         11   -1    0    0    0    0 -0.00000000000E+00 -0.00000000000E+00 -0.18250000000E+03  0.18250000000E+03  0.00000000000E+00 0.  1.
        -11    1    1    2    0    0 -0.95926295865E+00  0.20483520292E+01  0.15665694446E+03  0.15667327206E+03  0.00000000000E+00 0. -1.
         11    1    1    2    0    0 -0.29207564053E+01 -0.76222211311E-01 -0.17769786009E+03  0.17772187854E+03  0.00000000000E+00 0.  1.
        -15    1    1    2    0    0  0.41881395778E+01 -0.52837960887E+01  0.24509065628E+02  0.25481582392E+02  0.17770000000E+01 0. -1.
         15    1    1    2    0    0 -0.30812021391E+00  0.33116662709E+01 -0.34681499886E+01  0.51232670143E+01  0.17770000000E+01 0.  1.
</event>
<event>
 6    1  0.1097339E-002  0.1826272E+03  0.7546771E-02  0.1068354E+00
        -11   -1    0    0    0    0  0.00000000000E+00  0.00000000000E+00  0.18250000000E+03  0.18250000000E+03  0.00000000000E+00 0.  1.
         11   -1    0    0    0    0 -0.00000000000E+00 -0.00000000000E+00 -0.18250000000E+03  0.18250000000E+03  0.00000000000E+00 0. -1.
        -11    1    1    2    0    0 -0.66165027961E-01 -0.24608034620E+01  0.18235618055E+03  0.18237279544E+03  0.00000000000E+00 0.  1.
         11    1    1    2    0    0  0.12326108324E+01  0.31423330397E+00 -0.42015265948E+02  0.42034517301E+02  0.00000000000E+00 0. -1.
        -15    1    1    2    0    0 -0.40253774487E+01  0.20166566601E+01 -0.67105463543E+02  0.67279800341E+02  0.17770000000E+01 0.  1.
         15    1    1    2    0    0  0.28589316443E+01  0.12991349788E+00 -0.73235451059E+02  0.73312886920E+02  0.17770000000E+01 0. -1.
</event>
<event>
 6    1  0.1097339E-002  0.1831007E+03  0.7546771E-02  0.1067978E+00
        -11   -1    0    0    0    0  0.00000000000E+00  0.00000000000E+00  0.18250000000E+03  0.18250000000E+03  0.00000000000E+00 0. -1.
         11   -1    0    0    0    0 -0.00000000000E+00 -0.00000000000E+00 -0.18250000000E+03  0.18250000000E+03  0.00000000000E+00 0. -1.
        -11    1    1    2    0    0 -0.51773809948E+00  0.13643893266E+01  0.28427363483E+02  0.28464795899E+02  0.00000000000E+00 0. -1.
         11    1    1    2    0    0 -0.38162681891E+01  0.15007863614E+01 -0.18185306046E+03  0.18189929044E+03  0.00000000000E+00 0. -1.
        -15    1    1    2    0    0 -0.68658497351E+01 -0.10420205897E+01  0.79600637626E+02  0.79922743565E+02  0.17770000000E+01 0. -1.
         15    1    1    2    0    0  0.11199856024E+02 -0.18231550984E+01  0.73825059350E+02  0.74713170101E+02  0.17770000000E+01 0.  1.
</event>
<event>
 6    1  0.1097339E-002  0.1827919E+03  0.7546771E-02  0.1068223E+00
        -11   -1    0    0    0    0  0.00000000000E+00  0.00000000000E+00  0.18250000000E+03  0.18250000000E+03  0.00000000000E+00 0. -1.
         11   -1    0    0    0    0 -0.00000000000E+00 -0.00000000000E+00 -0.18250000000E+03  0.18250000000E+03  0.00000000000E+00 0.  1.
        -11    1    1    2    0    0 -0.27357049652E+01  0.57307174958E+00  0.14616581624E+03  0.14619253856E+03  0.00000000000E+00 0. -1.
         11    1    1    2    0    0 -0.62521167350E+00  0.25075074955E+01 -0.18218981400E+03  0.18220814145E+03  0.00000000000E+00 0.  1.
        -15    1    1    2    0    0  0.31714913607E+01 -0.11064072695E+01  0.21492117839E+02  0.21825474857E+02  0.17770000000E+01 0.  1.
         15    1    1    2    0    0  0.18942527791E+00 -0.19741719756E+01  0.14531879924E+02  0.14773845134E+02  0.17770000000E+01 0. -1.
</event>
<event>
 6    1  0.1097339E-002  0.1753604E+03  0.7546771E-02  0.1074284E+00
        -11   -1    0    0    0    0  0.00000000000E+00  0.00000000000E+00  0.18250000000E+03  0.18250000000E+03  0.00000000000E+00 0. -1.
         11   -1    0    0    0    0 -0.00000000000E+00 -0.00000000000E+00 -0.18250000000E+03  0.18250000000E+03  0.00000000000E+00 0.  1.
        -11    1    1    2    0    0 -0.36013710769E+01 -0.52120036482E+01  0.17567267852E+03  0.17578687333E+03  0.00000000000E+00 0. -1.
         11    1    1    2    0    0  0.29759086513E+01 -0.21072669202E+00 -0.17495161521E+03  0.17497705022E+03  0.00000000000E+00 0.  1.
        -15    1    1    2    0    0  0.29966717189E+01  0.29126321919E+01  0.53573735373E+01  0.70230084646E+01  0.17770000000E+01 0. -1.
         15    1    1    2    0    0 -0.23712092933E+01  0.25100981483E+01 -0.60784368531E+01  0.72130679883E+01  0.17770000000E+01 0. -1.
</event>
<event>
 6    1  0.1097339E-002  0.1829590E+03  0.7546771E-02  0.1068090E+00
        -11   -1    0    0    0    0  0.00000000000E+00  0.00000000000E+00  0.18250000000E+03  0.18250000000E+03  0.00000000000E+00 0. -1.
         11   -1    0    0    0    0 -0.00000000000E+00 -0.00000000000E+00 -0.18250000000E+03  0.18250000000E+03  0.00000000000E+00 0.  1.
        -11    1    1    2    0    0 -0.21558736445E+01 -0.16715592710E+01  0.18202052014E+03  0.18204096147E+03  0.00000000000E+00 0. -1.
         11    1    1    2    0    0 -0.23599904323E+01 -0.26292118007E+01 -0.12280176302E+03  0.12285257551E+03  0.00000000000E+00 0.  1.
        -15    1    1    2    0    0  0.21815906030E+00  0.25760598517E+01 -0.43741016249E+02  0.43853368277E+02  0.17770000000E+01 0.  1.
         15    1    1    2    0    0  0.42977050165E+01  0.17247112199E+01 -0.15477740869E+02  0.16253094739E+02  0.17770000000E+01 0. -1.
</event>
<event>
 6    1  0.1464319E-002  0.1827490E+03  0.7546771E-02  0.1068257E+00
        -11   -1    0    0    0    0  0.00000000000E+00  0.00000000000E+00  0.18250000000E+03  0.18250000000E+03  0.00000000000E+00 0.  1.
         11   -1    0    0    0    0 -0.00000000000E+00 -0.00000000000E+00 -0.18250000000E+03  0.18250000000E+03  0.00000000000E+00 0.  1.
        -11    1    1    2    0    0  0.39461155327E+01 -0.65381406694E-01  0.18220830373E+03  0.18225104129E+03  0.00000000000E+00 0.  1.
         11    1    1    2    0    0  0.68398211384E+00 -0.60792021269E+00 -0.57354860499E+02  0.57362160188E+02  0.00000000000E+00 0.  1.
        -15    1    1    2    0    0 -0.30967624860E+01  0.18339218932E+01 -0.15798127723E+02  0.16300054478E+02  0.17770000000E+01 0. -1.
         15    1    1    2    0    0 -0.15333351605E+01 -0.11606202738E+01 -0.10905531551E+03  0.10908674404E+03  0.17770000000E+01 0.  1.
</event>
<event>
 6    1  0.1097339E-002  0.1901675E+03  0.7546771E-02  0.1062510E+00
        -11   -1    0    0    0    0  0.00000000000E+00  0.00000000000E+00  0.18250000000E+03  0.18250000000E+03  0.00000000000E+00 0. -1.
         11   -1    0    0    0    0 -0.00000000000E+00 -0.00000000000E+00 -0.18250000000E+03  0.18250000000E+03  0.00000000000E+00 0. -1.
        -11    1    1    2    0    0  0.78234066133E+01 -0.80231414525E+01  0.17447303250E+03  0.17483253575E+03  0.00000000000E+00 0. -1.
         11    1    1    2    0    0  0.17441013037E+01 -0.78452821274E+00 -0.58826197331E+02  0.58857275389E+02  0.00000000000E+00 0. -1.
        -15    1    1    2    0    0 -0.75300283987E+01  0.67046949737E+01  0.44510265935E+01  0.11163495381E+02  0.17770000000E+01 0.  1.
         15    1    1    2    0    0 -0.20374795182E+01  0.21029746916E+01 -0.12009786176E+03  0.12014669348E+03  0.17770000000E+01 0. -1.
</event>
<event>
 6    1  0.1097339E-002  0.1206943E+03  0.7546771E-02  0.1132181E+00
        -11   -1    0    0    0    0  0.00000000000E+00  0.00000000000E+00  0.18250000000E+03  0.18250000000E+03  0.00000000000E+00 0.  1.
         11   -1    0    0    0    0 -0.00000000000E+00 -0.00000000000E+00 -0.18250000000E+03  0.18250000000E+03  0.00000000000E+00 0.  1.
        -11    1    1    2    0    0 -0.58229146002E+00  0.26090327045E+01  0.15225343198E+03  0.15227689800E+03  0.00000000000E+00 0.  1.
         11    1    1    2    0    0 -0.25554425860E+01 -0.17873584073E+01 -0.16356286152E+02  0.16650916899E+02  0.00000000000E+00 0.  1.
        -15    1    1    2    0    0 -0.27093456056E+02 -0.64081590861E+02 -0.82430082996E+02  0.10788133277E+03  0.17770000000E+01 0.  1.
         15    1    1    2    0    0  0.30231190102E+02  0.63259916564E+02 -0.53467062829E+02  0.88190852333E+02  0.17770000000E+01 0. -1.
</event>
<event>
 6    1  0.1097339E-002  0.1835142E+03  0.7546771E-02  0.1067650E+00
        -11   -1    0    0    0    0  0.00000000000E+00  0.00000000000E+00  0.18250000000E+03  0.18250000000E+03  0.00000000000E+00 0. -1.
         11   -1    0    0    0    0 -0.00000000000E+00 -0.00000000000E+00 -0.18250000000E+03  0.18250000000E+03  0.00000000000E+00 0.  1.
        -11    1    1    2    0    0 -0.11692438685E+01  0.21687291268E+01  0.18146904940E+03  0.18148577467E+03  0.00000000000E+00 0. -1.
         11    1    1    2    0    0  0.21343459824E+01 -0.23530431739E+01 -0.16641247837E+03  0.16644279859E+03  0.00000000000E+00 0.  1.
        -15    1    1    2    0    0 -0.34245469056E+00 -0.23995719076E+01 -0.12825059069E+02  0.13172512657E+02  0.17770000000E+01 0.  1.
         15    1    1    2    0    0 -0.62264742334E+00  0.25838859547E+01 -0.22315119594E+01  0.38989140880E+01  0.17770000000E+01 0.  1.
</event>
<event>
 6    1  0.1097339E-002  0.1871585E+03  0.7546771E-02  0.1064806E+00
        -11   -1    0    0    0    0  0.00000000000E+00  0.00000000000E+00  0.18250000000E+03  0.18250000000E+03  0.00000000000E+00 0.  1.
         11   -1    0    0    0    0 -0.00000000000E+00 -0.00000000000E+00 -0.18250000000E+03  0.18250000000E+03  0.00000000000E+00 0.  1.
        -11    1    1    2    0    0  0.44779384808E+01 -0.20227411797E+01  0.17777356076E+03  0.17784145276E+03  0.00000000000E+00 0.  1.
         11    1    1    2    0    0 -0.10108012928E+02  0.15633792502E+02 -0.12809808482E+03  0.12944383619E+03  0.00000000000E+00 0.  1.
        -15    1    1    2    0    0 -0.93997264870E+01 -0.34862633018E+01 -0.11129061954E+02  0.15083853580E+02  0.17770000000E+01 0.  1.
         15    1    1    2    0    0  0.15029800934E+02 -0.10124788021E+02 -0.38546413986E+02  0.42630857472E+02  0.17770000000E+01 0. -1.
</event>
<event>
 6    1  0.1097339E-002  0.1756484E+03  0.7546771E-02  0.1074043E+00
        -11   -1    0    0    0    0  0.00000000000E+00  0.00000000000E+00  0.18250000000E+03  0.18250000000E+03  0.00000000000E+00 0.  1.
         11   -1    0    0    0    0 -0.00000000000E+00 -0.00000000000E+00 -0.18250000000E+03  0.18250000000E+03  0.00000000000E+00 0. -1.
        -11    1    1    2    0    0 -0.59574414072E+01  0.27349987172E+01  0.17637141968E+03  0.17649319818E+03  0.00000000000E+00 0.  1.
         11    1    1    2    0    0  0.48902763928E+01  0.29682073139E+01 -0.17476163331E+03  0.17485523594E+03  0.00000000000E+00 0. -1.
        -15    1    1    2    0    0 -0.51521202884E+01 -0.42851910962E+01 -0.92984249861E+00  0.69949654945E+01  0.17770000000E+01 0.  1.
         15    1    1    2    0    0  0.62192853028E+01 -0.14180149348E+01 -0.67994386676E+00  0.66566003857E+01  0.17770000000E+01 0. -1.
</event>
<event>
 6    1  0.1097339E-002  0.1827250E+03  0.7546771E-02  0.1068276E+00
        -11   -1    0    0    0    0  0.00000000000E+00  0.00000000000E+00  0.18250000000E+03  0.18250000000E+03  0.00000000000E+00 0. -1.
         11   -1    0    0    0    0 -0.00000000000E+00 -0.00000000000E+00 -0.18250000000E+03  0.18250000000E+03  0.00000000000E+00 0. -1.
        -11    1    1    2    0    0 -0.55651252860E+00  0.34474599781E+01  0.18224149598E+03  0.18227495040E+03  0.00000000000E+00 0. -1.
         11    1    1    2    0    0 -0.16039946943E+00 -0.23495573015E+01 -0.16119808695E+03  0.16121528892E+03  0.00000000000E+00 0. -1.
        -15    1    1    2    0    0  0.13888414946E+01 -0.11220133053E+01 -0.10625322318E+02  0.10919844226E+02  0.17770000000E+01 0.  1.
         15    1    1    2    0    0 -0.67192949659E+00  0.24110628659E-01 -0.10418086716E+02  0.10589916448E+02  0.17770000000E+01 0.  1.
</event>
<event>
 6    1  0.1097339E-002  0.1930752E+03  0.7546771E-02  0.1060335E+00
        -11   -1    0    0    0    0  0.00000000000E+00  0.00000000000E+00  0.18250000000E+03  0.18250000000E+03  0.00000000000E+00 0. -1.
         11   -1    0    0    0    0 -0.00000000000E+00 -0.00000000000E+00 -0.18250000000E+03  0.18250000000E+03  0.00000000000E+00 0. -1.
        -11    1    1    2    0    0 -0.68783163785E+01  0.13482378611E+02  0.13586638955E+03  0.13670684539E+03  0.00000000000E+00 0. -1.
         11    1    1    2    0    0  0.15324943350E+00  0.12370662665E+02 -0.17147913882E+03  0.17192484355E+03  0.00000000000E+00 0. -1.
        -15    1    1    2    0    0  0.19522580743E+02 -0.22130501817E+02  0.28887105028E+02  0.41334160635E+02  0.17770000000E+01 0.  1.
         15    1    1    2    0    0 -0.12797513798E+02 -0.37225394591E+01  0.67256442417E+01  0.15034150421E+02  0.17770000000E+01 0. -1.
</event>
<event>
 6    1  0.1097339E-002  0.1977103E+03  0.7546771E-02  0.1056953E+00
        -11   -1    0    0    0    0  0.00000000000E+00  0.00000000000E+00  0.18250000000E+03  0.18250000000E+03  0.00000000000E+00 0. -1.
         11   -1    0    0    0    0 -0.00000000000E+00 -0.00000000000E+00 -0.18250000000E+03  0.18250000000E+03  0.00000000000E+00 0. -1.
        -11    1    1    2    0    0 -0.26926132620E+01  0.10753100565E+01  0.16726458634E+03  0.16728971368E+03  0.00000000000E+00 0. -1.
         11    1    1    2    0    0  0.46855648504E+01  0.10890098373E+01 -0.15241300868E+03  0.15248890345E+03  0.00000000000E+00 0. -1.
        -15    1    1    2    0    0  0.11899045727E+01  0.62699653436E+01 -0.28227033044E+02  0.28993990097E+02  0.17770000000E+01 0. -1.
         15    1    1    2    0    0 -0.31828561611E+01 -0.84342852375E+01  0.13375455377E+02  0.16227392777E+02  0.17770000000E+01 0.  1.
</event>
<event>
 6    1  0.1097339E-002  0.1492510E+03  0.7546771E-02  0.1098511E+00
        -11   -1    0    0    0    0  0.00000000000E+00  0.00000000000E+00  0.18250000000E+03  0.18250000000E+03  0.00000000000E+00 0. -1.
         11   -1    0    0    0    0 -0.00000000000E+00 -0.00000000000E+00 -0.18250000000E+03  0.18250000000E+03  0.00000000000E+00 0. -1.
        -11    1    1    2    0    0  0.25645161662E+01 -0.15535113516E+01  0.14467017990E+03  0.14470124773E+03  0.00000000000E+00 0. -1.
         11    1    1    2    0    0 -0.21088765128E+02  0.20627570629E+02 -0.15224682425E+03  0.15507845814E+03  0.00000000000E+00 0. -1.
        -15    1    1    2    0    0  0.37854087538E+02 -0.20034683272E+02  0.13434209317E+02  0.44921667223E+02  0.17770000000E+01 0.  1.
         15    1    1    2    0    0 -0.19329838577E+02  0.96062399491E+00 -0.58575649668E+01  0.20298626904E+02  0.17770000000E+01 0. -1.
</event>
<event>
 6    1  0.1097339E-002  0.1834127E+03  0.7546771E-02  0.1067731E+00
        -11   -1    0    0    0    0  0.00000000000E+00  0.00000000000E+00  0.18250000000E+03  0.18250000000E+03  0.00000000000E+00 0.  1.
         11   -1    0    0    0    0 -0.00000000000E+00 -0.00000000000E+00 -0.18250000000E+03  0.18250000000E+03  0.00000000000E+00 0. -1.
        -11    1    1    2    0    0  0.14299075381E+02  0.91280859171E-01  0.18102343619E+03  0.18158732428E+03  0.00000000000E+00 0.  1.
         11    1    1    2    0    0 -0.21323798400E+01  0.90224519060E+00 -0.46190163599E+02  0.46248160001E+02  0.00000000000E+00 0. -1.
        -15    1    1    2    0    0  0.27404119748E+01  0.17773178812E+01 -0.84147252330E+02  0.84229368514E+02  0.17770000000E+01 0.  1.
         15    1    1    2    0    0 -0.14907107516E+02 -0.27708439310E+01 -0.50686020262E+02  0.52935147205E+02  0.17770000000E+01 0. -1.
</event>
<event>
 6    1  0.1097339E-002  0.1902329E+03  0.7546771E-02  0.1062461E+00
        -11   -1    0    0    0    0  0.00000000000E+00  0.00000000000E+00  0.18250000000E+03  0.18250000000E+03  0.00000000000E+00 0. -1.
         11   -1    0    0    0    0 -0.00000000000E+00 -0.00000000000E+00 -0.18250000000E+03  0.18250000000E+03  0.00000000000E+00 0. -1.
        -11    1    1    2    0    0 -0.18849546365E+00  0.27107765040E+01  0.16407707573E+03  0.16409957532E+03  0.00000000000E+00 0. -1.
         11    1    1    2    0    0 -0.23625963358E+01 -0.29182365767E+00 -0.17475089478E+03  0.17476710860E+03  0.00000000000E+00 0. -1.
        -15    1    1    2    0    0  0.52397134649E+01 -0.16803494708E+01  0.17563756636E+02  0.18491118076E+02  0.17770000000E+01 0.  1.
         15    1    1    2    0    0 -0.26886216655E+01 -0.73860337554E+00 -0.68899375871E+01  0.76421980059E+01  0.17770000000E+01 0. -1.
</event>
<event>
 6    1  0.1097339E-002  0.8806272E+02  0.7546771E-02  0.1186239E+00
        -11   -1    0    0    0    0  0.00000000000E+00  0.00000000000E+00  0.18250000000E+03  0.18250000000E+03  0.00000000000E+00 0.  1.
         11   -1    0    0    0    0 -0.00000000000E+00 -0.00000000000E+00 -0.18250000000E+03  0.18250000000E+03  0.00000000000E+00 0. -1.
        -11    1    1    2    0    0 -0.11066984077E+01 -0.45967093220E+02  0.13559082527E+03  0.14317496407E+03  0.00000000000E+00 0.  1.
         11    1    1    2    0    0 -0.35200741645E+01 -0.38485404984E+01 -0.85017124161E+02  0.85176954551E+02  0.00000000000E+00 0. -1.
        -15    1    1    2    0    0  0.31610216505E+02 -0.17686236133E+02 -0.52615117457E+02  0.63902402537E+02  0.17770000000E+01 0. -1.
         15    1    1    2    0    0 -0.26983443933E+02  0.67501869851E+02  0.20414163484E+01  0.72745678837E+02  0.17770000000E+01 0.  1.
</event>
<event>
 6    1  0.1097339E-002  0.1842623E+03  0.7546771E-02  0.1067061E+00
        -11   -1    0    0    0    0  0.00000000000E+00  0.00000000000E+00  0.18250000000E+03  0.18250000000E+03  0.00000000000E+00 0.  1.
         11   -1    0    0    0    0 -0.00000000000E+00 -0.00000000000E+00 -0.18250000000E+03  0.18250000000E+03  0.00000000000E+00 0. -1.
        -11    1    1    2    0    0 -0.25637352586E+01  0.27450107330E+00  0.18071928605E+03  0.18073767853E+03  0.00000000000E+00 0.  1.
         11    1    1    2    0    0  0.34933262516E+01  0.12926522454E+01 -0.17371128837E+03  0.17375121865E+03  0.00000000000E+00 0. -1.
        -15    1    1    2    0    0 -0.22169438901E+01 -0.65100484541E+00 -0.75318420268E+01  0.80762008913E+01  0.17770000000E+01 0. -1.
         15    1    1    2    0    0  0.12873528971E+01 -0.91614847331E+00  0.52384434350E+00  0.24349019288E+01  0.17770000000E+01 0. -1.
</event>
<event>
 6    1  0.1097339E-002  0.1873226E+03  0.7546771E-02  0.1064680E+00
        -11   -1    0    0    0    0  0.00000000000E+00  0.00000000000E+00  0.18250000000E+03  0.18250000000E+03  0.00000000000E+00 0. -1.
         11   -1    0    0    0    0 -0.00000000000E+00 -0.00000000000E+00 -0.18250000000E+03  0.18250000000E+03  0.00000000000E+00 0.  1.
        -11    1    1    2    0    0 -0.23666727441E+01 -0.96326859787E+01  0.14968965191E+03  0.15001793782E+03  0.00000000000E+00 0. -1.
         11    1    1    2    0    0  0.16379103709E+01  0.18352114097E+01 -0.17766033274E+03  0.17767736092E+03  0.00000000000E+00 0.  1.
        -15    1    1    2    0    0 -0.61610432314E+01  0.13891256316E+02  0.16697200549E+02  0.22646847262E+02  0.17770000000E+01 0.  1.
         15    1    1    2    0    0  0.68898056047E+01 -0.60937817465E+01  0.11273480289E+02  0.14657854006E+02  0.17770000000E+01 0. -1.
</event>
<event>
 6    1  0.1097339E-002  0.1834709E+03  0.7546771E-02  0.1067685E+00
        -11   -1    0    0    0    0  0.00000000000E+00  0.00000000000E+00  0.18250000000E+03  0.18250000000E+03  0.00000000000E+00 0.  1.
         11   -1    0    0    0    0 -0.00000000000E+00 -0.00000000000E+00 -0.18250000000E+03  0.18250000000E+03  0.00000000000E+00 0.  1.
        -11    1    1    2    0    0  0.13408221096E+01  0.73235522758E+01  0.50844421725E+02  0.51386646537E+02  0.00000000000E+00 0.  1.
         11    1    1    2    0    0 -0.26152032920E+01  0.20083218337E+01 -0.18149911704E+03  0.18152906690E+03  0.00000000000E+00 0.  1.
        -15    1    1    2    0    0  0.12218469238E+01  0.33091460869E+01  0.69465280310E+02  0.69577483824E+02  0.17770000000E+01 0.  1.
         15    1    1    2    0    0  0.52534258680E-01 -0.12641020197E+02  0.61189415001E+02  0.62506802739E+02  0.17770000000E+01 0. -1.
</event>
<event>
 6    1  0.1097339E-002  0.1897469E+03  0.7546771E-02  0.1062828E+00
        -11   -1    0    0    0    0  0.00000000000E+00  0.00000000000E+00  0.18250000000E+03  0.18250000000E+03  0.00000000000E+00 0.  1.
         11   -1    0    0    0    0 -0.00000000000E+00 -0.00000000000E+00 -0.18250000000E+03  0.18250000000E+03  0.00000000000E+00 0.  1.
        -11    1    1    2    0    0 -0.56006591364E+01  0.31303443477E+01  0.17513559827E+03  0.17525308619E+03  0.00000000000E+00 0.  1.
         11    1    1    2    0    0 -0.29752967286E+01 -0.17173016658E+01 -0.13804849025E+03  0.13809122773E+03  0.00000000000E+00 0.  1.
        -15    1    1    2    0    0  0.10301548101E+02 -0.22609255554E+01  0.32929527183E+01  0.11190841981E+02  0.17770000000E+01 0. -1.
         15    1    1    2    0    0 -0.17255922359E+01  0.84788287358E+00 -0.40380060734E+02  0.40464844097E+02  0.17770000000E+01 0.  1.
</event>
<event>
 6    1  0.1097339E-002  0.1876118E+03  0.7546771E-02  0.1064457E+00
        -11   -1    0    0    0    0  0.00000000000E+00  0.00000000000E+00  0.18250000000E+03  0.18250000000E+03  0.00000000000E+00 0.  1.
         11   -1    0    0    0    0 -0.00000000000E+00 -0.00000000000E+00 -0.18250000000E+03  0.18250000000E+03  0.00000000000E+00 0. -1.
        -11    1    1    2    0    0 -0.93673242109E+00  0.20503541542E+01  0.16141923822E+03  0.16143497728E+03  0.00000000000E+00 0.  1.
         11    1    1    2    0    0  0.27222412429E+01  0.20491455259E+01 -0.17735544914E+03  0.17738817586E+03  0.00000000000E+00 0. -1.
        -15    1    1    2    0    0  0.72678239446E+01  0.40046986578E+01  0.66136177087E+01  0.10759021537E+02  0.17770000000E+01 0.  1.
         15    1    1    2    0    0 -0.90533327664E+01 -0.81041983379E+01  0.93225932069E+01  0.15417825332E+02  0.17770000000E+01 0. -1.
</event>
<event>
 6    1  0.1097339E-002  0.1829621E+03  0.7546771E-02  0.1068088E+00
        -11   -1    0    0    0    0  0.00000000000E+00  0.00000000000E+00  0.18250000000E+03  0.18250000000E+03  0.00000000000E+00 0.  1.
         11   -1    0    0    0    0 -0.00000000000E+00 -0.00000000000E+00 -0.18250000000E+03  0.18250000000E+03  0.00000000000E+00 0. -1.
        -11    1    1    2    0    0  0.14293204172E+01  0.21452984313E+01  0.18201963330E+03  0.18203788664E+03  0.00000000000E+00 0.  1.
         11    1    1    2    0    0  0.15605723457E+01 -0.15329618871E+01 -0.16069514822E+03  0.16071003708E+03  0.00000000000E+00 0. -1.
        -15    1    1    2    0    0 -0.29491926586E+00 -0.15167882542E+01 -0.14002335715E+02  0.14198970331E+02  0.17770000000E+01 0. -1.
         15    1    1    2    0    0 -0.26949734970E+01  0.90445171007E+00 -0.73221493691E+01  0.80531059492E+01  0.17770000000E+01 0.  1.
</event>
<event>
 6    1  0.1097339E-002  0.1835104E+03  0.7546771E-02  0.1067653E+00
        -11   -1    0    0    0    0  0.00000000000E+00  0.00000000000E+00  0.18250000000E+03  0.18250000000E+03  0.00000000000E+00 0.  1.
         11   -1    0    0    0    0 -0.00000000000E+00 -0.00000000000E+00 -0.18250000000E+03  0.18250000000E+03  0.00000000000E+00 0.  1.
        -11    1    1    2    0    0  0.17852510884E+01 -0.41593461402E+01  0.14924639988E+03  0.14931501987E+03  0.00000000000E+00 0.  1.
         11    1    1    2    0    0  0.18005495521E+01 -0.16596722029E+01 -0.18147310658E+03  0.18148962754E+03  0.00000000000E+00 0.  1.
        -15    1    1    2    0    0  0.26320447875E+01  0.20823734817E+01  0.13788543920E+02  0.14301944326E+02  0.17770000000E+01 0.  1.
         15    1    1    2    0    0 -0.62178454279E+01  0.37366448614E+01  0.18438162785E+02  0.19893408267E+02  0.17770000000E+01 0. -1.
</event>
<event>
 6    1  0.1097339E-002  0.1827201E+03  0.7546771E-02  0.1068280E+00
        -11   -1    0    0    0    0  0.00000000000E+00  0.00000000000E+00  0.18250000000E+03  0.18250000000E+03  0.00000000000E+00 0.  1.
         11   -1    0    0    0    0 -0.00000000000E+00 -0.00000000000E+00 -0.18250000000E+03  0.18250000000E+03  0.00000000000E+00 0.  1.
        -11    1    1    2    0    0 -0.38942529066E+01 -0.10016787312E+01  0.18223551676E+03  0.18227987309E+03  0.00000000000E+00 0.  1.
         11    1    1    2    0    0 -0.28070668293E+01  0.44120867487E-01 -0.35047043813E+02  0.35159306746E+02  0.00000000000E+00 0.  1.
        -15    1    1    2    0    0  0.25167487255E+01 -0.30881743128E+01 -0.56182893665E+02  0.56351984120E+02  0.17770000000E+01 0. -1.
         15    1    1    2    0    0  0.41845710103E+01  0.40457321765E+01 -0.91005579280E+02  0.91208836044E+02  0.17770000000E+01 0.  1.
</event>
<event>
 6    1  0.1097339E-002  0.1825914E+03  0.7546771E-02  0.1068382E+00
        -11   -1    0    0    0    0  0.00000000000E+00  0.00000000000E+00  0.18250000000E+03  0.18250000000E+03  0.00000000000E+00 0.  1.
         11   -1    0    0    0    0 -0.00000000000E+00 -0.00000000000E+00 -0.18250000000E+03  0.18250000000E+03  0.00000000000E+00 0.  1.
        -11    1    1    2    0    0 -0.29448377396E+01 -0.10869672888E+01  0.18238157023E+03  0.18240858183E+03  0.00000000000E+00 0.  1.
         11    1    1    2    0    0 -0.82491836177E+00  0.17935223634E+01 -0.10544790874E+03  0.10546638645E+03  0.00000000000E+00 0.  1.
        -15    1    1    2    0    0  0.20735008075E+01  0.11259529065E+00 -0.31846026367E+02  0.31963091335E+02  0.17770000000E+01 0.  1.
         15    1    1    2    0    0  0.16962552939E+01 -0.81915036523E+00 -0.45087635119E+02  0.45161940381E+02  0.17770000000E+01 0. -1.
</event>
<event>
 6    1  0.1097339E-002  0.1828029E+03  0.7546771E-02  0.1068214E+00
        -11   -1    0    0    0    0  0.00000000000E+00  0.00000000000E+00  0.18250000000E+03  0.18250000000E+03  0.00000000000E+00 0.  1.
         11   -1    0    0    0    0 -0.00000000000E+00 -0.00000000000E+00 -0.18250000000E+03  0.18250000000E+03  0.00000000000E+00 0.  1.
        -11    1    1    2    0    0  0.37922074796E+01 -0.82899006327E+00  0.18215577204E+03  0.18219712772E+03  0.00000000000E+00 0.  1.
         11    1    1    2    0    0 -0.21828397421E+01 -0.19092870742E+01 -0.12589298525E+03  0.12592638286E+03  0.00000000000E+00 0.  1.
        -15    1    1    2    0    0 -0.22011167384E+01  0.50163112167E+00 -0.75774476490E+01  0.81038256738E+01  0.17770000000E+01 0.  1.
         15    1    1    2    0    0  0.59174900093E+00  0.22366460158E+01 -0.48685339144E+02  0.48772663746E+02  0.17770000000E+01 0. -1.
</event>
<event>
 6    1  0.1097339E-002  0.1777653E+03  0.7546771E-02  0.1072287E+00
        -11   -1    0    0    0    0  0.00000000000E+00  0.00000000000E+00  0.18250000000E+03  0.18250000000E+03  0.00000000000E+00 0.  1.
         11   -1    0    0    0    0 -0.00000000000E+00 -0.00000000000E+00 -0.18250000000E+03  0.18250000000E+03  0.00000000000E+00 0.  1.
        -11    1    1    2    0    0 -0.45108633669E+01  0.48852277915E+00  0.17617308382E+03  0.17623150118E+03  0.00000000000E+00 0.  1.
         11    1    1    2    0    0 -0.18130570045E+01 -0.35216567199E+01 -0.17933866678E+03  0.17938240338E+03  0.00000000000E+00 0.  1.
        -15    1    1    2    0    0  0.35708743987E+01  0.59498810915E+00 -0.28014606651E+00  0.40424455024E+01  0.17770000000E+01 0. -1.
         15    1    1    2    0    0  0.27530459728E+01  0.24381458316E+01  0.34457290196E+01  0.53436499418E+01  0.17770000000E+01 0.  1.
</event>
<event>
 6    1  0.1097339E-002  0.1831838E+03  0.7546771E-02  0.1067912E+00
        -11   -1    0    0    0    0  0.00000000000E+00  0.00000000000E+00  0.18250000000E+03  0.18250000000E+03  0.00000000000E+00 0.  1.
         11   -1    0    0    0    0 -0.00000000000E+00 -0.00000000000E+00 -0.18250000000E+03  0.18250000000E+03  0.00000000000E+00 0. -1.
        -11    1    1    2    0    0  0.26731508699E+01  0.70298712049E+01  0.18166055120E+03  0.18181617279E+03  0.00000000000E+00 0.  1.
         11    1    1    2    0    0 -0.12940998202E+01  0.23733058373E+01 -0.12334941465E+03  0.12337903132E+03  0.00000000000E+00 0. -1.
        -15    1    1    2    0    0  0.76755951310E+00  0.12210152310E+01 -0.91942440583E+01  0.94748022989E+01  0.17770000000E+01 0. -1.
         15    1    1    2    0    0 -0.21466105627E+01 -0.10624192273E+02 -0.49116892491E+02  0.50329993595E+02  0.17770000000E+01 0. -1.
</event>
<event>
 6    1  0.1097339E-002  0.1861372E+03  0.7546771E-02  0.1065596E+00
        -11   -1    0    0    0    0  0.00000000000E+00  0.00000000000E+00  0.18250000000E+03  0.18250000000E+03  0.00000000000E+00 0. -1.
         11   -1    0    0    0    0 -0.00000000000E+00 -0.00000000000E+00 -0.18250000000E+03  0.18250000000E+03  0.00000000000E+00 0.  1.
        -11    1    1    2    0    0 -0.62149576976E+01  0.10061670511E+01  0.13277012731E+03  0.13291931680E+03  0.00000000000E+00 0. -1.
         11    1    1    2    0    0  0.32967615787E+01 -0.46792370298E+01 -0.17877120873E+03  0.17886282164E+03  0.00000000000E+00 0.  1.
        -15    1    1    2    0    0  0.65512194200E+00  0.38690350656E+01 -0.22641851018E+01  0.48665059614E+01  0.17770000000E+01 0. -1.
         15    1    1    2    0    0  0.22630741769E+01 -0.19596508676E+00  0.48265266518E+02  0.48351355597E+02  0.17770000000E+01 0. -1.
</event>
<event>
 6    1  0.1097339E-002  0.1839631E+03  0.7546771E-02  0.1067296E+00
        -11   -1    0    0    0    0  0.00000000000E+00  0.00000000000E+00  0.18250000000E+03  0.18250000000E+03  0.00000000000E+00 0.  1.
         11   -1    0    0    0    0 -0.00000000000E+00 -0.00000000000E+00 -0.18250000000E+03  0.18250000000E+03  0.00000000000E+00 0.  1.
        -11    1    1    2    0    0 -0.46007366059E+01  0.43803703770E+00  0.16182725682E+03  0.16189323550E+03  0.00000000000E+00 0.  1.
         11    1    1    2    0    0  0.35815741207E+01  0.34478136822E+00 -0.18100117627E+03  0.18103693645E+03  0.00000000000E+00 0.  1.
        -15    1    1    2    0    0  0.31674051314E+01 -0.36777027005E+01  0.44925025853E+01  0.68482304940E+01  0.17770000000E+01 0. -1.
         15    1    1    2    0    0 -0.21482426462E+01  0.28948842945E+01  0.14681416874E+02  0.15221597550E+02  0.17770000000E+01 0.  1.
</event>
<event>
 6    1  0.1097339E-002  0.1828184E+03  0.7546771E-02  0.1068202E+00
        -11   -1    0    0    0    0  0.00000000000E+00  0.00000000000E+00  0.18250000000E+03  0.18250000000E+03  0.00000000000E+00 0.  1.
         11   -1    0    0    0    0 -0.00000000000E+00 -0.00000000000E+00 -0.18250000000E+03  0.18250000000E+03  0.00000000000E+00 0.  1.
        -11    1    1    2    0    0 -0.15883795998E+01  0.24598157153E+01  0.18215802454E+03  0.18218155655E+03  0.00000000000E+00 0.  1.
         11    1    1    2    0    0 -0.81382925369E-01  0.22430698827E+01 -0.14335690989E+03  0.14337448029E+03  0.00000000000E+00 0.  1.
        -15    1    1    2    0    0  0.14423951495E+01 -0.37816149197E+01 -0.33172616760E+02  0.33465823565E+02  0.17770000000E+01 0.  1.
         15    1    1    2    0    0  0.22736737562E+00 -0.92127067825E+00 -0.56284978840E+01  0.59781395949E+01  0.17770000000E+01 0.  1.
</event>
<event>
 6    1  0.1097339E-002  0.1859742E+03  0.7546771E-02  0.1065722E+00
        -11   -1    0    0    0    0  0.00000000000E+00  0.00000000000E+00  0.18250000000E+03  0.18250000000E+03  0.00000000000E+00 0. -1.
         11   -1    0    0    0    0 -0.00000000000E+00 -0.00000000000E+00 -0.18250000000E+03  0.18250000000E+03  0.00000000000E+00 0. -1.
        -11    1    1    2    0    0  0.58813912093E+00 -0.33470852692E+01  0.17513802714E+03  0.17517099485E+03  0.00000000000E+00 0. -1.
         11    1    1    2    0    0 -0.35186007042E+01 -0.34870672542E+00 -0.17899086893E+03  0.17902578951E+03  0.00000000000E+00 0. -1.
        -15    1    1    2    0    0  0.18276677197E+01  0.23170702790E+00  0.57799088827E+01  0.63213236852E+01  0.17770000000E+01 0. -1.
         15    1    1    2    0    0  0.11027938635E+01  0.34640849667E+01 -0.19270670855E+01  0.44818919570E+01  0.17770000000E+01 0.  1.
</event>
<event>
 6    1  0.1097339E-002  0.1850265E+03  0.7546771E-02  0.1066461E+00
        -11   -1    0    0    0    0  0.00000000000E+00  0.00000000000E+00  0.18250000000E+03  0.18250000000E+03  0.00000000000E+00 0.  1.
         11   -1    0    0    0    0 -0.00000000000E+00 -0.00000000000E+00 -0.18250000000E+03  0.18250000000E+03  0.00000000000E+00 0. -1.
        -11    1    1    2    0    0 -0.41176891415E+01 -0.32421348364E+01  0.17989712828E+03  0.17997345239E+03  0.00000000000E+00 0.  1.
         11    1    1    2    0    0 -0.10436703004E+01  0.24974955915E+01 -0.17603996062E+03  0.17606076925E+03  0.00000000000E+00 0. -1.
        -15    1    1    2    0    0  0.17560578551E+01 -0.58464822811E+00 -0.41624918999E+01  0.48897464717E+01  0.17770000000E+01 0. -1.
         15    1    1    2    0    0  0.34053015868E+01  0.13292874730E+01  0.30532424325E+00  0.40760318911E+01  0.17770000000E+01 0.  1.
</event>
<event>
 6    1  0.1097339E-002  0.1832732E+03  0.7546771E-02  0.1067841E+00
        -11   -1    0    0    0    0  0.00000000000E+00  0.00000000000E+00  0.18250000000E+03  0.18250000000E+03  0.00000000000E+00 0. -1.
         11   -1    0    0    0    0 -0.00000000000E+00 -0.00000000000E+00 -0.18250000000E+03  0.18250000000E+03  0.00000000000E+00 0. -1.
        -11    1    1    2    0    0 -0.32470992477E+01  0.24428839832E+01  0.18168134304E+03  0.18172677773E+03  0.00000000000E+00 0. -1.
         11    1    1    2    0    0 -0.10573620427E+00  0.26025778791E+01 -0.13505714192E+03  0.13508225707E+03  0.00000000000E+00 0. -1.
        -15    1    1    2    0    0  0.29678009337E+01  0.13665318833E+01 -0.30754187804E+02  0.30978267354E+02  0.17770000000E+01 0. -1.
         15    1    1    2    0    0  0.38503451833E+00 -0.64119937456E+01 -0.15870013317E+02  0.17212697844E+02  0.17770000000E+01 0.  1.
</event>
<event>
 6    1  0.1097339E-002  0.1764739E+03  0.7546771E-02  0.1073355E+00
        -11   -1    0    0    0    0  0.00000000000E+00  0.00000000000E+00  0.18250000000E+03  0.18250000000E+03  0.00000000000E+00 0.  1.
         11   -1    0    0    0    0 -0.00000000000E+00 -0.00000000000E+00 -0.18250000000E+03  0.18250000000E+03  0.00000000000E+00 0.  1.
        -11    1    1    2    0    0 -0.31081323197E+01  0.14924250020E+01  0.17656354196E+03  0.17659720317E+03  0.00000000000E+00 0.  1.
         11    1    1    2    0    0  0.12056004448E+01  0.27377246821E+01 -0.17635568760E+03  0.17638105669E+03  0.00000000000E+00 0.  1.
        -15    1    1    2    0    0 -0.34241047738E+01 -0.17427505465E+01  0.29073195143E+01  0.51353586756E+01  0.17770000000E+01 0. -1.
         15    1    1    2    0    0  0.53266366487E+01 -0.24873991376E+01 -0.31151738678E+01  0.68863814651E+01  0.17770000000E+01 0.  1.
</event>
<event>
 6    1  0.1097339E-002  0.1838061E+03  0.7546771E-02  0.1067420E+00
        -11   -1    0    0    0    0  0.00000000000E+00  0.00000000000E+00  0.18250000000E+03  0.18250000000E+03  0.00000000000E+00 0.  1.
         11   -1    0    0    0    0 -0.00000000000E+00 -0.00000000000E+00 -0.18250000000E+03  0.18250000000E+03  0.00000000000E+00 0.  1.
        -11    1    1    2    0    0  0.82260818970E+00  0.49484586161E+01  0.18112447843E+03  0.18119393095E+03  0.00000000000E+00 0.  1.
         11    1    1    2    0    0 -0.19810289952E+01 -0.30479547987E+01 -0.16276827574E+03  0.16280886368E+03  0.00000000000E+00 0.  1.
        -15    1    1    2    0    0  0.16568493223E+01 -0.54459746958E+01 -0.87116996395E+01  0.10557235892E+02  0.17770000000E+01 0.  1.
         15    1    1    2    0    0 -0.49842851679E+00  0.35454708784E+01 -0.96445030441E+01  0.10439969478E+02  0.17770000000E+01 0. -1.
</event>
<event>
 6    1  0.1097339E-002  0.1915437E+03  0.7546771E-02  0.1061476E+00
        -11   -1    0    0    0    0  0.00000000000E+00  0.00000000000E+00  0.18250000000E+03  0.18250000000E+03  0.00000000000E+00 0.  1.
         11   -1    0    0    0    0 -0.00000000000E+00 -0.00000000000E+00 -0.18250000000E+03  0.18250000000E+03  0.00000000000E+00 0.  1.
        -11    1    1    2    0    0  0.18519562491E+02 -0.17695102145E+02  0.12044125010E+03  0.12313482676E+03  0.00000000000E+00 0.  1.
         11    1    1    2    0    0 -0.90286495605E+01 -0.34422651049E+01 -0.17318691710E+03  0.17345625949E+03  0.00000000000E+00 0.  1.
        -15    1    1    2    0    0 -0.62606331455E+00  0.14279901852E+02  0.54986896692E+02  0.56842097858E+02  0.17770000000E+01 0.  1.
         15    1    1    2    0    0 -0.88648496155E+01  0.68574653975E+01 -0.22412296893E+01  0.11566815893E+02  0.17770000000E+01 0. -1.
</event>
<event>
 6    1  0.1097339E-002  0.1866444E+03  0.7546771E-02  0.1065203E+00
        -11   -1    0    0    0    0  0.00000000000E+00  0.00000000000E+00  0.18250000000E+03  0.18250000000E+03  0.00000000000E+00 0. -1.
         11   -1    0    0    0    0 -0.00000000000E+00 -0.00000000000E+00 -0.18250000000E+03  0.18250000000E+03  0.00000000000E+00 0.  1.
        -11    1    1    2    0    0 -0.28632109804E+01 -0.11953158802E+01  0.17832856490E+03  0.17835555449E+03  0.00000000000E+00 0. -1.
         11    1    1    2    0    0  0.80853535512E+01  0.54113461990E+01 -0.16918988257E+03  0.16946938359E+03  0.00000000000E+00 0.  1.
        -15    1    1    2    0    0  0.13007378578E+01 -0.18715334103E+01  0.22925703596E+01  0.36889245227E+01  0.17770000000E+01 0. -1.
         15    1    1    2    0    0 -0.65228804285E+01 -0.23444969084E+01 -0.11431252694E+02  0.13486137400E+02  0.17770000000E+01 0.  1.
</event>
<event>
 6    1  0.1097339E-002  0.1859261E+03  0.7546771E-02  0.1065760E+00
        -11   -1    0    0    0    0  0.00000000000E+00  0.00000000000E+00  0.18250000000E+03  0.18250000000E+03  0.00000000000E+00 0. -1.
         11   -1    0    0    0    0 -0.00000000000E+00 -0.00000000000E+00 -0.18250000000E+03  0.18250000000E+03  0.00000000000E+00 0. -1.
        -11    1    1    2    0    0 -0.19965465132E+00  0.29187187052E+01  0.17904998363E+03  0.17907388257E+03  0.00000000000E+00 0. -1.
         11    1    1    2    0    0 -0.39135535896E+01  0.83842431103E+01 -0.15749153697E+03  0.15776309978E+03  0.00000000000E+00 0. -1.
        -15    1    1    2    0    0 -0.17815624922E+01  0.38697685273E+00  0.35926175814E+00  0.25710919877E+01  0.17770000000E+01 0.  1.
         15    1    1    2    0    0  0.58947707331E+01 -0.11689938668E+02 -0.21917708419E+02  0.25591925668E+02  0.17770000000E+01 0.  1.
</event>
<event>
 6    1  0.1097339E-002  0.1831429E+03  0.7546771E-02  0.1067944E+00
        -11   -1    0    0    0    0  0.00000000000E+00  0.00000000000E+00  0.18250000000E+03  0.18250000000E+03  0.00000000000E+00 0. -1.
         11   -1    0    0    0    0 -0.00000000000E+00 -0.00000000000E+00 -0.18250000000E+03  0.18250000000E+03  0.00000000000E+00 0. -1.
        -11    1    1    2    0    0  0.32318385863E+00  0.23904030119E+01  0.17441675509E+03  0.17443343409E+03  0.00000000000E+00 0. -1.
         11    1    1    2    0    0  0.22109601771E+01 -0.15328298669E+01 -0.18183721192E+03  0.18185711301E+03  0.00000000000E+00 0. -1.
        -15    1    1    2    0    0 -0.12056952002E+01 -0.85108384918E+00  0.32759470818E+01  0.40084414573E+01  0.17770000000E+01 0. -1.
         15    1    1    2    0    0 -0.13284488355E+01 -0.64892957705E-02  0.41445097547E+01  0.47010114365E+01  0.17770000000E+01 0. -1.
</event>
<event>
 6    1  0.1097339E-002  0.1832787E+03  0.7546771E-02  0.1067837E+00
        -11   -1    0    0    0    0  0.00000000000E+00  0.00000000000E+00  0.18250000000E+03  0.18250000000E+03  0.00000000000E+00 0.  1.
         11   -1    0    0    0    0 -0.00000000000E+00 -0.00000000000E+00 -0.18250000000E+03  0.18250000000E+03  0.00000000000E+00 0. -1.
        -11    1    1    2    0    0 -0.96137411604E+00 -0.42552484876E+01  0.18166893945E+03  0.18172131119E+03  0.00000000000E+00 0.  1.
         11    1    1    2    0    0 -0.72465113111E+00  0.21974563411E+01 -0.14599203230E+03  0.14601036754E+03  0.00000000000E+00 0. -1.
        -15    1    1    2    0    0  0.24037144638E+00  0.49287712751E+01 -0.30338063886E+02  0.30788088835E+02  0.17770000000E+01 0. -1.
         15    1    1    2    0    0  0.14456538008E+01 -0.28709791286E+01 -0.53388432587E+01  0.64802324349E+01  0.17770000000E+01 0. -1.
</event>
<event>
 6    1  0.1097339E-002  0.1842031E+03  0.7546771E-02  0.1067107E+00
        -11   -1    0    0    0    0  0.00000000000E+00  0.00000000000E+00  0.18250000000E+03  0.18250000000E+03  0.00000000000E+00 0.  1.
         11   -1    0    0    0    0 -0.00000000000E+00 -0.00000000000E+00 -0.18250000000E+03  0.18250000000E+03  0.00000000000E+00 0. -1.
        -11    1    1    2    0    0 -0.22865122695E+01  0.12698031761E+01  0.18077797450E+03  0.18079689323E+03  0.00000000000E+00 0.  1.
         11    1    1    2    0    0 -0.29032114657E+00  0.22417803602E+01 -0.16293828963E+03  0.16295396925E+03  0.00000000000E+00 0. -1.
        -15    1    1    2    0    0  0.44215414300E+00  0.17616912773E+01 -0.10879280978E+00  0.25433484461E+01  0.17770000000E+01 0. -1.
         15    1    1    2    0    0  0.21346792731E+01 -0.52732748135E+01 -0.17730892058E+02  0.18705789078E+02  0.17770000000E+01 0.  1.
</event>
<event>
 6    1  0.1097339E-002  0.2000127E+03  0.7546771E-02  0.1055311E+00
        -11   -1    0    0    0    0  0.00000000000E+00  0.00000000000E+00  0.18250000000E+03  0.18250000000E+03  0.00000000000E+00 0.  1.
         11   -1    0    0    0    0 -0.00000000000E+00 -0.00000000000E+00 -0.18250000000E+03  0.18250000000E+03  0.00000000000E+00 0.  1.
        -11    1    1    2    0    0  0.35536837128E+02  0.17669333761E+02  0.85328799768E+02  0.94106727806E+02  0.00000000000E+00 0.  1.
         11    1    1    2    0    0 -0.35293519786E+01 -0.15103151498E+01 -0.16494259527E+03  0.16498726348E+03  0.00000000000E+00 0.  1.
        -15    1    1    2    0    0  0.28092482105E+01 -0.16476927831E+02  0.66607074951E+02  0.68695277776E+02  0.17770000000E+01 0.  1.
         15    1    1    2    0    0 -0.34816733359E+02  0.31790921970E+00  0.13006720552E+02  0.37210730934E+02  0.17770000000E+01 0. -1.
</event>
<event>
 6    1  0.1097339E-002  0.1703001E+03  0.7546771E-02  0.1078603E+00
        -11   -1    0    0    0    0  0.00000000000E+00  0.00000000000E+00  0.18250000000E+03  0.18250000000E+03  0.00000000000E+00 0.  1.
         11   -1    0    0    0    0 -0.00000000000E+00 -0.00000000000E+00 -0.18250000000E+03  0.18250000000E+03  0.00000000000E+00 0.  1.
        -11    1    1    2    0    0 -0.17438565840E+01  0.34131584918E+01  0.17080188874E+03  0.17084488837E+03  0.00000000000E+00 0.  1.
         11    1    1    2    0    0  0.78948669564E+01  0.47165189019E+01 -0.16966068959E+03  0.16990975271E+03  0.00000000000E+00 0.  1.
        -15    1    1    2    0    0 -0.41702886904E+01  0.36211411599E+01 -0.83779033653E+01  0.10190729359E+02  0.17770000000E+01 0. -1.
         15    1    1    2    0    0 -0.19807216820E+01 -0.11750818554E+02  0.72367042176E+01  0.14054629557E+02  0.17770000000E+01 0.  1.
</event>
<event>
 6    1  0.1097339E-002  0.1839591E+03  0.7546771E-02  0.1067299E+00
        -11   -1    0    0    0    0  0.00000000000E+00  0.00000000000E+00  0.18250000000E+03  0.18250000000E+03  0.00000000000E+00 0.  1.
         11   -1    0    0    0    0 -0.00000000000E+00 -0.00000000000E+00 -0.18250000000E+03  0.18250000000E+03  0.00000000000E+00 0. -1.
        -11    1    1    2    0    0 -0.59714991553E+01  0.49869877226E+00  0.18094173057E+03  0.18104092732E+03  0.00000000000E+00 0.  1.
         11    1    1    2    0    0 -0.57220217658E+00  0.45870262616E+01 -0.15688123896E+03  0.15694932737E+03  0.00000000000E+00 0. -1.
        -15    1    1    2    0    0  0.21900642787E+01 -0.35456777156E+01 -0.20287652302E+02  0.20787370612E+02  0.17770000000E+01 0.  1.
         15    1    1    2    0    0  0.43536370531E+01 -0.15400473183E+01 -0.37728393128E+01  0.62223746925E+01  0.17770000000E+01 0. -1.
</event>
<event>
 6    1  0.1097339E-002  0.1831204E+03  0.7546771E-02  0.1067962E+00
        -11   -1    0    0    0    0  0.00000000000E+00  0.00000000000E+00  0.18250000000E+03  0.18250000000E+03  0.00000000000E+00 0.  1.
         11   -1    0    0    0    0 -0.00000000000E+00 -0.00000000000E+00 -0.18250000000E+03  0.18250000000E+03  0.00000000000E+00 0. -1.
        -11    1    1    2    0    0  0.54447440150E+01 -0.36219500602E+00  0.12452489366E+03  0.12464439644E+03  0.00000000000E+00 0.  1.
         11    1    1    2    0    0 -0.12567562935E+01 -0.50895610114E+01 -0.18180406280E+03  0.18187963140E+03  0.00000000000E+00 0. -1.
        -15    1    1    2    0    0 -0.12378100207E+01  0.39170567710E+01  0.90171117418E+01  0.10066853558E+02  0.17770000000E+01 0.  1.
         15    1    1    2    0    0 -0.29501777008E+01  0.15346992464E+01  0.48262057401E+02  0.48409118602E+02  0.17770000000E+01 0.  1.
</event>
<event>
 6    1  0.1097339E-002  0.1910960E+03  0.7546771E-02  0.1061811E+00
        -11   -1    0    0    0    0  0.00000000000E+00  0.00000000000E+00  0.18250000000E+03  0.18250000000E+03  0.00000000000E+00 0. -1.
         11   -1    0    0    0    0 -0.00000000000E+00 -0.00000000000E+00 -0.18250000000E+03  0.18250000000E+03  0.00000000000E+00 0. -1.
        -11    1    1    2    0    0 -0.40146258255E+01 -0.25905221313E+01  0.17383835098E+03  0.17390399736E+03  0.00000000000E+00 0. -1.
         11    1    1    2    0    0  0.95237149297E+00 -0.38274658604E+01 -0.99706066179E+02  0.99784047519E+02  0.00000000000E+00 0. -1.
        -15    1    1    2    0    0  0.63708967048E+01  0.22879939014E+01  0.70523527300E+01  0.99356252418E+01  0.17770000000E+01 0. -1.
         15    1    1    2    0    0 -0.33086423723E+01  0.41299940903E+01 -0.81184637529E+02  0.81376329883E+02  0.17770000000E+01 0. -1.
</event>
<event>
 6    1  0.1097339E-002  0.1929359E+03  0.7546771E-02  0.1060439E+00
        -11   -1    0    0    0    0  0.00000000000E+00  0.00000000000E+00  0.18250000000E+03  0.18250000000E+03  0.00000000000E+00 0.  1.
         11   -1    0    0    0    0 -0.00000000000E+00 -0.00000000000E+00 -0.18250000000E+03  0.18250000000E+03  0.00000000000E+00 0. -1.
        -11    1    1    2    0    0 -0.19374153141E+01  0.13696603242E+02  0.63178239492E+02  0.64674882789E+02  0.00000000000E+00 0.  1.
         11    1    1    2    0    0  0.38211066566E+01  0.73797152345E+01 -0.17186333965E+03  0.17206414085E+03  0.00000000000E+00 0. -1.
        -15    1    1    2    0    0 -0.32189334387E+01 -0.31785900915E+01  0.11006572608E+03  0.11017298560E+03  0.17770000000E+01 0.  1.
         15    1    1    2    0    0  0.13352420962E+01 -0.17897728385E+02 -0.13806259284E+01  0.18087990761E+02  0.17770000000E+01 0. -1.
</event>
<event>
 6    1  0.1097339E-002  0.1796736E+03  0.7546771E-02  0.1070727E+00
        -11   -1    0    0    0    0  0.00000000000E+00  0.00000000000E+00  0.18250000000E+03  0.18250000000E+03  0.00000000000E+00 0.  1.
         11   -1    0    0    0    0 -0.00000000000E+00 -0.00000000000E+00 -0.18250000000E+03  0.18250000000E+03  0.00000000000E+00 0.  1.
        -11    1    1    2    0    0  0.33203440895E+00 -0.48991527106E+01  0.18228287040E+03  0.18234899722E+03  0.00000000000E+00 0.  1.
         11    1    1    2    0    0  0.77409492272E+00 -0.29745645805E+00 -0.57715488940E+01  0.58308215484E+01  0.00000000000E+00 0.  1.
        -15    1    1    2    0    0 -0.45886816193E+01  0.40293193969E+01 -0.11050149894E+03  0.11068437293E+03  0.17770000000E+01 0.  1.
         15    1    1    2    0    0  0.34825522876E+01  0.11672897718E+01 -0.66009822566E+02  0.66135808304E+02  0.17770000000E+01 0. -1.
</event>
<event>
 6    1  0.1097339E-002  0.1829435E+03  0.7546771E-02  0.1068102E+00
        -11   -1    0    0    0    0  0.00000000000E+00  0.00000000000E+00  0.18250000000E+03  0.18250000000E+03  0.00000000000E+00 0.  1.
         11   -1    0    0    0    0 -0.00000000000E+00 -0.00000000000E+00 -0.18250000000E+03  0.18250000000E+03  0.00000000000E+00 0.  1.
        -11    1    1    2    0    0  0.13775685911E+01  0.22992955583E+01  0.18203674479E+03  0.18205647725E+03  0.00000000000E+00 0.  1.
         11    1    1    2    0    0 -0.28766052206E+01  0.28292364430E+01 -0.13269494262E+03  0.13275627004E+03  0.00000000000E+00 0.  1.
        -15    1    1    2    0    0 -0.12037348206E+01  0.89501085656E+00 -0.11500200054E+02  0.11732960080E+02  0.17770000000E+01 0. -1.
         15    1    1    2    0    0  0.27027714500E+01 -0.60235428578E+01 -0.37841602115E+02  0.38454292631E+02  0.17770000000E+01 0.  1.
</event>
<event>
 6    1  0.1097339E-002  0.1760352E+03  0.7546771E-02  0.1073720E+00
        -11   -1    0    0    0    0  0.00000000000E+00  0.00000000000E+00  0.18250000000E+03  0.18250000000E+03  0.00000000000E+00 0. -1.
         11   -1    0    0    0    0 -0.00000000000E+00 -0.00000000000E+00 -0.18250000000E+03  0.18250000000E+03  0.00000000000E+00 0.  1.
        -11    1    1    2    0    0 -0.54052215667E+01 -0.70415140419E+01  0.17477666818E+03  0.17500195164E+03  0.00000000000E+00 0. -1.
         11    1    1    2    0    0 -0.29836983805E+01  0.85098809909E+00 -0.17720397721E+03  0.17723113771E+03  0.00000000000E+00 0.  1.
        -15    1    1    2    0    0 -0.48069422800E+00  0.98694728717E+00  0.59178083008E+00  0.21709595665E+01  0.17770000000E+01 0. -1.
         15    1    1    2    0    0  0.88696141752E+01  0.52035786556E+01  0.18355282009E+01  0.10595951077E+02  0.17770000000E+01 0.  1.
</event>
<event>
 6    1  0.1097339E-002  0.1831748E+03  0.7546771E-02  0.1067919E+00
        -11   -1    0    0    0    0  0.00000000000E+00  0.00000000000E+00  0.18250000000E+03  0.18250000000E+03  0.00000000000E+00 0.  1.
         11   -1    0    0    0    0 -0.00000000000E+00 -0.00000000000E+00 -0.18250000000E+03  0.18250000000E+03  0.00000000000E+00 0.  1.
        -11    1    1    2    0    0  0.25150903557E+01 -0.48732310185E+01  0.18174245146E+03  0.18182517077E+03  0.00000000000E+00 0.  1.
         11    1    1    2    0    0 -0.33879635348E+01 -0.15742901583E+01 -0.12695145524E+03  0.12700641194E+03  0.00000000000E+00 0.  1.
        -15    1    1    2    0    0  0.42480886429E+01 -0.35695687204E-01 -0.26358631155E+02  0.26757852990E+02  0.17770000000E+01 0.  1.
         15    1    1    2    0    0 -0.33752154638E+01  0.64832168640E+01 -0.28432365073E+02  0.29410564309E+02  0.17770000000E+01 0. -1.
</event>
<event>
 6    1  0.1097339E-002  0.1829524E+03  0.7546771E-02  0.1068095E+00
        -11   -1    0    0    0    0  0.00000000000E+00  0.00000000000E+00  0.18250000000E+03  0.18250000000E+03  0.00000000000E+00 0. -1.
         11   -1    0    0    0    0 -0.00000000000E+00 -0.00000000000E+00 -0.18250000000E+03  0.18250000000E+03  0.00000000000E+00 0. -1.
        -11    1    1    2    0    0 -0.52705567184E-01  0.17334604409E+01  0.43082124895E+02  0.43117016924E+02  0.00000000000E+00 0. -1.
         11    1    1    2    0    0 -0.89956699747E+01  0.35290186427E+01 -0.18179098201E+03  0.18204762342E+03  0.00000000000E+00 0. -1.
        -15    1    1    2    0    0  0.99637180354E+01 -0.82277220510E+01  0.83681459312E+02  0.84691885377E+02  0.17770000000E+01 0. -1.
         15    1    1    2    0    0 -0.91534249352E+00  0.29652429675E+01  0.55027397805E+02  0.55143474282E+02  0.17770000000E+01 0. -1.
</event>
<event>
 6    1  0.1097339E-002  0.1833937E+03  0.7546771E-02  0.1067746E+00
        -11   -1    0    0    0    0  0.00000000000E+00  0.00000000000E+00  0.18250000000E+03  0.18250000000E+03  0.00000000000E+00 0. -1.
         11   -1    0    0    0    0 -0.00000000000E+00 -0.00000000000E+00 -0.18250000000E+03  0.18250000000E+03  0.00000000000E+00 0. -1.
        -11    1    1    2    0    0  0.66795186132E+01  0.72042864491E+00  0.18148195424E+03  0.18160626284E+03  0.00000000000E+00 0. -1.
         11    1    1    2    0    0  0.14826030722E+01 -0.22675086160E+01 -0.81833924830E+02  0.81878757687E+02  0.00000000000E+00 0. -1.
        -15    1    1    2    0    0 -0.10201127461E+02 -0.95316184218E+00 -0.29658218303E+02  0.31428317818E+02  0.17770000000E+01 0. -1.
         15    1    1    2    0    0  0.20390057757E+01  0.25002418133E+01 -0.69989811111E+02  0.70086661656E+02  0.17770000000E+01 0. -1.
</event>
<event>
 6    1  0.1097339E-002  0.1902380E+03  0.7546771E-02  0.1062457E+00
        -11   -1    0    0    0    0  0.00000000000E+00  0.00000000000E+00  0.18250000000E+03  0.18250000000E+03  0.00000000000E+00 0. -1.
         11   -1    0    0    0    0 -0.00000000000E+00 -0.00000000000E+00 -0.18250000000E+03  0.18250000000E+03  0.00000000000E+00 0.  1.
        -11    1    1    2    0    0 -0.75870345590E+01  0.58388774115E+00  0.17459624371E+03  0.17476198767E+03  0.00000000000E+00 0. -1.
         11    1    1    2    0    0 -0.21653194180E+01  0.44607569776E+00 -0.11447548593E+03  0.11449683171E+03  0.00000000000E+00 0.  1.
        -15    1    1    2    0    0  0.65280552110E+01 -0.62788753523E+01  0.48691416505E+01  0.10435806147E+02  0.17770000000E+01 0. -1.
         15    1    1    2    0    0  0.32242987660E+01  0.52489119134E+01 -0.64989899423E+02  0.65305374471E+02  0.17770000000E+01 0.  1.
</event>
<event>
 6    1  0.1097339E-002  0.1837077E+03  0.7546771E-02  0.1067498E+00
        -11   -1    0    0    0    0  0.00000000000E+00  0.00000000000E+00  0.18250000000E+03  0.18250000000E+03  0.00000000000E+00 0. -1.
         11   -1    0    0    0    0 -0.00000000000E+00 -0.00000000000E+00 -0.18250000000E+03  0.18250000000E+03  0.00000000000E+00 0. -1.
        -11    1    1    2    0    0 -0.10554159595E+01  0.25524070848E+01  0.18127126315E+03  0.18129230411E+03  0.00000000000E+00 0. -1.
         11    1    1    2    0    0  0.64343544905E+00  0.38629972359E+01 -0.10145673957E+03  0.10153229418E+03  0.00000000000E+00 0. -1.
        -15    1    1    2    0    0 -0.69277173012E+00 -0.55597138775E+01 -0.62629613548E+01  0.85891073460E+01  0.17770000000E+01 0.  1.
         15    1    1    2    0    0  0.11047522405E+01 -0.85569044312E+00 -0.73551562229E+02  0.73586294369E+02  0.17770000000E+01 0. -1.
</event>
<event>
 6    1  0.1097339E-002  0.1837246E+03  0.7546771E-02  0.1067484E+00
        -11   -1    0    0    0    0  0.00000000000E+00  0.00000000000E+00  0.18250000000E+03  0.18250000000E+03  0.00000000000E+00 0.  1.
         11   -1    0    0    0    0 -0.00000000000E+00 -0.00000000000E+00 -0.18250000000E+03  0.18250000000E+03  0.00000000000E+00 0.  1.
        -11    1    1    2    0    0 -0.51915678826E+00 -0.23440303844E+01  0.12159379744E+03  0.12161749700E+03  0.00000000000E+00 0.  1.
         11    1    1    2    0    0  0.16213245553E+01  0.58909141922E+01 -0.18117241542E+03  0.18127541387E+03  0.00000000000E+00 0.  1.
        -15    1    1    2    0    0 -0.78191225728E+01 -0.47360160416E+00  0.44538207602E+02  0.45256741395E+02  0.17770000000E+01 0.  1.
         15    1    1    2    0    0  0.67169548058E+01 -0.30732822036E+01  0.15040410382E+02  0.16850347736E+02  0.17770000000E+01 0. -1.
</event>
<event>
 6    1  0.1097339E-002  0.1837297E+03  0.7546771E-02  0.1067480E+00
        -11   -1    0    0    0    0  0.00000000000E+00  0.00000000000E+00  0.18250000000E+03  0.18250000000E+03  0.00000000000E+00 0.  1.
         11   -1    0    0    0    0 -0.00000000000E+00 -0.00000000000E+00 -0.18250000000E+03  0.18250000000E+03  0.00000000000E+00 0.  1.
        -11    1    1    2    0    0 -0.90240936493E+01  0.43465385940E+00  0.18104506662E+03  0.18127034876E+03  0.00000000000E+00 0.  1.
         11    1    1    2    0    0 -0.20001517935E+01  0.77957683762E+00 -0.10766980393E+03  0.10769120218E+03  0.00000000000E+00 0.  1.
        -15    1    1    2    0    0 -0.15407351444E+01 -0.13374929691E+01 -0.43441232598E+02  0.43525408337E+02  0.17770000000E+01 0.  1.
         15    1    1    2    0    0  0.12564980587E+02  0.12326227207E+00 -0.29934030092E+02  0.32513040727E+02  0.17770000000E+01 0.  1.
</event>
<event>
 6    1  0.1097339E-002  0.1827656E+03  0.7546771E-02  0.1068244E+00
        -11   -1    0    0    0    0  0.00000000000E+00  0.00000000000E+00  0.18250000000E+03  0.18250000000E+03  0.00000000000E+00 0.  1.
         11   -1    0    0    0    0 -0.00000000000E+00 -0.00000000000E+00 -0.18250000000E+03  0.18250000000E+03  0.00000000000E+00 0. -1.
        -11    1    1    2    0    0 -0.43728293428E+01 -0.52585610027E-01  0.18218189669E+03  0.18223437623E+03  0.00000000000E+00 0.  1.
         11    1    1    2    0    0 -0.19388752696E+01 -0.54032350840E+00 -0.15103764362E+02  0.15237286002E+02  0.00000000000E+00 0. -1.
        -15    1    1    2    0    0  0.36864803268E+01 -0.22350765390E+01 -0.28021401099E+02  0.28406730767E+02  0.17770000000E+01 0.  1.
         15    1    1    2    0    0  0.26252242857E+01  0.28279856574E+01 -0.13905673122E+03  0.13912160700E+03  0.17770000000E+01 0. -1.
</event>
<event>
 6    1  0.1097339E-002  0.1681906E+03  0.7546771E-02  0.1080452E+00
        -11   -1    0    0    0    0  0.00000000000E+00  0.00000000000E+00  0.18250000000E+03  0.18250000000E+03  0.00000000000E+00 0.  1.
         11   -1    0    0    0    0 -0.00000000000E+00 -0.00000000000E+00 -0.18250000000E+03  0.18250000000E+03  0.00000000000E+00 0.  1.
        -11    1    1    2    0    0  0.95985212178E+01  0.14436353122E+02  0.16498384168E+03  0.16589215749E+03  0.00000000000E+00 0.  1.
         11    1    1    2    0    0  0.37437501080E+01  0.19543210944E+00 -0.17108557171E+03  0.17112663938E+03  0.00000000000E+00 0.  1.
        -15    1    1    2    0    0 -0.11814568282E+02 -0.15293713755E+02  0.11145806763E+02  0.22380090293E+02  0.17770000000E+01 0. -1.
         15    1    1    2    0    0 -0.15277030434E+01  0.66192852304E+00 -0.50440767281E+01  0.56011128356E+01  0.17770000000E+01 0.  1.
</event>
<event>
 6    1  0.1097339E-002  0.1825895E+03  0.7546771E-02  0.1068384E+00
        -11   -1    0    0    0    0  0.00000000000E+00  0.00000000000E+00  0.18250000000E+03  0.18250000000E+03  0.00000000000E+00 0.  1.
         11   -1    0    0    0    0 -0.00000000000E+00 -0.00000000000E+00 -0.18250000000E+03  0.18250000000E+03  0.00000000000E+00 0. -1.
        -11    1    1    2    0    0  0.63492236580E+00  0.14121978271E+01  0.11393381286E+03  0.11394433353E+03  0.00000000000E+00 0.  1.
         11    1    1    2    0    0 -0.26015471967E+01 -0.19657105344E+01 -0.18238139970E+03  0.18241054526E+03  0.00000000000E+00 0. -1.
        -15    1    1    2    0    0  0.10916404442E+01  0.18768918631E+01  0.39682144562E+02  0.39781210741E+02  0.17770000000E+01 0.  1.
         15    1    1    2    0    0  0.87498438671E+00 -0.13233791557E+01  0.28765442271E+02  0.28863910478E+02  0.17770000000E+01 0.  1.
</event>
<event>
 6    1  0.1097339E-002  0.1646814E+03  0.7546771E-02  0.1083595E+00
        -11   -1    0    0    0    0  0.00000000000E+00  0.00000000000E+00  0.18250000000E+03  0.18250000000E+03  0.00000000000E+00 0. -1.
         11   -1    0    0    0    0 -0.00000000000E+00 -0.00000000000E+00 -0.18250000000E+03  0.18250000000E+03  0.00000000000E+00 0.  1.
        -11    1    1    2    0    0  0.17287301568E+02  0.20347876761E+01  0.17053110017E+03  0.17141717324E+03  0.00000000000E+00 0. -1.
         11    1    1    2    0    0  0.44052187020E+01 -0.16875172452E+01 -0.15879775623E+03  0.15886780999E+03  0.00000000000E+00 0.  1.
        -15    1    1    2    0    0 -0.23878984812E+02  0.61785367377E+01 -0.56671986567E+01  0.25370358718E+02  0.17770000000E+01 0. -1.
         15    1    1    2    0    0  0.21864645424E+01 -0.65258071686E+01 -0.60661452851E+01  0.93446580471E+01  0.17770000000E+01 0.  1.
</event>
<event>
 6    1  0.1097339E-002  0.1845403E+03  0.7546771E-02  0.1066842E+00
        -11   -1    0    0    0    0  0.00000000000E+00  0.00000000000E+00  0.18250000000E+03  0.18250000000E+03  0.00000000000E+00 0.  1.
         11   -1    0    0    0    0 -0.00000000000E+00 -0.00000000000E+00 -0.18250000000E+03  0.18250000000E+03  0.00000000000E+00 0. -1.
        -11    1    1    2    0    0  0.35160189165E+01 -0.16462103078E+01  0.80969108383E+02  0.81062129936E+02  0.00000000000E+00 0.  1.
         11    1    1    2    0    0 -0.40425171076E+01  0.49949872098E+01 -0.18034523871E+03  0.18045968238E+03  0.00000000000E+00 0. -1.
        -15    1    1    2    0    0 -0.31563175931E+01  0.11201414400E+00  0.97837457350E+02  0.97904548810E+02  0.17770000000E+01 0.  1.
         15    1    1    2    0    0  0.36828157842E+01 -0.34607910460E+01  0.15386729720E+01  0.55736388723E+01  0.17770000000E+01 0. -1.
</event>
<event>
 6    1  0.1097339E-002  0.1847889E+03  0.7546771E-02  0.1066647E+00
        -11   -1    0    0    0    0  0.00000000000E+00  0.00000000000E+00  0.18250000000E+03  0.18250000000E+03  0.00000000000E+00 0. -1.
         11   -1    0    0    0    0 -0.00000000000E+00 -0.00000000000E+00 -0.18250000000E+03  0.18250000000E+03  0.00000000000E+00 0.  1.
        -11    1    1    2    0    0 -0.53418733010E+01 -0.80407513549E+01  0.17995240489E+03  0.18021114648E+03  0.00000000000E+00 0. -1.
         11    1    1    2    0    0 -0.33031361917E+00 -0.34325057346E+01 -0.12618434375E+03  0.12623145334E+03  0.00000000000E+00 0.  1.
        -15    1    1    2    0    0  0.93773895811E+00  0.11354635239E+02 -0.51899364995E+02  0.53164921815E+02  0.17770000000E+01 0. -1.
         15    1    1    2    0    0  0.47344479621E+01  0.11862185007E+00 -0.18686961374E+01  0.53924783637E+01  0.17770000000E+01 0.  1.
</event>
<event>
 6    1  0.1097339E-002  0.1856693E+03  0.7546771E-02  0.1065960E+00
        -11   -1    0    0    0    0  0.00000000000E+00  0.00000000000E+00  0.18250000000E+03  0.18250000000E+03  0.00000000000E+00 0.  1.
         11   -1    0    0    0    0 -0.00000000000E+00 -0.00000000000E+00 -0.18250000000E+03  0.18250000000E+03  0.00000000000E+00 0. -1.
        -11    1    1    2    0    0  0.17268949532E+01  0.88865616108E+01  0.17910207733E+03  0.17933072031E+03  0.00000000000E+00 0.  1.
         11    1    1    2    0    0  0.22589556288E+01 -0.15629895796E+01 -0.14911723699E+03  0.14914253647E+03  0.00000000000E+00 0. -1.
        -15    1    1    2    0    0 -0.20543854180E+00 -0.13287258878E+02 -0.21590700075E+02  0.25414749895E+02  0.17770000000E+01 0. -1.
         15    1    1    2    0    0 -0.37804120402E+01  0.59636868471E+01 -0.83941402646E+01  0.11111993331E+02  0.17770000000E+01 0. -1.
</event>
<event>
 6    1  0.1097339E-002  0.1835234E+03  0.7546771E-02  0.1067643E+00
        -11   -1    0    0    0    0  0.00000000000E+00  0.00000000000E+00  0.18250000000E+03  0.18250000000E+03  0.00000000000E+00 0.  1.
         11   -1    0    0    0    0 -0.00000000000E+00 -0.00000000000E+00 -0.18250000000E+03  0.18250000000E+03  0.00000000000E+00 0. -1.
        -11    1    1    2    0    0 -0.98256725856E+00 -0.28804468524E+01  0.18145107189E+03  0.18147659326E+03  0.00000000000E+00 0.  1.
         11    1    1    2    0    0  0.32971952841E+01  0.40897767880E+01 -0.16439479203E+03  0.16447870810E+03  0.00000000000E+00 0. -1.
        -15    1    1    2    0    0  0.19553647718E+01 -0.15592858885E+01 -0.10979423803E+02  0.11400013154E+02  0.17770000000E+01 0. -1.
         15    1    1    2    0    0 -0.42699927974E+01  0.34995595291E+00 -0.60768560586E+01  0.76446854883E+01  0.17770000000E+01 0.  1.
</event>
<event>
 6    1  0.1097339E-002  0.1892497E+03  0.7546771E-02  0.1063205E+00
        -11   -1    0    0    0    0  0.00000000000E+00  0.00000000000E+00  0.18250000000E+03  0.18250000000E+03  0.00000000000E+00 0.  1.
         11   -1    0    0    0    0 -0.00000000000E+00 -0.00000000000E+00 -0.18250000000E+03  0.18250000000E+03  0.00000000000E+00 0.  1.
        -11    1    1    2    0    0  0.35699104660E-02 -0.95766159272E+01  0.14761080320E+03  0.14792113036E+03  0.00000000000E+00 0.  1.
         11    1    1    2    0    0 -0.24978689718E+01  0.83642366979E+00 -0.17573052030E+03  0.17575026236E+03  0.00000000000E+00 0.  1.
        -15    1    1    2    0    0  0.28130773917E+01  0.17916836380E+01  0.32631357025E+02  0.32849455475E+02  0.17770000000E+01 0. -1.
         15    1    1    2    0    0 -0.31877833036E+00  0.69485086195E+01 -0.45116399241E+01  0.84791518127E+01  0.17770000000E+01 0.  1.
</event>
<event>
 6    1  0.1097339E-002  0.1915841E+03  0.7546771E-02  0.1061445E+00
        -11   -1    0    0    0    0  0.00000000000E+00  0.00000000000E+00  0.18250000000E+03  0.18250000000E+03  0.00000000000E+00 0. -1.
         11   -1    0    0    0    0 -0.00000000000E+00 -0.00000000000E+00 -0.18250000000E+03  0.18250000000E+03  0.00000000000E+00 0. -1.
        -11    1    1    2    0    0 -0.21105353341E+00  0.31968714768E+01  0.17338629997E+03  0.17341589762E+03  0.00000000000E+00 0. -1.
         11    1    1    2    0    0 -0.24454771613E+01  0.43772715039E+01 -0.16084894744E+03  0.16092707900E+03  0.00000000000E+00 0. -1.
        -15    1    1    2    0    0  0.17569345382E+01  0.13920203949E+01  0.78183120369E+01  0.83251589689E+01  0.17770000000E+01 0. -1.
         15    1    1    2    0    0  0.89959615646E+00 -0.89661633756E+01 -0.20355664567E+02  0.22331864407E+02  0.17770000000E+01 0.  1.
</event>
<event>
 6    1  0.1097339E-002  0.1827817E+03  0.7546771E-02  0.1068231E+00
        -11   -1    0    0    0    0  0.00000000000E+00  0.00000000000E+00  0.18250000000E+03  0.18250000000E+03  0.00000000000E+00 0.  1.
         11   -1    0    0    0    0 -0.00000000000E+00 -0.00000000000E+00 -0.18250000000E+03  0.18250000000E+03  0.00000000000E+00 0.  1.
        -11    1    1    2    0    0 -0.40232170218E+01  0.32281314535E+01  0.18214529455E+03  0.18221831805E+03  0.00000000000E+00 0.  1.
         11    1    1    2    0    0  0.30114015450E+01 -0.25337880652E+01 -0.10607987139E+03  0.10615285081E+03  0.00000000000E+00 0.  1.
        -15    1    1    2    0    0 -0.11587742231E+01  0.22683329323E+01 -0.59029437110E+02  0.59111084126E+02  0.17770000000E+01 0.  1.
         15    1    1    2    0    0  0.21705896999E+01 -0.29626763206E+01 -0.17035986051E+02  0.17517747012E+02  0.17770000000E+01 0. -1.
</event>
<event>
 6    1  0.1097339E-002  0.1952438E+03  0.7546771E-02  0.1058740E+00
        -11   -1    0    0    0    0  0.00000000000E+00  0.00000000000E+00  0.18250000000E+03  0.18250000000E+03  0.00000000000E+00 0. -1.
         11   -1    0    0    0    0 -0.00000000000E+00 -0.00000000000E+00 -0.18250000000E+03  0.18250000000E+03  0.00000000000E+00 0. -1.
        -11    1    1    2    0    0 -0.23423081867E+01 -0.39271854638E+01  0.16969464948E+03  0.16975624659E+03  0.00000000000E+00 0. -1.
         11    1    1    2    0    0  0.13812770294E+01 -0.22257689158E+01 -0.16101853449E+03  0.16103984111E+03  0.00000000000E+00 0. -1.
        -15    1    1    2    0    0 -0.69664113216E+01 -0.44117218639E+01  0.88238263836E+01  0.12207039672E+02  0.17770000000E+01 0. -1.
         15    1    1    2    0    0  0.79274424789E+01  0.10564676244E+02 -0.17499941375E+02  0.21996872630E+02  0.17770000000E+01 0.  1.
</event>
<event>
 6    1  0.1097339E-002  0.1834717E+03  0.7546771E-02  0.1067684E+00
        -11   -1    0    0    0    0  0.00000000000E+00  0.00000000000E+00  0.18250000000E+03  0.18250000000E+03  0.00000000000E+00 0.  1.
         11   -1    0    0    0    0 -0.00000000000E+00 -0.00000000000E+00 -0.18250000000E+03  0.18250000000E+03  0.00000000000E+00 0.  1.
        -11    1    1    2    0    0  0.58333866173E+01  0.31095464436E+00  0.10477505899E+03  0.10493778194E+03  0.00000000000E+00 0.  1.
         11    1    1    2    0    0  0.47478601352E+01  0.10910968704E+02 -0.18113785684E+03  0.18152827492E+03  0.00000000000E+00 0.  1.
        -15    1    1    2    0    0 -0.62496230439E+01 -0.10611322617E+02  0.40685565259E+02  0.42545633211E+02  0.17770000000E+01 0. -1.
         15    1    1    2    0    0 -0.43316237087E+01 -0.61060073124E+00  0.35677232595E+02  0.35988309933E+02  0.17770000000E+01 0.  1.
</event>
<event>
 6    1  0.1097339E-002  0.1833387E+03  0.7546771E-02  0.1067789E+00
        -11   -1    0    0    0    0  0.00000000000E+00  0.00000000000E+00  0.18250000000E+03  0.18250000000E+03  0.00000000000E+00 0. -1.
         11   -1    0    0    0    0 -0.00000000000E+00 -0.00000000000E+00 -0.18250000000E+03  0.18250000000E+03  0.00000000000E+00 0. -1.
        -11    1    1    2    0    0 -0.27815960154E+01  0.31811201389E+01  0.15597572772E+03  0.15603295946E+03  0.00000000000E+00 0. -1.
         11    1    1    2    0    0 -0.25048741804E+01 -0.74459594360E-01 -0.18164402303E+03  0.18166130860E+03  0.00000000000E+00 0. -1.
        -15    1    1    2    0    0 -0.17723658020E+00 -0.17554476947E+01  0.14080081299E+02  0.14301028907E+02  0.17770000000E+01 0.  1.
         15    1    1    2    0    0  0.54637067761E+01 -0.13512128499E+01  0.11588214016E+02  0.13004703033E+02  0.17770000000E+01 0. -1.
</event>
<event>
 6    1  0.1097339E-002  0.1846941E+03  0.7546771E-02  0.1066722E+00
        -11   -1    0    0    0    0  0.00000000000E+00  0.00000000000E+00  0.18250000000E+03  0.18250000000E+03  0.00000000000E+00 0.  1.
         11   -1    0    0    0    0 -0.00000000000E+00 -0.00000000000E+00 -0.18250000000E+03  0.18250000000E+03  0.00000000000E+00 0. -1.
        -11    1    1    2    0    0 -0.38498508801E+00  0.12520852358E+01  0.37827291469E+02  0.37849965797E+02  0.00000000000E+00 0.  1.
         11    1    1    2    0    0 -0.96737269236E+01  0.18881839815E+02 -0.17905341242E+03  0.18030593270E+03  0.00000000000E+00 0. -1.
        -15    1    1    2    0    0 -0.11953850622E+02 -0.93001681784E+01  0.44551317334E+02  0.47088908227E+02  0.17770000000E+01 0. -1.
         15    1    1    2    0    0  0.22012562634E+02 -0.10833756872E+02  0.96674803619E+02  0.99755193276E+02  0.17770000000E+01 0.  1.
</event>
<event>
 6    1  0.1097339E-002  0.1835343E+03  0.7546771E-02  0.1067635E+00
        -11   -1    0    0    0    0  0.00000000000E+00  0.00000000000E+00  0.18250000000E+03  0.18250000000E+03  0.00000000000E+00 0.  1.
         11   -1    0    0    0    0 -0.00000000000E+00 -0.00000000000E+00 -0.18250000000E+03  0.18250000000E+03  0.00000000000E+00 0.  1.
        -11    1    1    2    0    0  0.29374380597E+01 -0.62067589894E+01  0.18133577380E+03  0.18146574128E+03  0.00000000000E+00 0.  1.
         11    1    1    2    0    0 -0.48280337072E+01 -0.73005217702E+00 -0.16293597072E+03  0.16300912073E+03  0.00000000000E+00 0.  1.
        -15    1    1    2    0    0  0.39994172187E+00  0.47546954298E+01 -0.67929843877E+01  0.84893726448E+01  0.17770000000E+01 0. -1.
         15    1    1    2    0    0  0.14906539256E+01  0.21821157365E+01 -0.11606818693E+02  0.12035765342E+02  0.17770000000E+01 0.  1.
</event>
<event>
 6    1  0.1097339E-002  0.1831096E+03  0.7546771E-02  0.1067971E+00
        -11   -1    0    0    0    0  0.00000000000E+00  0.00000000000E+00  0.18250000000E+03  0.18250000000E+03  0.00000000000E+00 0.  1.
         11   -1    0    0    0    0 -0.00000000000E+00 -0.00000000000E+00 -0.18250000000E+03  0.18250000000E+03  0.00000000000E+00 0.  1.
        -11    1    1    2    0    0  0.24767476115E+01 -0.10156589579E+01  0.18187072386E+03  0.18189042317E+03  0.00000000000E+00 0.  1.
         11    1    1    2    0    0 -0.74467575265E+00  0.21001318666E+01 -0.16394128877E+03  0.16395643098E+03  0.00000000000E+00 0.  1.
        -15    1    1    2    0    0  0.10676020557E+00 -0.16144194350E+01 -0.15149659293E+02  0.15339089071E+02  0.17770000000E+01 0. -1.
         15    1    1    2    0    0 -0.18388320644E+01  0.52994652626E+00 -0.27797758011E+01  0.38140567885E+01  0.17770000000E+01 0.  1.
</event>
<event>
 6    1  0.1097339E-002  0.1835454E+03  0.7546771E-02  0.1067626E+00
        -11   -1    0    0    0    0  0.00000000000E+00  0.00000000000E+00  0.18250000000E+03  0.18250000000E+03  0.00000000000E+00 0. -1.
         11   -1    0    0    0    0 -0.00000000000E+00 -0.00000000000E+00 -0.18250000000E+03  0.18250000000E+03  0.00000000000E+00 0.  1.
        -11    1    1    2    0    0 -0.30344378952E+01 -0.48877465235E+01  0.38620336749E+02  0.39046488831E+02  0.00000000000E+00 0. -1.
         11    1    1    2    0    0 -0.21135500822E+01  0.39050884806E+01 -0.18140029910E+03  0.18145463710E+03  0.00000000000E+00 0.  1.
        -15    1    1    2    0    0 -0.73302294299E+01  0.78504199549E-01  0.27080184367E+02  0.28111075055E+02  0.17770000000E+01 0.  1.
         15    1    1    2    0    0  0.12478217407E+02  0.90415384332E+00  0.11569977799E+03  0.11638779901E+03  0.17770000000E+01 0. -1.
</event>
<event>
 6    1  0.1097339E-002  0.1853550E+03  0.7546771E-02  0.1066205E+00
        -11   -1    0    0    0    0  0.00000000000E+00  0.00000000000E+00  0.18250000000E+03  0.18250000000E+03  0.00000000000E+00 0.  1.
         11   -1    0    0    0    0 -0.00000000000E+00 -0.00000000000E+00 -0.18250000000E+03  0.18250000000E+03  0.00000000000E+00 0.  1.
        -11    1    1    2    0    0 -0.33060632582E+01  0.12010687259E+01  0.17961060832E+03  0.17964504791E+03  0.00000000000E+00 0.  1.
         11    1    1    2    0    0 -0.93738395524E+01 -0.40081195640E+01 -0.14773244779E+03  0.14808379392E+03  0.00000000000E+00 0.  1.
        -15    1    1    2    0    0  0.92292543668E+01  0.11915074137E+01 -0.31675697148E+02  0.33062158806E+02  0.17770000000E+01 0. -1.
         15    1    1    2    0    0  0.34506484438E+01  0.16155434244E+01 -0.20246337792E+00  0.42089993654E+01  0.17770000000E+01 0.  1.
</event>
<event>
 6    1  0.1097339E-002  0.1840542E+03  0.7546771E-02  0.1067224E+00
        -11   -1    0    0    0    0  0.00000000000E+00  0.00000000000E+00  0.18250000000E+03  0.18250000000E+03  0.00000000000E+00 0. -1.
         11   -1    0    0    0    0 -0.00000000000E+00 -0.00000000000E+00 -0.18250000000E+03  0.18250000000E+03  0.00000000000E+00 0.  1.
        -11    1    1    2    0    0 -0.25831042736E+01 -0.38371781768E+00  0.18092692972E+03  0.18094577521E+03  0.00000000000E+00 0. -1.
         11    1    1    2    0    0  0.18191670754E+01 -0.12179149107E+01 -0.61567647839E+02  0.61606557654E+02  0.00000000000E+00 0.  1.
        -15    1    1    2    0    0  0.44920447217E+01  0.23763589433E+01 -0.33045888953E+01  0.63169283973E+01  0.17770000000E+01 0. -1.
         15    1    1    2    0    0 -0.37281075235E+01 -0.77472621498E+00 -0.11605469299E+03  0.11613073874E+03  0.17770000000E+01 0.  1.
</event>
<event>
 6    1  0.1097339E-002  0.1841764E+03  0.7546771E-02  0.1067128E+00
        -11   -1    0    0    0    0  0.00000000000E+00  0.00000000000E+00  0.18250000000E+03  0.18250000000E+03  0.00000000000E+00 0.  1.
         11   -1    0    0    0    0 -0.00000000000E+00 -0.00000000000E+00 -0.18250000000E+03  0.18250000000E+03  0.00000000000E+00 0.  1.
        -11    1    1    2    0    0  0.19053412034E+01 -0.21304248254E+01  0.18080096720E+03  0.18082355702E+03  0.00000000000E+00 0.  1.
         11    1    1    2    0    0 -0.41826117345E+01  0.54134387382E+01 -0.11739188924E+03  0.11759105076E+03  0.00000000000E+00 0.  1.
        -15    1    1    2    0    0  0.44036638812E+01 -0.56327641204E+01 -0.62373957219E+02  0.62807551738E+02  0.17770000000E+01 0. -1.
         15    1    1    2    0    0 -0.21263933501E+01  0.23497502075E+01 -0.10351207406E+01  0.37778404763E+01  0.17770000000E+01 0. -1.
</event>
<event>
 6    1  0.1097339E-002  0.1859524E+03  0.7546771E-02  0.1065739E+00
        -11   -1    0    0    0    0  0.00000000000E+00  0.00000000000E+00  0.18250000000E+03  0.18250000000E+03  0.00000000000E+00 0. -1.
         11   -1    0    0    0    0 -0.00000000000E+00 -0.00000000000E+00 -0.18250000000E+03  0.18250000000E+03  0.00000000000E+00 0.  1.
        -11    1    1    2    0    0 -0.18934763314E+01 -0.41937608608E+01  0.13722935250E+03  0.13730647497E+03  0.00000000000E+00 0. -1.
         11    1    1    2    0    0 -0.47988040582E+01  0.15515518869E+00 -0.17898320433E+03  0.17904759151E+03  0.00000000000E+00 0.  1.
        -15    1    1    2    0    0  0.51653739836E+01  0.15758656850E+01 -0.98685467197E+00  0.57702731470E+01  0.17770000000E+01 0. -1.
         15    1    1    2    0    0  0.15269064060E+01  0.24627399871E+01  0.42740706500E+02  0.42875660374E+02  0.17770000000E+01 0. -1.
</event>
<event>
 6    1  0.1097339E-002  0.1836596E+03  0.7546771E-02  0.1067535E+00
        -11   -1    0    0    0    0  0.00000000000E+00  0.00000000000E+00  0.18250000000E+03  0.18250000000E+03  0.00000000000E+00 0.  1.
         11   -1    0    0    0    0 -0.00000000000E+00 -0.00000000000E+00 -0.18250000000E+03  0.18250000000E+03  0.00000000000E+00 0.  1.
        -11    1    1    2    0    0 -0.39050670579E+01  0.13802589326E-01  0.18129832453E+03  0.18134037669E+03  0.00000000000E+00 0.  1.
         11    1    1    2    0    0 -0.84889722145E+00 -0.34698478223E+01 -0.16574012686E+03  0.16577861781E+03  0.00000000000E+00 0.  1.
        -15    1    1    2    0    0  0.92324819641E+00  0.11537108877E+00 -0.77950508047E+00  0.21519885898E+01  0.17770000000E+01 0. -1.
         15    1    1    2    0    0  0.38307160830E+01  0.33406741442E+01 -0.14778692589E+02  0.15729016914E+02  0.17770000000E+01 0.  1.
</event>
<event>
 6    1  0.1097339E-002  0.1897643E+03  0.7546771E-02  0.1062815E+00
        -11   -1    0    0    0    0  0.00000000000E+00  0.00000000000E+00  0.18250000000E+03  0.18250000000E+03  0.00000000000E+00 0. -1.
         11   -1    0    0    0    0 -0.00000000000E+00 -0.00000000000E+00 -0.18250000000E+03  0.18250000000E+03  0.00000000000E+00 0. -1.
        -11    1    1    2    0    0 -0.41184977916E+01  0.33917032052E+01  0.17515441161E+03  0.17523565157E+03  0.00000000000E+00 0. -1.
         11    1    1    2    0    0 -0.19657133287E+01  0.57762617285E+01 -0.16411129973E+03  0.16422468732E+03  0.00000000000E+00 0. -1.
        -15    1    1    2    0    0  0.59150833780E+01 -0.13275055252E+02 -0.11576767089E+01  0.14687179705E+02  0.17770000000E+01 0. -1.
         15    1    1    2    0    0  0.16912774222E+00  0.41070903184E+01 -0.98854351742E+01  0.10852481406E+02  0.17770000000E+01 0.  1.
</event>
<event>
 6    1  0.1097339E-002  0.1844327E+03  0.7546771E-02  0.1066927E+00
        -11   -1    0    0    0    0  0.00000000000E+00  0.00000000000E+00  0.18250000000E+03  0.18250000000E+03  0.00000000000E+00 0. -1.
         11   -1    0    0    0    0 -0.00000000000E+00 -0.00000000000E+00 -0.18250000000E+03  0.18250000000E+03  0.00000000000E+00 0.  1.
        -11    1    1    2    0    0  0.42279200516E+01  0.32984665111E+01  0.15596535944E+03  0.15605751675E+03  0.00000000000E+00 0. -1.
         11    1    1    2    0    0 -0.63827431143E+01  0.54027423468E+01 -0.18037352694E+03  0.18056726796E+03  0.00000000000E+00 0.  1.
        -15    1    1    2    0    0  0.51682645113E+01 -0.47544387308E+01  0.65901235618E+01  0.97930129819E+01  0.17770000000E+01 0. -1.
         15    1    1    2    0    0 -0.30134414486E+01 -0.39467701271E+01  0.17818043945E+02  0.18582202314E+02  0.17770000000E+01 0.  1.
</event>
<event>
 6    1  0.1097339E-002  0.1854086E+03  0.7546771E-02  0.1066163E+00
        -11   -1    0    0    0    0  0.00000000000E+00  0.00000000000E+00  0.18250000000E+03  0.18250000000E+03  0.00000000000E+00 0.  1.
         11   -1    0    0    0    0 -0.00000000000E+00 -0.00000000000E+00 -0.18250000000E+03  0.18250000000E+03  0.00000000000E+00 0.  1.
        -11    1    1    2    0    0  0.59129234175E+01  0.88802354946E+01  0.11281681299E+03  0.11332014180E+03  0.00000000000E+00 0.  1.
         11    1    1    2    0    0  0.27472040565E+01  0.42685984424E+01 -0.17951963739E+03  0.17959139253E+03  0.00000000000E+00 0.  1.
        -15    1    1    2    0    0 -0.76292137488E+01 -0.10479544583E+02  0.67392040506E+02  0.68650350397E+02  0.17770000000E+01 0.  1.
         15    1    1    2    0    0 -0.10309137252E+01 -0.26692893541E+01 -0.68921610254E+00  0.34381152686E+01  0.17770000000E+01 0. -1.
</event>
<event>
 6    1  0.1097339E-002  0.1836652E+03  0.7546771E-02  0.1067531E+00
        -11   -1    0    0    0    0  0.00000000000E+00  0.00000000000E+00  0.18250000000E+03  0.18250000000E+03  0.00000000000E+00 0. -1.
         11   -1    0    0    0    0 -0.00000000000E+00 -0.00000000000E+00 -0.18250000000E+03  0.18250000000E+03  0.00000000000E+00 0. -1.
        -11    1    1    2    0    0  0.63503764631E+01  0.35179291261E+01  0.10721902115E+03  0.10746451322E+03  0.00000000000E+00 0. -1.
         11    1    1    2    0    0  0.15438026489E+01  0.29056277054E+01 -0.18130498134E+03  0.18133483465E+03  0.00000000000E+00 0. -1.
        -15    1    1    2    0    0 -0.42605408681E+01 -0.14645560133E+01  0.55474724941E+01  0.73640554641E+01  0.17770000000E+01 0. -1.
         15    1    1    2    0    0 -0.36336382438E+01 -0.49590008182E+01  0.68538487694E+02  0.68836596665E+02  0.17770000000E+01 0. -1.
</event>
<event>
 6    1  0.1097339E-002  0.1664839E+03  0.7546771E-02  0.1081970E+00
        -11   -1    0    0    0    0  0.00000000000E+00  0.00000000000E+00  0.18250000000E+03  0.18250000000E+03  0.00000000000E+00 0. -1.
         11   -1    0    0    0    0 -0.00000000000E+00 -0.00000000000E+00 -0.18250000000E+03  0.18250000000E+03  0.00000000000E+00 0. -1.
        -11    1    1    2    0    0  0.10652325794E+02 -0.94868893869E+01  0.17699578484E+03  0.17756965103E+03  0.00000000000E+00 0. -1.
         11    1    1    2    0    0  0.11331694950E-01 -0.25177156593E+01 -0.38105215134E+02  0.38188302410E+02  0.00000000000E+00 0. -1.
        -15    1    1    2    0    0  0.15561381598E+02 -0.69914673081E+01 -0.81838501108E+02  0.83616596468E+02  0.17770000000E+01 0. -1.
         15    1    1    2    0    0 -0.26225039087E+02  0.18996072354E+02 -0.57052068597E+02  0.65625450095E+02  0.17770000000E+01 0.  1.
</event>
<event>
 6    1  0.1097339E-002  0.1871230E+03  0.7546771E-02  0.1064833E+00
        -11   -1    0    0    0    0  0.00000000000E+00  0.00000000000E+00  0.18250000000E+03  0.18250000000E+03  0.00000000000E+00 0. -1.
         11   -1    0    0    0    0 -0.00000000000E+00 -0.00000000000E+00 -0.18250000000E+03  0.18250000000E+03  0.00000000000E+00 0.  1.
        -11    1    1    2    0    0  0.37627437834E+01  0.20299916593E+01  0.17241479685E+03  0.17246779781E+03  0.00000000000E+00 0. -1.
         11    1    1    2    0    0  0.41932142144E+01 -0.81881609042E+00 -0.17782573228E+03  0.17787704901E+03  0.00000000000E+00 0.  1.
        -15    1    1    2    0    0  0.29446603936E+00  0.16103361700E+01  0.52225810046E+01  0.57543873852E+01  0.17770000000E+01 0.  1.
         15    1    1    2    0    0 -0.82504240372E+01 -0.28215117389E+01  0.18835442062E+00  0.89007657914E+01  0.17770000000E+01 0. -1.
</event>
<event>
 6    1  0.1097339E-002  0.1924715E+03  0.7546771E-02  0.1060783E+00
        -11   -1    0    0    0    0  0.00000000000E+00  0.00000000000E+00  0.18250000000E+03  0.18250000000E+03  0.00000000000E+00 0.  1.
         11   -1    0    0    0    0 -0.00000000000E+00 -0.00000000000E+00 -0.18250000000E+03  0.18250000000E+03  0.00000000000E+00 0.  1.
        -11    1    1    2    0    0 -0.75132065479E+00  0.41650995790E+01  0.17247661464E+03  0.17252853427E+03  0.00000000000E+00 0.  1.
         11    1    1    2    0    0  0.61746955580E+01 -0.65913425591E+01 -0.16738933318E+03  0.16763281757E+03  0.00000000000E+00 0.  1.
        -15    1    1    2    0    0 -0.12941951897E+01  0.76836305173E+01 -0.12412987636E+02  0.14763235085E+02  0.17770000000E+01 0. -1.
         15    1    1    2    0    0 -0.41291797136E+01 -0.52573875372E+01  0.73257061750E+01  0.10075413083E+02  0.17770000000E+01 0.  1.
</event>
<event>
 6    1  0.1097339E-002  0.1867929E+03  0.7546771E-02  0.1065088E+00
        -11   -1    0    0    0    0  0.00000000000E+00  0.00000000000E+00  0.18250000000E+03  0.18250000000E+03  0.00000000000E+00 0.  1.
         11   -1    0    0    0    0 -0.00000000000E+00 -0.00000000000E+00 -0.18250000000E+03  0.18250000000E+03  0.00000000000E+00 0.  1.
        -11    1    1    2    0    0 -0.15465482997E+01  0.32290215207E+01  0.17817110658E+03  0.17820707508E+03  0.00000000000E+00 0.  1.
         11    1    1    2    0    0 -0.41304458875E+01 -0.10241729563E+02 -0.15306792283E+03  0.15346577015E+03  0.00000000000E+00 0.  1.
        -15    1    1    2    0    0  0.79270106202E+01  0.11103787499E+02 -0.89355456627E+01  0.16405282670E+02  0.17770000000E+01 0. -1.
         15    1    1    2    0    0 -0.22500164330E+01 -0.40910794566E+01 -0.16167638080E+02  0.16921872094E+02  0.17770000000E+01 0.  1.
</event>
<event>
 6    1  0.1097339E-002  0.1853758E+03  0.7546771E-02  0.1066188E+00
        -11   -1    0    0    0    0  0.00000000000E+00  0.00000000000E+00  0.18250000000E+03  0.18250000000E+03  0.00000000000E+00 0.  1.
         11   -1    0    0    0    0 -0.00000000000E+00 -0.00000000000E+00 -0.18250000000E+03  0.18250000000E+03  0.00000000000E+00 0.  1.
        -11    1    1    2    0    0  0.57402489587E+01 -0.21386263092E+01  0.17951968868E+03  0.17962417100E+03  0.00000000000E+00 0.  1.
         11    1    1    2    0    0 -0.27204261631E+01 -0.46527053273E+01 -0.17388957308E+03  0.17397307841E+03  0.00000000000E+00 0.  1.
        -15    1    1    2    0    0 -0.33917028301E+01  0.53839226782E+01 -0.16536674655E+01  0.68104784398E+01  0.17770000000E+01 0.  1.
         15    1    1    2    0    0  0.37188003445E+00  0.14074089583E+01 -0.39764481360E+01  0.45922721516E+01  0.17770000000E+01 0. -1.
</event>
<event>
 6    1  0.1097339E-002  0.1831964E+03  0.7546771E-02  0.1067902E+00
        -11   -1    0    0    0    0  0.00000000000E+00  0.00000000000E+00  0.18250000000E+03  0.18250000000E+03  0.00000000000E+00 0. -1.
         11   -1    0    0    0    0 -0.00000000000E+00 -0.00000000000E+00 -0.18250000000E+03  0.18250000000E+03  0.00000000000E+00 0. -1.
        -11    1    1    2    0    0  0.58773050723E+00  0.22339507612E+01  0.16148045960E+03  0.16149698077E+03  0.00000000000E+00 0. -1.
         11    1    1    2    0    0  0.29196279265E+01 -0.91717562078E+00 -0.18177782307E+03  0.18180358192E+03  0.00000000000E+00 0. -1.
        -15    1    1    2    0    0  0.17219339696E+00  0.69312294005E+00  0.17267422938E+01  0.25786504077E+01  0.17770000000E+01 0.  1.
         15    1    1    2    0    0 -0.36795518307E+01 -0.20098980805E+01  0.18570621177E+02  0.19120786905E+02  0.17770000000E+01 0. -1.
</event>
<event>
 6    1  0.1097339E-002  0.1831778E+03  0.7546771E-02  0.1067917E+00
        -11   -1    0    0    0    0  0.00000000000E+00  0.00000000000E+00  0.18250000000E+03  0.18250000000E+03  0.00000000000E+00 0. -1.
         11   -1    0    0    0    0 -0.00000000000E+00 -0.00000000000E+00 -0.18250000000E+03  0.18250000000E+03  0.00000000000E+00 0. -1.
        -11    1    1    2    0    0  0.18500967336E+01  0.36398173235E+01  0.14223325828E+03  0.14229185109E+03  0.00000000000E+00 0. -1.
         11    1    1    2    0    0  0.18555851245E+00 -0.39456249886E+01 -0.18177930096E+03  0.18182221164E+03  0.00000000000E+00 0. -1.
        -15    1    1    2    0    0  0.17272397057E+00  0.40355433104E+01  0.94753524763E+01  0.10452534474E+02  0.17770000000E+01 0.  1.
         15    1    1    2    0    0 -0.22083792166E+01 -0.37297356452E+01  0.30070690209E+02  0.30433402790E+02  0.17770000000E+01 0. -1.
</event>
<event>
 6    1  0.1097339E-002  0.1826442E+03  0.7546771E-02  0.1068340E+00
        -11   -1    0    0    0    0  0.00000000000E+00  0.00000000000E+00  0.18250000000E+03  0.18250000000E+03  0.00000000000E+00 0.  1.
         11   -1    0    0    0    0 -0.00000000000E+00 -0.00000000000E+00 -0.18250000000E+03  0.18250000000E+03  0.00000000000E+00 0.  1.
        -11    1    1    2    0    0  0.12003372359E+01  0.59104258423E+00  0.48597143297E+02  0.48615557977E+02  0.00000000000E+00 0.  1.
         11    1    1    2    0    0  0.27253897695E+01 -0.19545580340E+00 -0.18233532482E+03  0.18235579681E+03  0.00000000000E+00 0.  1.
        -15    1    1    2    0    0  0.10757262866E+01  0.16763175927E+01  0.64974208802E+02  0.65029014803E+02  0.17770000000E+01 0.  1.
         15    1    1    2    0    0 -0.50014532921E+01 -0.20719043735E+01  0.68763972724E+02  0.68999630409E+02  0.17770000000E+01 0.  1.
</event>
<event>
 6    1  0.1097339E-002  0.1851879E+03  0.7546771E-02  0.1066335E+00
        -11   -1    0    0    0    0  0.00000000000E+00  0.00000000000E+00  0.18250000000E+03  0.18250000000E+03  0.00000000000E+00 0. -1.
         11   -1    0    0    0    0 -0.00000000000E+00 -0.00000000000E+00 -0.18250000000E+03  0.18250000000E+03  0.00000000000E+00 0. -1.
        -11    1    1    2    0    0  0.21816581164E+01 -0.51753755290E+01  0.17972431917E+03  0.17981205478E+03  0.00000000000E+00 0. -1.
         11    1    1    2    0    0  0.24383763944E+00 -0.24410656299E+01 -0.53227026035E+02  0.53283529902E+02  0.00000000000E+00 0. -1.
        -15    1    1    2    0    0 -0.18817886041E+01  0.14380130288E+02 -0.12335684393E+03  0.12421915290E+03  0.17770000000E+01 0. -1.
         15    1    1    2    0    0 -0.54370715174E+00 -0.67636891286E+01 -0.31404492078E+01  0.76852624108E+01  0.17770000000E+01 0.  1.
</event>
<event>
 6    1  0.1097339E-002  0.1737355E+03  0.7546771E-02  0.1075654E+00
        -11   -1    0    0    0    0  0.00000000000E+00  0.00000000000E+00  0.18250000000E+03  0.18250000000E+03  0.00000000000E+00 0.  1.
         11   -1    0    0    0    0 -0.00000000000E+00 -0.00000000000E+00 -0.18250000000E+03  0.18250000000E+03  0.00000000000E+00 0. -1.
        -11    1    1    2    0    0  0.20313295967E+01 -0.28123576659E+01  0.17355974027E+03  0.17359440975E+03  0.00000000000E+00 0.  1.
         11    1    1    2    0    0 -0.26115302761E+01 -0.31243296011E+01 -0.17388033001E+03  0.17392800433E+03  0.00000000000E+00 0. -1.
        -15    1    1    2    0    0  0.23577445384E+01  0.36313030038E+00 -0.71970432927E+01  0.77875531511E+01  0.17770000000E+01 0. -1.
         15    1    1    2    0    0 -0.17775438590E+01  0.55735569667E+01  0.75176330413E+01  0.96900327644E+01  0.17770000000E+01 0.  1.
</event>
<event>
 6    1  0.1097339E-002  0.1902556E+03  0.7546771E-02  0.1062444E+00
        -11   -1    0    0    0    0  0.00000000000E+00  0.00000000000E+00  0.18250000000E+03  0.18250000000E+03  0.00000000000E+00 0. -1.
         11   -1    0    0    0    0 -0.00000000000E+00 -0.00000000000E+00 -0.18250000000E+03  0.18250000000E+03  0.00000000000E+00 0.  1.
        -11    1    1    2    0    0 -0.24546783319E+01  0.65934716667E+00  0.17271964213E+03  0.17273834248E+03  0.00000000000E+00 0. -1.
         11    1    1    2    0    0  0.26964278071E+01  0.16938170344E+00 -0.17472350430E+03  0.17474439152E+03  0.00000000000E+00 0.  1.
        -15    1    1    2    0    0 -0.26478431573E+01 -0.31086270556E+01 -0.66946130980E+01  0.80405353732E+01  0.17770000000E+01 0.  1.
         15    1    1    2    0    0  0.24060936821E+01  0.22798981855E+01  0.86984752671E+01  0.94767306343E+01  0.17770000000E+01 0. -1.
</event>
<event>
 6    1  0.1097339E-002  0.1866786E+03  0.7546771E-02  0.1065176E+00
        -11   -1    0    0    0    0  0.00000000000E+00  0.00000000000E+00  0.18250000000E+03  0.18250000000E+03  0.00000000000E+00 0.  1.
         11   -1    0    0    0    0 -0.00000000000E+00 -0.00000000000E+00 -0.18250000000E+03  0.18250000000E+03  0.00000000000E+00 0.  1.
        -11    1    1    2    0    0 -0.22018862945E+01 -0.36644402411E+01  0.12323968657E+03  0.12331381420E+03  0.00000000000E+00 0.  1.
         11    1    1    2    0    0  0.10336210392E+02  0.10757773638E+02 -0.17769622885E+03  0.17832138595E+03  0.00000000000E+00 0.  1.
        -15    1    1    2    0    0  0.98101473023E+01  0.44925984796E+01  0.19669264150E+02  0.22504668680E+02  0.17770000000E+01 0. -1.
         15    1    1    2    0    0 -0.17944471400E+02 -0.11585931877E+02  0.34787278126E+02  0.40860131175E+02  0.17770000000E+01 0.  1.
</event>
<event>
 6    1  0.1097339E-002  0.1853067E+03  0.7546771E-02  0.1066242E+00
        -11   -1    0    0    0    0  0.00000000000E+00  0.00000000000E+00  0.18250000000E+03  0.18250000000E+03  0.00000000000E+00 0. -1.
         11   -1    0    0    0    0 -0.00000000000E+00 -0.00000000000E+00 -0.18250000000E+03  0.18250000000E+03  0.00000000000E+00 0. -1.
        -11    1    1    2    0    0 -0.24577620292E+01 -0.94173351577E+00  0.17277488127E+03  0.17279492775E+03  0.00000000000E+00 0. -1.
         11    1    1    2    0    0 -0.52245909658E+00  0.70816166773E+01 -0.17955289637E+03  0.17969325210E+03  0.00000000000E+00 0. -1.
        -15    1    1    2    0    0  0.16631161551E+01 -0.32907264415E+01  0.77602701990E+01  0.87735032011E+01  0.17770000000E+01 0. -1.
         15    1    1    2    0    0  0.13171049706E+01 -0.28491567201E+01 -0.98225510412E+00  0.37383169487E+01  0.17770000000E+01 0.  1.
</event>
<event>
 6    1  0.1097339E-002  0.1845985E+03  0.7546771E-02  0.1066797E+00
        -11   -1    0    0    0    0  0.00000000000E+00  0.00000000000E+00  0.18250000000E+03  0.18250000000E+03  0.00000000000E+00 0. -1.
         11   -1    0    0    0    0 -0.00000000000E+00 -0.00000000000E+00 -0.18250000000E+03  0.18250000000E+03  0.00000000000E+00 0.  1.
        -11    1    1    2    0    0  0.44406786978E+01  0.17347820087E+01  0.18033847217E+03  0.18040147904E+03  0.00000000000E+00 0. -1.
         11    1    1    2    0    0 -0.72201196171E+00  0.32015366290E+01 -0.10938294660E+03  0.10943217143E+03  0.00000000000E+00 0.  1.
        -15    1    1    2    0    0 -0.78618219299E+01  0.86433658760E-01 -0.66704945406E+02  0.67190201558E+02  0.17770000000E+01 0.  1.
         15    1    1    2    0    0  0.41431551938E+01 -0.50227522964E+01 -0.42505801681E+01  0.79761479648E+01  0.17770000000E+01 0.  1.
</event>
<event>
 6    1  0.1097339E-002  0.1713657E+03  0.7546771E-02  0.1077680E+00
        -11   -1    0    0    0    0  0.00000000000E+00  0.00000000000E+00  0.18250000000E+03  0.18250000000E+03  0.00000000000E+00 0. -1.
         11   -1    0    0    0    0 -0.00000000000E+00 -0.00000000000E+00 -0.18250000000E+03  0.18250000000E+03  0.00000000000E+00 0.  1.
        -11    1    1    2    0    0 -0.13443619083E+02 -0.57353964698E+00  0.17156487687E+03  0.17209173954E+03  0.00000000000E+00 0. -1.
         11    1    1    2    0    0  0.18014295942E+01 -0.35639574914E+01 -0.17081645913E+03  0.17086313134E+03  0.00000000000E+00 0.  1.
        -15    1    1    2    0    0  0.41252986024E+01  0.10873279049E+02  0.61177455072E-01  0.11764682636E+02  0.17770000000E+01 0.  1.
         15    1    1    2    0    0  0.75168908868E+01 -0.67357819107E+01 -0.80959518837E+00  0.10280446485E+02  0.17770000000E+01 0. -1.
</event>
<event>
 6    1  0.1097339E-002  0.2025489E+03  0.7546771E-02  0.1053529E+00
        -11   -1    0    0    0    0  0.00000000000E+00  0.00000000000E+00  0.18250000000E+03  0.18250000000E+03  0.00000000000E+00 0. -1.
         11   -1    0    0    0    0 -0.00000000000E+00 -0.00000000000E+00 -0.18250000000E+03  0.18250000000E+03  0.00000000000E+00 0.  1.
        -11    1    1    2    0    0  0.31674039491E+01 -0.98861451712E+01  0.12793755789E+03  0.12835804234E+03  0.00000000000E+00 0. -1.
         11    1    1    2    0    0 -0.14430969224E+01  0.52319397159E+01 -0.16236038318E+03  0.16245106878E+03  0.00000000000E+00 0.  1.
        -15    1    1    2    0    0 -0.18826538018E+02  0.30470696550E+01  0.48349782715E+02  0.52005599553E+02  0.17770000000E+01 0.  1.
         15    1    1    2    0    0  0.17102230992E+02  0.16071358003E+01 -0.13926957422E+02  0.22185289324E+02  0.17770000000E+01 0. -1.
</event>
<event>
 6    1  0.1097339E-002  0.2030356E+03  0.7546771E-02  0.1053190E+00
        -11   -1    0    0    0    0  0.00000000000E+00  0.00000000000E+00  0.18250000000E+03  0.18250000000E+03  0.00000000000E+00 0. -1.
         11   -1    0    0    0    0 -0.00000000000E+00 -0.00000000000E+00 -0.18250000000E+03  0.18250000000E+03  0.00000000000E+00 0.  1.
        -11    1    1    2    0    0 -0.24545573690E+01  0.24835710338E+01  0.15675622189E+03  0.15679510859E+03  0.00000000000E+00 0. -1.
         11    1    1    2    0    0 -0.16542566959E+01 -0.60552803568E+01 -0.16184266492E+03  0.16196435155E+03  0.00000000000E+00 0.  1.
        -15    1    1    2    0    0 -0.28137107736E+01  0.14277833414E+02  0.21100888439E+02  0.25693943201E+02  0.17770000000E+01 0. -1.
         15    1    1    2    0    0  0.69225248385E+01 -0.10706124091E+02 -0.16014445412E+02  0.20546596654E+02  0.17770000000E+01 0.  1.
</event>
<event>
 6    1  0.1097339E-002  0.1895965E+03  0.7546771E-02  0.1062942E+00
        -11   -1    0    0    0    0  0.00000000000E+00  0.00000000000E+00  0.18250000000E+03  0.18250000000E+03  0.00000000000E+00 0. -1.
         11   -1    0    0    0    0 -0.00000000000E+00 -0.00000000000E+00 -0.18250000000E+03  0.18250000000E+03  0.00000000000E+00 0.  1.
        -11    1    1    2    0    0 -0.28132650874E+01  0.12858347246E+02  0.17490889072E+03  0.17540345381E+03  0.00000000000E+00 0. -1.
         11    1    1    2    0    0  0.94774991845E+01 -0.85085843291E+01 -0.15496603188E+03  0.15548855275E+03  0.00000000000E+00 0.  1.
        -15    1    1    2    0    0 -0.37522497024E+01  0.67617844141E+01 -0.20987881756E+02  0.22437691858E+02  0.17770000000E+01 0. -1.
         15    1    1    2    0    0 -0.29119843947E+01 -0.11111547331E+02  0.10450229151E+01  0.11670301586E+02  0.17770000000E+01 0.  1.
</event>
<event>
 6    1  0.1097339E-002  0.1853018E+03  0.7546771E-02  0.1066246E+00
        -11   -1    0    0    0    0  0.00000000000E+00  0.00000000000E+00  0.18250000000E+03  0.18250000000E+03  0.00000000000E+00 0.  1.
         11   -1    0    0    0    0 -0.00000000000E+00 -0.00000000000E+00 -0.18250000000E+03  0.18250000000E+03  0.00000000000E+00 0.  1.
        -11    1    1    2    0    0  0.34171359795E+01  0.24715514538E+01  0.17964866539E+03  0.17969815904E+03  0.00000000000E+00 0.  1.
         11    1    1    2    0    0 -0.59697234849E+01 -0.11294731329E+01 -0.17023560619E+03  0.17034398999E+03  0.00000000000E+00 0.  1.
        -15    1    1    2    0    0 -0.45283478331E+00 -0.57249468544E+01 -0.45680878840E+01  0.75501809079E+01  0.17770000000E+01 0.  1.
         15    1    1    2    0    0  0.30054222887E+01  0.43828685334E+01 -0.48449713161E+01  0.74076700635E+01  0.17770000000E+01 0. -1.
</event>
<event>
 6    1  0.1097339E-002  0.1866585E+03  0.7546771E-02  0.1065192E+00
        -11   -1    0    0    0    0  0.00000000000E+00  0.00000000000E+00  0.18250000000E+03  0.18250000000E+03  0.00000000000E+00 0.  1.
         11   -1    0    0    0    0 -0.00000000000E+00 -0.00000000000E+00 -0.18250000000E+03  0.18250000000E+03  0.00000000000E+00 0. -1.
        -11    1    1    2    0    0 -0.76406014568E+01 -0.10837222844E+01  0.17817450062E+03  0.17834154288E+03  0.00000000000E+00 0.  1.
         11    1    1    2    0    0  0.10559415894E+01  0.17635971320E+01 -0.80960163009E+02  0.80986253660E+02  0.00000000000E+00 0. -1.
        -15    1    1    2    0    0 -0.41944085844E+01  0.10146025234E+01 -0.94060137081E+02  0.94175844028E+02  0.17770000000E+01 0. -1.
         15    1    1    2    0    0  0.10779068452E+02 -0.16944773710E+01 -0.31542005305E+01  0.11496359434E+02  0.17770000000E+01 0.  1.
</event>
<event>
 6    1  0.1097339E-002  0.1833022E+03  0.7546771E-02  0.1067818E+00
        -11   -1    0    0    0    0  0.00000000000E+00  0.00000000000E+00  0.18250000000E+03  0.18250000000E+03  0.00000000000E+00 0. -1.
         11   -1    0    0    0    0 -0.00000000000E+00 -0.00000000000E+00 -0.18250000000E+03  0.18250000000E+03  0.00000000000E+00 0. -1.
        -11    1    1    2    0    0  0.27548433130E+01  0.25305156945E+01  0.18165926890E+03  0.18169777833E+03  0.00000000000E+00 0. -1.
         11    1    1    2    0    0 -0.16434577612E+01 -0.21769001496E+01 -0.17108060701E+03  0.17110234932E+03  0.00000000000E+00 0. -1.
        -15    1    1    2    0    0 -0.13646372217E+01 -0.24256510165E+01 -0.51383622878E+01  0.61079058278E+01  0.17770000000E+01 0.  1.
         15    1    1    2    0    0  0.25325166989E+00  0.20720354716E+01 -0.54402996026E+01  0.60919665273E+01  0.17770000000E+01 0. -1.
</event>
<event>
 6    1  0.1097339E-002  0.1841623E+03  0.7546771E-02  0.1067139E+00
        -11   -1    0    0    0    0  0.00000000000E+00  0.00000000000E+00  0.18250000000E+03  0.18250000000E+03  0.00000000000E+00 0.  1.
         11   -1    0    0    0    0 -0.00000000000E+00 -0.00000000000E+00 -0.18250000000E+03  0.18250000000E+03  0.00000000000E+00 0.  1.
        -11    1    1    2    0    0 -0.31601298094E+01 -0.10763296530E+01  0.18080687817E+03  0.18083769546E+03  0.00000000000E+00 0.  1.
         11    1    1    2    0    0  0.75860416234E+00 -0.29117951335E+01 -0.14962024681E+03  0.14965050045E+03  0.00000000000E+00 0.  1.
        -15    1    1    2    0    0 -0.41366719788E+00  0.51026704490E+00 -0.29267871127E+02  0.29329123790E+02  0.17770000000E+01 0.  1.
         15    1    1    2    0    0  0.28151928449E+01  0.34778577416E+01 -0.19187602369E+01  0.51826802980E+01  0.17770000000E+01 0.  1.
</event>
<event>
 6    1  0.1097339E-002  0.1826877E+03  0.7546771E-02  0.1068306E+00
        -11   -1    0    0    0    0  0.00000000000E+00  0.00000000000E+00  0.18250000000E+03  0.18250000000E+03  0.00000000000E+00 0.  1.
         11   -1    0    0    0    0 -0.00000000000E+00 -0.00000000000E+00 -0.18250000000E+03  0.18250000000E+03  0.00000000000E+00 0. -1.
        -11    1    1    2    0    0 -0.18034376041E+00  0.32245129390E+01  0.83775345177E+02  0.83837571930E+02  0.00000000000E+00 0.  1.
         11    1    1    2    0    0 -0.85352103075E+01 -0.64829757934E+01 -0.18199697159E+03  0.18231230474E+03  0.00000000000E+00 0. -1.
        -15    1    1    2    0    0  0.75744323709E+01  0.41132928491E+01  0.73954839935E+02  0.74476622390E+02  0.17770000000E+01 0. -1.
         15    1    1    2    0    0  0.11411216970E+01 -0.85482999468E+00  0.24266786481E+02  0.24373500942E+02  0.17770000000E+01 0. -1.
</event>
<event>
 6    1  0.1097339E-002  0.1839873E+03  0.7546771E-02  0.1067277E+00
        -11   -1    0    0    0    0  0.00000000000E+00  0.00000000000E+00  0.18250000000E+03  0.18250000000E+03  0.00000000000E+00 0.  1.
         11   -1    0    0    0    0 -0.00000000000E+00 -0.00000000000E+00 -0.18250000000E+03  0.18250000000E+03  0.00000000000E+00 0.  1.
        -11    1    1    2    0    0  0.36453895989E+00 -0.55895801322E+01  0.18092597467E+03  0.18101266422E+03  0.00000000000E+00 0.  1.
         11    1    1    2    0    0 -0.19160479109E+01 -0.25046815202E+01 -0.13511418900E+03  0.13515098497E+03  0.00000000000E+00 0.  1.
        -15    1    1    2    0    0  0.25622072684E+01  0.16717248467E+01 -0.12265800616E+01  0.37445690936E+01  0.17770000000E+01 0. -1.
         15    1    1    2    0    0 -0.10106983173E+01  0.64225368057E+01 -0.44585205613E+02  0.45091781720E+02  0.17770000000E+01 0.  1.
</event>
<event>
 6    1  0.1097339E-002  0.1845353E+03  0.7546771E-02  0.1066846E+00
        -11   -1    0    0    0    0  0.00000000000E+00  0.00000000000E+00  0.18250000000E+03  0.18250000000E+03  0.00000000000E+00 0. -1.
         11   -1    0    0    0    0 -0.00000000000E+00 -0.00000000000E+00 -0.18250000000E+03  0.18250000000E+03  0.00000000000E+00 0. -1.
        -11    1    1    2    0    0  0.69401722903E+01 -0.77449967862E+01  0.15848955839E+03  0.15883038465E+03  0.00000000000E+00 0. -1.
         11    1    1    2    0    0  0.24780429651E+01  0.14261879168E+01 -0.18044208205E+03  0.18046473252E+03  0.00000000000E+00 0. -1.
        -15    1    1    2    0    0 -0.53512938415E+01  0.66592107124E+01  0.12357970069E+02  0.15128072789E+02  0.17770000000E+01 0. -1.
         15    1    1    2    0    0 -0.40669214140E+01 -0.34040184295E+00  0.95945535870E+01  0.10576810045E+02  0.17770000000E+01 0.  1.
</event>
<event>
 6    1  0.1097339E-002  0.1827148E+03  0.7546771E-02  0.1068284E+00
        -11   -1    0    0    0    0  0.00000000000E+00  0.00000000000E+00  0.18250000000E+03  0.18250000000E+03  0.00000000000E+00 0.  1.
         11   -1    0    0    0    0 -0.00000000000E+00 -0.00000000000E+00 -0.18250000000E+03  0.18250000000E+03  0.00000000000E+00 0. -1.
        -11    1    1    2    0    0 -0.42538686323E+01 -0.27378505848E+01  0.18221500043E+03  0.18228520951E+03  0.00000000000E+00 0.  1.
         11    1    1    2    0    0  0.19192226685E+01  0.47477092289E+00 -0.11958416729E+03  0.11960050957E+03  0.00000000000E+00 0. -1.
        -15    1    1    2    0    0  0.39925633603E+01  0.24370985013E+01 -0.32246968036E+02  0.32632877407E+02  0.17770000000E+01 0.  1.
         15    1    1    2    0    0 -0.16579173965E+01 -0.17401883938E+00 -0.30383865101E+02  0.30481403514E+02  0.17770000000E+01 0. -1.
</event>
<event>
 6    1  0.1097339E-002  0.1954355E+03  0.7546771E-02  0.1058600E+00
        -11   -1    0    0    0    0  0.00000000000E+00  0.00000000000E+00  0.18250000000E+03  0.18250000000E+03  0.00000000000E+00 0. -1.
         11   -1    0    0    0    0 -0.00000000000E+00 -0.00000000000E+00 -0.18250000000E+03  0.18250000000E+03  0.00000000000E+00 0. -1.
        -11    1    1    2    0    0  0.86027792237E+00 -0.29207708301E+01  0.16953711219E+03  0.16956445203E+03  0.00000000000E+00 0. -1.
         11    1    1    2    0    0  0.62457253200E+00  0.28929141276E+01 -0.15950666341E+03  0.15953411771E+03  0.00000000000E+00 0. -1.
        -15    1    1    2    0    0  0.17539154522E+01  0.75775365672E+00 -0.22615275610E+02  0.22765298811E+02  0.17770000000E+01 0.  1.
         15    1    1    2    0    0 -0.32387659065E+01 -0.72989695428E+00  0.12584826827E+02  0.13136131448E+02  0.17770000000E+01 0. -1.
</event>
<event>
 6    1  0.1097339E-002  0.1996901E+03  0.7546771E-02  0.1055539E+00
        -11   -1    0    0    0    0  0.00000000000E+00  0.00000000000E+00  0.18250000000E+03  0.18250000000E+03  0.00000000000E+00 0.  1.
         11   -1    0    0    0    0 -0.00000000000E+00 -0.00000000000E+00 -0.18250000000E+03  0.18250000000E+03  0.00000000000E+00 0. -1.
        -11    1    1    2    0    0  0.14369962641E+01  0.26975590130E+01  0.16528167810E+03  0.16530993587E+03  0.00000000000E+00 0.  1.
         11    1    1    2    0    0 -0.27126261643E+01  0.12041573889E+01 -0.16034516184E+03  0.16037262628E+03  0.00000000000E+00 0. -1.
        -15    1    1    2    0    0  0.87445830614E+01  0.97155556936E+00  0.14957238715E+02  0.17443863452E+02  0.17770000000E+01 0. -1.
         15    1    1    2    0    0 -0.74689531612E+01 -0.48732719712E+01 -0.19893754971E+02  0.21873574396E+02  0.17770000000E+01 0.  1.
</event>
<event>
 6    1  0.1097339E-002  0.1845422E+03  0.7546771E-02  0.1066841E+00
        -11   -1    0    0    0    0  0.00000000000E+00  0.00000000000E+00  0.18250000000E+03  0.18250000000E+03  0.00000000000E+00 0. -1.
         11   -1    0    0    0    0 -0.00000000000E+00 -0.00000000000E+00 -0.18250000000E+03  0.18250000000E+03  0.00000000000E+00 0.  1.
        -11    1    1    2    0    0 -0.42843218685E+01 -0.20251506642E+01  0.18039561670E+03  0.18045784875E+03  0.00000000000E+00 0. -1.
         11    1    1    2    0    0 -0.19117621676E+01  0.21223525871E+01 -0.15328053131E+03  0.15330714430E+03  0.00000000000E+00 0.  1.
        -15    1    1    2    0    0  0.75469635899E+01 -0.54490105680E+01 -0.19326705396E+02  0.21525046947E+02  0.17770000000E+01 0. -1.
         15    1    1    2    0    0 -0.13508795538E+01  0.53518086451E+01 -0.77883800008E+01  0.97099600091E+01  0.17770000000E+01 0.  1.
</event>
<event>
 6    1  0.1097339E-002  0.1877836E+03  0.7546771E-02  0.1064325E+00
        -11   -1    0    0    0    0  0.00000000000E+00  0.00000000000E+00  0.18250000000E+03  0.18250000000E+03  0.00000000000E+00 0. -1.
         11   -1    0    0    0    0 -0.00000000000E+00 -0.00000000000E+00 -0.18250000000E+03  0.18250000000E+03  0.00000000000E+00 0. -1.
        -11    1    1    2    0    0  0.34826133670E+01 -0.14838087670E+01  0.15639524677E+03  0.15644105438E+03  0.00000000000E+00 0. -1.
         11    1    1    2    0    0 -0.17919231570E+01  0.27066223664E+01 -0.17718665097E+03  0.17721638207E+03  0.00000000000E+00 0. -1.
        -15    1    1    2    0    0 -0.32721856270E+01 -0.37205473703E+01 -0.38116293023E+01  0.64989167136E+01  0.17770000000E+01 0.  1.
         15    1    1    2    0    0  0.15814954170E+01  0.24977337709E+01  0.24603033498E+02  0.24843646834E+02  0.17770000000E+01 0. -1.
</event>
<event>
 6    1  0.1097339E-002  0.1828586E+03  0.7546771E-02  0.1068170E+00
        -11   -1    0    0    0    0  0.00000000000E+00  0.00000000000E+00  0.18250000000E+03  0.18250000000E+03  0.00000000000E+00 0.  1.
         11   -1    0    0    0    0 -0.00000000000E+00 -0.00000000000E+00 -0.18250000000E+03  0.18250000000E+03  0.00000000000E+00 0. -1.
        -11    1    1    2    0    0 -0.73030858129E+01  0.20569474699E+00  0.18199479823E+03  0.18214138452E+03  0.00000000000E+00 0.  1.
         11    1    1    2    0    0  0.15291113280E+01  0.27398579030E+01 -0.11879587499E+03  0.11883730440E+03  0.00000000000E+00 0. -1.
        -15    1    1    2    0    0  0.66995893377E+01 -0.22236115965E+01 -0.35384326346E+02  0.36125298972E+02  0.17770000000E+01 0. -1.
         15    1    1    2    0    0 -0.92561485287E+00 -0.72194105347E+00 -0.27814596900E+02  0.27896012107E+02  0.17770000000E+01 0.  1.
</event>
<event>
 6    1  0.1097339E-002  0.1838174E+03  0.7546771E-02  0.1067411E+00
        -11   -1    0    0    0    0  0.00000000000E+00  0.00000000000E+00  0.18250000000E+03  0.18250000000E+03  0.00000000000E+00 0. -1.
         11   -1    0    0    0    0 -0.00000000000E+00 -0.00000000000E+00 -0.18250000000E+03  0.18250000000E+03  0.00000000000E+00 0. -1.
        -11    1    1    2    0    0  0.14462814019E+01 -0.29456986208E+01  0.16011905978E+03  0.16015268395E+03  0.00000000000E+00 0. -1.
         11    1    1    2    0    0 -0.10988891021E+01 -0.22877281320E+01 -0.18116482865E+03  0.18118260512E+03  0.00000000000E+00 0. -1.
        -15    1    1    2    0    0 -0.10838862712E+00  0.10170026329E+01 -0.75982942011E-01  0.20517175384E+01  0.17770000000E+01 0.  1.
         15    1    1    2    0    0 -0.23900367263E+00  0.42164241199E+01  0.21121751809E+02  0.21612993397E+02  0.17770000000E+01 0. -1.
</event>
<event>
 6    1  0.1097339E-002  0.1837363E+03  0.7546771E-02  0.1067475E+00
        -11   -1    0    0    0    0  0.00000000000E+00  0.00000000000E+00  0.18250000000E+03  0.18250000000E+03  0.00000000000E+00 0. -1.
         11   -1    0    0    0    0 -0.00000000000E+00 -0.00000000000E+00 -0.18250000000E+03  0.18250000000E+03  0.00000000000E+00 0. -1.
        -11    1    1    2    0    0  0.56851184466E+01  0.17375701040E+01  0.18116615274E+03  0.18126366050E+03  0.00000000000E+00 0. -1.
         11    1    1    2    0    0 -0.17232391206E+01 -0.29777505517E+01 -0.11901986575E+03  0.11906958048E+03  0.00000000000E+00 0. -1.
        -15    1    1    2    0    0 -0.66950020256E+01  0.73618520079E+01 -0.26723251194E+02  0.28571135793E+02  0.17770000000E+01 0. -1.
         15    1    1    2    0    0  0.27331226996E+01 -0.61216715601E+01 -0.35423035790E+02  0.36095623224E+02  0.17770000000E+01 0.  1.
</event>
<event>
 6    1  0.1097339E-002  0.1992204E+03  0.7546771E-02  0.1055873E+00
        -11   -1    0    0    0    0  0.00000000000E+00  0.00000000000E+00  0.18250000000E+03  0.18250000000E+03  0.00000000000E+00 0. -1.
         11   -1    0    0    0    0 -0.00000000000E+00 -0.00000000000E+00 -0.18250000000E+03  0.18250000000E+03  0.00000000000E+00 0.  1.
        -11    1    1    2    0    0  0.18930207498E+01 -0.22854994656E+01  0.16575306546E+03  0.16577963006E+03  0.00000000000E+00 0. -1.
         11    1    1    2    0    0  0.25011043909E+01  0.19700408712E+01 -0.14225337754E+03  0.14228900170E+03  0.00000000000E+00 0.  1.
        -15    1    1    2    0    0  0.45493005903E+01  0.22134167946E+02  0.12494149661E+01  0.22701019653E+02  0.17770000000E+01 0. -1.
         15    1    1    2    0    0 -0.89434257309E+01 -0.21818709351E+02 -0.24749102883E+02  0.34230348583E+02  0.17770000000E+01 0.  1.
</event>
<event>
 6    1  0.1097339E-002  0.1753366E+03  0.7546771E-02  0.1074304E+00
        -11   -1    0    0    0    0  0.00000000000E+00  0.00000000000E+00  0.18250000000E+03  0.18250000000E+03  0.00000000000E+00 0.  1.
         11   -1    0    0    0    0 -0.00000000000E+00 -0.00000000000E+00 -0.18250000000E+03  0.18250000000E+03  0.00000000000E+00 0. -1.
        -11    1    1    2    0    0  0.40294097935E+01 -0.84500167904E+00  0.17424702707E+03  0.17429565862E+03  0.00000000000E+00 0.  1.
         11    1    1    2    0    0  0.10666445621E+01  0.59978588470E+01 -0.17635349391E+03  0.17645868314E+03  0.00000000000E+00 0. -1.
        -15    1    1    2    0    0 -0.73303709968E+01 -0.33371931200E+01  0.51258532167E+01  0.97109884703E+01  0.17770000000E+01 0.  1.
         15    1    1    2    0    0  0.22343166412E+01 -0.18156640479E+01 -0.30193863751E+01  0.45346697642E+01  0.17770000000E+01 0. -1.
</event>
<event>
 6    1  0.1097339E-002  0.1833258E+03  0.7546771E-02  0.1067799E+00
        -11   -1    0    0    0    0  0.00000000000E+00  0.00000000000E+00  0.18250000000E+03  0.18250000000E+03  0.00000000000E+00 0.  1.
         11   -1    0    0    0    0 -0.00000000000E+00 -0.00000000000E+00 -0.18250000000E+03  0.18250000000E+03  0.00000000000E+00 0. -1.
        -11    1    1    2    0    0  0.26805147738E+01  0.77237610254E-01  0.36544247594E+02  0.36642504791E+02  0.00000000000E+00 0.  1.
         11    1    1    2    0    0  0.12452186280E+01  0.45262281455E+01 -0.18161351261E+03  0.18167417338E+03  0.00000000000E+00 0. -1.
        -15    1    1    2    0    0 -0.34653288994E+01  0.68159302165E+01  0.93691898312E+02  0.94020183723E+02  0.17770000000E+01 0.  1.
         15    1    1    2    0    0 -0.46040450237E+00 -0.11419395972E+02  0.51377366705E+02  0.52663138106E+02  0.17770000000E+01 0.  1.
</event>
<event>
 6    1  0.1097339E-002  0.1826527E+03  0.7546771E-02  0.1068333E+00
        -11   -1    0    0    0    0  0.00000000000E+00  0.00000000000E+00  0.18250000000E+03  0.18250000000E+03  0.00000000000E+00 0.  1.
         11   -1    0    0    0    0 -0.00000000000E+00 -0.00000000000E+00 -0.18250000000E+03  0.18250000000E+03  0.00000000000E+00 0. -1.
        -11    1    1    2    0    0 -0.27983156441E+00 -0.25588577537E+01  0.18232908848E+03  0.18234725818E+03  0.00000000000E+00 0.  1.
         11    1    1    2    0    0 -0.94901774282E+00  0.99360207269E+00 -0.27658628684E+02  0.27692735879E+02  0.00000000000E+00 0. -1.
        -15    1    1    2    0    0  0.99295426333E+00 -0.35015570916E+01 -0.73928045467E+02  0.74038912038E+02  0.17770000000E+01 0.  1.
         15    1    1    2    0    0  0.23589504390E+00  0.50668127726E+01 -0.80742414330E+02  0.80921093906E+02  0.17770000000E+01 0. -1.
</event>
<event>
 6    1  0.1097339E-002  0.1832230E+03  0.7546771E-02  0.1067881E+00
        -11   -1    0    0    0    0  0.00000000000E+00  0.00000000000E+00  0.18250000000E+03  0.18250000000E+03  0.00000000000E+00 0. -1.
         11   -1    0    0    0    0 -0.00000000000E+00 -0.00000000000E+00 -0.18250000000E+03  0.18250000000E+03  0.00000000000E+00 0. -1.
        -11    1    1    2    0    0 -0.21942643699E+01 -0.14929059984E+01  0.18175761138E+03  0.18177698660E+03  0.00000000000E+00 0. -1.
         11    1    1    2    0    0  0.34264646963E+01 -0.37091937060E+01 -0.13785078352E+03  0.13794323939E+03  0.00000000000E+00 0. -1.
        -15    1    1    2    0    0 -0.43929949587E+01  0.54111704042E+01 -0.24417251978E+02  0.25454647768E+02  0.17770000000E+01 0.  1.
         15    1    1    2    0    0  0.31607946323E+01 -0.20907069973E+00 -0.19489575883E+02  0.19825126239E+02  0.17770000000E+01 0. -1.
</event>
<event>
 6    1  0.1097339E-002  0.2286690E+03  0.7546771E-02  0.1036687E+00
        -11   -1    0    0    0    0  0.00000000000E+00  0.00000000000E+00  0.18250000000E+03  0.18250000000E+03  0.00000000000E+00 0. -1.
         11   -1    0    0    0    0 -0.00000000000E+00 -0.00000000000E+00 -0.18250000000E+03  0.18250000000E+03  0.00000000000E+00 0.  1.
        -11    1    1    2    0    0 -0.13335077892E+01 -0.66159027209E+01  0.13616383090E+03  0.13633098421E+03  0.00000000000E+00 0. -1.
         11    1    1    2    0    0  0.13106930142E+02  0.33334834085E+01 -0.90594046870E+02  0.91597953349E+02  0.00000000000E+00 0.  1.
        -15    1    1    2    0    0 -0.17744756034E+01  0.36707210814E+01  0.45358778283E+02  0.45576303638E+02  0.17770000000E+01 0.  1.
         15    1    1    2    0    0 -0.99989467491E+01 -0.38830176897E+00 -0.90928562313E+02  0.91494758798E+02  0.17770000000E+01 0.  1.
</event>
<event>
 6    1  0.1097339E-002  0.1882156E+03  0.7546771E-02  0.1063994E+00
        -11   -1    0    0    0    0  0.00000000000E+00  0.00000000000E+00  0.18250000000E+03  0.18250000000E+03  0.00000000000E+00 0. -1.
         11   -1    0    0    0    0 -0.00000000000E+00 -0.00000000000E+00 -0.18250000000E+03  0.18250000000E+03  0.00000000000E+00 0.  1.
        -11    1    1    2    0    0  0.59707286345E+01 -0.20735461444E+01  0.17667136193E+03  0.17678438653E+03  0.00000000000E+00 0. -1.
         11    1    1    2    0    0 -0.96775143864E+01 -0.22327254964E+01 -0.14373072253E+03  0.14407345330E+03  0.00000000000E+00 0.  1.
        -15    1    1    2    0    0 -0.87705932783E+01  0.10671224092E+02 -0.97825067573E+01  0.17019209663E+02  0.17770000000E+01 0. -1.
         15    1    1    2    0    0  0.12477379030E+02 -0.63649524514E+01 -0.23158132646E+02  0.27122950500E+02  0.17770000000E+01 0.  1.
</event>
<event>
 6    1  0.1097339E-002  0.1844006E+03  0.7546771E-02  0.1066952E+00
        -11   -1    0    0    0    0  0.00000000000E+00  0.00000000000E+00  0.18250000000E+03  0.18250000000E+03  0.00000000000E+00 0.  1.
         11   -1    0    0    0    0 -0.00000000000E+00 -0.00000000000E+00 -0.18250000000E+03  0.18250000000E+03  0.00000000000E+00 0. -1.
        -11    1    1    2    0    0  0.38834169340E+01 -0.22958396660E+01  0.18054299980E+03  0.18059935377E+03  0.00000000000E+00 0.  1.
         11    1    1    2    0    0  0.26045493677E+01  0.13573602940E+01 -0.17191357034E+03  0.17193865700E+03  0.00000000000E+00 0. -1.
        -15    1    1    2    0    0 -0.31979602350E+01 -0.11272533887E+01 -0.68235252391E+01  0.78240574868E+01  0.17770000000E+01 0.  1.
         15    1    1    2    0    0 -0.32900060667E+01  0.20657327608E+01 -0.18059042245E+01  0.46379317401E+01  0.17770000000E+01 0. -1.
</event>
<event>
 6    1  0.1097339E-002  0.1912102E+03  0.7546771E-02  0.1061725E+00
        -11   -1    0    0    0    0  0.00000000000E+00  0.00000000000E+00  0.18250000000E+03  0.18250000000E+03  0.00000000000E+00 0. -1.
         11   -1    0    0    0    0 -0.00000000000E+00 -0.00000000000E+00 -0.18250000000E+03  0.18250000000E+03  0.00000000000E+00 0.  1.
        -11    1    1    2    0    0  0.39725830731E+02 -0.99449667664E+01  0.16889601267E+03  0.17378983598E+03  0.00000000000E+00 0. -1.
         11    1    1    2    0    0  0.41475491914E+00 -0.60739375063E+01 -0.10852072472E+03  0.10869136319E+03  0.00000000000E+00 0.  1.
        -15    1    1    2    0    0 -0.36274625303E+02 -0.15642264096E+01 -0.49488810722E+02  0.61405173730E+02  0.17770000000E+01 0. -1.
         15    1    1    2    0    0 -0.38659603472E+01  0.17583130682E+02 -0.10886477236E+02  0.21113627107E+02  0.17770000000E+01 0.  1.
</event>
<event>
 6    1  0.1097339E-002  0.1845967E+03  0.7546771E-02  0.1066798E+00
        -11   -1    0    0    0    0  0.00000000000E+00  0.00000000000E+00  0.18250000000E+03  0.18250000000E+03  0.00000000000E+00 0.  1.
         11   -1    0    0    0    0 -0.00000000000E+00 -0.00000000000E+00 -0.18250000000E+03  0.18250000000E+03  0.00000000000E+00 0. -1.
        -11    1    1    2    0    0  0.38929244538E+01  0.78938116625E+01  0.15444126065E+03  0.15469185536E+03  0.00000000000E+00 0.  1.
         11    1    1    2    0    0 -0.51468319020E+01 -0.21865555802E+01 -0.18031663535E+03  0.18040332561E+03  0.00000000000E+00 0. -1.
        -15    1    1    2    0    0  0.59907572230E+01 -0.99430727676E+00  0.54842521595E+01  0.83733248960E+01  0.17770000000E+01 0.  1.
         15    1    1    2    0    0 -0.47368497748E+01 -0.47129488055E+01  0.20391122547E+02  0.21531494141E+02  0.17770000000E+01 0. -1.
</event>
<event>
 6    1  0.1097339E-002  0.1873000E+03  0.7546771E-02  0.1064697E+00
        -11   -1    0    0    0    0  0.00000000000E+00  0.00000000000E+00  0.18250000000E+03  0.18250000000E+03  0.00000000000E+00 0. -1.
         11   -1    0    0    0    0 -0.00000000000E+00 -0.00000000000E+00 -0.18250000000E+03  0.18250000000E+03  0.00000000000E+00 0.  1.
        -11    1    1    2    0    0  0.27219386186E+01 -0.20677434842E+01  0.17766715736E+03  0.17770003747E+03  0.00000000000E+00 0. -1.
         11    1    1    2    0    0 -0.80504375417E+01 -0.32104077852E+01 -0.17026193687E+03  0.17048238445E+03  0.00000000000E+00 0.  1.
        -15    1    1    2    0    0  0.66256427407E+01  0.82141018735E+01 -0.30600357422E+01  0.11130685471E+02  0.17770000000E+01 0.  1.
         15    1    1    2    0    0 -0.12971438176E+01 -0.29359506040E+01 -0.43451847501E+01  0.56868926089E+01  0.17770000000E+01 0. -1.
</event>
<event>
 6    1  0.1097339E-002  0.1825766E+03  0.7546771E-02  0.1068394E+00
        -11   -1    0    0    0    0  0.00000000000E+00  0.00000000000E+00  0.18250000000E+03  0.18250000000E+03  0.00000000000E+00 0.  1.
         11   -1    0    0    0    0 -0.00000000000E+00 -0.00000000000E+00 -0.18250000000E+03  0.18250000000E+03  0.00000000000E+00 0. -1.
        -11    1    1    2    0    0  0.13718176326E+01  0.33816399016E+00  0.66786307186E+02  0.66801250483E+02  0.00000000000E+00 0.  1.
         11    1    1    2    0    0 -0.32269902538E+01  0.23261824471E+01 -0.18237998821E+03  0.18242336662E+03  0.00000000000E+00 0. -1.
        -15    1    1    2    0    0  0.66392322511E+00 -0.65279275167E+00  0.88552960421E+02  0.88575682107E+02  0.17770000000E+01 0. -1.
         15    1    1    2    0    0  0.11912493961E+01 -0.20115536856E+01  0.27040720600E+02  0.27199700788E+02  0.17770000000E+01 0.  1.
</event>
<event>
 6    1  0.1097339E-002  0.1858817E+03  0.7546771E-02  0.1065794E+00
        -11   -1    0    0    0    0  0.00000000000E+00  0.00000000000E+00  0.18250000000E+03  0.18250000000E+03  0.00000000000E+00 0. -1.
         11   -1    0    0    0    0 -0.00000000000E+00 -0.00000000000E+00 -0.18250000000E+03  0.18250000000E+03  0.00000000000E+00 0.  1.
        -11    1    1    2    0    0 -0.22332764527E+01 -0.66555242132E+00  0.17127302820E+03  0.17128888076E+03  0.00000000000E+00 0. -1.
         11    1    1    2    0    0  0.28836706451E+01  0.27187995008E+01 -0.17907446285E+03  0.17911831473E+03  0.00000000000E+00 0.  1.
        -15    1    1    2    0    0 -0.31128040253E+01 -0.37891627267E+01 -0.82825016977E+00  0.52811959264E+01  0.17770000000E+01 0.  1.
         15    1    1    2    0    0  0.24624098329E+01  0.17359156473E+01  0.86296848218E+01  0.93116085852E+01  0.17770000000E+01 0.  1.
</event>
<event>
 6    1  0.1097339E-002  0.1845108E+03  0.7546771E-02  0.1066865E+00
        -11   -1    0    0    0    0  0.00000000000E+00  0.00000000000E+00  0.18250000000E+03  0.18250000000E+03  0.00000000000E+00 0. -1.
         11   -1    0    0    0    0 -0.00000000000E+00 -0.00000000000E+00 -0.18250000000E+03  0.18250000000E+03  0.00000000000E+00 0.  1.
        -11    1    1    2    0    0  0.29392489581E+01  0.36343061022E+01  0.18042871339E+03  0.18048924617E+03  0.00000000000E+00 0. -1.
         11    1    1    2    0    0  0.77330400803E+01 -0.24243462773E+01 -0.15947931157E+03  0.15968509067E+03  0.00000000000E+00 0.  1.
        -15    1    1    2    0    0 -0.88265660726E+00  0.20438760500E+01 -0.42409247861E+01  0.51087849862E+01  0.17770000000E+01 0.  1.
         15    1    1    2    0    0 -0.97896324311E+01 -0.32538358749E+01 -0.16708477034E+02  0.19716878172E+02  0.17770000000E+01 0. -1.
</event>
<event>
 6    1  0.1097339E-002  0.1837754E+03  0.7546771E-02  0.1067444E+00
        -11   -1    0    0    0    0  0.00000000000E+00  0.00000000000E+00  0.18250000000E+03  0.18250000000E+03  0.00000000000E+00 0. -1.
         11   -1    0    0    0    0 -0.00000000000E+00 -0.00000000000E+00 -0.18250000000E+03  0.18250000000E+03  0.00000000000E+00 0. -1.
        -11    1    1    2    0    0 -0.52793478082E+01 -0.37489225180E+01  0.18110886817E+03  0.18122457908E+03  0.00000000000E+00 0. -1.
         11    1    1    2    0    0 -0.13367679764E+00  0.31535864083E+01 -0.17139746501E+03  0.17142652650E+03  0.00000000000E+00 0. -1.
        -15    1    1    2    0    0  0.17108230484E+01  0.19360195121E+01 -0.28301296193E+01  0.42240323999E+01  0.17770000000E+01 0.  1.
         15    1    1    2    0    0  0.37022015574E+01 -0.13406834024E+01 -0.68812735356E+01  0.81248620191E+01  0.17770000000E+01 0. -1.
</event>
<event>
 6    1  0.1097339E-002  0.1880449E+03  0.7546771E-02  0.1064125E+00
        -11   -1    0    0    0    0  0.00000000000E+00  0.00000000000E+00  0.18250000000E+03  0.18250000000E+03  0.00000000000E+00 0. -1.
         11   -1    0    0    0    0 -0.00000000000E+00 -0.00000000000E+00 -0.18250000000E+03  0.18250000000E+03  0.00000000000E+00 0. -1.
        -11    1    1    2    0    0 -0.18352127040E+01 -0.95760668484E+00  0.14943257085E+03  0.14944690779E+03  0.00000000000E+00 0. -1.
         11    1    1    2    0    0  0.27229094587E+01  0.16542953395E+01 -0.17692639959E+03  0.17695508413E+03  0.00000000000E+00 0. -1.
        -15    1    1    2    0    0 -0.23400956180E+01 -0.24610941499E+00 -0.51157407335E+01  0.59046718450E+01  0.17770000000E+01 0. -1.
         15    1    1    2    0    0  0.14523988632E+01 -0.45057923967E+00  0.32609569467E+02  0.32693336232E+02  0.17770000000E+01 0. -1.
</event>
<event>
 6    1  0.1097339E-002  0.1838035E+03  0.7546771E-02  0.1067422E+00
        -11   -1    0    0    0    0  0.00000000000E+00  0.00000000000E+00  0.18250000000E+03  0.18250000000E+03  0.00000000000E+00 0. -1.
         11   -1    0    0    0    0 -0.00000000000E+00 -0.00000000000E+00 -0.18250000000E+03  0.18250000000E+03  0.00000000000E+00 0.  1.
        -11    1    1    2    0    0 -0.10820694778E+01  0.89474799063E+01  0.18097221708E+03  0.18119650004E+03  0.00000000000E+00 0. -1.
         11    1    1    2    0    0 -0.36071183565E+01  0.16312995712E+01 -0.14425097175E+03  0.14430528505E+03  0.00000000000E+00 0.  1.
        -15    1    1    2    0    0  0.15053683042E+01 -0.10214457456E+02 -0.22615331883E+02  0.24924129675E+02  0.17770000000E+01 0. -1.
         15    1    1    2    0    0  0.31838195302E+01 -0.36432202160E+00 -0.14105913449E+02  0.14574085239E+02  0.17770000000E+01 0.  1.
</event>
<event>
 6    1  0.1097339E-002  0.1706199E+03  0.7546771E-02  0.1078325E+00
        -11   -1    0    0    0    0  0.00000000000E+00  0.00000000000E+00  0.18250000000E+03  0.18250000000E+03  0.00000000000E+00 0.  1.
         11   -1    0    0    0    0 -0.00000000000E+00 -0.00000000000E+00 -0.18250000000E+03  0.18250000000E+03  0.00000000000E+00 0.  1.
        -11    1    1    2    0    0  0.12318328080E+01  0.41105165598E+01  0.16844064162E+03  0.16849529224E+03  0.00000000000E+00 0.  1.
         11    1    1    2    0    0 -0.24933311158E+01  0.39925962406E+01 -0.17280683645E+03  0.17287093523E+03  0.00000000000E+00 0.  1.
        -15    1    1    2    0    0  0.58512008088E+01  0.65883389068E+00 -0.64204912328E+01  0.88910657219E+01  0.17770000000E+01 0. -1.
         15    1    1    2    0    0 -0.45897025011E+01 -0.87619466910E+01  0.10786686062E+02  0.14742706810E+02  0.17770000000E+01 0.  1.
</event>
<event>
 6    1  0.1097339E-002  0.1735776E+03  0.7546771E-02  0.1075787E+00
        -11   -1    0    0    0    0  0.00000000000E+00  0.00000000000E+00  0.18250000000E+03  0.18250000000E+03  0.00000000000E+00 0. -1.
         11   -1    0    0    0    0 -0.00000000000E+00 -0.00000000000E+00 -0.18250000000E+03  0.18250000000E+03  0.00000000000E+00 0. -1.
        -11    1    1    2    0    0 -0.34948515988E+01 -0.10510907572E+02  0.17412668562E+03  0.17447863999E+03  0.00000000000E+00 0. -1.
         11    1    1    2    0    0 -0.12712405046E+01  0.43054787725E+01 -0.17270930732E+03  0.17276764175E+03  0.00000000000E+00 0. -1.
        -15    1    1    2    0    0  0.89497069837E+01 -0.99555158768E+00 -0.57360658587E+00  0.91964738663E+01  0.17770000000E+01 0. -1.
         15    1    1    2    0    0 -0.41836148803E+01  0.72009803871E+01 -0.84377171991E+00  0.85572443998E+01  0.17770000000E+01 0.  1.
</event>
<event>
 6    1  0.1097339E-002  0.1827077E+03  0.7546771E-02  0.1068290E+00
        -11   -1    0    0    0    0  0.00000000000E+00  0.00000000000E+00  0.18250000000E+03  0.18250000000E+03  0.00000000000E+00 0. -1.
         11   -1    0    0    0    0 -0.00000000000E+00 -0.00000000000E+00 -0.18250000000E+03  0.18250000000E+03  0.00000000000E+00 0. -1.
        -11    1    1    2    0    0  0.12107401351E+01 -0.80322120160E+00  0.23107464256E+02  0.23153098287E+02  0.00000000000E+00 0. -1.
         11    1    1    2    0    0  0.30797028158E+01 -0.24496972751E+01 -0.18224979225E+03  0.18229227181E+03  0.00000000000E+00 0. -1.
        -15    1    1    2    0    0 -0.27866311800E+01 -0.29321829548E+01  0.86337037852E+02  0.86450013558E+02  0.17770000000E+01 0. -1.
         15    1    1    2    0    0 -0.15038117708E+01  0.61851014315E+01  0.72805290142E+02  0.73104616347E+02  0.17770000000E+01 0. -1.
</event>
<event>
 6    1  0.1097339E-002  0.1768218E+03  0.7546771E-02  0.1073067E+00
        -11   -1    0    0    0    0  0.00000000000E+00  0.00000000000E+00  0.18250000000E+03  0.18250000000E+03  0.00000000000E+00 0.  1.
         11   -1    0    0    0    0 -0.00000000000E+00 -0.00000000000E+00 -0.18250000000E+03  0.18250000000E+03  0.00000000000E+00 0. -1.
        -11    1    1    2    0    0 -0.43147652426E+01  0.64090300266E+01  0.17646572047E+03  0.17663477395E+03  0.00000000000E+00 0.  1.
         11    1    1    2    0    0 -0.75344933825E+00 -0.38752500509E+01 -0.17701070279E+03  0.17705472079E+03  0.00000000000E+00 0. -1.
        -15    1    1    2    0    0  0.85601495258E+00 -0.26979328941E+01 -0.37587242510E+01  0.50296461601E+01  0.17770000000E+01 0. -1.
         15    1    1    2    0    0  0.42121996283E+01  0.16415291842E+00  0.43037065720E+01  0.62808591090E+01  0.17770000000E+01 0.  1.
</event>
<event>
 6    1  0.1097339E-002  0.1835504E+03  0.7546771E-02  0.1067622E+00
        -11   -1    0    0    0    0  0.00000000000E+00  0.00000000000E+00  0.18250000000E+03  0.18250000000E+03  0.00000000000E+00 0.  1.
         11   -1    0    0    0    0 -0.00000000000E+00 -0.00000000000E+00 -0.18250000000E+03  0.18250000000E+03  0.00000000000E+00 0. -1.
        -11    1    1    2    0    0  0.30749215776E+00  0.19845845463E+01  0.12949145243E+03  0.12950702444E+03  0.00000000000E+00 0.  1.
         11    1    1    2    0    0 -0.13681438611E+01 -0.28798602238E+01 -0.18142158110E+03  0.18144959493E+03  0.00000000000E+00 0. -1.
        -15    1    1    2    0    0  0.12232891352E+01  0.49117161259E+01  0.47503693914E+02  0.47805648789E+02  0.17770000000E+01 0.  1.
         15    1    1    2    0    0 -0.16263743192E+00 -0.40164404483E+01  0.44264347563E+01  0.62377318363E+01  0.17770000000E+01 0. -1.
</event>
<event>
 6    1  0.1097339E-002  0.1898809E+03  0.7546771E-02  0.1062727E+00
        -11   -1    0    0    0    0  0.00000000000E+00  0.00000000000E+00  0.18250000000E+03  0.18250000000E+03  0.00000000000E+00 0. -1.
         11   -1    0    0    0    0 -0.00000000000E+00 -0.00000000000E+00 -0.18250000000E+03  0.18250000000E+03  0.00000000000E+00 0. -1.
        -11    1    1    2    0    0  0.14153278757E+01 -0.15112652316E+01  0.63130642152E+02  0.63164587026E+02  0.00000000000E+00 0. -1.
         11    1    1    2    0    0 -0.23047026752E+02 -0.14914840112E+02 -0.17295402739E+03  0.17511914084E+03  0.00000000000E+00 0. -1.
        -15    1    1    2    0    0  0.36787765064E+02  0.25388809528E+02  0.69127674762E+02  0.82339082182E+02  0.17770000000E+01 0. -1.
         15    1    1    2    0    0 -0.15156066188E+02 -0.89627041840E+01  0.40695710472E+02  0.44377189957E+02  0.17770000000E+01 0.  1.
</event>
<event>
 6    1  0.1097339E-002  0.1841842E+03  0.7546771E-02  0.1067122E+00
        -11   -1    0    0    0    0  0.00000000000E+00  0.00000000000E+00  0.18250000000E+03  0.18250000000E+03  0.00000000000E+00 0. -1.
         11   -1    0    0    0    0 -0.00000000000E+00 -0.00000000000E+00 -0.18250000000E+03  0.18250000000E+03  0.00000000000E+00 0.  1.
        -11    1    1    2    0    0 -0.11552619612E+01 -0.42607535624E+01  0.18076191040E+03  0.18081580933E+03  0.00000000000E+00 0. -1.
         11    1    1    2    0    0 -0.37091759931E+01  0.25721489726E+01 -0.16013955193E+03  0.16020315237E+03  0.00000000000E+00 0.  1.
        -15    1    1    2    0    0 -0.98964452234E-02  0.38467893381E+01 -0.16437190955E+02  0.16974594595E+02  0.17770000000E+01 0. -1.
         15    1    1    2    0    0  0.48743343995E+01 -0.21581847484E+01 -0.41851675139E+01  0.70064437032E+01  0.17770000000E+01 0.  1.
</event>
<event>
 6    1  0.1097339E-002  0.1828599E+03  0.7546771E-02  0.1068169E+00
        -11   -1    0    0    0    0  0.00000000000E+00  0.00000000000E+00  0.18250000000E+03  0.18250000000E+03  0.00000000000E+00 0. -1.
         11   -1    0    0    0    0 -0.00000000000E+00 -0.00000000000E+00 -0.18250000000E+03  0.18250000000E+03  0.00000000000E+00 0.  1.
        -11    1    1    2    0    0 -0.39689431093E+01  0.16063467227E+01  0.18208973660E+03  0.18214006982E+03  0.00000000000E+00 0. -1.
         11    1    1    2    0    0 -0.12527070246E+00  0.27455720155E+01 -0.87974455082E+02  0.88017376725E+02  0.00000000000E+00 0.  1.
        -15    1    1    2    0    0 -0.17088192814E+01  0.12692338108E+01 -0.12225447464E+02  0.12535960773E+02  0.17770000000E+01 0. -1.
         15    1    1    2    0    0  0.58030330932E+01 -0.56211525490E+01 -0.81889834052E+02  0.82306592683E+02  0.17770000000E+01 0. -1.
</event>
<event>
 6    1  0.1097339E-002  0.1826528E+03  0.7546771E-02  0.1068333E+00
        -11   -1    0    0    0    0  0.00000000000E+00  0.00000000000E+00  0.18250000000E+03  0.18250000000E+03  0.00000000000E+00 0. -1.
         11   -1    0    0    0    0 -0.00000000000E+00 -0.00000000000E+00 -0.18250000000E+03  0.18250000000E+03  0.00000000000E+00 0.  1.
        -11    1    1    2    0    0  0.13364543067E+01  0.54400590842E+01  0.18226111271E+03  0.18234717864E+03  0.00000000000E+00 0. -1.
         11    1    1    2    0    0 -0.11213971768E+01 -0.23480110698E+00 -0.66906010416E+02  0.66915819452E+02  0.00000000000E+00 0.  1.
        -15    1    1    2    0    0 -0.46864932315E+00 -0.66198669945E+01 -0.73797300289E+02  0.74116405270E+02  0.17770000000E+01 0.  1.
         15    1    1    2    0    0  0.25359219320E+00  0.14146090172E+01 -0.41557802005E+02  0.41620596634E+02  0.17770000000E+01 0.  1.
</event>
<event>
 6    1  0.1097339E-002  0.1830204E+03  0.7546771E-02  0.1068041E+00
        -11   -1    0    0    0    0  0.00000000000E+00  0.00000000000E+00  0.18250000000E+03  0.18250000000E+03  0.00000000000E+00 0.  1.
         11   -1    0    0    0    0 -0.00000000000E+00 -0.00000000000E+00 -0.18250000000E+03  0.18250000000E+03  0.00000000000E+00 0. -1.
        -11    1    1    2    0    0 -0.62262988901E+00  0.27819669592E+01  0.14279836608E+03  0.14282681948E+03  0.00000000000E+00 0.  1.
         11    1    1    2    0    0  0.92243049090E+00  0.32711504833E+01 -0.18194783841E+03  0.18197957909E+03  0.00000000000E+00 0. -1.
        -15    1    1    2    0    0 -0.19894879605E+01 -0.51245005945E+01  0.18573938030E+02  0.19451670150E+02  0.17770000000E+01 0.  1.
         15    1    1    2    0    0  0.16896873586E+01 -0.92861684800E+00  0.20575534295E+02  0.20741931278E+02  0.17770000000E+01 0.  1.
</event>
<event>
 6    1  0.1374492E-002  0.1853719E+03  0.7546771E-02  0.1066191E+00
        -11   -1    0    0    0    0  0.00000000000E+00  0.00000000000E+00  0.18250000000E+03  0.18250000000E+03  0.00000000000E+00 0.  1.
         11   -1    0    0    0    0 -0.00000000000E+00 -0.00000000000E+00 -0.18250000000E+03  0.18250000000E+03  0.00000000000E+00 0. -1.
        -11    1    1    2    0    0  0.16750358174E+01  0.34893581244E+01  0.17958638538E+03  0.17962809128E+03  0.00000000000E+00 0.  1.
         11    1    1    2    0    0 -0.10307122292E+01  0.75343653015E+01 -0.12323782287E+03  0.12347222366E+03  0.00000000000E+00 0. -1.
        -15    1    1    2    0    0 -0.34923159804E+00  0.48644180376E+00  0.17977450564E+01  0.25977306684E+01  0.17770000000E+01 0.  1.
         15    1    1    2    0    0 -0.29509199011E+00 -0.11510165230E+02 -0.58146307560E+02  0.59301954393E+02  0.17770000000E+01 0.  1.
</event>
<event>
 6    1  0.1097339E-002  0.1890159E+03  0.7546771E-02  0.1063383E+00
        -11   -1    0    0    0    0  0.00000000000E+00  0.00000000000E+00  0.18250000000E+03  0.18250000000E+03  0.00000000000E+00 0. -1.
         11   -1    0    0    0    0 -0.00000000000E+00 -0.00000000000E+00 -0.18250000000E+03  0.18250000000E+03  0.00000000000E+00 0.  1.
        -11    1    1    2    0    0 -0.10180609242E+02  0.47671142807E+01  0.17562468171E+03  0.17598408738E+03  0.00000000000E+00 0. -1.
         11    1    1    2    0    0 -0.14379928488E+02 -0.90516333511E+01 -0.14967347603E+03  0.15063486926E+03  0.00000000000E+00 0.  1.
        -15    1    1    2    0    0 -0.50762806034E+00 -0.11454529966E+01 -0.40918407177E+01  0.46336420098E+01  0.17770000000E+01 0.  1.
         15    1    1    2    0    0  0.25068165790E+02  0.54299720671E+01 -0.21859364966E+02  0.33747401358E+02  0.17770000000E+01 0. -1.
</event>
<event>
 6    1  0.1097339E-002  0.1831720E+03  0.7546771E-02  0.1067921E+00
        -11   -1    0    0    0    0  0.00000000000E+00  0.00000000000E+00  0.18250000000E+03  0.18250000000E+03  0.00000000000E+00 0. -1.
         11   -1    0    0    0    0 -0.00000000000E+00 -0.00000000000E+00 -0.18250000000E+03  0.18250000000E+03  0.00000000000E+00 0.  1.
        -11    1    1    2    0    0 -0.30927253878E+01 -0.19609956194E+01  0.18179113364E+03  0.18182801414E+03  0.00000000000E+00 0. -1.
         11    1    1    2    0    0  0.57854408306E+00 -0.84159525405E+00 -0.56393765137E+02  0.56403011818E+02  0.00000000000E+00 0.  1.
        -15    1    1    2    0    0  0.58577233293E+01  0.24852003526E+01 -0.16062452144E+02  0.17368052317E+02  0.17770000000E+01 0. -1.
         15    1    1    2    0    0 -0.33435420245E+01  0.31739052083E+00 -0.10933491636E+03  0.10940092173E+03  0.17770000000E+01 0.  1.
</event>
<event>
 6    1  0.1097339E-002  0.1826232E+03  0.7546771E-02  0.1068357E+00
        -11   -1    0    0    0    0  0.00000000000E+00  0.00000000000E+00  0.18250000000E+03  0.18250000000E+03  0.00000000000E+00 0. -1.
         11   -1    0    0    0    0 -0.00000000000E+00 -0.00000000000E+00 -0.18250000000E+03  0.18250000000E+03  0.00000000000E+00 0.  1.
        -11    1    1    2    0    0 -0.11403130475E+01 -0.24701452266E+00  0.56544422982E+02  0.56556459404E+02  0.00000000000E+00 0. -1.
         11    1    1    2    0    0 -0.16054492623E+01 -0.23125625999E+01 -0.18235503362E+03  0.18237676305E+03  0.00000000000E+00 0.  1.
        -15    1    1    2    0    0  0.27336901990E+01  0.11718061935E+01  0.25897655393E+02  0.26128384484E+02  0.17770000000E+01 0. -1.
         15    1    1    2    0    0  0.12072110791E-01  0.13877709290E+01  0.99912955244E+02  0.99938393066E+02  0.17770000000E+01 0. -1.
</event>
<event>
 6    1  0.1097339E-002  0.1826615E+03  0.7546771E-02  0.1068326E+00
        -11   -1    0    0    0    0  0.00000000000E+00  0.00000000000E+00  0.18250000000E+03  0.18250000000E+03  0.00000000000E+00 0. -1.
         11   -1    0    0    0    0 -0.00000000000E+00 -0.00000000000E+00 -0.18250000000E+03  0.18250000000E+03  0.00000000000E+00 0. -1.
        -11    1    1    2    0    0  0.26024319307E+01 -0.22643901662E+01  0.10409670842E+03  0.10415385167E+03  0.00000000000E+00 0. -1.
         11    1    1    2    0    0 -0.16702205968E+01 -0.19550570470E+01 -0.18232036432E+03  0.18233849602E+03  0.00000000000E+00 0. -1.
        -15    1    1    2    0    0 -0.13719287887E+01  0.15492282818E+01  0.53969115833E+02  0.54038000423E+02  0.17770000000E+01 0. -1.
         15    1    1    2    0    0  0.43971745484E+00  0.26702189314E+01  0.24254540069E+02  0.24469651889E+02  0.17770000000E+01 0.  1.
</event>
<event>
 6    1  0.1097339E-002  0.1869712E+03  0.7546771E-02  0.1064950E+00
        -11   -1    0    0    0    0  0.00000000000E+00  0.00000000000E+00  0.18250000000E+03  0.18250000000E+03  0.00000000000E+00 0. -1.
         11   -1    0    0    0    0 -0.00000000000E+00 -0.00000000000E+00 -0.18250000000E+03  0.18250000000E+03  0.00000000000E+00 0. -1.
        -11    1    1    2    0    0 -0.10654744431E+02  0.74114782165E+01  0.17755509965E+03  0.17802883756E+03  0.00000000000E+00 0. -1.
         11    1    1    2    0    0 -0.54199007783E+01  0.54341139255E+01 -0.10103568006E+03  0.10132676628E+03  0.00000000000E+00 0. -1.
        -15    1    1    2    0    0  0.54816703584E+01 -0.81255973615E+01 -0.72591813580E+02  0.73272117277E+02  0.17770000000E+01 0. -1.
         15    1    1    2    0    0  0.10592974851E+02 -0.47199947805E+01 -0.39276060119E+01  0.12372278889E+02  0.17770000000E+01 0. -1.
</event>
<event>
 6    1  0.1097339E-002  0.1923227E+03  0.7546771E-02  0.1060894E+00
        -11   -1    0    0    0    0  0.00000000000E+00  0.00000000000E+00  0.18250000000E+03  0.18250000000E+03  0.00000000000E+00 0. -1.
         11   -1    0    0    0    0 -0.00000000000E+00 -0.00000000000E+00 -0.18250000000E+03  0.18250000000E+03  0.00000000000E+00 0. -1.
        -11    1    1    2    0    0  0.29224002228E+01 -0.56787725884E+01  0.17255911015E+03  0.17267725784E+03  0.00000000000E+00 0. -1.
         11    1    1    2    0    0 -0.58920227864E+01 -0.31588403497E+01 -0.14012846450E+03  0.14028784968E+03  0.00000000000E+00 0. -1.
        -15    1    1    2    0    0  0.77882727092E+01 -0.52004782132E+01 -0.35514987174E+02  0.36771921468E+02  0.17770000000E+01 0.  1.
         15    1    1    2    0    0 -0.48186501456E+01  0.14038091151E+02  0.30843415273E+01  0.15262971010E+02  0.17770000000E+01 0. -1.
</event>
<event>
 6    1  0.1097339E-002  0.1658828E+03  0.7546771E-02  0.1082510E+00
        -11   -1    0    0    0    0  0.00000000000E+00  0.00000000000E+00  0.18250000000E+03  0.18250000000E+03  0.00000000000E+00 0.  1.
         11   -1    0    0    0    0 -0.00000000000E+00 -0.00000000000E+00 -0.18250000000E+03  0.18250000000E+03  0.00000000000E+00 0. -1.
        -11    1    1    2    0    0 -0.56086831180E+01  0.40081738627E+01  0.16494114814E+03  0.16508514510E+03  0.00000000000E+00 0.  1.
         11    1    1    2    0    0  0.26845302739E+01  0.16594519272E+01 -0.16671668132E+03  0.16674655113E+03  0.00000000000E+00 0. -1.
        -15    1    1    2    0    0 -0.12871659559E+02  0.30392154778E+01  0.58848208904E+01  0.14584419647E+02  0.17770000000E+01 0. -1.
         15    1    1    2    0    0  0.15795812403E+02 -0.87068412678E+01 -0.41092877067E+01  0.18583884115E+02  0.17770000000E+01 0.  1.
</event>
<event>
 6    1  0.1097339E-002  0.1854140E+03  0.7546771E-02  0.1066159E+00
        -11   -1    0    0    0    0  0.00000000000E+00  0.00000000000E+00  0.18250000000E+03  0.18250000000E+03  0.00000000000E+00 0.  1.
         11   -1    0    0    0    0 -0.00000000000E+00 -0.00000000000E+00 -0.18250000000E+03  0.18250000000E+03  0.00000000000E+00 0. -1.
        -11    1    1    2    0    0 -0.79544429395E+01 -0.10165634806E+02  0.17912148928E+03  0.17958597166E+03  0.00000000000E+00 0.  1.
         11    1    1    2    0    0  0.20081110601E+01 -0.69630816286E+01 -0.10295677506E+03  0.10321150394E+03  0.00000000000E+00 0. -1.
        -15    1    1    2    0    0  0.96033669668E+01  0.15040011909E+02 -0.24636593190E+02  0.30472053891E+02  0.17770000000E+01 0.  1.
         15    1    1    2    0    0 -0.36570350874E+01  0.20887045258E+01 -0.51528121034E+02  0.51730470504E+02  0.17770000000E+01 0. -1.
</event>
<event>
 6    1  0.1097339E-002  0.1826140E+03  0.7546771E-02  0.1068364E+00
        -11   -1    0    0    0    0  0.00000000000E+00  0.00000000000E+00  0.18250000000E+03  0.18250000000E+03  0.00000000000E+00 0.  1.
         11   -1    0    0    0    0 -0.00000000000E+00 -0.00000000000E+00 -0.18250000000E+03  0.18250000000E+03  0.00000000000E+00 0. -1.
        -11    1    1    2    0    0  0.15924692823E+00  0.14818677215E+01  0.35475378663E+02  0.35506672370E+02  0.00000000000E+00 0.  1.
         11    1    1    2    0    0 -0.40791294807E+01 -0.87675338273E+00 -0.18233827713E+03  0.18238600632E+03  0.00000000000E+00 0. -1.
        -15    1    1    2    0    0 -0.49524418699E+00 -0.17842625324E+01  0.22169249424E+02  0.22317307378E+02  0.17770000000E+01 0. -1.
         15    1    1    2    0    0  0.44151267394E+01  0.11791481936E+01  0.12469364905E+03  0.12479001393E+03  0.17770000000E+01 0.  1.
</event>
<event>
 6    1  0.1097339E-002  0.1870158E+03  0.7546771E-02  0.1064916E+00
        -11   -1    0    0    0    0  0.00000000000E+00  0.00000000000E+00  0.18250000000E+03  0.18250000000E+03  0.00000000000E+00 0.  1.
         11   -1    0    0    0    0 -0.00000000000E+00 -0.00000000000E+00 -0.18250000000E+03  0.18250000000E+03  0.00000000000E+00 0. -1.
        -11    1    1    2    0    0 -0.67148389134E+01 -0.50728804503E+01  0.16588805809E+03  0.16610138770E+03  0.00000000000E+00 0.  1.
         11    1    1    2    0    0 -0.30234550607E+01  0.37980932755E+01 -0.17791796375E+03  0.17798418081E+03  0.00000000000E+00 0. -1.
        -15    1    1    2    0    0  0.48807145864E+00 -0.33733681742E+01  0.92979293757E+01  0.10061165254E+02  0.17770000000E+01 0.  1.
         15    1    1    2    0    0  0.92502225155E+01  0.46481553489E+01  0.27319762810E+01  0.10853266243E+02  0.17770000000E+01 0. -1.
</event>
<event>
 6    1  0.1097339E-002  0.1864217E+03  0.7546771E-02  0.1065375E+00
        -11   -1    0    0    0    0  0.00000000000E+00  0.00000000000E+00  0.18250000000E+03  0.18250000000E+03  0.00000000000E+00 0. -1.
         11   -1    0    0    0    0 -0.00000000000E+00 -0.00000000000E+00 -0.18250000000E+03  0.18250000000E+03  0.00000000000E+00 0.  1.
        -11    1    1    2    0    0  0.10790873642E+01  0.41174418959E+01  0.17852757618E+03  0.17857831115E+03  0.00000000000E+00 0. -1.
         11    1    1    2    0    0  0.58031859269E+01  0.61653853952E+01 -0.15729473973E+03  0.15752245583E+03  0.00000000000E+00 0.  1.
        -15    1    1    2    0    0 -0.92411800818E+01 -0.77187392061E+01 -0.21780002903E+02  0.24950042078E+02  0.17770000000E+01 0. -1.
         15    1    1    2    0    0  0.23589067907E+01 -0.25640880850E+01  0.54716645652E+00  0.39491909407E+01  0.17770000000E+01 0.  1.
</event>
<event>
 6    1  0.1097339E-002  0.1830199E+03  0.7546771E-02  0.1068042E+00
        -11   -1    0    0    0    0  0.00000000000E+00  0.00000000000E+00  0.18250000000E+03  0.18250000000E+03  0.00000000000E+00 0. -1.
         11   -1    0    0    0    0 -0.00000000000E+00 -0.00000000000E+00 -0.18250000000E+03  0.18250000000E+03  0.00000000000E+00 0.  1.
        -11    1    1    2    0    0 -0.13569628673E+01 -0.26582876835E+01  0.18195563631E+03  0.18198011273E+03  0.00000000000E+00 0. -1.
         11    1    1    2    0    0 -0.11054810696E+01  0.18642828057E+01 -0.11399558318E+03  0.11401618579E+03  0.00000000000E+00 0.  1.
        -15    1    1    2    0    0 -0.26404759147E+01  0.43361839564E+01 -0.35708172911E+02  0.36111022501E+02  0.17770000000E+01 0. -1.
         15    1    1    2    0    0  0.51029198516E+01 -0.35421790787E+01 -0.32251880222E+02  0.32892678980E+02  0.17770000000E+01 0.  1.
</event>
<event>
 6    1  0.1097339E-002  0.1840843E+03  0.7546771E-02  0.1067201E+00
        -11   -1    0    0    0    0  0.00000000000E+00  0.00000000000E+00  0.18250000000E+03  0.18250000000E+03  0.00000000000E+00 0.  1.
         11   -1    0    0    0    0 -0.00000000000E+00 -0.00000000000E+00 -0.18250000000E+03  0.18250000000E+03  0.00000000000E+00 0.  1.
        -11    1    1    2    0    0 -0.52335163706E+01 -0.14615354447E-01  0.18083998482E+03  0.18091569864E+03  0.00000000000E+00 0.  1.
         11    1    1    2    0    0 -0.11486172978E+01  0.25942704969E+01 -0.90425773866E+02  0.90470272137E+02  0.00000000000E+00 0.  1.
        -15    1    1    2    0    0  0.43804245915E+01 -0.67781124649E-01 -0.89761294957E+02  0.89885708070E+02  0.17770000000E+01 0.  1.
         15    1    1    2    0    0  0.20017090769E+01 -0.25118740178E+01 -0.65291599158E+00  0.37283211506E+01  0.17770000000E+01 0. -1.
</event>
<event>
 6    1  0.1097339E-002  0.1714738E+03  0.7546771E-02  0.1077587E+00
        -11   -1    0    0    0    0  0.00000000000E+00  0.00000000000E+00  0.18250000000E+03  0.18250000000E+03  0.00000000000E+00 0.  1.
         11   -1    0    0    0    0 -0.00000000000E+00 -0.00000000000E+00 -0.18250000000E+03  0.18250000000E+03  0.00000000000E+00 0. -1.
        -11    1    1    2    0    0 -0.22800585909E+01  0.61389733090E+01  0.17221636762E+03  0.17234083363E+03  0.00000000000E+00 0.  1.
         11    1    1    2    0    0 -0.14806634553E+02 -0.20517038325E+01 -0.17040687403E+03  0.17106124234E+03  0.00000000000E+00 0. -1.
        -15    1    1    2    0    0  0.45226214943E+01 -0.40553088311E+01  0.41609359839E+01  0.75743482992E+01  0.17770000000E+01 0.  1.
         15    1    1    2    0    0  0.12564071650E+02 -0.31960645384E-01 -0.59704295793E+01  0.14023575730E+02  0.17770000000E+01 0. -1.
</event>
<event>
 6    1  0.1097339E-002  0.1916674E+03  0.7546771E-02  0.1061383E+00
        -11   -1    0    0    0    0  0.00000000000E+00  0.00000000000E+00  0.18250000000E+03  0.18250000000E+03  0.00000000000E+00 0.  1.
         11   -1    0    0    0    0 -0.00000000000E+00 -0.00000000000E+00 -0.18250000000E+03  0.18250000000E+03  0.00000000000E+00 0. -1.
        -11    1    1    2    0    0 -0.10166459946E+01  0.13379497428E+01  0.11501523558E+03  0.11502751016E+03  0.00000000000E+00 0.  1.
         11    1    1    2    0    0  0.33058320670E+01  0.30897573625E+01 -0.17327347731E+03  0.17333255051E+03  0.00000000000E+00 0. -1.
        -15    1    1    2    0    0 -0.53325091989E+01 -0.88615173326E-01 -0.82028163653E+01  0.99442160238E+01  0.17770000000E+01 0. -1.
         15    1    1    2    0    0  0.30433231265E+01 -0.43390919320E+01  0.66461058102E+02  0.66695723307E+02  0.17770000000E+01 0.  1.
</event>
<event>
 6    1  0.1097339E-002  0.1834881E+03  0.7546771E-02  0.1067671E+00
        -11   -1    0    0    0    0  0.00000000000E+00  0.00000000000E+00  0.18250000000E+03  0.18250000000E+03  0.00000000000E+00 0. -1.
         11   -1    0    0    0    0 -0.00000000000E+00 -0.00000000000E+00 -0.18250000000E+03  0.18250000000E+03  0.00000000000E+00 0. -1.
        -11    1    1    2    0    0  0.24166677758E+00 -0.28975508854E+01  0.13460424417E+03  0.13463564444E+03  0.00000000000E+00 0. -1.
         11    1    1    2    0    0 -0.66177042890E+00 -0.58640063760E+01 -0.18141595717E+03  0.18151191153E+03  0.00000000000E+00 0. -1.
        -15    1    1    2    0    0  0.29977854992E+01  0.31720287493E+01  0.35829990046E+02  0.36138544519E+02  0.17770000000E+01 0.  1.
         15    1    1    2    0    0 -0.25776818479E+01  0.55895285121E+01  0.10981722958E+02  0.12713899513E+02  0.17770000000E+01 0. -1.
</event>
<event>
 6    1  0.1097339E-002  0.1826606E+03  0.7546771E-02  0.1068327E+00
        -11   -1    0    0    0    0  0.00000000000E+00  0.00000000000E+00  0.18250000000E+03  0.18250000000E+03  0.00000000000E+00 0.  1.
         11   -1    0    0    0    0 -0.00000000000E+00 -0.00000000000E+00 -0.18250000000E+03  0.18250000000E+03  0.00000000000E+00 0.  1.
        -11    1    1    2    0    0  0.15960603453E+01 -0.19540657100E+01  0.18232190851E+03  0.18233936520E+03  0.00000000000E+00 0.  1.
         11    1    1    2    0    0  0.14700744619E+01  0.24775747355E+01 -0.31506359194E+02  0.31637796465E+02  0.00000000000E+00 0.  1.
        -15    1    1    2    0    0 -0.42064301298E+01 -0.86859241642E+00 -0.59161447695E+02  0.59343770773E+02  0.17770000000E+01 0. -1.
         15    1    1    2    0    0  0.11402953225E+01  0.34508339085E+00 -0.91654101618E+02  0.91679067558E+02  0.17770000000E+01 0.  1.
</event>
<event>
 6    1  0.1097339E-002  0.1830148E+03  0.7546771E-02  0.1068046E+00
        -11   -1    0    0    0    0  0.00000000000E+00  0.00000000000E+00  0.18250000000E+03  0.18250000000E+03  0.00000000000E+00 0.  1.
         11   -1    0    0    0    0 -0.00000000000E+00 -0.00000000000E+00 -0.18250000000E+03  0.18250000000E+03  0.00000000000E+00 0.  1.
        -11    1    1    2    0    0 -0.52222686602E+01 -0.19970302121E+01  0.18189926977E+03  0.18198517677E+03  0.00000000000E+00 0.  1.
         11    1    1    2    0    0  0.37164135632E+01  0.22487918581E+01 -0.12451664506E+03  0.12459239018E+03  0.00000000000E+00 0.  1.
        -15    1    1    2    0    0 -0.12804048465E+01  0.78403047507E+00 -0.51804215017E+02  0.51856422581E+02  0.17770000000E+01 0. -1.
         15    1    1    2    0    0  0.27862599436E+01 -0.10357921210E+01 -0.55784096929E+01  0.65660104701E+01  0.17770000000E+01 0.  1.
</event>
<event>
 6    1  0.1097339E-002  0.1838534E+03  0.7546771E-02  0.1067383E+00
        -11   -1    0    0    0    0  0.00000000000E+00  0.00000000000E+00  0.18250000000E+03  0.18250000000E+03  0.00000000000E+00 0.  1.
         11   -1    0    0    0    0 -0.00000000000E+00 -0.00000000000E+00 -0.18250000000E+03  0.18250000000E+03  0.00000000000E+00 0.  1.
        -11    1    1    2    0    0  0.21031371854E-01  0.25280814404E+01  0.18112897355E+03  0.18114661658E+03  0.00000000000E+00 0.  1.
         11    1    1    2    0    0  0.68816354596E+00 -0.30128744867E+01 -0.15780006826E+03  0.15783032827E+03  0.00000000000E+00 0.  1.
        -15    1    1    2    0    0 -0.23779485187E+00 -0.62859530203E+00  0.60422104533E+00  0.19936124290E+01  0.17770000000E+01 0.  1.
         15    1    1    2    0    0 -0.47140006594E+00  0.11133883483E+01 -0.23933126343E+02  0.24029442715E+02  0.17770000000E+01 0. -1.
</event>
<event>
 6    1  0.1097339E-002  0.1933129E+03  0.7546771E-02  0.1060159E+00
        -11   -1    0    0    0    0  0.00000000000E+00  0.00000000000E+00  0.18250000000E+03  0.18250000000E+03  0.00000000000E+00 0. -1.
         11   -1    0    0    0    0 -0.00000000000E+00 -0.00000000000E+00 -0.18250000000E+03  0.18250000000E+03  0.00000000000E+00 0.  1.
        -11    1    1    2    0    0  0.85114105465E+01  0.21142856077E+02  0.17016753516E+03  0.17168708308E+03  0.00000000000E+00 0. -1.
         11    1    1    2    0    0  0.11232446332E+01  0.20678290037E+01 -0.15098582361E+03  0.15100416062E+03  0.00000000000E+00 0.  1.
        -15    1    1    2    0    0 -0.12517267753E+02 -0.26173185139E+02 -0.78374570245E+01  0.30104834727E+02  0.17770000000E+01 0.  1.
         15    1    1    2    0    0  0.28826125734E+01  0.29625000591E+01 -0.11344254533E+02  0.12203921573E+02  0.17770000000E+01 0.  1.
</event>
<event>
 6    1  0.1097339E-002  0.1839856E+03  0.7546771E-02  0.1067278E+00
        -11   -1    0    0    0    0  0.00000000000E+00  0.00000000000E+00  0.18250000000E+03  0.18250000000E+03  0.00000000000E+00 0. -1.
         11   -1    0    0    0    0 -0.00000000000E+00 -0.00000000000E+00 -0.18250000000E+03  0.18250000000E+03  0.00000000000E+00 0.  1.
        -11    1    1    2    0    0  0.92403212099E+01 -0.54580821785E+00  0.18077761007E+03  0.18101443518E+03  0.00000000000E+00 0. -1.
         11    1    1    2    0    0 -0.28336125444E+01  0.49712590757E+00 -0.85674066103E+02  0.85722354709E+02  0.00000000000E+00 0.  1.
        -15    1    1    2    0    0 -0.13763816358E+02 -0.54335270853E+01 -0.67318868642E+02  0.68948920670E+02  0.17770000000E+01 0. -1.
         15    1    1    2    0    0  0.73571076923E+01  0.54822093956E+01 -0.27784675324E+02  0.29314289439E+02  0.17770000000E+01 0.  1.
</event>
<event>
 6    1  0.1097339E-002  0.1831813E+03  0.7546771E-02  0.1067914E+00
        -11   -1    0    0    0    0  0.00000000000E+00  0.00000000000E+00  0.18250000000E+03  0.18250000000E+03  0.00000000000E+00 0. -1.
         11   -1    0    0    0    0 -0.00000000000E+00 -0.00000000000E+00 -0.18250000000E+03  0.18250000000E+03  0.00000000000E+00 0. -1.
        -11    1    1    2    0    0 -0.33451670669E+01 -0.11501566160E+01  0.15848155285E+03  0.15852102572E+03  0.00000000000E+00 0. -1.
         11    1    1    2    0    0  0.37615419773E+01 -0.93481785415E+00 -0.18177739481E+03  0.18181871286E+03  0.00000000000E+00 0. -1.
        -15    1    1    2    0    0 -0.34824291358E+01 -0.10778560135E+00  0.10648780176E+02  0.11344301594E+02  0.17770000000E+01 0.  1.
         15    1    1    2    0    0  0.30660542254E+01  0.21927600715E+01  0.12647061785E+02  0.13315959824E+02  0.17770000000E+01 0.  1.
</event>
<event>
 6    1  0.1097339E-002  0.1984568E+03  0.7546771E-02  0.1056418E+00
        -11   -1    0    0    0    0  0.00000000000E+00  0.00000000000E+00  0.18250000000E+03  0.18250000000E+03  0.00000000000E+00 0.  1.
         11   -1    0    0    0    0 -0.00000000000E+00 -0.00000000000E+00 -0.18250000000E+03  0.18250000000E+03  0.00000000000E+00 0. -1.
        -11    1    1    2    0    0  0.54310913403E+01  0.27754100680E+00  0.15404069784E+03  0.15413666136E+03  0.00000000000E+00 0.  1.
         11    1    1    2    0    0 -0.22511556575E+01 -0.19127793717E-01 -0.16652801646E+03  0.16654323262E+03  0.00000000000E+00 0. -1.
        -15    1    1    2    0    0 -0.15386382752E+02  0.73927013370E+01  0.21288448113E+02  0.27344991485E+02  0.17770000000E+01 0.  1.
         15    1    1    2    0    0  0.12206447069E+02 -0.76511145501E+01 -0.88011295007E+01  0.16975114533E+02  0.17770000000E+01 0. -1.
</event>
<event>
 6    1  0.1097339E-002  0.1853231E+03  0.7546771E-02  0.1066230E+00
        -11   -1    0    0    0    0  0.00000000000E+00  0.00000000000E+00  0.18250000000E+03  0.18250000000E+03  0.00000000000E+00 0. -1.
         11   -1    0    0    0    0 -0.00000000000E+00 -0.00000000000E+00 -0.18250000000E+03  0.18250000000E+03  0.00000000000E+00 0.  1.
        -11    1    1    2    0    0 -0.96308129544E+00  0.11103493918E+01  0.95999806627E+02  0.96011058081E+02  0.00000000000E+00 0. -1.
         11    1    1    2    0    0  0.26284434359E+01  0.76295357827E+00 -0.17965602212E+03  0.17967686857E+03  0.00000000000E+00 0.  1.
        -15    1    1    2    0    0  0.25200060022E-01 -0.59023341072E+01  0.84323274576E+02  0.84548273472E+02  0.17770000000E+01 0. -1.
         15    1    1    2    0    0 -0.16905622005E+01  0.40290311371E+01 -0.66705907865E+00  0.47637998774E+01  0.17770000000E+01 0.  1.
</event>
<event>
 6    1  0.1097339E-002  0.1826134E+03  0.7546771E-02  0.1068365E+00
        -11   -1    0    0    0    0  0.00000000000E+00  0.00000000000E+00  0.18250000000E+03  0.18250000000E+03  0.00000000000E+00 0.  1.
         11   -1    0    0    0    0 -0.00000000000E+00 -0.00000000000E+00 -0.18250000000E+03  0.18250000000E+03  0.00000000000E+00 0.  1.
        -11    1    1    2    0    0  0.55658021884E+00 -0.10696164328E+00  0.33468123540E+02  0.33472922126E+02  0.00000000000E+00 0.  1.
         11    1    1    2    0    0  0.30728898173E+01  0.43224173403E+01 -0.18230947687E+03  0.18238659847E+03  0.00000000000E+00 0.  1.
        -15    1    1    2    0    0 -0.43264327847E+01 -0.46990879765E+01  0.81114354654E+02  0.81384861666E+02  0.17770000000E+01 0.  1.
         15    1    1    2    0    0  0.69696274858E+00  0.48363227945E+00  0.67726998675E+02  0.67755617743E+02  0.17770000000E+01 0.  1.
</event>
<event>
 6    1  0.1097339E-002  0.1833084E+03  0.7546771E-02  0.1067813E+00
        -11   -1    0    0    0    0  0.00000000000E+00  0.00000000000E+00  0.18250000000E+03  0.18250000000E+03  0.00000000000E+00 0. -1.
         11   -1    0    0    0    0 -0.00000000000E+00 -0.00000000000E+00 -0.18250000000E+03  0.18250000000E+03  0.00000000000E+00 0.  1.
        -11    1    1    2    0    0 -0.12946287741E+01 -0.18453184371E+01  0.30432089194E+02  0.30515460287E+02  0.00000000000E+00 0. -1.
         11    1    1    2    0    0  0.28974650095E+01  0.67920216215E+00 -0.18166723147E+03  0.18169160577E+03  0.00000000000E+00 0.  1.
        -15    1    1    2    0    0 -0.80609671570E+01  0.28176701805E+01  0.13317030432E+03  0.13345563360E+03  0.17770000000E+01 0. -1.
         15    1    1    2    0    0  0.64581309216E+01 -0.16515539056E+01  0.18064837950E+02  0.19337300341E+02  0.17770000000E+01 0.  1.
</event>
<event>
 6    1  0.1097339E-002  0.1840306E+03  0.7546771E-02  0.1067243E+00
        -11   -1    0    0    0    0  0.00000000000E+00  0.00000000000E+00  0.18250000000E+03  0.18250000000E+03  0.00000000000E+00 0.  1.
         11   -1    0    0    0    0 -0.00000000000E+00 -0.00000000000E+00 -0.18250000000E+03  0.18250000000E+03  0.00000000000E+00 0.  1.
        -11    1    1    2    0    0 -0.22969958882E+01  0.19049699081E+00  0.15138933243E+03  0.15140687716E+03  0.00000000000E+00 0.  1.
         11    1    1    2    0    0  0.23577605704E+01 -0.11617683204E+01 -0.18095032810E+03  0.18096941725E+03  0.00000000000E+00 0.  1.
        -15    1    1    2    0    0  0.17368886579E+01  0.32922218745E+01  0.28819121086E+02  0.29112797465E+02  0.17770000000E+01 0. -1.
         15    1    1    2    0    0 -0.17976533402E+01 -0.23209505449E+01  0.74187458248E+00  0.35109081246E+01  0.17770000000E+01 0.  1.
</event>
<event>
 6    1  0.1097339E-002  0.1897277E+03  0.7546771E-02  0.1062843E+00
        -11   -1    0    0    0    0  0.00000000000E+00  0.00000000000E+00  0.18250000000E+03  0.18250000000E+03  0.00000000000E+00 0. -1.
         11   -1    0    0    0    0 -0.00000000000E+00 -0.00000000000E+00 -0.18250000000E+03  0.18250000000E+03  0.00000000000E+00 0.  1.
        -11    1    1    2    0    0 -0.11148227161E+02 -0.20754179587E+01  0.17490507179E+03  0.17527228665E+03  0.00000000000E+00 0. -1.
         11    1    1    2    0    0 -0.39772621609E+01 -0.19629741924E+01 -0.14506510839E+03  0.14513289618E+03  0.00000000000E+00 0.  1.
        -15    1    1    2    0    0  0.87392909809E+00  0.33458531075E+01 -0.29964489359E+02  0.30215672037E+02  0.17770000000E+01 0. -1.
         15    1    1    2    0    0  0.14251560224E+02  0.69253904372E+00  0.12452595787E+00  0.14379145137E+02  0.17770000000E+01 0. -1.
</event>
<event>
 6    1  0.1097339E-002  0.1897221E+03  0.7546771E-02  0.1062847E+00
        -11   -1    0    0    0    0  0.00000000000E+00  0.00000000000E+00  0.18250000000E+03  0.18250000000E+03  0.00000000000E+00 0. -1.
         11   -1    0    0    0    0 -0.00000000000E+00 -0.00000000000E+00 -0.18250000000E+03  0.18250000000E+03  0.00000000000E+00 0. -1.
        -11    1    1    2    0    0 -0.22418755449E+01  0.93628892323E+00  0.15829369331E+03  0.15831233681E+03  0.00000000000E+00 0. -1.
         11    1    1    2    0    0 -0.82954711957E+01 -0.28260032526E+01 -0.17505864587E+03  0.17527786692E+03  0.00000000000E+00 0. -1.
        -15    1    1    2    0    0  0.27647722881E+01  0.19434052979E+00  0.21655195400E+02  0.21904039601E+02  0.17770000000E+01 0. -1.
         15    1    1    2    0    0  0.77725744525E+01  0.16953737996E+01 -0.48902428393E+01  0.95057566752E+01  0.17770000000E+01 0. -1.
</event>
<event>
 6    1  0.1097339E-002  0.1964446E+03  0.7546771E-02  0.1057867E+00
        -11   -1    0    0    0    0  0.00000000000E+00  0.00000000000E+00  0.18250000000E+03  0.18250000000E+03  0.00000000000E+00 0.  1.
         11   -1    0    0    0    0 -0.00000000000E+00 -0.00000000000E+00 -0.18250000000E+03  0.18250000000E+03  0.00000000000E+00 0. -1.
        -11    1    1    2    0    0  0.14049619078E+01 -0.25582226462E+01  0.15086344610E+03  0.15089167569E+03  0.00000000000E+00 0.  1.
         11    1    1    2    0    0 -0.72763509868E+01 -0.19254449103E+02 -0.16729390445E+03  0.16855541985E+03  0.00000000000E+00 0. -1.
        -15    1    1    2    0    0 -0.81645907665E+00  0.61315279020E+00  0.22379145518E+02  0.22472793437E+02  0.17770000000E+01 0. -1.
         15    1    1    2    0    0  0.66878481557E+01  0.21199518959E+02 -0.59486871710E+01  0.23080111029E+02  0.17770000000E+01 0.  1.
</event>
<event>
 6    1  0.1097339E-002  0.1909671E+03  0.7546771E-02  0.1061908E+00
        -11   -1    0    0    0    0  0.00000000000E+00  0.00000000000E+00  0.18250000000E+03  0.18250000000E+03  0.00000000000E+00 0. -1.
         11   -1    0    0    0    0 -0.00000000000E+00 -0.00000000000E+00 -0.18250000000E+03  0.18250000000E+03  0.00000000000E+00 0.  1.
        -11    1    1    2    0    0 -0.50361170005E+01  0.86203259536E+01  0.13659556434E+03  0.13695992367E+03  0.00000000000E+00 0. -1.
         11    1    1    2    0    0  0.13033248995E+02  0.81129024480E+01 -0.17335449935E+03  0.17403294864E+03  0.00000000000E+00 0.  1.
        -15    1    1    2    0    0 -0.14557912024E+02 -0.17700083502E+02  0.40214836391E+02  0.46320800440E+02  0.17770000000E+01 0.  1.
         15    1    1    2    0    0  0.65607800294E+01  0.96685510076E+00 -0.34559013782E+01  0.76863272579E+01  0.17770000000E+01 0. -1.
</event>
<event>
 6    1  0.1097339E-002  0.1827735E+03  0.7546771E-02  0.1068237E+00
        -11   -1    0    0    0    0  0.00000000000E+00  0.00000000000E+00  0.18250000000E+03  0.18250000000E+03  0.00000000000E+00 0.  1.
         11   -1    0    0    0    0 -0.00000000000E+00 -0.00000000000E+00 -0.18250000000E+03  0.18250000000E+03  0.00000000000E+00 0.  1.
        -11    1    1    2    0    0  0.18744813699E+01 -0.93461844225E+00  0.11496974544E+03  0.11498882363E+03  0.00000000000E+00 0.  1.
         11    1    1    2    0    0  0.19488256270E+01  0.52789934058E+01 -0.18213958778E+03  0.18222649404E+03  0.00000000000E+00 0.  1.
        -15    1    1    2    0    0 -0.10364119554E+01  0.13138743305E+01  0.23412098226E+02  0.23538999295E+02  0.17770000000E+01 0. -1.
         15    1    1    2    0    0 -0.27868950416E+01 -0.56582492940E+01  0.43757744112E+02  0.44245683041E+02  0.17770000000E+01 0.  1.
</event>
<event>
 6    1  0.1097339E-002  0.1942334E+03  0.7546771E-02  0.1059481E+00
        -11   -1    0    0    0    0  0.00000000000E+00  0.00000000000E+00  0.18250000000E+03  0.18250000000E+03  0.00000000000E+00 0.  1.
         11   -1    0    0    0    0 -0.00000000000E+00 -0.00000000000E+00 -0.18250000000E+03  0.18250000000E+03  0.00000000000E+00 0.  1.
        -11    1    1    2    0    0  0.11339422683E+01 -0.63250962780E+00  0.32134664764E+02  0.32160885762E+02  0.00000000000E+00 0.  1.
         11    1    1    2    0    0 -0.83675862208E+01 -0.56444609443E+01 -0.17046800333E+03  0.17076655585E+03  0.00000000000E+00 0.  1.
        -15    1    1    2    0    0 -0.52970527442E+01  0.99437627709E+01  0.14625434788E+03  0.14669842940E+03  0.17770000000E+01 0.  1.
         15    1    1    2    0    0  0.12530696697E+02 -0.36667921988E+01 -0.79210093135E+01  0.15374128993E+02  0.17770000000E+01 0. -1.
</event>
<event>
 6    1  0.1097339E-002  0.1826982E+03  0.7546771E-02  0.1068297E+00
        -11   -1    0    0    0    0  0.00000000000E+00  0.00000000000E+00  0.18250000000E+03  0.18250000000E+03  0.00000000000E+00 0. -1.
         11   -1    0    0    0    0 -0.00000000000E+00 -0.00000000000E+00 -0.18250000000E+03  0.18250000000E+03  0.00000000000E+00 0. -1.
        -11    1    1    2    0    0 -0.19988504674E+01 -0.12229179980E+01  0.77814813578E+02  0.77850087628E+02  0.00000000000E+00 0. -1.
         11    1    1    2    0    0  0.11625251172E+01 -0.59544527899E+01 -0.18220078171E+03  0.18230176036E+03  0.00000000000E+00 0. -1.
        -15    1    1    2    0    0  0.20508833860E+01  0.39020638380E+01  0.80723814448E+02  0.80863614641E+02  0.17770000000E+01 0. -1.
         15    1    1    2    0    0 -0.12145580358E+01  0.32753069499E+01  0.23662153688E+02  0.23984537372E+02  0.17770000000E+01 0.  1.
</event>
<event>
 6    1  0.1097339E-002  0.1854821E+03  0.7546771E-02  0.1066106E+00
        -11   -1    0    0    0    0  0.00000000000E+00  0.00000000000E+00  0.18250000000E+03  0.18250000000E+03  0.00000000000E+00 0. -1.
         11   -1    0    0    0    0 -0.00000000000E+00 -0.00000000000E+00 -0.18250000000E+03  0.18250000000E+03  0.00000000000E+00 0.  1.
        -11    1    1    2    0    0  0.68917285475E+00  0.63430927015E+00  0.52542830178E+02  0.52551178014E+02  0.00000000000E+00 0. -1.
         11    1    1    2    0    0 -0.40114703881E+01  0.44601824074E+01 -0.17941766665E+03  0.17951792174E+03  0.00000000000E+00 0.  1.
        -15    1    1    2    0    0 -0.55325744399E+01 -0.45982178857E+01  0.19277111069E+01  0.76568130948E+01  0.17770000000E+01 0.  1.
         15    1    1    2    0    0  0.88548719732E+01 -0.49627379192E+00  0.12494712536E+03  0.12527408715E+03  0.17770000000E+01 0. -1.
</event>
<event>
 6    1  0.1097339E-002  0.1902387E+03  0.7546771E-02  0.1062456E+00
        -11   -1    0    0    0    0  0.00000000000E+00  0.00000000000E+00  0.18250000000E+03  0.18250000000E+03  0.00000000000E+00 0.  1.
         11   -1    0    0    0    0 -0.00000000000E+00 -0.00000000000E+00 -0.18250000000E+03  0.18250000000E+03  0.00000000000E+00 0.  1.
        -11    1    1    2    0    0 -0.50150162607E+01 -0.18923186263E+01  0.17467912522E+03  0.17476134597E+03  0.00000000000E+00 0.  1.
         11    1    1    2    0    0  0.92570593279E+01  0.26083988203E+01 -0.16482717074E+03  0.16510751983E+03  0.00000000000E+00 0.  1.
        -15    1    1    2    0    0  0.59543055537E+01 -0.23457898663E+01  0.40072731256E+01  0.77570904098E+01  0.17770000000E+01 0.  1.
         15    1    1    2    0    0 -0.10196348621E+02  0.16297096723E+01 -0.13859227604E+02  0.17374043789E+02  0.17770000000E+01 0. -1.
</event>
<event>
 6    1  0.1097339E-002  0.1877538E+03  0.7546771E-02  0.1064348E+00
        -11   -1    0    0    0    0  0.00000000000E+00  0.00000000000E+00  0.18250000000E+03  0.18250000000E+03  0.00000000000E+00 0. -1.
         11   -1    0    0    0    0 -0.00000000000E+00 -0.00000000000E+00 -0.18250000000E+03  0.18250000000E+03  0.00000000000E+00 0. -1.
        -11    1    1    2    0    0 -0.17795003516E+01 -0.49075808680E-01  0.11996001311E+03  0.11997322108E+03  0.00000000000E+00 0. -1.
         11    1    1    2    0    0 -0.46788629378E+01 -0.10112158147E+02 -0.17689567766E+03  0.17724623628E+03  0.00000000000E+00 0. -1.
        -15    1    1    2    0    0 -0.65993401250E+00 -0.12066743916E+01  0.53858252329E+02  0.53905107818E+02  0.17770000000E+01 0. -1.
         15    1    1    2    0    0  0.71182973019E+01  0.11367908347E+02  0.30774122186E+01  0.13875434827E+02  0.17770000000E+01 0.  1.
</event>
<event>
 6    1  0.1097339E-002  0.1839224E+03  0.7546771E-02  0.1067328E+00
        -11   -1    0    0    0    0  0.00000000000E+00  0.00000000000E+00  0.18250000000E+03  0.18250000000E+03  0.00000000000E+00 0.  1.
         11   -1    0    0    0    0 -0.00000000000E+00 -0.00000000000E+00 -0.18250000000E+03  0.18250000000E+03  0.00000000000E+00 0. -1.
        -11    1    1    2    0    0  0.11051134100E+01 -0.26275621551E+01  0.12552109757E+03  0.12555345991E+03  0.00000000000E+00 0.  1.
         11    1    1    2    0    0  0.15867293066E+01  0.46186991752E+01 -0.18101170506E+03  0.18107757304E+03  0.00000000000E+00 0. -1.
        -15    1    1    2    0    0 -0.85037524448E+00 -0.79917211756E+01  0.46713423913E+02  0.47433031192E+02  0.17770000000E+01 0.  1.
         15    1    1    2    0    0 -0.18414674721E+01  0.60005841555E+01  0.87771835681E+01  0.10935935856E+02  0.17770000000E+01 0.  1.
</event>
<event>
 6    1  0.1097339E-002  0.1826858E+03  0.7546771E-02  0.1068307E+00
        -11   -1    0    0    0    0  0.00000000000E+00  0.00000000000E+00  0.18250000000E+03  0.18250000000E+03  0.00000000000E+00 0.  1.
         11   -1    0    0    0    0 -0.00000000000E+00 -0.00000000000E+00 -0.18250000000E+03  0.18250000000E+03  0.00000000000E+00 0. -1.
        -11    1    1    2    0    0  0.71567224385E+00  0.71925714149E-01  0.37660856285E+02  0.37667724330E+02  0.00000000000E+00 0.  1.
         11    1    1    2    0    0  0.63463952063E+01  0.50643448956E+01 -0.18213334128E+03  0.18231422963E+03  0.00000000000E+00 0. -1.
        -15    1    1    2    0    0 -0.28224832728E+01 -0.45383082926E+00  0.14728519139E+02  0.15108255335E+02  0.17770000000E+01 0. -1.
         15    1    1    2    0    0 -0.42395841774E+01 -0.46824397805E+01  0.12974396585E+03  0.12990979070E+03  0.17770000000E+01 0.  1.
</event>
<event>
 6    1  0.1097339E-002  0.1829635E+03  0.7546771E-02  0.1068086E+00
        -11   -1    0    0    0    0  0.00000000000E+00  0.00000000000E+00  0.18250000000E+03  0.18250000000E+03  0.00000000000E+00 0.  1.
         11   -1    0    0    0    0 -0.00000000000E+00 -0.00000000000E+00 -0.18250000000E+03  0.18250000000E+03  0.00000000000E+00 0.  1.
        -11    1    1    2    0    0 -0.18926039384E+01  0.29071291416E+00  0.13341459590E+03  0.13342833606E+03  0.00000000000E+00 0.  1.
         11    1    1    2    0    0  0.15300947968E+01 -0.23253785891E+01 -0.18201525383E+03  0.18203653809E+03  0.00000000000E+00 0.  1.
        -15    1    1    2    0    0 -0.24432855159E+01  0.47747049151E+00  0.56216157198E+01  0.63998370669E+01  0.17770000000E+01 0. -1.
         15    1    1    2    0    0  0.28057946576E+01  0.15571951834E+01  0.42979042204E+02  0.43135288782E+02  0.17770000000E+01 0.  1.
</event>
<event>
 6    1  0.1097339E-002  0.1838715E+03  0.7546771E-02  0.1067368E+00
        -11   -1    0    0    0    0  0.00000000000E+00  0.00000000000E+00  0.18250000000E+03  0.18250000000E+03  0.00000000000E+00 0.  1.
         11   -1    0    0    0    0 -0.00000000000E+00 -0.00000000000E+00 -0.18250000000E+03  0.18250000000E+03  0.00000000000E+00 0. -1.
        -11    1    1    2    0    0  0.36231645350E-01  0.24835419266E+01  0.12927455240E+03  0.12929841140E+03  0.00000000000E+00 0.  1.
         11    1    1    2    0    0 -0.23071481239E+01  0.12757425649E+01 -0.18110932453E+03  0.18112851207E+03  0.00000000000E+00 0. -1.
        -15    1    1    2    0    0 -0.42462859488E+01 -0.22730529358E+00  0.39041687222E+01  0.60401055013E+01  0.17770000000E+01 0. -1.
         15    1    1    2    0    0  0.65172024273E+01 -0.35319791978E+01  0.47930603409E+02  0.48532971027E+02  0.17770000000E+01 0. -1.
</event>
<event>
 6    1  0.1097339E-002  0.1849562E+03  0.7546771E-02  0.1066516E+00
        -11   -1    0    0    0    0  0.00000000000E+00  0.00000000000E+00  0.18250000000E+03  0.18250000000E+03  0.00000000000E+00 0.  1.
         11   -1    0    0    0    0 -0.00000000000E+00 -0.00000000000E+00 -0.18250000000E+03  0.18250000000E+03  0.00000000000E+00 0.  1.
        -11    1    1    2    0    0  0.63184007558E+01 -0.75970026400E+00  0.17993131514E+03  0.18004382106E+03  0.00000000000E+00 0.  1.
         11    1    1    2    0    0 -0.28015289910E+01 -0.34805033739E+01 -0.16775801171E+03  0.16781749898E+03  0.00000000000E+00 0.  1.
        -15    1    1    2    0    0  0.11653192186E+01 -0.44103827048E+00  0.92162990032E+00  0.23578834387E+01  0.17770000000E+01 0.  1.
         15    1    1    2    0    0 -0.46821909834E+01  0.46812419084E+01 -0.13094933327E+02  0.14780796530E+02  0.17770000000E+01 0. -1.
</event>
<event>
 6    1  0.1097339E-002  0.1837969E+03  0.7546771E-02  0.1067427E+00
        -11   -1    0    0    0    0  0.00000000000E+00  0.00000000000E+00  0.18250000000E+03  0.18250000000E+03  0.00000000000E+00 0.  1.
         11   -1    0    0    0    0 -0.00000000000E+00 -0.00000000000E+00 -0.18250000000E+03  0.18250000000E+03  0.00000000000E+00 0. -1.
        -11    1    1    2    0    0  0.91298683763E+01  0.62159719588E+01  0.10865559711E+03  0.10921552814E+03  0.00000000000E+00 0.  1.
         11    1    1    2    0    0 -0.17840319842E+01  0.27006882869E+01 -0.18117420021E+03  0.18120311065E+03  0.00000000000E+00 0. -1.
        -15    1    1    2    0    0 -0.11546954262E+00 -0.19721527641E+01  0.19850556688E+01  0.33167596760E+01  0.17770000000E+01 0. -1.
         15    1    1    2    0    0 -0.72303668495E+01 -0.69445074815E+01  0.70533547433E+02  0.71264601531E+02  0.17770000000E+01 0.  1.
</event>
<event>
 6    1  0.1097339E-002  0.1829733E+03  0.7546771E-02  0.1068079E+00
        -11   -1    0    0    0    0  0.00000000000E+00  0.00000000000E+00  0.18250000000E+03  0.18250000000E+03  0.00000000000E+00 0.  1.
         11   -1    0    0    0    0 -0.00000000000E+00 -0.00000000000E+00 -0.18250000000E+03  0.18250000000E+03  0.00000000000E+00 0.  1.
        -11    1    1    2    0    0  0.13815705681E+01  0.15805592093E+01  0.14616957749E+03  0.14618465135E+03  0.00000000000E+00 0.  1.
         11    1    1    2    0    0 -0.32286077341E+01  0.13421486272E+01 -0.18199313080E+03  0.18202671487E+03  0.00000000000E+00 0.  1.
        -15    1    1    2    0    0 -0.79990004295E+00 -0.41911241645E+01  0.15392456267E+02  0.16071428088E+02  0.17770000000E+01 0. -1.
         15    1    1    2    0    0  0.26469372090E+01  0.12684163281E+01  0.20431097036E+02  0.20717205692E+02  0.17770000000E+01 0.  1.
</event>
<event>
 6    1  0.1097339E-002  0.1840212E+03  0.7546771E-02  0.1067250E+00
        -11   -1    0    0    0    0  0.00000000000E+00  0.00000000000E+00  0.18250000000E+03  0.18250000000E+03  0.00000000000E+00 0. -1.
         11   -1    0    0    0    0 -0.00000000000E+00 -0.00000000000E+00 -0.18250000000E+03  0.18250000000E+03  0.00000000000E+00 0.  1.
        -11    1    1    2    0    0  0.40029599906E+01 -0.87222252314E+00  0.18093245941E+03  0.18097883669E+03  0.00000000000E+00 0. -1.
         11    1    1    2    0    0 -0.33854954825E+01 -0.29005400019E+01 -0.14386117870E+03  0.14393023813E+03  0.00000000000E+00 0.  1.
        -15    1    1    2    0    0  0.47643335471E+01  0.16975527187E+01 -0.31246654786E+02  0.31703181602E+02  0.17770000000E+01 0. -1.
         15    1    1    2    0    0 -0.53817980552E+01  0.20752098063E+01 -0.58246259316E+01  0.83877435756E+01  0.17770000000E+01 0. -1.
</event>
<event>
 6    1  0.1097339E-002  0.1826378E+03  0.7546771E-02  0.1068345E+00
        -11   -1    0    0    0    0  0.00000000000E+00  0.00000000000E+00  0.18250000000E+03  0.18250000000E+03  0.00000000000E+00 0.  1.
         11   -1    0    0    0    0 -0.00000000000E+00 -0.00000000000E+00 -0.18250000000E+03  0.18250000000E+03  0.00000000000E+00 0.  1.
        -11    1    1    2    0    0 -0.20020868142E+01  0.19877133570E+00  0.40919258606E+02  0.40968690320E+02  0.00000000000E+00 0.  1.
         11    1    1    2    0    0  0.21629672185E+01 -0.30102207657E+01 -0.18232457060E+03  0.18236224637E+03  0.00000000000E+00 0.  1.
        -15    1    1    2    0    0 -0.14725123787E+01  0.21716987851E+01  0.12977147793E+03  0.12981016440E+03  0.17770000000E+01 0.  1.
         15    1    1    2    0    0  0.13116319743E+01  0.63975064489E+00  0.11633834067E+02  0.11858898912E+02  0.17770000000E+01 0. -1.
</event>
<event>
 6    1  0.1097339E-002  0.1829195E+03  0.7546771E-02  0.1068121E+00
        -11   -1    0    0    0    0  0.00000000000E+00  0.00000000000E+00  0.18250000000E+03  0.18250000000E+03  0.00000000000E+00 0. -1.
         11   -1    0    0    0    0 -0.00000000000E+00 -0.00000000000E+00 -0.18250000000E+03  0.18250000000E+03  0.00000000000E+00 0.  1.
        -11    1    1    2    0    0  0.25674576329E+00 -0.14231744256E+02  0.18152325491E+03  0.18208047819E+03  0.00000000000E+00 0. -1.
         11    1    1    2    0    0 -0.16137586470E+01  0.72313037125E+01 -0.37291809755E+02  0.38020718630E+02  0.00000000000E+00 0.  1.
        -15    1    1    2    0    0  0.55344080919E+01  0.47008893346E+01 -0.52889470305E+02  0.53415183531E+02  0.17770000000E+01 0. -1.
         15    1    1    2    0    0 -0.41773952083E+01  0.22995512091E+01 -0.91341974849E+02  0.91483619653E+02  0.17770000000E+01 0.  1.
</event>
<event>
 6    1  0.1097339E-002  0.1827910E+03  0.7546771E-02  0.1068223E+00
        -11   -1    0    0    0    0  0.00000000000E+00  0.00000000000E+00  0.18250000000E+03  0.18250000000E+03  0.00000000000E+00 0. -1.
         11   -1    0    0    0    0 -0.00000000000E+00 -0.00000000000E+00 -0.18250000000E+03  0.18250000000E+03  0.00000000000E+00 0.  1.
        -11    1    1    2    0    0 -0.17969782700E+01  0.21167577582E+01  0.18218781184E+03  0.18220896953E+03  0.00000000000E+00 0. -1.
         11    1    1    2    0    0 -0.21531555536E+01 -0.22847433899E+01 -0.84730273332E+02  0.84788415188E+02  0.00000000000E+00 0.  1.
        -15    1    1    2    0    0  0.34495630363E+01  0.30418508306E+01 -0.83029208590E+02  0.83175474448E+02  0.17770000000E+01 0.  1.
         15    1    1    2    0    0  0.50057078727E+00 -0.28738651989E+01 -0.14428329914E+02  0.14827140837E+02  0.17770000000E+01 0. -1.
</event>
<event>
 6    1  0.1097339E-002  0.1863767E+03  0.7546771E-02  0.1065410E+00
        -11   -1    0    0    0    0  0.00000000000E+00  0.00000000000E+00  0.18250000000E+03  0.18250000000E+03  0.00000000000E+00 0.  1.
         11   -1    0    0    0    0 -0.00000000000E+00 -0.00000000000E+00 -0.18250000000E+03  0.18250000000E+03  0.00000000000E+00 0.  1.
        -11    1    1    2    0    0 -0.34274765260E+01 -0.92958306311E+00  0.13979182436E+03  0.13983692602E+03  0.00000000000E+00 0.  1.
         11    1    1    2    0    0  0.19748256053E+00 -0.57614400210E+01 -0.17853026477E+03  0.17862331491E+03  0.00000000000E+00 0.  1.
        -15    1    1    2    0    0  0.73654723887E+01  0.37647924762E+01  0.40114927261E+02  0.40997426310E+02  0.17770000000E+01 0.  1.
         15    1    1    2    0    0 -0.41354784233E+01  0.29262306079E+01 -0.13764868466E+01  0.55423327578E+01  0.17770000000E+01 0. -1.
</event>
<event>
 6    1  0.1097339E-002  0.1835726E+03  0.7546771E-02  0.1067604E+00
        -11   -1    0    0    0    0  0.00000000000E+00  0.00000000000E+00  0.18250000000E+03  0.18250000000E+03  0.00000000000E+00 0. -1.
         11   -1    0    0    0    0 -0.00000000000E+00 -0.00000000000E+00 -0.18250000000E+03  0.18250000000E+03  0.00000000000E+00 0. -1.
        -11    1    1    2    0    0 -0.10550357512E+01 -0.13910564622E+02  0.91631150829E+02  0.92687025580E+02  0.00000000000E+00 0. -1.
         11    1    1    2    0    0 -0.29778769230E+01  0.87545483854E+01 -0.18119157848E+03  0.18142739038E+03  0.00000000000E+00 0. -1.
        -15    1    1    2    0    0  0.58034827032E+01  0.37294860889E+01  0.86036168391E+02  0.86330582520E+02  0.17770000000E+01 0. -1.
         15    1    1    2    0    0 -0.17705700290E+01  0.14265301476E+01  0.35242592608E+01  0.45550015177E+01  0.17770000000E+01 0.  1.
</event>
<event>
 6    1  0.1097339E-002  0.1842893E+03  0.7546771E-02  0.1067039E+00
        -11   -1    0    0    0    0  0.00000000000E+00  0.00000000000E+00  0.18250000000E+03  0.18250000000E+03  0.00000000000E+00 0. -1.
         11   -1    0    0    0    0 -0.00000000000E+00 -0.00000000000E+00 -0.18250000000E+03  0.18250000000E+03  0.00000000000E+00 0. -1.
        -11    1    1    2    0    0 -0.95379588298E+00  0.27107453953E+01  0.38207327206E+02  0.38315241346E+02  0.00000000000E+00 0. -1.
         11    1    1    2    0    0  0.14490159217E+01 -0.43472949413E+01 -0.18065256309E+03  0.18071067254E+03  0.00000000000E+00 0. -1.
        -15    1    1    2    0    0  0.74273122228E+01  0.68626978845E-01  0.13377422854E+03  0.13399205807E+03  0.17770000000E+01 0. -1.
         15    1    1    2    0    0 -0.79225322615E+01  0.15679225672E+01  0.86710073427E+01  0.11982028040E+02  0.17770000000E+01 0.  1.
</event>
<event>
 6    1  0.1097339E-002  0.1836271E+03  0.7546771E-02  0.1067561E+00
        -11   -1    0    0    0    0  0.00000000000E+00  0.00000000000E+00  0.18250000000E+03  0.18250000000E+03  0.00000000000E+00 0. -1.
         11   -1    0    0    0    0 -0.00000000000E+00 -0.00000000000E+00 -0.18250000000E+03  0.18250000000E+03  0.00000000000E+00 0. -1.
        -11    1    1    2    0    0 -0.15513952102E+01  0.70775000718E+00  0.11736087726E+03  0.11737326462E+03  0.00000000000E+00 0. -1.
         11    1    1    2    0    0 -0.30923755541E+01 -0.43228140005E+01 -0.18129505370E+03  0.18137294728E+03  0.00000000000E+00 0. -1.
        -15    1    1    2    0    0  0.11795493355E+01  0.26197396734E+01  0.61421430839E+02  0.61514260688E+02  0.17770000000E+01 0. -1.
         15    1    1    2    0    0  0.34642214288E+01  0.99532431997E+00  0.25127456088E+01  0.47395274136E+01  0.17770000000E+01 0.  1.
</event>
<event>
 6    1  0.1097339E-002  0.1864143E+03  0.7546771E-02  0.1065381E+00
        -11   -1    0    0    0    0  0.00000000000E+00  0.00000000000E+00  0.18250000000E+03  0.18250000000E+03  0.00000000000E+00 0. -1.
         11   -1    0    0    0    0 -0.00000000000E+00 -0.00000000000E+00 -0.18250000000E+03  0.18250000000E+03  0.00000000000E+00 0. -1.
        -11    1    1    2    0    0  0.25440075503E+01 -0.19086458004E+01  0.17855733739E+03  0.17858565911E+03  0.00000000000E+00 0. -1.
         11    1    1    2    0    0  0.16302900671E+01 -0.35989027411E+01 -0.17198700021E+03  0.17203237541E+03  0.00000000000E+00 0. -1.
        -15    1    1    2    0    0 -0.34362033494E+01  0.53673355017E+01  0.89041137100E+00  0.66758029671E+01  0.17770000000E+01 0.  1.
         15    1    1    2    0    0 -0.73809426799E+00  0.14021303979E+00 -0.74607485512E+01  0.77061625203E+01  0.17770000000E+01 0. -1.
</event>
<event>
 6    1  0.1097339E-002  0.1851280E+03  0.7546771E-02  0.1066382E+00
        -11   -1    0    0    0    0  0.00000000000E+00  0.00000000000E+00  0.18250000000E+03  0.18250000000E+03  0.00000000000E+00 0.  1.
         11   -1    0    0    0    0 -0.00000000000E+00 -0.00000000000E+00 -0.18250000000E+03  0.18250000000E+03  0.00000000000E+00 0.  1.
        -11    1    1    2    0    0 -0.67454630209E+00  0.43241886036E+01  0.17981873338E+03  0.17987198363E+03  0.00000000000E+00 0.  1.
         11    1    1    2    0    0  0.59141219298E+01 -0.32289515734E+01 -0.17378513167E+03  0.17391571222E+03  0.00000000000E+00 0.  1.
        -15    1    1    2    0    0  0.12439013106E+00 -0.29985701896E+01 -0.22510244213E+01  0.41511126258E+01  0.17770000000E+01 0. -1.
         15    1    1    2    0    0 -0.53639657587E+01  0.19033331594E+01 -0.37825772902E+01  0.70611915236E+01  0.17770000000E+01 0.  1.
</event>
<event>
 6    1  0.1097339E-002  0.1828881E+03  0.7546771E-02  0.1068146E+00
        -11   -1    0    0    0    0  0.00000000000E+00  0.00000000000E+00  0.18250000000E+03  0.18250000000E+03  0.00000000000E+00 0.  1.
         11   -1    0    0    0    0 -0.00000000000E+00 -0.00000000000E+00 -0.18250000000E+03  0.18250000000E+03  0.00000000000E+00 0.  1.
        -11    1    1    2    0    0  0.18733134029E+01  0.49516591643E+01  0.18203494578E+03  0.18211191536E+03  0.00000000000E+00 0.  1.
         11    1    1    2    0    0  0.21939172981E+01 -0.12658379094E+01 -0.75301354646E+02  0.75343942227E+02  0.00000000000E+00 0.  1.
        -15    1    1    2    0    0  0.91889952370E+00 -0.19846756259E+01 -0.86908122852E+02  0.86953797274E+02  0.17770000000E+01 0.  1.
         15    1    1    2    0    0 -0.49861302246E+01 -0.17011456290E+01 -0.19825468285E+02  0.20590345135E+02  0.17770000000E+01 0. -1.
</event>
<event>
 6    1  0.1097339E-002  0.1899105E+03  0.7546771E-02  0.1062704E+00
        -11   -1    0    0    0    0  0.00000000000E+00  0.00000000000E+00  0.18250000000E+03  0.18250000000E+03  0.00000000000E+00 0. -1.
         11   -1    0    0    0    0 -0.00000000000E+00 -0.00000000000E+00 -0.18250000000E+03  0.18250000000E+03  0.00000000000E+00 0. -1.
        -11    1    1    2    0    0  0.10610279641E+02  0.67568617529E+01  0.17463704436E+03  0.17508949277E+03  0.00000000000E+00 0. -1.
         11    1    1    2    0    0  0.44004925776E+01 -0.20979502336E+01 -0.16288647205E+03  0.16295940755E+03  0.00000000000E+00 0. -1.
        -15    1    1    2    0    0 -0.12162462485E+02 -0.60507392385E+01 -0.16193307157E+02  0.21211267400E+02  0.17770000000E+01 0.  1.
         15    1    1    2    0    0 -0.28483097333E+01  0.13918277191E+01  0.44427348436E+01  0.57398322822E+01  0.17770000000E+01 0. -1.
</event>
<event>
 6    1  0.1097339E-002  0.1860469E+03  0.7546771E-02  0.1065666E+00
        -11   -1    0    0    0    0  0.00000000000E+00  0.00000000000E+00  0.18250000000E+03  0.18250000000E+03  0.00000000000E+00 0. -1.
         11   -1    0    0    0    0 -0.00000000000E+00 -0.00000000000E+00 -0.18250000000E+03  0.18250000000E+03  0.00000000000E+00 0.  1.
        -11    1    1    2    0    0 -0.81820186452E+00 -0.23229589399E+01  0.15290283866E+03  0.15292267217E+03  0.00000000000E+00 0. -1.
         11    1    1    2    0    0  0.64016130006E+01 -0.11175436570E+02 -0.17848905386E+03  0.17895310385E+03  0.00000000000E+00 0.  1.
        -15    1    1    2    0    0 -0.65219367413E+01 -0.53365373424E+00  0.69530240804E+01  0.97119883663E+01  0.17770000000E+01 0.  1.
         15    1    1    2    0    0  0.93852560515E+00  0.14032049244E+02  0.18633191111E+02  0.23412235610E+02  0.17770000000E+01 0. -1.
</event>
<event>
 6    1  0.1097339E-002  0.1878753E+03  0.7546771E-02  0.1064255E+00
        -11   -1    0    0    0    0  0.00000000000E+00  0.00000000000E+00  0.18250000000E+03  0.18250000000E+03  0.00000000000E+00 0. -1.
         11   -1    0    0    0    0 -0.00000000000E+00 -0.00000000000E+00 -0.18250000000E+03  0.18250000000E+03  0.00000000000E+00 0. -1.
        -11    1    1    2    0    0 -0.15381100325E+01 -0.24044590901E+01  0.15928380784E+03  0.15930938028E+03  0.00000000000E+00 0. -1.
         11    1    1    2    0    0 -0.25961260570E+00  0.31589090945E+01 -0.17709632896E+03  0.17712469008E+03  0.00000000000E+00 0. -1.
        -15    1    1    2    0    0 -0.43863408465E+01  0.68429543008E+01  0.16558569302E+02  0.18531323642E+02  0.17770000000E+01 0.  1.
         15    1    1    2    0    0  0.61840634847E+01 -0.75974043052E+01  0.12539518211E+01  0.10034605998E+02  0.17770000000E+01 0. -1.
</event>
<event>
 6    1  0.1097339E-002  0.1832190E+03  0.7546771E-02  0.1067884E+00
        -11   -1    0    0    0    0  0.00000000000E+00  0.00000000000E+00  0.18250000000E+03  0.18250000000E+03  0.00000000000E+00 0.  1.
         11   -1    0    0    0    0 -0.00000000000E+00 -0.00000000000E+00 -0.18250000000E+03  0.18250000000E+03  0.00000000000E+00 0.  1.
        -11    1    1    2    0    0  0.10997974472E+01  0.65903292090E+00  0.87006658694E+02  0.87016105037E+02  0.00000000000E+00 0.  1.
         11    1    1    2    0    0 -0.36169152819E+01  0.34645057884E+01 -0.18171199665E+03  0.18178100727E+03  0.00000000000E+00 0.  1.
        -15    1    1    2    0    0 -0.95256420541E+00 -0.31244033515E+01  0.89715339122E+02  0.89792366478E+02  0.17770000000E+01 0. -1.
         15    1    1    2    0    0  0.34696820401E+01 -0.99913535776E+00  0.49899988344E+01  0.64105212183E+01  0.17770000000E+01 0.  1.
</event>
<event>
 6    1  0.1097339E-002  0.1851220E+03  0.7546771E-02  0.1066387E+00
        -11   -1    0    0    0    0  0.00000000000E+00  0.00000000000E+00  0.18250000000E+03  0.18250000000E+03  0.00000000000E+00 0.  1.
         11   -1    0    0    0    0 -0.00000000000E+00 -0.00000000000E+00 -0.18250000000E+03  0.18250000000E+03  0.00000000000E+00 0.  1.
        -11    1    1    2    0    0 -0.10171141839E+02  0.23070973912E+01  0.13257652031E+03  0.13298612169E+03  0.00000000000E+00 0.  1.
         11    1    1    2    0    0  0.27071525347E+01 -0.23382764494E+01 -0.17984242175E+03  0.17987799441E+03  0.00000000000E+00 0.  1.
        -15    1    1    2    0    0  0.31346641015E+01 -0.42011604613E+01  0.45139307023E+02  0.45477363993E+02  0.17770000000E+01 0. -1.
         15    1    1    2    0    0  0.43293252025E+01  0.42323395195E+01  0.21265944212E+01  0.66585199068E+01  0.17770000000E+01 0.  1.
</event>
<event>
 6    1  0.1097339E-002  0.1711462E+03  0.7546771E-02  0.1077870E+00
        -11   -1    0    0    0    0  0.00000000000E+00  0.00000000000E+00  0.18250000000E+03  0.18250000000E+03  0.00000000000E+00 0. -1.
         11   -1    0    0    0    0 -0.00000000000E+00 -0.00000000000E+00 -0.18250000000E+03  0.18250000000E+03  0.00000000000E+00 0. -1.
        -11    1    1    2    0    0 -0.63501771299E+01  0.18873166907E+01  0.17072807093E+03  0.17085655070E+03  0.00000000000E+00 0. -1.
         11    1    1    2    0    0 -0.25954591328E+01 -0.18585432084E+01 -0.17152404643E+03  0.17155374987E+03  0.00000000000E+00 0. -1.
        -15    1    1    2    0    0  0.67771303075E+01 -0.32202720230E+01 -0.90362533039E+01  0.11879025628E+02  0.17770000000E+01 0.  1.
         15    1    1    2    0    0  0.21685059551E+01  0.31914985407E+01  0.98322288030E+01  0.10710673800E+02  0.17770000000E+01 0. -1.
</event>
<event>
 6    1  0.1097339E-002  0.2068830E+03  0.7546771E-02  0.1050549E+00
        -11   -1    0    0    0    0  0.00000000000E+00  0.00000000000E+00  0.18250000000E+03  0.18250000000E+03  0.00000000000E+00 0. -1.
         11   -1    0    0    0    0 -0.00000000000E+00 -0.00000000000E+00 -0.18250000000E+03  0.18250000000E+03  0.00000000000E+00 0.  1.
        -11    1    1    2    0    0  0.51681073597E+00 -0.24116937165E+01  0.14234009905E+03  0.14236146654E+03  0.00000000000E+00 0. -1.
         11    1    1    2    0    0  0.12303019796E+02 -0.14531886528E+02 -0.15696640258E+03  0.15811701857E+03  0.00000000000E+00 0.  1.
        -15    1    1    2    0    0  0.59775753052E+00  0.91327751501E+01  0.36481672911E+02  0.37654150945E+02  0.17770000000E+01 0. -1.
         15    1    1    2    0    0 -0.13417588062E+02  0.78108050948E+01 -0.21855369376E+02  0.26867363942E+02  0.17770000000E+01 0.  1.
</event>
<event>
 6    1  0.1097339E-002  0.1965542E+03  0.7546771E-02  0.1057787E+00
        -11   -1    0    0    0    0  0.00000000000E+00  0.00000000000E+00  0.18250000000E+03  0.18250000000E+03  0.00000000000E+00 0.  1.
         11   -1    0    0    0    0 -0.00000000000E+00 -0.00000000000E+00 -0.18250000000E+03  0.18250000000E+03  0.00000000000E+00 0.  1.
        -11    1    1    2    0    0 -0.94867287315E+00 -0.14728584848E+02  0.71044436865E+02  0.72561306503E+02  0.00000000000E+00 0.  1.
         11    1    1    2    0    0  0.20033307098E+01 -0.84008603712E+01 -0.16822425398E+03  0.16844579964E+03  0.00000000000E+00 0.  1.
        -15    1    1    2    0    0  0.88353006347E+01  0.15016714915E+02  0.10658645604E+03  0.10801571462E+03  0.17770000000E+01 0.  1.
         15    1    1    2    0    0 -0.98899584713E+01  0.81127303044E+01 -0.94066389218E+01  0.15977179237E+02  0.17770000000E+01 0. -1.
</event>
<event>
 6    1  0.1097339E-002  0.1825841E+03  0.7546771E-02  0.1068388E+00
        -11   -1    0    0    0    0  0.00000000000E+00  0.00000000000E+00  0.18250000000E+03  0.18250000000E+03  0.00000000000E+00 0. -1.
         11   -1    0    0    0    0 -0.00000000000E+00 -0.00000000000E+00 -0.18250000000E+03  0.18250000000E+03  0.00000000000E+00 0. -1.
        -11    1    1    2    0    0 -0.41573571622E+01 -0.14945310254E+00  0.18236842160E+03  0.18241586321E+03  0.00000000000E+00 0. -1.
         11    1    1    2    0    0  0.12927363183E+01  0.24077093952E+01 -0.73095428585E+02  0.73146496237E+02  0.00000000000E+00 0. -1.
        -15    1    1    2    0    0 -0.19104566225E+00 -0.52596193985E+00 -0.49582269206E+02  0.49617257915E+02  0.17770000000E+01 0.  1.
         15    1    1    2    0    0  0.30556665061E+01 -0.17322943528E+01 -0.59690723806E+02  0.59820382639E+02  0.17770000000E+01 0.  1.
</event>
<event>
 6    1  0.1097339E-002  0.1827534E+03  0.7546771E-02  0.1068253E+00
        -11   -1    0    0    0    0  0.00000000000E+00  0.00000000000E+00  0.18250000000E+03  0.18250000000E+03  0.00000000000E+00 0. -1.
         11   -1    0    0    0    0 -0.00000000000E+00 -0.00000000000E+00 -0.18250000000E+03  0.18250000000E+03  0.00000000000E+00 0. -1.
        -11    1    1    2    0    0  0.58067679980E+00  0.47097343931E+01  0.93076715152E+02  0.93197605587E+02  0.00000000000E+00 0. -1.
         11    1    1    2    0    0  0.37996853121E+01  0.14469750672E+01 -0.18220128082E+03  0.18224664079E+03  0.00000000000E+00 0. -1.
        -15    1    1    2    0    0 -0.34925332224E+00 -0.18209658378E+01  0.23010160675E+02  0.23153036901E+02  0.17770000000E+01 0.  1.
         15    1    1    2    0    0 -0.40311087896E+01 -0.43357436224E+01  0.66114404998E+02  0.66402716722E+02  0.17770000000E+01 0. -1.
</event>
<event>
 6    1  0.1097339E-002  0.1849616E+03  0.7546771E-02  0.1066512E+00
        -11   -1    0    0    0    0  0.00000000000E+00  0.00000000000E+00  0.18250000000E+03  0.18250000000E+03  0.00000000000E+00 0.  1.
         11   -1    0    0    0    0 -0.00000000000E+00 -0.00000000000E+00 -0.18250000000E+03  0.18250000000E+03  0.00000000000E+00 0.  1.
        -11    1    1    2    0    0  0.66403593605E+01  0.29010485031E+01  0.17989255804E+03  0.18003844838E+03  0.00000000000E+00 0.  1.
         11    1    1    2    0    0 -0.18648543660E+01 -0.40254603934E+01 -0.15669603650E+03  0.15675882708E+03  0.00000000000E+00 0.  1.
        -15    1    1    2    0    0  0.14258706715E+01  0.29679046194E+01 -0.20713632889E+02  0.21048845134E+02  0.17770000000E+01 0. -1.
         15    1    1    2    0    0 -0.62013756660E+01 -0.18434927291E+01 -0.24828886565E+01  0.71538794142E+01  0.17770000000E+01 0. -1.
</event>
<event>
 6    1  0.1097339E-002  0.1844934E+03  0.7546771E-02  0.1066879E+00
        -11   -1    0    0    0    0  0.00000000000E+00  0.00000000000E+00  0.18250000000E+03  0.18250000000E+03  0.00000000000E+00 0. -1.
         11   -1    0    0    0    0 -0.00000000000E+00 -0.00000000000E+00 -0.18250000000E+03  0.18250000000E+03  0.00000000000E+00 0. -1.
        -11    1    1    2    0    0  0.27738971639E+01  0.65317861644E+00  0.16831924173E+03  0.16834336424E+03  0.00000000000E+00 0. -1.
         11    1    1    2    0    0  0.41883796457E+01  0.22656050332E+01 -0.18044380940E+03  0.18050663101E+03  0.00000000000E+00 0. -1.
        -15    1    1    2    0    0 -0.30824974916E+01  0.11307782937E+01  0.83863258960E+01  0.91797952793E+01  0.17770000000E+01 0.  1.
         15    1    1    2    0    0 -0.38797793181E+01 -0.40495619433E+01  0.37382417721E+01  0.69702094686E+01  0.17770000000E+01 0.  1.
</event>
<event>
 6    1  0.1097339E-002  0.1853187E+03  0.7546771E-02  0.1066233E+00
        -11   -1    0    0    0    0  0.00000000000E+00  0.00000000000E+00  0.18250000000E+03  0.18250000000E+03  0.00000000000E+00 0. -1.
         11   -1    0    0    0    0 -0.00000000000E+00 -0.00000000000E+00 -0.18250000000E+03  0.18250000000E+03  0.00000000000E+00 0.  1.
        -11    1    1    2    0    0 -0.67035262096E+01 -0.15485575495E+01  0.17954953573E+03  0.17968130419E+03  0.00000000000E+00 0. -1.
         11    1    1    2    0    0  0.14696611988E+00  0.29635971552E+01 -0.17294077837E+03  0.17296623176E+03  0.00000000000E+00 0.  1.
        -15    1    1    2    0    0  0.13006418731E+01  0.19595204371E+01  0.18599857048E+00  0.29535934205E+01  0.17770000000E+01 0. -1.
         15    1    1    2    0    0  0.52559182166E+01 -0.33745600427E+01 -0.67947559391E+01  0.93988706265E+01  0.17770000000E+01 0.  1.
</event>
<event>
 6    1  0.1097339E-002  0.1675123E+03  0.7546771E-02  0.1081053E+00
        -11   -1    0    0    0    0  0.00000000000E+00  0.00000000000E+00  0.18250000000E+03  0.18250000000E+03  0.00000000000E+00 0. -1.
         11   -1    0    0    0    0 -0.00000000000E+00 -0.00000000000E+00 -0.18250000000E+03  0.18250000000E+03  0.00000000000E+00 0.  1.
        -11    1    1    2    0    0  0.12771988328E+02  0.56870171316E+01  0.16768614240E+03  0.16826796547E+03  0.00000000000E+00 0. -1.
         11    1    1    2    0    0 -0.49139056809E+01  0.17148750386E+01 -0.16685038722E+03  0.16693153981E+03  0.00000000000E+00 0.  1.
        -15    1    1    2    0    0 -0.10986890540E+02  0.80664409299E+01 -0.19359931467E+01  0.13881103396E+02  0.17770000000E+01 0. -1.
         15    1    1    2    0    0  0.31288078938E+01 -0.15468333100E+02  0.11002379700E+01  0.15919391330E+02  0.17770000000E+01 0.  1.
</event>
<event>
 6    1  0.1097339E-002  0.1961384E+03  0.7546771E-02  0.1058089E+00
        -11   -1    0    0    0    0  0.00000000000E+00  0.00000000000E+00  0.18250000000E+03  0.18250000000E+03  0.00000000000E+00 0. -1.
         11   -1    0    0    0    0 -0.00000000000E+00 -0.00000000000E+00 -0.18250000000E+03  0.18250000000E+03  0.00000000000E+00 0. -1.
        -11    1    1    2    0    0 -0.31689734284E+01 -0.75378821515E+00  0.16761388749E+03  0.16764553638E+03  0.00000000000E+00 0. -1.
         11    1    1    2    0    0 -0.28360758968E+00  0.90084320068E+00  0.76602169862E+00  0.12160349419E+01  0.00000000000E+00 0. -1.
        -15    1    1    2    0    0  0.32154342249E+02  0.36522389821E+02 -0.54448280676E+02  0.73044915506E+02  0.17770000000E+01 0.  1.
         15    1    1    2    0    0 -0.28701761231E+02 -0.36669444807E+02 -0.11393162851E+03  0.12309351317E+03  0.17770000000E+01 0. -1.
</event>
<event>
 6    1  0.1097339E-002  0.1828561E+03  0.7546771E-02  0.1068172E+00
        -11   -1    0    0    0    0  0.00000000000E+00  0.00000000000E+00  0.18250000000E+03  0.18250000000E+03  0.00000000000E+00 0. -1.
         11   -1    0    0    0    0 -0.00000000000E+00 -0.00000000000E+00 -0.18250000000E+03  0.18250000000E+03  0.00000000000E+00 0. -1.
        -11    1    1    2    0    0  0.25281722069E+01  0.65952163044E-01  0.18212634342E+03  0.18214390183E+03  0.00000000000E+00 0. -1.
         11    1    1    2    0    0  0.15611204149E+01  0.18825525790E+01 -0.13460497695E+03  0.13462719236E+03  0.00000000000E+00 0. -1.
        -15    1    1    2    0    0  0.10654583208E+01 -0.84055984168E+00 -0.76130508858E+01  0.79346086904E+01  0.17770000000E+01 0.  1.
         15    1    1    2    0    0 -0.51547509426E+01 -0.11079449003E+01 -0.39908315582E+02  0.40294297124E+02  0.17770000000E+01 0. -1.
</event>
<event>
 6    1  0.1097339E-002  0.1845869E+03  0.7546771E-02  0.1066806E+00
        -11   -1    0    0    0    0  0.00000000000E+00  0.00000000000E+00  0.18250000000E+03  0.18250000000E+03  0.00000000000E+00 0.  1.
         11   -1    0    0    0    0 -0.00000000000E+00 -0.00000000000E+00 -0.18250000000E+03  0.18250000000E+03  0.00000000000E+00 0.  1.
        -11    1    1    2    0    0  0.23623408786E+01 -0.25862045364E+01  0.17419320971E+03  0.17422842311E+03  0.00000000000E+00 0.  1.
         11    1    1    2    0    0 -0.15429496585E+01  0.21691119853E+01 -0.18039348410E+03  0.18041312271E+03  0.00000000000E+00 0.  1.
        -15    1    1    2    0    0 -0.29119608822E+01  0.15374578312E+01  0.63708886760E+01  0.73884534433E+01  0.17770000000E+01 0. -1.
         15    1    1    2    0    0  0.20925696621E+01 -0.11203652801E+01 -0.17061428845E+00  0.29700007386E+01  0.17770000000E+01 0.  1.
</event>
<event>
 6    1  0.1208368E-002  0.1864730E+03  0.7546771E-02  0.1065336E+00
        -11   -1    0    0    0    0  0.00000000000E+00  0.00000000000E+00  0.18250000000E+03  0.18250000000E+03  0.00000000000E+00 0. -1.
         11   -1    0    0    0    0 -0.00000000000E+00 -0.00000000000E+00 -0.18250000000E+03  0.18250000000E+03  0.00000000000E+00 0. -1.
        -11    1    1    2    0    0 -0.37708752970E+00 -0.40484563350E+01  0.17848071967E+03  0.17852702733E+03  0.00000000000E+00 0. -1.
         11    1    1    2    0    0  0.24917654974E+01  0.14729149558E+01 -0.81992320118E+02  0.82043396639E+02  0.00000000000E+00 0. -1.
        -15    1    1    2    0    0 -0.10895837852E+01  0.60244978221E+01  0.13438848995E+01  0.65150228286E+01  0.17770000000E+01 0.  1.
         15    1    1    2    0    0 -0.10250941825E+01 -0.34489564429E+01 -0.97832284451E+02  0.97914553201E+02  0.17770000000E+01 0. -1.
</event>
<event>
 6    1  0.1097339E-002  0.1842581E+03  0.7546771E-02  0.1067064E+00
        -11   -1    0    0    0    0  0.00000000000E+00  0.00000000000E+00  0.18250000000E+03  0.18250000000E+03  0.00000000000E+00 0. -1.
         11   -1    0    0    0    0 -0.00000000000E+00 -0.00000000000E+00 -0.18250000000E+03  0.18250000000E+03  0.00000000000E+00 0.  1.
        -11    1    1    2    0    0  0.43880753922E+01  0.22572609464E+01  0.14568611901E+03  0.14576966661E+03  0.00000000000E+00 0. -1.
         11    1    1    2    0    0  0.35073628618E+01  0.27445715350E+01 -0.18068700303E+03  0.18074188040E+03  0.00000000000E+00 0.  1.
        -15    1    1    2    0    0 -0.57724309338E+01 -0.21365967628E+00  0.31193894524E+02  0.31773942058E+02  0.17770000000E+01 0.  1.
         15    1    1    2    0    0 -0.21230073202E+01 -0.47881728051E+01  0.38069895012E+01  0.67145109245E+01  0.17770000000E+01 0. -1.
</event>
<event>
 6    1  0.1097339E-002  0.1831203E+03  0.7546771E-02  0.1067962E+00
        -11   -1    0    0    0    0  0.00000000000E+00  0.00000000000E+00  0.18250000000E+03  0.18250000000E+03  0.00000000000E+00 0. -1.
         11   -1    0    0    0    0 -0.00000000000E+00 -0.00000000000E+00 -0.18250000000E+03  0.18250000000E+03  0.00000000000E+00 0.  1.
        -11    1    1    2    0    0  0.43030093885E+01 -0.53803456861E+01  0.18174918151E+03  0.18187971022E+03  0.00000000000E+00 0. -1.
         11    1    1    2    0    0  0.14999880450E+01 -0.36153595329E+00 -0.11078751460E+03  0.11079825839E+03  0.00000000000E+00 0.  1.
        -15    1    1    2    0    0 -0.26887398435E+01 -0.17783650716E+01 -0.79363582264E+01  0.87484521586E+01  0.17770000000E+01 0. -1.
         15    1    1    2    0    0 -0.31142575901E+01  0.75202467110E+01 -0.63025308689E+02  0.63573579224E+02  0.17770000000E+01 0.  1.
</event>
<event>
 6    1  0.1097339E-002  0.1863138E+03  0.7546771E-02  0.1065459E+00
        -11   -1    0    0    0    0  0.00000000000E+00  0.00000000000E+00  0.18250000000E+03  0.18250000000E+03  0.00000000000E+00 0. -1.
         11   -1    0    0    0    0 -0.00000000000E+00 -0.00000000000E+00 -0.18250000000E+03  0.18250000000E+03  0.00000000000E+00 0.  1.
        -11    1    1    2    0    0 -0.97020035871E+01  0.62039602420E+01  0.17831472622E+03  0.17868620423E+03  0.00000000000E+00 0. -1.
         11    1    1    2    0    0 -0.25246721324E+01 -0.35221594496E+00 -0.77728164944E+02  0.77769953395E+02  0.00000000000E+00 0.  1.
        -15    1    1    2    0    0  0.25323438684E+02 -0.81931700867E+00 -0.76570403919E+02  0.80672996178E+02  0.17770000000E+01 0.  1.
         15    1    1    2    0    0 -0.13096762964E+02 -0.50324272884E+01 -0.24016157355E+02  0.27870846196E+02  0.17770000000E+01 0. -1.
</event>
<event>
 6    1  0.1097339E-002  0.1920493E+03  0.7546771E-02  0.1061098E+00
        -11   -1    0    0    0    0  0.00000000000E+00  0.00000000000E+00  0.18250000000E+03  0.18250000000E+03  0.00000000000E+00 0.  1.
         11   -1    0    0    0    0 -0.00000000000E+00 -0.00000000000E+00 -0.18250000000E+03  0.18250000000E+03  0.00000000000E+00 0.  1.
        -11    1    1    2    0    0  0.74166551354E+01  0.26005121059E+01  0.17277201579E+03  0.17295068336E+03  0.00000000000E+00 0.  1.
         11    1    1    2    0    0 -0.69087768802E+01  0.23465952190E+01 -0.14178739503E+03  0.14197500870E+03  0.00000000000E+00 0.  1.
        -15    1    1    2    0    0 -0.11164339105E+02 -0.76252278206E+01  0.32986396851E+01  0.14029444741E+02  0.17770000000E+01 0. -1.
         15    1    1    2    0    0  0.10656460850E+02  0.26781204957E+01 -0.34283260445E+02  0.36044863198E+02  0.17770000000E+01 0.  1.
</event>
<event>
 6    1  0.1097339E-002  0.1837922E+03  0.7546771E-02  0.1067431E+00
        -11   -1    0    0    0    0  0.00000000000E+00  0.00000000000E+00  0.18250000000E+03  0.18250000000E+03  0.00000000000E+00 0. -1.
         11   -1    0    0    0    0 -0.00000000000E+00 -0.00000000000E+00 -0.18250000000E+03  0.18250000000E+03  0.00000000000E+00 0.  1.
        -11    1    1    2    0    0  0.34565277793E+01  0.21990128040E+01  0.18116153400E+03  0.18120784928E+03  0.00000000000E+00 0. -1.
         11    1    1    2    0    0  0.14657701247E+01 -0.25192321773E+01 -0.16563542584E+03  0.16566106757E+03  0.00000000000E+00 0.  1.
        -15    1    1    2    0    0  0.72986725026E+00  0.19227932810E+01 -0.78227256854E+01  0.82814616073E+01  0.17770000000E+01 0. -1.
         15    1    1    2    0    0 -0.56521651542E+01 -0.16025739078E+01 -0.77033824686E+01  0.98496215419E+01  0.17770000000E+01 0. -1.
</event>
<event>
 6    1  0.1097339E-002  0.1854834E+03  0.7546771E-02  0.1066105E+00
        -11   -1    0    0    0    0  0.00000000000E+00  0.00000000000E+00  0.18250000000E+03  0.18250000000E+03  0.00000000000E+00 0. -1.
         11   -1    0    0    0    0 -0.00000000000E+00 -0.00000000000E+00 -0.18250000000E+03  0.18250000000E+03  0.00000000000E+00 0.  1.
        -11    1    1    2    0    0 -0.59348092537E+01  0.23146181555E+01  0.17940354750E+03  0.17951660724E+03  0.00000000000E+00 0. -1.
         11    1    1    2    0    0  0.60855597526E+01 -0.84650136726E+00 -0.15992728101E+03  0.16004526176E+03  0.00000000000E+00 0.  1.
        -15    1    1    2    0    0 -0.10001155782E+01  0.28655506685E+01  0.15763025213E+01  0.38540978766E+01  0.17770000000E+01 0.  1.
         15    1    1    2    0    0  0.84936507932E+00 -0.43336674568E+01 -0.21052569017E+02  0.21584033124E+02  0.17770000000E+01 0.  1.
</event>
<event>
 6    1  0.1097339E-002  0.1719849E+03  0.7546771E-02  0.1077147E+00
        -11   -1    0    0    0    0  0.00000000000E+00  0.00000000000E+00  0.18250000000E+03  0.18250000000E+03  0.00000000000E+00 0. -1.
         11   -1    0    0    0    0 -0.00000000000E+00 -0.00000000000E+00 -0.18250000000E+03  0.18250000000E+03  0.00000000000E+00 0. -1.
        -11    1    1    2    0    0 -0.52414610376E+01 -0.22378950451E+01  0.17349781119E+03  0.17359139258E+03  0.00000000000E+00 0. -1.
         11    1    1    2    0    0  0.32101551017E+01 -0.27308019811E+01 -0.17038235777E+03  0.17043447484E+03  0.00000000000E+00 0. -1.
        -15    1    1    2    0    0  0.48925621410E+01 -0.10632894744E+01 -0.99352034922E+01  0.11266487751E+02  0.17770000000E+01 0.  1.
         15    1    1    2    0    0 -0.28612562051E+01  0.60319865006E+01  0.68197500659E+01  0.97076448316E+01  0.17770000000E+01 0. -1.
</event>
<event>
 6    1  0.1097339E-002  0.1844808E+03  0.7546771E-02  0.1066889E+00
        -11   -1    0    0    0    0  0.00000000000E+00  0.00000000000E+00  0.18250000000E+03  0.18250000000E+03  0.00000000000E+00 0.  1.
         11   -1    0    0    0    0 -0.00000000000E+00 -0.00000000000E+00 -0.18250000000E+03  0.18250000000E+03  0.00000000000E+00 0.  1.
        -11    1    1    2    0    0  0.17901650954E+01 -0.51409979469E+01  0.18043708084E+03  0.18051918096E+03  0.00000000000E+00 0.  1.
         11    1    1    2    0    0  0.13856862934E+01  0.16832909893E+01 -0.99722761216E+02  0.99746592421E+02  0.00000000000E+00 0.  1.
        -15    1    1    2    0    0 -0.11921997109E+02  0.37055364184E+00 -0.20501204056E+02  0.23785046181E+02  0.17770000000E+01 0.  1.
         15    1    1    2    0    0  0.87461457206E+01  0.30871533158E+01 -0.60213115570E+02  0.60949180439E+02  0.17770000000E+01 0. -1.
</event>
<event>
 6    1  0.1097339E-002  0.1844846E+03  0.7546771E-02  0.1066886E+00
        -11   -1    0    0    0    0  0.00000000000E+00  0.00000000000E+00  0.18250000000E+03  0.18250000000E+03  0.00000000000E+00 0. -1.
         11   -1    0    0    0    0 -0.00000000000E+00 -0.00000000000E+00 -0.18250000000E+03  0.18250000000E+03  0.00000000000E+00 0.  1.
        -11    1    1    2    0    0  0.37921948759E+01  0.12470698204E+01  0.15888208192E+03  0.15893222417E+03  0.00000000000E+00 0. -1.
         11    1    1    2    0    0  0.17456958990E+01 -0.75451739404E+01 -0.18034917991E+03  0.18051538382E+03  0.00000000000E+00 0.  1.
        -15    1    1    2    0    0 -0.32487891151E+01  0.38627421337E+01  0.21078582715E+02  0.21747178800E+02  0.17770000000E+01 0. -1.
         15    1    1    2    0    0 -0.22891016597E+01  0.24353619863E+01  0.38851526999E+00  0.38052132040E+01  0.17770000000E+01 0.  1.
</event>
<event>
 6    1  0.1097339E-002  0.1826143E+03  0.7546771E-02  0.1068364E+00
        -11   -1    0    0    0    0  0.00000000000E+00  0.00000000000E+00  0.18250000000E+03  0.18250000000E+03  0.00000000000E+00 0. -1.
         11   -1    0    0    0    0 -0.00000000000E+00 -0.00000000000E+00 -0.18250000000E+03  0.18250000000E+03  0.00000000000E+00 0.  1.
        -11    1    1    2    0    0 -0.35467934202E+01 -0.46519001946E+01  0.18229185071E+03  0.18238568681E+03  0.00000000000E+00 0. -1.
         11    1    1    2    0    0 -0.53450520423E+00 -0.42274978043E+00 -0.40740794490E+02  0.40746493700E+02  0.00000000000E+00 0.  1.
        -15    1    1    2    0    0  0.24335041498E+01  0.15735223858E+01 -0.23986742971E+02  0.24226421166E+02  0.17770000000E+01 0. -1.
         15    1    1    2    0    0  0.16477944747E+01  0.35011275892E+01 -0.11756431325E+03  0.11764139832E+03  0.17770000000E+01 0.  1.
</event>
<event>
 6    1  0.1097339E-002  0.1868269E+03  0.7546771E-02  0.1065062E+00
        -11   -1    0    0    0    0  0.00000000000E+00  0.00000000000E+00  0.18250000000E+03  0.18250000000E+03  0.00000000000E+00 0.  1.
         11   -1    0    0    0    0 -0.00000000000E+00 -0.00000000000E+00 -0.18250000000E+03  0.18250000000E+03  0.00000000000E+00 0.  1.
        -11    1    1    2    0    0 -0.56268917554E+01  0.18786555740E+01  0.14343268124E+03  0.14355530400E+03  0.00000000000E+00 0.  1.
         11    1    1    2    0    0  0.16498480557E+01 -0.22271168757E+01 -0.17815149230E+03  0.17817305144E+03  0.00000000000E+00 0.  1.
        -15    1    1    2    0    0 -0.96115202999E+01 -0.25538744947E+00  0.60716141719E+01  0.11509507934E+02  0.17770000000E+01 0. -1.
         15    1    1    2    0    0  0.13588564000E+02  0.60384875115E+00  0.28647196889E+02  0.31762136633E+02  0.17770000000E+01 0.  1.
</event>
<event>
 6    1  0.1097339E-002  0.1826860E+03  0.7546771E-02  0.1068307E+00
        -11   -1    0    0    0    0  0.00000000000E+00  0.00000000000E+00  0.18250000000E+03  0.18250000000E+03  0.00000000000E+00 0. -1.
         11   -1    0    0    0    0 -0.00000000000E+00 -0.00000000000E+00 -0.18250000000E+03  0.18250000000E+03  0.00000000000E+00 0.  1.
        -11    1    1    2    0    0  0.30461105457E+01 -0.16013138936E+01  0.18228156640E+03  0.18231404896E+03  0.00000000000E+00 0. -1.
         11    1    1    2    0    0  0.74768529177E+00 -0.85370984829E+00 -0.64064238117E+02  0.64074288598E+02  0.00000000000E+00 0.  1.
        -15    1    1    2    0    0 -0.24597655118E+01  0.35946128158E+01 -0.30664895153E+02  0.31023623441E+02  0.17770000000E+01 0. -1.
         15    1    1    2    0    0 -0.13340303256E+01 -0.11395890739E+01 -0.87552433134E+02  0.87588039006E+02  0.17770000000E+01 0.  1.
</event>
<event>
 6    1  0.1097339E-002  0.1762439E+03  0.7546771E-02  0.1073547E+00
        -11   -1    0    0    0    0  0.00000000000E+00  0.00000000000E+00  0.18250000000E+03  0.18250000000E+03  0.00000000000E+00 0. -1.
         11   -1    0    0    0    0 -0.00000000000E+00 -0.00000000000E+00 -0.18250000000E+03  0.18250000000E+03  0.00000000000E+00 0.  1.
        -11    1    1    2    0    0 -0.70882910548E+01 -0.31658517293E+01  0.17880249644E+03  0.17897094519E+03  0.00000000000E+00 0. -1.
         11    1    1    2    0    0  0.13627017552E+01 -0.10845986675E+01 -0.18550739063E+02  0.18632316822E+02  0.00000000000E+00 0.  1.
        -15    1    1    2    0    0  0.13201725958E+02  0.13180437271E+02 -0.23124070011E+02  0.29763901589E+02  0.17770000000E+01 0.  1.
         15    1    1    2    0    0 -0.74761366585E+01 -0.89299868743E+01 -0.13712768737E+03  0.13763283640E+03  0.17770000000E+01 0.  1.
</event>
<event>
 6    1  0.1097339E-002  0.1846290E+03  0.7546771E-02  0.1066773E+00
        -11   -1    0    0    0    0  0.00000000000E+00  0.00000000000E+00  0.18250000000E+03  0.18250000000E+03  0.00000000000E+00 0. -1.
         11   -1    0    0    0    0 -0.00000000000E+00 -0.00000000000E+00 -0.18250000000E+03  0.18250000000E+03  0.00000000000E+00 0.  1.
        -11    1    1    2    0    0  0.20623438852E+01  0.43420023302E+01  0.18030698632E+03  0.18037104968E+03  0.00000000000E+00 0. -1.
         11    1    1    2    0    0 -0.15369397098E+01 -0.17938445878E+00 -0.48053256709E+02  0.48078163887E+02  0.00000000000E+00 0.  1.
        -15    1    1    2    0    0 -0.37527062517E+01 -0.61997370407E+01 -0.44709122342E+01  0.86986394793E+01  0.17770000000E+01 0.  1.
         15    1    1    2    0    0  0.32273020762E+01  0.20371191693E+01 -0.12778281738E+03  0.12785214695E+03  0.17770000000E+01 0.  1.
</event>
<event>
 6    1  0.1097339E-002  0.1829948E+03  0.7546771E-02  0.1068062E+00
        -11   -1    0    0    0    0  0.00000000000E+00  0.00000000000E+00  0.18250000000E+03  0.18250000000E+03  0.00000000000E+00 0.  1.
         11   -1    0    0    0    0 -0.00000000000E+00 -0.00000000000E+00 -0.18250000000E+03  0.18250000000E+03  0.00000000000E+00 0. -1.
        -11    1    1    2    0    0  0.40371243614E+01  0.47169940194E+00  0.18195979213E+03  0.18200518351E+03  0.00000000000E+00 0.  1.
         11    1    1    2    0    0 -0.26130472074E+01 -0.77623647602E+00 -0.12736393407E+03  0.12739310130E+03  0.00000000000E+00 0. -1.
        -15    1    1    2    0    0 -0.54069501111E+01 -0.13343393204E+01 -0.28529790009E+02  0.29122537971E+02  0.17770000000E+01 0. -1.
         15    1    1    2    0    0  0.39828729571E+01  0.16388763945E+01 -0.26066068056E+02  0.26479177210E+02  0.17770000000E+01 0. -1.
</event>
<event>
 6    1  0.1097339E-002  0.1874278E+03  0.7546771E-02  0.1064599E+00
        -11   -1    0    0    0    0  0.00000000000E+00  0.00000000000E+00  0.18250000000E+03  0.18250000000E+03  0.00000000000E+00 0. -1.
         11   -1    0    0    0    0 -0.00000000000E+00 -0.00000000000E+00 -0.18250000000E+03  0.18250000000E+03  0.00000000000E+00 0. -1.
        -11    1    1    2    0    0 -0.17558569752E+01  0.31684431080E+01  0.17753520777E+03  0.17757216016E+03  0.00000000000E+00 0. -1.
         11    1    1    2    0    0  0.36595741753E+01 -0.17297047448E+01 -0.15470938581E+03  0.15476232881E+03  0.00000000000E+00 0. -1.
        -15    1    1    2    0    0 -0.41925362079E+01  0.95556420182E+00  0.36565858381E+01  0.59176694559E+01  0.17770000000E+01 0.  1.
         15    1    1    2    0    0  0.22888190078E+01 -0.23943025650E+01 -0.26482407797E+02  0.26747841576E+02  0.17770000000E+01 0. -1.
</event>
<event>
 6    1  0.1097339E-002  0.1827300E+03  0.7546771E-02  0.1068272E+00
        -11   -1    0    0    0    0  0.00000000000E+00  0.00000000000E+00  0.18250000000E+03  0.18250000000E+03  0.00000000000E+00 0.  1.
         11   -1    0    0    0    0 -0.00000000000E+00 -0.00000000000E+00 -0.18250000000E+03  0.18250000000E+03  0.00000000000E+00 0. -1.
        -11    1    1    2    0    0 -0.28587213741E+01  0.32989045929E+01  0.18221773646E+03  0.18227001548E+03  0.00000000000E+00 0.  1.
         11    1    1    2    0    0  0.35664877857E+01 -0.35468350493E+01 -0.86005923620E+02  0.86152880229E+02  0.00000000000E+00 0. -1.
        -15    1    1    2    0    0  0.25796143648E+00 -0.36114778325E+01 -0.47144111165E+02  0.47316321315E+02  0.17770000000E+01 0.  1.
         15    1    1    2    0    0 -0.96572784809E+00  0.38594082889E+01 -0.49067701680E+02  0.49260782980E+02  0.17770000000E+01 0. -1.
</event>
<event>
 6    1  0.1097339E-002  0.1908537E+03  0.7546771E-02  0.1061993E+00
        -11   -1    0    0    0    0  0.00000000000E+00  0.00000000000E+00  0.18250000000E+03  0.18250000000E+03  0.00000000000E+00 0.  1.
         11   -1    0    0    0    0 -0.00000000000E+00 -0.00000000000E+00 -0.18250000000E+03  0.18250000000E+03  0.00000000000E+00 0. -1.
        -11    1    1    2    0    0  0.17466921011E+01  0.20418716046E+01  0.17412555663E+03  0.17414628806E+03  0.00000000000E+00 0.  1.
         11    1    1    2    0    0  0.10015450342E+02 -0.28526584638E+01 -0.16464458553E+03  0.16497359319E+03  0.00000000000E+00 0. -1.
        -15    1    1    2    0    0 -0.14930246728E+02  0.72390000347E+01 -0.62291502614E+01  0.17812227004E+02  0.17770000000E+01 0. -1.
         15    1    1    2    0    0  0.31681042848E+01 -0.64282131755E+01 -0.32518208458E+01  0.80678917446E+01  0.17770000000E+01 0.  1.
</event>
<event>
 6    1  0.1097339E-002  0.1833933E+03  0.7546771E-02  0.1067746E+00
        -11   -1    0    0    0    0  0.00000000000E+00  0.00000000000E+00  0.18250000000E+03  0.18250000000E+03  0.00000000000E+00 0.  1.
         11   -1    0    0    0    0 -0.00000000000E+00 -0.00000000000E+00 -0.18250000000E+03  0.18250000000E+03  0.00000000000E+00 0. -1.
        -11    1    1    2    0    0  0.34705651513E+01 -0.60417364502E+01  0.18147295129E+03  0.18160666137E+03  0.00000000000E+00 0.  1.
         11    1    1    2    0    0 -0.47208907525E+01 -0.49700589014E+01 -0.11193739443E+03  0.11214708452E+03  0.00000000000E+00 0. -1.
        -15    1    1    2    0    0  0.84069262101E+00  0.96919392545E+01 -0.28838806747E+02  0.30487291684E+02  0.17770000000E+01 0. -1.
         15    1    1    2    0    0  0.40963298022E+00  0.13198560970E+01 -0.40696750116E+02  0.40758962429E+02  0.17770000000E+01 0.  1.
</event>
<event>
 6    1  0.1097339E-002  0.1889710E+03  0.7546771E-02  0.1063417E+00
        -11   -1    0    0    0    0  0.00000000000E+00  0.00000000000E+00  0.18250000000E+03  0.18250000000E+03  0.00000000000E+00 0.  1.
         11   -1    0    0    0    0 -0.00000000000E+00 -0.00000000000E+00 -0.18250000000E+03  0.18250000000E+03  0.00000000000E+00 0. -1.
        -11    1    1    2    0    0  0.41985349338E+01  0.61424509863E+01  0.17587164129E+03  0.17602895105E+03  0.00000000000E+00 0.  1.
         11    1    1    2    0    0 -0.60840026220E+01 -0.29015724200E+00 -0.15816393727E+03  0.15828117492E+03  0.00000000000E+00 0. -1.
        -15    1    1    2    0    0  0.37795114877E+01 -0.90693751700E+01  0.23109310462E+01  0.10248726963E+02  0.17770000000E+01 0. -1.
         15    1    1    2    0    0 -0.18940437994E+01  0.32170814257E+01 -0.20018635060E+02  0.20441147069E+02  0.17770000000E+01 0.  1.
</event>
<event>
 6    1  0.1097339E-002  0.1836520E+03  0.7546771E-02  0.1067542E+00
        -11   -1    0    0    0    0  0.00000000000E+00  0.00000000000E+00  0.18250000000E+03  0.18250000000E+03  0.00000000000E+00 0.  1.
         11   -1    0    0    0    0 -0.00000000000E+00 -0.00000000000E+00 -0.18250000000E+03  0.18250000000E+03  0.00000000000E+00 0.  1.
        -11    1    1    2    0    0 -0.10580437085E+01 -0.23931047371E+01  0.18132914178E+03  0.18134801920E+03  0.00000000000E+00 0.  1.
         11    1    1    2    0    0 -0.23906587674E+01  0.23755874011E+00 -0.13341983157E+03  0.13344145960E+03  0.00000000000E+00 0.  1.
        -15    1    1    2    0    0 -0.41960336656E-01  0.44992781513E+01 -0.46468425248E+01  0.67079161446E+01  0.17770000000E+01 0. -1.
         15    1    1    2    0    0  0.34906628126E+01 -0.23437321543E+01 -0.43262467688E+02  0.43502605057E+02  0.17770000000E+01 0.  1.
</event>
<event>
 6    1  0.1097339E-002  0.1849785E+03  0.7546771E-02  0.1066499E+00
        -11   -1    0    0    0    0  0.00000000000E+00  0.00000000000E+00  0.18250000000E+03  0.18250000000E+03  0.00000000000E+00 0. -1.
         11   -1    0    0    0    0 -0.00000000000E+00 -0.00000000000E+00 -0.18250000000E+03  0.18250000000E+03  0.00000000000E+00 0. -1.
        -11    1    1    2    0    0  0.76846044717E+01  0.15867098256E+01  0.17985041759E+03  0.18002150844E+03  0.00000000000E+00 0. -1.
         11    1    1    2    0    0 -0.12380155809E+01 -0.10840884871E+01 -0.28247732235E+02  0.28295623458E+02  0.00000000000E+00 0. -1.
        -15    1    1    2    0    0 -0.19281292493E+02 -0.20712704692E+01 -0.12994804006E+03  0.13139904584E+03  0.17770000000E+01 0. -1.
         15    1    1    2    0    0  0.12834703602E+02  0.15686491307E+01 -0.21654645290E+02  0.25283822264E+02  0.17770000000E+01 0.  1.
</event>
<event>
 6    1  0.1097339E-002  0.1912119E+03  0.7546771E-02  0.1061724E+00
        -11   -1    0    0    0    0  0.00000000000E+00  0.00000000000E+00  0.18250000000E+03  0.18250000000E+03  0.00000000000E+00 0. -1.
         11   -1    0    0    0    0 -0.00000000000E+00 -0.00000000000E+00 -0.18250000000E+03  0.18250000000E+03  0.00000000000E+00 0. -1.
        -11    1    1    2    0    0  0.46599580963E+01 -0.30448324933E+01  0.16634310049E+03  0.16643621390E+03  0.00000000000E+00 0. -1.
         11    1    1    2    0    0 -0.30503180271E+01 -0.74726678028E+01 -0.17360058044E+03  0.17378810872E+03  0.00000000000E+00 0. -1.
        -15    1    1    2    0    0 -0.57291374189E+01  0.11379445527E+02  0.12420728634E+02  0.17881471552E+02  0.17770000000E+01 0. -1.
         15    1    1    2    0    0  0.41194973497E+01 -0.86194523111E+00 -0.51632486896E+01  0.68942058300E+01  0.17770000000E+01 0.  1.
</event>
<event>
 6    1  0.1097339E-002  0.1845448E+03  0.7546771E-02  0.1066839E+00
        -11   -1    0    0    0    0  0.00000000000E+00  0.00000000000E+00  0.18250000000E+03  0.18250000000E+03  0.00000000000E+00 0. -1.
         11   -1    0    0    0    0 -0.00000000000E+00 -0.00000000000E+00 -0.18250000000E+03  0.18250000000E+03  0.00000000000E+00 0. -1.
        -11    1    1    2    0    0  0.38055002319E+01  0.41088959400E+01  0.18036828029E+03  0.18045520606E+03  0.00000000000E+00 0. -1.
         11    1    1    2    0    0  0.23176338395E+01  0.44408235074E+00 -0.11885294095E+03  0.11887636522E+03  0.00000000000E+00 0. -1.
        -15    1    1    2    0    0  0.14095514759E+01 -0.11588903309E+02 -0.40615683829E+02  0.42297529682E+02  0.17770000000E+01 0. -1.
         15    1    1    2    0    0 -0.75326855474E+01  0.70359250181E+01 -0.20899655515E+02  0.23370899042E+02  0.17770000000E+01 0.  1.
</event>
<event>
 6    1  0.1097339E-002  0.1844323E+03  0.7546771E-02  0.1066927E+00
        -11   -1    0    0    0    0  0.00000000000E+00  0.00000000000E+00  0.18250000000E+03  0.18250000000E+03  0.00000000000E+00 0. -1.
         11   -1    0    0    0    0 -0.00000000000E+00 -0.00000000000E+00 -0.18250000000E+03  0.18250000000E+03  0.00000000000E+00 0.  1.
        -11    1    1    2    0    0 -0.68805910794E+01  0.13319837957E+02  0.17994428601E+03  0.18056773434E+03  0.00000000000E+00 0. -1.
         11    1    1    2    0    0 -0.26712816639E+01 -0.54122109002E-01 -0.10501742347E+03  0.10505140603E+03  0.00000000000E+00 0.  1.
        -15    1    1    2    0    0  0.60265863893E+01 -0.16074721299E+02 -0.33624307582E+02  0.37795081660E+02  0.17770000000E+01 0.  1.
         15    1    1    2    0    0  0.35252863540E+01  0.28090054514E+01 -0.41302554950E+02  0.41585777977E+02  0.17770000000E+01 0.  1.
</event>
<event>
 6    1  0.1097339E-002  0.1720093E+03  0.7546771E-02  0.1077126E+00
        -11   -1    0    0    0    0  0.00000000000E+00  0.00000000000E+00  0.18250000000E+03  0.18250000000E+03  0.00000000000E+00 0. -1.
         11   -1    0    0    0    0 -0.00000000000E+00 -0.00000000000E+00 -0.18250000000E+03  0.18250000000E+03  0.00000000000E+00 0. -1.
        -11    1    1    2    0    0 -0.55066006154E+01  0.55776575607E+01  0.17241891326E+03  0.17259697148E+03  0.00000000000E+00 0. -1.
         11    1    1    2    0    0 -0.90805712023E-01 -0.53246115797E+01 -0.17138600543E+03  0.17146872191E+03  0.00000000000E+00 0. -1.
        -15    1    1    2    0    0  0.64103664523E+01  0.47210848030E+01  0.73584154426E+01  0.10985692814E+02  0.17770000000E+01 0.  1.
         15    1    1    2    0    0 -0.81296012495E+00 -0.49741307840E+01 -0.83913232739E+01  0.99486137983E+01  0.17770000000E+01 0. -1.
</event>
<event>
 6    1  0.1097339E-002  0.1855690E+03  0.7546771E-02  0.1066038E+00
        -11   -1    0    0    0    0  0.00000000000E+00  0.00000000000E+00  0.18250000000E+03  0.18250000000E+03  0.00000000000E+00 0.  1.
         11   -1    0    0    0    0 -0.00000000000E+00 -0.00000000000E+00 -0.18250000000E+03  0.18250000000E+03  0.00000000000E+00 0. -1.
        -11    1    1    2    0    0 -0.13146834270E+01  0.20119928094E+01  0.13555410860E+03  0.13557541395E+03  0.00000000000E+00 0.  1.
         11    1    1    2    0    0 -0.86375181806E+01 -0.80996137775E+01 -0.17903987880E+03  0.17943101367E+03  0.00000000000E+00 0. -1.
        -15    1    1    2    0    0  0.11547457357E+02  0.78589566089E+01  0.12389202429E+02  0.18755186915E+02  0.17770000000E+01 0.  1.
         15    1    1    2    0    0 -0.15952557499E+01 -0.17713356408E+01  0.31096567769E+02  0.31238385472E+02  0.17770000000E+01 0.  1.
</event>
<event>
 6    1  0.1097339E-002  0.1854242E+03  0.7546771E-02  0.1066151E+00
        -11   -1    0    0    0    0  0.00000000000E+00  0.00000000000E+00  0.18250000000E+03  0.18250000000E+03  0.00000000000E+00 0. -1.
         11   -1    0    0    0    0 -0.00000000000E+00 -0.00000000000E+00 -0.18250000000E+03  0.18250000000E+03  0.00000000000E+00 0.  1.
        -11    1    1    2    0    0 -0.10526769140E+01 -0.43531486509E+00  0.28075379579E+02  0.28098479785E+02  0.00000000000E+00 0. -1.
         11    1    1    2    0    0  0.12434111980E+02  0.97914104359E+01 -0.17887703200E+03  0.17957580972E+03  0.00000000000E+00 0.  1.
        -15    1    1    2    0    0 -0.22799718698E+02  0.56831649675E+01  0.10750302789E+03  0.11005536912E+03  0.17770000000E+01 0. -1.
         15    1    1    2    0    0  0.11418283632E+02 -0.15039260538E+02  0.43298624531E+02  0.47270341377E+02  0.17770000000E+01 0.  1.
</event>
<event>
 6    1  0.1097339E-002  0.1825664E+03  0.7546771E-02  0.1068402E+00
        -11   -1    0    0    0    0  0.00000000000E+00  0.00000000000E+00  0.18250000000E+03  0.18250000000E+03  0.00000000000E+00 0.  1.
         11   -1    0    0    0    0 -0.00000000000E+00 -0.00000000000E+00 -0.18250000000E+03  0.18250000000E+03  0.00000000000E+00 0. -1.
        -11    1    1    2    0    0  0.42861647786E+00 -0.61063372055E+00  0.24420359946E+02  0.24431753223E+02  0.00000000000E+00 0.  1.
         11    1    1    2    0    0  0.23220090303E+01  0.27288629985E+01 -0.18239837977E+03  0.18243356972E+03  0.00000000000E+00 0. -1.
        -15    1    1    2    0    0  0.40616554245E+00  0.10953085423E+01  0.38680207730E+02  0.38738622463E+02  0.17770000000E+01 0.  1.
         15    1    1    2    0    0 -0.31567910506E+01 -0.32135378202E+01  0.11929781209E+03  0.11939605460E+03  0.17770000000E+01 0.  1.
</event>
<event>
 6    1  0.1097339E-002  0.1898788E+03  0.7546771E-02  0.1062728E+00
        -11   -1    0    0    0    0  0.00000000000E+00  0.00000000000E+00  0.18250000000E+03  0.18250000000E+03  0.00000000000E+00 0.  1.
         11   -1    0    0    0    0 -0.00000000000E+00 -0.00000000000E+00 -0.18250000000E+03  0.18250000000E+03  0.00000000000E+00 0.  1.
        -11    1    1    2    0    0  0.82899910520E+00  0.49141672643E+01  0.16234531277E+03  0.16242178689E+03  0.00000000000E+00 0.  1.
         11    1    1    2    0    0 -0.11898390914E+02 -0.14460726299E+01 -0.17471055691E+03  0.17512121953E+03  0.00000000000E+00 0.  1.
        -15    1    1    2    0    0  0.98805515379E+01  0.33513834701E+01 -0.25775696458E+01  0.10893055776E+02  0.17770000000E+01 0.  1.
         15    1    1    2    0    0  0.11888402706E+01 -0.68194781044E+01  0.14942813788E+02  0.16563937808E+02  0.17770000000E+01 0. -1.
</event>
<event>
 6    1  0.1097339E-002  0.2035420E+03  0.7546771E-02  0.1052839E+00
        -11   -1    0    0    0    0  0.00000000000E+00  0.00000000000E+00  0.18250000000E+03  0.18250000000E+03  0.00000000000E+00 0. -1.
         11   -1    0    0    0    0 -0.00000000000E+00 -0.00000000000E+00 -0.18250000000E+03  0.18250000000E+03  0.00000000000E+00 0.  1.
        -11    1    1    2    0    0  0.82299982744E+01 -0.80229240274E+01  0.16104836166E+03  0.16145796659E+03  0.00000000000E+00 0. -1.
         11    1    1    2    0    0 -0.14928985402E+01  0.48282601494E+01 -0.10325945007E+03  0.10338304925E+03  0.00000000000E+00 0.  1.
        -15    1    1    2    0    0  0.25050809260E+02 -0.42573268278E+01 -0.62153871420E+02  0.67170896509E+02  0.17770000000E+01 0. -1.
         15    1    1    2    0    0 -0.31787908994E+02  0.74519907058E+01  0.43649598327E+01  0.32988087654E+02  0.17770000000E+01 0.  1.
</event>
<event>
 6    1  0.1097339E-002  0.1895603E+03  0.7546771E-02  0.1062970E+00
        -11   -1    0    0    0    0  0.00000000000E+00  0.00000000000E+00  0.18250000000E+03  0.18250000000E+03  0.00000000000E+00 0.  1.
         11   -1    0    0    0    0 -0.00000000000E+00 -0.00000000000E+00 -0.18250000000E+03  0.18250000000E+03  0.00000000000E+00 0. -1.
        -11    1    1    2    0    0  0.52070163190E+01 -0.27103560567E+01  0.17534143021E+03  0.17543966541E+03  0.00000000000E+00 0.  1.
         11    1    1    2    0    0  0.14134415441E+01  0.80663689723E+01 -0.16262142123E+03  0.16282748775E+03  0.00000000000E+00 0. -1.
        -15    1    1    2    0    0 -0.67210418978E+01 -0.91048619731E+01  0.18316438435E+01  0.11601015641E+02  0.17770000000E+01 0. -1.
         15    1    1    2    0    0  0.10058403464E+00  0.37488490575E+01 -0.14551652832E+02  0.15131831202E+02  0.17770000000E+01 0.  1.
</event>
<event>
 6    1  0.1097339E-002  0.1851281E+03  0.7546771E-02  0.1066382E+00
        -11   -1    0    0    0    0  0.00000000000E+00  0.00000000000E+00  0.18250000000E+03  0.18250000000E+03  0.00000000000E+00 0.  1.
         11   -1    0    0    0    0 -0.00000000000E+00 -0.00000000000E+00 -0.18250000000E+03  0.18250000000E+03  0.00000000000E+00 0.  1.
        -11    1    1    2    0    0 -0.28841430687E+01  0.38872643164E+01  0.17980676993E+03  0.17987190892E+03  0.00000000000E+00 0.  1.
         11    1    1    2    0    0  0.17231803075E+00 -0.40874987451E+01 -0.17307080576E+03  0.17311915303E+03  0.00000000000E+00 0.  1.
        -15    1    1    2    0    0  0.93159877460E+00  0.41692686587E+01 -0.54257878245E+01  0.71307489047E+01  0.17770000000E+01 0.  1.
         15    1    1    2    0    0  0.17802262633E+01 -0.39690342300E+01 -0.13101763472E+01  0.48781891444E+01  0.17770000000E+01 0.  1.
</event>
<event>
 6    1  0.1143200E-002  0.1827894E+03  0.7546771E-02  0.1068225E+00
        -11   -1    0    0    0    0  0.00000000000E+00  0.00000000000E+00  0.18250000000E+03  0.18250000000E+03  0.00000000000E+00 0. -1.
         11   -1    0    0    0    0 -0.00000000000E+00 -0.00000000000E+00 -0.18250000000E+03  0.18250000000E+03  0.00000000000E+00 0. -1.
        -11    1    1    2    0    0 -0.26394480181E+01 -0.17647628610E+01  0.18218296322E+03  0.18221062856E+03  0.00000000000E+00 0. -1.
         11    1    1    2    0    0  0.11139131983E+01  0.20416422738E+01 -0.95030258033E+01  0.97834863523E+01  0.00000000000E+00 0. -1.
        -15    1    1    2    0    0  0.41945836939E+01  0.26617834661E+01 -0.56847196611E+02  0.57091515264E+02  0.17770000000E+01 0.  1.
         15    1    1    2    0    0 -0.26690488741E+01 -0.29386628789E+01 -0.11583274080E+03  0.11591436982E+03  0.17770000000E+01 0. -1.
</event>
<event>
 6    1  0.1097339E-002  0.1827959E+03  0.7546771E-02  0.1068219E+00
        -11   -1    0    0    0    0  0.00000000000E+00  0.00000000000E+00  0.18250000000E+03  0.18250000000E+03  0.00000000000E+00 0. -1.
         11   -1    0    0    0    0 -0.00000000000E+00 -0.00000000000E+00 -0.18250000000E+03  0.18250000000E+03  0.00000000000E+00 0. -1.
        -11    1    1    2    0    0 -0.63688136458E+01  0.13347852902E+01  0.18208782521E+03  0.18220406013E+03  0.00000000000E+00 0. -1.
         11    1    1    2    0    0 -0.19946288067E+01 -0.13749296413E+01 -0.10741854547E+03  0.10744586025E+03  0.00000000000E+00 0. -1.
        -15    1    1    2    0    0  0.13969798728E+01 -0.62494075035E+00 -0.96384471676E+01  0.99196520357E+01  0.17770000000E+01 0.  1.
         15    1    1    2    0    0  0.69664625797E+01  0.66508510140E+00 -0.65030832574E+02  0.65430427580E+02  0.17770000000E+01 0. -1.
</event>
<event>
 6    1  0.1097339E-002  0.1842925E+03  0.7546771E-02  0.1067037E+00
        -11   -1    0    0    0    0  0.00000000000E+00  0.00000000000E+00  0.18250000000E+03  0.18250000000E+03  0.00000000000E+00 0.  1.
         11   -1    0    0    0    0 -0.00000000000E+00 -0.00000000000E+00 -0.18250000000E+03  0.18250000000E+03  0.00000000000E+00 0.  1.
        -11    1    1    2    0    0 -0.30011002812E+00 -0.12145502373E+01  0.33067009477E+02  0.33090668081E+02  0.00000000000E+00 0.  1.
         11    1    1    2    0    0  0.78904262858E+01  0.47786916949E+01 -0.18047186409E+03  0.18070746650E+03  0.00000000000E+00 0.  1.
        -15    1    1    2    0    0 -0.27997744051E+01  0.49373871599E+01  0.13582309115E+03  0.13595325059E+03  0.17770000000E+01 0.  1.
         15    1    1    2    0    0 -0.47905418526E+01 -0.85015286174E+01  0.11581763466E+02  0.15248614825E+02  0.17770000000E+01 0. -1.
</event>
<event>
 6    1  0.1097339E-002  0.1828652E+03  0.7546771E-02  0.1068165E+00
        -11   -1    0    0    0    0  0.00000000000E+00  0.00000000000E+00  0.18250000000E+03  0.18250000000E+03  0.00000000000E+00 0. -1.
         11   -1    0    0    0    0 -0.00000000000E+00 -0.00000000000E+00 -0.18250000000E+03  0.18250000000E+03  0.00000000000E+00 0. -1.
        -11    1    1    2    0    0  0.50219009763E+00 -0.43102593339E+01  0.14542946353E+03  0.14549419024E+03  0.00000000000E+00 0. -1.
         11    1    1    2    0    0 -0.36881981284E+01  0.20334113904E+01 -0.18208613009E+03  0.18213483011E+03  0.00000000000E+00 0. -1.
        -15    1    1    2    0    0  0.41557473089E+01  0.54557287171E+00  0.25278242357E+02  0.25684920695E+02  0.17770000000E+01 0. -1.
         15    1    1    2    0    0 -0.96973927810E+00  0.17312750718E+01  0.11378424203E+02  0.11686058959E+02  0.17770000000E+01 0. -1.
</event>
<event>
 6    1  0.1097339E-002  0.1831686E+03  0.7546771E-02  0.1067924E+00
        -11   -1    0    0    0    0  0.00000000000E+00  0.00000000000E+00  0.18250000000E+03  0.18250000000E+03  0.00000000000E+00 0. -1.
         11   -1    0    0    0    0 -0.00000000000E+00 -0.00000000000E+00 -0.18250000000E+03  0.18250000000E+03  0.00000000000E+00 0.  1.
        -11    1    1    2    0    0  0.13095624987E+02  0.13517337391E+01  0.18135412230E+03  0.18183135113E+03  0.00000000000E+00 0. -1.
         11    1    1    2    0    0 -0.27153128733E+01 -0.16944989178E+01 -0.35500396532E+02  0.35644388121E+02  0.00000000000E+00 0.  1.
        -15    1    1    2    0    0  0.43103518810E+01  0.28376632011E+01 -0.18467062737E+02  0.19256728718E+02  0.17770000000E+01 0. -1.
         15    1    1    2    0    0 -0.14690663995E+02 -0.24948980224E+01 -0.12738666304E+03  0.12826753203E+03  0.17770000000E+01 0.  1.
</event>
<event>
 6    1  0.1097339E-002  0.1830821E+03  0.7546771E-02  0.1067992E+00
        -11   -1    0    0    0    0  0.00000000000E+00  0.00000000000E+00  0.18250000000E+03  0.18250000000E+03  0.00000000000E+00 0. -1.
         11   -1    0    0    0    0 -0.00000000000E+00 -0.00000000000E+00 -0.18250000000E+03  0.18250000000E+03  0.00000000000E+00 0. -1.
        -11    1    1    2    0    0 -0.16178856417E+01 -0.58818000812E+01  0.11355264995E+03  0.11371639036E+03  0.00000000000E+00 0. -1.
         11    1    1    2    0    0  0.30678955865E+01  0.76025408358E+00 -0.18189039409E+03  0.18191785353E+03  0.00000000000E+00 0. -1.
        -15    1    1    2    0    0 -0.51480051474E+01  0.65471825885E+00  0.24240644021E+02  0.24853514129E+02  0.17770000000E+01 0. -1.
         15    1    1    2    0    0  0.36979952026E+01  0.44668277388E+01  0.44097100120E+02  0.44512241985E+02  0.17770000000E+01 0.  1.
</event>
<event>
 6    1  0.1097339E-002  0.1826720E+03  0.7546771E-02  0.1068318E+00
        -11   -1    0    0    0    0  0.00000000000E+00  0.00000000000E+00  0.18250000000E+03  0.18250000000E+03  0.00000000000E+00 0.  1.
         11   -1    0    0    0    0 -0.00000000000E+00 -0.00000000000E+00 -0.18250000000E+03  0.18250000000E+03  0.00000000000E+00 0.  1.
        -11    1    1    2    0    0 -0.25301587037E+01 -0.32517183193E+01  0.18228142881E+03  0.18232798650E+03  0.00000000000E+00 0.  1.
         11    1    1    2    0    0 -0.14936102008E+00  0.94077508960E+00 -0.69687573259E+02  0.69694083201E+02  0.00000000000E+00 0.  1.
        -15    1    1    2    0    0  0.12135513086E+01  0.51114241681E+01 -0.77143891265E+02  0.77342983214E+02  0.17770000000E+01 0.  1.
         15    1    1    2    0    0  0.14659684152E+01 -0.28004809384E+01 -0.35449964281E+02  0.35634947081E+02  0.17770000000E+01 0.  1.
</event>
<event>
 6    1  0.1097339E-002  0.1883339E+03  0.7546771E-02  0.1063904E+00
        -11   -1    0    0    0    0  0.00000000000E+00  0.00000000000E+00  0.18250000000E+03  0.18250000000E+03  0.00000000000E+00 0. -1.
         11   -1    0    0    0    0 -0.00000000000E+00 -0.00000000000E+00 -0.18250000000E+03  0.18250000000E+03  0.00000000000E+00 0. -1.
        -11    1    1    2    0    0  0.11700876031E+01 -0.28043558590E+00  0.65873734079E+02  0.65884721982E+02  0.00000000000E+00 0. -1.
         11    1    1    2    0    0 -0.41287443203E+00  0.30453500347E+01 -0.17663935525E+03  0.17666608742E+03  0.00000000000E+00 0. -1.
        -15    1    1    2    0    0 -0.41945491444E+00  0.23200086149E+02  0.72714807218E+02  0.76348024582E+02  0.17770000000E+01 0.  1.
         15    1    1    2    0    0 -0.33775825664E+00 -0.25965000598E+02  0.38050813951E+02  0.46101166016E+02  0.17770000000E+01 0. -1.
</event>
<event>
 6    1  0.1097339E-002  0.1909056E+03  0.7546771E-02  0.1061954E+00
        -11   -1    0    0    0    0  0.00000000000E+00  0.00000000000E+00  0.18250000000E+03  0.18250000000E+03  0.00000000000E+00 0.  1.
         11   -1    0    0    0    0 -0.00000000000E+00 -0.00000000000E+00 -0.18250000000E+03  0.18250000000E+03  0.00000000000E+00 0.  1.
        -11    1    1    2    0    0  0.34832791548E+01  0.48705888381E+01  0.17399140899E+03  0.17409441769E+03  0.00000000000E+00 0.  1.
         11    1    1    2    0    0 -0.63056471432E+01  0.12086029495E+01 -0.16314528461E+03  0.16327157069E+03  0.00000000000E+00 0.  1.
        -15    1    1    2    0    0  0.13018067449E+02 -0.69336600047E+01 -0.47734008298E+01  0.15604127840E+02  0.17770000000E+01 0.  1.
         15    1    1    2    0    0 -0.10195699460E+02  0.85446821711E+00 -0.60727235467E+01  0.12029883777E+02  0.17770000000E+01 0. -1.
</event>
<event>
 6    1  0.1097339E-002  0.1835671E+03  0.7546771E-02  0.1067609E+00
        -11   -1    0    0    0    0  0.00000000000E+00  0.00000000000E+00  0.18250000000E+03  0.18250000000E+03  0.00000000000E+00 0. -1.
         11   -1    0    0    0    0 -0.00000000000E+00 -0.00000000000E+00 -0.18250000000E+03  0.18250000000E+03  0.00000000000E+00 0.  1.
        -11    1    1    2    0    0  0.18183922275E+01 -0.24159134800E+01  0.18140774570E+03  0.18143294460E+03  0.00000000000E+00 0. -1.
         11    1    1    2    0    0  0.38362011282E+01 -0.25327429036E+01 -0.13500321171E+03  0.13508145098E+03  0.00000000000E+00 0.  1.
        -15    1    1    2    0    0 -0.24961016237E+01 -0.86607307427E+00 -0.35259107040E+02  0.35402584145E+02  0.17770000000E+01 0. -1.
         15    1    1    2    0    0 -0.31584917320E+01  0.58147294579E+01 -0.11145426945E+02  0.13083020274E+02  0.17770000000E+01 0.  1.
</event>
<event>
 6    1  0.1097339E-002  0.1888685E+03  0.7546771E-02  0.1063496E+00
        -11   -1    0    0    0    0  0.00000000000E+00  0.00000000000E+00  0.18250000000E+03  0.18250000000E+03  0.00000000000E+00 0.  1.
         11   -1    0    0    0    0 -0.00000000000E+00 -0.00000000000E+00 -0.18250000000E+03  0.18250000000E+03  0.00000000000E+00 0. -1.
        -11    1    1    2    0    0 -0.56373433696E+00  0.25801151276E+01  0.17611166682E+03  0.17613146789E+03  0.00000000000E+00 0.  1.
         11    1    1    2    0    0 -0.25664784381E+01  0.50257582984E+01 -0.16189292766E+03  0.16199125003E+03  0.00000000000E+00 0. -1.
        -15    1    1    2    0    0 -0.74794108608E+01  0.21486929074E+01 -0.30015313813E+01  0.85279181321E+01  0.17770000000E+01 0. -1.
         15    1    1    2    0    0  0.10609623636E+02 -0.97545663334E+01 -0.11217207778E+02  0.18349363950E+02  0.17770000000E+01 0.  1.
</event>
<event>
 6    1  0.1097339E-002  0.1836262E+03  0.7546771E-02  0.1067562E+00
        -11   -1    0    0    0    0  0.00000000000E+00  0.00000000000E+00  0.18250000000E+03  0.18250000000E+03  0.00000000000E+00 0.  1.
         11   -1    0    0    0    0 -0.00000000000E+00 -0.00000000000E+00 -0.18250000000E+03  0.18250000000E+03  0.00000000000E+00 0.  1.
        -11    1    1    2    0    0  0.35983467413E+01  0.55120918271E+00  0.18133723875E+03  0.18137377453E+03  0.00000000000E+00 0.  1.
         11    1    1    2    0    0  0.17691153056E+01 -0.44103108001E+01 -0.13655159770E+03  0.13663425429E+03  0.00000000000E+00 0.  1.
        -15    1    1    2    0    0 -0.34999219303E+01 -0.41514310317E+01 -0.15420156628E+02  0.16444536861E+02  0.17770000000E+01 0.  1.
         15    1    1    2    0    0 -0.18675401166E+01  0.80105326491E+01 -0.29365484421E+02  0.30547434322E+02  0.17770000000E+01 0. -1.
</event>
<event>
 6    1  0.1097339E-002  0.1832731E+03  0.7546771E-02  0.1067841E+00
        -11   -1    0    0    0    0  0.00000000000E+00  0.00000000000E+00  0.18250000000E+03  0.18250000000E+03  0.00000000000E+00 0.  1.
         11   -1    0    0    0    0 -0.00000000000E+00 -0.00000000000E+00 -0.18250000000E+03  0.18250000000E+03  0.00000000000E+00 0.  1.
        -11    1    1    2    0    0 -0.14633408660E+01  0.73638786283E+00  0.10392108740E+03  0.10393399848E+03  0.00000000000E+00 0.  1.
         11    1    1    2    0    0 -0.59516111540E-01  0.29026717804E+01 -0.18170373110E+03  0.18172692409E+03  0.00000000000E+00 0.  1.
        -15    1    1    2    0    0  0.45380442431E+01 -0.65909863926E+00  0.70853028800E+02  0.71023500869E+02  0.17770000000E+01 0.  1.
         15    1    1    2    0    0 -0.30151872655E+01 -0.29799610040E+01  0.69296148951E+01  0.83155765541E+01  0.17770000000E+01 0. -1.
</event>
<event>
 6    1  0.1097339E-002  0.1845540E+03  0.7546771E-02  0.1066832E+00
        -11   -1    0    0    0    0  0.00000000000E+00  0.00000000000E+00  0.18250000000E+03  0.18250000000E+03  0.00000000000E+00 0.  1.
         11   -1    0    0    0    0 -0.00000000000E+00 -0.00000000000E+00 -0.18250000000E+03  0.18250000000E+03  0.00000000000E+00 0. -1.
        -11    1    1    2    0    0 -0.36065868950E+01 -0.13465283019E+02  0.17990677770E+03  0.18044603065E+03  0.00000000000E+00 0.  1.
         11    1    1    2    0    0  0.22812825958E+01 -0.86478711579E+00 -0.14700209953E+03  0.14702234311E+03  0.00000000000E+00 0. -1.
        -15    1    1    2    0    0  0.15603355097E+01 -0.10295211760E+01 -0.51496645759E+01  0.57594561374E+01  0.17770000000E+01 0. -1.
         15    1    1    2    0    0 -0.23503121059E+00  0.15359591311E+02 -0.27755013587E+02  0.31772170104E+02  0.17770000000E+01 0. -1.
</event>
<event>
 6    1  0.1097339E-002  0.1907697E+03  0.7546771E-02  0.1062056E+00
        -11   -1    0    0    0    0  0.00000000000E+00  0.00000000000E+00  0.18250000000E+03  0.18250000000E+03  0.00000000000E+00 0. -1.
         11   -1    0    0    0    0 -0.00000000000E+00 -0.00000000000E+00 -0.18250000000E+03  0.18250000000E+03  0.00000000000E+00 0. -1.
        -11    1    1    2    0    0 -0.76629279712E+01  0.40775154372E+01  0.17401389982E+03  0.17423026123E+03  0.00000000000E+00 0. -1.
         11    1    1    2    0    0  0.16002993299E+01 -0.23747172642E+01 -0.16628832450E+03  0.16631297936E+03  0.00000000000E+00 0. -1.
        -15    1    1    2    0    0  0.14035615307E+01  0.19467568296E+01 -0.14779998797E+02  0.15078658447E+02  0.17770000000E+01 0. -1.
         15    1    1    2    0    0  0.46590671105E+01 -0.36495550026E+01  0.70544234797E+01  0.93781009638E+01  0.17770000000E+01 0. -1.
</event>
<event>
 6    1  0.1097339E-002  0.1832877E+03  0.7546771E-02  0.1067830E+00
        -11   -1    0    0    0    0  0.00000000000E+00  0.00000000000E+00  0.18250000000E+03  0.18250000000E+03  0.00000000000E+00 0.  1.
         11   -1    0    0    0    0 -0.00000000000E+00 -0.00000000000E+00 -0.18250000000E+03  0.18250000000E+03  0.00000000000E+00 0.  1.
        -11    1    1    2    0    0  0.48611145503E+01  0.27748694129E+01  0.96889308343E+02  0.97050854742E+02  0.00000000000E+00 0.  1.
         11    1    1    2    0    0 -0.59378227679E+01  0.54905826619E+01 -0.18153221970E+03  0.18171227538E+03  0.00000000000E+00 0.  1.
        -15    1    1    2    0    0  0.61027513907E+01 -0.89632019367E+01  0.61846168473E+02  0.62814718397E+02  0.17770000000E+01 0. -1.
         15    1    1    2    0    0 -0.50260431732E+01  0.69774986183E+00  0.22796742881E+02  0.23422151478E+02  0.17770000000E+01 0.  1.
</event>
<event>
 6    1  0.1097339E-002  0.1832875E+03  0.7546771E-02  0.1067830E+00
        -11   -1    0    0    0    0  0.00000000000E+00  0.00000000000E+00  0.18250000000E+03  0.18250000000E+03  0.00000000000E+00 0. -1.
         11   -1    0    0    0    0 -0.00000000000E+00 -0.00000000000E+00 -0.18250000000E+03  0.18250000000E+03  0.00000000000E+00 0. -1.
        -11    1    1    2    0    0 -0.54921004510E+00  0.40661449073E+01  0.14581176984E+03  0.14586948752E+03  0.00000000000E+00 0. -1.
         11    1    1    2    0    0  0.25754027432E+01 -0.35586374756E+01 -0.18165935846E+03  0.18171246274E+03  0.00000000000E+00 0. -1.
        -15    1    1    2    0    0  0.12647300229E+01  0.25516094831E+01  0.40721357624E+01  0.52773356585E+01  0.17770000000E+01 0.  1.
         15    1    1    2    0    0 -0.32909227210E+01 -0.30591169148E+01  0.31775452856E+02  0.32140714084E+02  0.17770000000E+01 0. -1.
</event>
<event>
 6    1  0.1097339E-002  0.1829832E+03  0.7546771E-02  0.1068071E+00
        -11   -1    0    0    0    0  0.00000000000E+00  0.00000000000E+00  0.18250000000E+03  0.18250000000E+03  0.00000000000E+00 0.  1.
         11   -1    0    0    0    0 -0.00000000000E+00 -0.00000000000E+00 -0.18250000000E+03  0.18250000000E+03  0.00000000000E+00 0. -1.
        -11    1    1    2    0    0 -0.17672779822E+01 -0.19126162194E+01  0.76725156365E+02  0.76769336271E+02  0.00000000000E+00 0.  1.
         11    1    1    2    0    0 -0.23496798256E+01  0.21370735110E+01 -0.18198907489E+03  0.18201678894E+03  0.00000000000E+00 0. -1.
        -15    1    1    2    0    0 -0.36351676851E+01 -0.20788488635E+01  0.17896194808E+02  0.18465307317E+02  0.17770000000E+01 0. -1.
         15    1    1    2    0    0  0.77521254928E+01  0.18543915719E+01  0.87367723712E+02  0.87748567472E+02  0.17770000000E+01 0.  1.
</event>
<event>
 6    1  0.1097339E-002  0.1703016E+03  0.7546771E-02  0.1078602E+00
        -11   -1    0    0    0    0  0.00000000000E+00  0.00000000000E+00  0.18250000000E+03  0.18250000000E+03  0.00000000000E+00 0. -1.
         11   -1    0    0    0    0 -0.00000000000E+00 -0.00000000000E+00 -0.18250000000E+03  0.18250000000E+03  0.00000000000E+00 0.  1.
        -11    1    1    2    0    0  0.97551005752E+01 -0.54347698187E+01  0.17248020493E+03  0.17284131394E+03  0.00000000000E+00 0. -1.
         11    1    1    2    0    0 -0.16312068859E+01  0.17319077427E+01 -0.16789291524E+03  0.16790977139E+03  0.00000000000E+00 0.  1.
        -15    1    1    2    0    0  0.13993312806E+01  0.40400744670E+01 -0.11464158174E+02  0.12363857867E+02  0.17770000000E+01 0. -1.
         15    1    1    2    0    0 -0.95232249699E+01 -0.33721239096E+00  0.68768684844E+01  0.11885056802E+02  0.17770000000E+01 0.  1.
</event>
<event>
 6    1  0.1097339E-002  0.1832885E+03  0.7546771E-02  0.1067829E+00
        -11   -1    0    0    0    0  0.00000000000E+00  0.00000000000E+00  0.18250000000E+03  0.18250000000E+03  0.00000000000E+00 0.  1.
         11   -1    0    0    0    0 -0.00000000000E+00 -0.00000000000E+00 -0.18250000000E+03  0.18250000000E+03  0.00000000000E+00 0.  1.
        -11    1    1    2    0    0 -0.17280570158E+01 -0.21645968685E+01  0.18169039883E+03  0.18171150951E+03  0.00000000000E+00 0.  1.
         11    1    1    2    0    0  0.14291512188E+01  0.16243853879E+01 -0.54232739303E+02  0.54275879665E+02  0.00000000000E+00 0.  1.
        -15    1    1    2    0    0 -0.62662215583E+01 -0.38615224831E+01 -0.10236207716E+03  0.10264175300E+03  0.17770000000E+01 0.  1.
         15    1    1    2    0    0  0.65651273553E+01  0.44017339637E+01 -0.25095582369E+02  0.26370857827E+02  0.17770000000E+01 0. -1.
</event>
<event>
 6    1  0.1097339E-002  0.1737906E+03  0.7546771E-02  0.1075607E+00
        -11   -1    0    0    0    0  0.00000000000E+00  0.00000000000E+00  0.18250000000E+03  0.18250000000E+03  0.00000000000E+00 0. -1.
         11   -1    0    0    0    0 -0.00000000000E+00 -0.00000000000E+00 -0.18250000000E+03  0.18250000000E+03  0.00000000000E+00 0.  1.
        -11    1    1    2    0    0  0.38477984761E+01  0.31933402206E-01  0.17507122303E+03  0.17511350521E+03  0.00000000000E+00 0. -1.
         11    1    1    2    0    0  0.43759338404E+01 -0.31472870713E+01 -0.17250427616E+03  0.17258846864E+03  0.00000000000E+00 0.  1.
        -15    1    1    2    0    0 -0.53596415566E+01 -0.13194187711E+01 -0.77568480568E+01  0.96846809078E+01  0.17770000000E+01 0.  1.
         15    1    1    2    0    0 -0.28640907599E+01  0.44347724402E+01  0.51899011835E+01  0.76133452419E+01  0.17770000000E+01 0. -1.
</event>
<event>
 6    1  0.1097339E-002  0.1876523E+03  0.7546771E-02  0.1064426E+00
        -11   -1    0    0    0    0  0.00000000000E+00  0.00000000000E+00  0.18250000000E+03  0.18250000000E+03  0.00000000000E+00 0.  1.
         11   -1    0    0    0    0 -0.00000000000E+00 -0.00000000000E+00 -0.18250000000E+03  0.18250000000E+03  0.00000000000E+00 0.  1.
        -11    1    1    2    0    0  0.38106691002E+01 -0.63784957892E-01  0.17730675430E+03  0.17734771042E+03  0.00000000000E+00 0.  1.
         11    1    1    2    0    0  0.15233216723E+01  0.16171199055E+01 -0.10038333413E+03  0.10040791481E+03  0.00000000000E+00 0.  1.
        -15    1    1    2    0    0 -0.20592187473E+02  0.79616399931E+01 -0.51429799611E+02  0.55996499117E+02  0.17770000000E+01 0. -1.
         15    1    1    2    0    0  0.15258196701E+02 -0.95149749407E+01 -0.25493620568E+02  0.31247875661E+02  0.17770000000E+01 0.  1.
</event>
<event>
 6    1  0.1097339E-002  0.1827817E+03  0.7546771E-02  0.1068231E+00
        -11   -1    0    0    0    0  0.00000000000E+00  0.00000000000E+00  0.18250000000E+03  0.18250000000E+03  0.00000000000E+00 0.  1.
         11   -1    0    0    0    0 -0.00000000000E+00 -0.00000000000E+00 -0.18250000000E+03  0.18250000000E+03  0.00000000000E+00 0. -1.
        -11    1    1    2    0    0 -0.29885652654E+01  0.30153290602E+01  0.18216887312E+03  0.18221833625E+03  0.00000000000E+00 0.  1.
         11    1    1    2    0    0  0.13361566003E+01 -0.98051826115E+00 -0.98270064292E+02  0.98284038716E+02  0.00000000000E+00 0. -1.
        -15    1    1    2    0    0 -0.98604122255E+00  0.10636415296E+01 -0.66549630164E+02  0.66589147874E+02  0.17770000000E+01 0.  1.
         15    1    1    2    0    0  0.26384498877E+01 -0.30984523287E+01 -0.17349178668E+02  0.17908477157E+02  0.17770000000E+01 0.  1.
</event>
<event>
 6    1  0.1097339E-002  0.1874588E+03  0.7546771E-02  0.1064575E+00
        -11   -1    0    0    0    0  0.00000000000E+00  0.00000000000E+00  0.18250000000E+03  0.18250000000E+03  0.00000000000E+00 0.  1.
         11   -1    0    0    0    0 -0.00000000000E+00 -0.00000000000E+00 -0.18250000000E+03  0.18250000000E+03  0.00000000000E+00 0.  1.
        -11    1    1    2    0    0  0.46068398389E+00  0.24838305782E+01  0.17752324514E+03  0.17754121834E+03  0.00000000000E+00 0.  1.
         11    1    1    2    0    0 -0.51080582263E+01  0.76474356166E+01 -0.16877516923E+03  0.16902554032E+03  0.00000000000E+00 0.  1.
        -15    1    1    2    0    0 -0.32987148153E+01 -0.95793601495E+00 -0.12841875388E+01  0.40750493833E+01  0.17770000000E+01 0.  1.
         15    1    1    2    0    0  0.79460890577E+01 -0.91733301799E+01 -0.74638883682E+01  0.14358191964E+02  0.17770000000E+01 0. -1.
</event>
<event>
 6    1  0.1097339E-002  0.1833824E+03  0.7546771E-02  0.1067755E+00
        -11   -1    0    0    0    0  0.00000000000E+00  0.00000000000E+00  0.18250000000E+03  0.18250000000E+03  0.00000000000E+00 0. -1.
         11   -1    0    0    0    0 -0.00000000000E+00 -0.00000000000E+00 -0.18250000000E+03  0.18250000000E+03  0.00000000000E+00 0.  1.
        -11    1    1    2    0    0  0.28083384822E+01 -0.14496510398E+01  0.18159008790E+03  0.18161758801E+03  0.00000000000E+00 0. -1.
         11    1    1    2    0    0 -0.99820769662E+00 -0.47873784675E+01 -0.20734183235E+02  0.21303092865E+02  0.00000000000E+00 0.  1.
        -15    1    1    2    0    0  0.14436589659E+01  0.96304697457E+01 -0.14712246823E+03  0.14745510668E+03  0.17770000000E+01 0.  1.
         15    1    1    2    0    0 -0.32537897515E+01 -0.33934402384E+01 -0.13733436430E+02  0.14624212443E+02  0.17770000000E+01 0. -1.
</event>
<event>
 6    1  0.1097339E-002  0.1869384E+03  0.7546771E-02  0.1064976E+00
        -11   -1    0    0    0    0  0.00000000000E+00  0.00000000000E+00  0.18250000000E+03  0.18250000000E+03  0.00000000000E+00 0. -1.
         11   -1    0    0    0    0 -0.00000000000E+00 -0.00000000000E+00 -0.18250000000E+03  0.18250000000E+03  0.00000000000E+00 0. -1.
        -11    1    1    2    0    0  0.34069250290E+01 -0.71218697489E+00  0.16630691695E+03  0.16634333463E+03  0.00000000000E+00 0. -1.
         11    1    1    2    0    0  0.19194011985E+01 -0.46275305428E+01 -0.17799115146E+03  0.17806164140E+03  0.00000000000E+00 0. -1.
        -15    1    1    2    0    0 -0.98066767849E+01  0.25919604032E+01  0.38475634338E+01  0.10993208889E+02  0.17770000000E+01 0. -1.
         15    1    1    2    0    0  0.44803505574E+01  0.27477571145E+01  0.78366710763E+01  0.96018150803E+01  0.17770000000E+01 0.  1.
</event>
<event>
 6    1  0.1097339E-002  0.1870614E+03  0.7546771E-02  0.1064881E+00
        -11   -1    0    0    0    0  0.00000000000E+00  0.00000000000E+00  0.18250000000E+03  0.18250000000E+03  0.00000000000E+00 0.  1.
         11   -1    0    0    0    0 -0.00000000000E+00 -0.00000000000E+00 -0.18250000000E+03  0.18250000000E+03  0.00000000000E+00 0.  1.
        -11    1    1    2    0    0 -0.34111559875E+00 -0.54174933615E+01  0.10282719473E+03  0.10297037229E+03  0.00000000000E+00 0.  1.
         11    1    1    2    0    0  0.12819309856E+02  0.58170625122E+01 -0.17738091539E+03  0.17793864692E+03  0.00000000000E+00 0.  1.
        -15    1    1    2    0    0 -0.51418621131E+01  0.76328799204E+01  0.67827471829E+00  0.93977331024E+01  0.17770000000E+01 0. -1.
         15    1    1    2    0    0 -0.73363321445E+01 -0.80324490710E+01  0.73875445949E+02  0.74693247691E+02  0.17770000000E+01 0.  1.
</event>
<event>
 6    1  0.1097339E-002  0.1845230E+03  0.7546771E-02  0.1066856E+00
        -11   -1    0    0    0    0  0.00000000000E+00  0.00000000000E+00  0.18250000000E+03  0.18250000000E+03  0.00000000000E+00 0.  1.
         11   -1    0    0    0    0 -0.00000000000E+00 -0.00000000000E+00 -0.18250000000E+03  0.18250000000E+03  0.00000000000E+00 0.  1.
        -11    1    1    2    0    0  0.24611053947E+01 -0.27035987493E+01  0.31848517535E+02  0.32057675448E+02  0.00000000000E+00 0.  1.
         11    1    1    2    0    0  0.56919825154E-01 -0.25897555735E+01 -0.18045843872E+03  0.18047702951E+03  0.00000000000E+00 0.  1.
        -15    1    1    2    0    0 -0.64594490956E+01 -0.41504335645E+01  0.72006397587E+01  0.10675088914E+02  0.17770000000E+01 0.  1.
         15    1    1    2    0    0  0.39414238757E+01  0.94437878872E+01  0.14140928143E+03  0.14179020613E+03  0.17770000000E+01 0. -1.
</event>
<event>
 6    1  0.1097339E-002  0.1880453E+03  0.7546771E-02  0.1064124E+00
        -11   -1    0    0    0    0  0.00000000000E+00  0.00000000000E+00  0.18250000000E+03  0.18250000000E+03  0.00000000000E+00 0. -1.
         11   -1    0    0    0    0 -0.00000000000E+00 -0.00000000000E+00 -0.18250000000E+03  0.18250000000E+03  0.00000000000E+00 0. -1.
        -11    1    1    2    0    0  0.18872982509E+01 -0.24463538178E+01  0.41462483845E+02  0.41577447111E+02  0.00000000000E+00 0. -1.
         11    1    1    2    0    0 -0.84597317641E+01  0.16193356799E+02 -0.17600902722E+03  0.17695471039E+03  0.00000000000E+00 0. -1.
        -15    1    1    2    0    0 -0.11367451594E+02 -0.12424939571E+02  0.81639168655E+01  0.18799078346E+02  0.17770000000E+01 0.  1.
         15    1    1    2    0    0  0.17939885107E+02 -0.13220634106E+01  0.12638262651E+03  0.12766876416E+03  0.17770000000E+01 0. -1.
</event>
<event>
 6    1  0.1097339E-002  0.1739857E+03  0.7546771E-02  0.1075442E+00
        -11   -1    0    0    0    0  0.00000000000E+00  0.00000000000E+00  0.18250000000E+03  0.18250000000E+03  0.00000000000E+00 0.  1.
         11   -1    0    0    0    0 -0.00000000000E+00 -0.00000000000E+00 -0.18250000000E+03  0.18250000000E+03  0.00000000000E+00 0.  1.
        -11    1    1    2    0    0  0.44099343958E+01 -0.36329282055E+01  0.17487522561E+03  0.17496854066E+03  0.00000000000E+00 0.  1.
         11    1    1    2    0    0  0.57864668674E+01  0.20553762295E+01 -0.17305168958E+03  0.17316060475E+03  0.00000000000E+00 0.  1.
        -15    1    1    2    0    0 -0.10633945948E+01  0.12840554254E+01  0.48427268102E+01  0.54211934440E+01  0.17770000000E+01 0.  1.
         15    1    1    2    0    0 -0.91330066684E+01  0.29349655069E+00 -0.66662628415E+01  0.11449661144E+02  0.17770000000E+01 0.  1.
</event>
<event>
 6    1  0.1097339E-002  0.1879569E+03  0.7546771E-02  0.1064192E+00
        -11   -1    0    0    0    0  0.00000000000E+00  0.00000000000E+00  0.18250000000E+03  0.18250000000E+03  0.00000000000E+00 0.  1.
         11   -1    0    0    0    0 -0.00000000000E+00 -0.00000000000E+00 -0.18250000000E+03  0.18250000000E+03  0.00000000000E+00 0.  1.
        -11    1    1    2    0    0 -0.43170676940E+01  0.11574630375E+00  0.11630721954E+03  0.11638736954E+03  0.00000000000E+00 0.  1.
         11    1    1    2    0    0  0.11151596483E+02  0.89545885792E+01 -0.17646445220E+03  0.17704306157E+03  0.00000000000E+00 0.  1.
        -15    1    1    2    0    0 -0.12846099722E+02 -0.43737080470E+01  0.31724731323E+01  0.14048982701E+02  0.17770000000E+01 0.  1.
         15    1    1    2    0    0  0.60115709331E+01 -0.46966268360E+01  0.56984759521E+02  0.57520586188E+02  0.17770000000E+01 0.  1.
</event>
<event>
 6    1  0.1097339E-002  0.1832202E+03  0.7546771E-02  0.1067883E+00
        -11   -1    0    0    0    0  0.00000000000E+00  0.00000000000E+00  0.18250000000E+03  0.18250000000E+03  0.00000000000E+00 0.  1.
         11   -1    0    0    0    0 -0.00000000000E+00 -0.00000000000E+00 -0.18250000000E+03  0.18250000000E+03  0.00000000000E+00 0. -1.
        -11    1    1    2    0    0  0.85901517868E+00 -0.67225151895E+00  0.24613190129E+02  0.24637348833E+02  0.00000000000E+00 0.  1.
         11    1    1    2    0    0  0.98763392033E+00 -0.61946522730E+01 -0.18167149397E+03  0.18177975921E+03  0.00000000000E+00 0. -1.
        -15    1    1    2    0    0  0.22350803362E+00  0.64891456502E+01  0.14376658830E+02  0.15874665831E+02  0.17770000000E+01 0. -1.
         15    1    1    2    0    0 -0.20701571326E+01  0.37775814176E+00  0.14268164501E+03  0.14270822612E+03  0.17770000000E+01 0.  1.
</event>
<event>
 6    1  0.1097339E-002  0.1856989E+03  0.7546771E-02  0.1065937E+00
        -11   -1    0    0    0    0  0.00000000000E+00  0.00000000000E+00  0.18250000000E+03  0.18250000000E+03  0.00000000000E+00 0.  1.
         11   -1    0    0    0    0 -0.00000000000E+00 -0.00000000000E+00 -0.18250000000E+03  0.18250000000E+03  0.00000000000E+00 0.  1.
        -11    1    1    2    0    0 -0.33782797545E+01 -0.93819161574E+00  0.15011157543E+03  0.15015251598E+03  0.00000000000E+00 0.  1.
         11    1    1    2    0    0 -0.30973890701E+01 -0.45268627833E+01 -0.17921720746E+03  0.17930112592E+03  0.00000000000E+00 0.  1.
        -15    1    1    2    0    0  0.36775602303E+01  0.74056267348E+00 -0.14906529748E+01  0.44105167058E+01  0.17770000000E+01 0. -1.
         15    1    1    2    0    0  0.27981085943E+01  0.47244917256E+01  0.30596285008E+02  0.31135841390E+02  0.17770000000E+01 0.  1.
</event>
<event>
 6    1  0.1097339E-002  0.1833930E+03  0.7546771E-02  0.1067746E+00
        -11   -1    0    0    0    0  0.00000000000E+00  0.00000000000E+00  0.18250000000E+03  0.18250000000E+03  0.00000000000E+00 0.  1.
         11   -1    0    0    0    0 -0.00000000000E+00 -0.00000000000E+00 -0.18250000000E+03  0.18250000000E+03  0.00000000000E+00 0.  1.
        -11    1    1    2    0    0  0.19901377399E+01 -0.41597304776E+01  0.11750661932E+03  0.11759706455E+03  0.00000000000E+00 0.  1.
         11    1    1    2    0    0 -0.60346704675E+01  0.71760663600E+00 -0.18150529351E+03  0.18160700366E+03  0.00000000000E+00 0.  1.
        -15    1    1    2    0    0 -0.11216819647E+01  0.15956000197E+01  0.55277895294E+02  0.55340830740E+02  0.17770000000E+01 0.  1.
         15    1    1    2    0    0  0.51662146923E+01  0.18465238220E+01  0.87207788909E+01  0.10455101049E+02  0.17770000000E+01 0. -1.
</event>
<event>
 6    1  0.1097339E-002  0.1885123E+03  0.7546771E-02  0.1063767E+00
        -11   -1    0    0    0    0  0.00000000000E+00  0.00000000000E+00  0.18250000000E+03  0.18250000000E+03  0.00000000000E+00 0.  1.
         11   -1    0    0    0    0 -0.00000000000E+00 -0.00000000000E+00 -0.18250000000E+03  0.18250000000E+03  0.00000000000E+00 0. -1.
        -11    1    1    2    0    0  0.24147695699E+01 -0.28380184115E+01  0.17644835187E+03  0.17648769458E+03  0.00000000000E+00 0.  1.
         11    1    1    2    0    0  0.48507758757E+01  0.15225991144E+02 -0.15717642476E+03  0.15798667454E+03  0.00000000000E+00 0. -1.
        -15    1    1    2    0    0  0.49575489874E+01 -0.81434860371E+01 -0.12478526528E+02  0.15803955521E+02  0.17770000000E+01 0. -1.
         15    1    1    2    0    0 -0.12223094433E+02 -0.42444866953E+01 -0.67934005848E+01  0.14721675358E+02  0.17770000000E+01 0.  1.
</event>
<event>
 6    1  0.1097339E-002  0.1828829E+03  0.7546771E-02  0.1068150E+00
        -11   -1    0    0    0    0  0.00000000000E+00  0.00000000000E+00  0.18250000000E+03  0.18250000000E+03  0.00000000000E+00 0.  1.
         11   -1    0    0    0    0 -0.00000000000E+00 -0.00000000000E+00 -0.18250000000E+03  0.18250000000E+03  0.00000000000E+00 0.  1.
        -11    1    1    2    0    0 -0.23076266713E+01  0.44758083280E+00  0.11712918331E+03  0.11715276801E+03  0.00000000000E+00 0.  1.
         11    1    1    2    0    0  0.23640825061E+01  0.33247708952E+01 -0.18207136761E+03  0.18211706645E+03  0.00000000000E+00 0.  1.
        -15    1    1    2    0    0 -0.40000850645E+01  0.46371206852E-01  0.27931499698E+02  0.28272411202E+02  0.17770000000E+01 0. -1.
         15    1    1    2    0    0  0.39436292298E+01 -0.38187229348E+01  0.37010684605E+02  0.37457754341E+02  0.17770000000E+01 0.  1.
</event>
<event>
 6    1  0.1097339E-002  0.1753203E+03  0.7546771E-02  0.1074318E+00
        -11   -1    0    0    0    0  0.00000000000E+00  0.00000000000E+00  0.18250000000E+03  0.18250000000E+03  0.00000000000E+00 0. -1.
         11   -1    0    0    0    0 -0.00000000000E+00 -0.00000000000E+00 -0.18250000000E+03  0.18250000000E+03  0.00000000000E+00 0.  1.
        -11    1    1    2    0    0 -0.42414274959E+01 -0.23829289689E+01  0.17647764327E+03  0.17654468735E+03  0.00000000000E+00 0. -1.
         11    1    1    2    0    0 -0.42230913077E+01  0.30946823354E+01 -0.17412796823E+03  0.17420666141E+03  0.00000000000E+00 0.  1.
        -15    1    1    2    0    0  0.35771839696E+01  0.41267405485E+01  0.18044271063E+01  0.60199600405E+01  0.17770000000E+01 0.  1.
         15    1    1    2    0    0  0.48873348340E+01 -0.48384939150E+01 -0.41541021435E+01  0.82286911938E+01  0.17770000000E+01 0.  1.
</event>
<event>
 6    1  0.1097339E-002  0.3650000E+03  0.7546771E-02  0.9765871E-01
        -11   -1    0    0    0    0  0.00000000000E+00  0.00000000000E+00  0.18250000000E+03  0.18250000000E+03  0.00000000000E+00 0.  1.
         11   -1    0    0    0    0 -0.00000000000E+00 -0.00000000000E+00 -0.18250000000E+03  0.18250000000E+03  0.00000000000E+00 0.  1.
        -11    1    1    2    0    0  0.39934608627E+02 -0.10604282392E+02 -0.38141088676E+02  0.56231365061E+02  0.00000000000E+00 0.  1.
         11    1    1    2    0    0  0.46973481769E+00  0.25992680805E+01 -0.97541161172E+02  0.97576918214E+02  0.00000000000E+00 0.  1.
        -15    1    1    2    0    0  0.21658975480E+01 -0.42656535899E+01 -0.34731398902E+02  0.35104340350E+02  0.17770000000E+01 0.  1.
         15    1    1    2    0    0 -0.42570240993E+02  0.12270667902E+02  0.17041364875E+03  0.17608737637E+03  0.17770000000E+01 0.  1.
</event>
<event>
 6    1  0.1097339E-002  0.1723919E+03  0.7546771E-02  0.1076798E+00
        -11   -1    0    0    0    0  0.00000000000E+00  0.00000000000E+00  0.18250000000E+03  0.18250000000E+03  0.00000000000E+00 0.  1.
         11   -1    0    0    0    0 -0.00000000000E+00 -0.00000000000E+00 -0.18250000000E+03  0.18250000000E+03  0.00000000000E+00 0.  1.
        -11    1    1    2    0    0 -0.35547143626E+01  0.58281559351E+00  0.17112005104E+03  0.17115796077E+03  0.00000000000E+00 0.  1.
         11    1    1    2    0    0 -0.22987285878E+01  0.23595814850E+01 -0.17366629870E+03  0.17369753908E+03  0.00000000000E+00 0.  1.
        -15    1    1    2    0    0  0.22319151829E+01  0.25093181222E+01  0.96210678038E+01  0.10344118982E+02  0.17770000000E+01 0.  1.
         15    1    1    2    0    0  0.36215277675E+01 -0.54517152007E+01 -0.70748201440E+01  0.98003811696E+01  0.17770000000E+01 0.  1.
</event>
<event>
 6    1  0.1097339E-002  0.1915904E+03  0.7546771E-02  0.1061441E+00
        -11   -1    0    0    0    0  0.00000000000E+00  0.00000000000E+00  0.18250000000E+03  0.18250000000E+03  0.00000000000E+00 0. -1.
         11   -1    0    0    0    0 -0.00000000000E+00 -0.00000000000E+00 -0.18250000000E+03  0.18250000000E+03  0.00000000000E+00 0.  1.
        -11    1    1    2    0    0  0.13885347180E+02 -0.10304083991E+02  0.10824982705E+03  0.10962208751E+03  0.00000000000E+00 0. -1.
         11    1    1    2    0    0  0.53821493038E+01  0.26534824248E+01 -0.17330573469E+03  0.17340959078E+03  0.00000000000E+00 0.  1.
        -15    1    1    2    0    0  0.37938813201E+01  0.31740990560E+00 -0.57493245549E+01  0.71208669667E+01  0.17770000000E+01 0.  1.
         15    1    1    2    0    0 -0.23061377804E+02  0.73331916611E+01  0.70805232190E+02  0.74847454737E+02  0.17770000000E+01 0. -1.
</event>
<event>
 6    1  0.1097339E-002  0.2113161E+03  0.7546771E-02  0.1047582E+00
        -11   -1    0    0    0    0  0.00000000000E+00  0.00000000000E+00  0.18250000000E+03  0.18250000000E+03  0.00000000000E+00 0.  1.
         11   -1    0    0    0    0 -0.00000000000E+00 -0.00000000000E+00 -0.18250000000E+03  0.18250000000E+03  0.00000000000E+00 0.  1.
        -11    1    1    2    0    0 -0.11689560253E+02  0.25951947273E+02  0.15102514261E+03  0.15368390640E+03  0.00000000000E+00 0.  1.
         11    1    1    2    0    0  0.15790229334E+01 -0.10465801032E+01 -0.11760660451E+03  0.11762186050E+03  0.00000000000E+00 0.  1.
        -15    1    1    2    0    0 -0.25572567429E+01  0.54604832680E+01 -0.54314368057E+02  0.54676912367E+02  0.17770000000E+01 0. -1.
         15    1    1    2    0    0  0.12667794062E+02 -0.30365850438E+02  0.20895829955E+02  0.39017320740E+02  0.17770000000E+01 0.  1.
</event>
<event>
 6    1  0.1097339E-002  0.1840340E+03  0.7546771E-02  0.1067240E+00
        -11   -1    0    0    0    0  0.00000000000E+00  0.00000000000E+00  0.18250000000E+03  0.18250000000E+03  0.00000000000E+00 0.  1.
         11   -1    0    0    0    0 -0.00000000000E+00 -0.00000000000E+00 -0.18250000000E+03  0.18250000000E+03  0.00000000000E+00 0. -1.
        -11    1    1    2    0    0  0.24452220631E+01  0.32265136081E+01  0.18092072940E+03  0.18096601843E+03  0.00000000000E+00 0.  1.
         11    1    1    2    0    0 -0.11534220699E+01  0.17951614269E+01 -0.54376525173E+02  0.54418374442E+02  0.00000000000E+00 0. -1.
        -15    1    1    2    0    0  0.28070301365E+01 -0.54544838252E+01 -0.12453397417E+03  0.12469763134E+03  0.17770000000E+01 0. -1.
         15    1    1    2    0    0 -0.40988301297E+01  0.43280879018E+00 -0.20102300609E+01  0.49179757806E+01  0.17770000000E+01 0.  1.
</event>
<event>
 6    1  0.1097339E-002  0.1840756E+03  0.7546771E-02  0.1067208E+00
        -11   -1    0    0    0    0  0.00000000000E+00  0.00000000000E+00  0.18250000000E+03  0.18250000000E+03  0.00000000000E+00 0.  1.
         11   -1    0    0    0    0 -0.00000000000E+00 -0.00000000000E+00 -0.18250000000E+03  0.18250000000E+03  0.00000000000E+00 0.  1.
        -11    1    1    2    0    0  0.68317283517E+00  0.13806708848E+01  0.97339107220E+02  0.97351295685E+02  0.00000000000E+00 0.  1.
         11    1    1    2    0    0  0.49140953530E+01 -0.35411608284E+01 -0.18082297403E+03  0.18092439330E+03  0.00000000000E+00 0.  1.
        -15    1    1    2    0    0  0.45444077526E+01 -0.24308456537E+01  0.48814934776E+01  0.73176061650E+01  0.17770000000E+01 0. -1.
         15    1    1    2    0    0 -0.10141675941E+02  0.45913355974E+01  0.78602373331E+02  0.79406704854E+02  0.17770000000E+01 0.  1.
</event>
<event>
 6    1  0.1097339E-002  0.1864177E+03  0.7546771E-02  0.1065378E+00
        -11   -1    0    0    0    0  0.00000000000E+00  0.00000000000E+00  0.18250000000E+03  0.18250000000E+03  0.00000000000E+00 0.  1.
         11   -1    0    0    0    0 -0.00000000000E+00 -0.00000000000E+00 -0.18250000000E+03  0.18250000000E+03  0.00000000000E+00 0.  1.
        -11    1    1    2    0    0 -0.79673455274E+01 -0.30668748758E+01  0.16494101842E+03  0.16516181119E+03  0.00000000000E+00 0.  1.
         11    1    1    2    0    0  0.73539189130E+00 -0.52011392698E+01 -0.17850504906E+03  0.17858232048E+03  0.00000000000E+00 0.  1.
        -15    1    1    2    0    0  0.42098819776E+01  0.54539038035E+00 -0.70594177366E+00  0.46558178358E+01  0.17770000000E+01 0.  1.
         15    1    1    2    0    0  0.30220716585E+01  0.77226237653E+01  0.14269972406E+02  0.16600050494E+02  0.17770000000E+01 0. -1.
</event>
<event>
 6    1  0.1097339E-002  0.1847369E+03  0.7546771E-02  0.1066688E+00
        -11   -1    0    0    0    0  0.00000000000E+00  0.00000000000E+00  0.18250000000E+03  0.18250000000E+03  0.00000000000E+00 0. -1.
         11   -1    0    0    0    0 -0.00000000000E+00 -0.00000000000E+00 -0.18250000000E+03  0.18250000000E+03  0.00000000000E+00 0. -1.
        -11    1    1    2    0    0  0.19715447165E+01 -0.15668141704E+01  0.13902223125E+03  0.13904503830E+03  0.00000000000E+00 0. -1.
         11    1    1    2    0    0  0.67727111891E+01 -0.29219499255E+01 -0.18011208045E+03  0.18026305482E+03  0.00000000000E+00 0. -1.
        -15    1    1    2    0    0 -0.58121379559E+01 -0.84608831666E+00  0.25687377169E+01  0.66522894943E+01  0.17770000000E+01 0.  1.
         15    1    1    2    0    0 -0.29321179498E+01  0.53348524126E+01  0.38521111487E+02  0.39039617379E+02  0.17770000000E+01 0. -1.
</event>
<event>
 6    1  0.1097339E-002  0.1857336E+03  0.7546771E-02  0.1065910E+00
        -11   -1    0    0    0    0  0.00000000000E+00  0.00000000000E+00  0.18250000000E+03  0.18250000000E+03  0.00000000000E+00 0.  1.
         11   -1    0    0    0    0 -0.00000000000E+00 -0.00000000000E+00 -0.18250000000E+03  0.18250000000E+03  0.00000000000E+00 0.  1.
        -11    1    1    2    0    0  0.62754097085E+01 -0.17445708945E+01  0.16727655110E+03  0.16740331192E+03  0.00000000000E+00 0.  1.
         11    1    1    2    0    0 -0.36443676697E+01  0.28234491610E+01 -0.17920709982E+03  0.17926638811E+03  0.00000000000E+00 0.  1.
        -15    1    1    2    0    0  0.35552061897E+00  0.22638475784E+01 -0.20436095681E+01  0.35476005744E+01  0.17770000000E+01 0. -1.
         15    1    1    2    0    0 -0.29865626578E+01 -0.33427258449E+01  0.13974158285E+02  0.14782699393E+02  0.17770000000E+01 0.  1.
</event>
<event>
 6    1  0.1097339E-002  0.1837347E+03  0.7546771E-02  0.1067476E+00
        -11   -1    0    0    0    0  0.00000000000E+00  0.00000000000E+00  0.18250000000E+03  0.18250000000E+03  0.00000000000E+00 0.  1.
         11   -1    0    0    0    0 -0.00000000000E+00 -0.00000000000E+00 -0.18250000000E+03  0.18250000000E+03  0.00000000000E+00 0.  1.
        -11    1    1    2    0    0 -0.19371017389E+01 -0.74473925582E+00  0.15149265400E+03  0.15150686854E+03  0.00000000000E+00 0.  1.
         11    1    1    2    0    0  0.24411275542E+01 -0.27766342530E+01 -0.18122758683E+03  0.18126529461E+03  0.00000000000E+00 0.  1.
        -15    1    1    2    0    0 -0.57902627935E+00  0.61206998151E+01  0.78999413353E+01  0.10166859877E+02  0.17770000000E+01 0. -1.
         15    1    1    2    0    0  0.75000464081E-01 -0.25993263064E+01  0.21834991494E+02  0.22060976969E+02  0.17770000000E+01 0.  1.
</event>
<event>
 6    1  0.1097339E-002  0.1834054E+03  0.7546771E-02  0.1067736E+00
        -11   -1    0    0    0    0  0.00000000000E+00  0.00000000000E+00  0.18250000000E+03  0.18250000000E+03  0.00000000000E+00 0.  1.
         11   -1    0    0    0    0 -0.00000000000E+00 -0.00000000000E+00 -0.18250000000E+03  0.18250000000E+03  0.00000000000E+00 0. -1.
        -11    1    1    2    0    0  0.13630650685E+01  0.30797922094E+01  0.86812320304E+02  0.86877626711E+02  0.00000000000E+00 0.  1.
         11    1    1    2    0    0 -0.47246849517E+01  0.16703073246E+00 -0.18153304896E+03  0.18159459907E+03  0.00000000000E+00 0. -1.
        -15    1    1    2    0    0 -0.70344763849E+01 -0.33437594626E+01  0.37221300666E+02  0.38068983932E+02  0.17770000000E+01 0.  1.
         15    1    1    2    0    0  0.10396096268E+02  0.96936520807E-01  0.57499427986E+02  0.58458790289E+02  0.17770000000E+01 0. -1.
</event>
<event>
 6    1  0.1097339E-002  0.1844112E+03  0.7546771E-02  0.1066944E+00
        -11   -1    0    0    0    0  0.00000000000E+00  0.00000000000E+00  0.18250000000E+03  0.18250000000E+03  0.00000000000E+00 0.  1.
         11   -1    0    0    0    0 -0.00000000000E+00 -0.00000000000E+00 -0.18250000000E+03  0.18250000000E+03  0.00000000000E+00 0. -1.
        -11    1    1    2    0    0 -0.32770304499E+01  0.86082174267E+00  0.18055701026E+03  0.18058879782E+03  0.00000000000E+00 0.  1.
         11    1    1    2    0    0 -0.54648314911E+01  0.51074108584E+01 -0.47872313225E+02  0.48453156785E+02  0.00000000000E+00 0. -1.
        -15    1    1    2    0    0  0.23982015711E+01 -0.12705306268E+02 -0.28477954076E+02  0.31326151623E+02  0.17770000000E+01 0.  1.
         15    1    1    2    0    0  0.63436603699E+01  0.67370736671E+01 -0.10420674296E+03  0.10463189378E+03  0.17770000000E+01 0. -1.
</event>
<event>
 6    1  0.1097339E-002  0.1834529E+03  0.7546771E-02  0.1067699E+00
        -11   -1    0    0    0    0  0.00000000000E+00  0.00000000000E+00  0.18250000000E+03  0.18250000000E+03  0.00000000000E+00 0.  1.
         11   -1    0    0    0    0 -0.00000000000E+00 -0.00000000000E+00 -0.18250000000E+03  0.18250000000E+03  0.00000000000E+00 0.  1.
        -11    1    1    2    0    0  0.35160584138E+01 -0.31237802754E+00  0.11795325385E+03  0.11800606061E+03  0.00000000000E+00 0.  1.
         11    1    1    2    0    0 -0.13789100063E+01  0.21001566138E+01 -0.18152967489E+03  0.18154705978E+03  0.00000000000E+00 0.  1.
        -15    1    1    2    0    0 -0.30129276586E+00  0.22368383704E+01  0.58161990297E+02  0.58232886477E+02  0.17770000000E+01 0. -1.
         15    1    1    2    0    0 -0.18358556416E+01 -0.40246169567E+01  0.54144307390E+01  0.72139931253E+01  0.17770000000E+01 0.  1.
</event>
<event>
 6    1  0.1097339E-002  0.1826538E+03  0.7546771E-02  0.1068332E+00
        -11   -1    0    0    0    0  0.00000000000E+00  0.00000000000E+00  0.18250000000E+03  0.18250000000E+03  0.00000000000E+00 0. -1.
         11   -1    0    0    0    0 -0.00000000000E+00 -0.00000000000E+00 -0.18250000000E+03  0.18250000000E+03  0.00000000000E+00 0.  1.
        -11    1    1    2    0    0  0.26541981457E+01  0.23857073148E+01  0.18231131643E+03  0.18234624336E+03  0.00000000000E+00 0. -1.
         11    1    1    2    0    0 -0.57931875475E+00  0.24446332901E+01 -0.73644394676E+02  0.73687235728E+02  0.00000000000E+00 0.  1.
        -15    1    1    2    0    0 -0.18174620593E+01 -0.55411440943E+01 -0.77146845140E+02  0.77387343217E+02  0.17770000000E+01 0.  1.
         15    1    1    2    0    0 -0.25741733165E+00  0.71080348943E+00 -0.31520076616E+02  0.31579177699E+02  0.17770000000E+01 0.  1.
</event>
<event>
 6    1  0.1097339E-002  0.2129783E+03  0.7546771E-02  0.1046490E+00
        -11   -1    0    0    0    0  0.00000000000E+00  0.00000000000E+00  0.18250000000E+03  0.18250000000E+03  0.00000000000E+00 0. -1.
         11   -1    0    0    0    0 -0.00000000000E+00 -0.00000000000E+00 -0.18250000000E+03  0.18250000000E+03  0.00000000000E+00 0. -1.
        -11    1    1    2    0    0  0.90183903616E+01  0.75386389512E+01  0.15156656682E+03  0.15202166497E+03  0.00000000000E+00 0. -1.
         11    1    1    2    0    0 -0.28550828661E+01 -0.55933186502E+01 -0.14281903219E+03  0.14295703084E+03  0.00000000000E+00 0. -1.
        -15    1    1    2    0    0  0.78294005702E+00  0.13290413370E+02 -0.35755014168E+02  0.38194591893E+02  0.17770000000E+01 0.  1.
         15    1    1    2    0    0 -0.69462475525E+01 -0.15235733671E+02  0.27007479536E+02  0.31826712294E+02  0.17770000000E+01 0. -1.
</event>
<event>
 6    1  0.1097339E-002  0.1839456E+03  0.7546771E-02  0.1067310E+00
        -11   -1    0    0    0    0  0.00000000000E+00  0.00000000000E+00  0.18250000000E+03  0.18250000000E+03  0.00000000000E+00 0.  1.
         11   -1    0    0    0    0 -0.00000000000E+00 -0.00000000000E+00 -0.18250000000E+03  0.18250000000E+03  0.00000000000E+00 0. -1.
        -11    1    1    2    0    0 -0.50913263952E+01 -0.37579453598E+01  0.18094374592E+03  0.18105436462E+03  0.00000000000E+00 0.  1.
         11    1    1    2    0    0  0.17869983564E+01 -0.31360235160E+01 -0.16325491662E+03  0.16329481255E+03  0.00000000000E+00 0. -1.
        -15    1    1    2    0    0 -0.83748672502E+00  0.43004767128E+01 -0.12228591573E+02  0.13110746158E+02  0.17770000000E+01 0. -1.
         15    1    1    2    0    0  0.41418147638E+01  0.25934921629E+01 -0.54602377321E+01  0.75400766726E+01  0.17770000000E+01 0.  1.
</event>
<event>
 6    1  0.1097339E-002  0.1836199E+03  0.7546771E-02  0.1067567E+00
        -11   -1    0    0    0    0  0.00000000000E+00  0.00000000000E+00  0.18250000000E+03  0.18250000000E+03  0.00000000000E+00 0.  1.
         11   -1    0    0    0    0 -0.00000000000E+00 -0.00000000000E+00 -0.18250000000E+03  0.18250000000E+03  0.00000000000E+00 0. -1.
        -11    1    1    2    0    0 -0.77766803677E+01  0.42350689411E+01  0.18116379682E+03  0.18138008117E+03  0.00000000000E+00 0.  1.
         11    1    1    2    0    0 -0.21327199475E+01  0.50096224733E+01 -0.99237225088E+02  0.99386476217E+02  0.00000000000E+00 0. -1.
        -15    1    1    2    0    0  0.43605526705E+01  0.25910908534E+01 -0.13200503657E+02  0.14252690876E+02  0.17770000000E+01 0.  1.
         15    1    1    2    0    0  0.55488476446E+01 -0.11835782268E+02 -0.68726068074E+02  0.69980751739E+02  0.17770000000E+01 0. -1.
</event>
<event>
 6    1  0.1097339E-002  0.1845114E+03  0.7546771E-02  0.1066865E+00
        -11   -1    0    0    0    0  0.00000000000E+00  0.00000000000E+00  0.18250000000E+03  0.18250000000E+03  0.00000000000E+00 0.  1.
         11   -1    0    0    0    0 -0.00000000000E+00 -0.00000000000E+00 -0.18250000000E+03  0.18250000000E+03  0.00000000000E+00 0. -1.
        -11    1    1    2    0    0  0.32347282678E+01  0.10154550213E+02  0.13292363829E+03  0.13335018550E+03  0.00000000000E+00 0.  1.
         11    1    1    2    0    0  0.13502266411E+01  0.49988879552E+01 -0.18041428118E+03  0.18048857262E+03  0.00000000000E+00 0. -1.
        -15    1    1    2    0    0 -0.17284735334E+01 -0.15242786891E+02  0.35638278701E+02  0.38840376038E+02  0.17770000000E+01 0. -1.
         15    1    1    2    0    0 -0.28564813756E+01  0.89348723112E-01  0.11852364190E+02  0.12320865835E+02  0.17770000000E+01 0.  1.
</event>
<event>
 6    1  0.1097339E-002  0.1738081E+03  0.7546771E-02  0.1075592E+00
        -11   -1    0    0    0    0  0.00000000000E+00  0.00000000000E+00  0.18250000000E+03  0.18250000000E+03  0.00000000000E+00 0. -1.
         11   -1    0    0    0    0 -0.00000000000E+00 -0.00000000000E+00 -0.18250000000E+03  0.18250000000E+03  0.00000000000E+00 0.  1.
        -11    1    1    2    0    0  0.34929310440E+01 -0.54385090664E+00  0.17369360965E+03  0.17372957829E+03  0.00000000000E+00 0. -1.
         11    1    1    2    0    0  0.32484534203E+01  0.97598358489E+01 -0.17376998148E+03  0.17407416037E+03  0.00000000000E+00 0.  1.
        -15    1    1    2    0    0 -0.93233849867E+00 -0.98719551930E+01 -0.27815830622E+01  0.10450822348E+02  0.17770000000E+01 0.  1.
         15    1    1    2    0    0 -0.58090459657E+01  0.65597025076E+00  0.28579548966E+01  0.67454389918E+01  0.17770000000E+01 0.  1.
</event>
<event>
 6    1  0.1097339E-002  0.1918204E+03  0.7546771E-02  0.1061269E+00
        -11   -1    0    0    0    0  0.00000000000E+00  0.00000000000E+00  0.18250000000E+03  0.18250000000E+03  0.00000000000E+00 0.  1.
         11   -1    0    0    0    0 -0.00000000000E+00 -0.00000000000E+00 -0.18250000000E+03  0.18250000000E+03  0.00000000000E+00 0.  1.
        -11    1    1    2    0    0 -0.59857838372E+00  0.54117984165E+01  0.17309400732E+03  0.17317962129E+03  0.00000000000E+00 0.  1.
         11    1    1    2    0    0  0.69193048141E+01  0.11574837784E+01 -0.16529832188E+03  0.16544712679E+03  0.00000000000E+00 0.  1.
        -15    1    1    2    0    0 -0.35727583969E+01 -0.85153332484E+01  0.65959478774E+01  0.11486503397E+02  0.17770000000E+01 0. -1.
         15    1    1    2    0    0 -0.27479680335E+01  0.19460510534E+01 -0.14391633322E+02  0.14886748526E+02  0.17770000000E+01 0.  1.
</event>
<event>
 6    1  0.1097339E-002  0.1842435E+03  0.7546771E-02  0.1067075E+00
        -11   -1    0    0    0    0  0.00000000000E+00  0.00000000000E+00  0.18250000000E+03  0.18250000000E+03  0.00000000000E+00 0.  1.
         11   -1    0    0    0    0 -0.00000000000E+00 -0.00000000000E+00 -0.18250000000E+03  0.18250000000E+03  0.00000000000E+00 0.  1.
        -11    1    1    2    0    0 -0.25013394551E+01 -0.13338643834E+01  0.18073431551E+03  0.18075654537E+03  0.00000000000E+00 0.  1.
         11    1    1    2    0    0  0.58811137919E+01  0.13639342346E+01 -0.15344161114E+03  0.15356033291E+03  0.00000000000E+00 0.  1.
        -15    1    1    2    0    0 -0.32062908901E+01 -0.54090196334E+00 -0.40071627264E+00  0.37270871652E+01  0.17770000000E+01 0.  1.
         15    1    1    2    0    0 -0.17348344673E+00  0.51083211214E+00 -0.26891988096E+02  0.26956034551E+02  0.17770000000E+01 0.  1.
</event>
<event>
 6    1  0.1097339E-002  0.1833627E+03  0.7546771E-02  0.1067770E+00
        -11   -1    0    0    0    0  0.00000000000E+00  0.00000000000E+00  0.18250000000E+03  0.18250000000E+03  0.00000000000E+00 0.  1.
         11   -1    0    0    0    0 -0.00000000000E+00 -0.00000000000E+00 -0.18250000000E+03  0.18250000000E+03  0.00000000000E+00 0. -1.
        -11    1    1    2    0    0  0.78608318390E+01  0.91449367215E+01  0.18123654052E+03  0.18163729288E+03  0.00000000000E+00 0.  1.
         11    1    1    2    0    0  0.10334053145E+01  0.22667806650E+01 -0.62016260902E+02  0.62066277779E+02  0.00000000000E+00 0. -1.
        -15    1    1    2    0    0 -0.63700581540E+01 -0.12792929766E+02 -0.51052498093E+02  0.53044811088E+02  0.17770000000E+01 0.  1.
         15    1    1    2    0    0 -0.25241789996E+01  0.13812123798E+01 -0.68167781525E+02  0.68251618254E+02  0.17770000000E+01 0. -1.
</event>
<event>
 6    1  0.1097339E-002  0.1851806E+03  0.7546771E-02  0.1066341E+00
        -11   -1    0    0    0    0  0.00000000000E+00  0.00000000000E+00  0.18250000000E+03  0.18250000000E+03  0.00000000000E+00 0.  1.
         11   -1    0    0    0    0 -0.00000000000E+00 -0.00000000000E+00 -0.18250000000E+03  0.18250000000E+03  0.00000000000E+00 0. -1.
        -11    1    1    2    0    0 -0.19439923805E+01 -0.15047374708E+01  0.17980264500E+03  0.17981944970E+03  0.00000000000E+00 0.  1.
         11    1    1    2    0    0 -0.82147045182E+00  0.32083348306E+01 -0.16391070314E+03  0.16394415766E+03  0.00000000000E+00 0. -1.
        -15    1    1    2    0    0 -0.81262199281E+00 -0.41084884659E+01  0.12831966788E+00  0.45512884895E+01  0.17770000000E+01 0. -1.
         15    1    1    2    0    0  0.35780848251E+01  0.24048911060E+01 -0.16020261525E+02  0.16685104152E+02  0.17770000000E+01 0.  1.
</event>
<event>
 6    1  0.1097339E-002  0.1866146E+03  0.7546771E-02  0.1065226E+00
        -11   -1    0    0    0    0  0.00000000000E+00  0.00000000000E+00  0.18250000000E+03  0.18250000000E+03  0.00000000000E+00 0.  1.
         11   -1    0    0    0    0 -0.00000000000E+00 -0.00000000000E+00 -0.18250000000E+03  0.18250000000E+03  0.00000000000E+00 0. -1.
        -11    1    1    2    0    0  0.16826519127E+01 -0.21619439012E+01  0.15668184877E+03  0.15670579776E+03  0.00000000000E+00 0.  1.
         11    1    1    2    0    0  0.16363958712E+01 -0.39846215221E+01 -0.17833338362E+03  0.17838539939E+03  0.00000000000E+00 0. -1.
        -15    1    1    2    0    0 -0.31951478342E+00  0.29200296171E+01  0.24251651603E+02  0.24493448045E+02  0.17770000000E+01 0. -1.
         15    1    1    2    0    0 -0.29995330005E+01  0.32265358062E+01 -0.26001167512E+01  0.54153548036E+01  0.17770000000E+01 0. -1.
</event>
<event>
 6    1  0.1097339E-002  0.1837119E+03  0.7546771E-02  0.1067494E+00
        -11   -1    0    0    0    0  0.00000000000E+00  0.00000000000E+00  0.18250000000E+03  0.18250000000E+03  0.00000000000E+00 0.  1.
         11   -1    0    0    0    0 -0.00000000000E+00 -0.00000000000E+00 -0.18250000000E+03  0.18250000000E+03  0.00000000000E+00 0. -1.
        -11    1    1    2    0    0 -0.26786906620E+01 -0.21661346746E+00  0.17142626077E+03  0.17144732481E+03  0.00000000000E+00 0.  1.
         11    1    1    2    0    0 -0.11894999611E+01 -0.23309470258E+01 -0.18126925655E+03  0.18128814522E+03  0.00000000000E+00 0. -1.
        -15    1    1    2    0    0  0.32401154769E+01  0.24990120764E+01  0.92805379103E+01  0.10297063784E+02  0.17770000000E+01 0.  1.
         15    1    1    2    0    0  0.62807514620E+00  0.48548416930E-01  0.56245787803E+00  0.19674661884E+01  0.17770000000E+01 0.  1.
</event>
<event>
 6    1  0.1097339E-002  0.1829787E+03  0.7546771E-02  0.1068074E+00
        -11   -1    0    0    0    0  0.00000000000E+00  0.00000000000E+00  0.18250000000E+03  0.18250000000E+03  0.00000000000E+00 0.  1.
         11   -1    0    0    0    0 -0.00000000000E+00 -0.00000000000E+00 -0.18250000000E+03  0.18250000000E+03  0.00000000000E+00 0.  1.
        -11    1    1    2    0    0 -0.31909463957E+01 -0.19480966872E+01  0.68754382153E+02  0.68855953155E+02  0.00000000000E+00 0.  1.
         11    1    1    2    0    0  0.11979651952E+01  0.29270781970E+01 -0.18199382479E+03  0.18202130417E+03  0.00000000000E+00 0.  1.
        -15    1    1    2    0    0  0.14293730884E+01  0.98325240115E+00  0.10938349291E+03  0.10941168193E+03  0.17770000000E+01 0.  1.
         15    1    1    2    0    0  0.56360811198E+00 -0.19622339110E+01  0.38559497312E+01  0.47110607463E+01  0.17770000000E+01 0. -1.
</event>
<event>
 6    1  0.1097339E-002  0.1836104E+03  0.7546771E-02  0.1067574E+00
        -11   -1    0    0    0    0  0.00000000000E+00  0.00000000000E+00  0.18250000000E+03  0.18250000000E+03  0.00000000000E+00 0.  1.
         11   -1    0    0    0    0 -0.00000000000E+00 -0.00000000000E+00 -0.18250000000E+03  0.18250000000E+03  0.00000000000E+00 0. -1.
        -11    1    1    2    0    0  0.16978064589E+00  0.28229222815E+01  0.13384119507E+03  0.13387106937E+03  0.00000000000E+00 0.  1.
         11    1    1    2    0    0  0.69969618500E+01  0.77611858625E+01 -0.18108833308E+03  0.18138957483E+03  0.00000000000E+00 0. -1.
        -15    1    1    2    0    0 -0.20650497545E+01 -0.23482850203E+01  0.26836309032E+02  0.27076264227E+02  0.17770000000E+01 0. -1.
         15    1    1    2    0    0 -0.51016927414E+01 -0.82358231237E+01  0.20410828974E+02  0.22663091576E+02  0.17770000000E+01 0. -1.
</event>
<event>
 6    1  0.1097339E-002  0.1851799E+03  0.7546771E-02  0.1066341E+00
        -11   -1    0    0    0    0  0.00000000000E+00  0.00000000000E+00  0.18250000000E+03  0.18250000000E+03  0.00000000000E+00 0.  1.
         11   -1    0    0    0    0 -0.00000000000E+00 -0.00000000000E+00 -0.18250000000E+03  0.18250000000E+03  0.00000000000E+00 0. -1.
        -11    1    1    2    0    0 -0.16593178697E+01 -0.21569180243E+01  0.17979947385E+03  0.17982006681E+03  0.00000000000E+00 0.  1.
         11    1    1    2    0    0  0.92541023668E+01 -0.42323068205E+01 -0.16004076465E+03  0.16036395225E+03  0.00000000000E+00 0. -1.
        -15    1    1    2    0    0 -0.33207536943E+01 -0.19533548150E+01 -0.20754402637E+01  0.47231537577E+01  0.17770000000E+01 0.  1.
         15    1    1    2    0    0 -0.42740308029E+01  0.83425796598E+01 -0.17683268943E+02  0.20092827183E+02  0.17770000000E+01 0. -1.
</event>
<event>
 6    1  0.1097339E-002  0.1864012E+03  0.7546771E-02  0.1065391E+00
        -11   -1    0    0    0    0  0.00000000000E+00  0.00000000000E+00  0.18250000000E+03  0.18250000000E+03  0.00000000000E+00 0. -1.
         11   -1    0    0    0    0 -0.00000000000E+00 -0.00000000000E+00 -0.18250000000E+03  0.18250000000E+03  0.00000000000E+00 0.  1.
        -11    1    1    2    0    0 -0.49847267655E+00 -0.23926927362E+01  0.15350655409E+03  0.15352600953E+03  0.00000000000E+00 0. -1.
         11    1    1    2    0    0 -0.38405956799E+00 -0.30493493564E+01 -0.17857231057E+03  0.17859875738E+03  0.00000000000E+00 0.  1.
        -15    1    1    2    0    0  0.67206822133E+00 -0.45018747416E+01 -0.93981180582E+00  0.49758946044E+01  0.17770000000E+01 0. -1.
         15    1    1    2    0    0  0.21046402321E+00  0.99439168342E+01  0.26005568284E+02  0.27899338484E+02  0.17770000000E+01 0.  1.
</event>
<event>
 6    1  0.1097339E-002  0.1843410E+03  0.7546771E-02  0.1066999E+00
        -11   -1    0    0    0    0  0.00000000000E+00  0.00000000000E+00  0.18250000000E+03  0.18250000000E+03  0.00000000000E+00 0. -1.
         11   -1    0    0    0    0 -0.00000000000E+00 -0.00000000000E+00 -0.18250000000E+03  0.18250000000E+03  0.00000000000E+00 0. -1.
        -11    1    1    2    0    0  0.33867629714E+01 -0.88851501115E+00  0.17526500698E+03  0.17529997802E+03  0.00000000000E+00 0. -1.
         11    1    1    2    0    0 -0.15688118706E+01 -0.24786299091E+01 -0.18063519473E+03  0.18065901127E+03  0.00000000000E+00 0. -1.
        -15    1    1    2    0    0 -0.10646713002E+01  0.45569514888E+01  0.37319754724E+01  0.62437730400E+01  0.17770000000E+01 0. -1.
         15    1    1    2    0    0 -0.75327980061E+00 -0.11898065685E+01  0.16382122726E+01  0.27972376693E+01  0.17770000000E+01 0. -1.
</event>
<event>
 6    1  0.1097339E-002  0.1762904E+03  0.7546771E-02  0.1073508E+00
        -11   -1    0    0    0    0  0.00000000000E+00  0.00000000000E+00  0.18250000000E+03  0.18250000000E+03  0.00000000000E+00 0. -1.
         11   -1    0    0    0    0 -0.00000000000E+00 -0.00000000000E+00 -0.18250000000E+03  0.18250000000E+03  0.00000000000E+00 0.  1.
        -11    1    1    2    0    0 -0.17789065103E+01  0.18643422438E+01  0.17502386744E+03  0.17504283605E+03  0.00000000000E+00 0. -1.
         11    1    1    2    0    0 -0.55773194931E+01 -0.75287462873E+00 -0.17753620463E+03  0.17762538464E+03  0.00000000000E+00 0.  1.
        -15    1    1    2    0    0 -0.73599617840E+00 -0.29794246131E+01  0.32216713463E+00  0.35609243270E+01  0.17770000000E+01 0.  1.
         15    1    1    2    0    0  0.80922221818E+01  0.18679569980E+01  0.21901700588E+01  0.87708549795E+01  0.17770000000E+01 0. -1.
</event>
<event>
 6    1  0.1097339E-002  0.1843927E+03  0.7546771E-02  0.1066958E+00
        -11   -1    0    0    0    0  0.00000000000E+00  0.00000000000E+00  0.18250000000E+03  0.18250000000E+03  0.00000000000E+00 0.  1.
         11   -1    0    0    0    0 -0.00000000000E+00 -0.00000000000E+00 -0.18250000000E+03  0.18250000000E+03  0.00000000000E+00 0.  1.
        -11    1    1    2    0    0 -0.18148808182E+01  0.16968921049E+01  0.16956458262E+03  0.16958278484E+03  0.00000000000E+00 0.  1.
         11    1    1    2    0    0 -0.42806802332E+01 -0.40776416947E+00 -0.18055611344E+03  0.18060731047E+03  0.00000000000E+00 0.  1.
        -15    1    1    2    0    0 -0.76316954613E+00 -0.18818980747E+01  0.40988055504E+01  0.49073316639E+01  0.17770000000E+01 0. -1.
         15    1    1    2    0    0  0.68587305976E+01  0.59277013931E+00  0.68927252665E+01  0.99025730216E+01  0.17770000000E+01 0. -1.
</event>
<event>
 6    1  0.1097339E-002  0.1833313E+03  0.7546771E-02  0.1067795E+00
        -11   -1    0    0    0    0  0.00000000000E+00  0.00000000000E+00  0.18250000000E+03  0.18250000000E+03  0.00000000000E+00 0. -1.
         11   -1    0    0    0    0 -0.00000000000E+00 -0.00000000000E+00 -0.18250000000E+03  0.18250000000E+03  0.00000000000E+00 0.  1.
        -11    1    1    2    0    0  0.29195330057E+00 -0.45616024379E+00  0.32187175079E+02  0.32191731213E+02  0.00000000000E+00 0. -1.
         11    1    1    2    0    0 -0.10505211829E+02 -0.51178720131E+01 -0.18129244110E+03  0.18166865797E+03  0.00000000000E+00 0.  1.
        -15    1    1    2    0    0  0.28205955397E+00 -0.20088200753E+01  0.11031200805E+03  0.11034496711E+03  0.17770000000E+01 0. -1.
         15    1    1    2    0    0  0.99311989743E+01  0.75828523322E+01  0.38793257968E+02  0.40794643709E+02  0.17770000000E+01 0.  1.
</event>
<event>
 6    1  0.1097339E-002  0.1875105E+03  0.7546771E-02  0.1064535E+00
        -11   -1    0    0    0    0  0.00000000000E+00  0.00000000000E+00  0.18250000000E+03  0.18250000000E+03  0.00000000000E+00 0.  1.
         11   -1    0    0    0    0 -0.00000000000E+00 -0.00000000000E+00 -0.18250000000E+03  0.18250000000E+03  0.00000000000E+00 0.  1.
        -11    1    1    2    0    0 -0.88253629878E+01  0.17157097267E+02  0.11303657366E+03  0.11467135651E+03  0.00000000000E+00 0.  1.
         11    1    1    2    0    0  0.66811048965E+01 -0.64031979345E+01 -0.17724806770E+03  0.17748948028E+03  0.00000000000E+00 0.  1.
        -15    1    1    2    0    0 -0.95326691616E+01  0.20122673963E+00  0.39686143174E+01  0.10479499136E+02  0.17770000000E+01 0. -1.
         15    1    1    2    0    0  0.11676927253E+02 -0.10955126072E+02  0.60242879720E+02  0.62359664073E+02  0.17770000000E+01 0.  1.
</event>
<event>
 6    1  0.1097339E-002  0.1877048E+03  0.7546771E-02  0.1064386E+00
        -11   -1    0    0    0    0  0.00000000000E+00  0.00000000000E+00  0.18250000000E+03  0.18250000000E+03  0.00000000000E+00 0.  1.
         11   -1    0    0    0    0 -0.00000000000E+00 -0.00000000000E+00 -0.18250000000E+03  0.18250000000E+03  0.00000000000E+00 0.  1.
        -11    1    1    2    0    0 -0.44038333208E+01  0.11484213239E+02  0.14686171095E+03  0.14737585638E+03  0.00000000000E+00 0.  1.
         11    1    1    2    0    0 -0.20420669785E+01 -0.16488907343E+01 -0.17727579468E+03  0.17729522345E+03  0.00000000000E+00 0.  1.
        -15    1    1    2    0    0  0.47713601771E+01 -0.15553563629E+02  0.29905160411E+02  0.34090402868E+02  0.17770000000E+01 0.  1.
         15    1    1    2    0    0  0.16745401222E+01  0.57182411243E+01  0.50892332264E+00  0.62385173018E+01  0.17770000000E+01 0. -1.
</event>
<event>
 6    1  0.1097339E-002  0.1881193E+03  0.7546771E-02  0.1064068E+00
        -11   -1    0    0    0    0  0.00000000000E+00  0.00000000000E+00  0.18250000000E+03  0.18250000000E+03  0.00000000000E+00 0.  1.
         11   -1    0    0    0    0 -0.00000000000E+00 -0.00000000000E+00 -0.18250000000E+03  0.18250000000E+03  0.00000000000E+00 0. -1.
        -11    1    1    2    0    0  0.42918570839E+01 -0.59357346563E+00  0.17682764053E+03  0.17688071354E+03  0.00000000000E+00 0.  1.
         11    1    1    2    0    0 -0.27647929404E+01  0.44995058758E+00 -0.17327095644E+03  0.17329359734E+03  0.00000000000E+00 0. -1.
        -15    1    1    2    0    0 -0.69398433449E+01 -0.30729213050E+01 -0.12851179808E+01  0.79002233022E+01  0.17770000000E+01 0. -1.
         15    1    1    2    0    0  0.54127792014E+01  0.32165441831E+01 -0.22715661132E+01  0.69254658162E+01  0.17770000000E+01 0.  1.
</event>
<event>
 6    1  0.1097339E-002  0.1883294E+03  0.7546771E-02  0.1063907E+00
        -11   -1    0    0    0    0  0.00000000000E+00  0.00000000000E+00  0.18250000000E+03  0.18250000000E+03  0.00000000000E+00 0.  1.
         11   -1    0    0    0    0 -0.00000000000E+00 -0.00000000000E+00 -0.18250000000E+03  0.18250000000E+03  0.00000000000E+00 0. -1.
        -11    1    1    2    0    0  0.18146577841E+01 -0.16669958475E+01  0.17665338543E+03  0.17667057039E+03  0.00000000000E+00 0.  1.
         11    1    1    2    0    0  0.39590595356E+01 -0.44592662481E+01 -0.13912017693E+03  0.13924791861E+03  0.00000000000E+00 0. -1.
        -15    1    1    2    0    0 -0.11544317940E+02  0.75562852122E+01 -0.33092149180E+01  0.14299557870E+02  0.17770000000E+01 0. -1.
         15    1    1    2    0    0  0.57706006207E+01 -0.14300231166E+01 -0.34223993579E+02  0.34781953125E+02  0.17770000000E+01 0.  1.
</event>
<event>
 6    1  0.1097339E-002  0.1792426E+03  0.7546771E-02  0.1071078E+00
        -11   -1    0    0    0    0  0.00000000000E+00  0.00000000000E+00  0.18250000000E+03  0.18250000000E+03  0.00000000000E+00 0. -1.
         11   -1    0    0    0    0 -0.00000000000E+00 -0.00000000000E+00 -0.18250000000E+03  0.18250000000E+03  0.00000000000E+00 0. -1.
        -11    1    1    2    0    0 -0.20177922318E+01 -0.36260214828E+01  0.18206576510E+03  0.18211304824E+03  0.00000000000E+00 0. -1.
         11    1    1    2    0    0  0.66712695945E+00  0.39890825765E-01 -0.71448949461E+01  0.71760834338E+01  0.00000000000E+00 0. -1.
        -15    1    1    2    0    0 -0.29995628057E+01 -0.20761578372E+01 -0.13822420022E+03  0.13828374837E+03  0.17770000000E+01 0. -1.
         15    1    1    2    0    0  0.43502280781E+01  0.56622884942E+01 -0.36696669931E+02  0.37427119958E+02  0.17770000000E+01 0. -1.
</event>
<event>
 6    1  0.1097339E-002  0.1890764E+03  0.7546771E-02  0.1063337E+00
        -11   -1    0    0    0    0  0.00000000000E+00  0.00000000000E+00  0.18250000000E+03  0.18250000000E+03  0.00000000000E+00 0. -1.
         11   -1    0    0    0    0 -0.00000000000E+00 -0.00000000000E+00 -0.18250000000E+03  0.18250000000E+03  0.00000000000E+00 0. -1.
        -11    1    1    2    0    0 -0.38907486667E+01 -0.48967992195E+01  0.14261872904E+03  0.14275580002E+03  0.00000000000E+00 0. -1.
         11    1    1    2    0    0 -0.34564082857E+01  0.21574351125E+01 -0.17587641316E+03  0.17592360271E+03  0.00000000000E+00 0. -1.
        -15    1    1    2    0    0  0.10297186427E+02 -0.10412697731E+02  0.28180366067E+02  0.31807972005E+02  0.17770000000E+01 0. -1.
         15    1    1    2    0    0 -0.29500294745E+01  0.13152061838E+02  0.50773180490E+01  0.14512625264E+02  0.17770000000E+01 0.  1.
</event>
<event>
 6    1  0.1097339E-002  0.1865148E+03  0.7546771E-02  0.1065303E+00
        -11   -1    0    0    0    0  0.00000000000E+00  0.00000000000E+00  0.18250000000E+03  0.18250000000E+03  0.00000000000E+00 0.  1.
         11   -1    0    0    0    0 -0.00000000000E+00 -0.00000000000E+00 -0.18250000000E+03  0.18250000000E+03  0.00000000000E+00 0. -1.
        -11    1    1    2    0    0  0.15018697304E+01  0.47251544199E+01  0.17841630125E+03  0.17848517935E+03  0.00000000000E+00 0.  1.
         11    1    1    2    0    0 -0.15153405940E+01  0.10237739457E+02 -0.16379918484E+03  0.16412580699E+03  0.00000000000E+00 0. -1.
        -15    1    1    2    0    0  0.12448638477E+01 -0.14233274160E+02 -0.11027525560E+02  0.18135595614E+02  0.17770000000E+01 0. -1.
         15    1    1    2    0    0 -0.12313929841E+01 -0.72961971718E+00 -0.35895908441E+01  0.42534180421E+01  0.17770000000E+01 0.  1.
</event>
<event>
 6    1  0.1097339E-002  0.1626780E+03  0.7546771E-02  0.1085428E+00
        -11   -1    0    0    0    0  0.00000000000E+00  0.00000000000E+00  0.18250000000E+03  0.18250000000E+03  0.00000000000E+00 0.  1.
         11   -1    0    0    0    0 -0.00000000000E+00 -0.00000000000E+00 -0.18250000000E+03  0.18250000000E+03  0.00000000000E+00 0. -1.
        -11    1    1    2    0    0  0.27590105791E+01  0.63394937993E+01  0.16971394668E+03  0.16985471739E+03  0.00000000000E+00 0.  1.
         11    1    1    2    0    0  0.18146592690E+02 -0.84175849242E-01 -0.15548711738E+03  0.15654248492E+03  0.00000000000E+00 0. -1.
        -15    1    1    2    0    0 -0.24279868470E+02 -0.36511860708E+01 -0.19636935232E+02  0.31489841647E+02  0.17770000000E+01 0. -1.
         15    1    1    2    0    0  0.33742652012E+01 -0.26041318793E+01  0.54101059312E+01  0.71129560437E+01  0.17770000000E+01 0.  1.
</event>
<event>
 6    1  0.1097339E-002  0.1295354E+03  0.7546771E-02  0.1120741E+00
        -11   -1    0    0    0    0  0.00000000000E+00  0.00000000000E+00  0.18250000000E+03  0.18250000000E+03  0.00000000000E+00 0.  1.
         11   -1    0    0    0    0 -0.00000000000E+00 -0.00000000000E+00 -0.18250000000E+03  0.18250000000E+03  0.00000000000E+00 0. -1.
        -11    1    1    2    0    0  0.32787148173E+01 -0.92128997023E+01  0.13283351730E+03  0.13319298334E+03  0.00000000000E+00 0.  1.
         11    1    1    2    0    0  0.22187064733E+02 -0.29761736953E+01 -0.12553346359E+03  0.12751381859E+03  0.00000000000E+00 0. -1.
        -15    1    1    2    0    0 -0.29733192948E+02  0.12884137895E+02 -0.50942207797E+02  0.60401407570E+02  0.17770000000E+01 0.  1.
         15    1    1    2    0    0  0.42674133980E+01 -0.69506449759E+00  0.43642154079E+02  0.43891790501E+02  0.17770000000E+01 0. -1.
</event>
<event>
 6    1  0.1097339E-002  0.1830528E+03  0.7546771E-02  0.1068016E+00
        -11   -1    0    0    0    0  0.00000000000E+00  0.00000000000E+00  0.18250000000E+03  0.18250000000E+03  0.00000000000E+00 0. -1.
         11   -1    0    0    0    0 -0.00000000000E+00 -0.00000000000E+00 -0.18250000000E+03  0.18250000000E+03  0.00000000000E+00 0. -1.
        -11    1    1    2    0    0 -0.28566943591E+01  0.30125996170E+00  0.18192451045E+03  0.18194718729E+03  0.00000000000E+00 0. -1.
         11    1    1    2    0    0 -0.27845230802E+00  0.30844030027E+01 -0.16412652135E+03  0.16415573730E+03  0.00000000000E+00 0. -1.
        -15    1    1    2    0    0  0.23669248192E+01 -0.14159039968E+01 -0.12487480752E+02  0.12911313712E+02  0.17770000000E+01 0.  1.
         15    1    1    2    0    0  0.76822184789E+00 -0.19697589676E+01 -0.53105083486E+01  0.59857616991E+01  0.17770000000E+01 0. -1.
</event>
<event>
 6    1  0.1097339E-002  0.1827916E+03  0.7546771E-02  0.1068223E+00
        -11   -1    0    0    0    0  0.00000000000E+00  0.00000000000E+00  0.18250000000E+03  0.18250000000E+03  0.00000000000E+00 0. -1.
         11   -1    0    0    0    0 -0.00000000000E+00 -0.00000000000E+00 -0.18250000000E+03  0.18250000000E+03  0.00000000000E+00 0. -1.
        -11    1    1    2    0    0 -0.49060125375E+00  0.54347284505E+00  0.11584772260E+02  0.11607885279E+02  0.00000000000E+00 0. -1.
         11    1    1    2    0    0 -0.25650517063E+01 -0.24578354488E+01 -0.18217375691E+03  0.18220839210E+03  0.00000000000E+00 0. -1.
        -15    1    1    2    0    0  0.56978685198E+01  0.55380946682E+01  0.68734213296E+02  0.69214781692E+02  0.17770000000E+01 0. -1.
         15    1    1    2    0    0 -0.26422155597E+01 -0.36237320644E+01  0.10185477135E+03  0.10196894093E+03  0.17770000000E+01 0.  1.
</event>
<event>
 6    1  0.1097339E-002  0.1826749E+03  0.7546771E-02  0.1068316E+00
        -11   -1    0    0    0    0  0.00000000000E+00  0.00000000000E+00  0.18250000000E+03  0.18250000000E+03  0.00000000000E+00 0. -1.
         11   -1    0    0    0    0 -0.00000000000E+00 -0.00000000000E+00 -0.18250000000E+03  0.18250000000E+03  0.00000000000E+00 0. -1.
        -11    1    1    2    0    0  0.66089479980E+00  0.66242488389E+00  0.44222797184E+02  0.44232695820E+02  0.00000000000E+00 0. -1.
         11    1    1    2    0    0  0.22609824789E+01 -0.52524800817E+01 -0.18223536142E+03  0.18232506010E+03  0.00000000000E+00 0. -1.
        -15    1    1    2    0    0  0.25340774735E+01  0.28708085471E+01  0.82388098971E+02  0.82496179738E+02  0.17770000000E+01 0. -1.
         15    1    1    2    0    0 -0.54559547521E+01  0.17192466507E+01  0.55624465261E+02  0.55946064346E+02  0.17770000000E+01 0.  1.
</event>
<event>
 6    1  0.1097339E-002  0.1871002E+03  0.7546771E-02  0.1064851E+00
        -11   -1    0    0    0    0  0.00000000000E+00  0.00000000000E+00  0.18250000000E+03  0.18250000000E+03  0.00000000000E+00 0. -1.
         11   -1    0    0    0    0 -0.00000000000E+00 -0.00000000000E+00 -0.18250000000E+03  0.18250000000E+03  0.00000000000E+00 0. -1.
        -11    1    1    2    0    0 -0.24963008121E+01  0.15911820488E+01  0.17787516892E+03  0.17789980072E+03  0.00000000000E+00 0. -1.
         11    1    1    2    0    0 -0.24291572597E+01  0.31374945630E+01 -0.11870001686E+03  0.11876631964E+03  0.00000000000E+00 0. -1.
        -15    1    1    2    0    0 -0.96377196895E+00 -0.32517538540E+01  0.35912116823E+01  0.52495037748E+01  0.17770000000E+01 0.  1.
         15    1    1    2    0    0  0.58892300407E+01 -0.14769227577E+01 -0.62766363742E+02  0.63084375861E+02  0.17770000000E+01 0. -1.
</event>
<event>
 6    1  0.1097339E-002  0.1930511E+03  0.7546771E-02  0.1060353E+00
        -11   -1    0    0    0    0  0.00000000000E+00  0.00000000000E+00  0.18250000000E+03  0.18250000000E+03  0.00000000000E+00 0.  1.
         11   -1    0    0    0    0 -0.00000000000E+00 -0.00000000000E+00 -0.18250000000E+03  0.18250000000E+03  0.00000000000E+00 0.  1.
        -11    1    1    2    0    0  0.34229595855E+01  0.32050920662E+01  0.17188492833E+03  0.17194888152E+03  0.00000000000E+00 0.  1.
         11    1    1    2    0    0 -0.68134367892E+01  0.11716960446E+01 -0.16673793976E+03  0.16688120430E+03  0.00000000000E+00 0.  1.
        -15    1    1    2    0    0  0.42422133598E+01 -0.13293225858E+02  0.24662161424E+01  0.14280972620E+02  0.17770000000E+01 0.  1.
         15    1    1    2    0    0 -0.85173615612E+00  0.89164377474E+01 -0.76132047156E+01  0.11888941569E+02  0.17770000000E+01 0. -1.
</event>
<event>
 6    1  0.1097339E-002  0.1838028E+03  0.7546771E-02  0.1067423E+00
        -11   -1    0    0    0    0  0.00000000000E+00  0.00000000000E+00  0.18250000000E+03  0.18250000000E+03  0.00000000000E+00 0.  1.
         11   -1    0    0    0    0 -0.00000000000E+00 -0.00000000000E+00 -0.18250000000E+03  0.18250000000E+03  0.00000000000E+00 0.  1.
        -11    1    1    2    0    0 -0.27587287248E+01  0.20748877528E+00  0.18117610305E+03  0.18119722391E+03  0.00000000000E+00 0.  1.
         11    1    1    2    0    0  0.15721415315E+01 -0.51711900546E+01 -0.10855546689E+03  0.10868993618E+03  0.00000000000E+00 0.  1.
        -15    1    1    2    0    0  0.30828354617E+01  0.47381459630E-01 -0.16463048494E+01  0.39209907095E+01  0.17770000000E+01 0.  1.
         15    1    1    2    0    0 -0.18962482684E+01  0.49163198197E+01 -0.70974331313E+02  0.71191849199E+02  0.17770000000E+01 0.  1.
</event>
<event>
 6    1  0.1097339E-002  0.1829585E+03  0.7546771E-02  0.1068090E+00
        -11   -1    0    0    0    0  0.00000000000E+00  0.00000000000E+00  0.18250000000E+03  0.18250000000E+03  0.00000000000E+00 0.  1.
         11   -1    0    0    0    0 -0.00000000000E+00 -0.00000000000E+00 -0.18250000000E+03  0.18250000000E+03  0.00000000000E+00 0. -1.
        -11    1    1    2    0    0 -0.47465709125E+01 -0.11436735468E+01  0.18197601592E+03  0.18204150158E+03  0.00000000000E+00 0.  1.
         11    1    1    2    0    0  0.40127849609E+01 -0.26655076509E+01 -0.12937614832E+03  0.12946580680E+03  0.00000000000E+00 0. -1.
        -15    1    1    2    0    0  0.23821538302E+01 -0.14163306299E+01 -0.10595053475E+02  0.11094752655E+02  0.17770000000E+01 0. -1.
         15    1    1    2    0    0 -0.16483678786E+01  0.52255118276E+01 -0.42004814124E+02  0.42397938972E+02  0.17770000000E+01 0.  1.
</event>
<event>
 6    1  0.1097339E-002  0.1830758E+03  0.7546771E-02  0.1067997E+00
        -11   -1    0    0    0    0  0.00000000000E+00  0.00000000000E+00  0.18250000000E+03  0.18250000000E+03  0.00000000000E+00 0. -1.
         11   -1    0    0    0    0 -0.00000000000E+00 -0.00000000000E+00 -0.18250000000E+03  0.18250000000E+03  0.00000000000E+00 0.  1.
        -11    1    1    2    0    0 -0.45676046788E+01  0.58003368203E+01  0.15452970635E+03  0.15470596971E+03  0.00000000000E+00 0. -1.
         11    1    1    2    0    0  0.49939518187E+01 -0.28501961672E+01 -0.18183330407E+03  0.18192419752E+03  0.00000000000E+00 0.  1.
        -15    1    1    2    0    0 -0.13013643816E+01  0.15175692693E+01  0.12407776846E+02  0.12692801937E+02  0.17770000000E+01 0. -1.
         15    1    1    2    0    0  0.87501724167E+00 -0.44677099224E+01  0.14895820875E+02  0.15677030830E+02  0.17770000000E+01 0.  1.
</event>
<event>
 6    1  0.1097339E-002  0.1878377E+03  0.7546771E-02  0.1064284E+00
        -11   -1    0    0    0    0  0.00000000000E+00  0.00000000000E+00  0.18250000000E+03  0.18250000000E+03  0.00000000000E+00 0.  1.
         11   -1    0    0    0    0 -0.00000000000E+00 -0.00000000000E+00 -0.18250000000E+03  0.18250000000E+03  0.00000000000E+00 0. -1.
        -11    1    1    2    0    0 -0.28079790660E+01  0.11804824322E+01  0.17713612309E+03  0.17716231086E+03  0.00000000000E+00 0.  1.
         11    1    1    2    0    0  0.11951311470E+01 -0.25095648043E+01 -0.17364090077E+03  0.17366314714E+03  0.00000000000E+00 0. -1.
        -15    1    1    2    0    0  0.22580301830E+01  0.52945094381E+01 -0.64923086198E+01  0.88565416904E+01  0.17770000000E+01 0. -1.
         15    1    1    2    0    0 -0.64518226405E+00 -0.39654270661E+01  0.29970863056E+01  0.53180003096E+01  0.17770000000E+01 0.  1.
</event>
<event>
 6    1  0.1097339E-002  0.1486502E+03  0.7546771E-02  0.1099131E+00
        -11   -1    0    0    0    0  0.00000000000E+00  0.00000000000E+00  0.18250000000E+03  0.18250000000E+03  0.00000000000E+00 0.  1.
         11   -1    0    0    0    0 -0.00000000000E+00 -0.00000000000E+00 -0.18250000000E+03  0.18250000000E+03  0.00000000000E+00 0. -1.
        -11    1    1    2    0    0  0.49645831209E+00  0.21498014133E+01  0.16039508443E+03  0.16041025911E+03  0.00000000000E+00 0.  1.
         11    1    1    2    0    0 -0.49539367740E+01 -0.24872824393E+01 -0.43721601107E+02  0.44071606129E+02  0.00000000000E+00 0. -1.
        -15    1    1    2    0    0  0.83185987499E+01  0.19115928832E+01  0.21016736213E+02  0.22753333878E+02  0.17770000000E+01 0.  1.
         15    1    1    2    0    0 -0.38611202880E+01 -0.15741118572E+01 -0.13769021954E+03  0.13776480089E+03  0.17770000000E+01 0. -1.
</event>
<event>
 6    1  0.1097339E-002  0.1830239E+03  0.7546771E-02  0.1068039E+00
        -11   -1    0    0    0    0  0.00000000000E+00  0.00000000000E+00  0.18250000000E+03  0.18250000000E+03  0.00000000000E+00 0. -1.
         11   -1    0    0    0    0 -0.00000000000E+00 -0.00000000000E+00 -0.18250000000E+03  0.18250000000E+03  0.00000000000E+00 0.  1.
        -11    1    1    2    0    0  0.41227856224E+00  0.67442544115E+01  0.15327565410E+03  0.15342451265E+03  0.00000000000E+00 0. -1.
         11    1    1    2    0    0 -0.81719963221E+00 -0.60889339768E+01 -0.18187234396E+03  0.18197607653E+03  0.00000000000E+00 0.  1.
        -15    1    1    2    0    0  0.74329922374E+00 -0.27352256517E+01  0.24056182011E+02  0.24287683608E+02  0.17770000000E+01 0. -1.
         15    1    1    2    0    0 -0.33837815378E+00  0.20799052170E+01  0.45405078500E+01  0.53117272165E+01  0.17770000000E+01 0.  1.
</event>
<event>
 6    1  0.1097339E-002  0.1834345E+03  0.7546771E-02  0.1067713E+00
        -11   -1    0    0    0    0  0.00000000000E+00  0.00000000000E+00  0.18250000000E+03  0.18250000000E+03  0.00000000000E+00 0.  1.
         11   -1    0    0    0    0 -0.00000000000E+00 -0.00000000000E+00 -0.18250000000E+03  0.18250000000E+03  0.00000000000E+00 0.  1.
        -11    1    1    2    0    0 -0.20708747074E+01  0.11995424345E+01  0.16098440793E+03  0.16100219570E+03  0.00000000000E+00 0.  1.
         11    1    1    2    0    0  0.38116816605E+00  0.25985481691E+01 -0.18154646202E+03  0.18156545821E+03  0.00000000000E+00 0.  1.
        -15    1    1    2    0    0 -0.14120261723E+01 -0.38765286792E+01  0.16097246562E+02  0.16712281962E+02  0.17770000000E+01 0.  1.
         15    1    1    2    0    0  0.31017327137E+01  0.78438075530E-01  0.44648075264E+01  0.57200641261E+01  0.17770000000E+01 0.  1.
</event>
<event>
 6    1  0.1097339E-002  0.1864693E+03  0.7546771E-02  0.1065338E+00
        -11   -1    0    0    0    0  0.00000000000E+00  0.00000000000E+00  0.18250000000E+03  0.18250000000E+03  0.00000000000E+00 0. -1.
         11   -1    0    0    0    0 -0.00000000000E+00 -0.00000000000E+00 -0.18250000000E+03  0.18250000000E+03  0.00000000000E+00 0.  1.
        -11    1    1    2    0    0  0.47876533196E+01  0.43622498771E+01  0.17841317153E+03  0.17853069939E+03  0.00000000000E+00 0. -1.
         11    1    1    2    0    0 -0.29876865886E+01 -0.28037482779E+01 -0.17353273854E+03  0.17358110099E+03  0.00000000000E+00 0.  1.
        -15    1    1    2    0    0 -0.44238049582E+01 -0.44082091965E+01 -0.55898268945E+01  0.85677448806E+01  0.17770000000E+01 0. -1.
         15    1    1    2    0    0  0.26238382272E+01  0.28497075972E+01  0.70939390889E+00  0.43204547388E+01  0.17770000000E+01 0.  1.
</event>
<event>
 6    1  0.1097339E-002  0.1871189E+03  0.7546771E-02  0.1064836E+00
        -11   -1    0    0    0    0  0.00000000000E+00  0.00000000000E+00  0.18250000000E+03  0.18250000000E+03  0.00000000000E+00 0.  1.
         11   -1    0    0    0    0 -0.00000000000E+00 -0.00000000000E+00 -0.18250000000E+03  0.18250000000E+03  0.00000000000E+00 0.  1.
        -11    1    1    2    0    0 -0.57935121250E+01  0.17256919895E+01  0.17777835994E+03  0.17788110652E+03  0.00000000000E+00 0.  1.
         11    1    1    2    0    0  0.23648094684E+01  0.50019376256E+01 -0.13939768526E+03  0.13950744195E+03  0.00000000000E+00 0.  1.
        -15    1    1    2    0    0  0.14039770727E+02 -0.94576944044E+01 -0.24642923764E+02  0.29949867548E+02  0.17770000000E+01 0.  1.
         15    1    1    2    0    0 -0.10611068070E+02  0.27300647893E+01 -0.13737750918E+02  0.17661583978E+02  0.17770000000E+01 0. -1.
</event>
<event>
 6    1  0.1097339E-002  0.1830861E+03  0.7546771E-02  0.1067989E+00
        -11   -1    0    0    0    0  0.00000000000E+00  0.00000000000E+00  0.18250000000E+03  0.18250000000E+03  0.00000000000E+00 0.  1.
         11   -1    0    0    0    0 -0.00000000000E+00 -0.00000000000E+00 -0.18250000000E+03  0.18250000000E+03  0.00000000000E+00 0. -1.
        -11    1    1    2    0    0 -0.14204122541E+00 -0.25659020532E+01  0.18189572223E+03  0.18191387467E+03  0.00000000000E+00 0.  1.
         11    1    1    2    0    0 -0.17540373828E+01 -0.14390431673E+01 -0.16511898771E+03  0.16513457420E+03  0.00000000000E+00 0. -1.
        -15    1    1    2    0    0  0.72973848961E+00  0.18248659414E+01 -0.11984091400E+02  0.12273501116E+02  0.17770000000E+01 0. -1.
         15    1    1    2    0    0  0.11663401186E+01  0.21800792791E+01 -0.47926431185E+01  0.56780500171E+01  0.17770000000E+01 0.  1.
</event>
<event>
 6    1  0.1097339E-002  0.1874010E+03  0.7546771E-02  0.1064619E+00
        -11   -1    0    0    0    0  0.00000000000E+00  0.00000000000E+00  0.18250000000E+03  0.18250000000E+03  0.00000000000E+00 0. -1.
         11   -1    0    0    0    0 -0.00000000000E+00 -0.00000000000E+00 -0.18250000000E+03  0.18250000000E+03  0.00000000000E+00 0. -1.
        -11    1    1    2    0    0 -0.14541042555E+00 -0.36749790006E+01  0.15462865830E+03  0.15467239114E+03  0.00000000000E+00 0. -1.
         11    1    1    2    0    0 -0.89367668890E+00 -0.29624396819E+01 -0.17757203545E+03  0.17759899346E+03  0.00000000000E+00 0. -1.
        -15    1    1    2    0    0 -0.66864592903E+00  0.49331588651E+01  0.27096565278E+02  0.27607330958E+02  0.17770000000E+01 0. -1.
         15    1    1    2    0    0  0.17077330435E+01  0.17042598175E+01 -0.41531881262E+01  0.51212844371E+01  0.17770000000E+01 0. -1.
</event>
<event>
 6    1  0.1097339E-002  0.1828245E+03  0.7546771E-02  0.1068197E+00
        -11   -1    0    0    0    0  0.00000000000E+00  0.00000000000E+00  0.18250000000E+03  0.18250000000E+03  0.00000000000E+00 0. -1.
         11   -1    0    0    0    0 -0.00000000000E+00 -0.00000000000E+00 -0.18250000000E+03  0.18250000000E+03  0.00000000000E+00 0. -1.
        -11    1    1    2    0    0  0.53264456174E+00  0.49008157214E+01  0.87518040262E+02  0.87656768570E+02  0.00000000000E+00 0. -1.
         11    1    1    2    0    0  0.70481634243E+00 -0.45013026547E+01 -0.18211856340E+03  0.18217554618E+03  0.00000000000E+00 0. -1.
        -15    1    1    2    0    0  0.19858971839E+00 -0.35429156852E+01  0.16500004182E+02  0.16970549680E+02  0.17770000000E+01 0. -1.
         15    1    1    2    0    0 -0.14360506226E+01  0.31434026185E+01  0.78100518954E+02  0.78197135570E+02  0.17770000000E+01 0. -1.
</event>
<event>
 6    1  0.1097339E-002  0.1960487E+03  0.7546771E-02  0.1058154E+00
        -11   -1    0    0    0    0  0.00000000000E+00  0.00000000000E+00  0.18250000000E+03  0.18250000000E+03  0.00000000000E+00 0. -1.
         11   -1    0    0    0    0 -0.00000000000E+00 -0.00000000000E+00 -0.18250000000E+03  0.18250000000E+03  0.00000000000E+00 0.  1.
        -11    1    1    2    0    0  0.20269769997E+01  0.15406264233E+01  0.16639814867E+03  0.16641762541E+03  0.00000000000E+00 0. -1.
         11    1    1    2    0    0 -0.36620893926E+01 -0.18231937000E+01 -0.16890177909E+03  0.16895131225E+03  0.00000000000E+00 0.  1.
        -15    1    1    2    0    0  0.16207529895E+01 -0.70000143470E+01  0.14040889809E+02  0.15872345660E+02  0.17770000000E+01 0. -1.
         15    1    1    2    0    0  0.14359403400E-01  0.72825816237E+01 -0.11537259394E+02  0.13758716678E+02  0.17770000000E+01 0.  1.
</event>
<event>
 6    1  0.1097339E-002  0.1837539E+03  0.7546771E-02  0.1067461E+00
        -11   -1    0    0    0    0  0.00000000000E+00  0.00000000000E+00  0.18250000000E+03  0.18250000000E+03  0.00000000000E+00 0. -1.
         11   -1    0    0    0    0 -0.00000000000E+00 -0.00000000000E+00 -0.18250000000E+03  0.18250000000E+03  0.00000000000E+00 0. -1.
        -11    1    1    2    0    0 -0.18237269047E+00 -0.17863908666E+01  0.12161876422E+03  0.12163201989E+03  0.00000000000E+00 0. -1.
         11    1    1    2    0    0 -0.70069524141E+00 -0.27905303238E+01 -0.18122322072E+03  0.18124605861E+03  0.00000000000E+00 0. -1.
        -15    1    1    2    0    0  0.48008849847E+01  0.87266102200E+01  0.24411908663E+02  0.26425389991E+02  0.17770000000E+01 0.  1.
         15    1    1    2    0    0 -0.39178170529E+01 -0.41496890296E+01  0.35192547833E+02  0.35696531505E+02  0.17770000000E+01 0. -1.
</event>
<event>
 6    1  0.1097339E-002  0.1837016E+03  0.7546771E-02  0.1067502E+00
        -11   -1    0    0    0    0  0.00000000000E+00  0.00000000000E+00  0.18250000000E+03  0.18250000000E+03  0.00000000000E+00 0. -1.
         11   -1    0    0    0    0 -0.00000000000E+00 -0.00000000000E+00 -0.18250000000E+03  0.18250000000E+03  0.00000000000E+00 0.  1.
        -11    1    1    2    0    0 -0.53264127423E+00  0.32459427209E+01  0.41272483793E+02  0.41403354566E+02  0.00000000000E+00 0. -1.
         11    1    1    2    0    0 -0.32005964257E+01 -0.38489555377E+00 -0.18126972809E+03  0.18129839018E+03  0.00000000000E+00 0.  1.
        -15    1    1    2    0    0 -0.11716552216E+00 -0.26072501796E+01  0.11111717067E+01  0.33472246444E+01  0.17770000000E+01 0.  1.
         15    1    1    2    0    0  0.38504032221E+01 -0.25379698758E+00  0.13888607259E+03  0.13895103061E+03  0.17770000000E+01 0. -1.
</event>
<event>
 6    1  0.1097339E-002  0.1829456E+03  0.7546771E-02  0.1068101E+00
        -11   -1    0    0    0    0  0.00000000000E+00  0.00000000000E+00  0.18250000000E+03  0.18250000000E+03  0.00000000000E+00 0.  1.
         11   -1    0    0    0    0 -0.00000000000E+00 -0.00000000000E+00 -0.18250000000E+03  0.18250000000E+03  0.00000000000E+00 0.  1.
        -11    1    1    2    0    0  0.23393773228E+00  0.49636339137E+00  0.19487397286E+02  0.19495121350E+02  0.00000000000E+00 0.  1.
         11    1    1    2    0    0 -0.19752861324E+01  0.45166487610E+01 -0.18198759740E+03  0.18205435309E+03  0.00000000000E+00 0.  1.
        -15    1    1    2    0    0 -0.48269960697E+00 -0.49328503270E+01  0.15823113989E+03  0.15831872085E+03  0.17770000000E+01 0.  1.
         15    1    1    2    0    0  0.22240480071E+01 -0.80161825347E-01  0.42690602178E+01  0.51318047118E+01  0.17770000000E+01 0.  1.
</event>
<event>
 6    1  0.1097339E-002  0.1832798E+03  0.7546771E-02  0.1067836E+00
        -11   -1    0    0    0    0  0.00000000000E+00  0.00000000000E+00  0.18250000000E+03  0.18250000000E+03  0.00000000000E+00 0.  1.
         11   -1    0    0    0    0 -0.00000000000E+00 -0.00000000000E+00 -0.18250000000E+03  0.18250000000E+03  0.00000000000E+00 0.  1.
        -11    1    1    2    0    0 -0.33498574307E+01 -0.32099949164E+01  0.18166091523E+03  0.18172015226E+03  0.00000000000E+00 0.  1.
         11    1    1    2    0    0 -0.11973970880E+01  0.10088116804E+01 -0.11272770289E+03  0.11273857573E+03  0.00000000000E+00 0.  1.
        -15    1    1    2    0    0  0.50575094527E+01  0.13083389045E+01 -0.68103773920E+02  0.68326948591E+02  0.17770000000E+01 0.  1.
         15    1    1    2    0    0 -0.51025493404E+00  0.89284433149E+00 -0.82943842808E+00  0.22143234190E+01  0.17770000000E+01 0.  1.
</event>
<event>
 6    1  0.1097339E-002  0.1838377E+03  0.7546771E-02  0.1067395E+00
        -11   -1    0    0    0    0  0.00000000000E+00  0.00000000000E+00  0.18250000000E+03  0.18250000000E+03  0.00000000000E+00 0. -1.
         11   -1    0    0    0    0 -0.00000000000E+00 -0.00000000000E+00 -0.18250000000E+03  0.18250000000E+03  0.00000000000E+00 0. -1.
        -11    1    1    2    0    0 -0.26562394483E+01  0.45853095389E+01  0.18108474794E+03  0.18116226596E+03  0.00000000000E+00 0. -1.
         11    1    1    2    0    0 -0.86547969007E+00 -0.17642554805E+01 -0.83077562729E+02  0.83100800727E+02  0.00000000000E+00 0. -1.
        -15    1    1    2    0    0  0.79456344869E+01  0.22869854557E+00 -0.11765735581E+02  0.14309985087E+02  0.17770000000E+01 0.  1.
         15    1    1    2    0    0 -0.44239153485E+01 -0.30497526040E+01 -0.86241449626E+02  0.86426948231E+02  0.17770000000E+01 0. -1.
</event>
<event>
 6    1  0.1097339E-002  0.1852442E+03  0.7546771E-02  0.1066291E+00
        -11   -1    0    0    0    0  0.00000000000E+00  0.00000000000E+00  0.18250000000E+03  0.18250000000E+03  0.00000000000E+00 0. -1.
         11   -1    0    0    0    0 -0.00000000000E+00 -0.00000000000E+00 -0.18250000000E+03  0.18250000000E+03  0.00000000000E+00 0. -1.
        -11    1    1    2    0    0 -0.37736678111E+01 -0.29446637915E+01  0.17969207255E+03  0.17975581368E+03  0.00000000000E+00 0. -1.
         11    1    1    2    0    0  0.33987433078E+01  0.11117215434E+01 -0.13005826286E+03  0.13010741377E+03  0.00000000000E+00 0. -1.
        -15    1    1    2    0    0 -0.92957321930E+01  0.75491951143E+01 -0.31325000253E+02  0.33582947366E+02  0.17770000000E+01 0.  1.
         15    1    1    2    0    0  0.96706566963E+01 -0.57162528662E+01 -0.18308809439E+02  0.21553825179E+02  0.17770000000E+01 0. -1.
</event>
<event>
 6    1  0.1097339E-002  0.1841220E+03  0.7546771E-02  0.1067171E+00
        -11   -1    0    0    0    0  0.00000000000E+00  0.00000000000E+00  0.18250000000E+03  0.18250000000E+03  0.00000000000E+00 0. -1.
         11   -1    0    0    0    0 -0.00000000000E+00 -0.00000000000E+00 -0.18250000000E+03  0.18250000000E+03  0.00000000000E+00 0.  1.
        -11    1    1    2    0    0 -0.16943540928E+01  0.60885334169E+01  0.18076756995E+03  0.18087801254E+03  0.00000000000E+00 0. -1.
         11    1    1    2    0    0  0.58026424878E+01  0.29866466703E+01 -0.15525932047E+03  0.15539641988E+03  0.00000000000E+00 0.  1.
        -15    1    1    2    0    0 -0.62424505823E+01 -0.64628169105E+01 -0.20301983315E+02  0.22272504287E+02  0.17770000000E+01 0. -1.
         15    1    1    2    0    0  0.21341621873E+01 -0.26123631767E+01 -0.52062661577E+01  0.64530632968E+01  0.17770000000E+01 0.  1.
</event>
<event>
 6    1  0.1097339E-002  0.1834052E+03  0.7546771E-02  0.1067737E+00
        -11   -1    0    0    0    0  0.00000000000E+00  0.00000000000E+00  0.18250000000E+03  0.18250000000E+03  0.00000000000E+00 0.  1.
         11   -1    0    0    0    0 -0.00000000000E+00 -0.00000000000E+00 -0.18250000000E+03  0.18250000000E+03  0.00000000000E+00 0. -1.
        -11    1    1    2    0    0 -0.10137465711E+01 -0.44329444589E+01  0.18153786828E+03  0.18159481352E+03  0.00000000000E+00 0.  1.
         11    1    1    2    0    0 -0.21377749869E+01 -0.99452001121E+00 -0.16083387992E+03  0.16085116127E+03  0.00000000000E+00 0. -1.
        -15    1    1    2    0    0  0.21202867551E+01 -0.25562841837E+00 -0.83725907732E+01  0.88215059410E+01  0.17770000000E+01 0. -1.
         15    1    1    2    0    0  0.10312348029E+01  0.56830928885E+01 -0.12331397585E+02  0.13732519266E+02  0.17770000000E+01 0. -1.
</event>
<event>
 6    1  0.1097339E-002  0.1830811E+03  0.7546771E-02  0.1067993E+00
        -11   -1    0    0    0    0  0.00000000000E+00  0.00000000000E+00  0.18250000000E+03  0.18250000000E+03  0.00000000000E+00 0. -1.
         11   -1    0    0    0    0 -0.00000000000E+00 -0.00000000000E+00 -0.18250000000E+03  0.18250000000E+03  0.00000000000E+00 0. -1.
        -11    1    1    2    0    0 -0.41676094566E+00  0.15948939632E+01  0.88808412348E+02  0.88823710124E+02  0.00000000000E+00 0. -1.
         11    1    1    2    0    0 -0.75573420079E+01 -0.11270100586E+01 -0.18175836344E+03  0.18191890020E+03  0.00000000000E+00 0. -1.
        -15    1    1    2    0    0  0.63941223481E+01 -0.16016720770E+01  0.17846189903E+02  0.19107442976E+02  0.17770000000E+01 0.  1.
         15    1    1    2    0    0  0.15799806055E+01  0.11337881725E+01  0.75103761191E+02  0.75149946696E+02  0.17770000000E+01 0. -1.
</event>
<event>
 6    1  0.1097339E-002  0.1841767E+03  0.7546771E-02  0.1067128E+00
        -11   -1    0    0    0    0  0.00000000000E+00  0.00000000000E+00  0.18250000000E+03  0.18250000000E+03  0.00000000000E+00 0.  1.
         11   -1    0    0    0    0 -0.00000000000E+00 -0.00000000000E+00 -0.18250000000E+03  0.18250000000E+03  0.00000000000E+00 0.  1.
        -11    1    1    2    0    0 -0.18672650149E+01  0.93035484506E+01  0.69277905542E+02  0.69924751617E+02  0.00000000000E+00 0.  1.
         11    1    1    2    0    0 -0.45261624510E+01 -0.70333127380E+00 -0.18076530230E+03  0.18082332631E+03  0.00000000000E+00 0.  1.
        -15    1    1    2    0    0 -0.13753780049E+01 -0.89259303399E+01  0.99049706633E+02  0.99476459578E+02  0.17770000000E+01 0. -1.
         15    1    1    2    0    0  0.77688054708E+01  0.32571316311E+00  0.12437690122E+02  0.14775462500E+02  0.17770000000E+01 0.  1.
</event>
<event>
 6    1  0.1097339E-002  0.1897760E+03  0.7546771E-02  0.1062806E+00
        -11   -1    0    0    0    0  0.00000000000E+00  0.00000000000E+00  0.18250000000E+03  0.18250000000E+03  0.00000000000E+00 0. -1.
         11   -1    0    0    0    0 -0.00000000000E+00 -0.00000000000E+00 -0.18250000000E+03  0.18250000000E+03  0.00000000000E+00 0.  1.
        -11    1    1    2    0    0 -0.45962181662E+01  0.65581142373E+01  0.17504087353E+03  0.17522397522E+03  0.00000000000E+00 0. -1.
         11    1    1    2    0    0 -0.14622555193E+02  0.11635639392E+01 -0.12747363606E+03  0.12831485063E+03  0.00000000000E+00 0.  1.
        -15    1    1    2    0    0  0.48076054630E+01  0.59714945970E+01 -0.38923923528E+02  0.39711476550E+02  0.17770000000E+01 0.  1.
         15    1    1    2    0    0  0.14411167897E+02 -0.13693172773E+02 -0.86433139440E+01  0.21749697600E+02  0.17770000000E+01 0. -1.
</event>
<event>
 6    1  0.1097339E-002  0.1905557E+03  0.7546771E-02  0.1062217E+00
        -11   -1    0    0    0    0  0.00000000000E+00  0.00000000000E+00  0.18250000000E+03  0.18250000000E+03  0.00000000000E+00 0.  1.
         11   -1    0    0    0    0 -0.00000000000E+00 -0.00000000000E+00 -0.18250000000E+03  0.18250000000E+03  0.00000000000E+00 0. -1.
        -11    1    1    2    0    0 -0.20934037133E+02 -0.80336059198E+01  0.82790973869E+02  0.85773644489E+02  0.00000000000E+00 0.  1.
         11    1    1    2    0    0 -0.23654636263E+01  0.61525110062E+00 -0.17442716407E+03  0.17444428772E+03  0.00000000000E+00 0. -1.
        -15    1    1    2    0    0  0.67683523903E+01 -0.18079245776E+02  0.46082793722E+02  0.49994512980E+02  0.17770000000E+01 0. -1.
         15    1    1    2    0    0  0.16531148369E+02  0.25497600596E+02  0.45553396479E+02  0.54787554813E+02  0.17770000000E+01 0.  1.
</event>
<event>
 6    1  0.1097339E-002  0.1907994E+03  0.7546771E-02  0.1062034E+00
        -11   -1    0    0    0    0  0.00000000000E+00  0.00000000000E+00  0.18250000000E+03  0.18250000000E+03  0.00000000000E+00 0. -1.
         11   -1    0    0    0    0 -0.00000000000E+00 -0.00000000000E+00 -0.18250000000E+03  0.18250000000E+03  0.00000000000E+00 0. -1.
        -11    1    1    2    0    0 -0.12147196097E+02  0.37589452266E+01  0.17373588615E+03  0.17420058031E+03  0.00000000000E+00 0. -1.
         11    1    1    2    0    0 -0.12112480943E+02 -0.65913703107E+01 -0.14014162239E+03  0.14081843872E+03  0.00000000000E+00 0. -1.
        -15    1    1    2    0    0  0.21663762345E+02 -0.91339248660E+01 -0.27388035387E+02  0.36138751968E+02  0.17770000000E+01 0.  1.
         15    1    1    2    0    0  0.25959146941E+01  0.11966349950E+02 -0.62062283756E+01  0.13842229007E+02  0.17770000000E+01 0. -1.
</event>
<event>
 6    1  0.1097339E-002  0.1834904E+03  0.7546771E-02  0.1067669E+00
        -11   -1    0    0    0    0  0.00000000000E+00  0.00000000000E+00  0.18250000000E+03  0.18250000000E+03  0.00000000000E+00 0.  1.
         11   -1    0    0    0    0 -0.00000000000E+00 -0.00000000000E+00 -0.18250000000E+03  0.18250000000E+03  0.00000000000E+00 0.  1.
        -11    1    1    2    0    0 -0.17451238592E+01 -0.11529422689E+02  0.18113463032E+03  0.18150957921E+03  0.00000000000E+00 0.  1.
         11    1    1    2    0    0  0.10242591399E+01 -0.47918140943E+01 -0.10142479444E+03  0.10154309192E+03  0.00000000000E+00 0.  1.
        -15    1    1    2    0    0  0.33547795395E+01  0.15060556306E+02 -0.62466228862E+02  0.64368178312E+02  0.17770000000E+01 0. -1.
         15    1    1    2    0    0 -0.26339148202E+01  0.12606804766E+01 -0.17243607010E+02  0.17579150556E+02  0.17770000000E+01 0.  1.
</event>
<event>
 6    1  0.1097339E-002  0.1899873E+03  0.7546771E-02  0.1062646E+00
        -11   -1    0    0    0    0  0.00000000000E+00  0.00000000000E+00  0.18250000000E+03  0.18250000000E+03  0.00000000000E+00 0. -1.
         11   -1    0    0    0    0 -0.00000000000E+00 -0.00000000000E+00 -0.18250000000E+03  0.18250000000E+03  0.00000000000E+00 0.  1.
        -11    1    1    2    0    0  0.16909750284E+01 -0.19588903249E+01  0.17499353395E+03  0.17501266689E+03  0.00000000000E+00 0. -1.
         11    1    1    2    0    0 -0.45003703717E+01  0.87193924372E+00 -0.16856427029E+03  0.16862658992E+03  0.00000000000E+00 0.  1.
        -15    1    1    2    0    0 -0.81772345113E+01 -0.24029526900E+01 -0.27011548335E+01  0.91156630213E+01  0.17770000000E+01 0.  1.
         15    1    1    2    0    0  0.10986629855E+02  0.34899037712E+01 -0.37281088287E+01  0.12245080169E+02  0.17770000000E+01 0. -1.
</event>
<event>
 6    1  0.1097339E-002  0.1827415E+03  0.7546771E-02  0.1068263E+00
        -11   -1    0    0    0    0  0.00000000000E+00  0.00000000000E+00  0.18250000000E+03  0.18250000000E+03  0.00000000000E+00 0.  1.
         11   -1    0    0    0    0 -0.00000000000E+00 -0.00000000000E+00 -0.18250000000E+03  0.18250000000E+03  0.00000000000E+00 0. -1.
        -11    1    1    2    0    0  0.21846779694E+01  0.29353171157E-01  0.13359582170E+03  0.13361368664E+03  0.00000000000E+00 0.  1.
         11    1    1    2    0    0  0.69772050582E-01  0.36843516651E+01 -0.18222123209E+03  0.18225848880E+03  0.00000000000E+00 0. -1.
        -15    1    1    2    0    0  0.63671649571E+00 -0.15714920312E+01  0.28534568936E+02  0.28640082899E+02  0.17770000000E+01 0.  1.
         15    1    1    2    0    0 -0.28911665157E+01 -0.21422128051E+01  0.20090841448E+02  0.20487741667E+02  0.17770000000E+01 0. -1.
</event>
<event>
 6    1  0.1097339E-002  0.1830875E+03  0.7546771E-02  0.1067988E+00
        -11   -1    0    0    0    0  0.00000000000E+00  0.00000000000E+00  0.18250000000E+03  0.18250000000E+03  0.00000000000E+00 0.  1.
         11   -1    0    0    0    0 -0.00000000000E+00 -0.00000000000E+00 -0.18250000000E+03  0.18250000000E+03  0.00000000000E+00 0. -1.
        -11    1    1    2    0    0 -0.99750160747E+00 -0.23162290006E+01  0.18189500125E+03  0.18191248282E+03  0.00000000000E+00 0.  1.
         11    1    1    2    0    0  0.22695061992E+01 -0.18433419757E+01 -0.15025231433E+03  0.15028075902E+03  0.00000000000E+00 0. -1.
        -15    1    1    2    0    0 -0.47250604569E+00  0.32789203908E+00 -0.23716509495E+02  0.23789941715E+02  0.17770000000E+01 0. -1.
         15    1    1    2    0    0 -0.79949854600E+00  0.38316789372E+01 -0.79261774194E+01  0.90168164496E+01  0.17770000000E+01 0. -1.
</event>
<event>
 6    1  0.1097339E-002  0.1827186E+03  0.7546771E-02  0.1068281E+00
        -11   -1    0    0    0    0  0.00000000000E+00  0.00000000000E+00  0.18250000000E+03  0.18250000000E+03  0.00000000000E+00 0. -1.
         11   -1    0    0    0    0 -0.00000000000E+00 -0.00000000000E+00 -0.18250000000E+03  0.18250000000E+03  0.00000000000E+00 0. -1.
        -11    1    1    2    0    0 -0.55520485395E+00  0.29307587301E+00  0.29252525183E+02  0.29259261363E+02  0.00000000000E+00 0. -1.
         11    1    1    2    0    0 -0.19012360305E+01  0.20703253168E+01 -0.18225973228E+03  0.18228140595E+03  0.00000000000E+00 0. -1.
        -15    1    1    2    0    0 -0.39702396347E+01 -0.16262507628E+01  0.43589504375E+02  0.43836173590E+02  0.17770000000E+01 0.  1.
         15    1    1    2    0    0  0.64266805192E+01 -0.73715042696E+00  0.10941770272E+03  0.10962315910E+03  0.17770000000E+01 0. -1.
</event>
<event>
 6    1  0.1097339E-002  0.1827325E+03  0.7546771E-02  0.1068270E+00
        -11   -1    0    0    0    0  0.00000000000E+00  0.00000000000E+00  0.18250000000E+03  0.18250000000E+03  0.00000000000E+00 0. -1.
         11   -1    0    0    0    0 -0.00000000000E+00 -0.00000000000E+00 -0.18250000000E+03  0.18250000000E+03  0.00000000000E+00 0.  1.
        -11    1    1    2    0    0 -0.17506895764E+01 -0.38572298581E+00  0.46908684544E+02  0.46942926857E+02  0.00000000000E+00 0. -1.
         11    1    1    2    0    0  0.52244995288E-01 -0.47960592267E+01 -0.18220440002E+03  0.18226751850E+03  0.00000000000E+00 0.  1.
        -15    1    1    2    0    0 -0.28857530168E+00 -0.99126745780E+00  0.64717255870E+01  0.67902023498E+01  0.17770000000E+01 0. -1.
         15    1    1    2    0    0  0.19870198828E+01  0.61730496703E+01  0.12882398989E+03  0.12899935229E+03  0.17770000000E+01 0. -1.
</event>
<event>
 6    1  0.1097339E-002  0.1839734E+03  0.7546771E-02  0.1067288E+00
        -11   -1    0    0    0    0  0.00000000000E+00  0.00000000000E+00  0.18250000000E+03  0.18250000000E+03  0.00000000000E+00 0.  1.
         11   -1    0    0    0    0 -0.00000000000E+00 -0.00000000000E+00 -0.18250000000E+03  0.18250000000E+03  0.00000000000E+00 0.  1.
        -11    1    1    2    0    0  0.10244924375E+02 -0.35828197789E+01  0.18070098863E+03  0.18102663441E+03  0.00000000000E+00 0.  1.
         11    1    1    2    0    0  0.58286114343E+00  0.32004262184E+01 -0.14205014704E+03  0.14208739117E+03  0.00000000000E+00 0.  1.
        -15    1    1    2    0    0 -0.10295055568E+02  0.29769727340E+01 -0.36388840713E+02  0.37975729003E+02  0.17770000000E+01 0.  1.
         15    1    1    2    0    0 -0.53272995017E+00 -0.25945791735E+01 -0.22620008768E+01  0.39102454212E+01  0.17770000000E+01 0.  1.
</event>
<event>
 6    1  0.1097339E-002  0.1829409E+03  0.7546771E-02  0.1068104E+00
        -11   -1    0    0    0    0  0.00000000000E+00  0.00000000000E+00  0.18250000000E+03  0.18250000000E+03  0.00000000000E+00 0. -1.
         11   -1    0    0    0    0 -0.00000000000E+00 -0.00000000000E+00 -0.18250000000E+03  0.18250000000E+03  0.00000000000E+00 0. -1.
        -11    1    1    2    0    0  0.13011760394E+01  0.70577647043E+00  0.20670255252E+02  0.20723190673E+02  0.00000000000E+00 0. -1.
         11    1    1    2    0    0  0.60156024577E+01 -0.28023563184E+01 -0.18193807226E+03  0.18205906407E+03  0.00000000000E+00 0. -1.
        -15    1    1    2    0    0 -0.15982382477E+01  0.63792534181E+01  0.30890632300E+02  0.31632864754E+02  0.17770000000E+01 0.  1.
         15    1    1    2    0    0 -0.57185402494E+01 -0.42826735702E+01  0.13037718470E+03  0.13058488050E+03  0.17770000000E+01 0. -1.
</event>
<event>
 6    1  0.1097339E-002  0.1879820E+03  0.7546771E-02  0.1064173E+00
        -11   -1    0    0    0    0  0.00000000000E+00  0.00000000000E+00  0.18250000000E+03  0.18250000000E+03  0.00000000000E+00 0. -1.
         11   -1    0    0    0    0 -0.00000000000E+00 -0.00000000000E+00 -0.18250000000E+03  0.18250000000E+03  0.00000000000E+00 0.  1.
        -11    1    1    2    0    0 -0.35714106606E+01  0.55806531035E+01  0.17689394991E+03  0.17701798829E+03  0.00000000000E+00 0. -1.
         11    1    1    2    0    0 -0.49379491247E+00  0.17945010940E+01 -0.84756815691E+02  0.84777248562E+02  0.00000000000E+00 0.  1.
        -15    1    1    2    0    0  0.89915444183E+00  0.37364809153E+01 -0.91393357975E+02  0.91491384180E+02  0.17770000000E+01 0.  1.
         15    1    1    2    0    0  0.31660511313E+01 -0.11111635113E+02 -0.74377624927E+00  0.11713378964E+02  0.17770000000E+01 0. -1.
</event>
<event>
 6    1  0.1097339E-002  0.1833936E+03  0.7546771E-02  0.1067746E+00
        -11   -1    0    0    0    0  0.00000000000E+00  0.00000000000E+00  0.18250000000E+03  0.18250000000E+03  0.00000000000E+00 0. -1.
         11   -1    0    0    0    0 -0.00000000000E+00 -0.00000000000E+00 -0.18250000000E+03  0.18250000000E+03  0.00000000000E+00 0.  1.
        -11    1    1    2    0    0 -0.17869402906E+01  0.13906134902E+01  0.15013696023E+03  0.15015403354E+03  0.00000000000E+00 0. -1.
         11    1    1    2    0    0 -0.26650750678E+01  0.10066889597E+01 -0.18158401663E+03  0.18160636317E+03  0.00000000000E+00 0.  1.
        -15    1    1    2    0    0  0.27605587641E+01 -0.35364659140E+01  0.29536326125E+02  0.29927906138E+02  0.17770000000E+01 0. -1.
         15    1    1    2    0    0  0.16914565943E+01  0.11391634641E+01  0.19107302779E+01  0.33116971484E+01  0.17770000000E+01 0.  1.
</event>
<event>
 6    1  0.1097339E-002  0.1937640E+03  0.7546771E-02  0.1059826E+00
        -11   -1    0    0    0    0  0.00000000000E+00  0.00000000000E+00  0.18250000000E+03  0.18250000000E+03  0.00000000000E+00 0. -1.
         11   -1    0    0    0    0 -0.00000000000E+00 -0.00000000000E+00 -0.18250000000E+03  0.18250000000E+03  0.00000000000E+00 0. -1.
        -11    1    1    2    0    0 -0.46456159115E+01 -0.57217764583E+00  0.16233343999E+03  0.16240090786E+03  0.00000000000E+00 0. -1.
         11    1    1    2    0    0 -0.16548001264E+01  0.19011280452E+01 -0.17121747078E+03  0.17123602119E+03  0.00000000000E+00 0. -1.
        -15    1    1    2    0    0  0.14095131174E+02  0.63035992848E+01  0.12271077302E+02  0.19802655224E+02  0.17770000000E+01 0.  1.
         15    1    1    2    0    0 -0.77947151366E+01 -0.76325496842E+01 -0.33870465100E+01  0.11560415728E+02  0.17770000000E+01 0. -1.
</event>
<event>
 6    1  0.1097339E-002  0.1892992E+03  0.7546771E-02  0.1063168E+00
        -11   -1    0    0    0    0  0.00000000000E+00  0.00000000000E+00  0.18250000000E+03  0.18250000000E+03  0.00000000000E+00 0.  1.
         11   -1    0    0    0    0 -0.00000000000E+00 -0.00000000000E+00 -0.18250000000E+03  0.18250000000E+03  0.00000000000E+00 0. -1.
        -11    1    1    2    0    0 -0.62152642569E+01 -0.16260986375E+02  0.15791193551E+03  0.15886858898E+03  0.00000000000E+00 0.  1.
         11    1    1    2    0    0  0.25313915871E+01  0.17814222036E+01 -0.17567353301E+03  0.17570080139E+03  0.00000000000E+00 0. -1.
        -15    1    1    2    0    0  0.63335883329E+01  0.64824281586E+01 -0.14773578595E+01  0.93528889252E+01  0.17770000000E+01 0. -1.
         15    1    1    2    0    0 -0.26497156631E+01  0.79971360125E+01  0.19238955359E+02  0.21077720698E+02  0.17770000000E+01 0.  1.
</event>
<event>
 6    1  0.1097339E-002  0.1884479E+03  0.7546771E-02  0.1063816E+00
        -11   -1    0    0    0    0  0.00000000000E+00  0.00000000000E+00  0.18250000000E+03  0.18250000000E+03  0.00000000000E+00 0. -1.
         11   -1    0    0    0    0 -0.00000000000E+00 -0.00000000000E+00 -0.18250000000E+03  0.18250000000E+03  0.00000000000E+00 0. -1.
        -11    1    1    2    0    0 -0.28739594458E+01  0.57686875337E+00  0.17652771773E+03  0.17655205336E+03  0.00000000000E+00 0. -1.
         11    1    1    2    0    0  0.10775903221E+02  0.97626462821E+00 -0.16887257852E+03  0.16921885521E+03  0.00000000000E+00 0. -1.
        -15    1    1    2    0    0 -0.39264536399E+01  0.19430002579E+01  0.40724657615E+01  0.62397912279E+01  0.17770000000E+01 0.  1.
         15    1    1    2    0    0 -0.39754901350E+01 -0.34961336395E+01 -0.11727604976E+02  0.12989300201E+02  0.17770000000E+01 0. -1.
</event>
<event>
 6    1  0.1097339E-002  0.1844432E+03  0.7546771E-02  0.1066918E+00
        -11   -1    0    0    0    0  0.00000000000E+00  0.00000000000E+00  0.18250000000E+03  0.18250000000E+03  0.00000000000E+00 0. -1.
         11   -1    0    0    0    0 -0.00000000000E+00 -0.00000000000E+00 -0.18250000000E+03  0.18250000000E+03  0.00000000000E+00 0. -1.
        -11    1    1    2    0    0  0.40156382409E+01 -0.76326046309E+01  0.70960630548E+02  0.71482816758E+02  0.00000000000E+00 0. -1.
         11    1    1    2    0    0  0.32071274266E+01 -0.19170278657E+00 -0.18052822505E+03  0.18055681226E+03  0.00000000000E+00 0. -1.
        -15    1    1    2    0    0 -0.60408102599E+01  0.14645914551E+02  0.98524397642E+02  0.99805855847E+02  0.17770000000E+01 0. -1.
         15    1    1    2    0    0 -0.11819554075E+01 -0.68216071340E+01  0.11043196857E+02  0.13154515130E+02  0.17770000000E+01 0.  1.
</event>
<event>
 6    1  0.1097339E-002  0.1868899E+03  0.7546771E-02  0.1065013E+00
        -11   -1    0    0    0    0  0.00000000000E+00  0.00000000000E+00  0.18250000000E+03  0.18250000000E+03  0.00000000000E+00 0. -1.
         11   -1    0    0    0    0 -0.00000000000E+00 -0.00000000000E+00 -0.18250000000E+03  0.18250000000E+03  0.00000000000E+00 0.  1.
        -11    1    1    2    0    0 -0.15481149623E+01  0.41260511435E+01  0.15661305834E+03  0.15667504907E+03  0.00000000000E+00 0. -1.
         11    1    1    2    0    0 -0.63347058158E+01 -0.43298191872E+01 -0.17794471643E+03  0.17811007253E+03  0.00000000000E+00 0.  1.
        -15    1    1    2    0    0 -0.42565398685E+01 -0.60517147913E+01  0.81898826859E+01  0.11179145360E+02  0.17770000000E+01 0. -1.
         15    1    1    2    0    0  0.12139360647E+02  0.62554828350E+01  0.13141775402E+02  0.19035733034E+02  0.17770000000E+01 0. -1.
</event>
<event>
 6    1  0.1097339E-002  0.2309041E+03  0.7546771E-02  0.1035360E+00
        -11   -1    0    0    0    0  0.00000000000E+00  0.00000000000E+00  0.18250000000E+03  0.18250000000E+03  0.00000000000E+00 0.  1.
         11   -1    0    0    0    0 -0.00000000000E+00 -0.00000000000E+00 -0.18250000000E+03  0.18250000000E+03  0.00000000000E+00 0. -1.
        -11    1    1    2    0    0  0.31084698277E+01 -0.57700305463E+01  0.11236558208E+03  0.11255656300E+03  0.00000000000E+00 0.  1.
         11    1    1    2    0    0 -0.25220789056E+01  0.32779516188E+00 -0.13407177582E+03  0.13409589630E+03  0.00000000000E+00 0. -1.
        -15    1    1    2    0    0  0.94558174436E+01  0.13276529966E+02 -0.46309678380E+02  0.49126599436E+02  0.17770000000E+01 0. -1.
         15    1    1    2    0    0 -0.10042208366E+02 -0.78342945818E+01  0.68015872123E+02  0.69220941269E+02  0.17770000000E+01 0.  1.
</event>
<event>
 6    1  0.1097339E-002  0.1837228E+03  0.7546771E-02  0.1067486E+00
        -11   -1    0    0    0    0  0.00000000000E+00  0.00000000000E+00  0.18250000000E+03  0.18250000000E+03  0.00000000000E+00 0. -1.
         11   -1    0    0    0    0 -0.00000000000E+00 -0.00000000000E+00 -0.18250000000E+03  0.18250000000E+03  0.00000000000E+00 0.  1.
        -11    1    1    2    0    0 -0.12259992153E+01 -0.29810667227E+01  0.18124854010E+03  0.18127719967E+03  0.00000000000E+00 0. -1.
         11    1    1    2    0    0  0.21583671733E+01 -0.12284669026E+01 -0.16999592189E+03  0.17001406160E+03  0.00000000000E+00 0.  1.
        -15    1    1    2    0    0  0.13048680612E+01 -0.52356221154E+00 -0.38845478538E+01  0.44971367641E+01  0.17770000000E+01 0. -1.
         15    1    1    2    0    0 -0.22372360191E+01  0.47330958368E+01 -0.73680703479E+01  0.92116019702E+01  0.17770000000E+01 0.  1.
</event>
<event>
 6    1  0.1097339E-002  0.1736925E+03  0.7546771E-02  0.1075690E+00
        -11   -1    0    0    0    0  0.00000000000E+00  0.00000000000E+00  0.18250000000E+03  0.18250000000E+03  0.00000000000E+00 0. -1.
         11   -1    0    0    0    0 -0.00000000000E+00 -0.00000000000E+00 -0.18250000000E+03  0.18250000000E+03  0.00000000000E+00 0. -1.
        -11    1    1    2    0    0  0.54276157078E+00  0.31527025899E+00  0.26543482843E+02  0.26550903316E+02  0.00000000000E+00 0. -1.
         11    1    1    2    0    0  0.67145412205E+01  0.17433378542E+02 -0.17599609529E+03  0.17698483921E+03  0.00000000000E+00 0. -1.
        -15    1    1    2    0    0 -0.29345064495E+02 -0.68498314797E+01  0.45385538505E+02  0.54507410835E+02  0.17770000000E+01 0.  1.
         15    1    1    2    0    0  0.22087761704E+02 -0.10898817321E+02  0.10406707394E+03  0.10695684664E+03  0.17770000000E+01 0. -1.
</event>
<event>
 6    1  0.1097339E-002  0.1825877E+03  0.7546771E-02  0.1068385E+00
        -11   -1    0    0    0    0  0.00000000000E+00  0.00000000000E+00  0.18250000000E+03  0.18250000000E+03  0.00000000000E+00 0.  1.
         11   -1    0    0    0    0 -0.00000000000E+00 -0.00000000000E+00 -0.18250000000E+03  0.18250000000E+03  0.00000000000E+00 0.  1.
        -11    1    1    2    0    0  0.34948294429E+01  0.91377134374E+00  0.18237652690E+03  0.18241229777E+03  0.00000000000E+00 0.  1.
         11    1    1    2    0    0 -0.49333527545E+00 -0.14451197493E+01 -0.11328993668E+03  0.11330022728E+03  0.00000000000E+00 0.  1.
        -15    1    1    2    0    0 -0.17613779121E+01  0.84094244877E-01 -0.51712539601E+02  0.51773101173E+02  0.17770000000E+01 0. -1.
         15    1    1    2    0    0 -0.12401162553E+01  0.44725416065E+00 -0.17374050627E+02  0.17514373777E+02  0.17770000000E+01 0.  1.
</event>
<event>
 6    1  0.1097339E-002  0.1834081E+03  0.7546771E-02  0.1067734E+00
        -11   -1    0    0    0    0  0.00000000000E+00  0.00000000000E+00  0.18250000000E+03  0.18250000000E+03  0.00000000000E+00 0.  1.
         11   -1    0    0    0    0 -0.00000000000E+00 -0.00000000000E+00 -0.18250000000E+03  0.18250000000E+03  0.00000000000E+00 0.  1.
        -11    1    1    2    0    0 -0.80158833488E+00 -0.68184519707E+01  0.18146210614E+03  0.18159193208E+03  0.00000000000E+00 0.  1.
         11    1    1    2    0    0 -0.45413738258E+01  0.51429778576E+00 -0.10390181246E+03  0.10400228464E+03  0.00000000000E+00 0.  1.
        -15    1    1    2    0    0  0.17222936852E-01  0.67926117286E+01 -0.14671734988E+02  0.16265220788E+02  0.17770000000E+01 0. -1.
         15    1    1    2    0    0  0.53257392238E+01 -0.48845754364E+00 -0.62888558687E+02  0.63140562492E+02  0.17770000000E+01 0. -1.
</event>
<event>
 6    1  0.1097339E-002  0.1839600E+03  0.7546771E-02  0.1067299E+00
        -11   -1    0    0    0    0  0.00000000000E+00  0.00000000000E+00  0.18250000000E+03  0.18250000000E+03  0.00000000000E+00 0.  1.
         11   -1    0    0    0    0 -0.00000000000E+00 -0.00000000000E+00 -0.18250000000E+03  0.18250000000E+03  0.00000000000E+00 0. -1.
        -11    1    1    2    0    0 -0.37052239860E+01 -0.45665213852E+00  0.16342568615E+03  0.16346832142E+03  0.00000000000E+00 0.  1.
         11    1    1    2    0    0 -0.16591804568E+01 -0.25429433273E+01 -0.18101449067E+03  0.18103995491E+03  0.00000000000E+00 0. -1.
        -15    1    1    2    0    0  0.21818053369E+01  0.50776903844E+01  0.69510250516E+01  0.90563619868E+01  0.17770000000E+01 0.  1.
         15    1    1    2    0    0  0.31825991059E+01 -0.20780949185E+01  0.10637779473E+02  0.11435361677E+02  0.17770000000E+01 0. -1.
</event>
<event>
 6    1  0.1097339E-002  0.1692668E+03  0.7546771E-02  0.1079505E+00
        -11   -1    0    0    0    0  0.00000000000E+00  0.00000000000E+00  0.18250000000E+03  0.18250000000E+03  0.00000000000E+00 0.  1.
         11   -1    0    0    0    0 -0.00000000000E+00 -0.00000000000E+00 -0.18250000000E+03  0.18250000000E+03  0.00000000000E+00 0. -1.
        -11    1    1    2    0    0  0.14203553719E+01 -0.72554114982E+01  0.16953748387E+03  0.16969860589E+03  0.00000000000E+00 0.  1.
         11    1    1    2    0    0  0.37714819416E+01  0.37718413294E+01 -0.16880923995E+03  0.16889348820E+03  0.00000000000E+00 0. -1.
        -15    1    1    2    0    0 -0.11387628610E+00  0.57787203283E+01  0.11421578123E+02  0.12923496132E+02  0.17770000000E+01 0. -1.
         15    1    1    2    0    0 -0.50779610274E+01 -0.22951501595E+01 -0.12149822038E+02  0.13484409776E+02  0.17770000000E+01 0.  1.
</event>
<event>
 6    1  0.1097339E-002  0.1832427E+03  0.7546771E-02  0.1067865E+00
        -11   -1    0    0    0    0  0.00000000000E+00  0.00000000000E+00  0.18250000000E+03  0.18250000000E+03  0.00000000000E+00 0. -1.
         11   -1    0    0    0    0 -0.00000000000E+00 -0.00000000000E+00 -0.18250000000E+03  0.18250000000E+03  0.00000000000E+00 0. -1.
        -11    1    1    2    0    0 -0.35036017989E+00  0.55809585029E+01  0.18167121368E+03  0.18175725496E+03  0.00000000000E+00 0. -1.
         11    1    1    2    0    0  0.86275727186E+00  0.16058337260E+00 -0.37946872028E+02  0.37957018242E+02  0.00000000000E+00 0. -1.
        -15    1    1    2    0    0  0.40318346805E+01 -0.10318540829E+02 -0.46616880094E+02  0.47948088746E+02  0.17770000000E+01 0.  1.
         15    1    1    2    0    0 -0.45442317725E+01  0.45769989539E+01 -0.97107461560E+02  0.97337638052E+02  0.17770000000E+01 0. -1.
</event>
<event>
 6    1  0.1097339E-002  0.1834674E+03  0.7546771E-02  0.1067687E+00
        -11   -1    0    0    0    0  0.00000000000E+00  0.00000000000E+00  0.18250000000E+03  0.18250000000E+03  0.00000000000E+00 0.  1.
         11   -1    0    0    0    0 -0.00000000000E+00 -0.00000000000E+00 -0.18250000000E+03  0.18250000000E+03  0.00000000000E+00 0.  1.
        -11    1    1    2    0    0 -0.18541133095E+01 -0.16976022064E+01  0.16214100862E+03  0.16216049540E+03  0.00000000000E+00 0.  1.
         11    1    1    2    0    0 -0.32075168141E+01  0.71581033452E+00 -0.18150282765E+03  0.18153257833E+03  0.00000000000E+00 0.  1.
        -15    1    1    2    0    0  0.41220685088E+01 -0.80938182449E+00  0.53123544507E+01  0.70018130894E+01  0.17770000000E+01 0. -1.
         15    1    1    2    0    0  0.93956161483E+00  0.17911736964E+01  0.14049464581E+02  0.14305113185E+02  0.17770000000E+01 0. -1.
</event>
<event>
 6    1  0.1097339E-002  0.1867695E+03  0.7546771E-02  0.1065106E+00
        -11   -1    0    0    0    0  0.00000000000E+00  0.00000000000E+00  0.18250000000E+03  0.18250000000E+03  0.00000000000E+00 0.  1.
         11   -1    0    0    0    0 -0.00000000000E+00 -0.00000000000E+00 -0.18250000000E+03  0.18250000000E+03  0.00000000000E+00 0. -1.
        -11    1    1    2    0    0 -0.59229761510E+01 -0.78658650419E+01  0.17795827985E+03  0.17823047676E+03  0.00000000000E+00 0.  1.
         11    1    1    2    0    0 -0.52514251535E+01  0.42127126234E+01 -0.14475579902E+03  0.14491226920E+03  0.00000000000E+00 0. -1.
        -15    1    1    2    0    0  0.14929031891E+02  0.47358854600E+01 -0.34013688320E+02  0.37488575945E+02  0.17770000000E+01 0. -1.
         15    1    1    2    0    0 -0.37546305863E+01 -0.10827330416E+01  0.81120749025E+00  0.43686780919E+01  0.17770000000E+01 0.  1.
</event>
<event>
 6    1  0.1097339E-002  0.1754355E+03  0.7546771E-02  0.1074221E+00
        -11   -1    0    0    0    0  0.00000000000E+00  0.00000000000E+00  0.18250000000E+03  0.18250000000E+03  0.00000000000E+00 0. -1.
         11   -1    0    0    0    0 -0.00000000000E+00 -0.00000000000E+00 -0.18250000000E+03  0.18250000000E+03  0.00000000000E+00 0. -1.
        -11    1    1    2    0    0 -0.52588556188E+01  0.17026211684E+02  0.17970461541E+03  0.18058598020E+03  0.00000000000E+00 0. -1.
         11    1    1    2    0    0  0.32204039369E+01  0.29457131658E+01 -0.15920206508E+02  0.16507610452E+02  0.00000000000E+00 0. -1.
        -15    1    1    2    0    0 -0.12885864710E+02 -0.61487951209E+01 -0.41369424938E+02  0.43800002733E+02  0.17770000000E+01 0.  1.
         15    1    1    2    0    0  0.14924316392E+02 -0.13823129729E+02 -0.12241498396E+03  0.12410640661E+03  0.17770000000E+01 0. -1.
</event>
<event>
 6    1  0.1097339E-002  0.1034067E+03  0.7546771E-02  0.1158050E+00
        -11   -1    0    0    0    0  0.00000000000E+00  0.00000000000E+00  0.18250000000E+03  0.18250000000E+03  0.00000000000E+00 0. -1.
         11   -1    0    0    0    0 -0.00000000000E+00 -0.00000000000E+00 -0.18250000000E+03  0.18250000000E+03  0.00000000000E+00 0.  1.
        -11    1    1    2    0    0 -0.76068035415E+01 -0.52156269692E+02  0.68024747209E+02  0.86055250631E+02  0.00000000000E+00 0. -1.
         11    1    1    2    0    0  0.91421678982E+01 -0.18893787288E+01 -0.10138076209E+03  0.10180966510E+03  0.00000000000E+00 0.  1.
        -15    1    1    2    0    0  0.42289154263E+01  0.47795879481E+02  0.99470219897E+02  0.11045276002E+03  0.17770000000E+01 0. -1.
         15    1    1    2    0    0 -0.57642797830E+01  0.62497689404E+01 -0.66114205016E+02  0.66682324248E+02  0.17770000000E+01 0.  1.
</event>
<event>
 6    1  0.1097339E-002  0.1830916E+03  0.7546771E-02  0.1067985E+00
        -11   -1    0    0    0    0  0.00000000000E+00  0.00000000000E+00  0.18250000000E+03  0.18250000000E+03  0.00000000000E+00 0.  1.
         11   -1    0    0    0    0 -0.00000000000E+00 -0.00000000000E+00 -0.18250000000E+03  0.18250000000E+03  0.00000000000E+00 0.  1.
        -11    1    1    2    0    0  0.13906850014E+01  0.26690355548E+01  0.18188348042E+03  0.18190837860E+03  0.00000000000E+00 0.  1.
         11    1    1    2    0    0 -0.82522475416E+00 -0.23836713235E+01 -0.61895369974E+02  0.61946748979E+02  0.00000000000E+00 0.  1.
        -15    1    1    2    0    0  0.65130441523E+00 -0.68909881814E+01 -0.93091365372E+02  0.93365250235E+02  0.17770000000E+01 0.  1.
         15    1    1    2    0    0 -0.12167646624E+01  0.66056239502E+01 -0.26896745076E+02  0.27779622184E+02  0.17770000000E+01 0. -1.
</event>
<event>
 6    1  0.1097339E-002  0.1923263E+03  0.7546771E-02  0.1060891E+00
        -11   -1    0    0    0    0  0.00000000000E+00  0.00000000000E+00  0.18250000000E+03  0.18250000000E+03  0.00000000000E+00 0.  1.
         11   -1    0    0    0    0 -0.00000000000E+00 -0.00000000000E+00 -0.18250000000E+03  0.18250000000E+03  0.00000000000E+00 0.  1.
        -11    1    1    2    0    0 -0.17672538001E+01 -0.61359347169E+01  0.17255554906E+03  0.17267365286E+03  0.00000000000E+00 0.  1.
         11    1    1    2    0    0 -0.18097172126E+01 -0.23429413555E+01 -0.16376679967E+03  0.16379355642E+03  0.00000000000E+00 0.  1.
        -15    1    1    2    0    0  0.56064500128E+01  0.11975815506E+01 -0.16519265644E+02  0.17575845634E+02  0.17770000000E+01 0.  1.
         15    1    1    2    0    0 -0.20294790001E+01  0.72812945218E+01  0.77305162584E+01  0.10956945083E+02  0.17770000000E+01 0. -1.
</event>
<event>
 6    1  0.1097339E-002  0.1441093E+03  0.7546771E-02  0.1103927E+00
        -11   -1    0    0    0    0  0.00000000000E+00  0.00000000000E+00  0.18250000000E+03  0.18250000000E+03  0.00000000000E+00 0.  1.
         11   -1    0    0    0    0 -0.00000000000E+00 -0.00000000000E+00 -0.18250000000E+03  0.18250000000E+03  0.00000000000E+00 0.  1.
        -11    1    1    2    0    0  0.37366026299E+01 -0.34930521998E+01  0.14638062200E+03  0.14646996317E+03  0.00000000000E+00 0.  1.
         11    1    1    2    0    0 -0.54031872307E+01  0.11684264050E+02 -0.14132898444E+03  0.14191405252E+03  0.00000000000E+00 0.  1.
        -15    1    1    2    0    0  0.94518147886E+01 -0.18340179261E+02 -0.36863931408E+02  0.42282456716E+02  0.17770000000E+01 0. -1.
         15    1    1    2    0    0 -0.77852301878E+01  0.10148967411E+02  0.31812293845E+02  0.34333527597E+02  0.17770000000E+01 0.  1.
</event>
<event>
 6    1  0.1097339E-002  0.1871825E+03  0.7546771E-02  0.1064787E+00
        -11   -1    0    0    0    0  0.00000000000E+00  0.00000000000E+00  0.18250000000E+03  0.18250000000E+03  0.00000000000E+00 0.  1.
         11   -1    0    0    0    0 -0.00000000000E+00 -0.00000000000E+00 -0.18250000000E+03  0.18250000000E+03  0.00000000000E+00 0.  1.
        -11    1    1    2    0    0 -0.19093928282E+01  0.15749839473E+01  0.17780025918E+03  0.17781748655E+03  0.00000000000E+00 0.  1.
         11    1    1    2    0    0 -0.37205441097E+01 -0.53946168015E+01 -0.16295235850E+03  0.16308407488E+03  0.00000000000E+00 0.  1.
        -15    1    1    2    0    0  0.77505137662E+01  0.59352283401E+01 -0.17227216654E+02  0.19880445712E+02  0.17770000000E+01 0. -1.
         15    1    1    2    0    0 -0.21205768283E+01 -0.21155954859E+01  0.23793159662E+01  0.42179928653E+01  0.17770000000E+01 0.  1.
</event>
<event>
 6    1  0.1097339E-002  0.1991364E+03  0.7546771E-02  0.1055933E+00
        -11   -1    0    0    0    0  0.00000000000E+00  0.00000000000E+00  0.18250000000E+03  0.18250000000E+03  0.00000000000E+00 0. -1.
         11   -1    0    0    0    0 -0.00000000000E+00 -0.00000000000E+00 -0.18250000000E+03  0.18250000000E+03  0.00000000000E+00 0.  1.
        -11    1    1    2    0    0 -0.16565921022E+01  0.31257583583E+01  0.16582589604E+03  0.16586362610E+03  0.00000000000E+00 0. -1.
         11    1    1    2    0    0  0.16649846691E+02  0.11644300444E+02 -0.66941929810E+02  0.69957337674E+02  0.00000000000E+00 0.  1.
        -15    1    1    2    0    0 -0.94083121471E+01 -0.92672153114E+01 -0.11254335812E+03  0.11332944367E+03  0.17770000000E+01 0.  1.
         15    1    1    2    0    0 -0.55849424418E+01 -0.55028434906E+01  0.13659391887E+02  0.15849592559E+02  0.17770000000E+01 0. -1.
</event>
<event>
 6    1  0.1097339E-002  0.1846443E+03  0.7546771E-02  0.1066761E+00
        -11   -1    0    0    0    0  0.00000000000E+00  0.00000000000E+00  0.18250000000E+03  0.18250000000E+03  0.00000000000E+00 0. -1.
         11   -1    0    0    0    0 -0.00000000000E+00 -0.00000000000E+00 -0.18250000000E+03  0.18250000000E+03  0.00000000000E+00 0. -1.
        -11    1    1    2    0    0 -0.46512550421E+01  0.86959553836E+00  0.18029358095E+03  0.18035566445E+03  0.00000000000E+00 0. -1.
         11    1    1    2    0    0  0.25655090432E+01 -0.78602621438E+00 -0.12884720991E+03  0.12887514568E+03  0.00000000000E+00 0. -1.
        -15    1    1    2    0    0  0.19543455763E+01  0.30628828128E+01  0.14896531345E+00  0.40473000162E+01  0.17770000000E+01 0. -1.
         15    1    1    2    0    0  0.13140042267E+00 -0.31464521368E+01 -0.51595336354E+02  0.51721889849E+02  0.17770000000E+01 0.  1.
</event>
<event>
 6    1  0.1097339E-002  0.1829517E+03  0.7546771E-02  0.1068096E+00
        -11   -1    0    0    0    0  0.00000000000E+00  0.00000000000E+00  0.18250000000E+03  0.18250000000E+03  0.00000000000E+00 0.  1.
         11   -1    0    0    0    0 -0.00000000000E+00 -0.00000000000E+00 -0.18250000000E+03  0.18250000000E+03  0.00000000000E+00 0.  1.
        -11    1    1    2    0    0 -0.62974787232E+00  0.28220476157E+01  0.18202529011E+03  0.18204825397E+03  0.00000000000E+00 0.  1.
         11    1    1    2    0    0 -0.39563651943E+00 -0.10638051370E+01 -0.61277990807E+02  0.61288501099E+02  0.00000000000E+00 0.  1.
        -15    1    1    2    0    0  0.44038674718E+01 -0.25553909557E+01 -0.11146084807E+03  0.11159122929E+03  0.17770000000E+01 0. -1.
         15    1    1    2    0    0 -0.33784830801E+01  0.79714847710E+00 -0.92864512283E+01  0.10072015639E+02  0.17770000000E+01 0. -1.
</event>
<event>
 6    1  0.1097339E-002  0.1846906E+03  0.7546771E-02  0.1066724E+00
        -11   -1    0    0    0    0  0.00000000000E+00  0.00000000000E+00  0.18250000000E+03  0.18250000000E+03  0.00000000000E+00 0. -1.
         11   -1    0    0    0    0 -0.00000000000E+00 -0.00000000000E+00 -0.18250000000E+03  0.18250000000E+03  0.00000000000E+00 0.  1.
        -11    1    1    2    0    0 -0.30572158290E+01 -0.22800109039E+00  0.18028329266E+03  0.18030935685E+03  0.00000000000E+00 0. -1.
         11    1    1    2    0    0 -0.30001315091E+01 -0.86003695629E+01 -0.12702619472E+03  0.12735235094E+03  0.00000000000E+00 0.  1.
        -15    1    1    2    0    0  0.18718275758E+01  0.36053072084E+01 -0.49019355778E+02  0.49219477328E+02  0.17770000000E+01 0.  1.
         15    1    1    2    0    0  0.41855197623E+01  0.52230634449E+01 -0.42377421645E+01  0.81188148817E+01  0.17770000000E+01 0. -1.
</event>
<event>
 6    1  0.1097339E-002  0.1834072E+03  0.7546771E-02  0.1067735E+00
        -11   -1    0    0    0    0  0.00000000000E+00  0.00000000000E+00  0.18250000000E+03  0.18250000000E+03  0.00000000000E+00 0. -1.
         11   -1    0    0    0    0 -0.00000000000E+00 -0.00000000000E+00 -0.18250000000E+03  0.18250000000E+03  0.00000000000E+00 0.  1.
        -11    1    1    2    0    0 -0.10804773270E+01 -0.25763413724E+01  0.25275434200E+02  0.25429363738E+02  0.00000000000E+00 0. -1.
         11    1    1    2    0    0 -0.13551183568E+02 -0.97431058112E+00 -0.18108388834E+03  0.18159283707E+03  0.00000000000E+00 0.  1.
        -15    1    1    2    0    0  0.83071284473E+00  0.35327701580E+00  0.10950436418E+03  0.10952250176E+03  0.17770000000E+01 0.  1.
         15    1    1    2    0    0  0.13800948050E+02  0.31973749377E+01  0.46304089958E+02  0.48455297434E+02  0.17770000000E+01 0. -1.
</event>
<event>
 6    1  0.1097339E-002  0.1844407E+03  0.7546771E-02  0.1066920E+00
        -11   -1    0    0    0    0  0.00000000000E+00  0.00000000000E+00  0.18250000000E+03  0.18250000000E+03  0.00000000000E+00 0. -1.
         11   -1    0    0    0    0 -0.00000000000E+00 -0.00000000000E+00 -0.18250000000E+03  0.18250000000E+03  0.00000000000E+00 0. -1.
        -11    1    1    2    0    0  0.20876559128E+01 -0.45744316073E+01  0.16756768108E+03  0.16764310744E+03  0.00000000000E+00 0. -1.
         11    1    1    2    0    0  0.56729243133E+01  0.20978557697E+01 -0.18045798221E+03  0.18055931549E+03  0.00000000000E+00 0. -1.
        -15    1    1    2    0    0 -0.20061842245E+01 -0.10272728836E+01  0.10440251837E+01  0.30541418277E+01  0.17770000000E+01 0. -1.
         15    1    1    2    0    0 -0.57543960016E+01  0.35038487211E+01  0.11846275949E+02  0.13743435235E+02  0.17770000000E+01 0.  1.
</event>
<event>
 6    1  0.1097339E-002  0.1839923E+03  0.7546771E-02  0.1067273E+00
        -11   -1    0    0    0    0  0.00000000000E+00  0.00000000000E+00  0.18250000000E+03  0.18250000000E+03  0.00000000000E+00 0. -1.
         11   -1    0    0    0    0 -0.00000000000E+00 -0.00000000000E+00 -0.18250000000E+03  0.18250000000E+03  0.00000000000E+00 0.  1.
        -11    1    1    2    0    0 -0.24259639716E+00  0.25711464440E+01  0.12964094648E+03  0.12966666746E+03  0.00000000000E+00 0. -1.
         11    1    1    2    0    0 -0.18091923288E+01 -0.30463788836E+01 -0.18097303283E+03  0.18100771313E+03  0.00000000000E+00 0.  1.
        -15    1    1    2    0    0  0.25117496165E+01 -0.33290083177E+01  0.49523913563E+02  0.49730945357E+02  0.17770000000E+01 0.  1.
         15    1    1    2    0    0 -0.45996089053E+00  0.38042407572E+01  0.18081727906E+01  0.45946740473E+01  0.17770000000E+01 0.  1.
</event>
<event>
 6    1  0.1097339E-002  0.1858715E+03  0.7546771E-02  0.1065802E+00
        -11   -1    0    0    0    0  0.00000000000E+00  0.00000000000E+00  0.18250000000E+03  0.18250000000E+03  0.00000000000E+00 0.  1.
         11   -1    0    0    0    0 -0.00000000000E+00 -0.00000000000E+00 -0.18250000000E+03  0.18250000000E+03  0.00000000000E+00 0. -1.
        -11    1    1    2    0    0 -0.29137858582E+01  0.10816938612E+02  0.17877783362E+03  0.17912847374E+03  0.00000000000E+00 0.  1.
         11    1    1    2    0    0  0.11966584021E+02 -0.88618664173E+00 -0.15365665379E+03  0.15412446826E+03  0.00000000000E+00 0. -1.
        -15    1    1    2    0    0 -0.10086465811E+02 -0.60899263832E+01 -0.24632750733E+02  0.27363372116E+02  0.17770000000E+01 0. -1.
         15    1    1    2    0    0  0.10336676479E+01 -0.38408255870E+01 -0.48842909697E+00  0.43836858896E+01  0.17770000000E+01 0.  1.
</event>
<event>
 6    1  0.1097339E-002  0.1834920E+03  0.7546771E-02  0.1067668E+00
        -11   -1    0    0    0    0  0.00000000000E+00  0.00000000000E+00  0.18250000000E+03  0.18250000000E+03  0.00000000000E+00 0. -1.
         11   -1    0    0    0    0 -0.00000000000E+00 -0.00000000000E+00 -0.18250000000E+03  0.18250000000E+03  0.00000000000E+00 0. -1.
        -11    1    1    2    0    0  0.42711872637E+00  0.19827743391E+01  0.13028620871E+03  0.13030199540E+03  0.00000000000E+00 0. -1.
         11    1    1    2    0    0 -0.13001071740E+01  0.39580648505E+01 -0.18146020054E+03  0.18150801893E+03  0.00000000000E+00 0. -1.
        -15    1    1    2    0    0 -0.42142112698E+01 -0.75391817735E+01  0.33680956439E+02  0.34816136978E+02  0.17770000000E+01 0.  1.
         15    1    1    2    0    0  0.50871997175E+01  0.15983425839E+01  0.17493035385E+02  0.18373848698E+02  0.17770000000E+01 0. -1.
</event>
<event>
 6    1  0.1097339E-002  0.1826365E+03  0.7546771E-02  0.1068346E+00
        -11   -1    0    0    0    0  0.00000000000E+00  0.00000000000E+00  0.18250000000E+03  0.18250000000E+03  0.00000000000E+00 0. -1.
         11   -1    0    0    0    0 -0.00000000000E+00 -0.00000000000E+00 -0.18250000000E+03  0.18250000000E+03  0.00000000000E+00 0. -1.
        -11    1    1    2    0    0 -0.62137415910E+00 -0.11356995501E+00  0.14903234390E+02  0.14916614873E+02  0.00000000000E+00 0. -1.
         11    1    1    2    0    0  0.53142327610E+01  0.10173432871E+01 -0.18228323240E+03  0.18236351848E+03  0.00000000000E+00 0. -1.
        -15    1    1    2    0    0 -0.74676289873E+00 -0.40172021088E-01  0.13770739929E+03  0.13772089462E+03  0.17770000000E+01 0. -1.
         15    1    1    2    0    0 -0.39460957031E+01 -0.86360131101E+00  0.29672598723E+02  0.29998972024E+02  0.17770000000E+01 0.  1.
</event>
<event>
 6    1  0.1097339E-002  0.1831691E+03  0.7546771E-02  0.1067923E+00
        -11   -1    0    0    0    0  0.00000000000E+00  0.00000000000E+00  0.18250000000E+03  0.18250000000E+03  0.00000000000E+00 0.  1.
         11   -1    0    0    0    0 -0.00000000000E+00 -0.00000000000E+00 -0.18250000000E+03  0.18250000000E+03  0.00000000000E+00 0.  1.
        -11    1    1    2    0    0  0.31709184669E+01  0.32341189642E+01  0.93010397243E+02  0.93120611278E+02  0.00000000000E+00 0.  1.
         11    1    1    2    0    0 -0.26866090831E+00  0.33713051666E+01 -0.18179945453E+03  0.18183090921E+03  0.00000000000E+00 0.  1.
        -15    1    1    2    0    0 -0.29062448776E+01  0.24837876606E+01  0.12335306928E+02  0.13035834704E+02  0.17770000000E+01 0. -1.
         15    1    1    2    0    0  0.39873190069E-02 -0.90892117914E+01  0.76453750360E+02  0.77012644806E+02  0.17770000000E+01 0.  1.
</event>
<event>
 6    1  0.1097339E-002  0.1710098E+03  0.7546771E-02  0.1077988E+00
        -11   -1    0    0    0    0  0.00000000000E+00  0.00000000000E+00  0.18250000000E+03  0.18250000000E+03  0.00000000000E+00 0.  1.
         11   -1    0    0    0    0 -0.00000000000E+00 -0.00000000000E+00 -0.18250000000E+03  0.18250000000E+03  0.00000000000E+00 0. -1.
        -11    1    1    2    0    0 -0.81879566496E+01  0.63474191519E+00  0.16730894391E+03  0.16751038249E+03  0.00000000000E+00 0.  1.
         11    1    1    2    0    0 -0.54194881229E+01  0.20637024585E+01 -0.17477572081E+03  0.17487190256E+03  0.00000000000E+00 0. -1.
        -15    1    1    2    0    0  0.16878110543E+02 -0.51377609480E+00  0.52919519243E+01  0.17784742493E+02  0.17770000000E+01 0. -1.
         15    1    1    2    0    0 -0.32706657700E+01 -0.21846682788E+01  0.21748249812E+01  0.48329724566E+01  0.17770000000E+01 0.  1.
</event>
<event>
 6    1  0.1097339E-002  0.1926239E+03  0.7546771E-02  0.1060670E+00
        -11   -1    0    0    0    0  0.00000000000E+00  0.00000000000E+00  0.18250000000E+03  0.18250000000E+03  0.00000000000E+00 0.  1.
         11   -1    0    0    0    0 -0.00000000000E+00 -0.00000000000E+00 -0.18250000000E+03  0.18250000000E+03  0.00000000000E+00 0. -1.
        -11    1    1    2    0    0 -0.50646628905E+01 -0.26460551198E+00  0.14297140333E+03  0.14306132600E+03  0.00000000000E+00 0.  1.
         11    1    1    2    0    0 -0.53826872817E+01  0.12329744341E+01 -0.17228760365E+03  0.17237607700E+03  0.00000000000E+00 0. -1.
        -15    1    1    2    0    0  0.28936523170E+01 -0.14271936274E+02  0.30774520414E+02  0.34092377806E+02  0.17770000000E+01 0.  1.
         15    1    1    2    0    0  0.75536978552E+01  0.13303567352E+02 -0.14583200877E+01  0.15470219199E+02  0.17770000000E+01 0. -1.
</event>
<event>
 6    1  0.1097339E-002  0.1852440E+03  0.7546771E-02  0.1066291E+00
        -11   -1    0    0    0    0  0.00000000000E+00  0.00000000000E+00  0.18250000000E+03  0.18250000000E+03  0.00000000000E+00 0.  1.
         11   -1    0    0    0    0 -0.00000000000E+00 -0.00000000000E+00 -0.18250000000E+03  0.18250000000E+03  0.00000000000E+00 0. -1.
        -11    1    1    2    0    0  0.32091693333E+01 -0.56151859925E+01  0.17963964307E+03  0.17975603034E+03  0.00000000000E+00 0.  1.
         11    1    1    2    0    0 -0.39922715694E-01 -0.22132667724E+01 -0.13379763096E+03  0.13381594148E+03  0.00000000000E+00 0. -1.
        -15    1    1    2    0    0 -0.87481398830E+01  0.97559684256E+01 -0.15089836520E+02  0.20064141311E+02  0.17770000000E+01 0.  1.
         15    1    1    2    0    0  0.55788932654E+01 -0.19275156608E+01 -0.30752175591E+02  0.31363886865E+02  0.17770000000E+01 0. -1.
</event>
<event>
 6    1  0.1097339E-002  0.1890299E+03  0.7546771E-02  0.1063373E+00
        -11   -1    0    0    0    0  0.00000000000E+00  0.00000000000E+00  0.18250000000E+03  0.18250000000E+03  0.00000000000E+00 0. -1.
         11   -1    0    0    0    0 -0.00000000000E+00 -0.00000000000E+00 -0.18250000000E+03  0.18250000000E+03  0.00000000000E+00 0.  1.
        -11    1    1    2    0    0 -0.11524058047E+01 -0.14022299614E+02  0.17540672534E+03  0.17597008899E+03  0.00000000000E+00 0. -1.
         11    1    1    2    0    0 -0.21155067260E+00  0.20647772745E+01 -0.11805173391E+03  0.11806997898E+03  0.00000000000E+00 0.  1.
        -15    1    1    2    0    0  0.10210460987E+02 -0.61805933285E+01 -0.46370785880E+02  0.47915141235E+02  0.17770000000E+01 0.  1.
         15    1    1    2    0    0 -0.88465045093E+01  0.18138115668E+02 -0.10984205551E+02  0.23044790791E+02  0.17770000000E+01 0. -1.
</event>
<event>
 6    1  0.1097339E-002  0.1845473E+03  0.7546771E-02  0.1066837E+00
        -11   -1    0    0    0    0  0.00000000000E+00  0.00000000000E+00  0.18250000000E+03  0.18250000000E+03  0.00000000000E+00 0. -1.
         11   -1    0    0    0    0 -0.00000000000E+00 -0.00000000000E+00 -0.18250000000E+03  0.18250000000E+03  0.00000000000E+00 0. -1.
        -11    1    1    2    0    0 -0.92727536122E+01 -0.40531385806E+01  0.18016870930E+03  0.18045269658E+03  0.00000000000E+00 0. -1.
         11    1    1    2    0    0 -0.32495821089E+01 -0.55694335758E+01 -0.63425158780E+02  0.63752091263E+02  0.00000000000E+00 0. -1.
        -15    1    1    2    0    0  0.11904616665E+02  0.11017621785E+02 -0.31110772286E+02  0.35130410885E+02  0.17770000000E+01 0. -1.
         15    1    1    2    0    0  0.61771905596E+00 -0.13950496290E+01 -0.85632778233E+02  0.85664801273E+02  0.17770000000E+01 0.  1.
</event>
<event>
 6    1  0.1097339E-002  0.1837536E+03  0.7546771E-02  0.1067461E+00
        -11   -1    0    0    0    0  0.00000000000E+00  0.00000000000E+00  0.18250000000E+03  0.18250000000E+03  0.00000000000E+00 0. -1.
         11   -1    0    0    0    0 -0.00000000000E+00 -0.00000000000E+00 -0.18250000000E+03  0.18250000000E+03  0.00000000000E+00 0.  1.
        -11    1    1    2    0    0  0.70244266623E+00 -0.27808479785E+01  0.17181897958E+03  0.17184291748E+03  0.00000000000E+00 0. -1.
         11    1    1    2    0    0 -0.23280175330E+01  0.23273101657E+01 -0.18121649828E+03  0.18124639386E+03  0.00000000000E+00 0.  1.
        -15    1    1    2    0    0 -0.13463606839E+01  0.75320336988E+00  0.56668810930E+00  0.24205096200E+01  0.17770000000E+01 0. -1.
         15    1    1    2    0    0  0.29719355507E+01 -0.29966555709E+00  0.88308305891E+01  0.94901790424E+01  0.17770000000E+01 0. -1.
</event>
<event>
 6    1  0.1097339E-002  0.1870930E+03  0.7546771E-02  0.1064856E+00
        -11   -1    0    0    0    0  0.00000000000E+00  0.00000000000E+00  0.18250000000E+03  0.18250000000E+03  0.00000000000E+00 0.  1.
         11   -1    0    0    0    0 -0.00000000000E+00 -0.00000000000E+00 -0.18250000000E+03  0.18250000000E+03  0.00000000000E+00 0.  1.
        -11    1    1    2    0    0 -0.38292689294E+01  0.66223893769E+01  0.17774246778E+03  0.17790700996E+03  0.00000000000E+00 0.  1.
         11    1    1    2    0    0  0.44798426420E+01 -0.31119757741E+01 -0.15864069808E+03  0.15873444639E+03  0.00000000000E+00 0.  1.
        -15    1    1    2    0    0  0.13366627543E+01 -0.83024144703E+01 -0.11503566628E+00  0.85957963889E+01  0.17770000000E+01 0. -1.
         15    1    1    2    0    0 -0.19872364669E+01  0.47920008674E+01 -0.18986734034E+02  0.19762747262E+02  0.17770000000E+01 0.  1.
</event>
<event>
 6    1  0.1097339E-002  0.1826390E+03  0.7546771E-02  0.1068344E+00
        -11   -1    0    0    0    0  0.00000000000E+00  0.00000000000E+00  0.18250000000E+03  0.18250000000E+03  0.00000000000E+00 0. -1.
         11   -1    0    0    0    0 -0.00000000000E+00 -0.00000000000E+00 -0.18250000000E+03  0.18250000000E+03  0.00000000000E+00 0.  1.
        -11    1    1    2    0    0  0.54066644716E+00 -0.60378856258E+00  0.41881041484E+02  0.41888882972E+02  0.00000000000E+00 0. -1.
         11    1    1    2    0    0  0.33402309616E-01 -0.27270271497E+01 -0.18234058217E+03  0.18236097636E+03  0.00000000000E+00 0.  1.
        -15    1    1    2    0    0  0.26231978592E+01  0.13673467636E+01  0.27689661705E+02  0.27903868880E+02  0.17770000000E+01 0.  1.
         15    1    1    2    0    0 -0.31972666159E+01  0.19634689487E+01  0.11276987898E+03  0.11284627179E+03  0.17770000000E+01 0. -1.
</event>
<event>
 6    1  0.1097339E-002  0.1870711E+03  0.7546771E-02  0.1064873E+00
        -11   -1    0    0    0    0  0.00000000000E+00  0.00000000000E+00  0.18250000000E+03  0.18250000000E+03  0.00000000000E+00 0. -1.
         11   -1    0    0    0    0 -0.00000000000E+00 -0.00000000000E+00 -0.18250000000E+03  0.18250000000E+03  0.00000000000E+00 0. -1.
        -11    1    1    2    0    0 -0.18288300059E+01  0.36066599549E+01  0.11072272608E+03  0.11079654636E+03  0.00000000000E+00 0. -1.
         11    1    1    2    0    0  0.28117622846E+01 -0.89629148484E+01 -0.17768080755E+03  0.17792894431E+03  0.00000000000E+00 0. -1.
        -15    1    1    2    0    0  0.15269135649E+01  0.13681820240E+01  0.70221267993E+02  0.70273662169E+02  0.17770000000E+01 0. -1.
         15    1    1    2    0    0 -0.25098458435E+01  0.39880728695E+01 -0.32631865239E+01  0.60008471619E+01  0.17770000000E+01 0.  1.
</event>
<event>
 6    1  0.1097339E-002  0.1887699E+03  0.7546771E-02  0.1063571E+00
        -11   -1    0    0    0    0  0.00000000000E+00  0.00000000000E+00  0.18250000000E+03  0.18250000000E+03  0.00000000000E+00 0.  1.
         11   -1    0    0    0    0 -0.00000000000E+00 -0.00000000000E+00 -0.18250000000E+03  0.18250000000E+03  0.00000000000E+00 0.  1.
        -11    1    1    2    0    0 -0.52586725694E+01  0.64496189757E+01  0.16960172636E+03  0.16980576200E+03  0.00000000000E+00 0.  1.
         11    1    1    2    0    0 -0.12342859660E+01 -0.29050131306E+01 -0.17620183221E+03  0.17623010025E+03  0.00000000000E+00 0.  1.
        -15    1    1    2    0    0  0.73700391282E+01  0.14376980537E+01  0.99880501655E+01  0.12621542202E+02  0.17770000000E+01 0.  1.
         15    1    1    2    0    0 -0.87708059276E+00 -0.49823038988E+01 -0.33879443241E+01  0.63425955451E+01  0.17770000000E+01 0. -1.
</event>
<event>
 6    1  0.1097339E-002  0.1840963E+03  0.7546771E-02  0.1067191E+00
        -11   -1    0    0    0    0  0.00000000000E+00  0.00000000000E+00  0.18250000000E+03  0.18250000000E+03  0.00000000000E+00 0.  1.
         11   -1    0    0    0    0 -0.00000000000E+00 -0.00000000000E+00 -0.18250000000E+03  0.18250000000E+03  0.00000000000E+00 0.  1.
        -11    1    1    2    0    0  0.17810701958E+01 -0.52148190415E+01  0.11442280269E+03  0.11455542032E+03  0.00000000000E+00 0.  1.
         11    1    1    2    0    0  0.17635644295E+01  0.17632762541E+01 -0.18088650228E+03  0.18090369264E+03  0.00000000000E+00 0.  1.
        -15    1    1    2    0    0 -0.23521587244E+00 -0.28708952301E+01  0.81463594568E+00  0.34811961526E+01  0.17770000000E+01 0. -1.
         15    1    1    2    0    0 -0.33094187528E+01  0.63224380174E+01  0.65649063644E+02  0.66059690896E+02  0.17770000000E+01 0.  1.
</event>
<event>
 6    1  0.1097339E-002  0.1827293E+03  0.7546771E-02  0.1068272E+00
        -11   -1    0    0    0    0  0.00000000000E+00  0.00000000000E+00  0.18250000000E+03  0.18250000000E+03  0.00000000000E+00 0.  1.
         11   -1    0    0    0    0 -0.00000000000E+00 -0.00000000000E+00 -0.18250000000E+03  0.18250000000E+03  0.00000000000E+00 0.  1.
        -11    1    1    2    0    0  0.33538430927E+01  0.13994843237E+01  0.18223451210E+03  0.18227074428E+03  0.00000000000E+00 0.  1.
         11    1    1    2    0    0  0.12441882908E+00 -0.15768631169E+01 -0.43555108684E+02  0.43583821194E+02  0.00000000000E+00 0.  1.
        -15    1    1    2    0    0 -0.45698190990E+01 -0.14307100437E+01 -0.29825621170E+02  0.30259801470E+02  0.17770000000E+01 0.  1.
         15    1    1    2    0    0  0.10915571772E+01  0.16080888369E+01 -0.10885378225E+03  0.10888563305E+03  0.17770000000E+01 0.  1.
</event>
<event>
 6    1  0.1097339E-002  0.1832502E+03  0.7546771E-02  0.1067859E+00
        -11   -1    0    0    0    0  0.00000000000E+00  0.00000000000E+00  0.18250000000E+03  0.18250000000E+03  0.00000000000E+00 0.  1.
         11   -1    0    0    0    0 -0.00000000000E+00 -0.00000000000E+00 -0.18250000000E+03  0.18250000000E+03  0.00000000000E+00 0. -1.
        -11    1    1    2    0    0  0.18710964828E+01 -0.42003836743E+00  0.27300658137E-01  0.19178580772E+01  0.00000000000E+00 0.  1.
         11    1    1    2    0    0  0.22812504334E+02  0.17989406904E+02 -0.17737751437E+03  0.17974095726E+03  0.00000000000E+00 0. -1.
        -15    1    1    2    0    0 -0.72861915353E+01 -0.21408537210E+02  0.14108507809E+03  0.14289706449E+03  0.17770000000E+01 0.  1.
         15    1    1    2    0    0 -0.17397409281E+02  0.38391686730E+01  0.36265135620E+02  0.40444120170E+02  0.17770000000E+01 0. -1.
</event>
<event>
 6    1  0.1097339E-002  0.1834996E+03  0.7546771E-02  0.1067662E+00
        -11   -1    0    0    0    0  0.00000000000E+00  0.00000000000E+00  0.18250000000E+03  0.18250000000E+03  0.00000000000E+00 0. -1.
         11   -1    0    0    0    0 -0.00000000000E+00 -0.00000000000E+00 -0.18250000000E+03  0.18250000000E+03  0.00000000000E+00 0.  1.
        -11    1    1    2    0    0  0.31583654181E+01  0.25159461456E+01  0.18145549857E+03  0.18150042209E+03  0.00000000000E+00 0. -1.
         11    1    1    2    0    0 -0.18768818515E+01  0.12580711964E+01 -0.14819070658E+03  0.14820793145E+03  0.00000000000E+00 0.  1.
        -15    1    1    2    0    0 -0.12663189056E+01 -0.19797316567E+01 -0.12883871365E+01  0.32156758880E+01  0.17770000000E+01 0.  1.
         15    1    1    2    0    0 -0.15164661029E-01 -0.17942856853E+01 -0.31976404858E+02  0.32075970566E+02  0.17770000000E+01 0.  1.
</event>
<event>
 6    1  0.1097339E-002  0.1853537E+03  0.7546771E-02  0.1066206E+00
        -11   -1    0    0    0    0  0.00000000000E+00  0.00000000000E+00  0.18250000000E+03  0.18250000000E+03  0.00000000000E+00 0.  1.
         11   -1    0    0    0    0 -0.00000000000E+00 -0.00000000000E+00 -0.18250000000E+03  0.18250000000E+03  0.00000000000E+00 0. -1.
        -11    1    1    2    0    0 -0.31424612259E+01 -0.93558090480E+00  0.17469096285E+03  0.17472172983E+03  0.00000000000E+00 0.  1.
         11    1    1    2    0    0  0.35896717811E+01 -0.31839955351E+01 -0.17958217050E+03  0.17964626223E+03  0.00000000000E+00 0. -1.
        -15    1    1    2    0    0 -0.18001095625E+01  0.46796370664E+01  0.10476827056E+00  0.53205359599E+01  0.17770000000E+01 0. -1.
         15    1    1    2    0    0  0.13528990074E+01 -0.56006062642E+00  0.47864393823E+01  0.53114719796E+01  0.17770000000E+01 0.  1.
</event>
<event>
 6    1  0.1097339E-002  0.1852480E+03  0.7546771E-02  0.1066288E+00
        -11   -1    0    0    0    0  0.00000000000E+00  0.00000000000E+00  0.18250000000E+03  0.18250000000E+03  0.00000000000E+00 0.  1.
         11   -1    0    0    0    0 -0.00000000000E+00 -0.00000000000E+00 -0.18250000000E+03  0.18250000000E+03  0.00000000000E+00 0. -1.
        -11    1    1    2    0    0 -0.28816309752E+01  0.29356728967E+01  0.85490221196E+02  0.85589134197E+02  0.00000000000E+00 0.  1.
         11    1    1    2    0    0  0.51530968587E+00  0.93453488334E+01 -0.17950817879E+03  0.17975201623E+03  0.00000000000E+00 0. -1.
        -15    1    1    2    0    0 -0.82032160201E+01 -0.18299571209E+01  0.62506135400E+01  0.10624000883E+02  0.17770000000E+01 0. -1.
         15    1    1    2    0    0  0.10569537309E+02 -0.10451064609E+02  0.87767344049E+02  0.89034848688E+02  0.17770000000E+01 0.  1.
</event>
<event>
 6    1  0.1097339E-002  0.1847969E+03  0.7546771E-02  0.1066641E+00
        -11   -1    0    0    0    0  0.00000000000E+00  0.00000000000E+00  0.18250000000E+03  0.18250000000E+03  0.00000000000E+00 0. -1.
         11   -1    0    0    0    0 -0.00000000000E+00 -0.00000000000E+00 -0.18250000000E+03  0.18250000000E+03  0.00000000000E+00 0. -1.
        -11    1    1    2    0    0  0.49384971742E+01 -0.25643333219E-01  0.18013541730E+03  0.18020310202E+03  0.00000000000E+00 0. -1.
         11    1    1    2    0    0 -0.33464858374E+00  0.43355433752E+01 -0.17001800544E+03  0.17007360495E+03  0.00000000000E+00 0. -1.
        -15    1    1    2    0    0 -0.95151205407E+00 -0.41385957944E+01 -0.95722169915E+01  0.10621601455E+02  0.17770000000E+01 0. -1.
         15    1    1    2    0    0 -0.36523365364E+01 -0.17130424764E+00 -0.54519487041E+00  0.41016915739E+01  0.17770000000E+01 0.  1.
</event>
<event>
 6    1  0.1097339E-002  0.1825973E+03  0.7546771E-02  0.1068377E+00
        -11   -1    0    0    0    0  0.00000000000E+00  0.00000000000E+00  0.18250000000E+03  0.18250000000E+03  0.00000000000E+00 0.  1.
         11   -1    0    0    0    0 -0.00000000000E+00 -0.00000000000E+00 -0.18250000000E+03  0.18250000000E+03  0.00000000000E+00 0.  1.
        -11    1    1    2    0    0  0.80736264312E-01 -0.35341114735E+01  0.18236844191E+03  0.18240270028E+03  0.00000000000E+00 0.  1.
         11    1    1    2    0    0  0.21479482949E+01  0.16174799442E+00 -0.10692513973E+03  0.10694683422E+03  0.00000000000E+00 0.  1.
        -15    1    1    2    0    0 -0.15287910346E+01  0.13304329618E+01 -0.44296251503E+02  0.44378180225E+02  0.17770000000E+01 0. -1.
         15    1    1    2    0    0 -0.69989352465E+00  0.20419305173E+01 -0.31147050681E+02  0.31272285275E+02  0.17770000000E+01 0.  1.
</event>
<event>
 6    1  0.1097339E-002  0.1423498E+03  0.7546771E-02  0.1105838E+00
        -11   -1    0    0    0    0  0.00000000000E+00  0.00000000000E+00  0.18250000000E+03  0.18250000000E+03  0.00000000000E+00 0.  1.
         11   -1    0    0    0    0 -0.00000000000E+00 -0.00000000000E+00 -0.18250000000E+03  0.18250000000E+03  0.00000000000E+00 0.  1.
        -11    1    1    2    0    0  0.11945813864E+02 -0.53915799529E+00  0.13064223828E+03  0.13118836679E+03  0.00000000000E+00 0.  1.
         11    1    1    2    0    0  0.19695146232E+01  0.33963484609E+02 -0.15292985911E+03  0.15666824529E+03  0.00000000000E+00 0.  1.
        -15    1    1    2    0    0 -0.51915617747E+01 -0.28965078140E+02  0.44168673126E+02  0.53103271839E+02  0.17770000000E+01 0.  1.
         15    1    1    2    0    0 -0.87237667130E+01 -0.44592484731E+01 -0.21881052293E+02  0.24040116078E+02  0.17770000000E+01 0. -1.
</event>
<event>
 6    1  0.1097339E-002  0.2280461E+03  0.7546771E-02  0.1037059E+00
        -11   -1    0    0    0    0  0.00000000000E+00  0.00000000000E+00  0.18250000000E+03  0.18250000000E+03  0.00000000000E+00 0.  1.
         11   -1    0    0    0    0 -0.00000000000E+00 -0.00000000000E+00 -0.18250000000E+03  0.18250000000E+03  0.00000000000E+00 0. -1.
        -11    1    1    2    0    0  0.52809289954E+01 -0.46975023976E+01  0.13677142925E+03  0.13695392875E+03  0.00000000000E+00 0.  1.
         11    1    1    2    0    0 -0.13413916010E+01  0.36987584332E+01 -0.10500902688E+03  0.10508270967E+03  0.00000000000E+00 0. -1.
        -15    1    1    2    0    0  0.30158538441E+01  0.42701541548E+01 -0.76921972202E+02  0.77119888015E+02  0.17770000000E+01 0. -1.
         15    1    1    2    0    0 -0.69553912385E+01 -0.32714101904E+01  0.45159569830E+02  0.45843473562E+02  0.17770000000E+01 0.  1.
</event>
<event>
 6    1  0.1097339E-002  0.1977987E+03  0.7546771E-02  0.1056890E+00
        -11   -1    0    0    0    0  0.00000000000E+00  0.00000000000E+00  0.18250000000E+03  0.18250000000E+03  0.00000000000E+00 0. -1.
         11   -1    0    0    0    0 -0.00000000000E+00 -0.00000000000E+00 -0.18250000000E+03  0.18250000000E+03  0.00000000000E+00 0. -1.
        -11    1    1    2    0    0  0.17199002234E+01  0.34937977743E+01  0.15041735417E+03  0.15046775441E+03  0.00000000000E+00 0. -1.
         11    1    1    2    0    0 -0.65738875750E+01  0.14211954935E+02 -0.16646644977E+03  0.16720129952E+03  0.00000000000E+00 0. -1.
        -15    1    1    2    0    0  0.41298163490E+01 -0.13385589933E+02 -0.12217203819E+02  0.18672096805E+02  0.17770000000E+01 0.  1.
         15    1    1    2    0    0  0.72417100250E+00 -0.43201627762E+01  0.28266299415E+02  0.28658849274E+02  0.17770000000E+01 0. -1.
</event>
<event>
 6    1  0.1214904E-002  0.2140276E+03  0.7546771E-02  0.1045806E+00
        -11   -1    0    0    0    0  0.00000000000E+00  0.00000000000E+00  0.18250000000E+03  0.18250000000E+03  0.00000000000E+00 0.  1.
         11   -1    0    0    0    0 -0.00000000000E+00 -0.00000000000E+00 -0.18250000000E+03  0.18250000000E+03  0.00000000000E+00 0. -1.
        -11    1    1    2    0    0 -0.45680082660E+01  0.60563120453E+00  0.15090203357E+03  0.15097237239E+03  0.00000000000E+00 0.  1.
         11    1    1    2    0    0  0.37533459937E+01  0.19426268862E+02 -0.99574940826E+02  0.10152160543E+03  0.00000000000E+00 0. -1.
        -15    1    1    2    0    0  0.14945364770E+00  0.83492277273E+01  0.27452042478E+02  0.28748987899E+02  0.17770000000E+01 0. -1.
         15    1    1    2    0    0  0.66520862452E+00 -0.28381127794E+02 -0.78779135221E+02  0.83757034287E+02  0.17770000000E+01 0.  1.
</event>
<event>
 6    1  0.1288474E-002  0.1837702E+03  0.7546771E-02  0.1067448E+00
        -11   -1    0    0    0    0  0.00000000000E+00  0.00000000000E+00  0.18250000000E+03  0.18250000000E+03  0.00000000000E+00 0.  1.
         11   -1    0    0    0    0 -0.00000000000E+00 -0.00000000000E+00 -0.18250000000E+03  0.18250000000E+03  0.00000000000E+00 0. -1.
        -11    1    1    2    0    0  0.10101443266E+01  0.85226039727E+00  0.96864431190E+02  0.96873447183E+02  0.00000000000E+00 0.  1.
         11    1    1    2    0    0 -0.48318973997E+01  0.16539523359E+01 -0.18115783160E+03  0.18122980644E+03  0.00000000000E+00 0. -1.
        -15    1    1    2    0    0  0.68543500439E+00 -0.44452138831E+00  0.82241554782E+02  0.82264807071E+02  0.17770000000E+01 0.  1.
         15    1    1    2    0    0  0.31363180687E+01 -0.20616913449E+01  0.20518456330E+01  0.46319393057E+01  0.17770000000E+01 0.  1.
</event>
<event>
 6    1  0.1097339E-002  0.1831339E+03  0.7546771E-02  0.1067951E+00
        -11   -1    0    0    0    0  0.00000000000E+00  0.00000000000E+00  0.18250000000E+03  0.18250000000E+03  0.00000000000E+00 0. -1.
         11   -1    0    0    0    0 -0.00000000000E+00 -0.00000000000E+00 -0.18250000000E+03  0.18250000000E+03  0.00000000000E+00 0. -1.
        -11    1    1    2    0    0 -0.36268772947E+01  0.16582993692E+01  0.18182235888E+03  0.18186608915E+03  0.00000000000E+00 0. -1.
         11    1    1    2    0    0  0.90863487266E+00 -0.20339680417E+01 -0.14585598424E+03  0.14587299538E+03  0.00000000000E+00 0. -1.
        -15    1    1    2    0    0  0.23095243066E+01 -0.13727559782E+01 -0.33740682199E+02  0.33894095736E+02  0.17770000000E+01 0. -1.
         15    1    1    2    0    0  0.40871811541E+00  0.17484246508E+01 -0.22256924358E+01  0.33668197273E+01  0.17770000000E+01 0.  1.
</event>
<event>
 6    1  0.1097339E-002  0.1839712E+03  0.7546771E-02  0.1067290E+00
        -11   -1    0    0    0    0  0.00000000000E+00  0.00000000000E+00  0.18250000000E+03  0.18250000000E+03  0.00000000000E+00 0.  1.
         11   -1    0    0    0    0 -0.00000000000E+00 -0.00000000000E+00 -0.18250000000E+03  0.18250000000E+03  0.00000000000E+00 0.  1.
        -11    1    1    2    0    0 -0.49226225940E+01 -0.73519238868E+01  0.18081249560E+03  0.18102884180E+03  0.00000000000E+00 0.  1.
         11    1    1    2    0    0  0.22261934192E+01 -0.26771099540E+01 -0.11573237737E+03  0.11578474004E+03  0.00000000000E+00 0.  1.
        -15    1    1    2    0    0 -0.34584646415E+01  0.69372830971E+01 -0.56427751921E+02  0.56985399799E+02  0.17770000000E+01 0. -1.
         15    1    1    2    0    0  0.61548938164E+01  0.30917507436E+01 -0.86523663065E+01  0.11201018358E+02  0.17770000000E+01 0.  1.
</event>
<event>
 6    1  0.1097339E-002  0.1886448E+03  0.7546771E-02  0.1063666E+00
        -11   -1    0    0    0    0  0.00000000000E+00  0.00000000000E+00  0.18250000000E+03  0.18250000000E+03  0.00000000000E+00 0.  1.
         11   -1    0    0    0    0 -0.00000000000E+00 -0.00000000000E+00 -0.18250000000E+03  0.18250000000E+03  0.00000000000E+00 0. -1.
        -11    1    1    2    0    0  0.50567442309E+01 -0.21770629000E+01  0.17626926664E+03  0.17635522285E+03  0.00000000000E+00 0.  1.
         11    1    1    2    0    0 -0.77158596250E+00  0.12026970268E+02 -0.15977154005E+03  0.16022542984E+03  0.00000000000E+00 0. -1.
        -15    1    1    2    0    0 -0.43658759431E+01 -0.15358230968E+02 -0.15894934476E+02  0.22599619515E+02  0.17770000000E+01 0.  1.
         15    1    1    2    0    0  0.80717674619E-01  0.55083236000E+01 -0.60279212010E+00  0.58197277914E+01  0.17770000000E+01 0. -1.
</event>
<event>
 6    1  0.1097339E-002  0.1848024E+03  0.7546771E-02  0.1066637E+00
        -11   -1    0    0    0    0  0.00000000000E+00  0.00000000000E+00  0.18250000000E+03  0.18250000000E+03  0.00000000000E+00 0. -1.
         11   -1    0    0    0    0 -0.00000000000E+00 -0.00000000000E+00 -0.18250000000E+03  0.18250000000E+03  0.00000000000E+00 0. -1.
        -11    1    1    2    0    0 -0.15652448471E+01  0.92970994825E+00  0.61104492993E+02  0.61131607340E+02  0.00000000000E+00 0. -1.
         11    1    1    2    0    0 -0.25653471234E+01  0.77402295633E+01 -0.18001300604E+03  0.18019759850E+03  0.00000000000E+00 0. -1.
        -15    1    1    2    0    0  0.88483266331E+01 -0.97081397147E+01  0.11762044153E+03  0.11836497309E+03  0.17770000000E+01 0.  1.
         15    1    1    2    0    0 -0.47177346627E+01  0.10382002031E+01  0.12880715218E+01  0.53058210726E+01  0.17770000000E+01 0. -1.
</event>
<event>
 6    1  0.1097339E-002  0.1845884E+03  0.7546771E-02  0.1066805E+00
        -11   -1    0    0    0    0  0.00000000000E+00  0.00000000000E+00  0.18250000000E+03  0.18250000000E+03  0.00000000000E+00 0. -1.
         11   -1    0    0    0    0 -0.00000000000E+00 -0.00000000000E+00 -0.18250000000E+03  0.18250000000E+03  0.00000000000E+00 0. -1.
        -11    1    1    2    0    0  0.14443739844E+01 -0.33430752147E+01  0.18037487355E+03  0.18041163315E+03  0.00000000000E+00 0. -1.
         11    1    1    2    0    0 -0.31616959270E+01 -0.17856235101E+01 -0.35897781512E+02  0.36080957443E+02  0.00000000000E+00 0. -1.
        -15    1    1    2    0    0  0.31880963363E+01  0.72592881581E+01 -0.62660944520E+01  0.10260745172E+02  0.17770000000E+01 0.  1.
         15    1    1    2    0    0 -0.14707743938E+01 -0.21305894332E+01 -0.13821099759E+03  0.13824666423E+03  0.17770000000E+01 0. -1.
</event>
<event>
 6    1  0.1097339E-002  0.1791753E+03  0.7546771E-02  0.1071132E+00
        -11   -1    0    0    0    0  0.00000000000E+00  0.00000000000E+00  0.18250000000E+03  0.18250000000E+03  0.00000000000E+00 0.  1.
         11   -1    0    0    0    0 -0.00000000000E+00 -0.00000000000E+00 -0.18250000000E+03  0.18250000000E+03  0.00000000000E+00 0.  1.
        -11    1    1    2    0    0  0.29423776292E+01 -0.63967588305E-01  0.17999434238E+03  0.18001840175E+03  0.00000000000E+00 0.  1.
         11    1    1    2    0    0 -0.56898813567E+00  0.33730119618E+01 -0.17832639994E+03  0.17835920462E+03  0.00000000000E+00 0.  1.
        -15    1    1    2    0    0 -0.15856811794E+01 -0.21624600125E+01  0.76225422260E+00  0.33059610718E+01  0.17770000000E+01 0.  1.
         15    1    1    2    0    0 -0.78770831411E+00 -0.11465843610E+01 -0.24301966660E+01  0.33164325594E+01  0.17770000000E+01 0. -1.
</event>
<event>
 6    1  0.1097339E-002  0.1777655E+03  0.7546771E-02  0.1072287E+00
        -11   -1    0    0    0    0  0.00000000000E+00  0.00000000000E+00  0.18250000000E+03  0.18250000000E+03  0.00000000000E+00 0. -1.
         11   -1    0    0    0    0 -0.00000000000E+00 -0.00000000000E+00 -0.18250000000E+03  0.18250000000E+03  0.00000000000E+00 0. -1.
        -11    1    1    2    0    0  0.41808511809E+01  0.17071985321E+01  0.17795270839E+03  0.17801000103E+03  0.00000000000E+00 0. -1.
         11    1    1    2    0    0  0.13894931969E+01  0.34888352360E+01 -0.17756309036E+03  0.17760279762E+03  0.00000000000E+00 0. -1.
        -15    1    1    2    0    0 -0.24415948544E+01 -0.36041759279E+01  0.16146626498E+01  0.49715524763E+01  0.17770000000E+01 0. -1.
         15    1    1    2    0    0 -0.31287495234E+01 -0.15918578402E+01 -0.20042806755E+01  0.44156488753E+01  0.17770000000E+01 0.  1.
</event>
<event>
 6    1  0.1097339E-002  0.1843656E+03  0.7546771E-02  0.1066979E+00
        -11   -1    0    0    0    0  0.00000000000E+00  0.00000000000E+00  0.18250000000E+03  0.18250000000E+03  0.00000000000E+00 0.  1.
         11   -1    0    0    0    0 -0.00000000000E+00 -0.00000000000E+00 -0.18250000000E+03  0.18250000000E+03  0.00000000000E+00 0. -1.
        -11    1    1    2    0    0 -0.12790761076E+00 -0.47368774210E+01  0.18057225298E+03  0.18063441786E+03  0.00000000000E+00 0.  1.
         11    1    1    2    0    0 -0.30178773745E+01  0.22915768115E+01 -0.15766739052E+03  0.15771291939E+03  0.00000000000E+00 0. -1.
        -15    1    1    2    0    0  0.29003872618E+01 -0.21323652286E+01 -0.20999450371E+02  0.21379753802E+02  0.17770000000E+01 0.  1.
         15    1    1    2    0    0  0.24539772341E+00  0.45776658381E+01 -0.19054120942E+01  0.52729089521E+01  0.17770000000E+01 0.  1.
</event>
<event>
 6    1  0.1097339E-002  0.1854070E+03  0.7546771E-02  0.1066164E+00
        -11   -1    0    0    0    0  0.00000000000E+00  0.00000000000E+00  0.18250000000E+03  0.18250000000E+03  0.00000000000E+00 0.  1.
         11   -1    0    0    0    0 -0.00000000000E+00 -0.00000000000E+00 -0.18250000000E+03  0.18250000000E+03  0.00000000000E+00 0. -1.
        -11    1    1    2    0    0 -0.12603500182E+01  0.34334840725E+01  0.17955575868E+03  0.17959300591E+03  0.00000000000E+00 0.  1.
         11    1    1    2    0    0 -0.91173221140E+00  0.36786353606E+01 -0.17184072039E+03  0.17188250870E+03  0.00000000000E+00 0. -1.
        -15    1    1    2    0    0  0.56945345203E+00 -0.63762827109E+01 -0.14813525414E+01  0.68068636533E+01  0.17770000000E+01 0. -1.
         15    1    1    2    0    0  0.16026287775E+01 -0.73583672224E+00 -0.62336857536E+01  0.67176217336E+01  0.17770000000E+01 0.  1.
</event>
<event>
 6    1  0.1097339E-002  0.1849912E+03  0.7546771E-02  0.1066489E+00
        -11   -1    0    0    0    0  0.00000000000E+00  0.00000000000E+00  0.18250000000E+03  0.18250000000E+03  0.00000000000E+00 0.  1.
         11   -1    0    0    0    0 -0.00000000000E+00 -0.00000000000E+00 -0.18250000000E+03  0.18250000000E+03  0.00000000000E+00 0.  1.
        -11    1    1    2    0    0  0.44008922775E+01  0.42671469868E+00  0.17995446688E+03  0.18000877780E+03  0.00000000000E+00 0.  1.
         11    1    1    2    0    0  0.29504158726E+01  0.33900334429E+01 -0.16335037700E+03  0.16341218727E+03  0.00000000000E+00 0.  1.
        -15    1    1    2    0    0 -0.27509000972E+01 -0.31094408691E+01 -0.15922452044E+02  0.16550476789E+02  0.17770000000E+01 0. -1.
         15    1    1    2    0    0 -0.46004080529E+01 -0.70730727243E+00 -0.68163783031E+00  0.50285581395E+01  0.17770000000E+01 0.  1.
</event>
<event>
 6    1  0.1097339E-002  0.1866995E+03  0.7546771E-02  0.1065160E+00
        -11   -1    0    0    0    0  0.00000000000E+00  0.00000000000E+00  0.18250000000E+03  0.18250000000E+03  0.00000000000E+00 0. -1.
         11   -1    0    0    0    0 -0.00000000000E+00 -0.00000000000E+00 -0.18250000000E+03  0.18250000000E+03  0.00000000000E+00 0.  1.
        -11    1    1    2    0    0  0.13865426693E+01  0.29791800858E+01  0.16474857483E+03  0.16478134276E+03  0.00000000000E+00 0. -1.
         11    1    1    2    0    0  0.69521217129E+01  0.62425138131E+01 -0.17805549576E+03  0.17830047826E+03  0.00000000000E+00 0.  1.
        -15    1    1    2    0    0 -0.18221017443E+01  0.23582591760E+01  0.52009390236E+01  0.62521145891E+01  0.17770000000E+01 0.  1.
         15    1    1    2    0    0 -0.65165626378E+01 -0.11579953075E+02  0.81059819114E+01  0.15666064393E+02  0.17770000000E+01 0.  1.
</event>
<event>
 6    1  0.1097339E-002  0.2160792E+03  0.7546771E-02  0.1044481E+00
        -11   -1    0    0    0    0  0.00000000000E+00  0.00000000000E+00  0.18250000000E+03  0.18250000000E+03  0.00000000000E+00 0. -1.
         11   -1    0    0    0    0 -0.00000000000E+00 -0.00000000000E+00 -0.18250000000E+03  0.18250000000E+03  0.00000000000E+00 0.  1.
        -11    1    1    2    0    0 -0.14785200093E+02  0.16248328439E+02  0.14729155755E+03  0.14892082878E+03  0.00000000000E+00 0. -1.
         11    1    1    2    0    0  0.19883025330E+01 -0.18187035177E+01 -0.94329753879E+02  0.94368233513E+02  0.00000000000E+00 0.  1.
        -15    1    1    2    0    0 -0.15778455161E+02 -0.19498992469E+02  0.26838785671E+02  0.36778370000E+02  0.17770000000E+01 0. -1.
         15    1    1    2    0    0  0.28575352721E+02  0.50693675475E+01 -0.79800589338E+02  0.84932567712E+02  0.17770000000E+01 0.  1.
</event>
<event>
 6    1  0.1097339E-002  0.1836808E+03  0.7546771E-02  0.1067519E+00
        -11   -1    0    0    0    0  0.00000000000E+00  0.00000000000E+00  0.18250000000E+03  0.18250000000E+03  0.00000000000E+00 0.  1.
         11   -1    0    0    0    0 -0.00000000000E+00 -0.00000000000E+00 -0.18250000000E+03  0.18250000000E+03  0.00000000000E+00 0. -1.
        -11    1    1    2    0    0  0.19885583161E+01 -0.34254425767E+01  0.13465603811E+03  0.13471427772E+03  0.00000000000E+00 0.  1.
         11    1    1    2    0    0 -0.42378072014E+01 -0.92336091501E+00 -0.18126734738E+03  0.18131922908E+03  0.00000000000E+00 0. -1.
        -15    1    1    2    0    0  0.50279709432E+01  0.27767092372E+01  0.71739321610E+01  0.93602156837E+01  0.17770000000E+01 0. -1.
         15    1    1    2    0    0 -0.27787220579E+01  0.15720942545E+01  0.39437377112E+02  0.39606277522E+02  0.17770000000E+01 0.  1.
</event>
<event>
 6    1  0.1097339E-002  0.1837300E+03  0.7546771E-02  0.1067480E+00
        -11   -1    0    0    0    0  0.00000000000E+00  0.00000000000E+00  0.18250000000E+03  0.18250000000E+03  0.00000000000E+00 0.  1.
         11   -1    0    0    0    0 -0.00000000000E+00 -0.00000000000E+00 -0.18250000000E+03  0.18250000000E+03  0.00000000000E+00 0. -1.
        -11    1    1    2    0    0 -0.25370329866E+00 -0.30671914308E+01  0.18124385809E+03  0.18126998682E+03  0.00000000000E+00 0.  1.
         11    1    1    2    0    0 -0.84509271544E+00  0.28401641189E+01 -0.17770099687E+03  0.17772570158E+03  0.00000000000E+00 0. -1.
        -15    1    1    2    0    0  0.94730314182E+00  0.94849546638E+00 -0.34147733232E+01  0.40762032261E+01  0.17770000000E+01 0.  1.
         15    1    1    2    0    0  0.15149287228E+00 -0.72146815448E+00 -0.12808789913E+00  0.19281083730E+01  0.17770000000E+01 0.  1.
</event>
<event>
 6    1  0.1097339E-002  0.1843837E+03  0.7546771E-02  0.1066965E+00
        -11   -1    0    0    0    0  0.00000000000E+00  0.00000000000E+00  0.18250000000E+03  0.18250000000E+03  0.00000000000E+00 0. -1.
         11   -1    0    0    0    0 -0.00000000000E+00 -0.00000000000E+00 -0.18250000000E+03  0.18250000000E+03  0.00000000000E+00 0.  1.
        -11    1    1    2    0    0  0.26138047735E+01  0.53206655691E+01  0.18051899827E+03  0.18061630655E+03  0.00000000000E+00 0. -1.
         11    1    1    2    0    0  0.82862509319E+00 -0.31642327577E+01 -0.12385260006E+03  0.12389578496E+03  0.00000000000E+00 0.  1.
        -15    1    1    2    0    0  0.84940452298E+00 -0.11295733878E+01  0.11021098057E+01  0.25238460939E+01  0.17770000000E+01 0. -1.
         15    1    1    2    0    0 -0.42918343896E+01 -0.10268594236E+01 -0.57768508009E+02  0.57964062394E+02  0.17770000000E+01 0.  1.
</event>
<event>
 6    1  0.1097339E-002  0.1832997E+03  0.7546771E-02  0.1067820E+00
        -11   -1    0    0    0    0  0.00000000000E+00  0.00000000000E+00  0.18250000000E+03  0.18250000000E+03  0.00000000000E+00 0.  1.
         11   -1    0    0    0    0 -0.00000000000E+00 -0.00000000000E+00 -0.18250000000E+03  0.18250000000E+03  0.00000000000E+00 0.  1.
        -11    1    1    2    0    0 -0.17524256398E+00 -0.23165632680E+01  0.17097786073E+03  0.17099364326E+03  0.00000000000E+00 0.  1.
         11    1    1    2    0    0 -0.26819737505E+01 -0.11465601666E+01 -0.18167691872E+03  0.18170033125E+03  0.00000000000E+00 0.  1.
        -15    1    1    2    0    0  0.19108803190E+01  0.21091976001E+01  0.80092894317E+01  0.86836987690E+01  0.17770000000E+01 0.  1.
         15    1    1    2    0    0  0.94633599554E+00  0.13539258345E+01  0.26897685510E+01  0.36223267163E+01  0.17770000000E+01 0. -1.
</event>
<event>
 6    1  0.1097339E-002  0.1848788E+03  0.7546771E-02  0.1066577E+00
        -11   -1    0    0    0    0  0.00000000000E+00  0.00000000000E+00  0.18250000000E+03  0.18250000000E+03  0.00000000000E+00 0.  1.
         11   -1    0    0    0    0 -0.00000000000E+00 -0.00000000000E+00 -0.18250000000E+03  0.18250000000E+03  0.00000000000E+00 0. -1.
        -11    1    1    2    0    0  0.21523457016E+01 -0.29113153663E+01  0.17428926384E+03  0.17432686493E+03  0.00000000000E+00 0.  1.
         11    1    1    2    0    0  0.29798825319E+01 -0.13394733009E+01 -0.18009152386E+03  0.18012115605E+03  0.00000000000E+00 0. -1.
        -15    1    1    2    0    0 -0.14700228120E+01  0.16984967055E+01  0.48818873353E+01  0.56600716498E+01  0.17770000000E+01 0. -1.
         15    1    1    2    0    0 -0.36622054214E+01  0.25522919617E+01  0.92037269036E+00  0.48919073679E+01  0.17770000000E+01 0.  1.
</event>
<event>
 6    1  0.1097339E-002  0.1830132E+03  0.7546771E-02  0.1068047E+00
        -11   -1    0    0    0    0  0.00000000000E+00  0.00000000000E+00  0.18250000000E+03  0.18250000000E+03  0.00000000000E+00 0. -1.
         11   -1    0    0    0    0 -0.00000000000E+00 -0.00000000000E+00 -0.18250000000E+03  0.18250000000E+03  0.00000000000E+00 0.  1.
        -11    1    1    2    0    0  0.16403841693E+01 -0.84592978961E+00  0.13616940639E+03  0.13618191398E+03  0.00000000000E+00 0. -1.
         11    1    1    2    0    0  0.24332650377E+01 -0.61052543469E+00 -0.18196949799E+03  0.18198678996E+03  0.00000000000E+00 0.  1.
        -15    1    1    2    0    0  0.22071301983E+01  0.25222219366E+00  0.19507664314E+02  0.19713998471E+02  0.17770000000E+01 0. -1.
         15    1    1    2    0    0 -0.62807794053E+01  0.12042330306E+01  0.26292427287E+02  0.27117297594E+02  0.17770000000E+01 0. -1.
</event>
<event>
 6    1  0.1097339E-002  0.1948841E+03  0.7546771E-02  0.1059003E+00
        -11   -1    0    0    0    0  0.00000000000E+00  0.00000000000E+00  0.18250000000E+03  0.18250000000E+03  0.00000000000E+00 0. -1.
         11   -1    0    0    0    0 -0.00000000000E+00 -0.00000000000E+00 -0.18250000000E+03  0.18250000000E+03  0.00000000000E+00 0. -1.
        -11    1    1    2    0    0  0.37976839517E+01 -0.31793331258E+00  0.17007319001E+03  0.17011588240E+03  0.00000000000E+00 0. -1.
         11    1    1    2    0    0  0.30277056525E+01 -0.25940338403E+01 -0.16524423432E+03  0.16529232586E+03  0.00000000000E+00 0. -1.
        -15    1    1    2    0    0 -0.30429843351E+01 -0.41466706651E+01  0.10714162046E+02  0.12016889307E+02  0.17770000000E+01 0.  1.
         15    1    1    2    0    0 -0.37824052690E+01  0.70586378180E+01 -0.15543117734E+02  0.17574902429E+02  0.17770000000E+01 0. -1.
</event>
<event>
 6    1  0.1097339E-002  0.1968257E+03  0.7546771E-02  0.1057591E+00
        -11   -1    0    0    0    0  0.00000000000E+00  0.00000000000E+00  0.18250000000E+03  0.18250000000E+03  0.00000000000E+00 0. -1.
         11   -1    0    0    0    0 -0.00000000000E+00 -0.00000000000E+00 -0.18250000000E+03  0.18250000000E+03  0.00000000000E+00 0.  1.
        -11    1    1    2    0    0  0.22422738808E+01 -0.27247745557E+01  0.16813729180E+03  0.16817431755E+03  0.00000000000E+00 0. -1.
         11    1    1    2    0    0  0.62173565382E+01  0.97945751825E-01 -0.15857168724E+03  0.15869355724E+03  0.00000000000E+00 0.  1.
        -15    1    1    2    0    0 -0.54223077483E+01 -0.18866832710E+01 -0.22871324764E+02  0.23647752970E+02  0.17770000000E+01 0. -1.
         15    1    1    2    0    0 -0.30373226707E+01  0.45135120749E+01  0.13305720197E+02  0.14484372241E+02  0.17770000000E+01 0.  1.
</event>
<event>
 6    1  0.1097339E-002  0.2154591E+03  0.7546771E-02  0.1044880E+00
        -11   -1    0    0    0    0  0.00000000000E+00  0.00000000000E+00  0.18250000000E+03  0.18250000000E+03  0.00000000000E+00 0.  1.
         11   -1    0    0    0    0 -0.00000000000E+00 -0.00000000000E+00 -0.18250000000E+03  0.18250000000E+03  0.00000000000E+00 0.  1.
        -11    1    1    2    0    0  0.32315293477E+01 -0.98554957169E+00  0.14176845760E+03  0.14180870798E+03  0.00000000000E+00 0.  1.
         11    1    1    2    0    0 -0.13252783441E+02  0.37503384001E+01 -0.14890523549E+03  0.14954086553E+03  0.00000000000E+00 0.  1.
        -15    1    1    2    0    0  0.26470025228E+02 -0.88661236338E+01 -0.24660893768E+02  0.37290585867E+02  0.17770000000E+01 0. -1.
         15    1    1    2    0    0 -0.16448771135E+02  0.61013348054E+01  0.31797671660E+02  0.36359840624E+02  0.17770000000E+01 0.  1.
</event>
<event>
 6    1  0.1097339E-002  0.1834005E+03  0.7546771E-02  0.1067740E+00
        -11   -1    0    0    0    0  0.00000000000E+00  0.00000000000E+00  0.18250000000E+03  0.18250000000E+03  0.00000000000E+00 0.  1.
         11   -1    0    0    0    0 -0.00000000000E+00 -0.00000000000E+00 -0.18250000000E+03  0.18250000000E+03  0.00000000000E+00 0. -1.
        -11    1    1    2    0    0  0.18080556356E+01 -0.25813991885E+01  0.17058466854E+03  0.17061377972E+03  0.00000000000E+00 0.  1.
         11    1    1    2    0    0  0.25524820472E+01  0.37981676477E+01 -0.18154184239E+03  0.18159950930E+03  0.00000000000E+00 0. -1.
        -15    1    1    2    0    0 -0.17843703026E+00 -0.71023798041E+00  0.23083528940E+01  0.30037476335E+01  0.17770000000E+01 0.  1.
         15    1    1    2    0    0 -0.41821006526E+01 -0.50653047881E+00  0.86488209506E+01  0.97829633461E+01  0.17770000000E+01 0. -1.
</event>
<event>
 6    1  0.1097339E-002  0.1850718E+03  0.7546771E-02  0.1066426E+00
        -11   -1    0    0    0    0  0.00000000000E+00  0.00000000000E+00  0.18250000000E+03  0.18250000000E+03  0.00000000000E+00 0.  1.
         11   -1    0    0    0    0 -0.00000000000E+00 -0.00000000000E+00 -0.18250000000E+03  0.18250000000E+03  0.00000000000E+00 0.  1.
        -11    1    1    2    0    0  0.57563136168E+01 -0.97080564258E+00  0.17983349525E+03  0.17992821797E+03  0.00000000000E+00 0.  1.
         11    1    1    2    0    0 -0.24037799222E+01 -0.86470583139E+00 -0.15657650613E+03  0.15659734399E+03  0.00000000000E+00 0.  1.
        -15    1    1    2    0    0 -0.36198730071E+01  0.10996547781E+01  0.87006871697E+00  0.42693640968E+01  0.17770000000E+01 0.  1.
         15    1    1    2    0    0  0.26733931249E+00  0.73585669582E+00 -0.24127057840E+02  0.24205073939E+02  0.17770000000E+01 0. -1.
</event>
<event>
 6    1  0.1097339E-002  0.1894728E+03  0.7546771E-02  0.1063036E+00
        -11   -1    0    0    0    0  0.00000000000E+00  0.00000000000E+00  0.18250000000E+03  0.18250000000E+03  0.00000000000E+00 0.  1.
         11   -1    0    0    0    0 -0.00000000000E+00 -0.00000000000E+00 -0.18250000000E+03  0.18250000000E+03  0.00000000000E+00 0.  1.
        -11    1    1    2    0    0  0.76571705808E+01 -0.50026543804E+01  0.17528874216E+03  0.17552721139E+03  0.00000000000E+00 0.  1.
         11    1    1    2    0    0  0.15108558721E+01  0.17068157067E+01 -0.16746850027E+03  0.16748401264E+03  0.00000000000E+00 0.  1.
        -15    1    1    2    0    0 -0.18268499295E+01  0.85960497616E+01 -0.89790696883E+01  0.12689006014E+02  0.17770000000E+01 0. -1.
         15    1    1    2    0    0 -0.73411765234E+01 -0.53002110879E+01  0.11588278064E+01  0.92997699547E+01  0.17770000000E+01 0.  1.
</event>
<event>
 6    1  0.1097339E-002  0.1831698E+03  0.7546771E-02  0.1067923E+00
        -11   -1    0    0    0    0  0.00000000000E+00  0.00000000000E+00  0.18250000000E+03  0.18250000000E+03  0.00000000000E+00 0. -1.
         11   -1    0    0    0    0 -0.00000000000E+00 -0.00000000000E+00 -0.18250000000E+03  0.18250000000E+03  0.00000000000E+00 0. -1.
        -11    1    1    2    0    0  0.25653673268E+01  0.15276343061E+00  0.18181200283E+03  0.18183016477E+03  0.00000000000E+00 0. -1.
         11    1    1    2    0    0 -0.15330646226E+00  0.32392713464E+01 -0.16773819290E+03  0.16776953757E+03  0.00000000000E+00 0. -1.
        -15    1    1    2    0    0 -0.21323732437E+01 -0.29107563489E+01 -0.11768580157E+02  0.12436909829E+02  0.17770000000E+01 0. -1.
         15    1    1    2    0    0 -0.27968762079E+00 -0.48127842805E+00 -0.23052297790E+01  0.29633878289E+01  0.17770000000E+01 0.  1.
</event>
<event>
 6    1  0.1097339E-002  0.1845764E+03  0.7546771E-02  0.1066814E+00
        -11   -1    0    0    0    0  0.00000000000E+00  0.00000000000E+00  0.18250000000E+03  0.18250000000E+03  0.00000000000E+00 0. -1.
         11   -1    0    0    0    0 -0.00000000000E+00 -0.00000000000E+00 -0.18250000000E+03  0.18250000000E+03  0.00000000000E+00 0. -1.
        -11    1    1    2    0    0 -0.11939565676E+01  0.25026155547E+01  0.18040230762E+03  0.18042361600E+03  0.00000000000E+00 0. -1.
         11    1    1    2    0    0  0.12233984132E+01  0.22350176031E+01 -0.17383211233E+03  0.17385078454E+03  0.00000000000E+00 0. -1.
        -15    1    1    2    0    0 -0.34629886747E-01 -0.59928891886E+01 -0.43389722517E+01  0.76092265873E+01  0.17770000000E+01 0. -1.
         15    1    1    2    0    0  0.51880411872E-02  0.12552560308E+01 -0.22312230337E+01  0.31163728667E+01  0.17770000000E+01 0. -1.
</event>
<event>
 6    1  0.1097339E-002  0.1836705E+03  0.7546771E-02  0.1067527E+00
        -11   -1    0    0    0    0  0.00000000000E+00  0.00000000000E+00  0.18250000000E+03  0.18250000000E+03  0.00000000000E+00 0. -1.
         11   -1    0    0    0    0 -0.00000000000E+00 -0.00000000000E+00 -0.18250000000E+03  0.18250000000E+03  0.00000000000E+00 0. -1.
        -11    1    1    2    0    0  0.42500723112E+00 -0.41533907638E+01  0.18128141732E+03  0.18132948892E+03  0.00000000000E+00 0. -1.
         11    1    1    2    0    0 -0.14717855556E+01  0.33537754086E+01 -0.17037131858E+03  0.17041068087E+03  0.00000000000E+00 0. -1.
        -15    1    1    2    0    0  0.11131509077E+01 -0.18535036071E+01 -0.12128412963E+01  0.30501300915E+01  0.17770000000E+01 0. -1.
         15    1    1    2    0    0 -0.66372583212E-01  0.26531189624E+01 -0.96972574461E+01  0.10209700119E+02  0.17770000000E+01 0.  1.
</event>
<event>
 6    1  0.1097339E-002  0.1917370E+03  0.7546771E-02  0.1061331E+00
        -11   -1    0    0    0    0  0.00000000000E+00  0.00000000000E+00  0.18250000000E+03  0.18250000000E+03  0.00000000000E+00 0. -1.
         11   -1    0    0    0    0 -0.00000000000E+00 -0.00000000000E+00 -0.18250000000E+03  0.18250000000E+03  0.00000000000E+00 0. -1.
        -11    1    1    2    0    0 -0.54954162548E+00  0.11056938643E+02  0.17290891399E+03  0.17326295168E+03  0.00000000000E+00 0. -1.
         11    1    1    2    0    0 -0.22087601265E+01 -0.31196191150E+01 -0.16777122833E+03  0.16781476604E+03  0.00000000000E+00 0. -1.
        -15    1    1    2    0    0 -0.27074374173E+00  0.41231253415E+01 -0.95922708627E+01  0.10594472807E+02  0.17770000000E+01 0.  1.
         15    1    1    2    0    0  0.30290454937E+01 -0.12060444870E+02  0.44545852076E+01  0.13327809476E+02  0.17770000000E+01 0.  1.
</event>
<event>
 6    1  0.1097339E-002  0.9256680E+02  0.7546771E-02  0.1177336E+00
        -11   -1    0    0    0    0  0.00000000000E+00  0.00000000000E+00  0.18250000000E+03  0.18250000000E+03  0.00000000000E+00 0. -1.
         11   -1    0    0    0    0 -0.00000000000E+00 -0.00000000000E+00 -0.18250000000E+03  0.18250000000E+03  0.00000000000E+00 0. -1.
        -11    1    1    2    0    0  0.68146920812E+01  0.15861865957E+01  0.99483225471E+02  0.99728973554E+02  0.00000000000E+00 0. -1.
         11    1    1    2    0    0  0.51025214123E+01  0.10857535501E+02 -0.95557147925E+02  0.96307270346E+02  0.00000000000E+00 0. -1.
        -15    1    1    2    0    0  0.21807589881E+02 -0.65289686348E+01  0.77404410827E+02  0.80701914180E+02  0.17770000000E+01 0.  1.
         15    1    1    2    0    0 -0.33724803375E+02 -0.59147534615E+01 -0.81330488373E+02  0.88261841920E+02  0.17770000000E+01 0. -1.
</event>
<event>
 6    1  0.1097339E-002  0.1863280E+03  0.7546771E-02  0.1065448E+00
        -11   -1    0    0    0    0  0.00000000000E+00  0.00000000000E+00  0.18250000000E+03  0.18250000000E+03  0.00000000000E+00 0.  1.
         11   -1    0    0    0    0 -0.00000000000E+00 -0.00000000000E+00 -0.18250000000E+03  0.18250000000E+03  0.00000000000E+00 0. -1.
        -11    1    1    2    0    0 -0.59012644974E+00 -0.32728230731E+01  0.14683951075E+03  0.14687716479E+03  0.00000000000E+00 0.  1.
         11    1    1    2    0    0 -0.10706875258E+02 -0.10347515560E+02 -0.17805053133E+03  0.17867204584E+03  0.00000000000E+00 0. -1.
        -15    1    1    2    0    0  0.10497988428E+02  0.10348146512E+02  0.10001197647E+02  0.17901775907E+02  0.17770000000E+01 0. -1.
         15    1    1    2    0    0  0.79901328010E+00  0.32721921214E+01  0.21209822934E+02  0.21549013467E+02  0.17770000000E+01 0.  1.
</event>
<event>
 6    1  0.1097339E-002  0.1778583E+03  0.7546771E-02  0.1072211E+00
        -11   -1    0    0    0    0  0.00000000000E+00  0.00000000000E+00  0.18250000000E+03  0.18250000000E+03  0.00000000000E+00 0.  1.
         11   -1    0    0    0    0 -0.00000000000E+00 -0.00000000000E+00 -0.18250000000E+03  0.18250000000E+03  0.00000000000E+00 0. -1.
        -11    1    1    2    0    0  0.63151594791E+01  0.20082870358E+01  0.17823376926E+03  0.17835692013E+03  0.00000000000E+00 0.  1.
         11    1    1    2    0    0 -0.25099839964E+01  0.15453630024E+01 -0.17737440581E+03  0.17739889516E+03  0.00000000000E+00 0. -1.
        -15    1    1    2    0    0 -0.52492664128E+01 -0.31719872893E+01  0.73559133809E+00  0.64276842527E+01  0.17770000000E+01 0.  1.
         15    1    1    2    0    0  0.14440909301E+01 -0.38166274890E+00 -0.15949547832E+01  0.28165004578E+01  0.17770000000E+01 0.  1.
</event>
<event>
 6    1  0.1097339E-002  0.1450923E+03  0.7546771E-02  0.1102873E+00
        -11   -1    0    0    0    0  0.00000000000E+00  0.00000000000E+00  0.18250000000E+03  0.18250000000E+03  0.00000000000E+00 0.  1.
         11   -1    0    0    0    0 -0.00000000000E+00 -0.00000000000E+00 -0.18250000000E+03  0.18250000000E+03  0.00000000000E+00 0. -1.
        -11    1    1    2    0    0  0.15594858901E-01 -0.27199415205E+02  0.14696116213E+03  0.14945698915E+03  0.00000000000E+00 0.  1.
         11    1    1    2    0    0 -0.16114922334E+01 -0.75272814634E+01 -0.14262706329E+03  0.14283464585E+03  0.00000000000E+00 0. -1.
        -15    1    1    2    0    0  0.33490736798E+01 -0.35171720290E+01 -0.27462458221E+02  0.27945145090E+02  0.17770000000E+01 0.  1.
         15    1    1    2    0    0 -0.17531763054E+01  0.38243868698E+02  0.23128359374E+02  0.44763219907E+02  0.17770000000E+01 0. -1.
</event>
<event>
 6    1  0.1097339E-002  0.2068314E+03  0.7546771E-02  0.1050584E+00
        -11   -1    0    0    0    0  0.00000000000E+00  0.00000000000E+00  0.18250000000E+03  0.18250000000E+03  0.00000000000E+00 0. -1.
         11   -1    0    0    0    0 -0.00000000000E+00 -0.00000000000E+00 -0.18250000000E+03  0.18250000000E+03  0.00000000000E+00 0. -1.
        -11    1    1    2    0    0  0.35026770899E+01  0.20904384088E+00  0.15812965861E+03  0.15816858531E+03  0.00000000000E+00 0. -1.
         11    1    1    2    0    0  0.67003713913E+00  0.23341966879E+01 -0.94165437238E+02  0.94196746198E+02  0.00000000000E+00 0. -1.
        -15    1    1    2    0    0  0.40475493705E+02 -0.18153296498E+02 -0.22805938509E+02  0.49910683473E+02  0.17770000000E+01 0. -1.
         15    1    1    2    0    0 -0.44648207934E+02  0.15610055969E+02 -0.41158282866E+02  0.62723985018E+02  0.17770000000E+01 0.  1.
</event>
<event>
 6    1  0.1097339E-002  0.1841868E+03  0.7546771E-02  0.1067120E+00
        -11   -1    0    0    0    0  0.00000000000E+00  0.00000000000E+00  0.18250000000E+03  0.18250000000E+03  0.00000000000E+00 0.  1.
         11   -1    0    0    0    0 -0.00000000000E+00 -0.00000000000E+00 -0.18250000000E+03  0.18250000000E+03  0.00000000000E+00 0. -1.
        -11    1    1    2    0    0  0.36734617263E+01 -0.39734922938E+01  0.18073215940E+03  0.18081315329E+03  0.00000000000E+00 0.  1.
         11    1    1    2    0    0 -0.12227986458E+01  0.47821750257E+01 -0.50441477331E+02  0.50682413812E+02  0.00000000000E+00 0. -1.
        -15    1    1    2    0    0  0.17020353208E+01 -0.66926777372E+01 -0.70051143037E+01  0.99959099103E+01  0.17770000000E+01 0. -1.
         15    1    1    2    0    0 -0.41526984013E+01  0.58839950053E+01 -0.12328556777E+03  0.12350852298E+03  0.17770000000E+01 0. -1.
</event>
<event>
 6    1  0.1097339E-002  0.1834312E+03  0.7546771E-02  0.1067716E+00
        -11   -1    0    0    0    0  0.00000000000E+00  0.00000000000E+00  0.18250000000E+03  0.18250000000E+03  0.00000000000E+00 0. -1.
         11   -1    0    0    0    0 -0.00000000000E+00 -0.00000000000E+00 -0.18250000000E+03  0.18250000000E+03  0.00000000000E+00 0.  1.
        -11    1    1    2    0    0 -0.43201520287E+01  0.28958618345E+01  0.18149431693E+03  0.18156882113E+03  0.00000000000E+00 0. -1.
         11    1    1    2    0    0  0.26849758477E+00 -0.29275983022E+01 -0.12903009201E+03  0.12906357955E+03  0.00000000000E+00 0.  1.
        -15    1    1    2    0    0 -0.10694175325E+01 -0.17871815185E+01 -0.44387714915E+02  0.44472065795E+02  0.17770000000E+01 0. -1.
         15    1    1    2    0    0  0.51210719764E+01  0.18189179862E+01 -0.80765100057E+01  0.98955335228E+01  0.17770000000E+01 0.  1.
</event>
<event>
 6    1  0.1097339E-002  0.1829688E+03  0.7546771E-02  0.1068082E+00
        -11   -1    0    0    0    0  0.00000000000E+00  0.00000000000E+00  0.18250000000E+03  0.18250000000E+03  0.00000000000E+00 0. -1.
         11   -1    0    0    0    0 -0.00000000000E+00 -0.00000000000E+00 -0.18250000000E+03  0.18250000000E+03  0.00000000000E+00 0. -1.
        -11    1    1    2    0    0  0.14559223241E+01  0.19676342190E+01  0.14268287511E+03  0.14270386871E+03  0.00000000000E+00 0. -1.
         11    1    1    2    0    0 -0.30075178585E+01  0.24473743997E+01 -0.18198989212E+03  0.18203119413E+03  0.00000000000E+00 0. -1.
        -15    1    1    2    0    0  0.39053399642E+01 -0.26043034528E+01  0.18347415923E+02  0.19021552954E+02  0.17770000000E+01 0.  1.
         15    1    1    2    0    0 -0.23537444298E+01 -0.18107051659E+01  0.20959601082E+02  0.21243384206E+02  0.17770000000E+01 0.  1.
</event>
<event>
 6    1  0.1097339E-002  0.1826370E+03  0.7546771E-02  0.1068346E+00
        -11   -1    0    0    0    0  0.00000000000E+00  0.00000000000E+00  0.18250000000E+03  0.18250000000E+03  0.00000000000E+00 0. -1.
         11   -1    0    0    0    0 -0.00000000000E+00 -0.00000000000E+00 -0.18250000000E+03  0.18250000000E+03  0.00000000000E+00 0.  1.
        -11    1    1    2    0    0 -0.48626565414E+00 -0.34549645302E+01  0.98474533896E+02  0.98536323558E+02  0.00000000000E+00 0. -1.
         11    1    1    2    0    0  0.24382821230E+01 -0.57969332734E+00 -0.18234575895E+03  0.18236298164E+03  0.00000000000E+00 0.  1.
        -15    1    1    2    0    0 -0.20837429009E+01  0.29986335641E+01  0.61869355063E+02  0.62002488762E+02  0.17770000000E+01 0.  1.
         15    1    1    2    0    0  0.13172643198E+00  0.10360242935E+01  0.22001869991E+02  0.22098206043E+02  0.17770000000E+01 0. -1.
</event>
<event>
 6    1  0.1097339E-002  0.1829208E+03  0.7546771E-02  0.1068120E+00
        -11   -1    0    0    0    0  0.00000000000E+00  0.00000000000E+00  0.18250000000E+03  0.18250000000E+03  0.00000000000E+00 0. -1.
         11   -1    0    0    0    0 -0.00000000000E+00 -0.00000000000E+00 -0.18250000000E+03  0.18250000000E+03  0.00000000000E+00 0.  1.
        -11    1    1    2    0    0 -0.32966114450E+01 -0.18992027341E+01  0.18203946618E+03  0.18207921865E+03  0.00000000000E+00 0. -1.
         11    1    1    2    0    0 -0.78324057020E+00 -0.27263423215E+01 -0.80798024698E+02  0.80847802712E+02  0.00000000000E+00 0.  1.
        -15    1    1    2    0    0 -0.32669554250E+01  0.18807385400E+01 -0.53215725516E+02  0.53378660028E+02  0.17770000000E+01 0. -1.
         15    1    1    2    0    0  0.73468074402E+01  0.27448065155E+01 -0.48025715962E+02  0.48694318611E+02  0.17770000000E+01 0.  1.
</event>
<event>
 6    1  0.1097339E-002  0.1826885E+03  0.7546771E-02  0.1068305E+00
        -11   -1    0    0    0    0  0.00000000000E+00  0.00000000000E+00  0.18250000000E+03  0.18250000000E+03  0.00000000000E+00 0.  1.
         11   -1    0    0    0    0 -0.00000000000E+00 -0.00000000000E+00 -0.18250000000E+03  0.18250000000E+03  0.00000000000E+00 0. -1.
        -11    1    1    2    0    0 -0.26063069509E+01 -0.37788000731E+00  0.18229251440E+03  0.18231153675E+03  0.00000000000E+00 0.  1.
         11    1    1    2    0    0 -0.75065965909E-01 -0.87218457966E+00 -0.51006903188E+02  0.51014414764E+02  0.00000000000E+00 0. -1.
        -15    1    1    2    0    0  0.40722542465E+01  0.52315488603E+00 -0.27512926744E+02  0.27874285869E+02  0.17770000000E+01 0. -1.
         15    1    1    2    0    0 -0.13908813297E+01  0.72690970094E+00 -0.10377268446E+03  0.10379976261E+03  0.17770000000E+01 0. -1.
</event>
<event>
 6    1  0.1097339E-002  0.1557473E+03  0.7546771E-02  0.1092000E+00
        -11   -1    0    0    0    0  0.00000000000E+00  0.00000000000E+00  0.18250000000E+03  0.18250000000E+03  0.00000000000E+00 0. -1.
         11   -1    0    0    0    0 -0.00000000000E+00 -0.00000000000E+00 -0.18250000000E+03  0.18250000000E+03  0.00000000000E+00 0. -1.
        -11    1    1    2    0    0  0.26714868981E+02 -0.10508017967E+02  0.14455300909E+03  0.14737596515E+03  0.00000000000E+00 0. -1.
         11    1    1    2    0    0  0.63346483296E+01  0.31993178196E+01 -0.16657412497E+03  0.16672523059E+03  0.00000000000E+00 0. -1.
        -15    1    1    2    0    0 -0.28965788953E+02  0.81880391953E+01  0.29478280985E+02  0.42168562868E+02  0.17770000000E+01 0.  1.
         15    1    1    2    0    0 -0.40837283572E+01 -0.87933904754E+00 -0.74571651013E+01  0.87302413944E+01  0.17770000000E+01 0. -1.
</event>
<event>
 6    1  0.1097339E-002  0.2173837E+03  0.7546771E-02  0.1043647E+00
        -11   -1    0    0    0    0  0.00000000000E+00  0.00000000000E+00  0.18250000000E+03  0.18250000000E+03  0.00000000000E+00 0.  1.
         11   -1    0    0    0    0 -0.00000000000E+00 -0.00000000000E+00 -0.18250000000E+03  0.18250000000E+03  0.00000000000E+00 0. -1.
        -11    1    1    2    0    0 -0.34662586459E+01  0.87042081727E+01  0.76757144374E+02  0.77326822005E+02  0.00000000000E+00 0.  1.
         11    1    1    2    0    0  0.19893250587E+02  0.68034803282E+00 -0.14626816081E+03  0.14761632416E+03  0.00000000000E+00 0. -1.
        -15    1    1    2    0    0 -0.19355869300E+02  0.23063658607E+01 -0.32165573494E+02  0.37653032375E+02  0.17770000000E+01 0. -1.
         15    1    1    2    0    0  0.29288773592E+01 -0.11690922066E+02  0.10167658993E+03  0.10240382146E+03  0.17770000000E+01 0.  1.
</event>
<event>
 6    1  0.1097339E-002  0.1837953E+03  0.7546771E-02  0.1067428E+00
        -11   -1    0    0    0    0  0.00000000000E+00  0.00000000000E+00  0.18250000000E+03  0.18250000000E+03  0.00000000000E+00 0.  1.
         11   -1    0    0    0    0 -0.00000000000E+00 -0.00000000000E+00 -0.18250000000E+03  0.18250000000E+03  0.00000000000E+00 0. -1.
        -11    1    1    2    0    0  0.46009199858E+01 -0.37590880892E+01  0.18110726115E+03  0.18120468882E+03  0.00000000000E+00 0.  1.
         11    1    1    2    0    0 -0.11763393332E+01  0.45148529240E+00 -0.77914368132E+02  0.77924555658E+02  0.00000000000E+00 0. -1.
        -15    1    1    2    0    0  0.39912699110E+01 -0.62372502053E+01 -0.71504262632E+02  0.71908628336E+02  0.17770000000E+01 0. -1.
         15    1    1    2    0    0 -0.74158505636E+01  0.95448530021E+01 -0.31688630386E+02  0.33962127188E+02  0.17770000000E+01 0.  1.
</event>
<event>
 6    1  0.1097339E-002  0.1849842E+03  0.7546771E-02  0.1066494E+00
        -11   -1    0    0    0    0  0.00000000000E+00  0.00000000000E+00  0.18250000000E+03  0.18250000000E+03  0.00000000000E+00 0. -1.
         11   -1    0    0    0    0 -0.00000000000E+00 -0.00000000000E+00 -0.18250000000E+03  0.18250000000E+03  0.00000000000E+00 0. -1.
        -11    1    1    2    0    0  0.38234675988E+01 -0.13227251594E+01  0.17997035773E+03  0.18001582755E+03  0.00000000000E+00 0. -1.
         11    1    1    2    0    0 -0.48530972465E+01  0.16389009717E+01 -0.17073828790E+03  0.17081510912E+03  0.00000000000E+00 0. -1.
        -15    1    1    2    0    0 -0.31625996681E+01  0.29236443723E+01 -0.63655911450E+01  0.78884860842E+01  0.17770000000E+01 0. -1.
         15    1    1    2    0    0  0.41922293158E+01 -0.32398201847E+01 -0.28664786880E+01  0.62805772453E+01  0.17770000000E+01 0.  1.
</event>
<event>
 6    1  0.1097339E-002  0.1746544E+03  0.7546771E-02  0.1074877E+00
        -11   -1    0    0    0    0  0.00000000000E+00  0.00000000000E+00  0.18250000000E+03  0.18250000000E+03  0.00000000000E+00 0.  1.
         11   -1    0    0    0    0 -0.00000000000E+00 -0.00000000000E+00 -0.18250000000E+03  0.18250000000E+03  0.00000000000E+00 0.  1.
        -11    1    1    2    0    0  0.38396877151E+01  0.50962564047E+01  0.17496421934E+03  0.17508053313E+03  0.00000000000E+00 0.  1.
         11    1    1    2    0    0 -0.20879737268E+01 -0.10852459318E+02 -0.17393085075E+03  0.17428160073E+03  0.00000000000E+00 0.  1.
        -15    1    1    2    0    0  0.95405646051E+00  0.87678076176E+01  0.31683908941E+01  0.95384015436E+01  0.17770000000E+01 0. -1.
         15    1    1    2    0    0 -0.27057704488E+01 -0.30116047041E+01 -0.42017594856E+01  0.60994645987E+01  0.17770000000E+01 0.  1.
</event>
<event>
 6    1  0.1097339E-002  0.1842252E+03  0.7546771E-02  0.1067090E+00
        -11   -1    0    0    0    0  0.00000000000E+00  0.00000000000E+00  0.18250000000E+03  0.18250000000E+03  0.00000000000E+00 0.  1.
         11   -1    0    0    0    0 -0.00000000000E+00 -0.00000000000E+00 -0.18250000000E+03  0.18250000000E+03  0.00000000000E+00 0.  1.
        -11    1    1    2    0    0  0.46706986616E+01 -0.48198911564E+00  0.18071383458E+03  0.18077482609E+03  0.00000000000E+00 0.  1.
         11    1    1    2    0    0  0.40184445382E+01 -0.12260319555E+01 -0.13213572180E+03  0.13220249629E+03  0.00000000000E+00 0.  1.
        -15    1    1    2    0    0 -0.16712539964E+01 -0.34752540665E+00  0.37680952221E+00  0.24927050055E+01  0.17770000000E+01 0. -1.
         15    1    1    2    0    0 -0.70178892034E+01  0.20555464778E+01 -0.48954922306E+02  0.49529972615E+02  0.17770000000E+01 0.  1.
</event>
<event>
 6    1  0.1097339E-002  0.1846200E+03  0.7546771E-02  0.1066780E+00
        -11   -1    0    0    0    0  0.00000000000E+00  0.00000000000E+00  0.18250000000E+03  0.18250000000E+03  0.00000000000E+00 0.  1.
         11   -1    0    0    0    0 -0.00000000000E+00 -0.00000000000E+00 -0.18250000000E+03  0.18250000000E+03  0.00000000000E+00 0.  1.
        -11    1    1    2    0    0 -0.23698060047E+01  0.13290670454E+01  0.17112339698E+03  0.17114496602E+03  0.00000000000E+00 0.  1.
         11    1    1    2    0    0  0.88195898411E+00  0.23898430036E+01 -0.18036205410E+03  0.18038004258E+03  0.00000000000E+00 0.  1.
        -15    1    1    2    0    0  0.74855636526E+00 -0.14757408082E+01  0.10106846975E+02  0.10394432757E+02  0.17770000000E+01 0. -1.
         15    1    1    2    0    0  0.73929065534E+00 -0.22431692408E+01 -0.86818985542E+00  0.30805586410E+01  0.17770000000E+01 0.  1.
</event>
<event>
 6    1  0.1097339E-002  0.1830505E+03  0.7546771E-02  0.1068017E+00
        -11   -1    0    0    0    0  0.00000000000E+00  0.00000000000E+00  0.18250000000E+03  0.18250000000E+03  0.00000000000E+00 0.  1.
         11   -1    0    0    0    0 -0.00000000000E+00 -0.00000000000E+00 -0.18250000000E+03  0.18250000000E+03  0.00000000000E+00 0. -1.
        -11    1    1    2    0    0  0.35786995525E+00  0.21068920652E+01  0.12003316102E+03  0.12005218369E+03  0.00000000000E+00 0.  1.
         11    1    1    2    0    0  0.13343750165E+01  0.24488613998E+01 -0.18192809936E+03  0.18194947324E+03  0.00000000000E+00 0. -1.
        -15    1    1    2    0    0 -0.19103797886E+01 -0.34130827615E+01  0.59995079601E+02  0.60148698990E+02  0.17770000000E+01 0.  1.
         15    1    1    2    0    0  0.21813481687E+00 -0.11426707034E+01  0.18998587369E+01  0.28496440752E+01  0.17770000000E+01 0. -1.
</event>
<event>
 6    1  0.1097339E-002  0.1863842E+03  0.7546771E-02  0.1065404E+00
        -11   -1    0    0    0    0  0.00000000000E+00  0.00000000000E+00  0.18250000000E+03  0.18250000000E+03  0.00000000000E+00 0.  1.
         11   -1    0    0    0    0 -0.00000000000E+00 -0.00000000000E+00 -0.18250000000E+03  0.18250000000E+03  0.00000000000E+00 0.  1.
        -11    1    1    2    0    0 -0.34264820058E+01  0.17991974480E+01  0.16113722181E+03  0.16118369068E+03  0.00000000000E+00 0.  1.
         11    1    1    2    0    0 -0.21928353767E+01  0.20294165276E+01 -0.17859078753E+03  0.17861577883E+03  0.00000000000E+00 0.  1.
        -15    1    1    2    0    0  0.53382287827E+01 -0.81382387064E+00 -0.15364163136E+01  0.58887434922E+01  0.17770000000E+01 0. -1.
         15    1    1    2    0    0  0.28108859989E+00 -0.30147901050E+01  0.18989982036E+02  0.19311786994E+02  0.17770000000E+01 0.  1.
</event>
<event>
 6    1  0.1097339E-002  0.1890650E+03  0.7546771E-02  0.1063346E+00
        -11   -1    0    0    0    0  0.00000000000E+00  0.00000000000E+00  0.18250000000E+03  0.18250000000E+03  0.00000000000E+00 0.  1.
         11   -1    0    0    0    0 -0.00000000000E+00 -0.00000000000E+00 -0.18250000000E+03  0.18250000000E+03  0.00000000000E+00 0.  1.
        -11    1    1    2    0    0  0.16541605014E+02 -0.76938371619E+00  0.13979550580E+03  0.14077286702E+03  0.00000000000E+00 0.  1.
         11    1    1    2    0    0  0.65009430042E+01 -0.25317190515E+01 -0.17579660997E+03  0.17593498782E+03  0.00000000000E+00 0.  1.
        -15    1    1    2    0    0 -0.45826837810E+01  0.61392737261E+01  0.19288339211E+00  0.78668040221E+01  0.17770000000E+01 0. -1.
         15    1    1    2    0    0 -0.18459864237E+02 -0.28381709583E+01  0.35808220780E+02  0.40425341142E+02  0.17770000000E+01 0.  1.
</event>
<event>
 6    1  0.1097339E-002  0.1828080E+03  0.7546771E-02  0.1068210E+00
        -11   -1    0    0    0    0  0.00000000000E+00  0.00000000000E+00  0.18250000000E+03  0.18250000000E+03  0.00000000000E+00 0. -1.
         11   -1    0    0    0    0 -0.00000000000E+00 -0.00000000000E+00 -0.18250000000E+03  0.18250000000E+03  0.00000000000E+00 0. -1.
        -11    1    1    2    0    0 -0.31734503363E+01  0.35086003281E+01  0.18213054682E+03  0.18219197882E+03  0.00000000000E+00 0. -1.
         11    1    1    2    0    0  0.32035722091E+01  0.28385787319E+00 -0.14996818988E+03  0.15000267140E+03  0.00000000000E+00 0. -1.
        -15    1    1    2    0    0 -0.58294857498E+00 -0.14892301851E+01 -0.24066701307E+02  0.24185149914E+02  0.17770000000E+01 0. -1.
         15    1    1    2    0    0  0.55282670218E+00 -0.23032280162E+01 -0.80956556294E+01  0.86201998658E+01  0.17770000000E+01 0. -1.
</event>
<event>
 6    1  0.1097339E-002  0.1857571E+03  0.7546771E-02  0.1065891E+00
        -11   -1    0    0    0    0  0.00000000000E+00  0.00000000000E+00  0.18250000000E+03  0.18250000000E+03  0.00000000000E+00 0. -1.
         11   -1    0    0    0    0 -0.00000000000E+00 -0.00000000000E+00 -0.18250000000E+03  0.18250000000E+03  0.00000000000E+00 0. -1.
        -11    1    1    2    0    0 -0.72560363702E-01  0.24711749095E+01  0.17002744485E+03  0.17004541738E+03  0.00000000000E+00 0. -1.
         11    1    1    2    0    0  0.72287310170E+01  0.10954609694E+01 -0.17909375970E+03  0.17924293389E+03  0.00000000000E+00 0. -1.
        -15    1    1    2    0    0 -0.14658627130E+01 -0.59267475442E+01  0.37450365219E+01  0.73795743438E+01  0.17770000000E+01 0. -1.
         15    1    1    2    0    0 -0.56903079403E+01  0.23601116653E+01  0.53212783232E+01  0.83320743829E+01  0.17770000000E+01 0.  1.
</event>
<event>
 6    1  0.1097339E-002  0.1856022E+03  0.7546771E-02  0.1066012E+00
        -11   -1    0    0    0    0  0.00000000000E+00  0.00000000000E+00  0.18250000000E+03  0.18250000000E+03  0.00000000000E+00 0. -1.
         11   -1    0    0    0    0 -0.00000000000E+00 -0.00000000000E+00 -0.18250000000E+03  0.18250000000E+03  0.00000000000E+00 0. -1.
        -11    1    1    2    0    0 -0.17172588357E+00  0.20946050407E+01  0.14499731647E+03  0.14501254651E+03  0.00000000000E+00 0. -1.
         11    1    1    2    0    0 -0.22194829408E+01  0.18287339452E+01 -0.17937472507E+03  0.17939777693E+03  0.00000000000E+00 0. -1.
        -15    1    1    2    0    0  0.91714135121E+00 -0.78889223859E+01  0.26895997488E+01  0.85713429798E+01  0.17770000000E+01 0. -1.
         15    1    1    2    0    0  0.14740674732E+01  0.39655834001E+01  0.31687808852E+02  0.32018333583E+02  0.17770000000E+01 0.  1.
</event>
<event>
 6    1  0.1097339E-002  0.1865513E+03  0.7546771E-02  0.1065275E+00
        -11   -1    0    0    0    0  0.00000000000E+00  0.00000000000E+00  0.18250000000E+03  0.18250000000E+03  0.00000000000E+00 0.  1.
         11   -1    0    0    0    0 -0.00000000000E+00 -0.00000000000E+00 -0.18250000000E+03  0.18250000000E+03  0.00000000000E+00 0.  1.
        -11    1    1    2    0    0  0.77372012311E+01 -0.47002688205E+00  0.14869341211E+03  0.14889531898E+03  0.00000000000E+00 0.  1.
         11    1    1    2    0    0  0.36631145308E+01  0.24953072525E+01 -0.17839367105E+03  0.17844872327E+03  0.00000000000E+00 0.  1.
        -15    1    1    2    0    0  0.41421525986E+01  0.43148493831E+01  0.88765607464E+01  0.10850180323E+02  0.17770000000E+01 0.  1.
         15    1    1    2    0    0 -0.15542468360E+02 -0.63401297535E+01  0.20823698192E+02  0.26805777426E+02  0.17770000000E+01 0. -1.
</event>
<event>
 6    1  0.1097339E-002  0.1736169E+03  0.7546771E-02  0.1075754E+00
        -11   -1    0    0    0    0  0.00000000000E+00  0.00000000000E+00  0.18250000000E+03  0.18250000000E+03  0.00000000000E+00 0.  1.
         11   -1    0    0    0    0 -0.00000000000E+00 -0.00000000000E+00 -0.18250000000E+03  0.18250000000E+03  0.00000000000E+00 0.  1.
        -11    1    1    2    0    0  0.56319448457E+01 -0.40404949754E-02  0.17150237766E+03  0.17159482615E+03  0.00000000000E+00 0.  1.
         11    1    1    2    0    0  0.11043921485E+01 -0.36302870880E+01 -0.17570776812E+03  0.17574873668E+03  0.00000000000E+00 0.  1.
        -15    1    1    2    0    0  0.83284739591E+00 -0.24635251582E+01 -0.38027775263E+01  0.49377562622E+01  0.17770000000E+01 0. -1.
         15    1    1    2    0    0 -0.75691843901E+01  0.60978527412E+01  0.80081679885E+01  0.12718680903E+02  0.17770000000E+01 0.  1.
</event>
<event>
 6    1  0.1097339E-002  0.1904318E+03  0.7546771E-02  0.1062311E+00
        -11   -1    0    0    0    0  0.00000000000E+00  0.00000000000E+00  0.18250000000E+03  0.18250000000E+03  0.00000000000E+00 0.  1.
         11   -1    0    0    0    0 -0.00000000000E+00 -0.00000000000E+00 -0.18250000000E+03  0.18250000000E+03  0.00000000000E+00 0. -1.
        -11    1    1    2    0    0  0.34436302105E+01 -0.10933428185E+02  0.13122743360E+03  0.13172713376E+03  0.00000000000E+00 0.  1.
         11    1    1    2    0    0 -0.69929442892E+01 -0.13499821795E+02 -0.17390484223E+03  0.17456815462E+03  0.00000000000E+00 0. -1.
        -15    1    1    2    0    0  0.20722985829E+01  0.22114349504E+02  0.47735364731E+02  0.52679803059E+02  0.17770000000E+01 0. -1.
         15    1    1    2    0    0  0.14770154958E+01  0.23189004765E+01 -0.50579560983E+01  0.60249085543E+01  0.17770000000E+01 0.  1.
</event>
<event>
 6    1  0.1097339E-002  0.1753179E+03  0.7546771E-02  0.1074320E+00
        -11   -1    0    0    0    0  0.00000000000E+00  0.00000000000E+00  0.18250000000E+03  0.18250000000E+03  0.00000000000E+00 0.  1.
         11   -1    0    0    0    0 -0.00000000000E+00 -0.00000000000E+00 -0.18250000000E+03  0.18250000000E+03  0.00000000000E+00 0.  1.
        -11    1    1    2    0    0  0.79639711962E+01 -0.66086991334E+00  0.17424244341E+03  0.17442560211E+03  0.00000000000E+00 0.  1.
         11    1    1    2    0    0  0.82987407240E-01 -0.33417023523E+01 -0.17629969610E+03  0.17633138322E+03  0.00000000000E+00 0.  1.
        -15    1    1    2    0    0  0.34354780743E+00  0.79049968364E+00  0.43713537059E+01  0.47968090506E+01  0.17770000000E+01 0. -1.
         15    1    1    2    0    0 -0.83905064109E+01  0.32120725820E+01 -0.23141010154E+01  0.94462056199E+01  0.17770000000E+01 0.  1.
</event>
<event>
 6    1  0.1097339E-002  0.1831758E+03  0.7546771E-02  0.1067918E+00
        -11   -1    0    0    0    0  0.00000000000E+00  0.00000000000E+00  0.18250000000E+03  0.18250000000E+03  0.00000000000E+00 0. -1.
         11   -1    0    0    0    0 -0.00000000000E+00 -0.00000000000E+00 -0.18250000000E+03  0.18250000000E+03  0.00000000000E+00 0. -1.
        -11    1    1    2    0    0 -0.17917661040E+01 -0.22328502461E+01  0.15948353037E+03  0.15950922388E+03  0.00000000000E+00 0. -1.
         11    1    1    2    0    0 -0.27782333782E+01 -0.14812756670E+01 -0.18179696146E+03  0.18182422268E+03  0.00000000000E+00 0. -1.
        -15    1    1    2    0    0  0.39128060423E+01  0.13420091021E+01  0.97145773944E+01  0.10707090291E+02  0.17770000000E+01 0.  1.
         15    1    1    2    0    0  0.65719343992E+00  0.23721168110E+01  0.12598853699E+02  0.12959463141E+02  0.17770000000E+01 0.  1.
</event>
<event>
 6    1  0.1097339E-002  0.1813101E+03  0.7546771E-02  0.1069406E+00
        -11   -1    0    0    0    0  0.00000000000E+00  0.00000000000E+00  0.18250000000E+03  0.18250000000E+03  0.00000000000E+00 0.  1.
         11   -1    0    0    0    0 -0.00000000000E+00 -0.00000000000E+00 -0.18250000000E+03  0.18250000000E+03  0.00000000000E+00 0.  1.
        -11    1    1    2    0    0  0.32470506365E+00  0.46231237019E+00  0.59234899794E+01  0.59503697063E+01  0.00000000000E+00 0.  1.
         11    1    1    2    0    0 -0.24871345768E+02 -0.25568848975E+02 -0.17708601259E+03  0.18064275722E+03  0.00000000000E+00 0.  1.
        -15    1    1    2    0    0 -0.73252994721E+01  0.14234178435E+02  0.67597124559E+02  0.69489573503E+02  0.17770000000E+01 0. -1.
         15    1    1    2    0    0  0.31871940177E+02  0.10872358170E+02  0.10356539806E+03  0.10891729957E+03  0.17770000000E+01 0.  1.
</event>
<event>
 6    1  0.1097339E-002  0.1926384E+03  0.7546771E-02  0.1060659E+00
        -11   -1    0    0    0    0  0.00000000000E+00  0.00000000000E+00  0.18250000000E+03  0.18250000000E+03  0.00000000000E+00 0. -1.
         11   -1    0    0    0    0 -0.00000000000E+00 -0.00000000000E+00 -0.18250000000E+03  0.18250000000E+03  0.00000000000E+00 0. -1.
        -11    1    1    2    0    0 -0.54541822364E+01 -0.31462307791E+01  0.16123893449E+03  0.16136183213E+03  0.00000000000E+00 0. -1.
         11    1    1    2    0    0  0.12746237625E+01 -0.44297676186E+01 -0.17229990640E+03  0.17236155387E+03  0.00000000000E+00 0. -1.
        -15    1    1    2    0    0 -0.23924021712E+01  0.62628088088E+01 -0.82386295557E+01  0.10769359697E+02  0.17770000000E+01 0. -1.
         15    1    1    2    0    0  0.65719606451E+01  0.13131895889E+01  0.19299601461E+02  0.20507254306E+02  0.17770000000E+01 0. -1.
</event>
<event>
 6    1  0.1097339E-002  0.1783285E+03  0.7546771E-02  0.1071825E+00
        -11   -1    0    0    0    0  0.00000000000E+00  0.00000000000E+00  0.18250000000E+03  0.18250000000E+03  0.00000000000E+00 0.  1.
         11   -1    0    0    0    0 -0.00000000000E+00 -0.00000000000E+00 -0.18250000000E+03  0.18250000000E+03  0.00000000000E+00 0.  1.
        -11    1    1    2    0    0 -0.27047278774E+01 -0.29446567397E+01  0.17800914545E+03  0.17805404354E+03  0.00000000000E+00 0.  1.
         11    1    1    2    0    0 -0.26849542461E+01 -0.16117565081E+01 -0.17864587396E+03  0.17867331928E+03  0.00000000000E+00 0.  1.
        -15    1    1    2    0    0  0.43152204850E+01  0.26854263664E+01  0.92325277880E+00  0.54628534025E+01  0.17770000000E+01 0.  1.
         15    1    1    2    0    0  0.10744616386E+01  0.18709868814E+01 -0.28652426543E+00  0.28097837778E+01  0.17770000000E+01 0. -1.
</event>
<event>
 6    1  0.1097339E-002  0.1847408E+03  0.7546771E-02  0.1066685E+00
        -11   -1    0    0    0    0  0.00000000000E+00  0.00000000000E+00  0.18250000000E+03  0.18250000000E+03  0.00000000000E+00 0. -1.
         11   -1    0    0    0    0 -0.00000000000E+00 -0.00000000000E+00 -0.18250000000E+03  0.18250000000E+03  0.00000000000E+00 0.  1.
        -11    1    1    2    0    0 -0.21950806456E+01 -0.14464567710E+01  0.16853614495E+03  0.16855664559E+03  0.00000000000E+00 0. -1.
         11    1    1    2    0    0 -0.23130437917E+01 -0.14517549763E+01 -0.18023855582E+03  0.18025924323E+03  0.00000000000E+00 0.  1.
        -15    1    1    2    0    0 -0.81835026117E+00 -0.44713704582E+00 -0.73228767628E+00  0.21362590968E+01  0.17770000000E+01 0. -1.
         15    1    1    2    0    0  0.53264746984E+01  0.33453487932E+01  0.12434698550E+02  0.14047852088E+02  0.17770000000E+01 0.  1.
</event>
<event>
 6    1  0.1097339E-002  0.1778562E+03  0.7546771E-02  0.1072213E+00
        -11   -1    0    0    0    0  0.00000000000E+00  0.00000000000E+00  0.18250000000E+03  0.18250000000E+03  0.00000000000E+00 0. -1.
         11   -1    0    0    0    0 -0.00000000000E+00 -0.00000000000E+00 -0.18250000000E+03  0.18250000000E+03  0.00000000000E+00 0.  1.
        -11    1    1    2    0    0 -0.28260594190E+01 -0.74743517552E+00  0.17702242693E+03  0.17704656141E+03  0.00000000000E+00 0. -1.
         11    1    1    2    0    0  0.17896941105E+01  0.58617475299E+01 -0.17860257373E+03  0.17870770110E+03  0.00000000000E+00 0.  1.
        -15    1    1    2    0    0 -0.19259730632E+01 -0.32785634130E+01  0.29174848068E+01  0.51115356686E+01  0.17770000000E+01 0.  1.
         15    1    1    2    0    0  0.29623383717E+01 -0.18357489414E+01 -0.13373380075E+01  0.41342018275E+01  0.17770000000E+01 0. -1.
</event>
<event>
 6    1  0.1097339E-002  0.1905776E+03  0.7546771E-02  0.1062201E+00
        -11   -1    0    0    0    0  0.00000000000E+00  0.00000000000E+00  0.18250000000E+03  0.18250000000E+03  0.00000000000E+00 0.  1.
         11   -1    0    0    0    0 -0.00000000000E+00 -0.00000000000E+00 -0.18250000000E+03  0.18250000000E+03  0.00000000000E+00 0. -1.
        -11    1    1    2    0    0 -0.32094910037E+01  0.14357437893E+02  0.17380083824E+03  0.17442238454E+03  0.00000000000E+00 0.  1.
         11    1    1    2    0    0 -0.96149756402E+00 -0.11670287222E+01 -0.86089370889E+02  0.86102649283E+02  0.00000000000E+00 0. -1.
        -15    1    1    2    0    0 -0.51071052109E+00  0.75550536998E+01 -0.82019763257E+02  0.82387735467E+02  0.17770000000E+01 0. -1.
         15    1    1    2    0    0  0.46816990888E+01 -0.20745462871E+02 -0.56917040925E+01  0.22087230713E+02  0.17770000000E+01 0.  1.
</event>
<event>
 6    1  0.1097339E-002  0.1871306E+03  0.7546771E-02  0.1064827E+00
        -11   -1    0    0    0    0  0.00000000000E+00  0.00000000000E+00  0.18250000000E+03  0.18250000000E+03  0.00000000000E+00 0. -1.
         11   -1    0    0    0    0 -0.00000000000E+00 -0.00000000000E+00 -0.18250000000E+03  0.18250000000E+03  0.00000000000E+00 0.  1.
        -11    1    1    2    0    0 -0.30271576791E+01  0.42153255344E+01  0.17779367695E+03  0.17786940214E+03  0.00000000000E+00 0. -1.
         11    1    1    2    0    0 -0.19381604200E+01 -0.10342930196E+02 -0.15531809148E+03  0.15567415396E+03  0.00000000000E+00 0.  1.
        -15    1    1    2    0    0  0.53376140041E+01 -0.17144876850E+01  0.15801433086E+01  0.60896775904E+01  0.17770000000E+01 0. -1.
         15    1    1    2    0    0 -0.37229590508E+00  0.78420923466E+01 -0.24055728785E+02  0.25366766309E+02  0.17770000000E+01 0.  1.
</event>
<event>
 6    1  0.1097339E-002  0.1851255E+03  0.7546771E-02  0.1066384E+00
        -11   -1    0    0    0    0  0.00000000000E+00  0.00000000000E+00  0.18250000000E+03  0.18250000000E+03  0.00000000000E+00 0. -1.
         11   -1    0    0    0    0 -0.00000000000E+00 -0.00000000000E+00 -0.18250000000E+03  0.18250000000E+03  0.00000000000E+00 0. -1.
        -11    1    1    2    0    0  0.24208263349E+01  0.28922910579E+00  0.17985793452E+03  0.17987445807E+03  0.00000000000E+00 0. -1.
         11    1    1    2    0    0 -0.90976030636E+00 -0.50610501257E+01 -0.16691648433E+03  0.16699567250E+03  0.00000000000E+00 0. -1.
        -15    1    1    2    0    0  0.47872448434E-01  0.82479226502E+01 -0.78180746604E+01  0.11502631882E+02  0.17770000000E+01 0. -1.
         15    1    1    2    0    0 -0.15589384770E+01 -0.34761016303E+01 -0.51233755302E+01  0.66272375499E+01  0.17770000000E+01 0.  1.
</event>
<event>
 6    1  0.1097339E-002  0.1854476E+03  0.7546771E-02  0.1066132E+00
        -11   -1    0    0    0    0  0.00000000000E+00  0.00000000000E+00  0.18250000000E+03  0.18250000000E+03  0.00000000000E+00 0.  1.
         11   -1    0    0    0    0 -0.00000000000E+00 -0.00000000000E+00 -0.18250000000E+03  0.18250000000E+03  0.00000000000E+00 0. -1.
        -11    1    1    2    0    0  0.34723731684E+01 -0.12024755916E+01  0.17951481274E+03  0.17955241941E+03  0.00000000000E+00 0.  1.
         11    1    1    2    0    0 -0.24493956996E+01 -0.79285270274E+00 -0.15854675512E+03  0.15856765658E+03  0.00000000000E+00 0. -1.
        -15    1    1    2    0    0 -0.18886000263E+01 -0.13376101114E+01 -0.22518147038E+02  0.22706401870E+02  0.17770000000E+01 0. -1.
         15    1    1    2    0    0  0.86562255748E+00  0.33329384057E+01  0.15500894123E+01  0.41735221354E+01  0.17770000000E+01 0.  1.
</event>
<event>
 6    1  0.1097339E-002  0.1840611E+03  0.7546771E-02  0.1067219E+00
        -11   -1    0    0    0    0  0.00000000000E+00  0.00000000000E+00  0.18250000000E+03  0.18250000000E+03  0.00000000000E+00 0.  1.
         11   -1    0    0    0    0 -0.00000000000E+00 -0.00000000000E+00 -0.18250000000E+03  0.18250000000E+03  0.00000000000E+00 0. -1.
        -11    1    1    2    0    0 -0.70040949367E+00 -0.22199559754E+01  0.15950820320E+03  0.15952518819E+03  0.00000000000E+00 0.  1.
         11    1    1    2    0    0  0.76637581523E+00 -0.61037214105E+01 -0.18083432058E+03  0.18093892408E+03  0.00000000000E+00 0. -1.
        -15    1    1    2    0    0 -0.28268527533E+01  0.10139504925E+01  0.32732030266E+01  0.47844309112E+01  0.17770000000E+01 0. -1.
         15    1    1    2    0    0  0.27608864318E+01  0.73097268934E+01  0.18052914352E+02  0.19751456826E+02  0.17770000000E+01 0.  1.
</event>
<event>
 6    1  0.1097339E-002  0.1911460E+03  0.7546771E-02  0.1061774E+00
        -11   -1    0    0    0    0  0.00000000000E+00  0.00000000000E+00  0.18250000000E+03  0.18250000000E+03  0.00000000000E+00 0. -1.
         11   -1    0    0    0    0 -0.00000000000E+00 -0.00000000000E+00 -0.18250000000E+03  0.18250000000E+03  0.00000000000E+00 0.  1.
        -11    1    1    2    0    0 -0.37350408774E+01  0.41880815142E+01  0.11630874576E+03  0.11644404192E+03  0.00000000000E+00 0. -1.
         11    1    1    2    0    0  0.21992447623E+02  0.37705605042E+01 -0.17241610135E+03  0.17385395274E+03  0.00000000000E+00 0.  1.
        -15    1    1    2    0    0 -0.12846759564E+02  0.91852490326E+01  0.14165824068E+00  0.15892948975E+02  0.17770000000E+01 0.  1.
         15    1    1    2    0    0 -0.54106471817E+01 -0.17143891051E+02  0.55965697341E+02  0.58809056370E+02  0.17770000000E+01 0. -1.
</event>
<event>
 6    1  0.1097339E-002  0.1855853E+03  0.7546771E-02  0.1066025E+00
        -11   -1    0    0    0    0  0.00000000000E+00  0.00000000000E+00  0.18250000000E+03  0.18250000000E+03  0.00000000000E+00 0.  1.
         11   -1    0    0    0    0 -0.00000000000E+00 -0.00000000000E+00 -0.18250000000E+03  0.18250000000E+03  0.00000000000E+00 0.  1.
        -11    1    1    2    0    0  0.38449763558E+01 -0.82406747416E+00  0.17937160258E+03  0.17941470046E+03  0.00000000000E+00 0.  1.
         11    1    1    2    0    0  0.24194141083E+01 -0.79737760579E+00 -0.15580111544E+03  0.15582193988E+03  0.00000000000E+00 0.  1.
        -15    1    1    2    0    0 -0.94726327824E+01 -0.10726919730E+01 -0.23261804561E+02  0.25202196736E+02  0.17770000000E+01 0. -1.
         15    1    1    2    0    0  0.32082423183E+01  0.26941370529E+01 -0.30868257529E+00  0.45611629181E+01  0.17770000000E+01 0.  1.
</event>
<event>
 6    1  0.1097339E-002  0.1848907E+03  0.7546771E-02  0.1066568E+00
        -11   -1    0    0    0    0  0.00000000000E+00  0.00000000000E+00  0.18250000000E+03  0.18250000000E+03  0.00000000000E+00 0.  1.
         11   -1    0    0    0    0 -0.00000000000E+00 -0.00000000000E+00 -0.18250000000E+03  0.18250000000E+03  0.00000000000E+00 0.  1.
        -11    1    1    2    0    0 -0.18489480925E+01 -0.34691350446E+01  0.18006637461E+03  0.18010928008E+03  0.00000000000E+00 0.  1.
         11    1    1    2    0    0  0.16383454763E+01 -0.15609065290E+01 -0.26343324849E+02  0.26440336027E+02  0.00000000000E+00 0.  1.
        -15    1    1    2    0    0 -0.19819514895E+01 -0.11448846985E+02 -0.16761459110E+02  0.20472138860E+02  0.17770000000E+01 0. -1.
         15    1    1    2    0    0  0.21925541058E+01  0.16478888559E+02 -0.13696159065E+03  0.13797824503E+03  0.17770000000E+01 0.  1.
</event>
<event>
 6    1  0.1097339E-002  0.1827459E+03  0.7546771E-02  0.1068259E+00
        -11   -1    0    0    0    0  0.00000000000E+00  0.00000000000E+00  0.18250000000E+03  0.18250000000E+03  0.00000000000E+00 0.  1.
         11   -1    0    0    0    0 -0.00000000000E+00 -0.00000000000E+00 -0.18250000000E+03  0.18250000000E+03  0.00000000000E+00 0. -1.
        -11    1    1    2    0    0  0.39593010708E+01 -0.10150301891E+01  0.13915568300E+03  0.13921569762E+03  0.00000000000E+00 0.  1.
         11    1    1    2    0    0 -0.52809553910E+01  0.39380899887E+01 -0.18213503128E+03  0.18225412659E+03  0.00000000000E+00 0. -1.
        -15    1    1    2    0    0  0.21937932232E+01 -0.28851860267E+00  0.30190718841E+02  0.30323805909E+02  0.17770000000E+01 0. -1.
         15    1    1    2    0    0 -0.87213890303E+00 -0.26345411970E+01  0.12788629436E+02  0.13206369881E+02  0.17770000000E+01 0.  1.
</event>
<event>
 6    1  0.1097339E-002  0.1826112E+03  0.7546771E-02  0.1068366E+00
        -11   -1    0    0    0    0  0.00000000000E+00  0.00000000000E+00  0.18250000000E+03  0.18250000000E+03  0.00000000000E+00 0. -1.
         11   -1    0    0    0    0 -0.00000000000E+00 -0.00000000000E+00 -0.18250000000E+03  0.18250000000E+03  0.00000000000E+00 0.  1.
        -11    1    1    2    0    0 -0.34878991328E+00 -0.99198531690E+00  0.39104516352E+02  0.39118651413E+02  0.00000000000E+00 0. -1.
         11    1    1    2    0    0 -0.22653288749E+01  0.11262551278E+01 -0.18237127756E+03  0.18238882380E+03  0.00000000000E+00 0.  1.
        -15    1    1    2    0    0  0.11214289205E+01  0.32594496425E+01  0.61072353075E+02  0.61195356473E+02  0.17770000000E+01 0. -1.
         15    1    1    2    0    0  0.14926898678E+01 -0.33937194533E+01  0.82194408138E+02  0.82297168317E+02  0.17770000000E+01 0. -1.
</event>
<event>
 6    1  0.1097339E-002  0.1868716E+03  0.7546771E-02  0.1065027E+00
        -11   -1    0    0    0    0  0.00000000000E+00  0.00000000000E+00  0.18250000000E+03  0.18250000000E+03  0.00000000000E+00 0.  1.
         11   -1    0    0    0    0 -0.00000000000E+00 -0.00000000000E+00 -0.18250000000E+03  0.18250000000E+03  0.00000000000E+00 0.  1.
        -11    1    1    2    0    0  0.17091220907E+01  0.42696471075E+01  0.15377826950E+03  0.15384702517E+03  0.00000000000E+00 0.  1.
         11    1    1    2    0    0  0.57546639368E+01  0.29464087150E+01 -0.17801100810E+03  0.17812837080E+03  0.00000000000E+00 0.  1.
        -15    1    1    2    0    0  0.29185299392E+01 -0.69053485021E+00  0.19422460147E+02  0.19732823988E+02  0.17770000000E+01 0. -1.
         15    1    1    2    0    0 -0.10382315967E+02 -0.65255209722E+01  0.48102784512E+01  0.13291780038E+02  0.17770000000E+01 0.  1.
</event>
<event>
 6    1  0.1097339E-002  0.1848399E+03  0.7546771E-02  0.1066607E+00
        -11   -1    0    0    0    0  0.00000000000E+00  0.00000000000E+00  0.18250000000E+03  0.18250000000E+03  0.00000000000E+00 0. -1.
         11   -1    0    0    0    0 -0.00000000000E+00 -0.00000000000E+00 -0.18250000000E+03  0.18250000000E+03  0.00000000000E+00 0. -1.
        -11    1    1    2    0    0 -0.50924450239E+01 -0.25674394705E+01  0.18006982697E+03  0.18016011580E+03  0.00000000000E+00 0. -1.
         11    1    1    2    0    0 -0.46856431072E+01 -0.39255003823E+01 -0.12256719742E+03  0.12271952855E+03  0.00000000000E+00 0. -1.
        -15    1    1    2    0    0  0.35742414858E+01  0.10065576827E+02 -0.51454603969E+02  0.52581603605E+02  0.17770000000E+01 0.  1.
         15    1    1    2    0    0  0.62038466453E+01 -0.35726369738E+01 -0.60480255744E+01  0.95387520407E+01  0.17770000000E+01 0. -1.
</event>
<event>
 6    1  0.1097339E-002  0.1859012E+03  0.7546771E-02  0.1065779E+00
        -11   -1    0    0    0    0  0.00000000000E+00  0.00000000000E+00  0.18250000000E+03  0.18250000000E+03  0.00000000000E+00 0. -1.
         11   -1    0    0    0    0 -0.00000000000E+00 -0.00000000000E+00 -0.18250000000E+03  0.18250000000E+03  0.00000000000E+00 0. -1.
        -11    1    1    2    0    0 -0.63924258013E+01  0.22022036237E+01  0.17342151404E+03  0.17355326082E+03  0.00000000000E+00 0. -1.
         11    1    1    2    0    0  0.19386932610E+01  0.20252015735E+01 -0.17907682269E+03  0.17909876716E+03  0.00000000000E+00 0. -1.
        -15    1    1    2    0    0 -0.42865085122E-01 -0.54877512350E+01  0.42266083979E+01  0.71511676376E+01  0.17770000000E+01 0. -1.
         15    1    1    2    0    0  0.44965976254E+01  0.12603460378E+01  0.14287002513E+01  0.51968043785E+01  0.17770000000E+01 0.  1.
</event>
<event>
 6    1  0.1097339E-002  0.1859380E+03  0.7546771E-02  0.1065751E+00
        -11   -1    0    0    0    0  0.00000000000E+00  0.00000000000E+00  0.18250000000E+03  0.18250000000E+03  0.00000000000E+00 0.  1.
         11   -1    0    0    0    0 -0.00000000000E+00 -0.00000000000E+00 -0.18250000000E+03  0.18250000000E+03  0.00000000000E+00 0.  1.
        -11    1    1    2    0    0 -0.40713383717E+01  0.65840128968E+01  0.17889456140E+03  0.17906197006E+03  0.00000000000E+00 0.  1.
         11    1    1    2    0    0  0.10468472437E+02  0.13614295273E+01 -0.10129004135E+03  0.10183867086E+03  0.00000000000E+00 0.  1.
        -15    1    1    2    0    0 -0.31794611374E+01 -0.49062354482E+01 -0.78916507899E+02  0.79152719899E+02  0.17770000000E+01 0.  1.
         15    1    1    2    0    0 -0.32176729280E+01 -0.30392069759E+01  0.13119878511E+01  0.49466391858E+01  0.17770000000E+01 0. -1.
</event>
<event>
 6    1  0.1097339E-002  0.1868598E+03  0.7546771E-02  0.1065036E+00
        -11   -1    0    0    0    0  0.00000000000E+00  0.00000000000E+00  0.18250000000E+03  0.18250000000E+03  0.00000000000E+00 0. -1.
         11   -1    0    0    0    0 -0.00000000000E+00 -0.00000000000E+00 -0.18250000000E+03  0.18250000000E+03  0.00000000000E+00 0.  1.
        -11    1    1    2    0    0 -0.44621811003E+01  0.81776662553E+01  0.17789644564E+03  0.17814019944E+03  0.00000000000E+00 0. -1.
         11    1    1    2    0    0  0.26183654534E+01  0.58950233472E+00 -0.17140118549E+03  0.17142219733E+03  0.00000000000E+00 0.  1.
        -15    1    1    2    0    0 -0.16151752213E+01 -0.14633429720E+01 -0.65874163902E+01  0.71625377728E+01  0.17770000000E+01 0. -1.
         15    1    1    2    0    0  0.34589908682E+01 -0.73038256180E+01  0.92156243898E-01  0.82750654534E+01  0.17770000000E+01 0.  1.
</event>
<event>
 6    1  0.1191395E-002  0.1918452E+03  0.7546771E-02  0.1061250E+00
        -11   -1    0    0    0    0  0.00000000000E+00  0.00000000000E+00  0.18250000000E+03  0.18250000000E+03  0.00000000000E+00 0.  1.
         11   -1    0    0    0    0 -0.00000000000E+00 -0.00000000000E+00 -0.18250000000E+03  0.18250000000E+03  0.00000000000E+00 0. -1.
        -11    1    1    2    0    0  0.52546324139E+01  0.84537978633E-01  0.17307508060E+03  0.17315484929E+03  0.00000000000E+00 0.  1.
         11    1    1    2    0    0  0.33743339315E+01  0.21053752352E+01 -0.11767717829E+03  0.11774437152E+03  0.00000000000E+00 0. -1.
        -15    1    1    2    0    0 -0.11406549659E+01 -0.26142507073E+01 -0.63108678206E+02  0.63198088535E+02  0.17770000000E+01 0. -1.
         15    1    1    2    0    0 -0.74883113796E+01  0.42433749344E+00  0.77107758915E+01  0.10902690653E+02  0.17770000000E+01 0. -1.
</event>
<event>
 6    1  0.1097339E-002  0.1846271E+03  0.7546771E-02  0.1066774E+00
        -11   -1    0    0    0    0  0.00000000000E+00  0.00000000000E+00  0.18250000000E+03  0.18250000000E+03  0.00000000000E+00 0.  1.
         11   -1    0    0    0    0 -0.00000000000E+00 -0.00000000000E+00 -0.18250000000E+03  0.18250000000E+03  0.00000000000E+00 0.  1.
        -11    1    1    2    0    0  0.29062996730E+00  0.31269381117E+01  0.17210883785E+03  0.17213748655E+03  0.00000000000E+00 0.  1.
         11    1    1    2    0    0 -0.53543497057E+01 -0.11186146473E+01 -0.18028995275E+03  0.18037291210E+03  0.00000000000E+00 0.  1.
        -15    1    1    2    0    0  0.49226549315E+01 -0.27564046133E+01  0.23818701532E+01  0.63766239024E+01  0.17770000000E+01 0.  1.
         15    1    1    2    0    0  0.14106480688E+00  0.74808114889E+00  0.57992447421E+01  0.61129774467E+01  0.17770000000E+01 0. -1.
</event>
<event>
 6    1  0.1097339E-002  0.1852059E+03  0.7546771E-02  0.1066321E+00
        -11   -1    0    0    0    0  0.00000000000E+00  0.00000000000E+00  0.18250000000E+03  0.18250000000E+03  0.00000000000E+00 0. -1.
         11   -1    0    0    0    0 -0.00000000000E+00 -0.00000000000E+00 -0.18250000000E+03  0.18250000000E+03  0.00000000000E+00 0.  1.
        -11    1    1    2    0    0 -0.54581080068E+01 -0.38709713255E+01  0.14974431780E+03  0.14989374929E+03  0.00000000000E+00 0. -1.
         11    1    1    2    0    0 -0.23452282329E+01  0.23144356118E+01 -0.17976388775E+03  0.17979408234E+03  0.00000000000E+00 0.  1.
        -15    1    1    2    0    0  0.54138397719E+01 -0.76203533937E+00  0.74672325394E+00  0.57970409307E+01  0.17770000000E+01 0.  1.
         15    1    1    2    0    0  0.23894964679E+01  0.23185710530E+01  0.29272846694E+02  0.29515127438E+02  0.17770000000E+01 0. -1.
</event>
<event>
 6    1  0.1097339E-002  0.1853972E+03  0.7546771E-02  0.1066172E+00
        -11   -1    0    0    0    0  0.00000000000E+00  0.00000000000E+00  0.18250000000E+03  0.18250000000E+03  0.00000000000E+00 0.  1.
         11   -1    0    0    0    0 -0.00000000000E+00 -0.00000000000E+00 -0.18250000000E+03  0.18250000000E+03  0.00000000000E+00 0.  1.
        -11    1    1    2    0    0 -0.10549111595E+01  0.36890069888E+01  0.17956177282E+03  0.17960276130E+03  0.00000000000E+00 0.  1.
         11    1    1    2    0    0  0.17578482791E+00  0.27000783511E+01 -0.14100974225E+03  0.14103570021E+03  0.00000000000E+00 0.  1.
        -15    1    1    2    0    0  0.61284612277E-01 -0.14338708252E+01 -0.38952252802E+02  0.39019167965E+02  0.17770000000E+01 0. -1.
         15    1    1    2    0    0  0.81784171931E+00 -0.49552145148E+01  0.40022223959E+00  0.53423705231E+01  0.17770000000E+01 0.  1.
</event>
<event>
 6    1  0.1097339E-002  0.1859110E+03  0.7546771E-02  0.1065772E+00
        -11   -1    0    0    0    0  0.00000000000E+00  0.00000000000E+00  0.18250000000E+03  0.18250000000E+03  0.00000000000E+00 0. -1.
         11   -1    0    0    0    0 -0.00000000000E+00 -0.00000000000E+00 -0.18250000000E+03  0.18250000000E+03  0.00000000000E+00 0.  1.
        -11    1    1    2    0    0  0.39285312702E+01  0.65955005845E+01  0.17892433811E+03  0.17908895207E+03  0.00000000000E+00 0. -1.
         11    1    1    2    0    0  0.40611697508E+00  0.25558224613E+01 -0.16482548355E+03  0.16484579821E+03  0.00000000000E+00 0.  1.
        -15    1    1    2    0    0 -0.38603731725E+01  0.51716428641E+00 -0.54585901795E+00  0.43157422302E+01  0.17770000000E+01 0.  1.
         15    1    1    2    0    0 -0.47427507278E+00 -0.96684873323E+01 -0.13552995538E+02  0.16749507491E+02  0.17770000000E+01 0. -1.
</event>
<event>
 6    1  0.1097339E-002  0.1861284E+03  0.7546771E-02  0.1065603E+00
        -11   -1    0    0    0    0  0.00000000000E+00  0.00000000000E+00  0.18250000000E+03  0.18250000000E+03  0.00000000000E+00 0.  1.
         11   -1    0    0    0    0 -0.00000000000E+00 -0.00000000000E+00 -0.18250000000E+03  0.18250000000E+03  0.00000000000E+00 0. -1.
        -11    1    1    2    0    0 -0.19735067837E+01  0.36172642214E+01  0.17882409709E+03  0.17887156573E+03  0.00000000000E+00 0.  1.
         11    1    1    2    0    0 -0.23258015684E+01 -0.68313236159E+00 -0.17175145270E+03  0.17176855803E+03  0.00000000000E+00 0. -1.
        -15    1    1    2    0    0 -0.51669951135E+00 -0.27133564709E+01 -0.84285464306E+01  0.90458501898E+01  0.17770000000E+01 0.  1.
         15    1    1    2    0    0  0.48160078634E+01 -0.22077538892E+00  0.13559020415E+01  0.53140260499E+01  0.17770000000E+01 0. -1.
</event>
<event>
 6    1  0.1097339E-002  0.1913039E+03  0.7546771E-02  0.1061655E+00
        -11   -1    0    0    0    0  0.00000000000E+00  0.00000000000E+00  0.18250000000E+03  0.18250000000E+03  0.00000000000E+00 0.  1.
         11   -1    0    0    0    0 -0.00000000000E+00 -0.00000000000E+00 -0.18250000000E+03  0.18250000000E+03  0.00000000000E+00 0.  1.
        -11    1    1    2    0    0 -0.56215672739E+01 -0.73772542191E+00  0.17360348964E+03  0.17369605025E+03  0.00000000000E+00 0.  1.
         11    1    1    2    0    0  0.52002504370E+01  0.15155648409E+01 -0.15994293357E+03  0.16003462607E+03  0.00000000000E+00 0.  1.
        -15    1    1    2    0    0  0.44685632518E+01 -0.13755954893E+01  0.78462089906E+01  0.93048936055E+01  0.17770000000E+01 0.  1.
         15    1    1    2    0    0 -0.40472464149E+01  0.59775607030E+00 -0.21506765064E+02  0.21964430072E+02  0.17770000000E+01 0.  1.
</event>
<event>
 6    1  0.1097339E-002  0.1784868E+03  0.7546771E-02  0.1071695E+00
        -11   -1    0    0    0    0  0.00000000000E+00  0.00000000000E+00  0.18250000000E+03  0.18250000000E+03  0.00000000000E+00 0. -1.
         11   -1    0    0    0    0 -0.00000000000E+00 -0.00000000000E+00 -0.18250000000E+03  0.18250000000E+03  0.00000000000E+00 0. -1.
        -11    1    1    2    0    0  0.26649429659E+01  0.24273373806E+01  0.17845956476E+03  0.17849596674E+03  0.00000000000E+00 0. -1.
         11    1    1    2    0    0 -0.13649901850E+01  0.23611729052E+01 -0.17849128898E+03  0.17851212446E+03  0.00000000000E+00 0. -1.
        -15    1    1    2    0    0 -0.71777746844E+00 -0.34094732043E+01 -0.24318085764E+01  0.46055546872E+01  0.17770000000E+01 0.  1.
         15    1    1    2    0    0 -0.58217531247E+00 -0.13790370815E+01  0.24635328016E+01  0.33863541207E+01  0.17770000000E+01 0.  1.
</event>
<event>
 6    1  0.1097339E-002  0.1889652E+03  0.7546771E-02  0.1063422E+00
        -11   -1    0    0    0    0  0.00000000000E+00  0.00000000000E+00  0.18250000000E+03  0.18250000000E+03  0.00000000000E+00 0. -1.
         11   -1    0    0    0    0 -0.00000000000E+00 -0.00000000000E+00 -0.18250000000E+03  0.18250000000E+03  0.00000000000E+00 0. -1.
        -11    1    1    2    0    0  0.13044271463E+02  0.70548573444E+01  0.14506959588E+03  0.14582562079E+03  0.00000000000E+00 0. -1.
         11    1    1    2    0    0 -0.28077555113E+01  0.17426451276E+01 -0.17600379483E+03  0.17603481501E+03  0.00000000000E+00 0. -1.
        -15    1    1    2    0    0 -0.11651847577E+02 -0.80497621748E+01  0.35347191457E+02  0.38120150786E+02  0.17770000000E+01 0. -1.
         15    1    1    2    0    0  0.14153316254E+01 -0.74774029715E+00 -0.44129925046E+01  0.50194134127E+01  0.17770000000E+01 0.  1.
</event>
<event>
 6    1  0.1097339E-002  0.1828752E+03  0.7546771E-02  0.1068157E+00
        -11   -1    0    0    0    0  0.00000000000E+00  0.00000000000E+00  0.18250000000E+03  0.18250000000E+03  0.00000000000E+00 0.  1.
         11   -1    0    0    0    0 -0.00000000000E+00 -0.00000000000E+00 -0.18250000000E+03  0.18250000000E+03  0.00000000000E+00 0. -1.
        -11    1    1    2    0    0 -0.31360245330E+01  0.13600901063E+01  0.18209272112E+03  0.18212480221E+03  0.00000000000E+00 0.  1.
         11    1    1    2    0    0 -0.15164212999E+01 -0.15015266414E+01 -0.14499938862E+03  0.14501509169E+03  0.00000000000E+00 0. -1.
        -15    1    1    2    0    0  0.25768925406E+01 -0.21650735427E+01 -0.23405820727E+02  0.23713247173E+02  0.17770000000E+01 0. -1.
         15    1    1    2    0    0  0.20755532923E+01  0.23065100777E+01 -0.13687511769E+02  0.14146858932E+02  0.17770000000E+01 0.  1.
</event>
<event>
 6    1  0.1097339E-002  0.1864087E+03  0.7546771E-02  0.1065385E+00
        -11   -1    0    0    0    0  0.00000000000E+00  0.00000000000E+00  0.18250000000E+03  0.18250000000E+03  0.00000000000E+00 0. -1.
         11   -1    0    0    0    0 -0.00000000000E+00 -0.00000000000E+00 -0.18250000000E+03  0.18250000000E+03  0.00000000000E+00 0. -1.
        -11    1    1    2    0    0  0.24586138639E+01  0.10387766629E+02  0.84765067788E+02  0.85434578450E+02  0.00000000000E+00 0. -1.
         11    1    1    2    0    0  0.25048454133E+01 -0.35807663223E+00 -0.17857341673E+03  0.17859134254E+03  0.00000000000E+00 0. -1.
        -15    1    1    2    0    0 -0.39297239818E+01 -0.98824820725E+01  0.96768330581E+02  0.97367210677E+02  0.17770000000E+01 0. -1.
         15    1    1    2    0    0 -0.10337352954E+01 -0.14720792471E+00 -0.29599816424E+01  0.36068683310E+01  0.17770000000E+01 0. -1.
</event>
<event>
 6    1  0.1097339E-002  0.1839995E+03  0.7546771E-02  0.1067267E+00
        -11   -1    0    0    0    0  0.00000000000E+00  0.00000000000E+00  0.18250000000E+03  0.18250000000E+03  0.00000000000E+00 0. -1.
         11   -1    0    0    0    0 -0.00000000000E+00 -0.00000000000E+00 -0.18250000000E+03  0.18250000000E+03  0.00000000000E+00 0. -1.
        -11    1    1    2    0    0  0.27641467053E+00  0.24236855841E+01  0.18098406621E+03  0.18100050519E+03  0.00000000000E+00 0. -1.
         11    1    1    2    0    0  0.57149654274E+00 -0.26506432963E+01 -0.17914128811E+03  0.17916180849E+03  0.00000000000E+00 0. -1.
        -15    1    1    2    0    0 -0.46808620136E+00  0.13756388889E+01 -0.68246828060E+00  0.23947816182E+01  0.17770000000E+01 0. -1.
         15    1    1    2    0    0 -0.37982501191E+00 -0.11486811767E+01 -0.11603098229E+01  0.24429046994E+01  0.17770000000E+01 0. -1.
</event>
<event>
 6    1  0.1104785E-002  0.1825808E+03  0.7546771E-02  0.1068391E+00
        -11   -1    0    0    0    0  0.00000000000E+00  0.00000000000E+00  0.18250000000E+03  0.18250000000E+03  0.00000000000E+00 0.  1.
         11   -1    0    0    0    0 -0.00000000000E+00 -0.00000000000E+00 -0.18250000000E+03  0.18250000000E+03  0.00000000000E+00 0.  1.
        -11    1    1    2    0    0 -0.15964412457E+01  0.23274004616E+01  0.18239739872E+03  0.18241923275E+03  0.00000000000E+00 0.  1.
         11    1    1    2    0    0  0.78832004738E+00  0.54314527729E+00 -0.70233881571E+02  0.70240405578E+02  0.00000000000E+00 0.  1.
        -15    1    1    2    0    0  0.38681391814E-01 -0.18304774028E+01 -0.95305734139E+02  0.95339880599E+02  0.17770000000E+01 0.  1.
         15    1    1    2    0    0  0.76943980649E+00 -0.10400683360E+01 -0.16857783009E+02  0.17000481074E+02  0.17770000000E+01 0. -1.
</event>
<event>
 6    1  0.1097339E-002  0.1829805E+03  0.7546771E-02  0.1068073E+00
        -11   -1    0    0    0    0  0.00000000000E+00  0.00000000000E+00  0.18250000000E+03  0.18250000000E+03  0.00000000000E+00 0. -1.
         11   -1    0    0    0    0 -0.00000000000E+00 -0.00000000000E+00 -0.18250000000E+03  0.18250000000E+03  0.00000000000E+00 0. -1.
        -11    1    1    2    0    0 -0.36892038055E+01  0.20293673265E+01  0.18197077633E+03  0.18201948246E+03  0.00000000000E+00 0. -1.
         11    1    1    2    0    0  0.40293722762E+01 -0.10637109003E+01 -0.14564303614E+03  0.14570264685E+03  0.00000000000E+00 0. -1.
        -15    1    1    2    0    0  0.33128105402E+01  0.94070863807E+00 -0.16944257442E+02  0.17381750076E+02  0.17770000000E+01 0. -1.
         15    1    1    2    0    0 -0.36529790109E+01 -0.19063650643E+01 -0.19383482742E+02  0.19896120618E+02  0.17770000000E+01 0.  1.
</event>
<event>
 6    1  0.1097339E-002  0.1836562E+03  0.7546771E-02  0.1067538E+00
        -11   -1    0    0    0    0  0.00000000000E+00  0.00000000000E+00  0.18250000000E+03  0.18250000000E+03  0.00000000000E+00 0. -1.
         11   -1    0    0    0    0 -0.00000000000E+00 -0.00000000000E+00 -0.18250000000E+03  0.18250000000E+03  0.00000000000E+00 0.  1.
        -11    1    1    2    0    0 -0.54834247916E+01  0.45622859939E+01  0.26362833764E+02  0.27310829445E+02  0.00000000000E+00 0. -1.
         11    1    1    2    0    0  0.39002895633E+01 -0.13062002648E+01 -0.18129711814E+03  0.18134377150E+03  0.00000000000E+00 0.  1.
        -15    1    1    2    0    0  0.32357392556E+01 -0.15763176902E+01  0.15240695126E+03  0.15245980226E+03  0.17770000000E+01 0. -1.
         15    1    1    2    0    0 -0.16526040273E+01 -0.16797680388E+01  0.25273331157E+01  0.38855967898E+01  0.17770000000E+01 0.  1.
</event>
<event>
 6    1  0.1097339E-002  0.1942084E+03  0.7546771E-02  0.1059499E+00
        -11   -1    0    0    0    0  0.00000000000E+00  0.00000000000E+00  0.18250000000E+03  0.18250000000E+03  0.00000000000E+00 0. -1.
         11   -1    0    0    0    0 -0.00000000000E+00 -0.00000000000E+00 -0.18250000000E+03  0.18250000000E+03  0.00000000000E+00 0.  1.
        -11    1    1    2    0    0 -0.63444358336E+01  0.69735161963E+01  0.17053117091E+03  0.17079157487E+03  0.00000000000E+00 0. -1.
         11    1    1    2    0    0 -0.21443169048E+00  0.43408868103E+01 -0.12614308380E+03  0.12621793402E+03  0.00000000000E+00 0.  1.
        -15    1    1    2    0    0  0.45553983651E+01 -0.23159525421E+02 -0.18380143007E+01  0.23741341529E+02  0.17770000000E+01 0. -1.
         15    1    1    2    0    0  0.20034691589E+01  0.11845122415E+02 -0.42550072811E+02  0.44249149584E+02  0.17770000000E+01 0.  1.
</event>
<event>
 6    1  0.1097339E-002  0.1831790E+03  0.7546771E-02  0.1067916E+00
        -11   -1    0    0    0    0  0.00000000000E+00  0.00000000000E+00  0.18250000000E+03  0.18250000000E+03  0.00000000000E+00 0.  1.
         11   -1    0    0    0    0 -0.00000000000E+00 -0.00000000000E+00 -0.18250000000E+03  0.18250000000E+03  0.00000000000E+00 0. -1.
        -11    1    1    2    0    0  0.98191109673E+00 -0.21714482560E+01  0.16710387712E+03  0.16712086968E+03  0.00000000000E+00 0.  1.
         11    1    1    2    0    0 -0.42083469853E+01  0.23644061412E+01 -0.18175696288E+03  0.18182104981E+03  0.00000000000E+00 0. -1.
        -15    1    1    2    0    0  0.33661571946E+01 -0.97032612749E+00  0.12733462210E+02  0.13325589514E+02  0.17770000000E+01 0. -1.
         15    1    1    2    0    0 -0.13972130600E+00  0.77736824228E+00  0.19196235514E+01  0.27324909893E+01  0.17770000000E+01 0.  1.
</event>
<event>
 6    1  0.1097339E-002  0.1826955E+03  0.7546771E-02  0.1068299E+00
        -11   -1    0    0    0    0  0.00000000000E+00  0.00000000000E+00  0.18250000000E+03  0.18250000000E+03  0.00000000000E+00 0.  1.
         11   -1    0    0    0    0 -0.00000000000E+00 -0.00000000000E+00 -0.18250000000E+03  0.18250000000E+03  0.00000000000E+00 0.  1.
        -11    1    1    2    0    0 -0.26988320434E+01  0.24334787236E+01  0.18226825088E+03  0.18230447277E+03  0.00000000000E+00 0.  1.
         11    1    1    2    0    0  0.28160935037E-01  0.18419630914E+01 -0.12040469569E+03  0.12041878742E+03  0.00000000000E+00 0.  1.
        -15    1    1    2    0    0  0.64611868021E+00 -0.40254215784E+01 -0.36919903596E+02  0.37186805439E+02  0.17770000000E+01 0. -1.
         15    1    1    2    0    0  0.20245524281E+01 -0.25002023667E+00 -0.24943651597E+02  0.25089934369E+02  0.17770000000E+01 0.  1.
</event>
<event>
 6    1  0.1097339E-002  0.1830364E+03  0.7546771E-02  0.1068029E+00
        -11   -1    0    0    0    0  0.00000000000E+00  0.00000000000E+00  0.18250000000E+03  0.18250000000E+03  0.00000000000E+00 0.  1.
         11   -1    0    0    0    0 -0.00000000000E+00 -0.00000000000E+00 -0.18250000000E+03  0.18250000000E+03  0.00000000000E+00 0.  1.
        -11    1    1    2    0    0 -0.90764569633E+00 -0.12107540195E+01  0.72866163190E+02  0.72881873494E+02  0.00000000000E+00 0.  1.
         11    1    1    2    0    0  0.45351707451E+01 -0.16648736248E+01 -0.18189946633E+03  0.18196361018E+03  0.00000000000E+00 0.  1.
        -15    1    1    2    0    0  0.15030713494E+00 -0.32110533497E+01  0.83371008662E+02  0.83451879967E+02  0.17770000000E+01 0. -1.
         15    1    1    2    0    0 -0.37778321837E+01  0.60866809940E+01  0.25662294480E+02  0.26702636359E+02  0.17770000000E+01 0. -1.
</event>
<event>
 6    1  0.1097339E-002  0.1826600E+03  0.7546771E-02  0.1068327E+00
        -11   -1    0    0    0    0  0.00000000000E+00  0.00000000000E+00  0.18250000000E+03  0.18250000000E+03  0.00000000000E+00 0. -1.
         11   -1    0    0    0    0 -0.00000000000E+00 -0.00000000000E+00 -0.18250000000E+03  0.18250000000E+03  0.00000000000E+00 0. -1.
        -11    1    1    2    0    0 -0.23126855276E+00 -0.71961226646E+00  0.28897222930E+02  0.28907106740E+02  0.00000000000E+00 0. -1.
         11    1    1    2    0    0  0.40021046815E+01  0.97406304109E-01 -0.18229599927E+03  0.18233995086E+03  0.00000000000E+00 0. -1.
        -15    1    1    2    0    0 -0.40077260823E+01  0.38876629170E+01  0.12079711341E+03  0.12093914225E+03  0.17770000000E+01 0. -1.
         15    1    1    2    0    0  0.23688995346E+00 -0.32654569547E+01  0.32601662924E+02  0.32813800152E+02  0.17770000000E+01 0.  1.
</event>
<event>
 6    1  0.1097339E-002  0.1853987E+03  0.7546771E-02  0.1066171E+00
        -11   -1    0    0    0    0  0.00000000000E+00  0.00000000000E+00  0.18250000000E+03  0.18250000000E+03  0.00000000000E+00 0. -1.
         11   -1    0    0    0    0 -0.00000000000E+00 -0.00000000000E+00 -0.18250000000E+03  0.18250000000E+03  0.00000000000E+00 0.  1.
        -11    1    1    2    0    0  0.12025303894E+00 -0.14065542060E+01  0.87166984014E+02  0.87178414517E+02  0.00000000000E+00 0. -1.
         11    1    1    2    0    0  0.12984424600E+01 -0.63085159422E+01 -0.17948577782E+03  0.17960130223E+03  0.00000000000E+00 0.  1.
        -15    1    1    2    0    0 -0.82272230319E+01 -0.41769886063E+01  0.77075697757E+02  0.77646347926E+02  0.17770000000E+01 0. -1.
         15    1    1    2    0    0  0.68085275330E+01  0.11892058754E+02  0.15243096046E+02  0.20573935322E+02  0.17770000000E+01 0.  1.
</event>
<event>
 6    1  0.1097339E-002  0.1836285E+03  0.7546771E-02  0.1067560E+00
        -11   -1    0    0    0    0  0.00000000000E+00  0.00000000000E+00  0.18250000000E+03  0.18250000000E+03  0.00000000000E+00 0.  1.
         11   -1    0    0    0    0 -0.00000000000E+00 -0.00000000000E+00 -0.18250000000E+03  0.18250000000E+03  0.00000000000E+00 0. -1.
        -11    1    1    2    0    0  0.23889615872E+01  0.11653847760E+00  0.11150174146E+03  0.11152739156E+03  0.00000000000E+00 0.  1.
         11    1    1    2    0    0  0.30581212770E+01  0.32166470153E+01 -0.18131716720E+03  0.18137148079E+03  0.00000000000E+00 0. -1.
        -15    1    1    2    0    0 -0.75759686650E+00 -0.12972466479E+01  0.64409150256E+02  0.64451168861E+02  0.17770000000E+01 0. -1.
         15    1    1    2    0    0 -0.46894859977E+01 -0.20359388450E+01  0.54062754766E+01  0.76499587863E+01  0.17770000000E+01 0.  1.
</event>
<event>
 6    1  0.1097339E-002  0.1864342E+03  0.7546771E-02  0.1065366E+00
        -11   -1    0    0    0    0  0.00000000000E+00  0.00000000000E+00  0.18250000000E+03  0.18250000000E+03  0.00000000000E+00 0.  1.
         11   -1    0    0    0    0 -0.00000000000E+00 -0.00000000000E+00 -0.18250000000E+03  0.18250000000E+03  0.00000000000E+00 0. -1.
        -11    1    1    2    0    0  0.38577289659E+00 -0.45902599755E+01  0.17554444832E+03  0.17560487648E+03  0.00000000000E+00 0.  1.
         11    1    1    2    0    0  0.14779919679E+01  0.31415646049E+01 -0.17853203908E+03  0.17856579422E+03  0.00000000000E+00 0. -1.
        -15    1    1    2    0    0 -0.17037293176E+01 -0.34040621579E+01 -0.97801364301E+00  0.43133018036E+01  0.17770000000E+01 0. -1.
         15    1    1    2    0    0 -0.16003554687E+00  0.48527575285E+01  0.39656044085E+01  0.65160274962E+01  0.17770000000E+01 0. -1.
</event>
<event>
 6    1  0.1097339E-002  0.1826305E+03  0.7546771E-02  0.1068351E+00
        -11   -1    0    0    0    0  0.00000000000E+00  0.00000000000E+00  0.18250000000E+03  0.18250000000E+03  0.00000000000E+00 0. -1.
         11   -1    0    0    0    0 -0.00000000000E+00 -0.00000000000E+00 -0.18250000000E+03  0.18250000000E+03  0.00000000000E+00 0.  1.
        -11    1    1    2    0    0 -0.36765348633E+01 -0.27282040400E+01  0.54587197782E+02  0.54778847812E+02  0.00000000000E+00 0. -1.
         11    1    1    2    0    0  0.16393481646E+01  0.36981664692E+01 -0.18232467334E+03  0.18236954353E+03  0.00000000000E+00 0.  1.
        -15    1    1    2    0    0 -0.72627867807E+00 -0.33420818757E+00  0.59838050498E+02  0.59869768600E+02  0.17770000000E+01 0. -1.
         15    1    1    2    0    0  0.27634653767E+01 -0.63575424160E+00  0.67899425064E+02  0.67981840056E+02  0.17770000000E+01 0. -1.
</event>
<event>
 6    1  0.1097339E-002  0.1645864E+03  0.7546771E-02  0.1083682E+00
        -11   -1    0    0    0    0  0.00000000000E+00  0.00000000000E+00  0.18250000000E+03  0.18250000000E+03  0.00000000000E+00 0.  1.
         11   -1    0    0    0    0 -0.00000000000E+00 -0.00000000000E+00 -0.18250000000E+03  0.18250000000E+03  0.00000000000E+00 0.  1.
        -11    1    1    2    0    0 -0.30615588995E+01 -0.19132439970E+01  0.16479830174E+03  0.16483784124E+03  0.00000000000E+00 0.  1.
         11    1    1    2    0    0  0.18513987039E+01 -0.79658835293E+01 -0.16428242136E+03  0.16448585636E+03  0.00000000000E+00 0.  1.
        -15    1    1    2    0    0  0.67518846969E+01  0.48531507119E+01  0.15629832769E+02  0.17792987950E+02  0.17770000000E+01 0. -1.
         15    1    1    2    0    0 -0.55417245013E+01  0.50259768145E+01 -0.16145713157E+02  0.17883314450E+02  0.17770000000E+01 0.  1.
</event>
<event>
 6    1  0.1097339E-002  0.1834285E+03  0.7546771E-02  0.1067718E+00
        -11   -1    0    0    0    0  0.00000000000E+00  0.00000000000E+00  0.18250000000E+03  0.18250000000E+03  0.00000000000E+00 0.  1.
         11   -1    0    0    0    0 -0.00000000000E+00 -0.00000000000E+00 -0.18250000000E+03  0.18250000000E+03  0.00000000000E+00 0.  1.
        -11    1    1    2    0    0 -0.13435907634E+01 -0.32055867301E+01  0.14680930788E+03  0.14685044740E+03  0.00000000000E+00 0.  1.
         11    1    1    2    0    0 -0.17955569812E+01 -0.18386693378E+01 -0.18155328225E+03  0.18157147084E+03  0.00000000000E+00 0.  1.
        -15    1    1    2    0    0  0.89322651155E+00 -0.66680974348E+00  0.11705447420E+01  0.24021641967E+01  0.17770000000E+01 0.  1.
         15    1    1    2    0    0  0.22459212331E+01  0.57110658113E+01  0.33573429625E+02  0.34175917554E+02  0.17770000000E+01 0.  1.
</event>
<event>
 6    1  0.1097339E-002  0.1846789E+03  0.7546771E-02  0.1066733E+00
        -11   -1    0    0    0    0  0.00000000000E+00  0.00000000000E+00  0.18250000000E+03  0.18250000000E+03  0.00000000000E+00 0. -1.
         11   -1    0    0    0    0 -0.00000000000E+00 -0.00000000000E+00 -0.18250000000E+03  0.18250000000E+03  0.00000000000E+00 0.  1.
        -11    1    1    2    0    0 -0.21286593701E+01  0.20131433782E+01  0.16925157197E+03  0.16927692858E+03  0.00000000000E+00 0. -1.
         11    1    1    2    0    0 -0.14650957617E+01 -0.24963255540E+01 -0.18029783037E+03  0.18032106306E+03  0.00000000000E+00 0.  1.
        -15    1    1    2    0    0 -0.11567722307E+01  0.23660800647E+01  0.84999588484E-01  0.31782716681E+01  0.17770000000E+01 0. -1.
         15    1    1    2    0    0  0.47505273625E+01 -0.18828978889E+01  0.10961258817E+02  0.12223736685E+02  0.17770000000E+01 0.  1.
</event>
<event>
 6    1  0.1097339E-002  0.1832527E+03  0.7546771E-02  0.1067857E+00
        -11   -1    0    0    0    0  0.00000000000E+00  0.00000000000E+00  0.18250000000E+03  0.18250000000E+03  0.00000000000E+00 0. -1.
         11   -1    0    0    0    0 -0.00000000000E+00 -0.00000000000E+00 -0.18250000000E+03  0.18250000000E+03  0.00000000000E+00 0.  1.
        -11    1    1    2    0    0 -0.17828074569E+01  0.12867003187E+01  0.16279539697E+03  0.16281024315E+03  0.00000000000E+00 0. -1.
         11    1    1    2    0    0 -0.29444151183E+01  0.48171046734E+00 -0.18172282210E+03  0.18174731277E+03  0.00000000000E+00 0.  1.
        -15    1    1    2    0    0  0.47644222173E+00  0.52009023432E+00  0.20712247666E+01  0.28187217096E+01  0.17770000000E+01 0.  1.
         15    1    1    2    0    0  0.42507803534E+01 -0.22885010204E+01  0.16856200369E+02  0.17623722377E+02  0.17770000000E+01 0. -1.
</event>
<event>
 6    1  0.1097339E-002  0.1864903E+03  0.7546771E-02  0.1065322E+00
        -11   -1    0    0    0    0  0.00000000000E+00  0.00000000000E+00  0.18250000000E+03  0.18250000000E+03  0.00000000000E+00 0. -1.
         11   -1    0    0    0    0 -0.00000000000E+00 -0.00000000000E+00 -0.18250000000E+03  0.18250000000E+03  0.00000000000E+00 0. -1.
        -11    1    1    2    0    0  0.11381283211E+01  0.18073652659E+01  0.12549622514E+03  0.12551439929E+03  0.00000000000E+00 0. -1.
         11    1    1    2    0    0 -0.79380232764E+01 -0.11696105647E+02 -0.17794918597E+03  0.17850973051E+03  0.00000000000E+00 0. -1.
        -15    1    1    2    0    0  0.10438858598E+02  0.89650611524E+01  0.73860275809E+01  0.15717926794E+02  0.17770000000E+01 0. -1.
         15    1    1    2    0    0 -0.36389636424E+01  0.92367922918E+00  0.45066933251E+02  0.45257943406E+02  0.17770000000E+01 0.  1.
</event>
<event>
 6    1  0.1097339E-002  0.1883388E+03  0.7546771E-02  0.1063900E+00
        -11   -1    0    0    0    0  0.00000000000E+00  0.00000000000E+00  0.18250000000E+03  0.18250000000E+03  0.00000000000E+00 0.  1.
         11   -1    0    0    0    0 -0.00000000000E+00 -0.00000000000E+00 -0.18250000000E+03  0.18250000000E+03  0.00000000000E+00 0.  1.
        -11    1    1    2    0    0  0.50468776320E+00 -0.22735967642E+01  0.17021806159E+03  0.17023399321E+03  0.00000000000E+00 0.  1.
         11    1    1    2    0    0  0.50080144793E+01 -0.10474825063E+00 -0.17659013002E+03  0.17666115929E+03  0.00000000000E+00 0.  1.
        -15    1    1    2    0    0 -0.48814501189E+01  0.42055205995E+01  0.10949209496E+02  0.12828011396E+02  0.17770000000E+01 0. -1.
         15    1    1    2    0    0 -0.63125212353E+00 -0.18271755847E+01 -0.45771410676E+01  0.52768360988E+01  0.17770000000E+01 0.  1.
</event>
<event>
 6    1  0.1097339E-002  0.1829599E+03  0.7546771E-02  0.1068089E+00
        -11   -1    0    0    0    0  0.00000000000E+00  0.00000000000E+00  0.18250000000E+03  0.18250000000E+03  0.00000000000E+00 0.  1.
         11   -1    0    0    0    0 -0.00000000000E+00 -0.00000000000E+00 -0.18250000000E+03  0.18250000000E+03  0.00000000000E+00 0. -1.
        -11    1    1    2    0    0  0.51156226891E+00  0.51022032980E+01  0.16463829484E+03  0.16471812985E+03  0.00000000000E+00 0.  1.
         11    1    1    2    0    0 -0.15194360134E+01 -0.44431178538E+01 -0.18197955289E+03  0.18204012649E+03  0.00000000000E+00 0. -1.
        -15    1    1    2    0    0  0.11379219123E+01  0.13044920195E+00  0.25044095020E+01  0.32774501104E+01  0.17770000000E+01 0.  1.
         15    1    1    2    0    0 -0.13004816786E+00 -0.78953464621E+00  0.14836848549E+02  0.14964293546E+02  0.17770000000E+01 0.  1.
</event>
<event>
 6    1  0.1097339E-002  0.1942818E+03  0.7546771E-02  0.1059445E+00
        -11   -1    0    0    0    0  0.00000000000E+00  0.00000000000E+00  0.18250000000E+03  0.18250000000E+03  0.00000000000E+00 0. -1.
         11   -1    0    0    0    0 -0.00000000000E+00 -0.00000000000E+00 -0.18250000000E+03  0.18250000000E+03  0.00000000000E+00 0. -1.
        -11    1    1    2    0    0  0.18953735057E+01  0.61435058557E+01  0.14003838126E+03  0.14018588849E+03  0.00000000000E+00 0. -1.
         11    1    1    2    0    0  0.16534524491E+02 -0.10973825490E+02 -0.16956086879E+03  0.17071819930E+03  0.00000000000E+00 0. -1.
        -15    1    1    2    0    0 -0.24068781079E+01  0.19189816351E+02  0.26132144154E+01  0.19596651051E+02  0.17770000000E+01 0. -1.
         15    1    1    2    0    0 -0.16023019889E+02 -0.14359496717E+02  0.26909273117E+02  0.34499261166E+02  0.17770000000E+01 0.  1.
</event>
<event>
 6    1  0.1097339E-002  0.1843744E+03  0.7546771E-02  0.1066973E+00
        -11   -1    0    0    0    0  0.00000000000E+00  0.00000000000E+00  0.18250000000E+03  0.18250000000E+03  0.00000000000E+00 0.  1.
         11   -1    0    0    0    0 -0.00000000000E+00 -0.00000000000E+00 -0.18250000000E+03  0.18250000000E+03  0.00000000000E+00 0. -1.
        -11    1    1    2    0    0 -0.44192523665E+01 -0.14738451704E+01  0.18056555753E+03  0.18062564208E+03  0.00000000000E+00 0.  1.
         11    1    1    2    0    0  0.19693782749E+01  0.85636993796E+01 -0.14472009642E+03  0.14498662595E+03  0.00000000000E+00 0. -1.
        -15    1    1    2    0    0 -0.37099852086E+01 -0.87197237494E+01 -0.23001039766E+02  0.24939990614E+02  0.17770000000E+01 0.  1.
         15    1    1    2    0    0  0.61598593002E+01  0.16298695401E+01 -0.12844421346E+02  0.14447741347E+02  0.17770000000E+01 0. -1.
</event>
<event>
 6    1  0.1097339E-002  0.1895597E+03  0.7546771E-02  0.1062970E+00
        -11   -1    0    0    0    0  0.00000000000E+00  0.00000000000E+00  0.18250000000E+03  0.18250000000E+03  0.00000000000E+00 0. -1.
         11   -1    0    0    0    0 -0.00000000000E+00 -0.00000000000E+00 -0.18250000000E+03  0.18250000000E+03  0.00000000000E+00 0. -1.
        -11    1    1    2    0    0  0.51939803471E+01  0.10028778072E+01  0.17536051650E+03  0.17544028598E+03  0.00000000000E+00 0. -1.
         11    1    1    2    0    0 -0.75021654612E+01  0.87133647770E+01 -0.15795168416E+03  0.15836963011E+03  0.00000000000E+00 0. -1.
        -15    1    1    2    0    0  0.93207559563E+01 -0.65974763843E+01 -0.19827117063E+02  0.22949411458E+02  0.17770000000E+01 0. -1.
         15    1    1    2    0    0 -0.70125708423E+01 -0.31187661999E+01  0.24182847208E+01  0.82406724494E+01  0.17770000000E+01 0. -1.
</event>
<event>
 6    1  0.1097339E-002  0.1830263E+03  0.7546771E-02  0.1068037E+00
        -11   -1    0    0    0    0  0.00000000000E+00  0.00000000000E+00  0.18250000000E+03  0.18250000000E+03  0.00000000000E+00 0. -1.
         11   -1    0    0    0    0 -0.00000000000E+00 -0.00000000000E+00 -0.18250000000E+03  0.18250000000E+03  0.00000000000E+00 0.  1.
        -11    1    1    2    0    0  0.15975239704E+01  0.32348855604E+01  0.18193794202E+03  0.18197371050E+03  0.00000000000E+00 0. -1.
         11    1    1    2    0    0  0.22010657730E+01 -0.10373623593E+01 -0.38676691978E+02  0.38753158756E+02  0.00000000000E+00 0.  1.
        -15    1    1    2    0    0  0.21341082458E+01  0.42723487095E+00 -0.42232717424E+01  0.50725438244E+01  0.17770000000E+01 0.  1.
         15    1    1    2    0    0 -0.59326979891E+01 -0.26247580720E+01 -0.13903797830E+03  0.13920058692E+03  0.17770000000E+01 0.  1.
</event>
<event>
 6    1  0.1097339E-002  0.1826539E+03  0.7546771E-02  0.1068332E+00
        -11   -1    0    0    0    0  0.00000000000E+00  0.00000000000E+00  0.18250000000E+03  0.18250000000E+03  0.00000000000E+00 0. -1.
         11   -1    0    0    0    0 -0.00000000000E+00 -0.00000000000E+00 -0.18250000000E+03  0.18250000000E+03  0.00000000000E+00 0. -1.
        -11    1    1    2    0    0  0.36569802506E+00 -0.28846271192E+01  0.18232290246E+03  0.18234608735E+03  0.00000000000E+00 0. -1.
         11    1    1    2    0    0  0.11933953942E+01 -0.89287655289E+00 -0.91698987388E+02  0.91711099160E+02  0.00000000000E+00 0. -1.
        -15    1    1    2    0    0 -0.15639035936E+01  0.18283002148E+01 -0.77434467057E+02  0.77492211825E+02  0.17770000000E+01 0.  1.
         15    1    1    2    0    0  0.48101743069E-02  0.19492034572E+01 -0.13189448016E+02  0.13450601668E+02  0.17770000000E+01 0. -1.
</event>
<event>
 6    1  0.1097339E-002  0.1883015E+03  0.7546771E-02  0.1063928E+00
        -11   -1    0    0    0    0  0.00000000000E+00  0.00000000000E+00  0.18250000000E+03  0.18250000000E+03  0.00000000000E+00 0.  1.
         11   -1    0    0    0    0 -0.00000000000E+00 -0.00000000000E+00 -0.18250000000E+03  0.18250000000E+03  0.00000000000E+00 0.  1.
        -11    1    1    2    0    0 -0.36634374749E+00 -0.32223269272E+01  0.17666868740E+03  0.17669845134E+03  0.00000000000E+00 0.  1.
         11    1    1    2    0    0  0.76135894037E+00  0.50243945245E+01 -0.16031402047E+03  0.16039454282E+03  0.00000000000E+00 0.  1.
        -15    1    1    2    0    0 -0.84595822585E+01 -0.21694464893E+01 -0.17424905169E+02  0.19571818496E+02  0.17770000000E+01 0.  1.
         15    1    1    2    0    0  0.80645670656E+01  0.36737889202E+00  0.10702382367E+01  0.83351873458E+01  0.17770000000E+01 0. -1.
</event>
<event>
 6    1  0.1097339E-002  0.1739070E+03  0.7546771E-02  0.1075508E+00
        -11   -1    0    0    0    0  0.00000000000E+00  0.00000000000E+00  0.18250000000E+03  0.18250000000E+03  0.00000000000E+00 0. -1.
         11   -1    0    0    0    0 -0.00000000000E+00 -0.00000000000E+00 -0.18250000000E+03  0.18250000000E+03  0.00000000000E+00 0. -1.
        -11    1    1    2    0    0 -0.32319619592E+01 -0.48719950807E+01  0.17264364711E+03  0.17274261432E+03  0.00000000000E+00 0. -1.
         11    1    1    2    0    0 -0.76803278912E+00 -0.27775175570E+01 -0.17516386580E+03  0.17518756908E+03  0.00000000000E+00 0. -1.
        -15    1    1    2    0    0 -0.35691927906E+01  0.74234404426E+01  0.36993355418E+01  0.92026853490E+01  0.17770000000E+01 0. -1.
         15    1    1    2    0    0  0.75691875389E+01  0.22607219506E+00 -0.11791168579E+01  0.78671312561E+01  0.17770000000E+01 0.  1.
</event>
<event>
 6    1  0.1097339E-002  0.1825994E+03  0.7546771E-02  0.1068376E+00
        -11   -1    0    0    0    0  0.00000000000E+00  0.00000000000E+00  0.18250000000E+03  0.18250000000E+03  0.00000000000E+00 0. -1.
         11   -1    0    0    0    0 -0.00000000000E+00 -0.00000000000E+00 -0.18250000000E+03  0.18250000000E+03  0.00000000000E+00 0.  1.
        -11    1    1    2    0    0  0.28101282305E+01  0.95537622913E-01  0.18237890328E+03  0.18240057650E+03  0.00000000000E+00 0. -1.
         11    1    1    2    0    0 -0.14925244902E+01 -0.15521619731E+01 -0.12765726231E+03  0.12767542228E+03  0.00000000000E+00 0.  1.
        -15    1    1    2    0    0 -0.10769501480E+01  0.29870039970E+00 -0.39212962255E+02  0.39269112307E+02  0.17770000000E+01 0. -1.
         15    1    1    2    0    0 -0.24065359228E+00  0.11579239505E+01 -0.15508678717E+02  0.15654888903E+02  0.17770000000E+01 0.  1.
</event>
<event>
 6    1  0.1097339E-002  0.1835498E+03  0.7546771E-02  0.1067622E+00
        -11   -1    0    0    0    0  0.00000000000E+00  0.00000000000E+00  0.18250000000E+03  0.18250000000E+03  0.00000000000E+00 0.  1.
         11   -1    0    0    0    0 -0.00000000000E+00 -0.00000000000E+00 -0.18250000000E+03  0.18250000000E+03  0.00000000000E+00 0. -1.
        -11    1    1    2    0    0  0.62673721366E-01 -0.29921415252E+01  0.13756004828E+03  0.13759260053E+03  0.00000000000E+00 0.  1.
         11    1    1    2    0    0 -0.18741822059E+01 -0.52815538429E+01 -0.18136359965E+03  0.18145016574E+03  0.00000000000E+00 0. -1.
        -15    1    1    2    0    0 -0.43670972019E+01  0.33040324840E+01  0.16942191649E+02  0.17893679205E+02  0.17770000000E+01 0. -1.
         15    1    1    2    0    0  0.61786056864E+01  0.49696628841E+01  0.26861359718E+02  0.28063554520E+02  0.17770000000E+01 0.  1.
</event>
<event>
 6    1  0.1097339E-002  0.1827365E+03  0.7546771E-02  0.1068267E+00
        -11   -1    0    0    0    0  0.00000000000E+00  0.00000000000E+00  0.18250000000E+03  0.18250000000E+03  0.00000000000E+00 0.  1.
         11   -1    0    0    0    0 -0.00000000000E+00 -0.00000000000E+00 -0.18250000000E+03  0.18250000000E+03  0.00000000000E+00 0.  1.
        -11    1    1    2    0    0 -0.63665082840E+00 -0.27735680542E+01  0.18224129024E+03  0.18226350670E+03  0.00000000000E+00 0.  1.
         11    1    1    2    0    0 -0.10569496766E+01  0.13582153254E+01 -0.10832517205E+03  0.10833884249E+03  0.00000000000E+00 0.  1.
        -15    1    1    2    0    0  0.33109431619E+01 -0.16635839402E+01 -0.49593038916E+02  0.49763009294E+02  0.17770000000E+01 0.  1.
         15    1    1    2    0    0 -0.16173426569E+01  0.30789366690E+01 -0.24323079277E+02  0.24634641520E+02  0.17770000000E+01 0. -1.
</event>
<event>
 6    1  0.1097339E-002  0.1826621E+03  0.7546771E-02  0.1068326E+00
        -11   -1    0    0    0    0  0.00000000000E+00  0.00000000000E+00  0.18250000000E+03  0.18250000000E+03  0.00000000000E+00 0. -1.
         11   -1    0    0    0    0 -0.00000000000E+00 -0.00000000000E+00 -0.18250000000E+03  0.18250000000E+03  0.00000000000E+00 0.  1.
        -11    1    1    2    0    0 -0.15389987857E+01 -0.86635997798E+00  0.65760896236E+02  0.65784607399E+02  0.00000000000E+00 0. -1.
         11    1    1    2    0    0  0.23820688487E+00  0.60525261191E+01 -0.18223730754E+03  0.18233794469E+03  0.00000000000E+00 0.  1.
        -15    1    1    2    0    0  0.21255312398E+01 -0.56988951153E+01  0.54366880212E+02  0.54734912822E+02  0.17770000000E+01 0. -1.
         15    1    1    2    0    0 -0.82473933888E+00  0.51272897418E+00  0.62109531090E+02  0.62142535089E+02  0.17770000000E+01 0. -1.
</event>
<event>
 6    1  0.1097339E-002  0.1673438E+03  0.7546771E-02  0.1081203E+00
        -11   -1    0    0    0    0  0.00000000000E+00  0.00000000000E+00  0.18250000000E+03  0.18250000000E+03  0.00000000000E+00 0.  1.
         11   -1    0    0    0    0 -0.00000000000E+00 -0.00000000000E+00 -0.18250000000E+03  0.18250000000E+03  0.00000000000E+00 0.  1.
        -11    1    1    2    0    0 -0.17464672918E+02 -0.53559588924E+01  0.16545363535E+03  0.16645902363E+03  0.00000000000E+00 0.  1.
         11    1    1    2    0    0 -0.34870724066E+01 -0.22940470525E+01 -0.16893755174E+03  0.16898910827E+03  0.00000000000E+00 0.  1.
        -15    1    1    2    0    0  0.24597807784E+01 -0.12198319203E+01 -0.60406885915E+01  0.68692182270E+01  0.17770000000E+01 0. -1.
         15    1    1    2    0    0  0.18491964547E+02  0.88698378652E+01  0.95246049732E+01  0.22682649877E+02  0.17770000000E+01 0.  1.
</event>
<event>
 6    1  0.1097339E-002  0.1872228E+03  0.7546771E-02  0.1064756E+00
        -11   -1    0    0    0    0  0.00000000000E+00  0.00000000000E+00  0.18250000000E+03  0.18250000000E+03  0.00000000000E+00 0. -1.
         11   -1    0    0    0    0 -0.00000000000E+00 -0.00000000000E+00 -0.18250000000E+03  0.18250000000E+03  0.00000000000E+00 0.  1.
        -11    1    1    2    0    0 -0.56452584105E+01 -0.26035055178E+01  0.17766842592E+03  0.17777715475E+03  0.00000000000E+00 0. -1.
         11    1    1    2    0    0  0.72361210363E-01 -0.26167231587E+01 -0.13282252460E+03  0.13284831770E+03  0.00000000000E+00 0.  1.
        -15    1    1    2    0    0  0.24527703067E+01  0.13195150836E+01 -0.48060787156E+02  0.48174206722E+02  0.17770000000E+01 0.  1.
         15    1    1    2    0    0  0.31201268934E+01  0.39007135929E+01  0.32148858354E+01  0.62003208224E+01  0.17770000000E+01 0.  1.
</event>
<event>
 6    1  0.1097339E-002  0.1832076E+03  0.7546771E-02  0.1067893E+00
        -11   -1    0    0    0    0  0.00000000000E+00  0.00000000000E+00  0.18250000000E+03  0.18250000000E+03  0.00000000000E+00 0.  1.
         11   -1    0    0    0    0 -0.00000000000E+00 -0.00000000000E+00 -0.18250000000E+03  0.18250000000E+03  0.00000000000E+00 0. -1.
        -11    1    1    2    0    0  0.11095984146E+01 -0.17881999582E+01  0.14244704809E+03  0.14246259291E+03  0.00000000000E+00 0.  1.
         11    1    1    2    0    0 -0.88166270482E+01 -0.90621044589E+00 -0.18157620958E+03  0.18179239262E+03  0.00000000000E+00 0. -1.
        -15    1    1    2    0    0  0.60596279382E+01  0.29908701629E+00  0.13696156861E+02  0.15084793189E+02  0.17770000000E+01 0.  1.
         15    1    1    2    0    0  0.16474006953E+01  0.23953233878E+01  0.25433004622E+02  0.25660221283E+02  0.17770000000E+01 0.  1.
</event>
<event>
 6    1  0.1097339E-002  0.1834048E+03  0.7546771E-02  0.1067737E+00
        -11   -1    0    0    0    0  0.00000000000E+00  0.00000000000E+00  0.18250000000E+03  0.18250000000E+03  0.00000000000E+00 0.  1.
         11   -1    0    0    0    0 -0.00000000000E+00 -0.00000000000E+00 -0.18250000000E+03  0.18250000000E+03  0.00000000000E+00 0. -1.
        -11    1    1    2    0    0 -0.23531388812E+01 -0.78869803827E+01  0.18140854276E+03  0.18159515717E+03  0.00000000000E+00 0.  1.
         11    1    1    2    0    0  0.11335155257E+01  0.37414848979E+00 -0.27010228208E+02  0.27036591360E+02  0.00000000000E+00 0. -1.
        -15    1    1    2    0    0 -0.43712752580E+01 -0.62701468076E+01 -0.27784840250E+02  0.28871748563E+02  0.17770000000E+01 0.  1.
         15    1    1    2    0    0  0.55908986135E+01  0.13782978701E+02 -0.12661347430E+03  0.12749650290E+03  0.17770000000E+01 0. -1.
</event>
<event>
 6    1  0.1097339E-002  0.1758341E+03  0.7546771E-02  0.1073888E+00
        -11   -1    0    0    0    0  0.00000000000E+00  0.00000000000E+00  0.18250000000E+03  0.18250000000E+03  0.00000000000E+00 0.  1.
         11   -1    0    0    0    0 -0.00000000000E+00 -0.00000000000E+00 -0.18250000000E+03  0.18250000000E+03  0.00000000000E+00 0.  1.
        -11    1    1    2    0    0  0.14795211583E+00 -0.26088737765E+01  0.17744458350E+03  0.17746382258E+03  0.00000000000E+00 0.  1.
         11    1    1    2    0    0  0.23471099837E+01 -0.44230632233E+01 -0.17422631671E+03  0.17429825544E+03  0.00000000000E+00 0.  1.
        -15    1    1    2    0    0  0.55838242106E+00  0.87068582387E+01 -0.18377629751E+01  0.90915495417E+01  0.17770000000E+01 0.  1.
         15    1    1    2    0    0 -0.30534445206E+01 -0.16749212389E+01 -0.13805038128E+01  0.41463724355E+01  0.17770000000E+01 0. -1.
</event>
<event>
 6    1  0.1209322E-002  0.1840662E+03  0.7546771E-02  0.1067215E+00
        -11   -1    0    0    0    0  0.00000000000E+00  0.00000000000E+00  0.18250000000E+03  0.18250000000E+03  0.00000000000E+00 0. -1.
         11   -1    0    0    0    0 -0.00000000000E+00 -0.00000000000E+00 -0.18250000000E+03  0.18250000000E+03  0.00000000000E+00 0. -1.
        -11    1    1    2    0    0  0.42514518019E+01  0.25288889854E+01  0.18086618048E+03  0.18093381487E+03  0.00000000000E+00 0. -1.
         11    1    1    2    0    0 -0.23249839187E+01  0.10901921277E+00 -0.13259997247E+03  0.13262039864E+03  0.00000000000E+00 0. -1.
        -15    1    1    2    0    0  0.23072153839E+01  0.29735493762E+00 -0.44994357261E+02  0.45089484108E+02  0.17770000000E+01 0. -1.
         15    1    1    2    0    0 -0.42336832671E+01 -0.29352631358E+01 -0.32718507467E+01  0.63563023836E+01  0.17770000000E+01 0. -1.
</event>
<event>
 6    1  0.1097339E-002  0.1917973E+03  0.7546771E-02  0.1061286E+00
        -11   -1    0    0    0    0  0.00000000000E+00  0.00000000000E+00  0.18250000000E+03  0.18250000000E+03  0.00000000000E+00 0.  1.
         11   -1    0    0    0    0 -0.00000000000E+00 -0.00000000000E+00 -0.18250000000E+03  0.18250000000E+03  0.00000000000E+00 0.  1.
        -11    1    1    2    0    0  0.16568109861E+02 -0.47195971220E+01  0.17234386799E+03  0.17320273004E+03  0.00000000000E+00 0.  1.
         11    1    1    2    0    0 -0.10599604286E+01  0.29970807093E+01 -0.11534997700E+03  0.11539377454E+03  0.00000000000E+00 0.  1.
        -15    1    1    2    0    0  0.13512573426E+01 -0.83925281343E+00 -0.59083277366E+02  0.59131392974E+02  0.17770000000E+01 0.  1.
         15    1    1    2    0    0 -0.16859406775E+02  0.25617692261E+01  0.20893863765E+01  0.17272102443E+02  0.17770000000E+01 0.  1.
</event>
<event>
 6    1  0.1097339E-002  0.1848402E+03  0.7546771E-02  0.1066607E+00
        -11   -1    0    0    0    0  0.00000000000E+00  0.00000000000E+00  0.18250000000E+03  0.18250000000E+03  0.00000000000E+00 0.  1.
         11   -1    0    0    0    0 -0.00000000000E+00 -0.00000000000E+00 -0.18250000000E+03  0.18250000000E+03  0.00000000000E+00 0. -1.
        -11    1    1    2    0    0 -0.17915551270E+01 -0.30343091284E+01  0.18012535852E+03  0.18015982206E+03  0.00000000000E+00 0.  1.
         11    1    1    2    0    0 -0.38550884715E+01  0.29503037084E+01 -0.17381703853E+03  0.17388481499E+03  0.00000000000E+00 0. -1.
        -15    1    1    2    0    0  0.40487721518E+01  0.28763479388E+01 -0.35086524586E+01  0.63351641240E+01  0.17770000000E+01 0. -1.
         15    1    1    2    0    0  0.15978714467E+01 -0.27923425188E+01 -0.27996675312E+01  0.46201988256E+01  0.17770000000E+01 0.  1.
</event>
<event>
 6    1  0.1097339E-002  0.1876184E+03  0.7546771E-02  0.1064452E+00
        -11   -1    0    0    0    0  0.00000000000E+00  0.00000000000E+00  0.18250000000E+03  0.18250000000E+03  0.00000000000E+00 0.  1.
         11   -1    0    0    0    0 -0.00000000000E+00 -0.00000000000E+00 -0.18250000000E+03  0.18250000000E+03  0.00000000000E+00 0. -1.
        -11    1    1    2    0    0  0.44732649849E+01  0.14537990119E+02  0.15829528339E+03  0.15902440064E+03  0.00000000000E+00 0.  1.
         11    1    1    2    0    0  0.88550633267E+01 -0.12920084391E+02 -0.17668868156E+03  0.17738159690E+03  0.00000000000E+00 0. -1.
        -15    1    1    2    0    0 -0.55666313032E-01 -0.58801833307E+01  0.11277373680E+02  0.12841983525E+02  0.17770000000E+01 0. -1.
         15    1    1    2    0    0 -0.13272661999E+02  0.42622776024E+01  0.71160244929E+01  0.15752018933E+02  0.17770000000E+01 0.  1.
</event>
<event>
 6    1  0.1097339E-002  0.1835279E+03  0.7546771E-02  0.1067640E+00
        -11   -1    0    0    0    0  0.00000000000E+00  0.00000000000E+00  0.18250000000E+03  0.18250000000E+03  0.00000000000E+00 0. -1.
         11   -1    0    0    0    0 -0.00000000000E+00 -0.00000000000E+00 -0.18250000000E+03  0.18250000000E+03  0.00000000000E+00 0.  1.
        -11    1    1    2    0    0 -0.37071058516E+01 -0.29052340276E-01  0.17326712910E+03  0.17330678435E+03  0.00000000000E+00 0. -1.
         11    1    1    2    0    0  0.17239342745E+01  0.19143944784E+01 -0.18145377821E+03  0.18147206530E+03  0.00000000000E+00 0.  1.
        -15    1    1    2    0    0  0.27454303009E+01  0.14806489899E+00  0.38222443603E+01  0.50325531991E+01  0.17770000000E+01 0.  1.
         15    1    1    2    0    0 -0.76225872379E+00 -0.20334070371E+01  0.43644047557E+01  0.51885971526E+01  0.17770000000E+01 0. -1.
</event>
<event>
 6    1  0.1097339E-002  0.1844093E+03  0.7546771E-02  0.1066945E+00
        -11   -1    0    0    0    0  0.00000000000E+00  0.00000000000E+00  0.18250000000E+03  0.18250000000E+03  0.00000000000E+00 0. -1.
         11   -1    0    0    0    0 -0.00000000000E+00 -0.00000000000E+00 -0.18250000000E+03  0.18250000000E+03  0.00000000000E+00 0. -1.
        -11    1    1    2    0    0 -0.55578536512E+01  0.83910540250E+00  0.18050321508E+03  0.18059070986E+03  0.00000000000E+00 0. -1.
         11    1    1    2    0    0  0.17053365343E+01 -0.26909089948E+01 -0.83260623678E+02  0.83321549548E+02  0.00000000000E+00 0. -1.
        -15    1    1    2    0    0  0.45191246867E+01  0.11833956326E+00 -0.98218329069E+02  0.98338366807E+02  0.17770000000E+01 0. -1.
         15    1    1    2    0    0 -0.66660756986E+00  0.17334640291E+01  0.97573766771E+00  0.27493737812E+01  0.17770000000E+01 0.  1.
</event>
<event>
 6    1  0.1097339E-002  0.1842546E+03  0.7546771E-02  0.1067067E+00
        -11   -1    0    0    0    0  0.00000000000E+00  0.00000000000E+00  0.18250000000E+03  0.18250000000E+03  0.00000000000E+00 0. -1.
         11   -1    0    0    0    0 -0.00000000000E+00 -0.00000000000E+00 -0.18250000000E+03  0.18250000000E+03  0.00000000000E+00 0. -1.
        -11    1    1    2    0    0 -0.12263619162E+01  0.27343144607E+01  0.18072059528E+03  0.18074543977E+03  0.00000000000E+00 0. -1.
         11    1    1    2    0    0  0.51605589392E+01  0.10235906347E+00 -0.15363432331E+03  0.15372100424E+03  0.00000000000E+00 0. -1.
        -15    1    1    2    0    0 -0.68314984432E+01  0.23905912273E+01 -0.18303562131E+02  0.19762651975E+02  0.17770000000E+01 0. -1.
         15    1    1    2    0    0  0.28973014201E+01 -0.52272647515E+01 -0.87827098383E+01  0.10770904020E+02  0.17770000000E+01 0.  1.
</event>
<event>
 6    1  0.1097339E-002  0.1952077E+03  0.7546771E-02  0.1058767E+00
        -11   -1    0    0    0    0  0.00000000000E+00  0.00000000000E+00  0.18250000000E+03  0.18250000000E+03  0.00000000000E+00 0.  1.
         11   -1    0    0    0    0 -0.00000000000E+00 -0.00000000000E+00 -0.18250000000E+03  0.18250000000E+03  0.00000000000E+00 0. -1.
        -11    1    1    2    0    0  0.11107859974E+02 -0.27997143501E+01  0.16333088766E+03  0.16373210381E+03  0.00000000000E+00 0.  1.
         11    1    1    2    0    0 -0.29355396177E+01  0.95462435879E+00 -0.16976419722E+03  0.16979225942E+03  0.00000000000E+00 0. -1.
        -15    1    1    2    0    0  0.41356243903E+01  0.56659013871E+01 -0.88326896330E+01  0.11418404564E+02  0.17770000000E+01 0. -1.
         15    1    1    2    0    0 -0.12307944747E+02 -0.38208113958E+01  0.15265999194E+02  0.20057232212E+02  0.17770000000E+01 0.  1.
</event>
<event>
 6    1  0.1097339E-002  0.1827692E+03  0.7546771E-02  0.1068241E+00
        -11   -1    0    0    0    0  0.00000000000E+00  0.00000000000E+00  0.18250000000E+03  0.18250000000E+03  0.00000000000E+00 0.  1.
         11   -1    0    0    0    0 -0.00000000000E+00 -0.00000000000E+00 -0.18250000000E+03  0.18250000000E+03  0.00000000000E+00 0. -1.
        -11    1    1    2    0    0 -0.74104024047E+01  0.47660973872E+01  0.18201770001E+03  0.18223082304E+03  0.00000000000E+00 0.  1.
         11    1    1    2    0    0 -0.10395910280E+01 -0.24397710539E+01 -0.47702700523E+02  0.47776363083E+02  0.00000000000E+00 0. -1.
        -15    1    1    2    0    0  0.61363897828E+01 -0.53859893806E+01 -0.10966889115E+03  0.10998676091E+03  0.17770000000E+01 0. -1.
         15    1    1    2    0    0  0.23136036499E+01  0.30596630473E+01 -0.24646108340E+02  0.25006052969E+02  0.17770000000E+01 0.  1.
</event>
<event>
 6    1  0.1097339E-002  0.1833776E+03  0.7546771E-02  0.1067758E+00
        -11   -1    0    0    0    0  0.00000000000E+00  0.00000000000E+00  0.18250000000E+03  0.18250000000E+03  0.00000000000E+00 0.  1.
         11   -1    0    0    0    0 -0.00000000000E+00 -0.00000000000E+00 -0.18250000000E+03  0.18250000000E+03  0.00000000000E+00 0. -1.
        -11    1    1    2    0    0 -0.20668952753E+01 -0.25980645662E+01  0.14318978986E+03  0.14322827205E+03  0.00000000000E+00 0.  1.
         11    1    1    2    0    0 -0.38083200973E+01  0.54364306727E+00 -0.18158165143E+03  0.18162239671E+03  0.00000000000E+00 0. -1.
        -15    1    1    2    0    0 -0.15694457166E+01 -0.16257960756E+00  0.19520276408E+02  0.19664397068E+02  0.17770000000E+01 0. -1.
         15    1    1    2    0    0  0.74446610893E+01  0.22170011065E+01  0.18871585162E+02  0.20484934176E+02  0.17770000000E+01 0. -1.
</event>
<event>
 6    1  0.1097339E-002  0.1834582E+03  0.7546771E-02  0.1067695E+00
        -11   -1    0    0    0    0  0.00000000000E+00  0.00000000000E+00  0.18250000000E+03  0.18250000000E+03  0.00000000000E+00 0. -1.
         11   -1    0    0    0    0 -0.00000000000E+00 -0.00000000000E+00 -0.18250000000E+03  0.18250000000E+03  0.00000000000E+00 0.  1.
        -11    1    1    2    0    0  0.36694647272E+01 -0.32131025381E+01  0.18147624952E+03  0.18154178070E+03  0.00000000000E+00 0. -1.
         11    1    1    2    0    0 -0.16322784148E+01  0.31516506587E+01 -0.17446563073E+03  0.17450172934E+03  0.00000000000E+00 0.  1.
        -15    1    1    2    0    0 -0.23083861942E-01 -0.89284128324E+00 -0.52305193508E+01  0.55958699146E+01  0.17770000000E+01 0. -1.
         15    1    1    2    0    0 -0.20141024505E+01  0.95429316271E+00 -0.17800994346E+01  0.33606200497E+01  0.17770000000E+01 0. -1.
</event>
<event>
 6    1  0.1097339E-002  0.1845061E+03  0.7546771E-02  0.1066869E+00
        -11   -1    0    0    0    0  0.00000000000E+00  0.00000000000E+00  0.18250000000E+03  0.18250000000E+03  0.00000000000E+00 0. -1.
         11   -1    0    0    0    0 -0.00000000000E+00 -0.00000000000E+00 -0.18250000000E+03  0.18250000000E+03  0.00000000000E+00 0.  1.
        -11    1    1    2    0    0  0.42914375802E+01  0.39108580804E+01  0.16619159213E+03  0.16629298405E+03  0.00000000000E+00 0. -1.
         11    1    1    2    0    0 -0.24977687292E+01  0.22800989533E+01 -0.18046217649E+03  0.18049386373E+03  0.00000000000E+00 0.  1.
        -15    1    1    2    0    0  0.31851384384E+01 -0.36285753687E+01  0.46180936509E+01  0.69134784332E+01  0.17770000000E+01 0. -1.
         15    1    1    2    0    0 -0.49788072894E+01 -0.25623816650E+01  0.96524907089E+01  0.11299673788E+02  0.17770000000E+01 0.  1.
</event>
<event>
 6    1  0.1097339E-002  0.1835560E+03  0.7546771E-02  0.1067617E+00
        -11   -1    0    0    0    0  0.00000000000E+00  0.00000000000E+00  0.18250000000E+03  0.18250000000E+03  0.00000000000E+00 0.  1.
         11   -1    0    0    0    0 -0.00000000000E+00 -0.00000000000E+00 -0.18250000000E+03  0.18250000000E+03  0.00000000000E+00 0. -1.
        -11    1    1    2    0    0 -0.28604524032E+01 -0.43803442105E+01  0.99814112852E+01  0.11269346680E+02  0.00000000000E+00 0.  1.
         11    1    1    2    0    0 -0.41785964274E+01  0.80301626902E+01 -0.17466876713E+03  0.17490318005E+03  0.00000000000E+00 0. -1.
        -15    1    1    2    0    0  0.69916512628E+01 -0.36119738013E+02  0.96259008658E+02  0.10306538283E+03  0.17770000000E+01 0. -1.
         15    1    1    2    0    0  0.47397567774E-01  0.32469919534E+02  0.68428347182E+02  0.75762090442E+02  0.17770000000E+01 0.  1.
</event>
<event>
 6    1  0.1097339E-002  0.1865484E+03  0.7546771E-02  0.1065277E+00
        -11   -1    0    0    0    0  0.00000000000E+00  0.00000000000E+00  0.18250000000E+03  0.18250000000E+03  0.00000000000E+00 0. -1.
         11   -1    0    0    0    0 -0.00000000000E+00 -0.00000000000E+00 -0.18250000000E+03  0.18250000000E+03  0.00000000000E+00 0.  1.
        -11    1    1    2    0    0 -0.15491025728E+01 -0.54160644352E+01  0.16432975999E+03  0.16442628589E+03  0.00000000000E+00 0. -1.
         11    1    1    2    0    0 -0.45850759850E+01 -0.13161767764E+00 -0.17839266403E+03  0.17845162601E+03  0.00000000000E+00 0.  1.
        -15    1    1    2    0    0  0.10190381695E+02  0.26415376975E+01  0.53898504887E+01  0.11959507422E+02  0.17770000000E+01 0.  1.
         15    1    1    2    0    0 -0.40562031368E+01  0.29061444154E+01  0.86730535502E+01  0.10162580683E+02  0.17770000000E+01 0. -1.
</event>
<event>
 6    1  0.1097339E-002  0.1825561E+03  0.7546771E-02  0.1068410E+00
        -11   -1    0    0    0    0  0.00000000000E+00  0.00000000000E+00  0.18250000000E+03  0.18250000000E+03  0.00000000000E+00 0. -1.
         11   -1    0    0    0    0 -0.00000000000E+00 -0.00000000000E+00 -0.18250000000E+03  0.18250000000E+03  0.00000000000E+00 0.  1.
        -11    1    1    2    0    0 -0.66760470182E+00 -0.24091677934E+01  0.18242679851E+03  0.18244392727E+03  0.00000000000E+00 0. -1.
         11    1    1    2    0    0  0.16360163355E+01 -0.37943190563E-01 -0.55783227192E+02  0.55807225564E+02  0.00000000000E+00 0.  1.
        -15    1    1    2    0    0 -0.15837530239E-01  0.63462755638E+00 -0.82820236584E+02  0.82841730545E+02  0.17770000000E+01 0.  1.
         15    1    1    2    0    0 -0.95257410347E+00  0.18124834276E+01 -0.43823334732E+02  0.43907116617E+02  0.17770000000E+01 0.  1.
</event>
<event>
 6    1  0.1097339E-002  0.1839345E+03  0.7546771E-02  0.1067319E+00
        -11   -1    0    0    0    0  0.00000000000E+00  0.00000000000E+00  0.18250000000E+03  0.18250000000E+03  0.00000000000E+00 0. -1.
         11   -1    0    0    0    0 -0.00000000000E+00 -0.00000000000E+00 -0.18250000000E+03  0.18250000000E+03  0.00000000000E+00 0.  1.
        -11    1    1    2    0    0  0.23978866556E+01 -0.19782854857E+01  0.16084432014E+03  0.16087435717E+03  0.00000000000E+00 0. -1.
         11    1    1    2    0    0  0.30492384608E+01 -0.21500643688E+01 -0.18102700904E+03  0.18106545400E+03  0.00000000000E+00 0.  1.
        -15    1    1    2    0    0 -0.16414944801E+01  0.44617089307E+01  0.43752562288E+01  0.67008914913E+01  0.17770000000E+01 0. -1.
         15    1    1    2    0    0 -0.38056306363E+01 -0.33335907614E+00  0.15807432668E+02  0.16359297337E+02  0.17770000000E+01 0. -1.
</event>
<event>
 6    1  0.1097339E-002  0.1889366E+03  0.7546771E-02  0.1063444E+00
        -11   -1    0    0    0    0  0.00000000000E+00  0.00000000000E+00  0.18250000000E+03  0.18250000000E+03  0.00000000000E+00 0. -1.
         11   -1    0    0    0    0 -0.00000000000E+00 -0.00000000000E+00 -0.18250000000E+03  0.18250000000E+03  0.00000000000E+00 0.  1.
        -11    1    1    2    0    0 -0.43523840625E+01 -0.19090103866E+01  0.14185355532E+03  0.14193314878E+03  0.00000000000E+00 0. -1.
         11    1    1    2    0    0 -0.15836326531E+01 -0.22979989910E+01 -0.17604132916E+03  0.17606344954E+03  0.00000000000E+00 0.  1.
        -15    1    1    2    0    0  0.32392043944E+01  0.10571364112E+02  0.37499268163E+02  0.39135649044E+02  0.17770000000E+01 0. -1.
         15    1    1    2    0    0  0.26968123213E+01 -0.63643547346E+01 -0.33114943206E+01  0.78677526346E+01  0.17770000000E+01 0.  1.
</event>
<event>
 6    1  0.1097339E-002  0.1835628E+03  0.7546771E-02  0.1067612E+00
        -11   -1    0    0    0    0  0.00000000000E+00  0.00000000000E+00  0.18250000000E+03  0.18250000000E+03  0.00000000000E+00 0. -1.
         11   -1    0    0    0    0 -0.00000000000E+00 -0.00000000000E+00 -0.18250000000E+03  0.18250000000E+03  0.00000000000E+00 0.  1.
        -11    1    1    2    0    0  0.27760238160E+01 -0.61349693967E+01  0.10711776841E+03  0.10732921535E+03  0.00000000000E+00 0. -1.
         11    1    1    2    0    0 -0.63254948397E+01 -0.54551514486E+00 -0.18132604487E+03  0.18143716273E+03  0.00000000000E+00 0.  1.
        -15    1    1    2    0    0  0.67272076889E+01  0.23528521300E+01  0.14462313367E+02  0.16220587947E+02  0.17770000000E+01 0.  1.
         15    1    1    2    0    0 -0.31777366652E+01  0.43276324116E+01  0.59745963091E+02  0.60013033978E+02  0.17770000000E+01 0.  1.
</event>
<event>
 6    1  0.1097339E-002  0.1846313E+03  0.7546771E-02  0.1066771E+00
        -11   -1    0    0    0    0  0.00000000000E+00  0.00000000000E+00  0.18250000000E+03  0.18250000000E+03  0.00000000000E+00 0. -1.
         11   -1    0    0    0    0 -0.00000000000E+00 -0.00000000000E+00 -0.18250000000E+03  0.18250000000E+03  0.00000000000E+00 0. -1.
        -11    1    1    2    0    0 -0.34482034385E+01 -0.70223289903E+01  0.18019893074E+03  0.18036867203E+03  0.00000000000E+00 0. -1.
         11    1    1    2    0    0  0.24082847857E+01  0.88823112218E+00 -0.16627511340E+03  0.16629492513E+03  0.00000000000E+00 0. -1.
        -15    1    1    2    0    0  0.39849540760E+00  0.55638015432E+01 -0.19046513175E+01  0.61563066723E+01  0.17770000000E+01 0.  1.
         15    1    1    2    0    0  0.64142324527E+00  0.57029632493E+00 -0.12019166024E+02  0.12180096165E+02  0.17770000000E+01 0. -1.
</event>
<event>
 6    1  0.1097339E-002  0.1825730E+03  0.7546771E-02  0.1068397E+00
        -11   -1    0    0    0    0  0.00000000000E+00  0.00000000000E+00  0.18250000000E+03  0.18250000000E+03  0.00000000000E+00 0.  1.
         11   -1    0    0    0    0 -0.00000000000E+00 -0.00000000000E+00 -0.18250000000E+03  0.18250000000E+03  0.00000000000E+00 0. -1.
        -11    1    1    2    0    0 -0.10134111967E+01  0.54491058787E+01  0.18234274562E+03  0.18242696248E+03  0.00000000000E+00 0.  1.
         11    1    1    2    0    0  0.64003727977E+00 -0.12436522772E+00 -0.55124349895E+01  0.55508606489E+01  0.00000000000E+00 0. -1.
        -15    1    1    2    0    0  0.24568528188E+01 -0.13287543617E+01 -0.59671858233E+02  0.59763618598E+02  0.17770000000E+01 0. -1.
         15    1    1    2    0    0 -0.20834789019E+01 -0.39959862893E+01 -0.11715845240E+03  0.11725855828E+03  0.17770000000E+01 0.  1.
</event>
<event>
 6    1  0.1097339E-002  0.1751463E+03  0.7546771E-02  0.1074464E+00
        -11   -1    0    0    0    0  0.00000000000E+00  0.00000000000E+00  0.18250000000E+03  0.18250000000E+03  0.00000000000E+00 0. -1.
         11   -1    0    0    0    0 -0.00000000000E+00 -0.00000000000E+00 -0.18250000000E+03  0.18250000000E+03  0.00000000000E+00 0.  1.
        -11    1    1    2    0    0  0.35243139276E+01 -0.28604912212E+00  0.17521126135E+03  0.17524693640E+03  0.00000000000E+00 0. -1.
         11    1    1    2    0    0 -0.24976426615E+01  0.74463733236E+01 -0.17494417983E+03  0.17512039502E+03  0.00000000000E+00 0.  1.
        -15    1    1    2    0    0  0.24969183390E+01 -0.91944578357E+01 -0.19476292248E+01  0.98855270310E+01  0.17770000000E+01 0. -1.
         15    1    1    2    0    0 -0.35235896051E+01  0.20341336342E+01  0.16805477051E+01  0.47471415543E+01  0.17770000000E+01 0.  1.
</event>
<event>
 6    1  0.1097339E-002  0.1848671E+03  0.7546771E-02  0.1066586E+00
        -11   -1    0    0    0    0  0.00000000000E+00  0.00000000000E+00  0.18250000000E+03  0.18250000000E+03  0.00000000000E+00 0. -1.
         11   -1    0    0    0    0 -0.00000000000E+00 -0.00000000000E+00 -0.18250000000E+03  0.18250000000E+03  0.00000000000E+00 0.  1.
        -11    1    1    2    0    0 -0.33141851128E+01  0.14049534616E+01  0.17760288710E+03  0.17763936282E+03  0.00000000000E+00 0. -1.
         11    1    1    2    0    0  0.22092661800E+01 -0.21909297020E+01 -0.18010597832E+03  0.18013285224E+03  0.00000000000E+00 0.  1.
        -15    1    1    2    0    0 -0.96559638942E+00  0.22396853225E+01 -0.32840617648E+00  0.30354812383E+01  0.17770000000E+01 0.  1.
         15    1    1    2    0    0  0.20705153222E+01 -0.14537090821E+01  0.28314973923E+01  0.41923036958E+01  0.17770000000E+01 0. -1.
</event>
<event>
 6    1  0.1097339E-002  0.1187866E+03  0.7546771E-02  0.1134793E+00
        -11   -1    0    0    0    0  0.00000000000E+00  0.00000000000E+00  0.18250000000E+03  0.18250000000E+03  0.00000000000E+00 0.  1.
         11   -1    0    0    0    0 -0.00000000000E+00 -0.00000000000E+00 -0.18250000000E+03  0.18250000000E+03  0.00000000000E+00 0.  1.
        -11    1    1    2    0    0  0.62905706479E+01 -0.22527147943E+00  0.56568649977E+02  0.56917784449E+02  0.00000000000E+00 0.  1.
         11    1    1    2    0    0 -0.19885362474E+01 -0.42360682947E+00 -0.70057139044E+02  0.70086635318E+02  0.00000000000E+00 0.  1.
        -15    1    1    2    0    0  0.49726909445E+00 -0.23481903439E+01 -0.11216372683E+03  0.11220347864E+03  0.17770000000E+01 0.  1.
         15    1    1    2    0    0 -0.47993034950E+01  0.29970686528E+01  0.12565221589E+03  0.12579210159E+03  0.17770000000E+01 0.  1.
</event>
<event>
 6    1  0.1097339E-002  0.1830264E+03  0.7546771E-02  0.1068037E+00
        -11   -1    0    0    0    0  0.00000000000E+00  0.00000000000E+00  0.18250000000E+03  0.18250000000E+03  0.00000000000E+00 0.  1.
         11   -1    0    0    0    0 -0.00000000000E+00 -0.00000000000E+00 -0.18250000000E+03  0.18250000000E+03  0.00000000000E+00 0. -1.
        -11    1    1    2    0    0 -0.16100729265E+01 -0.21313693757E+01  0.18195402936E+03  0.18197363510E+03  0.00000000000E+00 0.  1.
         11    1    1    2    0    0  0.15196310781E+01 -0.34547548588E+01 -0.12632059667E+03  0.12637696686E+03  0.00000000000E+00 0. -1.
        -15    1    1    2    0    0  0.21607603841E+01  0.59699617592E+01 -0.23779846448E+02  0.24676874902E+02  0.17770000000E+01 0.  1.
         15    1    1    2    0    0 -0.20703185357E+01 -0.38383752465E+00 -0.31853586242E+02  0.31972523134E+02  0.17770000000E+01 0. -1.
</event>
<event>
 6    1  0.1097339E-002  0.1757010E+03  0.7546771E-02  0.1073999E+00
        -11   -1    0    0    0    0  0.00000000000E+00  0.00000000000E+00  0.18250000000E+03  0.18250000000E+03  0.00000000000E+00 0.  1.
         11   -1    0    0    0    0 -0.00000000000E+00 -0.00000000000E+00 -0.18250000000E+03  0.18250000000E+03  0.00000000000E+00 0. -1.
        -11    1    1    2    0    0  0.21554103041E+01  0.28421204979E+01  0.17780068695E+03  0.17783646342E+03  0.00000000000E+00 0.  1.
         11    1    1    2    0    0  0.94923217040E+00  0.40650223941E+01 -0.17362188109E+03  0.17367205602E+03  0.00000000000E+00 0. -1.
        -15    1    1    2    0    0 -0.85715052477E+00  0.16423294573E+01  0.13643720307E+01  0.29070935841E+01  0.17770000000E+01 0. -1.
         15    1    1    2    0    0 -0.22474919497E+01 -0.85494723493E+01 -0.55431778929E+01  0.10584386976E+02  0.17770000000E+01 0. -1.
</event>
<event>
 6    1  0.1097339E-002  0.1841211E+03  0.7546771E-02  0.1067172E+00
        -11   -1    0    0    0    0  0.00000000000E+00  0.00000000000E+00  0.18250000000E+03  0.18250000000E+03  0.00000000000E+00 0. -1.
         11   -1    0    0    0    0 -0.00000000000E+00 -0.00000000000E+00 -0.18250000000E+03  0.18250000000E+03  0.00000000000E+00 0. -1.
        -11    1    1    2    0    0 -0.21849415014E+00 -0.34440197321E+01  0.18084596642E+03  0.18087888926E+03  0.00000000000E+00 0. -1.
         11    1    1    2    0    0  0.30508432154E+01  0.25970022319E+01 -0.17394381472E+03  0.17398995013E+03  0.00000000000E+00 0. -1.
        -15    1    1    2    0    0 -0.25226634524E+01 -0.11013509668E+01 -0.65225551794E+00  0.33406542932E+01  0.17770000000E+01 0. -1.
         15    1    1    2    0    0 -0.30968561283E+00  0.19483684671E+01 -0.62498961762E+01  0.67905063195E+01  0.17770000000E+01 0.  1.
</event>
<event>
 6    1  0.2032382E-002  0.1830027E+03  0.7546771E-02  0.1068055E+00
        -11   -1    0    0    0    0  0.00000000000E+00  0.00000000000E+00  0.18250000000E+03  0.18250000000E+03  0.00000000000E+00 0.  1.
         11   -1    0    0    0    0 -0.00000000000E+00 -0.00000000000E+00 -0.18250000000E+03  0.18250000000E+03  0.00000000000E+00 0.  1.
        -11    1    1    2    0    0 -0.51039313892E+01  0.14864387863E+01  0.18191963639E+03  0.18199729042E+03  0.00000000000E+00 0.  1.
         11    1    1    2    0    0 -0.13697366842E+01  0.15127794329E+00 -0.86404838700E+02  0.86415827337E+02  0.00000000000E+00 0.  1.
        -15    1    1    2    0    0  0.13298519979E+01  0.25417481883E+00 -0.80090035824E+02  0.80121187451E+02  0.17770000000E+01 0.  1.
         15    1    1    2    0    0  0.51438160755E+01 -0.18918915484E+01 -0.15424761865E+02  0.16465694793E+02  0.17770000000E+01 0.  1.
</event>
<event>
 6    1  0.1097339E-002  0.1838876E+03  0.7546771E-02  0.1067356E+00
        -11   -1    0    0    0    0  0.00000000000E+00  0.00000000000E+00  0.18250000000E+03  0.18250000000E+03  0.00000000000E+00 0. -1.
         11   -1    0    0    0    0 -0.00000000000E+00 -0.00000000000E+00 -0.18250000000E+03  0.18250000000E+03  0.00000000000E+00 0.  1.
        -11    1    1    2    0    0 -0.24239247153E+01 -0.43159441147E+00  0.18109568807E+03  0.18111242343E+03  0.00000000000E+00 0. -1.
         11    1    1    2    0    0 -0.27884271977E-01  0.22440505581E+01 -0.16383997723E+03  0.16385534682E+03  0.00000000000E+00 0.  1.
        -15    1    1    2    0    0 -0.36538306905E+00 -0.85563152716E+00  0.39515233126E+00  0.20443787473E+01  0.17770000000E+01 0. -1.
         15    1    1    2    0    0  0.28171920563E+01 -0.95682461942E+00 -0.17650863164E+02  0.17987851008E+02  0.17770000000E+01 0. -1.
</event>
<event>
 6    1  0.1097339E-002  0.1833024E+03  0.7546771E-02  0.1067818E+00
        -11   -1    0    0    0    0  0.00000000000E+00  0.00000000000E+00  0.18250000000E+03  0.18250000000E+03  0.00000000000E+00 0. -1.
         11   -1    0    0    0    0 -0.00000000000E+00 -0.00000000000E+00 -0.18250000000E+03  0.18250000000E+03  0.00000000000E+00 0.  1.
        -11    1    1    2    0    0 -0.59344160262E+01 -0.62304101883E+01  0.18149373401E+03  0.18169758058E+03  0.00000000000E+00 0. -1.
         11    1    1    2    0    0  0.48817549183E-01 -0.85282101234E+00 -0.54457206525E+02  0.54463905748E+02  0.00000000000E+00 0.  1.
        -15    1    1    2    0    0  0.80334259924E+01 -0.29606818676E+01 -0.88031951081E+02  0.88465155346E+02  0.17770000000E+01 0. -1.
         15    1    1    2    0    0 -0.21478275154E+01  0.10043913068E+02 -0.39004576404E+02  0.40373358323E+02  0.17770000000E+01 0.  1.
</event>
<event>
 6    1  0.1097339E-002  0.1750260E+03  0.7546771E-02  0.1074565E+00
        -11   -1    0    0    0    0  0.00000000000E+00  0.00000000000E+00  0.18250000000E+03  0.18250000000E+03  0.00000000000E+00 0. -1.
         11   -1    0    0    0    0 -0.00000000000E+00 -0.00000000000E+00 -0.18250000000E+03  0.18250000000E+03  0.00000000000E+00 0.  1.
        -11    1    1    2    0    0  0.28169031125E-01  0.25288548272E+01  0.17322794961E+03  0.17324640956E+03  0.00000000000E+00 0. -1.
         11    1    1    2    0    0 -0.20267338695E+01  0.58279273625E+01 -0.17682175065E+03  0.17692937543E+03  0.00000000000E+00 0.  1.
        -15    1    1    2    0    0 -0.29372346594E+01  0.10113937048E+01  0.29053766930E+00  0.35905996446E+01  0.17770000000E+01 0.  1.
         15    1    1    2    0    0  0.49357994978E+01 -0.93681758944E+01  0.33032633757E+01  0.11233615366E+02  0.17770000000E+01 0. -1.
</event>
<event>
 6    1  0.1097339E-002  0.1848307E+03  0.7546771E-02  0.1066615E+00
        -11   -1    0    0    0    0  0.00000000000E+00  0.00000000000E+00  0.18250000000E+03  0.18250000000E+03  0.00000000000E+00 0.  1.
         11   -1    0    0    0    0 -0.00000000000E+00 -0.00000000000E+00 -0.18250000000E+03  0.18250000000E+03  0.00000000000E+00 0. -1.
        -11    1    1    2    0    0  0.57940598048E+01 -0.20253965845E+01  0.18006471093E+03  0.18016929118E+03  0.00000000000E+00 0.  1.
         11    1    1    2    0    0 -0.14319325413E+01  0.52415017039E+01 -0.14539119167E+03  0.14549268843E+03  0.00000000000E+00 0. -1.
        -15    1    1    2    0    0 -0.50784030309E+01  0.11422329950E+01 -0.13332107581E+01  0.56595100040E+01  0.17770000000E+01 0. -1.
         15    1    1    2    0    0  0.71627576746E+00 -0.43583381144E+01 -0.33340308499E+02  0.33678510387E+02  0.17770000000E+01 0.  1.
</event>
<event>
 6    1  0.1097339E-002  0.1833364E+03  0.7546771E-02  0.1067791E+00
        -11   -1    0    0    0    0  0.00000000000E+00  0.00000000000E+00  0.18250000000E+03  0.18250000000E+03  0.00000000000E+00 0. -1.
         11   -1    0    0    0    0 -0.00000000000E+00 -0.00000000000E+00 -0.18250000000E+03  0.18250000000E+03  0.00000000000E+00 0. -1.
        -11    1    1    2    0    0  0.42880289166E+00 -0.72099675093E+00  0.46050005168E+02  0.46057645230E+02  0.00000000000E+00 0. -1.
         11    1    1    2    0    0 -0.31425331085E+01 -0.38263363619E+01 -0.18159615208E+03  0.18166364197E+03  0.00000000000E+00 0. -1.
        -15    1    1    2    0    0  0.35864262451E+01 -0.72830012378E+01  0.81224645350E+02  0.81648669931E+02  0.17770000000E+01 0. -1.
         15    1    1    2    0    0 -0.87269602827E+00  0.11830334351E+02  0.54321501558E+02  0.55630042870E+02  0.17770000000E+01 0.  1.
</event>
<event>
 6    1  0.1097339E-002  0.1606106E+03  0.7546771E-02  0.1087351E+00
        -11   -1    0    0    0    0  0.00000000000E+00  0.00000000000E+00  0.18250000000E+03  0.18250000000E+03  0.00000000000E+00 0. -1.
         11   -1    0    0    0    0 -0.00000000000E+00 -0.00000000000E+00 -0.18250000000E+03  0.18250000000E+03  0.00000000000E+00 0.  1.
        -11    1    1    2    0    0 -0.12743418314E+02 -0.77283004362E+01  0.15555915987E+03  0.15627147390E+03  0.00000000000E+00 0. -1.
         11    1    1    2    0    0 -0.11258958237E+02 -0.21025989831E+01 -0.16576147367E+03  0.16615670681E+03  0.00000000000E+00 0.  1.
        -15    1    1    2    0    0  0.19510100804E+02  0.10483127022E+02  0.21094947212E+02  0.30638121882E+02  0.17770000000E+01 0. -1.
         15    1    1    2    0    0  0.44922757474E+01 -0.65222760278E+00 -0.10892633406E+02  0.11933697405E+02  0.17770000000E+01 0.  1.
</event>
<event>
 6    1  0.1097339E-002  0.1834135E+03  0.7546771E-02  0.1067730E+00
        -11   -1    0    0    0    0  0.00000000000E+00  0.00000000000E+00  0.18250000000E+03  0.18250000000E+03  0.00000000000E+00 0.  1.
         11   -1    0    0    0    0 -0.00000000000E+00 -0.00000000000E+00 -0.18250000000E+03  0.18250000000E+03  0.00000000000E+00 0.  1.
        -11    1    1    2    0    0 -0.57708573089E+00 -0.46870795905E+01  0.79341978641E+02  0.79482396276E+02  0.00000000000E+00 0.  1.
         11    1    1    2    0    0  0.41311879419E+01 -0.51916787317E+00 -0.18153873424E+03  0.18158647604E+03  0.00000000000E+00 0.  1.
        -15    1    1    2    0    0 -0.42204506432E-01  0.35797421668E+01  0.97535426834E+02  0.97617281010E+02  0.17770000000E+01 0.  1.
         15    1    1    2    0    0 -0.35118977046E+01  0.16265052969E+01  0.46613287685E+01  0.63138466767E+01  0.17770000000E+01 0. -1.
</event>
<event>
 6    1  0.1097339E-002  0.1828404E+03  0.7546771E-02  0.1068184E+00
        -11   -1    0    0    0    0  0.00000000000E+00  0.00000000000E+00  0.18250000000E+03  0.18250000000E+03  0.00000000000E+00 0. -1.
         11   -1    0    0    0    0 -0.00000000000E+00 -0.00000000000E+00 -0.18250000000E+03  0.18250000000E+03  0.00000000000E+00 0. -1.
        -11    1    1    2    0    0  0.33849762766E+01 -0.13807628184E+01  0.18212286278E+03  0.18215955016E+03  0.00000000000E+00 0. -1.
         11    1    1    2    0    0  0.11556977763E+01 -0.47375438189E+00 -0.65386978082E+02  0.65398906591E+02  0.00000000000E+00 0. -1.
        -15    1    1    2    0    0 -0.42367748867E+00  0.11793290291E+01 -0.35373423724E+01  0.41522090064E+01  0.17770000000E+01 0.  1.
         15    1    1    2    0    0 -0.41169965642E+01  0.67518817123E+00 -0.11319854232E+03  0.11328933424E+03  0.17770000000E+01 0. -1.
</event>
<event>
 6    1  0.1097339E-002  0.1829365E+03  0.7546771E-02  0.1068108E+00
        -11   -1    0    0    0    0  0.00000000000E+00  0.00000000000E+00  0.18250000000E+03  0.18250000000E+03  0.00000000000E+00 0. -1.
         11   -1    0    0    0    0 -0.00000000000E+00 -0.00000000000E+00 -0.18250000000E+03  0.18250000000E+03  0.00000000000E+00 0. -1.
        -11    1    1    2    0    0 -0.14226226100E+01 -0.17894183688E+01  0.82447231577E+02  0.82478917717E+02  0.00000000000E+00 0. -1.
         11    1    1    2    0    0  0.55659268136E+01  0.60055485826E+01 -0.18187923388E+03  0.18206345561E+03  0.00000000000E+00 0. -1.
        -15    1    1    2    0    0 -0.38052589596E+00 -0.13977893789E+01  0.87243089162E+02  0.87273208664E+02  0.17770000000E+01 0. -1.
         15    1    1    2    0    0 -0.37627783076E+01 -0.28183408349E+01  0.12188913137E+02  0.13184418004E+02  0.17770000000E+01 0.  1.
</event>
<event>
 6    1  0.1097339E-002  0.1835627E+03  0.7546771E-02  0.1067612E+00
        -11   -1    0    0    0    0  0.00000000000E+00  0.00000000000E+00  0.18250000000E+03  0.18250000000E+03  0.00000000000E+00 0. -1.
         11   -1    0    0    0    0 -0.00000000000E+00 -0.00000000000E+00 -0.18250000000E+03  0.18250000000E+03  0.00000000000E+00 0.  1.
        -11    1    1    2    0    0  0.31572440362E+01 -0.16319555467E+01  0.18140246146E+03  0.18143727427E+03  0.00000000000E+00 0. -1.
         11    1    1    2    0    0 -0.47507494175E+01  0.31727618574E+01 -0.11265960028E+03  0.11280435086E+03  0.00000000000E+00 0.  1.
        -15    1    1    2    0    0  0.70067166814E+00  0.43151631992E+01 -0.59193525298E+02  0.59381333266E+02  0.17770000000E+01 0.  1.
         15    1    1    2    0    0  0.89283371316E+00 -0.58559695099E+01 -0.95493358881E+01  0.11377041612E+02  0.17770000000E+01 0.  1.
</event>
<event>
 6    1  0.1097339E-002  0.1839886E+03  0.7546771E-02  0.1067276E+00
        -11   -1    0    0    0    0  0.00000000000E+00  0.00000000000E+00  0.18250000000E+03  0.18250000000E+03  0.00000000000E+00 0.  1.
         11   -1    0    0    0    0 -0.00000000000E+00 -0.00000000000E+00 -0.18250000000E+03  0.18250000000E+03  0.00000000000E+00 0.  1.
        -11    1    1    2    0    0  0.56518717410E+01  0.10525393479E+01  0.18092011330E+03  0.18101143304E+03  0.00000000000E+00 0.  1.
         11    1    1    2    0    0 -0.15421540491E+01 -0.15924756828E+01 -0.85587225187E+02  0.85615929202E+02  0.00000000000E+00 0.  1.
        -15    1    1    2    0    0  0.29435144949E+01  0.69675346088E+01 -0.10911926086E+02  0.13395472220E+02  0.17770000000E+01 0. -1.
         15    1    1    2    0    0 -0.70532321868E+01 -0.64275982740E+01 -0.84420962031E+02  0.84977165539E+02  0.17770000000E+01 0.  1.
</event>
<event>
 6    1  0.1097339E-002  0.1903668E+03  0.7546771E-02  0.1062360E+00
        -11   -1    0    0    0    0  0.00000000000E+00  0.00000000000E+00  0.18250000000E+03  0.18250000000E+03  0.00000000000E+00 0. -1.
         11   -1    0    0    0    0 -0.00000000000E+00 -0.00000000000E+00 -0.18250000000E+03  0.18250000000E+03  0.00000000000E+00 0. -1.
        -11    1    1    2    0    0  0.24039555063E+01  0.19131123830E+01  0.17460618068E+03  0.17463320799E+03  0.00000000000E+00 0. -1.
         11    1    1    2    0    0 -0.61140920332E+00 -0.28730257306E+01 -0.15403168306E+03  0.15405968805E+03  0.00000000000E+00 0. -1.
        -15    1    1    2    0    0  0.47413708246E+01  0.95050288366E+01 -0.22767385752E+02  0.25186062683E+02  0.17770000000E+01 0.  1.
         15    1    1    2    0    0 -0.65339171276E+01 -0.85451154890E+01  0.21928881328E+01  0.11121041278E+02  0.17770000000E+01 0. -1.
</event>
<event>
 6    1  0.1097339E-002  0.1832800E+03  0.7546771E-02  0.1067836E+00
        -11   -1    0    0    0    0  0.00000000000E+00  0.00000000000E+00  0.18250000000E+03  0.18250000000E+03  0.00000000000E+00 0. -1.
         11   -1    0    0    0    0 -0.00000000000E+00 -0.00000000000E+00 -0.18250000000E+03  0.18250000000E+03  0.00000000000E+00 0.  1.
        -11    1    1    2    0    0 -0.28014373652E+01 -0.12877998455E+00  0.18169835653E+03  0.18171999725E+03  0.00000000000E+00 0. -1.
         11    1    1    2    0    0  0.29864101641E+01  0.18797823117E+01 -0.12001954530E+03  0.12007140993E+03  0.00000000000E+00 0.  1.
        -15    1    1    2    0    0  0.45311304428E+01 -0.37151503145E+01 -0.14768787837E+02  0.15987754943E+02  0.17770000000E+01 0. -1.
         15    1    1    2    0    0 -0.47161032417E+01  0.19641479874E+01 -0.46910023385E+02  0.47220837880E+02  0.17770000000E+01 0.  1.
</event>
<event>
 6    1  0.1097339E-002  0.1891486E+03  0.7546771E-02  0.1063282E+00
        -11   -1    0    0    0    0  0.00000000000E+00  0.00000000000E+00  0.18250000000E+03  0.18250000000E+03  0.00000000000E+00 0.  1.
         11   -1    0    0    0    0 -0.00000000000E+00 -0.00000000000E+00 -0.18250000000E+03  0.18250000000E+03  0.00000000000E+00 0. -1.
        -11    1    1    2    0    0 -0.44767712921E+01 -0.12638036743E+01  0.17578984440E+03  0.17585138064E+03  0.00000000000E+00 0.  1.
         11    1    1    2    0    0  0.39439122471E+01  0.53343302126E+01 -0.16701284221E+03  0.16714454518E+03  0.00000000000E+00 0. -1.
        -15    1    1    2    0    0  0.59663101902E+01 -0.14835418578E+01  0.41549953024E+01  0.76301683267E+01  0.17770000000E+01 0.  1.
         15    1    1    2    0    0 -0.54334511452E+01 -0.25869846805E+01 -0.12931997494E+02  0.14373905846E+02  0.17770000000E+01 0. -1.
</event>
<event>
 6    1  0.1097339E-002  0.1838948E+03  0.7546771E-02  0.1067350E+00
        -11   -1    0    0    0    0  0.00000000000E+00  0.00000000000E+00  0.18250000000E+03  0.18250000000E+03  0.00000000000E+00 0. -1.
         11   -1    0    0    0    0 -0.00000000000E+00 -0.00000000000E+00 -0.18250000000E+03  0.18250000000E+03  0.00000000000E+00 0. -1.
        -11    1    1    2    0    0  0.32868039540E+00  0.15270410779E+01  0.53235504944E+02  0.53258415973E+02  0.00000000000E+00 0. -1.
         11    1    1    2    0    0 -0.42147445502E+01 -0.53689403846E+00 -0.18105534838E+03  0.18110519458E+03  0.00000000000E+00 0. -1.
        -15    1    1    2    0    0  0.14983521762E+02 -0.13831242886E+01  0.86326802224E+02  0.87646411612E+02  0.17770000000E+01 0. -1.
         15    1    1    2    0    0 -0.11097457607E+02  0.39297724920E+00  0.41493041210E+02  0.42989977836E+02  0.17770000000E+01 0.  1.
</event>
<event>
 6    1  0.1097339E-002  0.1861315E+03  0.7546771E-02  0.1065600E+00
        -11   -1    0    0    0    0  0.00000000000E+00  0.00000000000E+00  0.18250000000E+03  0.18250000000E+03  0.00000000000E+00 0.  1.
         11   -1    0    0    0    0 -0.00000000000E+00 -0.00000000000E+00 -0.18250000000E+03  0.18250000000E+03  0.00000000000E+00 0. -1.
        -11    1    1    2    0    0  0.49376972548E+01 -0.81438992500E+01  0.17861474956E+03  0.17886847880E+03  0.00000000000E+00 0.  1.
         11    1    1    2    0    0  0.37635607388E+01  0.46900257576E+00 -0.14083792441E+03  0.14088898220E+03  0.00000000000E+00 0. -1.
        -15    1    1    2    0    0 -0.84118610938E+01  0.61264959330E+01 -0.40369299653E+02  0.41726867159E+02  0.17770000000E+01 0. -1.
         15    1    1    2    0    0 -0.28939689972E+00  0.15484007413E+01  0.25924745085E+01  0.35156718417E+01  0.17770000000E+01 0.  1.
</event>
<event>
 6    1  0.1097339E-002  0.1247289E+03  0.7546771E-02  0.1126831E+00
        -11   -1    0    0    0    0  0.00000000000E+00  0.00000000000E+00  0.18250000000E+03  0.18250000000E+03  0.00000000000E+00 0. -1.
         11   -1    0    0    0    0 -0.00000000000E+00 -0.00000000000E+00 -0.18250000000E+03  0.18250000000E+03  0.00000000000E+00 0.  1.
        -11    1    1    2    0    0  0.16726032086E+01 -0.16707979175E+01  0.13499704163E+03  0.13501774111E+03  0.00000000000E+00 0. -1.
         11    1    1    2    0    0 -0.36555100183E+00  0.15850501034E+02 -0.31356182139E+02  0.35136621478E+02  0.00000000000E+00 0.  1.
        -15    1    1    2    0    0  0.53940242144E+02  0.30501601875E+02 -0.10703172338E+03  0.12368849978E+03  0.17770000000E+01 0.  1.
         15    1    1    2    0    0 -0.55247294350E+02 -0.44681304991E+02  0.33908638911E+01  0.71157137630E+02  0.17770000000E+01 0. -1.
</event>
<event>
 6    1  0.1097339E-002  0.1826785E+03  0.7546771E-02  0.1068313E+00
        -11   -1    0    0    0    0  0.00000000000E+00  0.00000000000E+00  0.18250000000E+03  0.18250000000E+03  0.00000000000E+00 0. -1.
         11   -1    0    0    0    0 -0.00000000000E+00 -0.00000000000E+00 -0.18250000000E+03  0.18250000000E+03  0.00000000000E+00 0.  1.
        -11    1    1    2    0    0 -0.88856782153E+00  0.14663303226E+01  0.93397536118E+02  0.93413272239E+02  0.00000000000E+00 0. -1.
         11    1    1    2    0    0 -0.39548273052E+01  0.27952965449E+00 -0.18227843141E+03  0.18232154386E+03  0.00000000000E+00 0.  1.
        -15    1    1    2    0    0  0.12403514665E+01 -0.16480123918E+01  0.13208764820E+02  0.13486423309E+02  0.17770000000E+01 0.  1.
         15    1    1    2    0    0  0.36030436602E+01 -0.97847585297E-01  0.75672130475E+02  0.75778760595E+02  0.17770000000E+01 0. -1.
</event>
<event>
 6    1  0.1097339E-002  0.1828590E+03  0.7546771E-02  0.1068169E+00
        -11   -1    0    0    0    0  0.00000000000E+00  0.00000000000E+00  0.18250000000E+03  0.18250000000E+03  0.00000000000E+00 0. -1.
         11   -1    0    0    0    0 -0.00000000000E+00 -0.00000000000E+00 -0.18250000000E+03  0.18250000000E+03  0.00000000000E+00 0.  1.
        -11    1    1    2    0    0  0.10199585477E+01  0.47667350955E+01  0.18207580664E+03  0.18214104820E+03  0.00000000000E+00 0. -1.
         11    1    1    2    0    0  0.11160338019E+01 -0.26507848013E+01 -0.10972289712E+03  0.10976058647E+03  0.00000000000E+00 0.  1.
        -15    1    1    2    0    0 -0.39298066109E+01  0.26074891070E+01 -0.37168751094E+02  0.37508881166E+02  0.17770000000E+01 0.  1.
         15    1    1    2    0    0  0.17938142614E+01 -0.47234394012E+01 -0.35184158426E+02  0.35589484157E+02  0.17770000000E+01 0. -1.
</event>
<event>
 6    1  0.1097339E-002  0.1871363E+03  0.7546771E-02  0.1064823E+00
        -11   -1    0    0    0    0  0.00000000000E+00  0.00000000000E+00  0.18250000000E+03  0.18250000000E+03  0.00000000000E+00 0.  1.
         11   -1    0    0    0    0 -0.00000000000E+00 -0.00000000000E+00 -0.18250000000E+03  0.18250000000E+03  0.00000000000E+00 0. -1.
        -11    1    1    2    0    0 -0.40203783982E+01 -0.81791248242E+00  0.17781635085E+03  0.17786367547E+03  0.00000000000E+00 0.  1.
         11    1    1    2    0    0 -0.24201459177E+01  0.94910784760E+00 -0.17368081638E+03  0.17370027026E+03  0.00000000000E+00 0. -1.
        -15    1    1    2    0    0 -0.80738806611E+00 -0.39366146726E+01 -0.17123462012E+01  0.47157893383E+01  0.17770000000E+01 0.  1.
         15    1    1    2    0    0  0.72479123820E+01  0.38054193074E+01 -0.24231882719E+01  0.87202649274E+01  0.17770000000E+01 0. -1.
</event>
<event>
 6    1  0.1097339E-002  0.1826361E+03  0.7546771E-02  0.1068347E+00
        -11   -1    0    0    0    0  0.00000000000E+00  0.00000000000E+00  0.18250000000E+03  0.18250000000E+03  0.00000000000E+00 0. -1.
         11   -1    0    0    0    0 -0.00000000000E+00 -0.00000000000E+00 -0.18250000000E+03  0.18250000000E+03  0.00000000000E+00 0.  1.
        -11    1    1    2    0    0 -0.83529820906E+00  0.60420692153E-01  0.13551299692E+02  0.13577153498E+02  0.00000000000E+00 0. -1.
         11    1    1    2    0    0  0.60452576460E+00  0.43518566058E+01 -0.18231101015E+03  0.18236394525E+03  0.00000000000E+00 0.  1.
        -15    1    1    2    0    0  0.33358329897E+01 -0.85902500027E+00  0.11445188371E+03  0.11451749700E+03  0.17770000000E+01 0. -1.
         15    1    1    2    0    0 -0.31050605453E+01 -0.35532522977E+01  0.54307826745E+02  0.54541404251E+02  0.17770000000E+01 0.  1.
</event>
<event>
 6    1  0.1097339E-002  0.1818477E+03  0.7546771E-02  0.1068975E+00
        -11   -1    0    0    0    0  0.00000000000E+00  0.00000000000E+00  0.18250000000E+03  0.18250000000E+03  0.00000000000E+00 0. -1.
         11   -1    0    0    0    0 -0.00000000000E+00 -0.00000000000E+00 -0.18250000000E+03  0.18250000000E+03  0.00000000000E+00 0.  1.
        -11    1    1    2    0    0 -0.10929426131E+00  0.67374826681E+00  0.12089172019E+01  0.13882949123E+01  0.00000000000E+00 0. -1.
         11    1    1    2    0    0  0.20466608166E+01 -0.42278984336E+01 -0.18231412130E+03  0.18237462205E+03  0.00000000000E+00 0.  1.
        -15    1    1    2    0    0 -0.11050066363E+01  0.36678044958E+01  0.78851867178E+02  0.78964856208E+02  0.17770000000E+01 0.  1.
         15    1    1    2    0    0 -0.83235991906E+00 -0.11365432909E+00  0.10225333692E+03  0.10227222683E+03  0.17770000000E+01 0. -1.
</event>
<event>
 6    1  0.1097339E-002  0.1845521E+03  0.7546771E-02  0.1066833E+00
        -11   -1    0    0    0    0  0.00000000000E+00  0.00000000000E+00  0.18250000000E+03  0.18250000000E+03  0.00000000000E+00 0. -1.
         11   -1    0    0    0    0 -0.00000000000E+00 -0.00000000000E+00 -0.18250000000E+03  0.18250000000E+03  0.00000000000E+00 0. -1.
        -11    1    1    2    0    0  0.43847892260E+01 -0.92219133688E+00  0.12270026983E+03  0.12278205499E+03  0.00000000000E+00 0. -1.
         11    1    1    2    0    0 -0.19117879360E+01 -0.18890265159E+01 -0.18042791014E+03  0.18044792632E+03  0.00000000000E+00 0. -1.
        -15    1    1    2    0    0 -0.88673797943E+01  0.38906382302E+01  0.52040359608E+02  0.52963423675E+02  0.17770000000E+01 0. -1.
         15    1    1    2    0    0  0.63943785042E+01 -0.10794203774E+01  0.56872807105E+01  0.88065950109E+01  0.17770000000E+01 0.  1.
</event>
<event>
 6    1  0.1097339E-002  0.1826588E+03  0.7546771E-02  0.1068328E+00
        -11   -1    0    0    0    0  0.00000000000E+00  0.00000000000E+00  0.18250000000E+03  0.18250000000E+03  0.00000000000E+00 0. -1.
         11   -1    0    0    0    0 -0.00000000000E+00 -0.00000000000E+00 -0.18250000000E+03  0.18250000000E+03  0.00000000000E+00 0.  1.
        -11    1    1    2    0    0  0.15065739695E+01  0.37033729584E+00  0.67338695486E+02  0.67356564822E+02  0.00000000000E+00 0. -1.
         11    1    1    2    0    0  0.34324444511E+01  0.20999511541E+01 -0.18229675506E+03  0.18234115930E+03  0.00000000000E+00 0.  1.
        -15    1    1    2    0    0 -0.61066298997E-01  0.12638897755E+01  0.44894933538E+02  0.44947902430E+02  0.17770000000E+01 0.  1.
         15    1    1    2    0    0 -0.48779521217E+01 -0.37341782254E+01  0.70063126037E+02  0.70354373446E+02  0.17770000000E+01 0. -1.
</event>
<event>
 6    1  0.1097339E-002  0.1842087E+03  0.7546771E-02  0.1067103E+00
        -11   -1    0    0    0    0  0.00000000000E+00  0.00000000000E+00  0.18250000000E+03  0.18250000000E+03  0.00000000000E+00 0.  1.
         11   -1    0    0    0    0 -0.00000000000E+00 -0.00000000000E+00 -0.18250000000E+03  0.18250000000E+03  0.00000000000E+00 0. -1.
        -11    1    1    2    0    0  0.74632686634E+00 -0.11734118823E+01  0.21595640147E+02  0.21640369050E+02  0.00000000000E+00 0.  1.
         11    1    1    2    0    0 -0.22896335300E+01 -0.25121684558E+01 -0.18075937089E+03  0.18079132605E+03  0.00000000000E+00 0. -1.
        -15    1    1    2    0    0  0.47503252503E+00  0.48552524608E+01  0.22867755981E+01  0.56732886401E+01  0.17770000000E+01 0.  1.
         15    1    1    2    0    0  0.10682741386E+01 -0.11696721227E+01  0.15687695514E+03  0.15689501626E+03  0.17770000000E+01 0.  1.
</event>
<event>
 6    1  0.1097339E-002  0.1828725E+03  0.7546771E-02  0.1068159E+00
        -11   -1    0    0    0    0  0.00000000000E+00  0.00000000000E+00  0.18250000000E+03  0.18250000000E+03  0.00000000000E+00 0.  1.
         11   -1    0    0    0    0 -0.00000000000E+00 -0.00000000000E+00 -0.18250000000E+03  0.18250000000E+03  0.00000000000E+00 0.  1.
        -11    1    1    2    0    0  0.30423814402E+00  0.44989503021E+00  0.26597856694E+02  0.26603401044E+02  0.00000000000E+00 0.  1.
         11    1    1    2    0    0  0.94092415695E+01 -0.69509150198E+00 -0.18188299374E+03  0.18212753880E+03  0.00000000000E+00 0.  1.
        -15    1    1    2    0    0  0.84504424162E+00 -0.51275774849E+01  0.44229533016E+02  0.44569221112E+02  0.17770000000E+01 0.  1.
         15    1    1    2    0    0 -0.10558523955E+02  0.53727739566E+01  0.11105560403E+03  0.11169983904E+03  0.17770000000E+01 0.  1.
</event>
<event>
 6    1  0.1097339E-002  0.1830106E+03  0.7546771E-02  0.1068049E+00
        -11   -1    0    0    0    0  0.00000000000E+00  0.00000000000E+00  0.18250000000E+03  0.18250000000E+03  0.00000000000E+00 0. -1.
         11   -1    0    0    0    0 -0.00000000000E+00 -0.00000000000E+00 -0.18250000000E+03  0.18250000000E+03  0.00000000000E+00 0.  1.
        -11    1    1    2    0    0 -0.22263100195E+01 -0.87264562315E+01  0.18176639961E+03  0.18198937201E+03  0.00000000000E+00 0. -1.
         11    1    1    2    0    0  0.36909713628E+01  0.35368328241E+01 -0.89991241156E+02  0.90136318656E+02  0.00000000000E+00 0.  1.
        -15    1    1    2    0    0 -0.21454727883E+01  0.84854718948E+01 -0.41237061283E+02  0.42193118385E+02  0.17770000000E+01 0. -1.
         15    1    1    2    0    0  0.68081144492E+00 -0.32958484873E+01 -0.50538097174E+02  0.50681190953E+02  0.17770000000E+01 0.  1.
</event>
<event>
 6    1  0.1097339E-002  0.1833280E+03  0.7546771E-02  0.1067798E+00
        -11   -1    0    0    0    0  0.00000000000E+00  0.00000000000E+00  0.18250000000E+03  0.18250000000E+03  0.00000000000E+00 0.  1.
         11   -1    0    0    0    0 -0.00000000000E+00 -0.00000000000E+00 -0.18250000000E+03  0.18250000000E+03  0.00000000000E+00 0.  1.
        -11    1    1    2    0    0  0.48242122876E+01 -0.48496617435E+01  0.13720632140E+03  0.13737673338E+03  0.00000000000E+00 0.  1.
         11    1    1    2    0    0 -0.52984606043E+01 -0.13173406988E+01 -0.18158998894E+03  0.18167204836E+03  0.00000000000E+00 0.  1.
        -15    1    1    2    0    0 -0.37053773493E+00  0.46480132816E+00  0.95031994835E+00  0.21009939295E+01  0.17770000000E+01 0.  1.
         15    1    1    2    0    0  0.84478605157E+00  0.57022011142E+01  0.43433347595E+02  0.43850224324E+02  0.17770000000E+01 0.  1.
</event>
<event>
 6    1  0.1097339E-002  0.1720745E+03  0.7546771E-02  0.1077070E+00
        -11   -1    0    0    0    0  0.00000000000E+00  0.00000000000E+00  0.18250000000E+03  0.18250000000E+03  0.00000000000E+00 0. -1.
         11   -1    0    0    0    0 -0.00000000000E+00 -0.00000000000E+00 -0.18250000000E+03  0.18250000000E+03  0.00000000000E+00 0.  1.
        -11    1    1    2    0    0 -0.23953576206E+01  0.67794427839E+01  0.17217176603E+03  0.17232183727E+03  0.00000000000E+00 0. -1.
         11    1    1    2    0    0  0.24821546993E+01 -0.89662206814E+00 -0.17185726961E+03  0.17187753239E+03  0.00000000000E+00 0.  1.
        -15    1    1    2    0    0 -0.19298978263E+01  0.16399836063E+01  0.84329897578E+01  0.89825996851E+01  0.17770000000E+01 0. -1.
         15    1    1    2    0    0  0.18431007476E+01 -0.75228043221E+01 -0.87474861698E+01  0.11818030653E+02  0.17770000000E+01 0.  1.
</event>
<event>
 6    1  0.1097339E-002  0.1829320E+03  0.7546771E-02  0.1068111E+00
        -11   -1    0    0    0    0  0.00000000000E+00  0.00000000000E+00  0.18250000000E+03  0.18250000000E+03  0.00000000000E+00 0.  1.
         11   -1    0    0    0    0 -0.00000000000E+00 -0.00000000000E+00 -0.18250000000E+03  0.18250000000E+03  0.00000000000E+00 0.  1.
        -11    1    1    2    0    0 -0.21687599957E+01 -0.21599681479E+01  0.14858904910E+03  0.14862057224E+03  0.00000000000E+00 0.  1.
         11    1    1    2    0    0  0.31111848431E+01  0.19091210423E+01 -0.18203137248E+03  0.18206796747E+03  0.00000000000E+00 0.  1.
        -15    1    1    2    0    0  0.19937963951E+01  0.19121787676E+01  0.22162425964E+02  0.22404519752E+02  0.17770000000E+01 0.  1.
         15    1    1    2    0    0 -0.29362212426E+01 -0.16613316620E+01  0.11279897416E+02  0.11906940530E+02  0.17770000000E+01 0. -1.
</event>
<event>
 6    1  0.1097339E-002  0.1907738E+03  0.7546771E-02  0.1062053E+00
        -11   -1    0    0    0    0  0.00000000000E+00  0.00000000000E+00  0.18250000000E+03  0.18250000000E+03  0.00000000000E+00 0. -1.
         11   -1    0    0    0    0 -0.00000000000E+00 -0.00000000000E+00 -0.18250000000E+03  0.18250000000E+03  0.00000000000E+00 0.  1.
        -11    1    1    2    0    0 -0.12871378662E+01  0.11729417606E+01  0.10011470798E+03  0.10012985204E+03  0.00000000000E+00 0. -1.
         11    1    1    2    0    0 -0.89054112132E+00 -0.24822576379E+01 -0.17420628709E+03  0.17422624695E+03  0.00000000000E+00 0.  1.
        -15    1    1    2    0    0  0.41224481180E+01 -0.75995011093E+01  0.79436880943E+02  0.79925732893E+02  0.17770000000E+01 0. -1.
         15    1    1    2    0    0 -0.19447691305E+01  0.89088169866E+01 -0.53453018341E+01  0.10718168116E+02  0.17770000000E+01 0.  1.
</event>
<event>
 6    1  0.1097339E-002  0.1835974E+03  0.7546771E-02  0.1067585E+00
        -11   -1    0    0    0    0  0.00000000000E+00  0.00000000000E+00  0.18250000000E+03  0.18250000000E+03  0.00000000000E+00 0.  1.
         11   -1    0    0    0    0 -0.00000000000E+00 -0.00000000000E+00 -0.18250000000E+03  0.18250000000E+03  0.00000000000E+00 0.  1.
        -11    1    1    2    0    0 -0.23260332644E+01  0.29980134811E+01  0.18136293805E+03  0.18140262901E+03  0.00000000000E+00 0.  1.
         11    1    1    2    0    0  0.28239915010E+01  0.84039962388E+00 -0.12080027105E+03  0.12083619774E+03  0.00000000000E+00 0.  1.
        -15    1    1    2    0    0  0.23341400269E+01  0.10888811423E+01 -0.53200154232E+02  0.53292100832E+02  0.17770000000E+01 0.  1.
         15    1    1    2    0    0 -0.28320982636E+01 -0.49272942473E+01 -0.73625127645E+01  0.94690724140E+01  0.17770000000E+01 0. -1.
</event>
<event>
 6    1  0.1097339E-002  0.1913579E+03  0.7546771E-02  0.1061615E+00
        -11   -1    0    0    0    0  0.00000000000E+00  0.00000000000E+00  0.18250000000E+03  0.18250000000E+03  0.00000000000E+00 0. -1.
         11   -1    0    0    0    0 -0.00000000000E+00 -0.00000000000E+00 -0.18250000000E+03  0.18250000000E+03  0.00000000000E+00 0. -1.
        -11    1    1    2    0    0  0.83924235076E+01  0.82451883092E+01  0.17324307074E+03  0.17364209589E+03  0.00000000000E+00 0. -1.
         11    1    1    2    0    0 -0.25423787157E+01 -0.10321995342E+01 -0.14114600768E+03  0.14117267657E+03  0.00000000000E+00 0. -1.
        -15    1    1    2    0    0 -0.11153752456E+02 -0.18731815451E+02 -0.30126034130E+02  0.37229326684E+02  0.17770000000E+01 0.  1.
         15    1    1    2    0    0  0.53037076641E+01  0.11518826676E+02 -0.19710289302E+01  0.12955900858E+02  0.17770000000E+01 0. -1.
</event>
<event>
 6    1  0.1097339E-002  0.1723754E+03  0.7546771E-02  0.1076812E+00
        -11   -1    0    0    0    0  0.00000000000E+00  0.00000000000E+00  0.18250000000E+03  0.18250000000E+03  0.00000000000E+00 0.  1.
         11   -1    0    0    0    0 -0.00000000000E+00 -0.00000000000E+00 -0.18250000000E+03  0.18250000000E+03  0.00000000000E+00 0.  1.
        -11    1    1    2    0    0 -0.22807721585E+01 -0.13068246593E+02  0.17368942128E+03  0.17419528138E+03  0.00000000000E+00 0.  1.
         11    1    1    2    0    0 -0.53774660076E+01 -0.77478196049E+00 -0.17084374620E+03  0.17093011157E+03  0.00000000000E+00 0.  1.
        -15    1    1    2    0    0 -0.19265403659E+01  0.15160698332E+00 -0.14758572850E+01  0.30117148245E+01  0.17770000000E+01 0. -1.
         15    1    1    2    0    0  0.95847785320E+01  0.13691421570E+02 -0.13698178007E+01  0.16862892217E+02  0.17770000000E+01 0. -1.
</event>
<event>
 6    1  0.1097339E-002  0.1839165E+03  0.7546771E-02  0.1067333E+00
        -11   -1    0    0    0    0  0.00000000000E+00  0.00000000000E+00  0.18250000000E+03  0.18250000000E+03  0.00000000000E+00 0.  1.
         11   -1    0    0    0    0 -0.00000000000E+00 -0.00000000000E+00 -0.18250000000E+03  0.18250000000E+03  0.00000000000E+00 0. -1.
        -11    1    1    2    0    0  0.11923497175E+01  0.49333265537E+01  0.16419704755E+03  0.16427546936E+03  0.00000000000E+00 0.  1.
         11    1    1    2    0    0  0.33763958793E+01 -0.33654073742E+01 -0.18102072851E+03  0.18108348949E+03  0.00000000000E+00 0. -1.
        -15    1    1    2    0    0 -0.39461151082E+01 -0.42604624298E+01  0.14173709160E+02  0.15419958655E+02  0.17770000000E+01 0.  1.
         15    1    1    2    0    0 -0.62263048862E+00  0.26925432503E+01  0.26499718025E+01  0.42210824955E+01  0.17770000000E+01 0. -1.
</event>
<event>
 6    1  0.1097339E-002  0.1875779E+03  0.7546771E-02  0.1064483E+00
        -11   -1    0    0    0    0  0.00000000000E+00  0.00000000000E+00  0.18250000000E+03  0.18250000000E+03  0.00000000000E+00 0. -1.
         11   -1    0    0    0    0 -0.00000000000E+00 -0.00000000000E+00 -0.18250000000E+03  0.18250000000E+03  0.00000000000E+00 0. -1.
        -11    1    1    2    0    0  0.17137893943E+01 -0.28254472817E+01  0.17274655727E+03  0.17277816203E+03  0.00000000000E+00 0. -1.
         11    1    1    2    0    0 -0.18313391916E+01  0.23398304257E+01 -0.17739726553E+03  0.17742214751E+03  0.00000000000E+00 0. -1.
        -15    1    1    2    0    0  0.35041248522E-01  0.40095902286E+01  0.83231794174E+01  0.94080330732E+01  0.17770000000E+01 0. -1.
         15    1    1    2    0    0  0.82508548782E-01 -0.35239733727E+01 -0.36724711593E+01  0.53916573897E+01  0.17770000000E+01 0.  1.
</event>
<event>
 6    1  0.1097339E-002  0.1757748E+03  0.7546771E-02  0.1073938E+00
        -11   -1    0    0    0    0  0.00000000000E+00  0.00000000000E+00  0.18250000000E+03  0.18250000000E+03  0.00000000000E+00 0.  1.
         11   -1    0    0    0    0 -0.00000000000E+00 -0.00000000000E+00 -0.18250000000E+03  0.18250000000E+03  0.00000000000E+00 0. -1.
        -11    1    1    2    0    0  0.96291661198E+00  0.69059017218E+01  0.17608704320E+03  0.17622504212E+03  0.00000000000E+00 0.  1.
         11    1    1    2    0    0 -0.15193877440E+01  0.30377583649E+01 -0.17543342278E+03  0.17546629973E+03  0.00000000000E+00 0. -1.
        -15    1    1    2    0    0  0.19477671670E+01 -0.81957983585E+01 -0.34850149878E+01  0.92880550243E+01  0.17770000000E+01 0. -1.
         15    1    1    2    0    0 -0.13912960349E+01 -0.17478617282E+01  0.28313945600E+01  0.40206031180E+01  0.17770000000E+01 0.  1.
</event>
<event>
 6    1  0.1097339E-002  0.1834341E+03  0.7546771E-02  0.1067714E+00
        -11   -1    0    0    0    0  0.00000000000E+00  0.00000000000E+00  0.18250000000E+03  0.18250000000E+03  0.00000000000E+00 0. -1.
         11   -1    0    0    0    0 -0.00000000000E+00 -0.00000000000E+00 -0.18250000000E+03  0.18250000000E+03  0.00000000000E+00 0. -1.
        -11    1    1    2    0    0  0.20918907814E+01 -0.75254715897E-01  0.12343387485E+03  0.12345162264E+03  0.00000000000E+00 0. -1.
         11    1    1    2    0    0 -0.38847632244E+01  0.18335260274E+01 -0.18151512586E+03  0.18156594978E+03  0.00000000000E+00 0. -1.
        -15    1    1    2    0    0 -0.81159769806E+00  0.85272150113E+00  0.54504912374E+02  0.54546576672E+02  0.17770000000E+01 0.  1.
         15    1    1    2    0    0  0.26044701411E+01 -0.26109928126E+01  0.35763386301E+01  0.54358509159E+01  0.17770000000E+01 0.  1.
</event>
<event>
 6    1  0.1097339E-002  0.1836637E+03  0.7546771E-02  0.1067532E+00
        -11   -1    0    0    0    0  0.00000000000E+00  0.00000000000E+00  0.18250000000E+03  0.18250000000E+03  0.00000000000E+00 0. -1.
         11   -1    0    0    0    0 -0.00000000000E+00 -0.00000000000E+00 -0.18250000000E+03  0.18250000000E+03  0.00000000000E+00 0. -1.
        -11    1    1    2    0    0  0.46688654853E+00 -0.25893220685E+01  0.12824990412E+03  0.12827688989E+03  0.00000000000E+00 0. -1.
         11    1    1    2    0    0  0.42474566705E+01 -0.58105279956E+01 -0.18119337006E+03  0.18133626355E+03  0.00000000000E+00 0. -1.
        -15    1    1    2    0    0 -0.25169605018E+01  0.28736835572E+01  0.45501990419E+02  0.45696630165E+02  0.17770000000E+01 0.  1.
         15    1    1    2    0    0 -0.21973827172E+01  0.55261665069E+01  0.74414755170E+01  0.96902164030E+01  0.17770000000E+01 0. -1.
</event>
<event>
 6    1  0.1097339E-002  0.1949508E+03  0.7546771E-02  0.1058954E+00
        -11   -1    0    0    0    0  0.00000000000E+00  0.00000000000E+00  0.18250000000E+03  0.18250000000E+03  0.00000000000E+00 0. -1.
         11   -1    0    0    0    0 -0.00000000000E+00 -0.00000000000E+00 -0.18250000000E+03  0.18250000000E+03  0.00000000000E+00 0.  1.
        -11    1    1    2    0    0  0.22387281175E+01  0.53700171715E+01  0.16609376395E+03  0.16619562994E+03  0.00000000000E+00 0. -1.
         11    1    1    2    0    0 -0.14391037540E+00 -0.52545442659E+01 -0.16996792572E+03  0.17004918912E+03  0.00000000000E+00 0.  1.
        -15    1    1    2    0    0  0.28889246617E+01  0.15970433851E+01 -0.11664060114E+02  0.12251712558E+02  0.17770000000E+01 0.  1.
         15    1    1    2    0    0 -0.49837424038E+01 -0.17125162907E+01  0.15538221880E+02  0.16503468381E+02  0.17770000000E+01 0.  1.
</event>
<event>
 6    1  0.1097339E-002  0.1913736E+03  0.7546771E-02  0.1061603E+00
        -11   -1    0    0    0    0  0.00000000000E+00  0.00000000000E+00  0.18250000000E+03  0.18250000000E+03  0.00000000000E+00 0. -1.
         11   -1    0    0    0    0 -0.00000000000E+00 -0.00000000000E+00 -0.18250000000E+03  0.18250000000E+03  0.00000000000E+00 0. -1.
        -11    1    1    2    0    0  0.50241165413E+01 -0.12170380702E+01  0.10085984860E+03  0.10099223727E+03  0.00000000000E+00 0. -1.
         11    1    1    2    0    0  0.12329803510E+02 -0.15043849712E+01 -0.17318151854E+03  0.17362639659E+03  0.00000000000E+00 0. -1.
        -15    1    1    2    0    0  0.13210130656E+00  0.46033584274E+01 -0.73049147109E+01  0.88163409360E+01  0.17770000000E+01 0.  1.
         15    1    1    2    0    0 -0.17486021358E+02 -0.18819353859E+01  0.79626584657E+02  0.81565025206E+02  0.17770000000E+01 0. -1.
</event>
<event>
 6    1  0.1097339E-002  0.1900095E+03  0.7546771E-02  0.1062630E+00
        -11   -1    0    0    0    0  0.00000000000E+00  0.00000000000E+00  0.18250000000E+03  0.18250000000E+03  0.00000000000E+00 0.  1.
         11   -1    0    0    0    0 -0.00000000000E+00 -0.00000000000E+00 -0.18250000000E+03  0.18250000000E+03  0.00000000000E+00 0.  1.
        -11    1    1    2    0    0 -0.21715029666E+02 -0.18313708040E+02  0.17266944663E+03  0.17499049178E+03  0.00000000000E+00 0.  1.
         11    1    1    2    0    0 -0.23385273792E+01 -0.28399243643E+01 -0.10578305962E+03  0.10584701027E+03  0.00000000000E+00 0.  1.
        -15    1    1    2    0    0  0.23477353130E+02  0.19375466186E+02 -0.18412056587E+02  0.35619606352E+02  0.17770000000E+01 0. -1.
         15    1    1    2    0    0  0.57620391477E+00  0.17781662182E+01 -0.48474330421E+02  0.48542891599E+02  0.17770000000E+01 0.  1.
</event>
<event>
 6    1  0.1097339E-002  0.1843294E+03  0.7546771E-02  0.1067008E+00
        -11   -1    0    0    0    0  0.00000000000E+00  0.00000000000E+00  0.18250000000E+03  0.18250000000E+03  0.00000000000E+00 0. -1.
         11   -1    0    0    0    0 -0.00000000000E+00 -0.00000000000E+00 -0.18250000000E+03  0.18250000000E+03  0.00000000000E+00 0. -1.
        -11    1    1    2    0    0 -0.28193120036E+01 -0.11454057430E+02  0.10794439129E+03  0.10858699537E+03  0.00000000000E+00 0. -1.
         11    1    1    2    0    0 -0.78364095719E+01  0.42151336197E+01 -0.18045137085E+03  0.18067062270E+03  0.00000000000E+00 0. -1.
        -15    1    1    2    0    0  0.32358763350E+01 -0.94472754139E+00  0.19067543080E+01  0.42610851639E+01  0.17770000000E+01 0. -1.
         15    1    1    2    0    0  0.74198452406E+01  0.81836513520E+01  0.70600225248E+02  0.71481296763E+02  0.17770000000E+01 0.  1.
</event>
<event>
 6    1  0.1097339E-002  0.1669963E+03  0.7546771E-02  0.1081512E+00
        -11   -1    0    0    0    0  0.00000000000E+00  0.00000000000E+00  0.18250000000E+03  0.18250000000E+03  0.00000000000E+00 0. -1.
         11   -1    0    0    0    0 -0.00000000000E+00 -0.00000000000E+00 -0.18250000000E+03  0.18250000000E+03  0.00000000000E+00 0. -1.
        -11    1    1    2    0    0  0.43387154638E+01  0.35742500030E+01  0.16775255662E+03  0.16784671569E+03  0.00000000000E+00 0. -1.
         11    1    1    2    0    0  0.19113821358E+01  0.31062222253E+01 -0.16623461777E+03  0.16627462267E+03  0.00000000000E+00 0. -1.
        -15    1    1    2    0    0 -0.99369302609E+01 -0.40788275601E+01  0.12186407600E+02  0.16341532256E+02  0.17770000000E+01 0. -1.
         15    1    1    2    0    0  0.36868326612E+01 -0.26016446682E+01 -0.13704346453E+02  0.14537129385E+02  0.17770000000E+01 0.  1.
</event>
<event>
 6    1  0.1097339E-002  0.1854997E+03  0.7546771E-02  0.1066092E+00
        -11   -1    0    0    0    0  0.00000000000E+00  0.00000000000E+00  0.18250000000E+03  0.18250000000E+03  0.00000000000E+00 0. -1.
         11   -1    0    0    0    0 -0.00000000000E+00 -0.00000000000E+00 -0.18250000000E+03  0.18250000000E+03  0.00000000000E+00 0.  1.
        -11    1    1    2    0    0 -0.18728941440E+01  0.22123789789E+01  0.17947692015E+03  0.17950032652E+03  0.00000000000E+00 0. -1.
         11    1    1    2    0    0  0.64852601116E+01  0.20899633103E+01 -0.12321521549E+03  0.12340346784E+03  0.00000000000E+00 0.  1.
        -15    1    1    2    0    0 -0.13097734110E+02 -0.28028804902E+01 -0.48555291411E+02  0.50400206655E+02  0.17770000000E+01 0.  1.
         15    1    1    2    0    0  0.84853681423E+01 -0.14994617989E+01 -0.77064132494E+01  0.11695998990E+02  0.17770000000E+01 0.  1.
</event>
<event>
 6    1  0.1097339E-002  0.1892128E+03  0.7546771E-02  0.1063234E+00
        -11   -1    0    0    0    0  0.00000000000E+00  0.00000000000E+00  0.18250000000E+03  0.18250000000E+03  0.00000000000E+00 0.  1.
         11   -1    0    0    0    0 -0.00000000000E+00 -0.00000000000E+00 -0.18250000000E+03  0.18250000000E+03  0.00000000000E+00 0.  1.
        -11    1    1    2    0    0 -0.23209057630E+01 -0.62649407464E+01  0.17566017794E+03  0.17578718441E+03  0.00000000000E+00 0.  1.
         11    1    1    2    0    0  0.17821946412E+02  0.41609681325E+01 -0.12959219790E+03  0.13087808520E+03  0.00000000000E+00 0.  1.
        -15    1    1    2    0    0 -0.17917552645E+02 -0.79167802310E+01 -0.43233479682E+02  0.47497427261E+02  0.17770000000E+01 0. -1.
         15    1    1    2    0    0  0.24165119966E+01  0.10020752845E+02 -0.28345003618E+01  0.10837303129E+02  0.17770000000E+01 0.  1.
</event>
<event>
 6    1  0.1097339E-002  0.1756577E+03  0.7546771E-02  0.1074036E+00
        -11   -1    0    0    0    0  0.00000000000E+00  0.00000000000E+00  0.18250000000E+03  0.18250000000E+03  0.00000000000E+00 0. -1.
         11   -1    0    0    0    0 -0.00000000000E+00 -0.00000000000E+00 -0.18250000000E+03  0.18250000000E+03  0.00000000000E+00 0.  1.
        -11    1    1    2    0    0 -0.40851299777E+01 -0.46206959964E+01  0.17738990569E+03  0.17749709225E+03  0.00000000000E+00 0. -1.
         11    1    1    2    0    0  0.23901765832E+01 -0.22830728308E+01 -0.17387645104E+03  0.17390786524E+03  0.00000000000E+00 0.  1.
        -15    1    1    2    0    0  0.29286188324E+01  0.38592373006E+01  0.30855919844E+01  0.60124144653E+01  0.17770000000E+01 0. -1.
         15    1    1    2    0    0 -0.12336654379E+01  0.30445315266E+01 -0.65990466272E+01  0.75826280415E+01  0.17770000000E+01 0. -1.
</event>
<event>
 6    1  0.1097339E-002  0.1845457E+03  0.7546771E-02  0.1066838E+00
        -11   -1    0    0    0    0  0.00000000000E+00  0.00000000000E+00  0.18250000000E+03  0.18250000000E+03  0.00000000000E+00 0.  1.
         11   -1    0    0    0    0 -0.00000000000E+00 -0.00000000000E+00 -0.18250000000E+03  0.18250000000E+03  0.00000000000E+00 0.  1.
        -11    1    1    2    0    0  0.30559602953E-01 -0.52776069144E+01  0.18037712116E+03  0.18045431529E+03  0.00000000000E+00 0.  1.
         11    1    1    2    0    0  0.29329970714E+01 -0.11386737231E+01 -0.16129897072E+03  0.16132965321E+03  0.00000000000E+00 0.  1.
        -15    1    1    2    0    0 -0.15759528096E+01  0.68937806551E+01 -0.19548371734E+02  0.20863949900E+02  0.17770000000E+01 0.  1.
         15    1    1    2    0    0 -0.13876038648E+01 -0.47750001757E+00  0.47022129467E+00  0.23520815926E+01  0.17770000000E+01 0.  1.
</event>
<event>
 6    1  0.1097339E-002  0.1878831E+03  0.7546771E-02  0.1064249E+00
        -11   -1    0    0    0    0  0.00000000000E+00  0.00000000000E+00  0.18250000000E+03  0.18250000000E+03  0.00000000000E+00 0.  1.
         11   -1    0    0    0    0 -0.00000000000E+00 -0.00000000000E+00 -0.18250000000E+03  0.18250000000E+03  0.00000000000E+00 0. -1.
        -11    1    1    2    0    0  0.25855553728E+01 -0.45233640758E+01  0.12430511716E+03  0.12441425992E+03  0.00000000000E+00 0.  1.
         11    1    1    2    0    0  0.76512311080E+01  0.66236864507E+01 -0.17682756165E+03  0.17711691370E+03  0.00000000000E+00 0. -1.
        -15    1    1    2    0    0 -0.38669976780E+01  0.29706627039E+01  0.54627580050E+02  0.54873570497E+02  0.17770000000E+01 0. -1.
         15    1    1    2    0    0 -0.63697888028E+01 -0.50709850788E+01 -0.21051355606E+01  0.85952558886E+01  0.17770000000E+01 0.  1.
</event>
<event>
 6    1  0.1097339E-002  0.1840789E+03  0.7546771E-02  0.1067205E+00
        -11   -1    0    0    0    0  0.00000000000E+00  0.00000000000E+00  0.18250000000E+03  0.18250000000E+03  0.00000000000E+00 0. -1.
         11   -1    0    0    0    0 -0.00000000000E+00 -0.00000000000E+00 -0.18250000000E+03  0.18250000000E+03  0.00000000000E+00 0. -1.
        -11    1    1    2    0    0 -0.26319870671E+01  0.39159067574E+00  0.18090149139E+03  0.18092106093E+03  0.00000000000E+00 0. -1.
         11    1    1    2    0    0 -0.70423381748E+01  0.67378958525E+01 -0.12220433836E+03  0.12259238999E+03  0.00000000000E+00 0. -1.
        -15    1    1    2    0    0  0.52259890228E+01  0.35612404903E+01 -0.19546561263E+02  0.20620843370E+02  0.17770000000E+01 0. -1.
         15    1    1    2    0    0  0.44483362191E+01 -0.10690727019E+02 -0.39150591765E+02  0.40865705718E+02  0.17770000000E+01 0.  1.
</event>
<event>
 6    1  0.1097339E-002  0.1828064E+03  0.7546771E-02  0.1068211E+00
        -11   -1    0    0    0    0  0.00000000000E+00  0.00000000000E+00  0.18250000000E+03  0.18250000000E+03  0.00000000000E+00 0. -1.
         11   -1    0    0    0    0 -0.00000000000E+00 -0.00000000000E+00 -0.18250000000E+03  0.18250000000E+03  0.00000000000E+00 0.  1.
        -11    1    1    2    0    0  0.13771011565E+01  0.76292484905E+00  0.94190293571E+02  0.94203449326E+02  0.00000000000E+00 0. -1.
         11    1    1    2    0    0  0.26687003799E+01 -0.33160650401E+00 -0.18217374769E+03  0.18219359559E+03  0.00000000000E+00 0.  1.
        -15    1    1    2    0    0 -0.49432547871E+01  0.73120223730E+00  0.24045273999E+02  0.24623227963E+02  0.17770000000E+01 0. -1.
         15    1    1    2    0    0  0.89745325066E+00 -0.11625205823E+01  0.63938180123E+02  0.63979727124E+02  0.17770000000E+01 0. -1.
</event>
<event>
 6    1  0.1097339E-002  0.1828036E+03  0.7546771E-02  0.1068213E+00
        -11   -1    0    0    0    0  0.00000000000E+00  0.00000000000E+00  0.18250000000E+03  0.18250000000E+03  0.00000000000E+00 0. -1.
         11   -1    0    0    0    0 -0.00000000000E+00 -0.00000000000E+00 -0.18250000000E+03  0.18250000000E+03  0.00000000000E+00 0.  1.
        -11    1    1    2    0    0 -0.30742035401E+01  0.76575365832E-01  0.12547974591E+03  0.12551742200E+03  0.00000000000E+00 0. -1.
         11    1    1    2    0    0 -0.32689428441E+01 -0.11141880101E+01 -0.18216370022E+03  0.18219643542E+03  0.00000000000E+00 0.  1.
        -15    1    1    2    0    0  0.15251752556E+01 -0.56853770524E+00  0.96891529766E+01  0.99843281740E+01  0.17770000000E+01 0. -1.
         15    1    1    2    0    0  0.48179711286E+01  0.16061503495E+01  0.46994801331E+02  0.47301814404E+02  0.17770000000E+01 0.  1.
</event>
<event>
 6    1  0.1097339E-002  0.1829128E+03  0.7546771E-02  0.1068127E+00
        -11   -1    0    0    0    0  0.00000000000E+00  0.00000000000E+00  0.18250000000E+03  0.18250000000E+03  0.00000000000E+00 0.  1.
         11   -1    0    0    0    0 -0.00000000000E+00 -0.00000000000E+00 -0.18250000000E+03  0.18250000000E+03  0.00000000000E+00 0. -1.
        -11    1    1    2    0    0  0.26629864461E+01 -0.49226801707E+01  0.18200116089E+03  0.18208719571E+03  0.00000000000E+00 0.  1.
         11    1    1    2    0    0  0.24850844340E+01 -0.29563321279E+00 -0.10545796905E+03  0.10548765937E+03  0.00000000000E+00 0. -1.
        -15    1    1    2    0    0 -0.26290451743E+01  0.55317962532E+01 -0.25406829871E+02  0.26194987716E+02  0.17770000000E+01 0.  1.
         15    1    1    2    0    0 -0.25190257058E+01 -0.31348286971E+00 -0.51136361970E+02  0.51230157199E+02  0.17770000000E+01 0.  1.
</event>
