<event>
 8    1  0.3345745E-006  0.1926111E+03  0.7546771E-02  0.1060680E+00
        -11   -1    0    0    0    0  0.00000000000E+00  0.00000000000E+00  0.18250000000E+03  0.18250000000E+03  0.00000000000E+00 0.  1.
         11   -1    0    0    0    0 -0.00000000000E+00 -0.00000000000E+00 -0.18250000000E+03  0.18250000000E+03  0.00000000000E+00 0. -1.
         25    2    1    2    0    0 -0.14010274589E+02  0.72237305856E+02  0.12672267268E+03  0.19261114983E+03  0.12500361241E+03 0.  0.
         23    2    1    2    0    0  0.14010274589E+02 -0.72237305856E+02 -0.12672267268E+03  0.17238885017E+03  0.90800681398E+02 0.  0.
        -11    1    4    4    0    0 -0.11570078159E+02 -0.82238451790E+02 -0.67186293266E+02  0.10682241181E+03  0.00000000000E+00 0.  1.
         11    1    4    4    0    0  0.25580352748E+02  0.10001145935E+02 -0.59536379410E+02  0.65566438366E+02  0.00000000000E+00 0. -1.
        -15    1    3    3    0    0  0.12214123584E+02  0.10037880771E+03  0.11320202948E+03  0.15179903511E+03  0.17770000000E+01 0.  1.
         15    1    3    3    0    0 -0.26224398174E+02 -0.28141501858E+02  0.13520643201E+02  0.40812114720E+02  0.17770000000E+01 0.  1.
</event>
<event>
 8    1  0.3345745E-006  0.1926162E+03  0.7546771E-02  0.1060676E+00
        -11   -1    0    0    0    0  0.00000000000E+00  0.00000000000E+00  0.18250000000E+03  0.18250000000E+03  0.00000000000E+00 0. -1.
         11   -1    0    0    0    0 -0.00000000000E+00 -0.00000000000E+00 -0.18250000000E+03  0.18250000000E+03  0.00000000000E+00 0.  1.
         25    2    1    2    0    0  0.14568681416E+03 -0.15737583523E+02 -0.15549195368E+01  0.19261619194E+03  0.12500504097E+03 0.  0.
         23    2    1    2    0    0 -0.14568681416E+03  0.15737583523E+02  0.15549195368E+01  0.17238380806E+03  0.90782377984E+02 0.  0.
        -11    1    4    4    0    0 -0.58235454582E+02  0.32535277255E+02 -0.35926883335E+02  0.75767099605E+02  0.00000000000E+00 0. -1.
         11    1    4    4    0    0 -0.87451359577E+02 -0.16797693732E+02  0.37481802872E+02  0.96616708457E+02  0.00000000000E+00 0.  1.
        -15    1    3    3    0    0  0.10863262989E+03 -0.22714258033E+02 -0.57594712688E+02  0.12504916814E+03  0.17770000000E+01 0.  1.
         15    1    3    3    0    0  0.37054184273E+02  0.69766745103E+01  0.56039793152E+02  0.67567023797E+02  0.17770000000E+01 0.  1.
</event>
<event>
 8    1  0.3345745E-006  0.1928896E+03  0.7546771E-02  0.1060473E+00
        -11   -1    0    0    0    0  0.00000000000E+00  0.00000000000E+00  0.18250000000E+03  0.18250000000E+03  0.00000000000E+00 0.  1.
         11   -1    0    0    0    0 -0.00000000000E+00 -0.00000000000E+00 -0.18250000000E+03  0.18250000000E+03  0.00000000000E+00 0. -1.
         25    2    1    2    0    0 -0.20488866466E+02 -0.13654447120E+03 -0.50196978062E+02  0.19288961134E+03  0.12498991676E+03 0.  0.
         23    2    1    2    0    0  0.20488866466E+02  0.13654447120E+03  0.50196978062E+02  0.17211038866E+03  0.89655245339E+02 0.  0.
        -11    1    4    4    0    0 -0.30047486093E+02  0.50341934624E+02 -0.33885640034E+01  0.58725157881E+02  0.00000000000E+00 0.  1.
         11    1    4    4    0    0  0.50536352560E+02  0.86202536572E+02  0.53585542065E+02  0.11338523078E+03  0.00000000000E+00 0. -1.
        -15    1    3    3    0    0 -0.36645891484E+02 -0.15632960998E+03 -0.41586893165E+02  0.16587494004E+03  0.17770000000E+01 0.  1.
         15    1    3    3    0    0  0.16157025018E+02  0.19785138789E+02 -0.86100848968E+01  0.27014671297E+02  0.17770000000E+01 0.  1.
</event>
<event>
 8    1  0.3345745E-006  0.1932584E+03  0.7546771E-02  0.1060200E+00
        -11   -1    0    0    0    0  0.00000000000E+00  0.00000000000E+00  0.18250000000E+03  0.18250000000E+03  0.00000000000E+00 0. -1.
         11   -1    0    0    0    0 -0.00000000000E+00 -0.00000000000E+00 -0.18250000000E+03  0.18250000000E+03  0.00000000000E+00 0.  1.
         25    2    1    2    0    0 -0.26052356503E+02 -0.14505508410E+03 -0.17977279909E+01  0.19325837134E+03  0.12500345421E+03 0.  0.
         23    2    1    2    0    0  0.26052356503E+02  0.14505508410E+03  0.17977279909E+01  0.17174162866E+03  0.88160379356E+02 0.  0.
        -11    1    4    4    0    0 -0.13117435695E+02  0.12774550108E+03  0.69710905033E+01  0.12860628394E+03  0.00000000000E+00 0. -1.
         11    1    4    4    0    0  0.39169792197E+02  0.17309583018E+02 -0.51733625125E+01  0.43135344727E+02  0.00000000000E+00 0.  1.
        -15    1    3    3    0    0  0.20121154068E+02 -0.13892818839E+03  0.19990927694E+02  0.14180513845E+03  0.17770000000E+01 0.  1.
         15    1    3    3    0    0 -0.46173510571E+02 -0.61268957058E+01 -0.21788655685E+02  0.51453232891E+02  0.17770000000E+01 0.  1.
</event>
<event>
 8    1  0.3345745E-006  0.1924050E+03  0.7546771E-02  0.1060833E+00
        -11   -1    0    0    0    0  0.00000000000E+00  0.00000000000E+00  0.18250000000E+03  0.18250000000E+03  0.00000000000E+00 0.  1.
         11   -1    0    0    0    0 -0.00000000000E+00 -0.00000000000E+00 -0.18250000000E+03  0.18250000000E+03  0.00000000000E+00 0. -1.
         25    2    1    2    0    0 -0.15164295957E+02  0.72888043797E+02  0.12589511228E+03  0.19240504415E+03  0.12500999527E+03 0.  0.
         23    2    1    2    0    0  0.15164295957E+02 -0.72888043797E+02 -0.12589511228E+03  0.17259495585E+03  0.91634145862E+02 0.  0.
        -11    1    4    4    0    0  0.38083113349E+02 -0.66096942458E+02 -0.12756421175E+03  0.14863296217E+03  0.00000000000E+00 0. -1.
         11    1    4    4    0    0 -0.22918817391E+02 -0.67911013395E+01  0.16690994675E+01  0.23961993678E+02  0.00000000000E+00 0.  1.
        -15    1    3    3    0    0 -0.69476138525E+01 -0.35692984031E+02  0.27391288716E+02  0.45559838386E+02  0.17770000000E+01 0.  1.
         15    1    3    3    0    0 -0.82166821049E+01  0.10858102783E+03  0.98503823568E+02  0.14684520576E+03  0.17770000000E+01 0.  1.
</event>
<event>
 8    1  0.3345745E-006  0.1927020E+03  0.7546771E-02  0.1060612E+00
        -11   -1    0    0    0    0  0.00000000000E+00  0.00000000000E+00  0.18250000000E+03  0.18250000000E+03  0.00000000000E+00 0. -1.
         11   -1    0    0    0    0 -0.00000000000E+00 -0.00000000000E+00 -0.18250000000E+03  0.18250000000E+03  0.00000000000E+00 0.  1.
         25    2    1    2    0    0 -0.42959708724E+02 -0.11908188510E+03 -0.74060041314E+02  0.19270203019E+03  0.12499260292E+03 0.  0.
         23    2    1    2    0    0  0.42959708724E+02  0.11908188510E+03  0.74060041314E+02  0.17229796981E+03  0.90419404721E+02 0.  0.
        -11    1    4    4    0    0  0.14307731025E+02  0.53062700063E+02  0.83240373924E+02  0.99746283921E+02  0.00000000000E+00 0. -1.
         11    1    4    4    0    0  0.28651977700E+02  0.66019185037E+02 -0.91803326107E+01  0.72551685892E+02  0.00000000000E+00 0.  1.
        -15    1    3    3    0    0 -0.13247914886E+02  0.19008885532E+02  0.13137730175E+02  0.26694618580E+02  0.17770000000E+01 0.  1.
         15    1    3    3    0    0 -0.29711793839E+02 -0.13809077063E+03 -0.87197771488E+02  0.16600741161E+03  0.17770000000E+01 0.  1.
</event>
<event>
 8    1  0.3345745E-006  0.1926633E+03  0.7546771E-02  0.1060641E+00
        -11   -1    0    0    0    0  0.00000000000E+00  0.00000000000E+00  0.18250000000E+03  0.18250000000E+03  0.00000000000E+00 0.  1.
         11   -1    0    0    0    0 -0.00000000000E+00 -0.00000000000E+00 -0.18250000000E+03  0.18250000000E+03  0.00000000000E+00 0. -1.
         25    2    1    2    0    0  0.12615760057E+03 -0.55686030062E+02 -0.49774077368E+02  0.19266326567E+03  0.12500000414E+03 0.  0.
         23    2    1    2    0    0 -0.12615760057E+03  0.55686030062E+02  0.49774077368E+02  0.17233673433E+03  0.90585965233E+02 0.  0.
        -11    1    4    4    0    0 -0.77716998143E+02  0.19322807809E+01  0.61380812103E+02  0.99051853106E+02  0.00000000000E+00 0.  1.
         11    1    4    4    0    0 -0.48440602426E+02  0.53753749281E+02 -0.11606734735E+02  0.73284881226E+02  0.00000000000E+00 0. -1.
        -15    1    3    3    0    0  0.65450068520E+02 -0.85906384973E+02 -0.60780022037E+02  0.12393944996E+03  0.17770000000E+01 0. -1.
         15    1    3    3    0    0  0.60707532049E+02  0.30220354911E+02  0.11005944669E+02  0.68723815708E+02  0.17770000000E+01 0. -1.
</event>
<event>
 8    1  0.3345745E-006  0.1925484E+03  0.7546771E-02  0.1060726E+00
        -11   -1    0    0    0    0  0.00000000000E+00  0.00000000000E+00  0.18250000000E+03  0.18250000000E+03  0.00000000000E+00 0. -1.
         11   -1    0    0    0    0 -0.00000000000E+00 -0.00000000000E+00 -0.18250000000E+03  0.18250000000E+03  0.00000000000E+00 0.  1.
         25    2    1    2    0    0 -0.11934030979E+03 -0.38032253862E+02 -0.75902907791E+02  0.19254838682E+03  0.12500027192E+03 0.  0.
         23    2    1    2    0    0  0.11934030979E+03  0.38032253862E+02  0.75902907791E+02  0.17245161318E+03  0.91048040091E+02 0.  0.
        -11    1    4    4    0    0  0.10542255819E+03  0.11132158878E+02  0.89984807293E+02  0.13905073276E+03  0.00000000000E+00 0. -1.
         11    1    4    4    0    0  0.13917751596E+02  0.26900094984E+02 -0.14081899502E+02  0.33400880426E+02  0.00000000000E+00 0.  1.
        -15    1    3    3    0    0 -0.12597063593E+03  0.11089170411E+02 -0.63029613236E+02  0.14130626558E+03  0.17770000000E+01 0.  1.
         15    1    3    3    0    0  0.66303261464E+01 -0.49121424273E+02 -0.12873294555E+02  0.51242121239E+02  0.17770000000E+01 0.  1.
</event>
<event>
 8    1  0.3345745E-006  0.1924624E+03  0.7546771E-02  0.1060790E+00
        -11   -1    0    0    0    0  0.00000000000E+00  0.00000000000E+00  0.18250000000E+03  0.18250000000E+03  0.00000000000E+00 0.  1.
         11   -1    0    0    0    0 -0.00000000000E+00 -0.00000000000E+00 -0.18250000000E+03  0.18250000000E+03  0.00000000000E+00 0. -1.
         25    2    1    2    0    0  0.13216617909E+03  0.59017634320E+02  0.21590062021E+02  0.19246240098E+03  0.12499865981E+03 0.  0.
         23    2    1    2    0    0 -0.13216617909E+03 -0.59017634320E+02 -0.21590062021E+02  0.17253759902E+03  0.91389891356E+02 0.  0.
        -11    1    4    4    0    0 -0.10541682074E+03 -0.12716400951E+02 -0.43505498002E+02  0.11474816471E+03  0.00000000000E+00 0. -1.
         11    1    4    4    0    0 -0.26749358347E+02 -0.46301233369E+02  0.21915435980E+02  0.57789434308E+02  0.00000000000E+00 0.  1.
        -15    1    3    3    0    0  0.75791851123E+02  0.95777463079E+02  0.26384134199E+02  0.12496802550E+03  0.17770000000E+01 0.  1.
         15    1    3    3    0    0  0.56374327969E+02 -0.36759828759E+02 -0.47940721780E+01  0.67494375479E+02  0.17770000000E+01 0.  1.
</event>
<event>
 8    1  0.3345745E-006  0.1925585E+03  0.7546771E-02  0.1060719E+00
        -11   -1    0    0    0    0  0.00000000000E+00  0.00000000000E+00  0.18250000000E+03  0.18250000000E+03  0.00000000000E+00 0. -1.
         11   -1    0    0    0    0 -0.00000000000E+00 -0.00000000000E+00 -0.18250000000E+03  0.18250000000E+03  0.00000000000E+00 0.  1.
         25    2    1    2    0    0  0.10744345765E+03 -0.89358864810E+02  0.43867169327E+02  0.19255852898E+03  0.12500142089E+03 0.  0.
         23    2    1    2    0    0 -0.10744345765E+03  0.89358864810E+02 -0.43867169327E+02  0.17244147102E+03  0.91008950509E+02 0.  0.
        -11    1    4    4    0    0 -0.38588247680E+02 -0.24023404254E+01  0.17384726287E+02  0.42391659635E+02  0.00000000000E+00 0.  1.
         11    1    4    4    0    0 -0.68855209968E+02  0.91761205236E+02 -0.61251895614E+02  0.13004981139E+03  0.00000000000E+00 0. -1.
        -15    1    3    3    0    0  0.99615666426E+02 -0.39648250250E+02  0.77236313038E+02  0.13215093842E+03  0.17770000000E+01 0. -1.
         15    1    3    3    0    0  0.78277912214E+01 -0.49710614561E+02 -0.33369143711E+02  0.60407590553E+02  0.17770000000E+01 0. -1.
</event>
<event>
 8    1  0.3345745E-006  0.1929469E+03  0.7546771E-02  0.1060430E+00
        -11   -1    0    0    0    0  0.00000000000E+00  0.00000000000E+00  0.18250000000E+03  0.18250000000E+03  0.00000000000E+00 0.  1.
         11   -1    0    0    0    0 -0.00000000000E+00 -0.00000000000E+00 -0.18250000000E+03  0.18250000000E+03  0.00000000000E+00 0. -1.
         25    2    1    2    0    0  0.73975454600E+01  0.14630290228E+03  0.12012245219E+02  0.19294691721E+03  0.12499982372E+03 0.  0.
         23    2    1    2    0    0 -0.73975454600E+01 -0.14630290228E+03 -0.12012245219E+02  0.17205308279E+03  0.89435487194E+02 0.  0.
        -11    1    4    4    0    0 -0.40073681008E+02 -0.40935000065E+02 -0.21819338764E+02  0.61299736410E+02  0.00000000000E+00 0. -1.
         11    1    4    4    0    0  0.32676135548E+02 -0.10536790221E+03  0.98070935452E+01  0.11075334638E+03  0.00000000000E+00 0.  1.
        -15    1    3    3    0    0 -0.17873031143E+02  0.87901955747E+02 -0.51146250969E+02  0.10327291893E+03  0.17770000000E+01 0. -1.
         15    1    3    3    0    0  0.25270576603E+02  0.58400946532E+02  0.63158496188E+02  0.89673998279E+02  0.17770000000E+01 0. -1.
</event>
<event>
 8    1  0.3345745E-006  0.1921446E+03  0.7546771E-02  0.1061027E+00
        -11   -1    0    0    0    0  0.00000000000E+00  0.00000000000E+00  0.18250000000E+03  0.18250000000E+03  0.00000000000E+00 0. -1.
         11   -1    0    0    0    0 -0.00000000000E+00 -0.00000000000E+00 -0.18250000000E+03  0.18250000000E+03  0.00000000000E+00 0.  1.
         25    2    1    2    0    0 -0.32232234316E+02  0.14190598934E+03  0.10852858312E+02  0.19214462100E+03  0.12500217641E+03 0.  0.
         23    2    1    2    0    0  0.32232234316E+02 -0.14190598934E+03 -0.10852858312E+02  0.17285537900E+03  0.92655117370E+02 0.  0.
        -11    1    4    4    0    0  0.40019643772E+02 -0.55398700588E+02 -0.42423699283E+02  0.80438536631E+02  0.00000000000E+00 0.  1.
         11    1    4    4    0    0 -0.77874094555E+01 -0.86507288754E+02  0.31570840970E+02  0.92416842367E+02  0.00000000000E+00 0. -1.
        -15    1    3    3    0    0  0.36374923093E+01 -0.21256161804E+02 -0.98949287114E+01  0.23793341677E+02  0.17770000000E+01 0.  1.
         15    1    3    3    0    0 -0.35869726625E+02  0.16316215115E+03  0.20747787024E+02  0.16835127932E+03  0.17770000000E+01 0.  1.
</event>
<event>
 8    1  0.3345745E-006  0.1921331E+03  0.7546771E-02  0.1061035E+00
        -11   -1    0    0    0    0  0.00000000000E+00  0.00000000000E+00  0.18250000000E+03  0.18250000000E+03  0.00000000000E+00 0.  1.
         11   -1    0    0    0    0 -0.00000000000E+00 -0.00000000000E+00 -0.18250000000E+03  0.18250000000E+03  0.00000000000E+00 0. -1.
         25    2    1    2    0    0 -0.60958102130E+02 -0.93042544960E+02 -0.94428417439E+02  0.19213309293E+03  0.12500237594E+03 0.  0.
         23    2    1    2    0    0  0.60958102130E+02  0.93042544960E+02  0.94428417439E+02  0.17286690707E+03  0.92700788304E+02 0.  0.
        -11    1    4    4    0    0  0.87652415159E+01  0.43114326122E+02  0.90386561717E+02  0.10052564407E+03  0.00000000000E+00 0.  1.
         11    1    4    4    0    0  0.52192860615E+02  0.49928218838E+02  0.40418557217E+01  0.72341263005E+02  0.00000000000E+00 0. -1.
        -15    1    3    3    0    0 -0.73430667581E+02 -0.10959459181E+02 -0.77580927615E+02  0.10739707047E+03  0.17770000000E+01 0.  1.
         15    1    3    3    0    0  0.12472565450E+02 -0.82083085779E+02 -0.16847489824E+02  0.84736022459E+02  0.17770000000E+01 0.  1.
</event>
<event>
 8    1  0.3345745E-006  0.1932466E+03  0.7546771E-02  0.1060208E+00
        -11   -1    0    0    0    0  0.00000000000E+00  0.00000000000E+00  0.18250000000E+03  0.18250000000E+03  0.00000000000E+00 0.  1.
         11   -1    0    0    0    0 -0.00000000000E+00 -0.00000000000E+00 -0.18250000000E+03  0.18250000000E+03  0.00000000000E+00 0. -1.
         25    2    1    2    0    0  0.20572295479E+02  0.95332351183E+02 -0.11049039008E+03  0.19324658931E+03  0.12499856582E+03 0.  0.
         23    2    1    2    0    0 -0.20572295479E+02 -0.95332351183E+02  0.11049039008E+03  0.17175341069E+03  0.88202217992E+02 0.  0.
        -11    1    4    4    0    0 -0.44037792678E+02 -0.85412482449E+02  0.11028224638E+03  0.14627642738E+03  0.00000000000E+00 0.  1.
         11    1    4    4    0    0  0.23465497199E+02 -0.99198687332E+01  0.20814370658E+00  0.25476983304E+02  0.00000000000E+00 0. -1.
        -15    1    3    3    0    0  0.72006903397E+02  0.63019411974E+02 -0.52081958814E+02  0.10895929784E+03  0.17770000000E+01 0.  1.
         15    1    3    3    0    0 -0.51434607918E+02  0.32312939209E+02 -0.58408431269E+02  0.84287291475E+02  0.17770000000E+01 0.  1.
</event>
<event>
 8    1  0.3345745E-006  0.1894023E+03  0.7546771E-02  0.1063090E+00
        -11   -1    0    0    0    0  0.00000000000E+00  0.00000000000E+00  0.18250000000E+03  0.18250000000E+03  0.00000000000E+00 0.  1.
         11   -1    0    0    0    0 -0.00000000000E+00 -0.00000000000E+00 -0.18250000000E+03  0.18250000000E+03  0.00000000000E+00 0. -1.
         25    2    1    2    0    0 -0.64676458414E+02 -0.49366628565E+02  0.11673803854E+03  0.18940228610E+03  0.12500139219E+03 0.  0.
         23    2    1    2    0    0  0.64676458414E+02  0.49366628565E+02 -0.11673803854E+03  0.17559771390E+03  0.10289158952E+03 0.  0.
        -11    1    4    4    0    0  0.58259665655E+02  0.55649873512E+01 -0.91212815928E+01  0.59231372636E+02  0.00000000000E+00 0.  1.
         11    1    4    4    0    0  0.64167927590E+01  0.43801641214E+02 -0.10761675695E+03  0.11636634126E+03  0.00000000000E+00 0. -1.
        -15    1    3    3    0    0 -0.24694098672E+02 -0.14094038876E+02  0.13109694162E+03  0.13415664826E+03  0.17770000000E+01 0.  1.
         15    1    3    3    0    0 -0.39982359741E+02 -0.35272589690E+02 -0.14358903077E+02  0.55245637841E+02  0.17770000000E+01 0.  1.
</event>
<event>
 8    1  0.3345745E-006  0.1924592E+03  0.7546771E-02  0.1060793E+00
        -11   -1    0    0    0    0  0.00000000000E+00  0.00000000000E+00  0.18250000000E+03  0.18250000000E+03  0.00000000000E+00 0. -1.
         11   -1    0    0    0    0 -0.00000000000E+00 -0.00000000000E+00 -0.18250000000E+03  0.18250000000E+03  0.00000000000E+00 0.  1.
         25    2    1    2    0    0 -0.59090371561E+02  0.12507164108E+03 -0.47693149397E+02  0.19245921732E+03  0.12502530311E+03 0.  0.
         23    2    1    2    0    0  0.59090371561E+02 -0.12507164108E+03  0.47693149397E+02  0.17254078268E+03  0.91439038585E+02 0.  0.
        -11    1    4    4    0    0  0.79595545888E+02 -0.68472173157E+02  0.23064185527E+02  0.10749812127E+03  0.00000000000E+00 0.  1.
         11    1    4    4    0    0 -0.20505174327E+02 -0.56599467919E+02  0.24628963870E+02  0.65042661417E+02  0.00000000000E+00 0. -1.
        -15    1    3    3    0    0 -0.95076393546E+02  0.71887208185E+02 -0.14310379638E+02  0.12006346657E+03  0.17770000000E+01 0.  1.
         15    1    3    3    0    0  0.35986021985E+02  0.53184432891E+02 -0.33382769759E+02  0.72395750746E+02  0.17770000000E+01 0.  1.
</event>
<event>
 8    1  0.3345745E-006  0.1922925E+03  0.7546771E-02  0.1060917E+00
        -11   -1    0    0    0    0  0.00000000000E+00  0.00000000000E+00  0.18250000000E+03  0.18250000000E+03  0.00000000000E+00 0. -1.
         11   -1    0    0    0    0 -0.00000000000E+00 -0.00000000000E+00 -0.18250000000E+03  0.18250000000E+03  0.00000000000E+00 0.  1.
         25    2    1    2    0    0 -0.74987976878E+02 -0.12480604558E+03 -0.12309023367E+02  0.19229250205E+03  0.12500059439E+03 0.  0.
         23    2    1    2    0    0  0.74987976878E+02  0.12480604558E+03  0.12309023367E+02  0.17270749795E+03  0.92068572827E+02 0.  0.
        -11    1    4    4    0    0  0.89416150368E+02  0.64688324246E+02  0.10431305952E+02  0.11085413562E+03  0.00000000000E+00 0.  1.
         11    1    4    4    0    0 -0.14428173490E+02  0.60117721337E+02  0.18777174143E+01  0.61853362331E+02  0.00000000000E+00 0. -1.
        -15    1    3    3    0    0 -0.99686050987E+02 -0.13251606885E+03 -0.82211794430E+01  0.16603783541E+03  0.17770000000E+01 0.  1.
         15    1    3    3    0    0  0.24698074109E+02  0.77100232710E+01 -0.40878439236E+01  0.26254666642E+02  0.17770000000E+01 0.  1.
</event>
<event>
 8    1  0.3345745E-006  0.1924254E+03  0.7546771E-02  0.1060818E+00
        -11   -1    0    0    0    0  0.00000000000E+00  0.00000000000E+00  0.18250000000E+03  0.18250000000E+03  0.00000000000E+00 0.  1.
         11   -1    0    0    0    0 -0.00000000000E+00 -0.00000000000E+00 -0.18250000000E+03  0.18250000000E+03  0.00000000000E+00 0. -1.
         25    2    1    2    0    0  0.11057569245E+03  0.91127615423E+02 -0.29450425018E+02  0.19242544812E+03  0.12501599697E+03 0.  0.
         23    2    1    2    0    0 -0.11057569245E+03 -0.91127615423E+02  0.29450425018E+02  0.17257455188E+03  0.91561030839E+02 0.  0.
        -11    1    4    4    0    0 -0.97668197249E+01 -0.65097552149E+02  0.85050926652E+01  0.66373327961E+02  0.00000000000E+00 0. -1.
         11    1    4    4    0    0 -0.10080887272E+03 -0.26030063274E+02  0.20945332353E+02  0.10620122391E+03  0.00000000000E+00 0.  1.
        -15    1    3    3    0    0 -0.20130200665E+02  0.48072114479E+02 -0.13587249672E+02  0.53888071519E+02  0.17770000000E+01 0.  1.
         15    1    3    3    0    0  0.13070589311E+03  0.43055500943E+02 -0.15863175347E+02  0.13853737661E+03  0.17770000000E+01 0.  1.
</event>
<event>
 8    1  0.3345745E-006  0.1929794E+03  0.7546771E-02  0.1060406E+00
        -11   -1    0    0    0    0  0.00000000000E+00  0.00000000000E+00  0.18250000000E+03  0.18250000000E+03  0.00000000000E+00 0.  1.
         11   -1    0    0    0    0 -0.00000000000E+00 -0.00000000000E+00 -0.18250000000E+03  0.18250000000E+03  0.00000000000E+00 0. -1.
         25    2    1    2    0    0 -0.11980481472E+03 -0.85045234873E+02 -0.52634471982E+01  0.19297935050E+03  0.12500976058E+03 0.  0.
         23    2    1    2    0    0  0.11980481472E+03  0.85045234873E+02  0.52634471982E+01  0.17202064950E+03  0.89316932169E+02 0.  0.
        -11    1    4    4    0    0  0.30514780753E+02  0.62608864315E+02 -0.26659956622E+02  0.74577309031E+02  0.00000000000E+00 0. -1.
         11    1    4    4    0    0  0.89290033966E+02  0.22436370557E+02  0.31923403820E+02  0.97443340465E+02  0.00000000000E+00 0.  1.
        -15    1    3    3    0    0 -0.85350657791E+02 -0.11423536789E+03  0.15108181635E+02  0.14340805049E+03  0.17770000000E+01 0.  1.
         15    1    3    3    0    0 -0.34454156928E+02  0.29190133019E+02 -0.20371628833E+02  0.49571300019E+02  0.17770000000E+01 0.  1.
</event>
<event>
 8    1  0.3345745E-006  0.1928723E+03  0.7546771E-02  0.1060486E+00
        -11   -1    0    0    0    0  0.00000000000E+00  0.00000000000E+00  0.18250000000E+03  0.18250000000E+03  0.00000000000E+00 0.  1.
         11   -1    0    0    0    0 -0.00000000000E+00 -0.00000000000E+00 -0.18250000000E+03  0.18250000000E+03  0.00000000000E+00 0. -1.
         25    2    1    2    0    0 -0.13861025058E+03 -0.31545822235E+02  0.36977917630E+02  0.19287228655E+03  0.12499764822E+03 0.  0.
         23    2    1    2    0    0  0.13861025058E+03  0.31545822235E+02 -0.36977917630E+02  0.17212771345E+03  0.89736519212E+02 0.  0.
        -11    1    4    4    0    0  0.11300354143E+03  0.55911278630E+02 -0.48297241818E+02  0.13501294390E+03  0.00000000000E+00 0.  1.
         11    1    4    4    0    0  0.25606709150E+02 -0.24365456395E+02  0.11319324188E+02  0.37114769552E+02  0.00000000000E+00 0. -1.
        -15    1    3    3    0    0 -0.12079296677E+02 -0.42617053697E+02  0.48034632186E+02  0.65365176449E+02  0.17770000000E+01 0.  1.
         15    1    3    3    0    0 -0.12653095390E+03  0.11071231462E+02 -0.11056714555E+02  0.12750711010E+03  0.17770000000E+01 0.  1.
</event>
<event>
 8    1  0.3345745E-006  0.1920171E+03  0.7546771E-02  0.1061122E+00
        -11   -1    0    0    0    0  0.00000000000E+00  0.00000000000E+00  0.18250000000E+03  0.18250000000E+03  0.00000000000E+00 0. -1.
         11   -1    0    0    0    0 -0.00000000000E+00 -0.00000000000E+00 -0.18250000000E+03  0.18250000000E+03  0.00000000000E+00 0.  1.
         25    2    1    2    0    0  0.90631619119E+02  0.11366719508E+03  0.10671034389E+02  0.19201709599E+03  0.12498948978E+03 0.  0.
         23    2    1    2    0    0 -0.90631619119E+02 -0.11366719508E+03 -0.10671034389E+02  0.17298290401E+03  0.93139102878E+02 0.  0.
        -11    1    4    4    0    0 -0.77705895705E+02 -0.83038519865E+02  0.32702446597E+02  0.11833449211E+03  0.00000000000E+00 0. -1.
         11    1    4    4    0    0 -0.12925723415E+02 -0.30628675214E+02 -0.43373480986E+02  0.54648411908E+02  0.00000000000E+00 0.  1.
        -15    1    3    3    0    0  0.75438940578E+02  0.11597677678E+03  0.52057747110E+02  0.14783373523E+03  0.17770000000E+01 0. -1.
         15    1    3    3    0    0  0.15192678541E+02 -0.23095817051E+01 -0.41386712721E+02  0.44183360756E+02  0.17770000000E+01 0. -1.
</event>
<event>
 8    1  0.3345745E-006  0.1900733E+03  0.7546771E-02  0.1062581E+00
        -11   -1    0    0    0    0  0.00000000000E+00  0.00000000000E+00  0.18250000000E+03  0.18250000000E+03  0.00000000000E+00 0.  1.
         11   -1    0    0    0    0 -0.00000000000E+00 -0.00000000000E+00 -0.18250000000E+03  0.18250000000E+03  0.00000000000E+00 0. -1.
         25    2    1    2    0    0 -0.11818739263E+03 -0.69822602328E+02  0.40713483680E+02  0.19007328273E+03  0.12500723772E+03 0.  0.
         23    2    1    2    0    0  0.11818739263E+03  0.69822602328E+02 -0.40713483680E+02  0.17492671727E+03  0.10049036317E+03 0.  0.
        -11    1    4    4    0    0  0.49641951304E+02  0.35192816399E+02  0.32359580320E+02  0.68920244442E+02  0.00000000000E+00 0.  1.
         11    1    4    4    0    0  0.68545441322E+02  0.34629785928E+02 -0.73073064001E+02  0.10600647283E+03  0.00000000000E+00 0. -1.
        -15    1    3    3    0    0 -0.10880962220E+03 -0.10152713239E+03  0.47595576382E+02  0.15625552506E+03  0.17770000000E+01 0.  1.
         15    1    3    3    0    0 -0.93777704298E+01  0.31704530058E+02 -0.68820927018E+01  0.33817757663E+02  0.17770000000E+01 0.  1.
</event>
<event>
 8    1  0.3345745E-006  0.1926042E+03  0.7546771E-02  0.1060685E+00
        -11   -1    0    0    0    0  0.00000000000E+00  0.00000000000E+00  0.18250000000E+03  0.18250000000E+03  0.00000000000E+00 0.  1.
         11   -1    0    0    0    0 -0.00000000000E+00 -0.00000000000E+00 -0.18250000000E+03  0.18250000000E+03  0.00000000000E+00 0. -1.
         25    2    1    2    0    0  0.12821279501E+03  0.45951814576E+02 -0.54031475859E+02  0.19260417233E+03  0.12500750676E+03 0.  0.
         23    2    1    2    0    0 -0.12821279501E+03 -0.45951814576E+02  0.54031475859E+02  0.17239582767E+03  0.90834084737E+02 0.  0.
        -11    1    4    4    0    0 -0.45502858138E+02 -0.51480182493E+02  0.57258490286E+02  0.89438548726E+02  0.00000000000E+00 0.  1.
         11    1    4    4    0    0 -0.82709936868E+02  0.55283679176E+01 -0.32270144269E+01  0.82957278949E+02  0.00000000000E+00 0. -1.
        -15    1    3    3    0    0  0.83434561222E+02  0.72064482278E+02 -0.78404931269E+02  0.13529636576E+03  0.17770000000E+01 0. -1.
         15    1    3    3    0    0  0.44778233784E+02 -0.26112667702E+02  0.24373455410E+02  0.57307806562E+02  0.17770000000E+01 0. -1.
</event>
<event>
 8    1  0.3345745E-006  0.1928664E+03  0.7546771E-02  0.1060490E+00
        -11   -1    0    0    0    0  0.00000000000E+00  0.00000000000E+00  0.18250000000E+03  0.18250000000E+03  0.00000000000E+00 0. -1.
         11   -1    0    0    0    0 -0.00000000000E+00 -0.00000000000E+00 -0.18250000000E+03  0.18250000000E+03  0.00000000000E+00 0.  1.
         25    2    1    2    0    0  0.34019358080E+02 -0.89773581487E+02 -0.11115576685E+03  0.19286643947E+03  0.12500098525E+03 0.  0.
         23    2    1    2    0    0 -0.34019358080E+02  0.89773581487E+02  0.11115576685E+03  0.17213356053E+03  0.89764945822E+02 0.  0.
        -11    1    4    4    0    0 -0.35623138854E+02  0.53531163099E+02  0.10516267360E+02  0.65155086707E+02  0.00000000000E+00 0.  1.
         11    1    4    4    0    0  0.16037807743E+01  0.36242418388E+02  0.10063949949E+03  0.10697847382E+03  0.00000000000E+00 0. -1.
        -15    1    3    3    0    0  0.30816920577E+02 -0.35051373036E+02  0.19922092195E+02  0.50777247188E+02  0.17770000000E+01 0.  1.
         15    1    3    3    0    0  0.32024375028E+01 -0.54722208451E+02 -0.13107785904E+03  0.14208919229E+03  0.17770000000E+01 0.  1.
</event>
<event>
 8    1  0.3345745E-006  0.1923336E+03  0.7546771E-02  0.1060886E+00
        -11   -1    0    0    0    0  0.00000000000E+00  0.00000000000E+00  0.18250000000E+03  0.18250000000E+03  0.00000000000E+00 0.  1.
         11   -1    0    0    0    0 -0.00000000000E+00 -0.00000000000E+00 -0.18250000000E+03  0.18250000000E+03  0.00000000000E+00 0. -1.
         25    2    1    2    0    0 -0.13657647613E+03 -0.29737685634E+02  0.42786114435E+02  0.19233359219E+03  0.12499638122E+03 0.  0.
         23    2    1    2    0    0  0.13657647613E+03  0.29737685634E+02 -0.42786114435E+02  0.17266640781E+03  0.91899798795E+02 0.  0.
        -11    1    4    4    0    0  0.22045431303E+02  0.16030176160E+01  0.27571612097E+02  0.35337862137E+02  0.00000000000E+00 0.  1.
         11    1    4    4    0    0  0.11453104483E+03  0.28134668018E+02 -0.70357726532E+02  0.13732854567E+03  0.00000000000E+00 0. -1.
        -15    1    3    3    0    0 -0.46163927871E+02 -0.40322887669E+02 -0.36706368873E+02  0.71467186535E+02  0.17770000000E+01 0. -1.
         15    1    3    3    0    0 -0.90412548258E+02  0.10585202034E+02  0.79492483308E+02  0.12086640566E+03  0.17770000000E+01 0. -1.
</event>
<event>
 8    1  0.3345745E-006  0.1926994E+03  0.7546771E-02  0.1060614E+00
        -11   -1    0    0    0    0  0.00000000000E+00  0.00000000000E+00  0.18250000000E+03  0.18250000000E+03  0.00000000000E+00 0. -1.
         11   -1    0    0    0    0 -0.00000000000E+00 -0.00000000000E+00 -0.18250000000E+03  0.18250000000E+03  0.00000000000E+00 0.  1.
         25    2    1    2    0    0  0.14284678862E+03  0.41006023964E+01  0.32952263612E+02  0.19269935949E+03  0.12500068605E+03 0.  0.
         23    2    1    2    0    0 -0.14284678862E+03 -0.41006023964E+01 -0.32952263612E+02  0.17230064051E+03  0.90441357144E+02 0.  0.
        -11    1    4    4    0    0 -0.12285789836E+03  0.25141604594E+02 -0.22481454140E+01  0.12542415090E+03  0.00000000000E+00 0.  1.
         11    1    4    4    0    0 -0.19988890263E+02 -0.29242206990E+02 -0.30704118198E+02  0.46876489607E+02  0.00000000000E+00 0. -1.
        -15    1    3    3    0    0  0.45330788320E+02 -0.57336381083E+02  0.11443323778E+01  0.73121872180E+02  0.17770000000E+01 0. -1.
         15    1    3    3    0    0  0.97516000302E+02  0.61436983480E+02  0.31807931234E+02  0.11957748731E+03  0.17770000000E+01 0. -1.
</event>
<event>
 8    1  0.3345745E-006  0.1919892E+03  0.7546771E-02  0.1061143E+00
        -11   -1    0    0    0    0  0.00000000000E+00  0.00000000000E+00  0.18250000000E+03  0.18250000000E+03  0.00000000000E+00 0. -1.
         11   -1    0    0    0    0 -0.00000000000E+00 -0.00000000000E+00 -0.18250000000E+03  0.18250000000E+03  0.00000000000E+00 0.  1.
         25    2    1    2    0    0 -0.11572977857E+03 -0.79878411498E+02 -0.38211496811E+02  0.19198918930E+03  0.12500315216E+03 0.  0.
         23    2    1    2    0    0  0.11572977857E+03  0.79878411498E+02  0.38211496811E+02  0.17301081070E+03  0.93266713565E+02 0.  0.
        -11    1    4    4    0    0  0.33212149619E+02  0.44015520260E+02 -0.27479460580E+02  0.61607902576E+02  0.00000000000E+00 0.  1.
         11    1    4    4    0    0  0.82517628946E+02  0.35862891238E+02  0.65690957391E+02  0.11140290812E+03  0.00000000000E+00 0. -1.
        -15    1    3    3    0    0 -0.68275368760E+02  0.13414042335E+02  0.19723367299E+02  0.72343841878E+02  0.17770000000E+01 0. -1.
         15    1    3    3    0    0 -0.47454409805E+02 -0.93292453833E+02 -0.57934864110E+02  0.11964534743E+03  0.17770000000E+01 0. -1.
</event>
<event>
 8    1  0.3345745E-006  0.1923607E+03  0.7546771E-02  0.1060866E+00
        -11   -1    0    0    0    0  0.00000000000E+00  0.00000000000E+00  0.18250000000E+03  0.18250000000E+03  0.00000000000E+00 0.  1.
         11   -1    0    0    0    0 -0.00000000000E+00 -0.00000000000E+00 -0.18250000000E+03  0.18250000000E+03  0.00000000000E+00 0. -1.
         25    2    1    2    0    0 -0.13136807754E+03  0.64173496443E+02  0.14155960650E+01  0.19236068117E+03  0.12499927322E+03 0.  0.
         23    2    1    2    0    0  0.13136807754E+03 -0.64173496443E+02 -0.14155960650E+01  0.17263931883E+03  0.91796084067E+02 0.  0.
        -11    1    4    4    0    0  0.10251460369E+03 -0.81017500233E+02  0.21091288865E+02  0.13235528618E+03  0.00000000000E+00 0.  1.
         11    1    4    4    0    0  0.28853473851E+02  0.16844003791E+02 -0.22506884930E+02  0.40284032646E+02  0.00000000000E+00 0. -1.
        -15    1    3    3    0    0 -0.13059983095E+03  0.89874438988E+02 -0.18728823169E+02  0.15964854266E+03  0.17770000000E+01 0. -1.
         15    1    3    3    0    0 -0.76824658743E+00 -0.25700942545E+02  0.20144419234E+02  0.32712138509E+02  0.17770000000E+01 0. -1.
</event>
<event>
 8    1  0.3345745E-006  0.1923443E+03  0.7546771E-02  0.1060878E+00
        -11   -1    0    0    0    0  0.00000000000E+00  0.00000000000E+00  0.18250000000E+03  0.18250000000E+03  0.00000000000E+00 0. -1.
         11   -1    0    0    0    0 -0.00000000000E+00 -0.00000000000E+00 -0.18250000000E+03  0.18250000000E+03  0.00000000000E+00 0.  1.
         25    2    1    2    0    0 -0.10213685377E+03 -0.11957333937E+02 -0.10391206450E+03  0.19234430831E+03  0.12499480412E+03 0.  0.
         23    2    1    2    0    0  0.10213685377E+03  0.11957333937E+02  0.10391206450E+03  0.17265569169E+03  0.91855081459E+02 0.  0.
        -11    1    4    4    0    0  0.43294883031E+02  0.48261481609E+02  0.29978781010E+02  0.71430699385E+02  0.00000000000E+00 0.  1.
         11    1    4    4    0    0  0.58841970743E+02 -0.36304147671E+02  0.73933283494E+02  0.10122499231E+03  0.00000000000E+00 0. -1.
        -15    1    3    3    0    0 -0.83352562936E+02 -0.23026809603E+02 -0.13133963271E+03  0.15726137656E+03  0.17770000000E+01 0. -1.
         15    1    3    3    0    0 -0.18784290838E+02  0.11069475665E+02  0.27427568203E+02  0.35082931752E+02  0.17770000000E+01 0. -1.
</event>
<event>
 8    1  0.3345745E-006  0.1935633E+03  0.7546771E-02  0.1059974E+00
        -11   -1    0    0    0    0  0.00000000000E+00  0.00000000000E+00  0.18250000000E+03  0.18250000000E+03  0.00000000000E+00 0.  1.
         11   -1    0    0    0    0 -0.00000000000E+00 -0.00000000000E+00 -0.18250000000E+03  0.18250000000E+03  0.00000000000E+00 0. -1.
         25    2    1    2    0    0  0.53619069027E+02  0.13766761374E+03 -0.41782979486E+01  0.19356333803E+03  0.12498772427E+03 0.  0.
         23    2    1    2    0    0 -0.53619069027E+02 -0.13766761374E+03  0.41782979486E+01  0.17143666197E+03  0.86865956836E+02 0.  0.
        -11    1    4    4    0    0 -0.33208259946E+02 -0.11658918188E+03 -0.31491288281E+02  0.12524985867E+03  0.00000000000E+00 0. -1.
         11    1    4    4    0    0 -0.20410809082E+02 -0.21078431865E+02  0.35669586230E+02  0.46186803300E+02  0.00000000000E+00 0.  1.
        -15    1    3    3    0    0  0.70209432266E+02  0.15444862089E+03 -0.64548637943E+01  0.16978976374E+03  0.17770000000E+01 0.  1.
         15    1    3    3    0    0 -0.16590363238E+02 -0.16781007152E+02  0.22765658457E+01  0.23773574289E+02  0.17770000000E+01 0.  1.
</event>
<event>
 8    1  0.3345745E-006  0.1929460E+03  0.7546771E-02  0.1060431E+00
        -11   -1    0    0    0    0  0.00000000000E+00  0.00000000000E+00  0.18250000000E+03  0.18250000000E+03  0.00000000000E+00 0.  1.
         11   -1    0    0    0    0 -0.00000000000E+00 -0.00000000000E+00 -0.18250000000E+03  0.18250000000E+03  0.00000000000E+00 0. -1.
         25    2    1    2    0    0 -0.13748816811E+03  0.48523216015E+02 -0.18593829059E+02  0.19294597583E+03  0.12499968098E+03 0.  0.
         23    2    1    2    0    0  0.13748816811E+03 -0.48523216015E+02  0.18593829059E+02  0.17205402417E+03  0.89439129522E+02 0.  0.
        -11    1    4    4    0    0  0.94488822488E+02 -0.38693334539E+02 -0.30006228172E+02  0.10642220371E+03  0.00000000000E+00 0. -1.
         11    1    4    4    0    0  0.42999345627E+02 -0.98298814758E+01  0.48600057231E+02  0.65631820461E+02  0.00000000000E+00 0.  1.
        -15    1    3    3    0    0 -0.12657420429E+03  0.85916327000E+02 -0.16827148889E+02  0.15391216685E+03  0.17770000000E+01 0.  1.
         15    1    3    3    0    0 -0.10913963826E+02 -0.37393110985E+02 -0.17666801695E+01  0.39033808978E+02  0.17770000000E+01 0.  1.
</event>
<event>
 8    1  0.3345745E-006  0.1925370E+03  0.7546771E-02  0.1060735E+00
        -11   -1    0    0    0    0  0.00000000000E+00  0.00000000000E+00  0.18250000000E+03  0.18250000000E+03  0.00000000000E+00 0. -1.
         11   -1    0    0    0    0 -0.00000000000E+00 -0.00000000000E+00 -0.18250000000E+03  0.18250000000E+03  0.00000000000E+00 0.  1.
         25    2    1    2    0    0 -0.14302345415E+03  0.40038477765E+01 -0.31211015375E+02  0.19253698098E+03  0.12499848932E+03 0.  0.
         23    2    1    2    0    0  0.14302345415E+03 -0.40038477765E+01  0.31211015375E+02  0.17246301902E+03  0.91091307024E+02 0.  0.
        -11    1    4    4    0    0  0.33740406914E+02  0.37106007057E+02 -0.45272363908E+01  0.50356396692E+02  0.00000000000E+00 0.  1.
         11    1    4    4    0    0  0.10928304723E+03 -0.41109854834E+02  0.35738251765E+02  0.12210662233E+03  0.00000000000E+00 0. -1.
        -15    1    3    3    0    0  0.99368343589E+01  0.17840126883E+02 -0.33096845988E+02  0.38930319131E+02  0.17770000000E+01 0.  1.
         15    1    3    3    0    0 -0.15296028850E+03 -0.13836279106E+02  0.18858306132E+01  0.15360666185E+03  0.17770000000E+01 0.  1.
</event>
<event>
 8    1  0.3345745E-006  0.1917866E+03  0.7546771E-02  0.1061294E+00
        -11   -1    0    0    0    0  0.00000000000E+00  0.00000000000E+00  0.18250000000E+03  0.18250000000E+03  0.00000000000E+00 0.  1.
         11   -1    0    0    0    0 -0.00000000000E+00 -0.00000000000E+00 -0.18250000000E+03  0.18250000000E+03  0.00000000000E+00 0. -1.
         25    2    1    2    0    0  0.87436764857E+02 -0.11605210978E+03  0.63678168449E+01  0.19178661195E+03  0.12501310091E+03 0.  0.
         23    2    1    2    0    0 -0.87436764857E+02  0.11605210978E+03 -0.63678168449E+01  0.17321338805E+03  0.94069382241E+02 0.  0.
        -11    1    4    4    0    0 -0.89689377081E+02  0.10539877289E+03  0.24441573290E+02  0.14053638743E+03  0.00000000000E+00 0.  1.
         11    1    4    4    0    0  0.22526122247E+01  0.10653336887E+02 -0.30809390135E+02  0.32677000614E+02  0.00000000000E+00 0. -1.
        -15    1    3    3    0    0  0.24612573708E+02  0.67282044135E+01 -0.38953573983E+02  0.46600280838E+02  0.17770000000E+01 0.  1.
         15    1    3    3    0    0  0.62824191149E+02 -0.12278031419E+03  0.45321390828E+02  0.14518633111E+03  0.17770000000E+01 0.  1.
</event>
<event>
 8    1  0.3345745E-006  0.1925652E+03  0.7546771E-02  0.1060714E+00
        -11   -1    0    0    0    0  0.00000000000E+00  0.00000000000E+00  0.18250000000E+03  0.18250000000E+03  0.00000000000E+00 0.  1.
         11   -1    0    0    0    0 -0.00000000000E+00 -0.00000000000E+00 -0.18250000000E+03  0.18250000000E+03  0.00000000000E+00 0. -1.
         25    2    1    2    0    0 -0.87308167017E+02  0.14952954779E+02  0.11666359038E+03  0.19256515955E+03  0.12499856186E+03 0.  0.
         23    2    1    2    0    0  0.87308167017E+02 -0.14952954779E+02 -0.11666359038E+03  0.17243484045E+03  0.90978425994E+02 0.  0.
        -11    1    4    4    0    0  0.66220572091E+02 -0.49649871058E+02 -0.96402153036E+02  0.12705766004E+03  0.00000000000E+00 0. -1.
         11    1    4    4    0    0  0.21087594927E+02  0.34696916279E+02 -0.20261437343E+02  0.45377180413E+02  0.00000000000E+00 0.  1.
        -15    1    3    3    0    0 -0.59754784956E+02  0.65947944385E+02  0.43109691416E+02  0.98900803418E+02  0.17770000000E+01 0.  1.
         15    1    3    3    0    0 -0.27553382061E+02 -0.50994989606E+02  0.73553898963E+02  0.93664356132E+02  0.17770000000E+01 0.  1.
</event>
<event>
 8    1  0.3345745E-006  0.1952930E+03  0.7546771E-02  0.1058704E+00
        -11   -1    0    0    0    0  0.00000000000E+00  0.00000000000E+00  0.18250000000E+03  0.18250000000E+03  0.00000000000E+00 0.  1.
         11   -1    0    0    0    0 -0.00000000000E+00 -0.00000000000E+00 -0.18250000000E+03  0.18250000000E+03  0.00000000000E+00 0.  1.
         25    2    1    2    0    0 -0.82037859877E+02  0.74575848165E+02  0.10110744260E+03  0.19529298204E+03  0.12499946521E+03 0.  0.
         23    2    1    2    0    0  0.82037859877E+02 -0.74575848165E+02 -0.10110744260E+03  0.16970701796E+03  0.79284231809E+02 0.  0.
        -11    1    4    4    0    0  0.44518140482E+02 -0.30239209861E+02 -0.83015497002E+00  0.53823450301E+02  0.00000000000E+00 0.  1.
         11    1    4    4    0    0  0.37519719395E+02 -0.44336638304E+02 -0.10027728763E+03  0.11588356766E+03  0.00000000000E+00 0.  1.
        -15    1    3    3    0    0 -0.10885587417E+03  0.31450752473E+02  0.86062556591E+02  0.14229783044E+03  0.17770000000E+01 0. -1.
         15    1    3    3    0    0  0.26818014293E+02  0.43125095692E+02  0.15044886005E+02  0.52995151599E+02  0.17770000000E+01 0. -1.
</event>
<event>
 8    1  0.3345745E-006  0.1924467E+03  0.7546771E-02  0.1060802E+00
        -11   -1    0    0    0    0  0.00000000000E+00  0.00000000000E+00  0.18250000000E+03  0.18250000000E+03  0.00000000000E+00 0.  1.
         11   -1    0    0    0    0 -0.00000000000E+00 -0.00000000000E+00 -0.18250000000E+03  0.18250000000E+03  0.00000000000E+00 0. -1.
         25    2    1    2    0    0 -0.78577946040E+02  0.10101820288E+03  0.70944944767E+02  0.19244666655E+03  0.12499345328E+03 0.  0.
         23    2    1    2    0    0  0.78577946040E+02 -0.10101820288E+03 -0.70944944767E+02  0.17255333345E+03  0.91445594635E+02 0.  0.
        -11    1    4    4    0    0  0.70569990262E+02 -0.80792027028E+02 -0.92707932449E+02  0.14178235396E+03  0.00000000000E+00 0. -1.
         11    1    4    4    0    0  0.80079557780E+01 -0.20226175852E+02  0.21762987682E+02  0.30770979480E+02  0.00000000000E+00 0.  1.
        -15    1    3    3    0    0  0.20001102121E+02  0.49261644650E+02  0.60564237458E+02  0.80609790395E+02  0.17770000000E+01 0. -1.
         15    1    3    3    0    0 -0.98579048161E+02  0.51756558229E+02  0.10380707309E+02  0.11183687616E+03  0.17770000000E+01 0. -1.
</event>
<event>
 8    1  0.3345745E-006  0.1926212E+03  0.7546771E-02  0.1060672E+00
        -11   -1    0    0    0    0  0.00000000000E+00  0.00000000000E+00  0.18250000000E+03  0.18250000000E+03  0.00000000000E+00 0. -1.
         11   -1    0    0    0    0 -0.00000000000E+00 -0.00000000000E+00 -0.18250000000E+03  0.18250000000E+03  0.00000000000E+00 0.  1.
         25    2    1    2    0    0  0.68631773559E+02  0.10290575365E+03 -0.78597930142E+02  0.19262124951E+03  0.12500158665E+03 0.  0.
         23    2    1    2    0    0 -0.68631773559E+02 -0.10290575365E+03  0.78597930142E+02  0.17237875049E+03  0.90757283571E+02 0.  0.
        -11    1    4    4    0    0 -0.88990805939E+02 -0.95498126798E+02  0.59329181029E+02  0.14338482306E+03  0.00000000000E+00 0. -1.
         11    1    4    4    0    0  0.20359032381E+02 -0.74076268525E+01  0.19268749114E+02  0.28993927424E+02  0.00000000000E+00 0.  1.
        -15    1    3    3    0    0 -0.44300089579E+01 -0.25763334502E+02 -0.27693249618E+01  0.26347699591E+02  0.17770000000E+01 0. -1.
         15    1    3    3    0    0  0.73061782517E+02  0.12866908815E+03 -0.75828605181E+02  0.16627354992E+03  0.17770000000E+01 0. -1.
</event>
<event>
 8    1  0.3345745E-006  0.1924615E+03  0.7546771E-02  0.1060791E+00
        -11   -1    0    0    0    0  0.00000000000E+00  0.00000000000E+00  0.18250000000E+03  0.18250000000E+03  0.00000000000E+00 0.  1.
         11   -1    0    0    0    0 -0.00000000000E+00 -0.00000000000E+00 -0.18250000000E+03  0.18250000000E+03  0.00000000000E+00 0. -1.
         25    2    1    2    0    0 -0.24687724359E+02  0.12724700766E+03 -0.67936093263E+02  0.19246151128E+03  0.12499934344E+03 0.  0.
         23    2    1    2    0    0  0.24687724359E+02 -0.12724700766E+03  0.67936093263E+02  0.17253848872E+03  0.91394379639E+02 0.  0.
        -11    1    4    4    0    0 -0.29510718558E+02 -0.44345723731E+02  0.47578136038E+02  0.71422018676E+02  0.00000000000E+00 0.  1.
         11    1    4    4    0    0  0.54198442917E+02 -0.82901283933E+02  0.20357957226E+02  0.10111647005E+03  0.00000000000E+00 0. -1.
        -15    1    3    3    0    0  0.47511578459E+02  0.51254114741E+02 -0.47869564496E+01  0.70074296619E+02  0.17770000000E+01 0. -1.
         15    1    3    3    0    0 -0.72199302818E+02  0.75992892923E+02 -0.63149136814E+02  0.12238721466E+03  0.17770000000E+01 0. -1.
</event>
<event>
 8    1  0.3345745E-006  0.1926367E+03  0.7546771E-02  0.1060661E+00
        -11   -1    0    0    0    0  0.00000000000E+00  0.00000000000E+00  0.18250000000E+03  0.18250000000E+03  0.00000000000E+00 0.  1.
         11   -1    0    0    0    0 -0.00000000000E+00 -0.00000000000E+00 -0.18250000000E+03  0.18250000000E+03  0.00000000000E+00 0. -1.
         25    2    1    2    0    0 -0.20663562335E+02  0.95183163803E+02 -0.10953204327E+03  0.19263665138E+03  0.12499917388E+03 0.  0.
         23    2    1    2    0    0  0.20663562335E+02 -0.95183163803E+02  0.10953204327E+03  0.17236334862E+03  0.90691995040E+02 0.  0.
        -11    1    4    4    0    0  0.40347987712E+02 -0.13616979902E+02  0.13136036918E+02  0.44563861143E+02  0.00000000000E+00 0.  1.
         11    1    4    4    0    0 -0.19684425376E+02 -0.81566183901E+02  0.96396006353E+02  0.12779948748E+03  0.00000000000E+00 0. -1.
        -15    1    3    3    0    0 -0.25010436324E+02 -0.22126859738E+02 -0.52172810473E+02  0.61969990549E+02  0.17770000000E+01 0.  1.
         15    1    3    3    0    0  0.43468739888E+01  0.11731002354E+03 -0.57359232799E+02  0.13066666083E+03  0.17770000000E+01 0.  1.
</event>
<event>
 8    1  0.3345745E-006  0.1923723E+03  0.7546771E-02  0.1060857E+00
        -11   -1    0    0    0    0  0.00000000000E+00  0.00000000000E+00  0.18250000000E+03  0.18250000000E+03  0.00000000000E+00 0.  1.
         11   -1    0    0    0    0 -0.00000000000E+00 -0.00000000000E+00 -0.18250000000E+03  0.18250000000E+03  0.00000000000E+00 0. -1.
         25    2    1    2    0    0 -0.24221763789E+02 -0.13215305413E+03  0.57701416513E+02  0.19237225872E+03  0.12500603546E+03 0.  0.
         23    2    1    2    0    0  0.24221763789E+02  0.13215305413E+03 -0.57701416513E+02  0.17262774128E+03  0.91759250404E+02 0.  0.
        -11    1    4    4    0    0  0.39475230144E+02  0.13834484536E+03 -0.41984636088E+02  0.14986760724E+03  0.00000000000E+00 0.  1.
         11    1    4    4    0    0 -0.15253466355E+02 -0.61917912317E+01 -0.15716780425E+02  0.22760134038E+02  0.00000000000E+00 0. -1.
        -15    1    3    3    0    0 -0.64421028669E+02 -0.12675448187E+03  0.51843291291E+02  0.15135274094E+03  0.17770000000E+01 0.  1.
         15    1    3    3    0    0  0.40199264879E+02 -0.53985722623E+01  0.58581252224E+01  0.41019517786E+02  0.17770000000E+01 0.  1.
</event>
<event>
 8    1  0.3345745E-006  0.1926489E+03  0.7546771E-02  0.1060652E+00
        -11   -1    0    0    0    0  0.00000000000E+00  0.00000000000E+00  0.18250000000E+03  0.18250000000E+03  0.00000000000E+00 0.  1.
         11   -1    0    0    0    0 -0.00000000000E+00 -0.00000000000E+00 -0.18250000000E+03  0.18250000000E+03  0.00000000000E+00 0. -1.
         25    2    1    2    0    0 -0.11027297265E+03 -0.95417447407E+02 -0.14906940615E+02  0.19264890972E+03  0.12500707088E+03 0.  0.
         23    2    1    2    0    0  0.11027297265E+03  0.95417447407E+02  0.14906940615E+02  0.17235109028E+03  0.90653536470E+02 0.  0.
        -11    1    4    4    0    0  0.47786837122E+02  0.45737886651E+02  0.52178415421E+02  0.84250359722E+02  0.00000000000E+00 0.  1.
         11    1    4    4    0    0  0.62486135531E+02  0.49679560756E+02 -0.37271474806E+02  0.88100730558E+02  0.00000000000E+00 0. -1.
        -15    1    3    3    0    0 -0.62649116461E+02 -0.98850223907E+02  0.36366093980E+02  0.12256397954E+03  0.17770000000E+01 0.  1.
         15    1    3    3    0    0 -0.47623856193E+02  0.34327764994E+01 -0.51273034595E+02  0.70084930183E+02  0.17770000000E+01 0.  1.
</event>
<event>
 8    1  0.3345745E-006  0.1914673E+03  0.7546771E-02  0.1061533E+00
        -11   -1    0    0    0    0  0.00000000000E+00  0.00000000000E+00  0.18250000000E+03  0.18250000000E+03  0.00000000000E+00 0.  1.
         11   -1    0    0    0    0 -0.00000000000E+00 -0.00000000000E+00 -0.18250000000E+03  0.18250000000E+03  0.00000000000E+00 0. -1.
         25    2    1    2    0    0  0.62315157550E+02 -0.13074111745E+03  0.79426951846E+01  0.19146728912E+03  0.12498086950E+03 0.  0.
         23    2    1    2    0    0 -0.62315157550E+02  0.13074111745E+03 -0.79426951846E+01  0.17353271088E+03  0.95258053137E+02 0.  0.
        -11    1    4    4    0    0 -0.41966476336E+02  0.17501180800E+01  0.50332100786E+01  0.42303442567E+02  0.00000000000E+00 0. -1.
         11    1    4    4    0    0 -0.20348681214E+02  0.12899099937E+03 -0.12975905263E+02  0.13122926832E+03  0.00000000000E+00 0.  1.
        -15    1    3    3    0    0  0.88462250341E+01  0.23100282641E+02 -0.11677657698E+02  0.27411752475E+02  0.17770000000E+01 0.  1.
         15    1    3    3    0    0  0.53468932516E+02 -0.15384140009E+03  0.19620352882E+02  0.16405553664E+03  0.17770000000E+01 0.  1.
</event>
<event>
 8    1  0.3345745E-006  0.1928786E+03  0.7546771E-02  0.1060481E+00
        -11   -1    0    0    0    0  0.00000000000E+00  0.00000000000E+00  0.18250000000E+03  0.18250000000E+03  0.00000000000E+00 0. -1.
         11   -1    0    0    0    0 -0.00000000000E+00 -0.00000000000E+00 -0.18250000000E+03  0.18250000000E+03  0.00000000000E+00 0.  1.
         25    2    1    2    0    0 -0.89207722376E+02 -0.11336669786E+03 -0.27694944669E+02  0.19287864176E+03  0.12500053829E+03 0.  0.
         23    2    1    2    0    0  0.89207722376E+02  0.11336669786E+03  0.27694944669E+02  0.17212135824E+03  0.89714692705E+02 0.  0.
        -11    1    4    4    0    0  0.32947000228E+02  0.96308058269E+02 -0.10010652084E+02  0.10227883489E+03  0.00000000000E+00 0.  1.
         11    1    4    4    0    0  0.56260722148E+02  0.17058639591E+02  0.37705596753E+02  0.69842523349E+02  0.00000000000E+00 0. -1.
        -15    1    3    3    0    0 -0.32551109954E+02 -0.36284909429E+02 -0.72376641846E+02  0.87279467376E+02  0.17770000000E+01 0. -1.
         15    1    3    3    0    0 -0.56656612422E+02 -0.77081788431E+02  0.44681697177E+02  0.10559917438E+03  0.17770000000E+01 0. -1.
</event>
<event>
 8    1  0.3345745E-006  0.1925623E+03  0.7546771E-02  0.1060716E+00
        -11   -1    0    0    0    0  0.00000000000E+00  0.00000000000E+00  0.18250000000E+03  0.18250000000E+03  0.00000000000E+00 0.  1.
         11   -1    0    0    0    0 -0.00000000000E+00 -0.00000000000E+00 -0.18250000000E+03  0.18250000000E+03  0.00000000000E+00 0. -1.
         25    2    1    2    0    0 -0.11170221006E+03  0.55602658769E+02 -0.76718840026E+02  0.19256229530E+03  0.12500167103E+03 0.  0.
         23    2    1    2    0    0  0.11170221006E+03 -0.55602658769E+02  0.76718840026E+02  0.17243770470E+03  0.90994187695E+02 0.  0.
        -11    1    4    4    0    0  0.91894058541E+02 -0.42278663009E+02  0.97717605466E+02  0.14064399653E+03  0.00000000000E+00 0.  1.
         11    1    4    4    0    0  0.19808151520E+02 -0.13323995760E+02 -0.20998765441E+02  0.31793708178E+02  0.00000000000E+00 0. -1.
        -15    1    3    3    0    0  0.24662184227E+02  0.64203056865E+01  0.51639168526E+01  0.26062759298E+02  0.17770000000E+01 0.  1.
         15    1    3    3    0    0 -0.13636439429E+03  0.49182353082E+02 -0.81882756878E+02  0.16649953600E+03  0.17770000000E+01 0.  1.
</event>
<event>
 8    1  0.3345745E-006  0.1895834E+03  0.7546771E-02  0.1062952E+00
        -11   -1    0    0    0    0  0.00000000000E+00  0.00000000000E+00  0.18250000000E+03  0.18250000000E+03  0.00000000000E+00 0.  1.
         11   -1    0    0    0    0 -0.00000000000E+00 -0.00000000000E+00 -0.18250000000E+03  0.18250000000E+03  0.00000000000E+00 0. -1.
         25    2    1    2    0    0  0.10367791994E+03  0.61663792887E+02 -0.75929868210E+02  0.18958339123E+03  0.12499993164E+03 0.  0.
         23    2    1    2    0    0 -0.10367791994E+03 -0.61663792887E+02  0.75929868210E+02  0.17541660877E+03  0.10224532904E+03 0.  0.
        -11    1    4    4    0    0 -0.31447076544E+02 -0.63368119283E+02  0.19010975473E+00  0.70742302100E+02  0.00000000000E+00 0. -1.
         11    1    4    4    0    0 -0.72230843392E+02  0.17043263963E+01  0.75739758456E+02  0.10467430667E+03  0.00000000000E+00 0.  1.
        -15    1    3    3    0    0  0.60470129803E+01  0.11626261600E+02  0.32645451740E+02  0.35222429971E+02  0.17770000000E+01 0. -1.
         15    1    3    3    0    0  0.97630906956E+02  0.50037531287E+02 -0.10857531995E+03  0.15436096126E+03  0.17770000000E+01 0. -1.
</event>
<event>
 8    1  0.3345745E-006  0.1926300E+03  0.7546771E-02  0.1060666E+00
        -11   -1    0    0    0    0  0.00000000000E+00  0.00000000000E+00  0.18250000000E+03  0.18250000000E+03  0.00000000000E+00 0. -1.
         11   -1    0    0    0    0 -0.00000000000E+00 -0.00000000000E+00 -0.18250000000E+03  0.18250000000E+03  0.00000000000E+00 0.  1.
         25    2    1    2    0    0 -0.28570623645E+02  0.14076548175E+03 -0.29156456740E+02  0.19263001045E+03  0.12500008227E+03 0.  0.
         23    2    1    2    0    0  0.28570623645E+02 -0.14076548175E+03  0.29156456740E+02  0.17236998955E+03  0.90719969908E+02 0.  0.
        -11    1    4    4    0    0  0.10402353579E+02 -0.72990824915E+02 -0.30966336362E+02  0.79967390038E+02  0.00000000000E+00 0.  1.
         11    1    4    4    0    0  0.18168270065E+02 -0.67774656835E+02  0.60122793102E+02  0.92402599512E+02  0.00000000000E+00 0. -1.
        -15    1    3    3    0    0  0.25513274187E+02  0.99228926666E+02  0.25061167482E+02  0.10549183329E+03  0.17770000000E+01 0. -1.
         15    1    3    3    0    0 -0.54083897831E+02  0.41536555084E+02 -0.54217624222E+02  0.87138177156E+02  0.17770000000E+01 0. -1.
</event>
<event>
 8    1  0.3345745E-006  0.1923308E+03  0.7546771E-02  0.1060888E+00
        -11   -1    0    0    0    0  0.00000000000E+00  0.00000000000E+00  0.18250000000E+03  0.18250000000E+03  0.00000000000E+00 0.  1.
         11   -1    0    0    0    0 -0.00000000000E+00 -0.00000000000E+00 -0.18250000000E+03  0.18250000000E+03  0.00000000000E+00 0. -1.
         25    2    1    2    0    0  0.10851455716E+03 -0.86409052016E+02  0.46070086329E+02  0.19233082855E+03  0.12500704528E+03 0.  0.
         23    2    1    2    0    0 -0.10851455716E+03  0.86409052016E+02 -0.46070086329E+02  0.17266917145E+03  0.91925276881E+02 0.  0.
        -11    1    4    4    0    0 -0.42002038909E+02  0.72423825275E+02 -0.60365455521E+02  0.10321516342E+03  0.00000000000E+00 0. -1.
         11    1    4    4    0    0 -0.66512518251E+02  0.13985226742E+02  0.14295369193E+02  0.69454008030E+02  0.00000000000E+00 0.  1.
        -15    1    3    3    0    0  0.98695030716E+02 -0.11720787443E+03  0.29839864554E+02  0.15611524641E+03  0.17770000000E+01 0. -1.
         15    1    3    3    0    0  0.98195264441E+01  0.30798822413E+02  0.16230221774E+02  0.36215582136E+02  0.17770000000E+01 0. -1.
</event>
<event>
 8    1  0.3345745E-006  0.1921801E+03  0.7546771E-02  0.1061000E+00
        -11   -1    0    0    0    0  0.00000000000E+00  0.00000000000E+00  0.18250000000E+03  0.18250000000E+03  0.00000000000E+00 0.  1.
         11   -1    0    0    0    0 -0.00000000000E+00 -0.00000000000E+00 -0.18250000000E+03  0.18250000000E+03  0.00000000000E+00 0. -1.
         25    2    1    2    0    0 -0.14579296845E+03 -0.43408976273E+01  0.57869714921E+01  0.19218014019E+03  0.12500113681E+03 0.  0.
         23    2    1    2    0    0  0.14579296845E+03  0.43408976273E+01 -0.57869714921E+01  0.17281985981E+03  0.92513684748E+02 0.  0.
        -11    1    4    4    0    0  0.30747473105E+02 -0.13702666548E+02  0.35822844744E+02  0.49157363420E+02  0.00000000000E+00 0.  1.
         11    1    4    4    0    0  0.11504549534E+03  0.18043564175E+02 -0.41609816236E+02  0.12366249639E+03  0.00000000000E+00 0. -1.
        -15    1    3    3    0    0 -0.15239368538E+03  0.32768723866E+01 -0.29648844662E+02  0.15529579826E+03  0.17770000000E+01 0. -1.
         15    1    3    3    0    0  0.66007169385E+01 -0.76177700139E+01  0.35435816154E+02  0.36884341930E+02  0.17770000000E+01 0. -1.
</event>
<event>
 8    1  0.3345745E-006  0.1927317E+03  0.7546771E-02  0.1060590E+00
        -11   -1    0    0    0    0  0.00000000000E+00  0.00000000000E+00  0.18250000000E+03  0.18250000000E+03  0.00000000000E+00 0. -1.
         11   -1    0    0    0    0 -0.00000000000E+00 -0.00000000000E+00 -0.18250000000E+03  0.18250000000E+03  0.00000000000E+00 0.  1.
         25    2    1    2    0    0 -0.76134234449E+02  0.12499272029E+03  0.10425202413E+02  0.19273170403E+03  0.12496888858E+03 0.  0.
         23    2    1    2    0    0  0.76134234449E+02 -0.12499272029E+03 -0.10425202413E+02  0.17226829597E+03  0.90266711311E+02 0.  0.
        -11    1    4    4    0    0  0.76304600856E+02 -0.73295983085E+02  0.26091915644E+02  0.10897468197E+03  0.00000000000E+00 0. -1.
         11    1    4    4    0    0 -0.17036640698E+00 -0.51696737204E+02 -0.36517118057E+02  0.63293614002E+02  0.00000000000E+00 0.  1.
        -15    1    3    3    0    0  0.96581143752E+01  0.66805153896E+02  0.47573138597E+02  0.82598843850E+02  0.17770000000E+01 0.  1.
         15    1    3    3    0    0 -0.85792348824E+02  0.58187566393E+02 -0.37147936185E+02  0.11013286018E+03  0.17770000000E+01 0.  1.
</event>
<event>
 8    1  0.3345745E-006  0.1923308E+03  0.7546771E-02  0.1060888E+00
        -11   -1    0    0    0    0  0.00000000000E+00  0.00000000000E+00  0.18250000000E+03  0.18250000000E+03  0.00000000000E+00 0.  1.
         11   -1    0    0    0    0 -0.00000000000E+00 -0.00000000000E+00 -0.18250000000E+03  0.18250000000E+03  0.00000000000E+00 0. -1.
         25    2    1    2    0    0 -0.39387251070E+02  0.71345007997E+02 -0.12134349739E+03  0.19233080364E+03  0.12500171182E+03 0.  0.
         23    2    1    2    0    0  0.39387251070E+02 -0.71345007997E+02  0.12134349739E+03  0.17266919636E+03  0.91918122796E+02 0.  0.
        -11    1    4    4    0    0  0.63664884851E+02 -0.55187622707E+02  0.11543652412E+03  0.14291424829E+03  0.00000000000E+00 0.  1.
         11    1    4    4    0    0 -0.24277633781E+02 -0.16157385291E+02  0.59069732759E+01  0.29754948071E+02  0.00000000000E+00 0. -1.
        -15    1    3    3    0    0 -0.36088460892E+02  0.37538282175E+02 -0.14287242116E+03  0.15207625092E+03  0.17770000000E+01 0.  1.
         15    1    3    3    0    0 -0.32987901776E+01  0.33806725823E+02  0.21528923763E+02  0.40254552722E+02  0.17770000000E+01 0.  1.
</event>
<event>
 8    1  0.3345745E-006  0.1923746E+03  0.7546771E-02  0.1060856E+00
        -11   -1    0    0    0    0  0.00000000000E+00  0.00000000000E+00  0.18250000000E+03  0.18250000000E+03  0.00000000000E+00 0. -1.
         11   -1    0    0    0    0 -0.00000000000E+00 -0.00000000000E+00 -0.18250000000E+03  0.18250000000E+03  0.00000000000E+00 0.  1.
         25    2    1    2    0    0  0.75843274938E+02  0.95763461967E+02 -0.80375986208E+02  0.19237456001E+03  0.12499931672E+03 0.  0.
         23    2    1    2    0    0 -0.75843274938E+02 -0.95763461967E+02  0.80375986208E+02  0.17262543999E+03  0.91740941631E+02 0.  0.
        -11    1    4    4    0    0 -0.58247230825E+02 -0.91185425988E+02  0.20599169114E+02  0.11014466660E+03  0.00000000000E+00 0.  1.
         11    1    4    4    0    0 -0.17596044113E+02 -0.45780359785E+01  0.59776817094E+02  0.62480773393E+02  0.00000000000E+00 0. -1.
        -15    1    3    3    0    0  0.21156119489E+02 -0.86583888866E+01  0.25236735884E+02  0.34096915653E+02  0.17770000000E+01 0. -1.
         15    1    3    3    0    0  0.54687155448E+02  0.10442185085E+03 -0.10561272209E+03  0.15827764436E+03  0.17770000000E+01 0. -1.
</event>
<event>
 8    1  0.3345745E-006  0.1923983E+03  0.7546771E-02  0.1060838E+00
        -11   -1    0    0    0    0  0.00000000000E+00  0.00000000000E+00  0.18250000000E+03  0.18250000000E+03  0.00000000000E+00 0.  1.
         11   -1    0    0    0    0 -0.00000000000E+00 -0.00000000000E+00 -0.18250000000E+03  0.18250000000E+03  0.00000000000E+00 0. -1.
         25    2    1    2    0    0 -0.41324431139E+02  0.11224884136E+03  0.84158244213E+02  0.19239829966E+03  0.12500793834E+03 0.  0.
         23    2    1    2    0    0  0.41324431139E+02 -0.11224884136E+03 -0.84158244213E+02  0.17260170034E+03  0.91658201473E+02 0.  0.
        -11    1    4    4    0    0 -0.72054944679E+01 -0.31272750486E+02  0.15231164954E+02  0.35523125698E+02  0.00000000000E+00 0.  1.
         11    1    4    4    0    0  0.48529925607E+02 -0.80976090872E+02 -0.99389409167E+02  0.13707857465E+03  0.00000000000E+00 0. -1.
        -15    1    3    3    0    0  0.26918941820E+02  0.98882834841E+02  0.40128663936E+02  0.11007230284E+03  0.17770000000E+01 0. -1.
         15    1    3    3    0    0 -0.68243372960E+02  0.13366006517E+02  0.44029580276E+02  0.82325996814E+02  0.17770000000E+01 0. -1.
</event>
<event>
 8    1  0.3345745E-006  0.1921434E+03  0.7546771E-02  0.1061028E+00
        -11   -1    0    0    0    0  0.00000000000E+00  0.00000000000E+00  0.18250000000E+03  0.18250000000E+03  0.00000000000E+00 0. -1.
         11   -1    0    0    0    0 -0.00000000000E+00 -0.00000000000E+00 -0.18250000000E+03  0.18250000000E+03  0.00000000000E+00 0.  1.
         25    2    1    2    0    0  0.17450932026E+02 -0.13579460776E+03 -0.50477520783E+02  0.19214337131E+03  0.12500553792E+03 0.  0.
         23    2    1    2    0    0 -0.17450932026E+02  0.13579460776E+03  0.50477520783E+02  0.17285662869E+03  0.92664574946E+02 0.  0.
        -11    1    4    4    0    0 -0.10175134009E+02  0.71103348267E+02 -0.22302188137E+02  0.75210418710E+02  0.00000000000E+00 0.  1.
         11    1    4    4    0    0 -0.72757980177E+01  0.64691259496E+02  0.72779708920E+02  0.97646209975E+02  0.00000000000E+00 0. -1.
        -15    1    3    3    0    0  0.59634226881E+02 -0.12892204364E+03 -0.45018822099E+02  0.14902008732E+03  0.17770000000E+01 0. -1.
         15    1    3    3    0    0 -0.42183294855E+02 -0.68725641243E+01 -0.54586986837E+01  0.43123283998E+02  0.17770000000E+01 0. -1.
</event>
<event>
 8    1  0.3345745E-006  0.1903353E+03  0.7546771E-02  0.1062384E+00
        -11   -1    0    0    0    0  0.00000000000E+00  0.00000000000E+00  0.18250000000E+03  0.18250000000E+03  0.00000000000E+00 0.  1.
         11   -1    0    0    0    0 -0.00000000000E+00 -0.00000000000E+00 -0.18250000000E+03  0.18250000000E+03  0.00000000000E+00 0. -1.
         25    2    1    2    0    0  0.79092591778E+02 -0.11976761555E+03  0.21083954588E+01  0.19033528358E+03  0.12499261993E+03 0.  0.
         23    2    1    2    0    0 -0.79092591778E+02  0.11976761555E+03 -0.21083954588E+01  0.17466471642E+03  0.99515817956E+02 0.  0.
        -11    1    4    4    0    0 -0.90050884358E+02  0.12859855965E+03  0.82197950586E+01  0.15720787623E+03  0.00000000000E+00 0.  1.
         11    1    4    4    0    0  0.10958292580E+02 -0.88309441059E+01 -0.10328190517E+02  0.17456840191E+02  0.00000000000E+00 0. -1.
        -15    1    3    3    0    0  0.47699494122E+02 -0.13079208043E+03  0.34951262967E+02  0.14354984694E+03  0.17770000000E+01 0. -1.
         15    1    3    3    0    0  0.31393097656E+02  0.11024464889E+02 -0.32842867509E+02  0.46785436641E+02  0.17770000000E+01 0. -1.
</event>
<event>
 8    1  0.3345745E-006  0.1923964E+03  0.7546771E-02  0.1060839E+00
        -11   -1    0    0    0    0  0.00000000000E+00  0.00000000000E+00  0.18250000000E+03  0.18250000000E+03  0.00000000000E+00 0.  1.
         11   -1    0    0    0    0 -0.00000000000E+00 -0.00000000000E+00 -0.18250000000E+03  0.18250000000E+03  0.00000000000E+00 0. -1.
         25    2    1    2    0    0 -0.28728772946E+02  0.11580958432E+03 -0.84584537192E+02  0.19239642966E+03  0.12499855999E+03 0.  0.
         23    2    1    2    0    0  0.28728772946E+02 -0.11580958432E+03  0.84584537192E+02  0.17260357034E+03  0.91652857820E+02 0.  0.
        -11    1    4    4    0    0 -0.88147922028E+01 -0.73848541791E+02  0.42394118580E+01  0.74493491656E+02  0.00000000000E+00 0. -1.
         11    1    4    4    0    0  0.37543565149E+02 -0.41961042526E+02  0.80345125334E+02  0.98110078681E+02  0.00000000000E+00 0.  1.
        -15    1    3    3    0    0 -0.27138895448E+02  0.17938098804E+02 -0.88613586519E+02  0.94413031302E+02  0.17770000000E+01 0.  1.
         15    1    3    3    0    0 -0.15898774979E+01  0.97871485513E+02  0.40290493268E+01  0.97983398361E+02  0.17770000000E+01 0.  1.
</event>
<event>
 8    1  0.3345745E-006  0.1924419E+03  0.7546771E-02  0.1060805E+00
        -11   -1    0    0    0    0  0.00000000000E+00  0.00000000000E+00  0.18250000000E+03  0.18250000000E+03  0.00000000000E+00 0.  1.
         11   -1    0    0    0    0 -0.00000000000E+00 -0.00000000000E+00 -0.18250000000E+03  0.18250000000E+03  0.00000000000E+00 0. -1.
         25    2    1    2    0    0 -0.14508303312E+03 -0.64877942301E+01  0.17803785625E+02  0.19244185036E+03  0.12500285202E+03 0.  0.
         23    2    1    2    0    0  0.14508303312E+03  0.64877942301E+01 -0.17803785625E+02  0.17255814964E+03  0.91477659857E+02 0.  0.
        -11    1    4    4    0    0  0.12935049002E+03  0.10882008748E+02 -0.47860511387E+02  0.13834954258E+03  0.00000000000E+00 0. -1.
         11    1    4    4    0    0  0.15732543102E+02 -0.43942145177E+01  0.30056725762E+02  0.34208607063E+02  0.00000000000E+00 0.  1.
        -15    1    3    3    0    0 -0.56513917510E+02 -0.63910385108E+02 -0.29189684705E+00  0.85332309999E+02  0.17770000000E+01 0. -1.
         15    1    3    3    0    0 -0.88569115608E+02  0.57422590878E+02  0.18095682472E+02  0.10710954036E+03  0.17770000000E+01 0. -1.
</event>
<event>
 8    1  0.3345745E-006  0.1913235E+03  0.7546771E-02  0.1061640E+00
        -11   -1    0    0    0    0  0.00000000000E+00  0.00000000000E+00  0.18250000000E+03  0.18250000000E+03  0.00000000000E+00 0. -1.
         11   -1    0    0    0    0 -0.00000000000E+00 -0.00000000000E+00 -0.18250000000E+03  0.18250000000E+03  0.00000000000E+00 0.  1.
         25    2    1    2    0    0 -0.96144738738E+02  0.23212200703E+02  0.10581632017E+03  0.19132351665E+03  0.12499990944E+03 0.  0.
         23    2    1    2    0    0  0.96144738738E+02 -0.23212200703E+02 -0.10581632017E+03  0.17367648335E+03  0.95832198169E+02 0.  0.
        -11    1    4    4    0    0 -0.10821420645E+02  0.87354246769E+01  0.64707468918E+01  0.15338883740E+02  0.00000000000E+00 0. -1.
         11    1    4    4    0    0  0.10696615938E+03 -0.31947625380E+02 -0.11228706707E+03  0.15833759961E+03  0.00000000000E+00 0.  1.
        -15    1    3    3    0    0 -0.12009758297E+03  0.32926525690E+02  0.10863175273E+03  0.16526221879E+03  0.17770000000E+01 0.  1.
         15    1    3    3    0    0  0.23952844229E+02 -0.97143249863E+01 -0.28154325582E+01  0.26061297859E+02  0.17770000000E+01 0.  1.
</event>
<event>
 8    1  0.3345745E-006  0.1921742E+03  0.7546771E-02  0.1061005E+00
        -11   -1    0    0    0    0  0.00000000000E+00  0.00000000000E+00  0.18250000000E+03  0.18250000000E+03  0.00000000000E+00 0. -1.
         11   -1    0    0    0    0 -0.00000000000E+00 -0.00000000000E+00 -0.18250000000E+03  0.18250000000E+03  0.00000000000E+00 0.  1.
         25    2    1    2    0    0  0.26921497599E+02  0.63324580848E+02 -0.12872777329E+03  0.19217415459E+03  0.12500118601E+03 0.  0.
         23    2    1    2    0    0 -0.26921497599E+02 -0.63324580848E+02  0.12872777329E+03  0.17282584541E+03  0.92537363551E+02 0.  0.
        -11    1    4    4    0    0 -0.38794607499E-02  0.15112510417E+02  0.68981343187E+02  0.70617375299E+02  0.00000000000E+00 0. -1.
         11    1    4    4    0    0 -0.26917618139E+02 -0.78437091266E+02  0.59746430101E+02  0.10220847011E+03  0.00000000000E+00 0.  1.
        -15    1    3    3    0    0  0.77185672890E+02  0.33483354973E+02 -0.78504986354E+02  0.11508672283E+03  0.17770000000E+01 0.  1.
         15    1    3    3    0    0 -0.50264175291E+02  0.29841225875E+02 -0.50222786935E+02  0.77087431763E+02  0.17770000000E+01 0.  1.
</event>
<event>
 8    1  0.3345745E-006  0.1927755E+03  0.7546771E-02  0.1060558E+00
        -11   -1    0    0    0    0  0.00000000000E+00  0.00000000000E+00  0.18250000000E+03  0.18250000000E+03  0.00000000000E+00 0.  1.
         11   -1    0    0    0    0 -0.00000000000E+00 -0.00000000000E+00 -0.18250000000E+03  0.18250000000E+03  0.00000000000E+00 0. -1.
         25    2    1    2    0    0 -0.27965138859E+02 -0.13342400402E+03 -0.54364437312E+02  0.19277546849E+03  0.12499150118E+03 0.  0.
         23    2    1    2    0    0  0.27965138859E+02  0.13342400402E+03  0.54364437312E+02  0.17222453151E+03  0.90120937471E+02 0.  0.
        -11    1    4    4    0    0  0.52092834920E+02  0.12458356253E+03  0.33512925760E+02  0.13913246816E+03  0.00000000000E+00 0. -1.
         11    1    4    4    0    0 -0.24127696060E+02  0.88404414834E+01  0.20851511552E+02  0.33092063351E+02  0.00000000000E+00 0.  1.
        -15    1    3    3    0    0 -0.30403250591E+02 -0.14588739611E+03 -0.76253030588E+02  0.16740720532E+03  0.17770000000E+01 0. -1.
         15    1    3    3    0    0  0.24381117319E+01  0.12463392097E+02  0.21888593276E+02  0.25368263164E+02  0.17770000000E+01 0. -1.
</event>
<event>
 8    1  0.3345745E-006  0.1924372E+03  0.7546771E-02  0.1060809E+00
        -11   -1    0    0    0    0  0.00000000000E+00  0.00000000000E+00  0.18250000000E+03  0.18250000000E+03  0.00000000000E+00 0. -1.
         11   -1    0    0    0    0 -0.00000000000E+00 -0.00000000000E+00 -0.18250000000E+03  0.18250000000E+03  0.00000000000E+00 0.  1.
         25    2    1    2    0    0 -0.38377033342E+02 -0.12699981404E+03  0.61721194024E+02  0.19243718864E+03  0.12498326417E+03 0.  0.
         23    2    1    2    0    0  0.38377033342E+02  0.12699981404E+03 -0.61721194024E+02  0.17256281136E+03  0.91469495565E+02 0.  0.
        -11    1    4    4    0    0  0.12249254350E+02  0.11487882093E+03 -0.78078462374E+02  0.13943971463E+03  0.00000000000E+00 0.  1.
         11    1    4    4    0    0  0.26127778993E+02  0.12120993113E+02  0.16357268350E+02  0.33123096730E+02  0.00000000000E+00 0. -1.
        -15    1    3    3    0    0  0.31044760164E+02 -0.80838560234E+02 -0.33311731850E+01  0.86677011935E+02  0.17770000000E+01 0.  1.
         15    1    3    3    0    0 -0.69421793506E+02 -0.46161253811E+02  0.65052367209E+02  0.10576017670E+03  0.17770000000E+01 0.  1.
</event>
<event>
 8    1  0.3345745E-006  0.1924871E+03  0.7546771E-02  0.1060772E+00
        -11   -1    0    0    0    0  0.00000000000E+00  0.00000000000E+00  0.18250000000E+03  0.18250000000E+03  0.00000000000E+00 0.  1.
         11   -1    0    0    0    0 -0.00000000000E+00 -0.00000000000E+00 -0.18250000000E+03  0.18250000000E+03  0.00000000000E+00 0. -1.
         25    2    1    2    0    0  0.97658378627E+02  0.10896082272E+03 -0.47558687850E+01  0.19248712084E+03  0.12497621214E+03 0.  0.
         23    2    1    2    0    0 -0.97658378627E+02 -0.10896082272E+03  0.47558687850E+01  0.17251287916E+03  0.91260371375E+02 0.  0.
        -11    1    4    4    0    0 -0.90600399231E+02 -0.37060107798E+02 -0.11199533452E+02  0.98525699594E+02  0.00000000000E+00 0. -1.
         11    1    4    4    0    0 -0.70579793952E+01 -0.71900714919E+02  0.15955402237E+02  0.73987179562E+02  0.00000000000E+00 0.  1.
        -15    1    3    3    0    0  0.86625142562E+02  0.10851003091E+03 -0.48693670902E+02  0.14714813436E+03  0.17770000000E+01 0.  1.
         15    1    3    3    0    0  0.11033236065E+02  0.45079180910E+00  0.43937802117E+02  0.45338986482E+02  0.17770000000E+01 0.  1.
</event>
<event>
 8    1  0.3345745E-006  0.1929576E+03  0.7546771E-02  0.1060422E+00
        -11   -1    0    0    0    0  0.00000000000E+00  0.00000000000E+00  0.18250000000E+03  0.18250000000E+03  0.00000000000E+00 0.  1.
         11   -1    0    0    0    0 -0.00000000000E+00 -0.00000000000E+00 -0.18250000000E+03  0.18250000000E+03  0.00000000000E+00 0. -1.
         25    2    1    2    0    0  0.14181640023E+03  0.16015104445E+02 -0.35177932333E+02  0.19295756492E+03  0.12500703977E+03 0.  0.
         23    2    1    2    0    0 -0.14181640023E+03 -0.16015104445E+02  0.35177932333E+02  0.17204243508E+03  0.89402111837E+02 0.  0.
        -11    1    4    4    0    0 -0.20272645307E+02  0.30917985023E+02  0.16246496356E+02  0.40383791173E+02  0.00000000000E+00 0.  1.
         11    1    4    4    0    0 -0.12154375492E+03 -0.46933089468E+02  0.18931435977E+02  0.13165864391E+03  0.00000000000E+00 0. -1.
        -15    1    3    3    0    0  0.13785602739E+03 -0.87468971013E+01  0.12857083664E+02  0.13874168381E+03  0.17770000000E+01 0.  1.
         15    1    3    3    0    0  0.39603728383E+01  0.24762001546E+02 -0.48035015997E+02  0.54215881109E+02  0.17770000000E+01 0.  1.
</event>
<event>
 8    1  0.3345745E-006  0.1925296E+03  0.7546771E-02  0.1060740E+00
        -11   -1    0    0    0    0  0.00000000000E+00  0.00000000000E+00  0.18250000000E+03  0.18250000000E+03  0.00000000000E+00 0.  1.
         11   -1    0    0    0    0 -0.00000000000E+00 -0.00000000000E+00 -0.18250000000E+03  0.18250000000E+03  0.00000000000E+00 0. -1.
         25    2    1    2    0    0 -0.10597742477E+03 -0.70531795706E+02  0.72346532907E+02  0.19252956093E+03  0.12501064852E+03 0.  0.
         23    2    1    2    0    0  0.10597742477E+03  0.70531795706E+02 -0.72346532907E+02  0.17247043907E+03  0.91137713168E+02 0.  0.
        -11    1    4    4    0    0 -0.14751654809E+02  0.48054497836E+01  0.28679619579E+01  0.15777479932E+02  0.00000000000E+00 0.  1.
         11    1    4    4    0    0  0.12072907958E+03  0.65726345923E+02 -0.75214494864E+02  0.15669295913E+03  0.00000000000E+00 0. -1.
        -15    1    3    3    0    0  0.11653086733E+02  0.16230849156E+02 -0.12380267034E+02  0.23572518651E+02  0.17770000000E+01 0. -1.
         15    1    3    3    0    0 -0.11763051150E+03 -0.86762644863E+02  0.84726799940E+02  0.16895704228E+03  0.17770000000E+01 0. -1.
</event>
<event>
 8    1  0.3345745E-006  0.1916416E+03  0.7546771E-02  0.1061402E+00
        -11   -1    0    0    0    0  0.00000000000E+00  0.00000000000E+00  0.18250000000E+03  0.18250000000E+03  0.00000000000E+00 0. -1.
         11   -1    0    0    0    0 -0.00000000000E+00 -0.00000000000E+00 -0.18250000000E+03  0.18250000000E+03  0.00000000000E+00 0.  1.
         25    2    1    2    0    0 -0.46292929554E+02 -0.11073454797E+03  0.81834930459E+02  0.19164163663E+03  0.12499754241E+03 0.  0.
         23    2    1    2    0    0  0.46292929554E+02  0.11073454797E+03 -0.81834930459E+02  0.17335836337E+03  0.94609676390E+02 0.  0.
        -11    1    4    4    0    0  0.22070177693E+02  0.81592676220E+02 -0.10033190282E+03  0.13119050377E+03  0.00000000000E+00 0.  1.
         11    1    4    4    0    0  0.24222751860E+02  0.29141871746E+02  0.18496972361E+02  0.42167859598E+02  0.00000000000E+00 0. -1.
        -15    1    3    3    0    0 -0.12692549997E+02 -0.49417114328E+02 -0.30384722176E+02  0.59409940958E+02  0.17770000000E+01 0. -1.
         15    1    3    3    0    0 -0.33600379557E+02 -0.61317433637E+02  0.11221965263E+03  0.13223169567E+03  0.17770000000E+01 0. -1.
</event>
<event>
 8    1  0.3345745E-006  0.1912749E+03  0.7546771E-02  0.1061677E+00
        -11   -1    0    0    0    0  0.00000000000E+00  0.00000000000E+00  0.18250000000E+03  0.18250000000E+03  0.00000000000E+00 0.  1.
         11   -1    0    0    0    0 -0.00000000000E+00 -0.00000000000E+00 -0.18250000000E+03  0.18250000000E+03  0.00000000000E+00 0. -1.
         25    2    1    2    0    0  0.10651115877E+03 -0.24778650019E+02 -0.94889888269E+02  0.19127494622E+03  0.12499362270E+03 0.  0.
         23    2    1    2    0    0 -0.10651115877E+03  0.24778650019E+02  0.94889888269E+02  0.17372505378E+03  0.96008827598E+02 0.  0.
        -11    1    4    4    0    0 -0.96050031111E+02  0.19774356167E+02  0.11461618106E+03  0.15084264185E+03  0.00000000000E+00 0.  1.
         11    1    4    4    0    0 -0.10461127659E+02  0.50042938520E+01 -0.19726292790E+02  0.22882411937E+02  0.00000000000E+00 0. -1.
        -15    1    3    3    0    0 -0.12019315646E+02 -0.35643005322E+02 -0.53130614555E+02  0.65122252026E+02  0.17770000000E+01 0.  1.
         15    1    3    3    0    0  0.11853047442E+03  0.10864355303E+02 -0.41759273715E+02  0.12615269419E+03  0.17770000000E+01 0.  1.
</event>
<event>
 8    1  0.3345745E-006  0.1925574E+03  0.7546771E-02  0.1060720E+00
        -11   -1    0    0    0    0  0.00000000000E+00  0.00000000000E+00  0.18250000000E+03  0.18250000000E+03  0.00000000000E+00 0. -1.
         11   -1    0    0    0    0 -0.00000000000E+00 -0.00000000000E+00 -0.18250000000E+03  0.18250000000E+03  0.00000000000E+00 0.  1.
         25    2    1    2    0    0 -0.84719424359E+02 -0.81016987713E+02 -0.87821457036E+02  0.19255742551E+03  0.12499848256E+03 0.  0.
         23    2    1    2    0    0  0.84719424359E+02  0.81016987713E+02  0.87821457036E+02  0.17244257449E+03  0.91009340281E+02 0.  0.
        -11    1    4    4    0    0  0.55201096994E+02  0.76368991265E+02  0.17237909129E+02  0.95794203621E+02  0.00000000000E+00 0.  1.
         11    1    4    4    0    0  0.29518327365E+02  0.46479964478E+01  0.70583547908E+02  0.76648370867E+02  0.00000000000E+00 0. -1.
        -15    1    3    3    0    0 -0.39776951690E+02 -0.91827878857E+02 -0.10324444898E+03  0.14379547696E+03  0.17770000000E+01 0.  1.
         15    1    3    3    0    0 -0.44942472669E+02  0.10810891144E+02  0.15422991941E+02  0.48761948550E+02  0.17770000000E+01 0.  1.
</event>
<event>
 8    1  0.3345745E-006  0.1927514E+03  0.7546771E-02  0.1060575E+00
        -11   -1    0    0    0    0  0.00000000000E+00  0.00000000000E+00  0.18250000000E+03  0.18250000000E+03  0.00000000000E+00 0.  1.
         11   -1    0    0    0    0 -0.00000000000E+00 -0.00000000000E+00 -0.18250000000E+03  0.18250000000E+03  0.00000000000E+00 0. -1.
         25    2    1    2    0    0 -0.41563679902E+02 -0.13310551830E+03  0.45647897888E+02  0.19275142135E+03  0.12499904544E+03 0.  0.
         23    2    1    2    0    0  0.41563679902E+02  0.13310551830E+03 -0.45647897888E+02  0.17224857865E+03  0.90228730334E+02 0.  0.
        -11    1    4    4    0    0 -0.81835312462E+01  0.72347139751E+02  0.13358366052E+02  0.74023812097E+02  0.00000000000E+00 0.  1.
         11    1    4    4    0    0  0.49747211148E+02  0.60758378549E+02 -0.59006263940E+02  0.98224766557E+02  0.00000000000E+00 0. -1.
        -15    1    3    3    0    0  0.23054143239E+02 -0.24869565842E+02 -0.30351894956E+02  0.45545406816E+02  0.17770000000E+01 0.  1.
         15    1    3    3    0    0 -0.64617823141E+02 -0.10823595246E+03  0.75999792845E+02  0.14720601453E+03  0.17770000000E+01 0.  1.
</event>
<event>
 8    1  0.3345745E-006  0.1923918E+03  0.7546771E-02  0.1060843E+00
        -11   -1    0    0    0    0  0.00000000000E+00  0.00000000000E+00  0.18250000000E+03  0.18250000000E+03  0.00000000000E+00 0.  1.
         11   -1    0    0    0    0 -0.00000000000E+00 -0.00000000000E+00 -0.18250000000E+03  0.18250000000E+03  0.00000000000E+00 0. -1.
         25    2    1    2    0    0  0.62120747459E+01  0.13705142168E+03  0.50716800618E+02  0.19239178958E+03  0.12498289792E+03 0.  0.
         23    2    1    2    0    0 -0.62120747459E+01 -0.13705142168E+03 -0.50716800618E+02  0.17260821042E+03  0.91649977542E+02 0.  0.
        -11    1    4    4    0    0 -0.36610749282E+02 -0.11720109747E+03 -0.18700567936E+02  0.12420207507E+03  0.00000000000E+00 0.  1.
         11    1    4    4    0    0  0.30398674536E+02 -0.19850324217E+02 -0.32016232681E+02  0.48406135357E+02  0.00000000000E+00 0. -1.
        -15    1    3    3    0    0  0.14215439420E+02  0.15768478479E+03  0.28304831181E+02  0.16084430755E+03  0.17770000000E+01 0.  1.
         15    1    3    3    0    0 -0.80033646740E+01 -0.20633363110E+02  0.22411969437E+02  0.31547482029E+02  0.17770000000E+01 0.  1.
</event>
<event>
 8    1  0.3345745E-006  0.1928849E+03  0.7546771E-02  0.1060476E+00
        -11   -1    0    0    0    0  0.00000000000E+00  0.00000000000E+00  0.18250000000E+03  0.18250000000E+03  0.00000000000E+00 0.  1.
         11   -1    0    0    0    0 -0.00000000000E+00 -0.00000000000E+00 -0.18250000000E+03  0.18250000000E+03  0.00000000000E+00 0. -1.
         25    2    1    2    0    0 -0.12785958111E+03  0.57198916258E+02 -0.44258033180E+02  0.19288492017E+03  0.12500412163E+03 0.  0.
         23    2    1    2    0    0  0.12785958111E+03 -0.57198916258E+02  0.44258033180E+02  0.17211507983E+03  0.89694139728E+02 0.  0.
        -11    1    4    4    0    0  0.13143034908E+03 -0.47594346505E+02  0.60978781332E+02  0.15250432863E+03  0.00000000000E+00 0.  1.
         11    1    4    4    0    0 -0.35707679659E+01 -0.96045697533E+01 -0.16720748152E+02  0.19610751204E+02  0.00000000000E+00 0. -1.
        -15    1    3    3    0    0  0.17085582786E+01  0.28128909456E+01 -0.52006372628E+02  0.52140694757E+02  0.17770000000E+01 0. -1.
         15    1    3    3    0    0 -0.12956813939E+03  0.54386025313E+02  0.77483394477E+01  0.14074422541E+03  0.17770000000E+01 0. -1.
</event>
<event>
 8    1  0.3345745E-006  0.1927116E+03  0.7546771E-02  0.1060605E+00
        -11   -1    0    0    0    0  0.00000000000E+00  0.00000000000E+00  0.18250000000E+03  0.18250000000E+03  0.00000000000E+00 0. -1.
         11   -1    0    0    0    0 -0.00000000000E+00 -0.00000000000E+00 -0.18250000000E+03  0.18250000000E+03  0.00000000000E+00 0.  1.
         25    2    1    2    0    0 -0.56252766650E+02  0.16248855331E+02 -0.13447743660E+03  0.19271163236E+03  0.12500077295E+03 0.  0.
         23    2    1    2    0    0  0.56252766650E+02 -0.16248855331E+02  0.13447743660E+03  0.17228836764E+03  0.90391933341E+02 0.  0.
        -11    1    4    4    0    0 -0.21692864563E+02  0.93814354564E+01  0.45377190561E+02  0.51163279091E+02  0.00000000000E+00 0.  1.
         11    1    4    4    0    0  0.77945631213E+02 -0.25630290788E+02  0.89100246040E+02  0.12112508855E+03  0.00000000000E+00 0. -1.
        -15    1    3    3    0    0 -0.13255457011E+02  0.63237692378E+02 -0.32206381612E+02  0.72215798988E+02  0.17770000000E+01 0.  1.
         15    1    3    3    0    0 -0.42997309639E+02 -0.46988837047E+02 -0.10227105499E+03  0.12049583337E+03  0.17770000000E+01 0.  1.
</event>
<event>
 8    1  0.3345745E-006  0.1920332E+03  0.7546771E-02  0.1061110E+00
        -11   -1    0    0    0    0  0.00000000000E+00  0.00000000000E+00  0.18250000000E+03  0.18250000000E+03  0.00000000000E+00 0. -1.
         11   -1    0    0    0    0 -0.00000000000E+00 -0.00000000000E+00 -0.18250000000E+03  0.18250000000E+03  0.00000000000E+00 0.  1.
         25    2    1    2    0    0  0.13460616717E+03  0.44357614669E+02 -0.34132595078E+02  0.19203318099E+03  0.12500116133E+03 0.  0.
         23    2    1    2    0    0 -0.13460616717E+03 -0.44357614669E+02  0.34132595078E+02  0.17296681901E+03  0.93091719348E+02 0.  0.
        -11    1    4    4    0    0 -0.16549361823E+02 -0.84910158674E+01  0.45405872035E+02  0.49068033815E+02  0.00000000000E+00 0. -1.
         11    1    4    4    0    0 -0.11805680535E+03 -0.35866598802E+02 -0.11273276957E+02  0.12389878519E+03  0.00000000000E+00 0.  1.
        -15    1    3    3    0    0  0.69457885116E+02 -0.29629372610E+02 -0.52169298247E+02  0.91799188093E+02  0.17770000000E+01 0. -1.
         15    1    3    3    0    0  0.65148282059E+02  0.73986987279E+02  0.18036703169E+02  0.10023399290E+03  0.17770000000E+01 0. -1.
</event>
<event>
 8    1  0.3345745E-006  0.1928057E+03  0.7546771E-02  0.1060535E+00
        -11   -1    0    0    0    0  0.00000000000E+00  0.00000000000E+00  0.18250000000E+03  0.18250000000E+03  0.00000000000E+00 0. -1.
         11   -1    0    0    0    0 -0.00000000000E+00 -0.00000000000E+00 -0.18250000000E+03  0.18250000000E+03  0.00000000000E+00 0.  1.
         25    2    1    2    0    0 -0.81181229180E+02  0.41920639379E+02 -0.11489913797E+03  0.19280569561E+03  0.12499796948E+03 0.  0.
         23    2    1    2    0    0  0.81181229180E+02 -0.41920639379E+02  0.11489913797E+03  0.17219430439E+03  0.90007414039E+02 0.  0.
        -11    1    4    4    0    0  0.10116175320E+02 -0.52157215533E+02  0.68577095830E+02  0.86749813877E+02  0.00000000000E+00 0.  1.
         11    1    4    4    0    0  0.71065053860E+02  0.10236576154E+02  0.46322042141E+02  0.85444490516E+02  0.00000000000E+00 0. -1.
        -15    1    3    3    0    0  0.18181736320E+02  0.31065580608E+01 -0.77603262219E+02  0.79785025379E+02  0.17770000000E+01 0. -1.
         15    1    3    3    0    0 -0.99362965500E+02  0.38814081318E+02 -0.37295875752E+02  0.11302067023E+03  0.17770000000E+01 0. -1.
</event>
<event>
 8    1  0.3345745E-006  0.1923685E+03  0.7546771E-02  0.1060860E+00
        -11   -1    0    0    0    0  0.00000000000E+00  0.00000000000E+00  0.18250000000E+03  0.18250000000E+03  0.00000000000E+00 0.  1.
         11   -1    0    0    0    0 -0.00000000000E+00 -0.00000000000E+00 -0.18250000000E+03  0.18250000000E+03  0.00000000000E+00 0. -1.
         25    2    1    2    0    0 -0.95894816517E+02 -0.87299500082E+02  0.67577907505E+02  0.19236854541E+03  0.12498745990E+03 0.  0.
         23    2    1    2    0    0  0.95894816517E+02  0.87299500082E+02 -0.67577907505E+02  0.17263145459E+03  0.91748716506E+02 0.  0.
        -11    1    4    4    0    0  0.60016097418E+02 -0.63017115879E+00 -0.80697681466E+01  0.60559476739E+02  0.00000000000E+00 0.  1.
         11    1    4    4    0    0  0.35878719099E+02  0.87929671241E+02 -0.59508139358E+02  0.11207197785E+03  0.00000000000E+00 0. -1.
        -15    1    3    3    0    0  0.11417410036E+02 -0.11976121434E+02 -0.26287889707E+02  0.31112627835E+02  0.17770000000E+01 0. -1.
         15    1    3    3    0    0 -0.10731222655E+03 -0.75323378648E+02  0.93865797212E+02  0.16125591758E+03  0.17770000000E+01 0. -1.
</event>
<event>
 8    1  0.3345745E-006  0.1922613E+03  0.7546771E-02  0.1060940E+00
        -11   -1    0    0    0    0  0.00000000000E+00  0.00000000000E+00  0.18250000000E+03  0.18250000000E+03  0.00000000000E+00 0. -1.
         11   -1    0    0    0    0 -0.00000000000E+00 -0.00000000000E+00 -0.18250000000E+03  0.18250000000E+03  0.00000000000E+00 0.  1.
         25    2    1    2    0    0 -0.19238123815E+02 -0.14278733441E+03 -0.24118008695E+02  0.19226129712E+03  0.12499759898E+03 0.  0.
         23    2    1    2    0    0  0.19238123815E+02  0.14278733441E+03  0.24118008695E+02  0.17273870288E+03  0.92188138360E+02 0.  0.
        -11    1    4    4    0    0  0.51848525406E+00  0.79481533373E+02  0.58134622019E+02  0.98474449740E+02  0.00000000000E+00 0. -1.
         11    1    4    4    0    0  0.18719638561E+02  0.63305801038E+02 -0.34016613324E+02  0.74264253143E+02  0.00000000000E+00 0.  1.
        -15    1    3    3    0    0 -0.48697243522E+02 -0.48967349222E+01  0.12158513641E+01  0.48990157819E+02  0.17770000000E+01 0. -1.
         15    1    3    3    0    0  0.29459119708E+02 -0.13789059949E+03 -0.25333860059E+02  0.14327113930E+03  0.17770000000E+01 0. -1.
</event>
<event>
 8    1  0.3345745E-006  0.1922712E+03  0.7546771E-02  0.1060932E+00
        -11   -1    0    0    0    0  0.00000000000E+00  0.00000000000E+00  0.18250000000E+03  0.18250000000E+03  0.00000000000E+00 0.  1.
         11   -1    0    0    0    0 -0.00000000000E+00 -0.00000000000E+00 -0.18250000000E+03  0.18250000000E+03  0.00000000000E+00 0. -1.
         25    2    1    2    0    0 -0.10654137616E+03  0.60053147149E+02  0.79911472961E+02  0.19227117626E+03  0.12499966558E+03 0.  0.
         23    2    1    2    0    0  0.10654137616E+03 -0.60053147149E+02 -0.79911472961E+02  0.17272882374E+03  0.92151818872E+02 0.  0.
        -11    1    4    4    0    0  0.10649043829E+03 -0.28926987176E+02 -0.30770040644E+02  0.11455906527E+03  0.00000000000E+00 0.  1.
         11    1    4    4    0    0  0.50937866939E-01 -0.31126159972E+02 -0.49141432317E+02  0.58169758461E+02  0.00000000000E+00 0. -1.
        -15    1    3    3    0    0 -0.11752796216E+03  0.62958027419E+02  0.24367524322E+02  0.13554877010E+03  0.17770000000E+01 0.  1.
         15    1    3    3    0    0  0.10986585999E+02 -0.29048802706E+01  0.55543948639E+02  0.56722406161E+02  0.17770000000E+01 0.  1.
</event>
<event>
 8    1  0.3345745E-006  0.1926859E+03  0.7546771E-02  0.1060624E+00
        -11   -1    0    0    0    0  0.00000000000E+00  0.00000000000E+00  0.18250000000E+03  0.18250000000E+03  0.00000000000E+00 0. -1.
         11   -1    0    0    0    0 -0.00000000000E+00 -0.00000000000E+00 -0.18250000000E+03  0.18250000000E+03  0.00000000000E+00 0.  1.
         25    2    1    2    0    0 -0.69499938925E+01  0.13579520681E+03  0.54895445603E+02  0.19268593292E+03  0.12500287272E+03 0.  0.
         23    2    1    2    0    0  0.69499938925E+01 -0.13579520681E+03 -0.54895445603E+02  0.17231406708E+03  0.90498547817E+02 0.  0.
        -11    1    4    4    0    0  0.14800856459E+00 -0.11800090579E+02 -0.46361244807E+02  0.47839618145E+02  0.00000000000E+00 0.  1.
         11    1    4    4    0    0  0.68019853279E+01 -0.12399511623E+03 -0.85342007961E+01  0.12447444893E+03  0.00000000000E+00 0. -1.
        -15    1    3    3    0    0 -0.27055674474E+02  0.43828235887E+02  0.80070381302E+02  0.95222620595E+02  0.17770000000E+01 0.  1.
         15    1    3    3    0    0  0.20105680582E+02  0.91966970926E+02 -0.25174935698E+02  0.97463312325E+02  0.17770000000E+01 0.  1.
</event>
<event>
 8    1  0.3345745E-006  0.1915622E+03  0.7546771E-02  0.1061462E+00
        -11   -1    0    0    0    0  0.00000000000E+00  0.00000000000E+00  0.18250000000E+03  0.18250000000E+03  0.00000000000E+00 0.  1.
         11   -1    0    0    0    0 -0.00000000000E+00 -0.00000000000E+00 -0.18250000000E+03  0.18250000000E+03  0.00000000000E+00 0. -1.
         25    2    1    2    0    0  0.14373456299E+03 -0.15173890582E+02  0.13448055476E+02  0.19156220618E+03  0.12500142834E+03 0.  0.
         23    2    1    2    0    0 -0.14373456299E+03  0.15173890582E+02 -0.13448055476E+02  0.17343779382E+03  0.94920738396E+02 0.  0.
        -11    1    4    4    0    0 -0.64877117816E+02  0.53378631877E+02 -0.17102374571E+02  0.85736864727E+02  0.00000000000E+00 0.  1.
         11    1    4    4    0    0 -0.78857445170E+02 -0.38204741295E+02  0.36543190946E+01  0.87700929096E+02  0.00000000000E+00 0. -1.
        -15    1    3    3    0    0  0.11131080040E+03  0.35100305378E+02 -0.26380851691E+02  0.11967135325E+03  0.17770000000E+01 0. -1.
         15    1    3    3    0    0  0.32423762586E+02 -0.50274195960E+02  0.39828907167E+02  0.71890852929E+02  0.17770000000E+01 0. -1.
</event>
<event>
 8    1  0.3345745E-006  0.1925403E+03  0.7546771E-02  0.1060732E+00
        -11   -1    0    0    0    0  0.00000000000E+00  0.00000000000E+00  0.18250000000E+03  0.18250000000E+03  0.00000000000E+00 0. -1.
         11   -1    0    0    0    0 -0.00000000000E+00 -0.00000000000E+00 -0.18250000000E+03  0.18250000000E+03  0.00000000000E+00 0.  1.
         25    2    1    2    0    0 -0.89992145283E+02 -0.11111761983E+01  0.11554845650E+03  0.19254027415E+03  0.12498196047E+03 0.  0.
         23    2    1    2    0    0  0.89992145283E+02  0.11111761983E+01 -0.11554845650E+03  0.17245972585E+03  0.91055424415E+02 0.  0.
        -11    1    4    4    0    0  0.67281407954E+02  0.40857148333E+02 -0.52782326446E+02  0.94773774912E+02  0.00000000000E+00 0. -1.
         11    1    4    4    0    0  0.22710737329E+02 -0.39745972135E+02 -0.62766130057E+02  0.77685950939E+02  0.00000000000E+00 0.  1.
        -15    1    3    3    0    0 -0.29600685013E+02 -0.52668539671E+02  0.91302020630E+02  0.10949608360E+03  0.17770000000E+01 0.  1.
         15    1    3    3    0    0 -0.60391460270E+02  0.51557363473E+02  0.24246435872E+02  0.83044190545E+02  0.17770000000E+01 0.  1.
</event>
<event>
 8    1  0.3345745E-006  0.1916646E+03  0.7546771E-02  0.1061385E+00
        -11   -1    0    0    0    0  0.00000000000E+00  0.00000000000E+00  0.18250000000E+03  0.18250000000E+03  0.00000000000E+00 0.  1.
         11   -1    0    0    0    0 -0.00000000000E+00 -0.00000000000E+00 -0.18250000000E+03  0.18250000000E+03  0.00000000000E+00 0. -1.
         25    2    1    2    0    0 -0.87358098032E+02 -0.11519522585E+03 -0.14364885266E+02  0.19166456828E+03  0.12501031740E+03 0.  0.
         23    2    1    2    0    0  0.87358098032E+02  0.11519522585E+03  0.14364885266E+02  0.17333543172E+03  0.94538059049E+02 0.  0.
        -11    1    4    4    0    0  0.11855070220E+02  0.72943055337E+02  0.38749980471E+02  0.83443352032E+02  0.00000000000E+00 0.  1.
         11    1    4    4    0    0  0.75503027811E+02  0.42252170516E+02 -0.24385095205E+02  0.89892079685E+02  0.00000000000E+00 0. -1.
        -15    1    3    3    0    0 -0.46358084694E+02 -0.65137640358E+02  0.54792837153E+02  0.96940171963E+02  0.17770000000E+01 0.  1.
         15    1    3    3    0    0 -0.41000013338E+02 -0.50057585494E+02 -0.69157722418E+02  0.94724396321E+02  0.17770000000E+01 0.  1.
</event>
<event>
 8    1  0.3345745E-006  0.1920001E+03  0.7546771E-02  0.1061135E+00
        -11   -1    0    0    0    0  0.00000000000E+00  0.00000000000E+00  0.18250000000E+03  0.18250000000E+03  0.00000000000E+00 0.  1.
         11   -1    0    0    0    0 -0.00000000000E+00 -0.00000000000E+00 -0.18250000000E+03  0.18250000000E+03  0.00000000000E+00 0. -1.
         25    2    1    2    0    0  0.13401513744E+03  0.47303216816E+02  0.32262493606E+02  0.19200009423E+03  0.12500206521E+03 0.  0.
         23    2    1    2    0    0 -0.13401513744E+03 -0.47303216816E+02 -0.32262493606E+02  0.17299990577E+03  0.93222569800E+02 0.  0.
        -11    1    4    4    0    0 -0.43023820003E+01  0.17701633105E+02 -0.20514349503E+02  0.27435321047E+02  0.00000000000E+00 0. -1.
         11    1    4    4    0    0 -0.12971275544E+03 -0.65004849921E+02 -0.11748144103E+02  0.14556458472E+03  0.00000000000E+00 0.  1.
        -15    1    3    3    0    0  0.11252379966E+03  0.30338719001E+02  0.76875752147E+02  0.13962479135E+03  0.17770000000E+01 0. -1.
         15    1    3    3    0    0  0.21491337773E+02  0.16964497815E+02 -0.44613258541E+02  0.52375302883E+02  0.17770000000E+01 0. -1.
</event>
<event>
 8    1  0.3345745E-006  0.1928038E+03  0.7546771E-02  0.1060537E+00
        -11   -1    0    0    0    0  0.00000000000E+00  0.00000000000E+00  0.18250000000E+03  0.18250000000E+03  0.00000000000E+00 0. -1.
         11   -1    0    0    0    0 -0.00000000000E+00 -0.00000000000E+00 -0.18250000000E+03  0.18250000000E+03  0.00000000000E+00 0.  1.
         25    2    1    2    0    0 -0.14051835265E+03  0.34164693955E+02  0.25229633680E+02  0.19280383288E+03  0.12499659920E+03 0.  0.
         23    2    1    2    0    0  0.14051835265E+03 -0.34164693955E+02 -0.25229633680E+02  0.17219616712E+03  0.90013064665E+02 0.  0.
        -11    1    4    4    0    0  0.87183883180E+02  0.75791632778E+01  0.21246801664E+02  0.90054982002E+02  0.00000000000E+00 0. -1.
         11    1    4    4    0    0  0.53334469475E+02 -0.41743857233E+02 -0.46476435344E+02  0.82141185121E+02  0.00000000000E+00 0.  1.
        -15    1    3    3    0    0 -0.13311871107E+03  0.12128799212E+02 -0.26301352971E+02  0.13624469863E+03  0.17770000000E+01 0. -1.
         15    1    3    3    0    0 -0.73996415842E+01  0.22035894744E+02  0.51530986650E+02  0.56559134248E+02  0.17770000000E+01 0. -1.
</event>
<event>
 8    1  0.3345745E-006  0.1926915E+03  0.7546771E-02  0.1060620E+00
        -11   -1    0    0    0    0  0.00000000000E+00  0.00000000000E+00  0.18250000000E+03  0.18250000000E+03  0.00000000000E+00 0.  1.
         11   -1    0    0    0    0 -0.00000000000E+00 -0.00000000000E+00 -0.18250000000E+03  0.18250000000E+03  0.00000000000E+00 0. -1.
         25    2    1    2    0    0 -0.95333551728E+01  0.15374983253E+02 -0.14552333773E+03  0.19269152031E+03  0.12500282079E+03 0.  0.
         23    2    1    2    0    0  0.95333551728E+01 -0.15374983253E+02  0.14552333773E+03  0.17230847969E+03  0.90475938120E+02 0.  0.
        -11    1    4    4    0    0 -0.90970883724E-01  0.36988588094E+02  0.77952189448E+02  0.86282719966E+02  0.00000000000E+00 0.  1.
         11    1    4    4    0    0  0.96243260565E+01 -0.52363571347E+02  0.67571148279E+02  0.86025759724E+02  0.00000000000E+00 0. -1.
        -15    1    3    3    0    0  0.42063943754E+02  0.46192485311E+02 -0.51010210692E+02  0.80674161832E+02  0.17770000000E+01 0. -1.
         15    1    3    3    0    0 -0.51597298927E+02 -0.30817502058E+02 -0.94513127035E+02  0.11201735848E+03  0.17770000000E+01 0. -1.
</event>
<event>
 8    1  0.3345745E-006  0.1922029E+03  0.7546771E-02  0.1060983E+00
        -11   -1    0    0    0    0  0.00000000000E+00  0.00000000000E+00  0.18250000000E+03  0.18250000000E+03  0.00000000000E+00 0.  1.
         11   -1    0    0    0    0 -0.00000000000E+00 -0.00000000000E+00 -0.18250000000E+03  0.18250000000E+03  0.00000000000E+00 0. -1.
         25    2    1    2    0    0  0.76164792383E+01  0.12688260765E+03  0.71835858176E+02  0.19220290215E+03  0.12499743276E+03 0.  0.
         23    2    1    2    0    0 -0.76164792383E+01 -0.12688260765E+03 -0.71835858176E+02  0.17279709785E+03  0.92418827222E+02 0.  0.
        -11    1    4    4    0    0 -0.29014513175E+02 -0.50740676125E+02 -0.73225596385E+02  0.93693362382E+02  0.00000000000E+00 0.  1.
         11    1    4    4    0    0  0.21398033937E+02 -0.76141931521E+02  0.13897382093E+01  0.79103735464E+02  0.00000000000E+00 0. -1.
        -15    1    3    3    0    0 -0.34732887641E+01  0.10936458508E+03 -0.79745076078E+01  0.10972432139E+03  0.17770000000E+01 0. -1.
         15    1    3    3    0    0  0.11089768002E+02  0.17518022567E+02  0.79810365784E+02  0.82478580762E+02  0.17770000000E+01 0. -1.
</event>
<event>
 8    1  0.3345745E-006  0.1925432E+03  0.7546771E-02  0.1060730E+00
        -11   -1    0    0    0    0  0.00000000000E+00  0.00000000000E+00  0.18250000000E+03  0.18250000000E+03  0.00000000000E+00 0. -1.
         11   -1    0    0    0    0 -0.00000000000E+00 -0.00000000000E+00 -0.18250000000E+03  0.18250000000E+03  0.00000000000E+00 0.  1.
         25    2    1    2    0    0  0.18969249044E+02  0.14392586435E+03  0.19312018012E+02  0.19254317637E+03  0.12500173553E+03 0.  0.
         23    2    1    2    0    0 -0.18969249044E+02 -0.14392586435E+03 -0.19312018012E+02  0.17245682363E+03  0.91070934652E+02 0.  0.
        -11    1    4    4    0    0 -0.46123847653E+02 -0.11992180369E+03 -0.34689310321E+02  0.13308642520E+03  0.00000000000E+00 0.  1.
         11    1    4    4    0    0  0.27154598609E+02 -0.24004060670E+02  0.15377292309E+02  0.39370398436E+02  0.00000000000E+00 0. -1.
        -15    1    3    3    0    0  0.17732058516E+02  0.89451894357E+02  0.72397439708E+02  0.11645005070E+03  0.17770000000E+01 0. -1.
         15    1    3    3    0    0  0.12371905279E+01  0.54473969998E+02 -0.53085421696E+02  0.76093125664E+02  0.17770000000E+01 0. -1.
</event>
<event>
 8    1  0.3345745E-006  0.1901796E+03  0.7546771E-02  0.1062501E+00
        -11   -1    0    0    0    0  0.00000000000E+00  0.00000000000E+00  0.18250000000E+03  0.18250000000E+03  0.00000000000E+00 0. -1.
         11   -1    0    0    0    0 -0.00000000000E+00 -0.00000000000E+00 -0.18250000000E+03  0.18250000000E+03  0.00000000000E+00 0.  1.
         25    2    1    2    0    0  0.16615168315E+02  0.10820240824E+03 -0.92517814724E+02  0.19017960369E+03  0.12499964260E+03 0.  0.
         23    2    1    2    0    0 -0.16615168315E+02 -0.10820240824E+03  0.92517814724E+02  0.17482039631E+03  0.10009395566E+03 0.  0.
        -11    1    4    4    0    0 -0.43080250909E+02 -0.78790778006E+02  0.10016249019E+03  0.13452293172E+03  0.00000000000E+00 0. -1.
         11    1    4    4    0    0  0.26465082594E+02 -0.29411630236E+02 -0.76446754658E+01  0.40297464596E+02  0.00000000000E+00 0.  1.
        -15    1    3    3    0    0 -0.53625936461E+02  0.62339585254E+02 -0.46200857061E+02  0.94337913233E+02  0.17770000000E+01 0. -1.
         15    1    3    3    0    0  0.70241104776E+02  0.45862822988E+02 -0.46316957663E+02  0.95841690452E+02  0.17770000000E+01 0. -1.
</event>
<event>
 8    1  0.3345745E-006  0.1921320E+03  0.7546771E-02  0.1061036E+00
        -11   -1    0    0    0    0  0.00000000000E+00  0.00000000000E+00  0.18250000000E+03  0.18250000000E+03  0.00000000000E+00 0. -1.
         11   -1    0    0    0    0 -0.00000000000E+00 -0.00000000000E+00 -0.18250000000E+03  0.18250000000E+03  0.00000000000E+00 0.  1.
         25    2    1    2    0    0 -0.14451353849E+02  0.13320141087E+03  0.57761331659E+02  0.19213203741E+03  0.12500756329E+03 0.  0.
         23    2    1    2    0    0  0.14451353849E+02 -0.13320141087E+03 -0.57761331659E+02  0.17286796259E+03  0.92711938651E+02 0.  0.
        -11    1    4    4    0    0  0.38692769756E+02 -0.20555729580E+02 -0.33408431568E+02  0.55098019473E+02  0.00000000000E+00 0.  1.
         11    1    4    4    0    0 -0.24241415908E+02 -0.11264568129E+03 -0.24352900090E+02  0.11776994312E+03  0.00000000000E+00 0. -1.
        -15    1    3    3    0    0  0.41663579684E+02  0.85195730692E+02 -0.53064896192E+01  0.95002541867E+02  0.17770000000E+01 0. -1.
         15    1    3    3    0    0 -0.56114933533E+02  0.48005680179E+02  0.63067821278E+02  0.97129495544E+02  0.17770000000E+01 0. -1.
</event>
<event>
 8    1  0.3345745E-006  0.1896806E+03  0.7546771E-02  0.1062879E+00
        -11   -1    0    0    0    0  0.00000000000E+00  0.00000000000E+00  0.18250000000E+03  0.18250000000E+03  0.00000000000E+00 0.  1.
         11   -1    0    0    0    0 -0.00000000000E+00 -0.00000000000E+00 -0.18250000000E+03  0.18250000000E+03  0.00000000000E+00 0. -1.
         25    2    1    2    0    0 -0.48539437777E+02 -0.96632430255E+02 -0.93054098581E+02  0.18968060841E+03  0.12500305735E+03 0.  0.
         23    2    1    2    0    0  0.48539437777E+02  0.96632430255E+02  0.93054098581E+02  0.17531939159E+03  0.10190152211E+03 0.  0.
        -11    1    4    4    0    0  0.20331364014E+02  0.36611298688E+02  0.10021662936E+03  0.10861456787E+03  0.00000000000E+00 0.  1.
         11    1    4    4    0    0  0.28208073763E+02  0.60021131567E+02 -0.71625307793E+01  0.66704823717E+02  0.00000000000E+00 0. -1.
        -15    1    3    3    0    0 -0.50196109274E+02 -0.59846964256E+02 -0.12057462145E+03  0.14367569587E+03  0.17770000000E+01 0.  1.
         15    1    3    3    0    0  0.16566714968E+01 -0.36785465999E+02  0.27520522873E+02  0.46004912536E+02  0.17770000000E+01 0.  1.
</event>
<event>
 8    1  0.3345745E-006  0.1924042E+03  0.7546771E-02  0.1060833E+00
        -11   -1    0    0    0    0  0.00000000000E+00  0.00000000000E+00  0.18250000000E+03  0.18250000000E+03  0.00000000000E+00 0.  1.
         11   -1    0    0    0    0 -0.00000000000E+00 -0.00000000000E+00 -0.18250000000E+03  0.18250000000E+03  0.00000000000E+00 0. -1.
         25    2    1    2    0    0  0.67891056992E+02 -0.11059257128E+03  0.67502658830E+02  0.19240418160E+03  0.12499139052E+03 0.  0.
         23    2    1    2    0    0 -0.67891056992E+02  0.11059257128E+03 -0.67502658830E+02  0.17259581840E+03  0.91612199726E+02 0.  0.
        -11    1    4    4    0    0 -0.90611768835E+02  0.87074455523E+02 -0.48012792740E+02  0.13452762439E+03  0.00000000000E+00 0. -1.
         11    1    4    4    0    0  0.22720711843E+02  0.23518115759E+02 -0.19489866090E+02  0.38068194017E+02  0.00000000000E+00 0.  1.
        -15    1    3    3    0    0  0.13435694505E+01  0.26907517466E+02  0.56180125919E+01  0.27577880077E+02  0.17770000000E+01 0. -1.
         15    1    3    3    0    0  0.66547487541E+02 -0.13750008875E+03  0.61884646238E+02  0.16482630152E+03  0.17770000000E+01 0. -1.
</event>
<event>
 8    1  0.3345745E-006  0.1920712E+03  0.7546771E-02  0.1061081E+00
        -11   -1    0    0    0    0  0.00000000000E+00  0.00000000000E+00  0.18250000000E+03  0.18250000000E+03  0.00000000000E+00 0.  1.
         11   -1    0    0    0    0 -0.00000000000E+00 -0.00000000000E+00 -0.18250000000E+03  0.18250000000E+03  0.00000000000E+00 0. -1.
         25    2    1    2    0    0  0.10900118567E+03  0.95347009816E+02 -0.17161771332E+02  0.19207122353E+03  0.12499807101E+03 0.  0.
         23    2    1    2    0    0 -0.10900118567E+03 -0.95347009816E+02  0.17161771332E+02  0.17292877647E+03  0.92938283710E+02 0.  0.
        -11    1    4    4    0    0 -0.97264008369E+02 -0.25187312639E+02  0.16319709708E+02  0.10178910043E+03  0.00000000000E+00 0.  1.
         11    1    4    4    0    0 -0.11737177296E+02 -0.70159697177E+02  0.84206162347E+00  0.71139676037E+02  0.00000000000E+00 0. -1.
        -15    1    3    3    0    0  0.12548566792E+03  0.86403906684E+02 -0.44626268263E+02  0.15876696600E+03  0.17770000000E+01 0.  1.
         15    1    3    3    0    0 -0.16484482259E+02  0.89431031313E+01  0.27464496932E+02  0.33304257530E+02  0.17770000000E+01 0.  1.
</event>
<event>
 8    1  0.3345745E-006  0.1926865E+03  0.7546771E-02  0.1060624E+00
        -11   -1    0    0    0    0  0.00000000000E+00  0.00000000000E+00  0.18250000000E+03  0.18250000000E+03  0.00000000000E+00 0. -1.
         11   -1    0    0    0    0 -0.00000000000E+00 -0.00000000000E+00 -0.18250000000E+03  0.18250000000E+03  0.00000000000E+00 0.  1.
         25    2    1    2    0    0  0.13556742036E+03 -0.51591021043E+02  0.21514672424E+02  0.19268651834E+03  0.12500021722E+03 0.  0.
         23    2    1    2    0    0 -0.13556742036E+03  0.51591021043E+02 -0.21514672424E+02  0.17231348166E+03  0.90492518565E+02 0.  0.
        -11    1    4    4    0    0 -0.78049525894E+02  0.26723289258E+01 -0.48729723568E+02  0.92051375835E+02  0.00000000000E+00 0.  1.
         11    1    4    4    0    0 -0.57517894467E+02  0.48918692117E+02  0.27215051144E+02  0.80262105823E+02  0.00000000000E+00 0. -1.
        -15    1    3    3    0    0  0.47888022193E+02 -0.78659616497E+02 -0.16089020294E+02  0.93501937092E+02  0.17770000000E+01 0. -1.
         15    1    3    3    0    0  0.87679398167E+02  0.27068595454E+02  0.37603692717E+02  0.99184581250E+02  0.17770000000E+01 0. -1.
</event>
<event>
 8    1  0.3345745E-006  0.1917380E+03  0.7546771E-02  0.1061330E+00
        -11   -1    0    0    0    0  0.00000000000E+00  0.00000000000E+00  0.18250000000E+03  0.18250000000E+03  0.00000000000E+00 0.  1.
         11   -1    0    0    0    0 -0.00000000000E+00 -0.00000000000E+00 -0.18250000000E+03  0.18250000000E+03  0.00000000000E+00 0. -1.
         25    2    1    2    0    0 -0.78491438942E+02  0.82778606531E+02 -0.90138494700E+02  0.19173797957E+03  0.12500120359E+03 0.  0.
         23    2    1    2    0    0  0.78491438942E+02 -0.82778606531E+02  0.90138494700E+02  0.17326202043E+03  0.94242112712E+02 0.  0.
        -11    1    4    4    0    0  0.90480474248E+02 -0.47011876722E+02  0.89283078037E+02  0.13552970448E+03  0.00000000000E+00 0. -1.
         11    1    4    4    0    0 -0.11989035306E+02 -0.35766729809E+02  0.85541666302E+00  0.37732315944E+02  0.00000000000E+00 0.  1.
        -15    1    3    3    0    0  0.53630736692E+01 -0.26226493107E+02 -0.33688185963E+02  0.43065567480E+02  0.17770000000E+01 0. -1.
         15    1    3    3    0    0 -0.83854512612E+02  0.10900509964E+03 -0.56450308737E+02  0.14867241209E+03  0.17770000000E+01 0. -1.
</event>
<event>
 8    1  0.3345745E-006  0.1932622E+03  0.7546771E-02  0.1060197E+00
        -11   -1    0    0    0    0  0.00000000000E+00  0.00000000000E+00  0.18250000000E+03  0.18250000000E+03  0.00000000000E+00 0.  1.
         11   -1    0    0    0    0 -0.00000000000E+00 -0.00000000000E+00 -0.18250000000E+03  0.18250000000E+03  0.00000000000E+00 0. -1.
         25    2    1    2    0    0  0.96450793260E+02  0.11078991221E+03  0.12260358154E+02  0.19326224057E+03  0.12499126801E+03 0.  0.
         23    2    1    2    0    0 -0.96450793260E+02 -0.11078991221E+03 -0.12260358154E+02  0.17173775943E+03  0.88127075656E+02 0.  0.
        -11    1    4    4    0    0 -0.52527884810E+02 -0.41819606074E+02 -0.47963756987E+02  0.82514120725E+02  0.00000000000E+00 0. -1.
         11    1    4    4    0    0 -0.43922908450E+02 -0.68970306140E+02  0.35703398833E+02  0.89223638707E+02  0.00000000000E+00 0.  1.
        -15    1    3    3    0    0  0.12012970727E+01  0.96160972456E+02  0.68872360765E+00  0.96187357836E+02  0.17770000000E+01 0.  1.
         15    1    3    3    0    0  0.95249496187E+02  0.14628939759E+02  0.11571634546E+02  0.97074882732E+02  0.17770000000E+01 0.  1.
</event>
<event>
 8    1  0.3345745E-006  0.1921968E+03  0.7546771E-02  0.1060988E+00
        -11   -1    0    0    0    0  0.00000000000E+00  0.00000000000E+00  0.18250000000E+03  0.18250000000E+03  0.00000000000E+00 0.  1.
         11   -1    0    0    0    0 -0.00000000000E+00 -0.00000000000E+00 -0.18250000000E+03  0.18250000000E+03  0.00000000000E+00 0. -1.
         25    2    1    2    0    0 -0.99641242203E+02 -0.80238664485E+02  0.70344243092E+02  0.19219675650E+03  0.12499864097E+03 0.  0.
         23    2    1    2    0    0  0.99641242203E+02  0.80238664485E+02 -0.70344243092E+02  0.17280324350E+03  0.92444729451E+02 0.  0.
        -11    1    4    4    0    0  0.36007072712E+02  0.80106559815E+02 -0.64367887025E+02  0.10888891170E+03  0.00000000000E+00 0. -1.
         11    1    4    4    0    0  0.63634169491E+02  0.13210467041E+00 -0.59763560679E+01  0.63914331806E+02  0.00000000000E+00 0.  1.
        -15    1    3    3    0    0 -0.12665409334E+03 -0.48724087039E+02  0.42617058731E+02  0.14224861139E+03  0.17770000000E+01 0. -1.
         15    1    3    3    0    0  0.27012851138E+02 -0.31514577447E+02  0.27727184361E+02  0.49948145109E+02  0.17770000000E+01 0. -1.
</event>
<event>
 8    1  0.3345745E-006  0.1918919E+03  0.7546771E-02  0.1061215E+00
        -11   -1    0    0    0    0  0.00000000000E+00  0.00000000000E+00  0.18250000000E+03  0.18250000000E+03  0.00000000000E+00 0.  1.
         11   -1    0    0    0    0 -0.00000000000E+00 -0.00000000000E+00 -0.18250000000E+03  0.18250000000E+03  0.00000000000E+00 0. -1.
         25    2    1    2    0    0  0.13087881076E+03 -0.60606047871E+02  0.19894215816E+02  0.19189193615E+03  0.12499751674E+03 0.  0.
         23    2    1    2    0    0 -0.13087881076E+03  0.60606047871E+02 -0.19894215816E+02  0.17310806385E+03  0.93639018593E+02 0.  0.
        -11    1    4    4    0    0 -0.82756776521E+02  0.24371626934E+02  0.33563622938E+02  0.92569849542E+02  0.00000000000E+00 0.  1.
         11    1    4    4    0    0 -0.48122034240E+02  0.36234420937E+02 -0.53457838754E+02  0.80538214310E+02  0.00000000000E+00 0. -1.
        -15    1    3    3    0    0  0.73262834677E+02  0.33345586402E+02  0.50644245383E+01  0.80673274400E+02  0.17770000000E+01 0. -1.
         15    1    3    3    0    0  0.57615976083E+02 -0.93951634273E+02  0.14829791277E+02  0.11121866175E+03  0.17770000000E+01 0. -1.
</event>
<event>
 8    1  0.3345745E-006  0.1925666E+03  0.7546771E-02  0.1060713E+00
        -11   -1    0    0    0    0  0.00000000000E+00  0.00000000000E+00  0.18250000000E+03  0.18250000000E+03  0.00000000000E+00 0.  1.
         11   -1    0    0    0    0 -0.00000000000E+00 -0.00000000000E+00 -0.18250000000E+03  0.18250000000E+03  0.00000000000E+00 0. -1.
         25    2    1    2    0    0  0.69938730518E+02  0.14690602274E+02  0.12785514205E+03  0.19256662568E+03  0.12501091215E+03 0.  0.
         23    2    1    2    0    0 -0.69938730518E+02 -0.14690602274E+02 -0.12785514205E+03  0.17243337432E+03  0.90989512628E+02 0.  0.
        -11    1    4    4    0    0 -0.52110193833E+02 -0.52425375215E+02 -0.79351379213E+02  0.10844599417E+03  0.00000000000E+00 0.  1.
         11    1    4    4    0    0 -0.17828536685E+02  0.37734772941E+02 -0.48503762837E+02  0.63987380151E+02  0.00000000000E+00 0. -1.
        -15    1    3    3    0    0  0.10146471097E+03 -0.51168676594E+01  0.68725060463E+02  0.12266850277E+03  0.17770000000E+01 0.  1.
         15    1    3    3    0    0 -0.31525980457E+02  0.19807469933E+02  0.59130081586E+02  0.69898122910E+02  0.17770000000E+01 0.  1.
</event>
<event>
 8    1  0.3345745E-006  0.1897628E+03  0.7546771E-02  0.1062816E+00
        -11   -1    0    0    0    0  0.00000000000E+00  0.00000000000E+00  0.18250000000E+03  0.18250000000E+03  0.00000000000E+00 0. -1.
         11   -1    0    0    0    0 -0.00000000000E+00 -0.00000000000E+00 -0.18250000000E+03  0.18250000000E+03  0.00000000000E+00 0.  1.
         25    2    1    2    0    0 -0.70841506434E+02  0.44263955786E+02  0.11578986897E+03  0.18976275562E+03  0.12499917140E+03 0.  0.
         23    2    1    2    0    0  0.70841506434E+02 -0.44263955786E+02 -0.11578986897E+03  0.17523724438E+03  0.10160207303E+03 0.  0.
        -11    1    4    4    0    0  0.80087357035E+02 -0.30550395200E+02 -0.12843953197E+03  0.15441510541E+03  0.00000000000E+00 0.  1.
         11    1    4    4    0    0 -0.92458506005E+01 -0.13713560586E+02  0.12649663003E+02  0.20822138972E+02  0.00000000000E+00 0. -1.
        -15    1    3    3    0    0 -0.85647389076E+01 -0.19101393247E+02  0.96590476147E+02  0.98848853245E+02  0.17770000000E+01 0. -1.
         15    1    3    3    0    0 -0.62276767527E+02  0.63365349034E+02  0.19199392823E+02  0.90913902378E+02  0.17770000000E+01 0. -1.
</event>
<event>
 8    1  0.3345745E-006  0.1924112E+03  0.7546771E-02  0.1060828E+00
        -11   -1    0    0    0    0  0.00000000000E+00  0.00000000000E+00  0.18250000000E+03  0.18250000000E+03  0.00000000000E+00 0. -1.
         11   -1    0    0    0    0 -0.00000000000E+00 -0.00000000000E+00 -0.18250000000E+03  0.18250000000E+03  0.00000000000E+00 0.  1.
         25    2    1    2    0    0  0.62546148531E+02 -0.11660065552E+03  0.62364324345E+02  0.19241121938E+03  0.12500013931E+03 0.  0.
         23    2    1    2    0    0 -0.62546148531E+02  0.11660065552E+03 -0.62364324345E+02  0.17258878062E+03  0.91596095348E+02 0.  0.
        -11    1    4    4    0    0 -0.84494340771E+02  0.90796910962E+02 -0.62110462223E+02  0.13871222794E+03  0.00000000000E+00 0.  1.
         11    1    4    4    0    0  0.21948192240E+02  0.25803744556E+02 -0.25386212125E+00  0.33876552683E+02  0.00000000000E+00 0. -1.
        -15    1    3    3    0    0 -0.28733015954E+01 -0.10607095458E+03  0.67751152103E+02  0.12590742476E+03  0.17770000000E+01 0. -1.
         15    1    3    3    0    0  0.65419450126E+02 -0.10529700934E+02 -0.53868277581E+01  0.66503794620E+02  0.17770000000E+01 0. -1.
</event>
<event>
 8    1  0.3345745E-006  0.1928758E+03  0.7546771E-02  0.1060483E+00
        -11   -1    0    0    0    0  0.00000000000E+00  0.00000000000E+00  0.18250000000E+03  0.18250000000E+03  0.00000000000E+00 0. -1.
         11   -1    0    0    0    0 -0.00000000000E+00 -0.00000000000E+00 -0.18250000000E+03  0.18250000000E+03  0.00000000000E+00 0.  1.
         25    2    1    2    0    0  0.24684504486E+02 -0.35929626999E+02 -0.14027287537E+03  0.19287584521E+03  0.12499739695E+03 0.  0.
         23    2    1    2    0    0 -0.24684504486E+02  0.35929626999E+02  0.14027287537E+03  0.17212415479E+03  0.89721693251E+02 0.  0.
        -11    1    4    4    0    0 -0.42639519830E+02 -0.63402675180E+01  0.29576035892E+02  0.52278767608E+02  0.00000000000E+00 0.  1.
         11    1    4    4    0    0  0.17955015345E+02  0.42269894517E+02  0.11069683948E+03  0.11984538718E+03  0.00000000000E+00 0. -1.
        -15    1    3    3    0    0  0.17464565361E+02  0.92793866539E+01 -0.14542169855E+03  0.14677106731E+03  0.17770000000E+01 0.  1.
         15    1    3    3    0    0  0.72199391249E+01 -0.45209013653E+02  0.51488231807E+01  0.46104777904E+02  0.17770000000E+01 0.  1.
</event>
<event>
 8    1  0.3345745E-006  0.1925222E+03  0.7546771E-02  0.1060746E+00
        -11   -1    0    0    0    0  0.00000000000E+00  0.00000000000E+00  0.18250000000E+03  0.18250000000E+03  0.00000000000E+00 0.  1.
         11   -1    0    0    0    0 -0.00000000000E+00 -0.00000000000E+00 -0.18250000000E+03  0.18250000000E+03  0.00000000000E+00 0. -1.
         25    2    1    2    0    0 -0.38047795824E+02 -0.10988995316E+03  0.88974226362E+02  0.19252215198E+03  0.12499971790E+03 0.  0.
         23    2    1    2    0    0  0.38047795824E+02  0.10988995316E+03 -0.88974226362E+02  0.17247784802E+03  0.91152391781E+02 0.  0.
        -11    1    4    4    0    0 -0.10435942309E+02  0.54690974785E+02 -0.81399647796E+02  0.98620050071E+02  0.00000000000E+00 0. -1.
         11    1    4    4    0    0  0.48483738132E+02  0.55198978374E+02 -0.75745785660E+01  0.73857797945E+02  0.00000000000E+00 0.  1.
        -15    1    3    3    0    0 -0.84264046353E+01  0.63215125179E+01 -0.24924721026E+02  0.27117619048E+02  0.17770000000E+01 0.  1.
         15    1    3    3    0    0 -0.29621391188E+02 -0.11621146568E+03  0.11389894739E+03  0.16540453294E+03  0.17770000000E+01 0.  1.
</event>
<event>
 8    1  0.3345745E-006  0.1921581E+03  0.7546771E-02  0.1061017E+00
        -11   -1    0    0    0    0  0.00000000000E+00  0.00000000000E+00  0.18250000000E+03  0.18250000000E+03  0.00000000000E+00 0. -1.
         11   -1    0    0    0    0 -0.00000000000E+00 -0.00000000000E+00 -0.18250000000E+03  0.18250000000E+03  0.00000000000E+00 0.  1.
         25    2    1    2    0    0 -0.29749047002E+01  0.79920527396E+02  0.12208088573E+03  0.19215813538E+03  0.12499946231E+03 0.  0.
         23    2    1    2    0    0  0.29749047002E+01 -0.79920527396E+02 -0.12208088573E+03  0.17284186462E+03  0.92598200556E+02 0.  0.
        -11    1    4    4    0    0  0.26565181837E+02 -0.77503773925E+01  0.15950113954E+01  0.27718609220E+02  0.00000000000E+00 0. -1.
         11    1    4    4    0    0 -0.23590277137E+02 -0.72170150003E+02 -0.12367589712E+03  0.14512325539E+03  0.00000000000E+00 0.  1.
        -15    1    3    3    0    0 -0.92293273944E+00  0.10714566989E+03  0.56604404902E+02  0.12119514332E+03  0.17770000000E+01 0. -1.
         15    1    3    3    0    0 -0.20519719608E+01 -0.27225142492E+02  0.65476480827E+02  0.70962992067E+02  0.17770000000E+01 0. -1.
</event>
<event>
 8    1  0.3345745E-006  0.1918537E+03  0.7546771E-02  0.1061244E+00
        -11   -1    0    0    0    0  0.00000000000E+00  0.00000000000E+00  0.18250000000E+03  0.18250000000E+03  0.00000000000E+00 0.  1.
         11   -1    0    0    0    0 -0.00000000000E+00 -0.00000000000E+00 -0.18250000000E+03  0.18250000000E+03  0.00000000000E+00 0. -1.
         25    2    1    2    0    0 -0.30497017843E+02  0.16896685916E+02  0.14130714889E+03  0.19185372615E+03  0.12499830327E+03 0.  0.
         23    2    1    2    0    0  0.30497017843E+02 -0.16896685916E+02 -0.14130714889E+03  0.17314627385E+03  0.93788889145E+02 0.  0.
        -11    1    4    4    0    0 -0.29476560592E+02 -0.24799236589E+02 -0.43117965410E+02  0.57818930298E+02  0.00000000000E+00 0.  1.
         11    1    4    4    0    0  0.59973578435E+02  0.79025506724E+01 -0.98189183480E+02  0.11532734355E+03  0.00000000000E+00 0. -1.
        -15    1    3    3    0    0  0.93046675892E+01  0.93336926775E+01  0.14982663828E+03  0.15041567047E+03  0.17770000000E+01 0.  1.
         15    1    3    3    0    0 -0.39801685433E+02  0.75629932390E+01 -0.85194893871E+01  0.41438055679E+02  0.17770000000E+01 0.  1.
</event>
<event>
 8    1  0.3345745E-006  0.1934551E+03  0.7546771E-02  0.1060054E+00
        -11   -1    0    0    0    0  0.00000000000E+00  0.00000000000E+00  0.18250000000E+03  0.18250000000E+03  0.00000000000E+00 0.  1.
         11   -1    0    0    0    0 -0.00000000000E+00 -0.00000000000E+00 -0.18250000000E+03  0.18250000000E+03  0.00000000000E+00 0. -1.
         25    2    1    2    0    0  0.17451447676E+02 -0.68624333418E+02 -0.12956315189E+03  0.19345507811E+03  0.12499761900E+03 0.  0.
         23    2    1    2    0    0 -0.17451447676E+02  0.68624333418E+02  0.12956315189E+03  0.17154492189E+03  0.87333829259E+02 0.  0.
        -11    1    4    4    0    0 -0.40481686846E+02  0.36676166838E+02  0.25510700105E+02  0.60288506398E+02  0.00000000000E+00 0. -1.
         11    1    4    4    0    0  0.23030239169E+02  0.31948166580E+02  0.10405245179E+03  0.11125641549E+03  0.00000000000E+00 0.  1.
        -15    1    3    3    0    0 -0.43572317379E+02 -0.40783885877E+02 -0.10723943203E+03  0.12274088846E+03  0.17770000000E+01 0.  1.
         15    1    3    3    0    0  0.61023765055E+02 -0.27840447542E+02 -0.22323719864E+02  0.70714189654E+02  0.17770000000E+01 0.  1.
</event>
<event>
 8    1  0.3345745E-006  0.1925380E+03  0.7546771E-02  0.1060734E+00
        -11   -1    0    0    0    0  0.00000000000E+00  0.00000000000E+00  0.18250000000E+03  0.18250000000E+03  0.00000000000E+00 0. -1.
         11   -1    0    0    0    0 -0.00000000000E+00 -0.00000000000E+00 -0.18250000000E+03  0.18250000000E+03  0.00000000000E+00 0.  1.
         25    2    1    2    0    0 -0.38111440027E+02  0.11425035217E+03 -0.83308122817E+02  0.19253796222E+03  0.12499999495E+03 0.  0.
         23    2    1    2    0    0  0.38111440027E+02 -0.11425035217E+03  0.83308122817E+02  0.17246203778E+03  0.91089441298E+02 0.  0.
        -11    1    4    4    0    0  0.59733940920E+02 -0.49845978059E+02  0.21746451613E+02  0.80781640143E+02  0.00000000000E+00 0.  1.
         11    1    4    4    0    0 -0.21622500892E+02 -0.64404374110E+02  0.61561671204E+02  0.91680397636E+02  0.00000000000E+00 0. -1.
        -15    1    3    3    0    0 -0.19799133970E+02  0.13472482124E+03 -0.91202499807E+02  0.16390191232E+03  0.17770000000E+01 0.  1.
         15    1    3    3    0    0 -0.18312306058E+02 -0.20474469066E+02  0.78943769898E+01  0.28636049898E+02  0.17770000000E+01 0.  1.
</event>
<event>
 8    1  0.3345745E-006  0.1925263E+03  0.7546771E-02  0.1060743E+00
        -11   -1    0    0    0    0  0.00000000000E+00  0.00000000000E+00  0.18250000000E+03  0.18250000000E+03  0.00000000000E+00 0. -1.
         11   -1    0    0    0    0 -0.00000000000E+00 -0.00000000000E+00 -0.18250000000E+03  0.18250000000E+03  0.00000000000E+00 0.  1.
         25    2    1    2    0    0 -0.71883489709E+02  0.38403535979E+02 -0.12165451471E+03  0.19252629214E+03  0.12499793817E+03 0.  0.
         23    2    1    2    0    0  0.71883489709E+02 -0.38403535979E+02  0.12165451471E+03  0.17247370786E+03  0.91133370855E+02 0.  0.
        -11    1    4    4    0    0 -0.29927081684E+01 -0.43614743697E+02  0.25919626064E+02  0.50823510163E+02  0.00000000000E+00 0.  1.
         11    1    4    4    0    0  0.74876197877E+02  0.52112077178E+01  0.95734888649E+02  0.12165019769E+03  0.00000000000E+00 0. -1.
        -15    1    3    3    0    0 -0.89279149957E+02  0.12866585333E+02 -0.28885125332E+02  0.94730268814E+02  0.17770000000E+01 0.  1.
         15    1    3    3    0    0  0.17395660248E+02  0.25536950646E+02 -0.92769389381E+02  0.97796023329E+02  0.17770000000E+01 0.  1.
</event>
<event>
 8    1  0.3345745E-006  0.1921815E+03  0.7546771E-02  0.1060999E+00
        -11   -1    0    0    0    0  0.00000000000E+00  0.00000000000E+00  0.18250000000E+03  0.18250000000E+03  0.00000000000E+00 0.  1.
         11   -1    0    0    0    0 -0.00000000000E+00 -0.00000000000E+00 -0.18250000000E+03  0.18250000000E+03  0.00000000000E+00 0. -1.
         25    2    1    2    0    0  0.75389104078E+02 -0.12118577437E+03  0.30624567706E+02  0.19218152666E+03  0.12500546435E+03 0.  0.
         23    2    1    2    0    0 -0.75389104078E+02  0.12118577437E+03 -0.30624567706E+02  0.17281847334E+03  0.92514061947E+02 0.  0.
        -11    1    4    4    0    0 -0.23708117444E+01  0.43560846432E+02  0.27359462451E+02  0.51494740273E+02  0.00000000000E+00 0.  1.
         11    1    4    4    0    0 -0.73018292334E+02  0.77624927941E+02 -0.57984030157E+02  0.12132373307E+03  0.00000000000E+00 0. -1.
        -15    1    3    3    0    0  0.47570815595E+02 -0.69703481165E+02  0.79473430879E+02  0.11593421293E+03  0.17770000000E+01 0. -1.
         15    1    3    3    0    0  0.27818288483E+02 -0.51482293208E+02 -0.48848863173E+02  0.76247313726E+02  0.17770000000E+01 0. -1.
</event>
<event>
 8    1  0.3345745E-006  0.1928319E+03  0.7546771E-02  0.1060516E+00
        -11   -1    0    0    0    0  0.00000000000E+00  0.00000000000E+00  0.18250000000E+03  0.18250000000E+03  0.00000000000E+00 0.  1.
         11   -1    0    0    0    0 -0.00000000000E+00 -0.00000000000E+00 -0.18250000000E+03  0.18250000000E+03  0.00000000000E+00 0. -1.
         25    2    1    2    0    0  0.68164096097E+02  0.28522415070E+02  0.12688996923E+03  0.19283194323E+03  0.12499288732E+03 0.  0.
         23    2    1    2    0    0 -0.68164096097E+02 -0.28522415070E+02 -0.12688996923E+03  0.17216805677E+03  0.89893844749E+02 0.  0.
        -11    1    4    4    0    0 -0.40020599785E+02 -0.36023451988E+01 -0.12840635505E+03  0.13454671053E+03  0.00000000000E+00 0. -1.
         11    1    4    4    0    0 -0.28143496312E+02 -0.24920069871E+02  0.15163858191E+01  0.37621346241E+02  0.00000000000E+00 0.  1.
        -15    1    3    3    0    0  0.17079286274E+02  0.59727457317E+02  0.11651360453E+03  0.13205169043E+03  0.17770000000E+01 0.  1.
         15    1    3    3    0    0  0.51084809823E+02 -0.31205042247E+02  0.10376364703E+02  0.60780252794E+02  0.17770000000E+01 0.  1.
</event>
<event>
 8    1  0.3345745E-006  0.1922454E+03  0.7546771E-02  0.1060952E+00
        -11   -1    0    0    0    0  0.00000000000E+00  0.00000000000E+00  0.18250000000E+03  0.18250000000E+03  0.00000000000E+00 0. -1.
         11   -1    0    0    0    0 -0.00000000000E+00 -0.00000000000E+00 -0.18250000000E+03  0.18250000000E+03  0.00000000000E+00 0.  1.
         25    2    1    2    0    0 -0.64390487270E+02  0.11905298748E+03  0.54881576026E+02  0.19224538568E+03  0.12500620884E+03 0.  0.
         23    2    1    2    0    0  0.64390487270E+02 -0.11905298748E+03 -0.54881576026E+02  0.17275461432E+03  0.92262780697E+02 0.  0.
        -11    1    4    4    0    0  0.16824766892E+02 -0.31697619761E+02 -0.63476288791E+02  0.72918112415E+02  0.00000000000E+00 0.  1.
         11    1    4    4    0    0  0.47565720377E+02 -0.87355367724E+02  0.85947127653E+01  0.99836501905E+02  0.00000000000E+00 0. -1.
        -15    1    3    3    0    0 -0.86036364917E+02  0.94317595464E+02  0.80149152521E+02  0.15074849678E+03  0.17770000000E+01 0. -1.
         15    1    3    3    0    0  0.21645877648E+02  0.24735392021E+02 -0.25267576495E+02  0.41496888901E+02  0.17770000000E+01 0. -1.
</event>
<event>
 8    1  0.3345745E-006  0.1919473E+03  0.7546771E-02  0.1061174E+00
        -11   -1    0    0    0    0  0.00000000000E+00  0.00000000000E+00  0.18250000000E+03  0.18250000000E+03  0.00000000000E+00 0. -1.
         11   -1    0    0    0    0 -0.00000000000E+00 -0.00000000000E+00 -0.18250000000E+03  0.18250000000E+03  0.00000000000E+00 0.  1.
         25    2    1    2    0    0  0.11269346235E+03 -0.75693016460E+02  0.52816465007E+02  0.19194727365E+03  0.12499971076E+03 0.  0.
         23    2    1    2    0    0 -0.11269346235E+03  0.75693016460E+02 -0.52816465007E+02  0.17305272635E+03  0.93426002390E+02 0.  0.
        -11    1    4    4    0    0 -0.50745971677E+02  0.11490822225E+02 -0.64725695451E+02  0.83045820416E+02  0.00000000000E+00 0.  1.
         11    1    4    4    0    0 -0.61947490675E+02  0.64202194235E+02  0.11909230445E+02  0.90006905931E+02  0.00000000000E+00 0. -1.
        -15    1    3    3    0    0  0.81626102265E+02 -0.10209474148E+03  0.69271539238E+02  0.14794546524E+03  0.17770000000E+01 0.  1.
         15    1    3    3    0    0  0.31067360087E+02  0.26401725016E+02 -0.16455074231E+02  0.44001808412E+02  0.17770000000E+01 0.  1.
</event>
<event>
 8    1  0.3345745E-006  0.1916152E+03  0.7546771E-02  0.1061422E+00
        -11   -1    0    0    0    0  0.00000000000E+00  0.00000000000E+00  0.18250000000E+03  0.18250000000E+03  0.00000000000E+00 0.  1.
         11   -1    0    0    0    0 -0.00000000000E+00 -0.00000000000E+00 -0.18250000000E+03  0.18250000000E+03  0.00000000000E+00 0. -1.
         25    2    1    2    0    0  0.39326044647E+02  0.89537732381E+02  0.10736388509E+03  0.19161516508E+03  0.12500329739E+03 0.  0.
         23    2    1    2    0    0 -0.39326044647E+02 -0.89537732381E+02 -0.10736388509E+03  0.17338483492E+03  0.94719342536E+02 0.  0.
        -11    1    4    4    0    0 -0.45874441618E+01 -0.99066703058E+02 -0.69353031894E+02  0.12101693820E+03  0.00000000000E+00 0. -1.
         11    1    4    4    0    0 -0.34738600486E+02  0.95289706768E+01 -0.38010853200E+02  0.52367896720E+02  0.00000000000E+00 0.  1.
        -15    1    3    3    0    0 -0.37935289324E+02  0.55878417995E+02  0.75966661564E+02  0.10166403087E+03  0.17770000000E+01 0.  1.
         15    1    3    3    0    0  0.77261333971E+02  0.33659314386E+02  0.31397223529E+02  0.89951134213E+02  0.17770000000E+01 0.  1.
</event>
<event>
 8    1  0.3345745E-006  0.1928536E+03  0.7546771E-02  0.1060500E+00
        -11   -1    0    0    0    0  0.00000000000E+00  0.00000000000E+00  0.18250000000E+03  0.18250000000E+03  0.00000000000E+00 0. -1.
         11   -1    0    0    0    0 -0.00000000000E+00 -0.00000000000E+00 -0.18250000000E+03  0.18250000000E+03  0.00000000000E+00 0.  1.
         25    2    1    2    0    0 -0.14476518989E+03  0.10562639730E+02 -0.22325822333E+02  0.19285357642E+03  0.12500212012E+03 0.  0.
         23    2    1    2    0    0  0.14476518989E+03 -0.10562639730E+02  0.22325822333E+02  0.17214642358E+03  0.89818813422E+02 0.  0.
        -11    1    4    4    0    0  0.14002631869E+01  0.60994309115E+01 -0.20631204746E+02  0.21559462046E+02  0.00000000000E+00 0.  1.
         11    1    4    4    0    0  0.14336492670E+03 -0.16662070641E+02  0.42957027080E+02  0.15058696153E+03  0.00000000000E+00 0. -1.
        -15    1    3    3    0    0 -0.52338059418E+02  0.65464706120E+02 -0.53563889995E+01  0.84004457281E+02  0.17770000000E+01 0.  1.
         15    1    3    3    0    0 -0.92427130474E+02 -0.54902066390E+02 -0.16969433334E+02  0.10884911914E+03  0.17770000000E+01 0.  1.
</event>
<event>
 8    1  0.3345745E-006  0.1928695E+03  0.7546771E-02  0.1060488E+00
        -11   -1    0    0    0    0  0.00000000000E+00  0.00000000000E+00  0.18250000000E+03  0.18250000000E+03  0.00000000000E+00 0.  1.
         11   -1    0    0    0    0 -0.00000000000E+00 -0.00000000000E+00 -0.18250000000E+03  0.18250000000E+03  0.00000000000E+00 0. -1.
         25    2    1    2    0    0 -0.71539774904E+01  0.80627827981E+02 -0.12257110869E+03  0.19286952681E+03  0.12499180632E+03 0.  0.
         23    2    1    2    0    0  0.71539774904E+01 -0.80627827981E+02  0.12257110869E+03  0.17213047319E+03  0.89739607066E+02 0.  0.
        -11    1    4    4    0    0 -0.25173815473E+02  0.25845316890E+01  0.53755095790E+02  0.59413896631E+02  0.00000000000E+00 0.  1.
         11    1    4    4    0    0  0.32327792964E+02 -0.83212359670E+02  0.68816012900E+02  0.11271657656E+03  0.00000000000E+00 0. -1.
        -15    1    3    3    0    0 -0.73824022651E+01  0.11202597264E+03 -0.72219213349E+02  0.13350314946E+03  0.17770000000E+01 0.  1.
         15    1    3    3    0    0  0.22842477467E+00 -0.31398144663E+02 -0.50351895341E+02  0.59366377350E+02  0.17770000000E+01 0.  1.
</event>
<event>
 8    1  0.3345745E-006  0.1924689E+03  0.7546771E-02  0.1060785E+00
        -11   -1    0    0    0    0  0.00000000000E+00  0.00000000000E+00  0.18250000000E+03  0.18250000000E+03  0.00000000000E+00 0.  1.
         11   -1    0    0    0    0 -0.00000000000E+00 -0.00000000000E+00 -0.18250000000E+03  0.18250000000E+03  0.00000000000E+00 0. -1.
         25    2    1    2    0    0  0.81100575185E+02  0.11277370533E+03  0.46089060496E+02  0.19246887585E+03  0.12499941907E+03 0.  0.
         23    2    1    2    0    0 -0.81100575185E+02 -0.11277370533E+03 -0.46089060496E+02  0.17253112415E+03  0.91365066595E+02 0.  0.
        -11    1    4    4    0    0 -0.96622514743E+02 -0.83649417310E+02 -0.53761604791E+02  0.13864864053E+03  0.00000000000E+00 0. -1.
         11    1    4    4    0    0  0.15521939557E+02 -0.29124288015E+02  0.76725442945E+01  0.33882483616E+02  0.00000000000E+00 0.  1.
        -15    1    3    3    0    0  0.32111662964E+02  0.10572854127E+02  0.68972192746E+02  0.76832709466E+02  0.17770000000E+01 0.  1.
         15    1    3    3    0    0  0.48988912221E+02  0.10220085120E+03 -0.22883132250E+02  0.11563616639E+03  0.17770000000E+01 0.  1.
</event>
<event>
 8    1  0.3345745E-006  0.1925918E+03  0.7546771E-02  0.1060694E+00
        -11   -1    0    0    0    0  0.00000000000E+00  0.00000000000E+00  0.18250000000E+03  0.18250000000E+03  0.00000000000E+00 0. -1.
         11   -1    0    0    0    0 -0.00000000000E+00 -0.00000000000E+00 -0.18250000000E+03  0.18250000000E+03  0.00000000000E+00 0.  1.
         25    2    1    2    0    0  0.94433512683E+02 -0.20310104085E+02  0.11016500226E+03  0.19259183875E+03  0.12500039994E+03 0.  0.
         23    2    1    2    0    0 -0.94433512683E+02  0.20310104085E+02 -0.11016500226E+03  0.17240816125E+03  0.90873855968E+02 0.  0.
        -11    1    4    4    0    0 -0.87543447443E+02 -0.98908519638E+00 -0.11951270307E+03  0.14814897797E+03  0.00000000000E+00 0.  1.
         11    1    4    4    0    0 -0.68900652400E+01  0.21299189281E+02  0.93477008095E+01  0.24259183281E+02  0.00000000000E+00 0. -1.
        -15    1    3    3    0    0  0.13146633074E+02 -0.35225396138E+02 -0.16694522998E+02  0.41176781339E+02  0.17770000000E+01 0. -1.
         15    1    3    3    0    0  0.81286879608E+02  0.14915292054E+02  0.12685952525E+03  0.15141505741E+03  0.17770000000E+01 0. -1.
</event>
<event>
 8    1  0.3345745E-006  0.1917812E+03  0.7546771E-02  0.1061298E+00
        -11   -1    0    0    0    0  0.00000000000E+00  0.00000000000E+00  0.18250000000E+03  0.18250000000E+03  0.00000000000E+00 0.  1.
         11   -1    0    0    0    0 -0.00000000000E+00 -0.00000000000E+00 -0.18250000000E+03  0.18250000000E+03  0.00000000000E+00 0. -1.
         25    2    1    2    0    0 -0.42961663076E+02 -0.13889906366E+03  0.40654334886E+01  0.19178121491E+03  0.12499940904E+03 0.  0.
         23    2    1    2    0    0  0.42961663076E+02  0.13889906366E+03 -0.40654334886E+01  0.17321878509E+03  0.94072128604E+02 0.  0.
        -11    1    4    4    0    0  0.42055662683E+02  0.13651739650E+03  0.24161227904E+02  0.14487733862E+03  0.00000000000E+00 0.  1.
         11    1    4    4    0    0  0.90600039282E+00  0.23816671620E+01 -0.28226661392E+02  0.28341446479E+02  0.00000000000E+00 0. -1.
        -15    1    3    3    0    0 -0.36141889451E+02 -0.10453368204E+03  0.59933637035E+02  0.12581226264E+03  0.17770000000E+01 0. -1.
         15    1    3    3    0    0 -0.68197736252E+01 -0.34365381619E+02 -0.55868203546E+02  0.65968952263E+02  0.17770000000E+01 0. -1.
</event>
<event>
 8    1  0.3345745E-006  0.1923128E+03  0.7546771E-02  0.1060902E+00
        -11   -1    0    0    0    0  0.00000000000E+00  0.00000000000E+00  0.18250000000E+03  0.18250000000E+03  0.00000000000E+00 0.  1.
         11   -1    0    0    0    0 -0.00000000000E+00 -0.00000000000E+00 -0.18250000000E+03  0.18250000000E+03  0.00000000000E+00 0. -1.
         25    2    1    2    0    0  0.10089190515E+03  0.10389620460E+03 -0.19611593735E+02  0.19231276391E+03  0.12500394673E+03 0.  0.
         23    2    1    2    0    0 -0.10089190515E+03 -0.10389620460E+03  0.19611593735E+02  0.17268723609E+03  0.91992766255E+02 0.  0.
        -11    1    4    4    0    0 -0.95840581934E+02 -0.10636867853E+03  0.42313692343E+02  0.14929889979E+03  0.00000000000E+00 0.  1.
         11    1    4    4    0    0 -0.50513232192E+01  0.24724739339E+01 -0.22702098608E+02  0.23388336299E+02  0.00000000000E+00 0. -1.
        -15    1    3    3    0    0  0.84069417750E+02  0.87103897102E+02  0.40486911223E+02  0.12766010967E+03  0.17770000000E+01 0. -1.
         15    1    3    3    0    0  0.16822487403E+02  0.16792307498E+02 -0.60098504958E+02  0.64652654243E+02  0.17770000000E+01 0. -1.
</event>
<event>
 8    1  0.3345745E-006  0.1905420E+03  0.7546771E-02  0.1062228E+00
        -11   -1    0    0    0    0  0.00000000000E+00  0.00000000000E+00  0.18250000000E+03  0.18250000000E+03  0.00000000000E+00 0.  1.
         11   -1    0    0    0    0 -0.00000000000E+00 -0.00000000000E+00 -0.18250000000E+03  0.18250000000E+03  0.00000000000E+00 0.  1.
         25    2    1    2    0    0  0.67917811836E+02 -0.11728059988E+03  0.48121666759E+02  0.19054200355E+03  0.12499196787E+03 0.  0.
         23    2    1    2    0    0 -0.67917811836E+02  0.11728059988E+03 -0.48121666759E+02  0.17445799645E+03  0.98753883161E+02 0.  0.
        -11    1    4    4    0    0 -0.48441245584E+02  0.33485403584E+02  0.22615431970E+02  0.63081568545E+02  0.00000000000E+00 0.  1.
         11    1    4    4    0    0 -0.19476566252E+02  0.83795196298E+02 -0.70737098729E+02  0.11137642790E+03  0.00000000000E+00 0.  1.
        -15    1    3    3    0    0  0.17480477484E+02 -0.98816272848E+02  0.79743140667E+02  0.12818872448E+03  0.17770000000E+01 0. -1.
         15    1    3    3    0    0  0.50437334352E+02 -0.18464327034E+02 -0.31621473908E+02  0.62353279068E+02  0.17770000000E+01 0. -1.
</event>
<event>
 8    1  0.3345745E-006  0.1926399E+03  0.7546771E-02  0.1060658E+00
        -11   -1    0    0    0    0  0.00000000000E+00  0.00000000000E+00  0.18250000000E+03  0.18250000000E+03  0.00000000000E+00 0.  1.
         11   -1    0    0    0    0 -0.00000000000E+00 -0.00000000000E+00 -0.18250000000E+03  0.18250000000E+03  0.00000000000E+00 0. -1.
         25    2    1    2    0    0  0.12290847564E+03  0.21855686130E+02  0.76810584533E+02  0.19263991475E+03  0.12500442575E+03 0.  0.
         23    2    1    2    0    0 -0.12290847564E+03 -0.21855686130E+02 -0.76810584533E+02  0.17236008525E+03  0.90686099764E+02 0.  0.
        -11    1    4    4    0    0 -0.52236339851E+02 -0.46327549624E+02 -0.72037875132E+01  0.70190965300E+02  0.00000000000E+00 0.  1.
         11    1    4    4    0    0 -0.70672135790E+02  0.24471863494E+02 -0.69606797020E+02  0.10216911995E+03  0.00000000000E+00 0. -1.
        -15    1    3    3    0    0  0.19261249447E+02  0.10597624185E+02 -0.33971914896E+02  0.40503754139E+02  0.17770000000E+01 0.  1.
         15    1    3    3    0    0  0.10364722619E+03  0.11258061945E+02  0.11078249943E+03  0.15213616061E+03  0.17770000000E+01 0.  1.
</event>
<event>
 8    1  0.3345745E-006  0.1917230E+03  0.7546771E-02  0.1061341E+00
        -11   -1    0    0    0    0  0.00000000000E+00  0.00000000000E+00  0.18250000000E+03  0.18250000000E+03  0.00000000000E+00 0. -1.
         11   -1    0    0    0    0 -0.00000000000E+00 -0.00000000000E+00 -0.18250000000E+03  0.18250000000E+03  0.00000000000E+00 0.  1.
         25    2    1    2    0    0 -0.12696211110E+03  0.62703106613E+02  0.32883693619E+02  0.19172301622E+03  0.12500128162E+03 0.  0.
         23    2    1    2    0    0  0.12696211110E+03 -0.62703106613E+02 -0.32883693619E+02  0.17327698378E+03  0.94300151473E+02 0.  0.
        -11    1    4    4    0    0  0.38848699765E+02 -0.68588882908E+02  0.60938509028E+00  0.78829104283E+02  0.00000000000E+00 0.  1.
         11    1    4    4    0    0  0.88113411339E+02  0.58857762947E+01 -0.33493078709E+02  0.94447879499E+02  0.00000000000E+00 0. -1.
        -15    1    3    3    0    0 -0.28940279034E+02  0.83318481971E+02  0.85835298775E+01  0.88636019217E+02  0.17770000000E+01 0.  1.
         15    1    3    3    0    0 -0.98021832071E+02 -0.20615375358E+02  0.24300163742E+02  0.10308699700E+03  0.17770000000E+01 0.  1.
</event>
<event>
 8    1  0.3345745E-006  0.1923646E+03  0.7546771E-02  0.1060863E+00
        -11   -1    0    0    0    0  0.00000000000E+00  0.00000000000E+00  0.18250000000E+03  0.18250000000E+03  0.00000000000E+00 0. -1.
         11   -1    0    0    0    0 -0.00000000000E+00 -0.00000000000E+00 -0.18250000000E+03  0.18250000000E+03  0.00000000000E+00 0.  1.
         25    2    1    2    0    0 -0.43621964252E+02 -0.10123233227E+03 -0.96082591082E+02  0.19236456720E+03  0.12498560535E+03 0.  0.
         23    2    1    2    0    0  0.43621964252E+02  0.10123233227E+03  0.96082591082E+02  0.17263543280E+03  0.91762015488E+02 0.  0.
        -11    1    4    4    0    0  0.42491490278E+02  0.58717467835E+02  0.10652319089E+03  0.12884276454E+03  0.00000000000E+00 0. -1.
         11    1    4    4    0    0  0.11304739733E+01  0.42514864431E+02 -0.10440599811E+02  0.43792668261E+02  0.00000000000E+00 0.  1.
        -15    1    3    3    0    0 -0.46108647809E+01 -0.76974744305E+02 -0.11836314426E+03  0.14127760963E+03  0.17770000000E+01 0. -1.
         15    1    3    3    0    0 -0.39011099471E+02 -0.24257587961E+02  0.22280553175E+02  0.51086957576E+02  0.17770000000E+01 0. -1.
</event>
<event>
 8    1  0.3345745E-006  0.1928708E+03  0.7546771E-02  0.1060487E+00
        -11   -1    0    0    0    0  0.00000000000E+00  0.00000000000E+00  0.18250000000E+03  0.18250000000E+03  0.00000000000E+00 0. -1.
         11   -1    0    0    0    0 -0.00000000000E+00 -0.00000000000E+00 -0.18250000000E+03  0.18250000000E+03  0.00000000000E+00 0.  1.
         25    2    1    2    0    0  0.12231211373E+03  0.64394116183E+02  0.49667981512E+02  0.19287079793E+03  0.12500152376E+03 0.  0.
         23    2    1    2    0    0 -0.12231211373E+03 -0.64394116183E+02 -0.49667981512E+02  0.17212920207E+03  0.89747971864E+02 0.  0.
        -11    1    4    4    0    0 -0.46705343218E+02 -0.61843776781E+02  0.67005812544E+01  0.77787785679E+02  0.00000000000E+00 0. -1.
         11    1    4    4    0    0 -0.75606770514E+02 -0.25503394017E+01 -0.56368562766E+02  0.94341416393E+02  0.00000000000E+00 0.  1.
        -15    1    3    3    0    0  0.42515671183E+02 -0.25522334530E+02 -0.20470649109E+02  0.53676596948E+02  0.17770000000E+01 0.  1.
         15    1    3    3    0    0  0.79796442549E+02  0.89916450712E+02  0.70138630621E+02  0.13919420098E+03  0.17770000000E+01 0.  1.
</event>
<event>
 8    1  0.3345745E-006  0.1929509E+03  0.7546771E-02  0.1060427E+00
        -11   -1    0    0    0    0  0.00000000000E+00  0.00000000000E+00  0.18250000000E+03  0.18250000000E+03  0.00000000000E+00 0. -1.
         11   -1    0    0    0    0 -0.00000000000E+00 -0.00000000000E+00 -0.18250000000E+03  0.18250000000E+03  0.00000000000E+00 0.  1.
         25    2    1    2    0    0 -0.53897037038E+02 -0.11544753940E+03  0.73294514630E+02  0.19295094177E+03  0.12499982040E+03 0.  0.
         23    2    1    2    0    0  0.53897037038E+02  0.11544753940E+03 -0.73294514630E+02  0.17204905823E+03  0.89419056181E+02 0.  0.
        -11    1    4    4    0    0 -0.52500606787E+01  0.18297963489E+02 -0.53259872991E+02  0.56559638223E+02  0.00000000000E+00 0.  1.
         11    1    4    4    0    0  0.59147097716E+02  0.97149575912E+02 -0.20034641639E+02  0.11548942001E+03  0.00000000000E+00 0. -1.
        -15    1    3    3    0    0  0.91407242684E+01 -0.91867053642E+02 -0.14566700618E+01  0.92349271798E+02  0.17770000000E+01 0. -1.
         15    1    3    3    0    0 -0.63037761306E+02 -0.23580485758E+02  0.74751184692E+02  0.10060166997E+03  0.17770000000E+01 0. -1.
</event>
<event>
 8    1  0.3345745E-006  0.1926224E+03  0.7546771E-02  0.1060671E+00
        -11   -1    0    0    0    0  0.00000000000E+00  0.00000000000E+00  0.18250000000E+03  0.18250000000E+03  0.00000000000E+00 0.  1.
         11   -1    0    0    0    0 -0.00000000000E+00 -0.00000000000E+00 -0.18250000000E+03  0.18250000000E+03  0.00000000000E+00 0. -1.
         25    2    1    2    0    0  0.12674418832E+03 -0.58643620013E+01 -0.73355722504E+02  0.19262243641E+03  0.12499544380E+03 0.  0.
         23    2    1    2    0    0 -0.12674418832E+03  0.58643620013E+01  0.73355722504E+02  0.17237756359E+03  0.90744048785E+02 0.  0.
        -11    1    4    4    0    0 -0.77231910365E+02 -0.37805784811E+02  0.60444824400E+02  0.10510766928E+03  0.00000000000E+00 0.  1.
         11    1    4    4    0    0 -0.49512277957E+02  0.43670146813E+02  0.12910898104E+02  0.67269894313E+02  0.00000000000E+00 0. -1.
        -15    1    3    3    0    0  0.26923641448E+02 -0.53176023166E+02 -0.54026610789E+02  0.80464925967E+02  0.17770000000E+01 0.  1.
         15    1    3    3    0    0  0.99820546873E+02  0.47311661165E+02 -0.19329111715E+02  0.11215751044E+03  0.17770000000E+01 0.  1.
</event>
<event>
 8    1  0.3345745E-006  0.1905147E+03  0.7546771E-02  0.1062248E+00
        -11   -1    0    0    0    0  0.00000000000E+00  0.00000000000E+00  0.18250000000E+03  0.18250000000E+03  0.00000000000E+00 0.  1.
         11   -1    0    0    0    0 -0.00000000000E+00 -0.00000000000E+00 -0.18250000000E+03  0.18250000000E+03  0.00000000000E+00 0. -1.
         25    2    1    2    0    0 -0.42466426272E+01 -0.14362600339E+03 -0.49528148776E+01  0.19051473352E+03  0.12499948196E+03 0.  0.
         23    2    1    2    0    0  0.42466426272E+01  0.14362600339E+03  0.49528148776E+01  0.17448526648E+03  0.98864124025E+02 0.  0.
        -11    1    4    4    0    0  0.29628759955E+02  0.90769370783E+02 -0.36985609932E+02  0.10239569049E+03  0.00000000000E+00 0. -1.
         11    1    4    4    0    0 -0.25382117328E+02  0.52856632606E+02  0.41938424810E+02  0.72089575987E+02  0.00000000000E+00 0.  1.
        -15    1    3    3    0    0 -0.10214390094E+02 -0.16106529035E+03  0.16424751888E+02  0.16223221543E+03  0.17770000000E+01 0.  1.
         15    1    3    3    0    0  0.59677474664E+01  0.17439286963E+02 -0.21377566765E+02  0.28282518088E+02  0.17770000000E+01 0.  1.
</event>
<event>
 8    1  0.3345745E-006  0.1925261E+03  0.7546771E-02  0.1060743E+00
        -11   -1    0    0    0    0  0.00000000000E+00  0.00000000000E+00  0.18250000000E+03  0.18250000000E+03  0.00000000000E+00 0.  1.
         11   -1    0    0    0    0 -0.00000000000E+00 -0.00000000000E+00 -0.18250000000E+03  0.18250000000E+03  0.00000000000E+00 0. -1.
         25    2    1    2    0    0  0.83616013596E+02  0.11793733059E+03 -0.23187708398E+02  0.19252609662E+03  0.12501110504E+03 0.  0.
         23    2    1    2    0    0 -0.83616013596E+02 -0.11793733059E+03  0.23187708398E+02  0.17247390338E+03  0.91152212525E+02 0.  0.
        -11    1    4    4    0    0 -0.80023796149E+02 -0.46487400682E+02 -0.10975376088E+02  0.93195199729E+02  0.00000000000E+00 0.  1.
         11    1    4    4    0    0 -0.35922174463E+01 -0.71449929909E+02  0.34163084486E+02  0.79278703646E+02  0.00000000000E+00 0. -1.
        -15    1    3    3    0    0 -0.28283352913E+02  0.15381964187E+02 -0.24868013609E+02  0.40720126524E+02  0.17770000000E+01 0.  1.
         15    1    3    3    0    0  0.11189936651E+03  0.10255536640E+03  0.16803052107E+01  0.15180597010E+03  0.17770000000E+01 0.  1.
</event>
<event>
 8    1  0.3345745E-006  0.1951483E+03  0.7546771E-02  0.1058810E+00
        -11   -1    0    0    0    0  0.00000000000E+00  0.00000000000E+00  0.18250000000E+03  0.18250000000E+03  0.00000000000E+00 0.  1.
         11   -1    0    0    0    0 -0.00000000000E+00 -0.00000000000E+00 -0.18250000000E+03  0.18250000000E+03  0.00000000000E+00 0. -1.
         25    2    1    2    0    0  0.23564843496E+02  0.14709956528E+03 -0.16318133665E+02  0.19514826672E+03  0.12499192199E+03 0.  0.
         23    2    1    2    0    0 -0.23564843496E+02 -0.14709956528E+03  0.16318133665E+02  0.16985173328E+03  0.79935885910E+02 0.  0.
        -11    1    4    4    0    0 -0.48383735873E+02 -0.59956744059E+02 -0.34143982997E+01  0.77119745662E+02  0.00000000000E+00 0. -1.
         11    1    4    4    0    0  0.24818892378E+02 -0.87142821223E+02  0.19732531965E+02  0.92731987616E+02  0.00000000000E+00 0.  1.
        -15    1    3    3    0    0  0.69536135572E+02  0.61098131049E+02  0.12558738865E+02  0.93429842228E+02  0.17770000000E+01 0.  1.
         15    1    3    3    0    0 -0.45971292076E+02  0.86001434233E+02 -0.28876872530E+02  0.10171842449E+03  0.17770000000E+01 0.  1.
</event>
<event>
 8    1  0.3345745E-006  0.1925669E+03  0.7546771E-02  0.1060712E+00
        -11   -1    0    0    0    0  0.00000000000E+00  0.00000000000E+00  0.18250000000E+03  0.18250000000E+03  0.00000000000E+00 0.  1.
         11   -1    0    0    0    0 -0.00000000000E+00 -0.00000000000E+00 -0.18250000000E+03  0.18250000000E+03  0.00000000000E+00 0. -1.
         25    2    1    2    0    0  0.58705361007E+02 -0.13338387300E+03 -0.14777371599E+02  0.19256691437E+03  0.12500427517E+03 0.  0.
         23    2    1    2    0    0 -0.58705361007E+02  0.13338387300E+03  0.14777371599E+02  0.17243308563E+03  0.90979235662E+02 0.  0.
        -11    1    4    4    0    0 -0.27342940529E+02  0.13282119132E+03 -0.43818608452E+01  0.13567721240E+03  0.00000000000E+00 0. -1.
         11    1    4    4    0    0 -0.31362420478E+02  0.56268167764E+00  0.19159232445E+02  0.36755873229E+02  0.00000000000E+00 0.  1.
        -15    1    3    3    0    0  0.10184676446E+02 -0.87413466648E+02  0.48507420592E+02  0.10050357888E+03  0.17770000000E+01 0.  1.
         15    1    3    3    0    0  0.48520684561E+02 -0.45970406350E+02 -0.63284792191E+02  0.92063335492E+02  0.17770000000E+01 0.  1.
</event>
<event>
 8    1  0.3345745E-006  0.1923595E+03  0.7546771E-02  0.1060867E+00
        -11   -1    0    0    0    0  0.00000000000E+00  0.00000000000E+00  0.18250000000E+03  0.18250000000E+03  0.00000000000E+00 0. -1.
         11   -1    0    0    0    0 -0.00000000000E+00 -0.00000000000E+00 -0.18250000000E+03  0.18250000000E+03  0.00000000000E+00 0.  1.
         25    2    1    2    0    0  0.48066589148E+02 -0.56231802038E+02  0.12612127763E+03  0.19235952589E+03  0.12499279170E+03 0.  0.
         23    2    1    2    0    0 -0.48066589148E+02  0.56231802038E+02 -0.12612127763E+03  0.17264047411E+03  0.91791851901E+02 0.  0.
        -11    1    4    4    0    0  0.23127486165E+02  0.33365464578E+02 -0.62148655024E+02  0.74233349406E+02  0.00000000000E+00 0.  1.
         11    1    4    4    0    0 -0.71194075312E+02  0.22866337460E+02 -0.63972622609E+02  0.98407124701E+02  0.00000000000E+00 0. -1.
        -15    1    3    3    0    0  0.82614626325E+02 -0.57033432601E+02  0.57999170621E+02  0.11595279401E+03  0.17770000000E+01 0. -1.
         15    1    3    3    0    0 -0.34548037177E+02  0.80163056218E+00  0.68122107011E+02  0.76406731883E+02  0.17770000000E+01 0. -1.
</event>
<event>
 8    1  0.3345745E-006  0.1941927E+03  0.7546771E-02  0.1059511E+00
        -11   -1    0    0    0    0  0.00000000000E+00  0.00000000000E+00  0.18250000000E+03  0.18250000000E+03  0.00000000000E+00 0. -1.
         11   -1    0    0    0    0 -0.00000000000E+00 -0.00000000000E+00 -0.18250000000E+03  0.18250000000E+03  0.00000000000E+00 0.  1.
         25    2    1    2    0    0  0.86723465375E+02  0.11929774882E+01  0.12067774529E+03  0.19419268308E+03  0.12500118924E+03 0.  0.
         23    2    1    2    0    0 -0.86723465375E+02 -0.11929774882E+01 -0.12067774529E+03  0.17080731692E+03  0.84199992052E+02 0.  0.
        -11    1    4    4    0    0 -0.40330976783E+02 -0.24596138279E+02 -0.96398258127E+01  0.48212902300E+02  0.00000000000E+00 0. -1.
         11    1    4    4    0    0 -0.46392488592E+02  0.23403160791E+02 -0.11103791948E+03  0.12259441462E+03  0.00000000000E+00 0.  1.
        -15    1    3    3    0    0  0.11758941850E+03  0.12883188197E+02  0.10212814615E+03  0.15628999919E+03  0.17770000000E+01 0.  1.
         15    1    3    3    0    0 -0.30865953127E+02 -0.11690210709E+02  0.18549599143E+02  0.37902683893E+02  0.17770000000E+01 0.  1.
</event>
<event>
 8    1  0.3345745E-006  0.1940416E+03  0.7546771E-02  0.1059622E+00
        -11   -1    0    0    0    0  0.00000000000E+00  0.00000000000E+00  0.18250000000E+03  0.18250000000E+03  0.00000000000E+00 0. -1.
         11   -1    0    0    0    0 -0.00000000000E+00 -0.00000000000E+00 -0.18250000000E+03  0.18250000000E+03  0.00000000000E+00 0.  1.
         25    2    1    2    0    0  0.10691316338E+02  0.13134294667E+03 -0.68280895021E+02  0.19404162518E+03  0.12499839116E+03 0.  0.
         23    2    1    2    0    0 -0.10691316338E+02 -0.13134294667E+03  0.68280895021E+02  0.17095837482E+03  0.84848166801E+02 0.  0.
        -11    1    4    4    0    0  0.23438963060E+02 -0.26548582748E+02 -0.87682826029E+01  0.36484174858E+02  0.00000000000E+00 0.  1.
         11    1    4    4    0    0 -0.34130279398E+02 -0.10479436392E+03  0.77049177624E+02  0.13447419996E+03  0.00000000000E+00 0. -1.
        -15    1    3    3    0    0 -0.34405709804E+02  0.51604599824E+02 -0.80465452453E+02  0.10161020794E+03  0.17770000000E+01 0.  1.
         15    1    3    3    0    0  0.45097026142E+02  0.79738346848E+02  0.12184557432E+02  0.92431417244E+02  0.17770000000E+01 0.  1.
</event>
<event>
 8    1  0.3345745E-006  0.1924334E+03  0.7546771E-02  0.1060812E+00
        -11   -1    0    0    0    0  0.00000000000E+00  0.00000000000E+00  0.18250000000E+03  0.18250000000E+03  0.00000000000E+00 0.  1.
         11   -1    0    0    0    0 -0.00000000000E+00 -0.00000000000E+00 -0.18250000000E+03  0.18250000000E+03  0.00000000000E+00 0. -1.
         25    2    1    2    0    0  0.10628070115E+03  0.94901135256E+02  0.33219964280E+02  0.19243340014E+03  0.12500093822E+03 0.  0.
         23    2    1    2    0    0 -0.10628070115E+03 -0.94901135256E+02 -0.33219964280E+02  0.17256659986E+03  0.91508756140E+02 0.  0.
        -11    1    4    4    0    0 -0.15756081536E+02 -0.24946685980E+02 -0.48880473873E+02  0.57095463680E+02  0.00000000000E+00 0.  1.
         11    1    4    4    0    0 -0.90524619611E+02 -0.69954449276E+02  0.15660509593E+02  0.11547113618E+03  0.00000000000E+00 0. -1.
        -15    1    3    3    0    0 -0.65157093116E+01  0.74616307058E+02  0.13690202992E+02  0.76161848283E+02  0.17770000000E+01 0.  1.
         15    1    3    3    0    0  0.11279641046E+03  0.20284828197E+02  0.19529761288E+02  0.11627155186E+03  0.17770000000E+01 0.  1.
</event>
<event>
 8    1  0.3345745E-006  0.1925447E+03  0.7546771E-02  0.1060729E+00
        -11   -1    0    0    0    0  0.00000000000E+00  0.00000000000E+00  0.18250000000E+03  0.18250000000E+03  0.00000000000E+00 0.  1.
         11   -1    0    0    0    0 -0.00000000000E+00 -0.00000000000E+00 -0.18250000000E+03  0.18250000000E+03  0.00000000000E+00 0. -1.
         25    2    1    2    0    0  0.10250979638E+03 -0.41956583180E+01  0.10451139530E+03  0.19254469781E+03  0.12499986802E+03 0.  0.
         23    2    1    2    0    0 -0.10250979638E+03  0.41956583180E+01 -0.10451139530E+03  0.17245530219E+03  0.91062273209E+02 0.  0.
        -11    1    4    4    0    0 -0.82674580846E+02  0.36061083977E+02 -0.41897454516E+02  0.99452927512E+02  0.00000000000E+00 0. -1.
         11    1    4    4    0    0 -0.19835215536E+02 -0.31865425659E+02 -0.62613940785E+02  0.73002374677E+02  0.00000000000E+00 0.  1.
        -15    1    3    3    0    0  0.82406511041E+02  0.26135932221E+02  0.12404267657E+03  0.15120735219E+03  0.17770000000E+01 0. -1.
         15    1    3    3    0    0  0.20103285342E+02 -0.30331590539E+02 -0.19531281272E+02  0.41337345624E+02  0.17770000000E+01 0. -1.
</event>
<event>
 8    1  0.3345745E-006  0.1919484E+03  0.7546771E-02  0.1061173E+00
        -11   -1    0    0    0    0  0.00000000000E+00  0.00000000000E+00  0.18250000000E+03  0.18250000000E+03  0.00000000000E+00 0.  1.
         11   -1    0    0    0    0 -0.00000000000E+00 -0.00000000000E+00 -0.18250000000E+03  0.18250000000E+03  0.00000000000E+00 0. -1.
         25    2    1    2    0    0 -0.52289538886E+02  0.10311467186E+03 -0.88618617466E+02  0.19194839720E+03  0.12499638554E+03 0.  0.
         23    2    1    2    0    0  0.52289538886E+02 -0.10311467186E+03  0.88618617466E+02  0.17305160280E+03  0.93417163518E+02 0.  0.
        -11    1    4    4    0    0  0.70662457645E+01 -0.73553626063E+02  0.93075014824E+02  0.11884033878E+03  0.00000000000E+00 0.  1.
         11    1    4    4    0    0  0.45223293121E+02 -0.29561045796E+02 -0.44563973579E+01  0.54211264020E+02  0.00000000000E+00 0. -1.
        -15    1    3    3    0    0  0.58668156427E+01  0.97295221645E+02 -0.16127224902E+02  0.98813080069E+02  0.17770000000E+01 0. -1.
         15    1    3    3    0    0 -0.58156354528E+02  0.58194502144E+01 -0.72491392563E+02  0.93135317134E+02  0.17770000000E+01 0. -1.
</event>
<event>
 8    1  0.3345745E-006  0.1924135E+03  0.7546771E-02  0.1060827E+00
        -11   -1    0    0    0    0  0.00000000000E+00  0.00000000000E+00  0.18250000000E+03  0.18250000000E+03  0.00000000000E+00 0. -1.
         11   -1    0    0    0    0 -0.00000000000E+00 -0.00000000000E+00 -0.18250000000E+03  0.18250000000E+03  0.00000000000E+00 0.  1.
         25    2    1    2    0    0 -0.37763411169E+02  0.84376031331E+02 -0.11337247952E+03  0.19241352314E+03  0.12499701952E+03 0.  0.
         23    2    1    2    0    0  0.37763411169E+02 -0.84376031331E+02  0.11337247952E+03  0.17258647686E+03  0.91582656638E+02 0.  0.
        -11    1    4    4    0    0  0.50035623041E+02 -0.84744162658E+02  0.12261076771E+03  0.15722129956E+03  0.00000000000E+00 0. -1.
         11    1    4    4    0    0 -0.12272211871E+02  0.36813132671E+00 -0.92382881872E+01  0.15365177302E+02  0.00000000000E+00 0.  1.
        -15    1    3    3    0    0 -0.15506779273E+02 -0.14297324489E+02  0.17172174362E+02  0.27256466981E+02  0.17770000000E+01 0.  1.
         15    1    3    3    0    0 -0.22256631896E+02  0.98673355820E+02 -0.13054465388E+03  0.16515705616E+03  0.17770000000E+01 0.  1.
</event>
<event>
 8    1  0.3345745E-006  0.1925175E+03  0.7546771E-02  0.1060749E+00
        -11   -1    0    0    0    0  0.00000000000E+00  0.00000000000E+00  0.18250000000E+03  0.18250000000E+03  0.00000000000E+00 0. -1.
         11   -1    0    0    0    0 -0.00000000000E+00 -0.00000000000E+00 -0.18250000000E+03  0.18250000000E+03  0.00000000000E+00 0.  1.
         25    2    1    2    0    0  0.80293982842E+02  0.10756018986E+03  0.58494998525E+02  0.19251746017E+03  0.12499995798E+03 0.  0.
         23    2    1    2    0    0 -0.80293982842E+02 -0.10756018986E+03 -0.58494998525E+02  0.17248253983E+03  0.91171506352E+02 0.  0.
        -11    1    4    4    0    0  0.15240958242E+01  0.14880507083E+02 -0.42832978666E+01  0.15559530833E+02  0.00000000000E+00 0.  1.
         11    1    4    4    0    0 -0.81818078666E+02 -0.12244069694E+03 -0.54211700659E+02  0.15692300900E+03  0.00000000000E+00 0. -1.
        -15    1    3    3    0    0  0.65995873062E+02  0.12082985698E+03  0.83288083397E+02  0.16092039076E+03  0.17770000000E+01 0.  1.
         15    1    3    3    0    0  0.14298109781E+02 -0.13269667115E+02 -0.24793084872E+02  0.31597069407E+02  0.17770000000E+01 0.  1.
</event>
<event>
 8    1  0.3345745E-006  0.1926020E+03  0.7546771E-02  0.1060686E+00
        -11   -1    0    0    0    0  0.00000000000E+00  0.00000000000E+00  0.18250000000E+03  0.18250000000E+03  0.00000000000E+00 0. -1.
         11   -1    0    0    0    0 -0.00000000000E+00 -0.00000000000E+00 -0.18250000000E+03  0.18250000000E+03  0.00000000000E+00 0.  1.
         25    2    1    2    0    0  0.77135714355E+01 -0.13366829016E+03  0.59533397468E+02  0.19260201439E+03  0.12499839820E+03 0.  0.
         23    2    1    2    0    0 -0.77135714355E+01  0.13366829016E+03 -0.59533397468E+02  0.17239798561E+03  0.90830221030E+02 0.  0.
        -11    1    4    4    0    0 -0.26252874525E+02  0.95305263600E+02 -0.78037975153E+02  0.12594535425E+03  0.00000000000E+00 0.  1.
         11    1    4    4    0    0  0.18539303090E+02  0.38363026556E+02  0.18504577685E+02  0.46452631367E+02  0.00000000000E+00 0. -1.
        -15    1    3    3    0    0  0.24126100762E+02 -0.67138931205E+02 -0.32030354385E+02  0.78222798163E+02  0.17770000000E+01 0. -1.
         15    1    3    3    0    0 -0.16412529326E+02 -0.66529358951E+02  0.91563751853E+02  0.11437921622E+03  0.17770000000E+01 0. -1.
</event>
<event>
 8    1  0.3345745E-006  0.1926705E+03  0.7546771E-02  0.1060635E+00
        -11   -1    0    0    0    0  0.00000000000E+00  0.00000000000E+00  0.18250000000E+03  0.18250000000E+03  0.00000000000E+00 0. -1.
         11   -1    0    0    0    0 -0.00000000000E+00 -0.00000000000E+00 -0.18250000000E+03  0.18250000000E+03  0.00000000000E+00 0.  1.
         25    2    1    2    0    0 -0.78116116086E+02 -0.10210680437E+03  0.70437334383E+02  0.19267051794E+03  0.12503032959E+03 0.  0.
         23    2    1    2    0    0  0.78116116086E+02  0.10210680437E+03 -0.70437334383E+02  0.17232948206E+03  0.90598593921E+02 0.  0.
        -11    1    4    4    0    0  0.81699375995E+02  0.33750090339E+02 -0.33354489270E+02  0.94479514130E+02  0.00000000000E+00 0.  1.
         11    1    4    4    0    0 -0.35832599083E+01  0.68356714032E+02 -0.37082845113E+02  0.77849967929E+02  0.00000000000E+00 0. -1.
        -15    1    3    3    0    0 -0.65545391849E+02 -0.13170430023E+03  0.58302032362E+02  0.15825456012E+03  0.17770000000E+01 0. -1.
         15    1    3    3    0    0 -0.12570724237E+02  0.29597495856E+02  0.12135302021E+02  0.34415957824E+02  0.17770000000E+01 0. -1.
</event>
<event>
 8    1  0.3345745E-006  0.1926956E+03  0.7546771E-02  0.1060617E+00
        -11   -1    0    0    0    0  0.00000000000E+00  0.00000000000E+00  0.18250000000E+03  0.18250000000E+03  0.00000000000E+00 0. -1.
         11   -1    0    0    0    0 -0.00000000000E+00 -0.00000000000E+00 -0.18250000000E+03  0.18250000000E+03  0.00000000000E+00 0.  1.
         25    2    1    2    0    0 -0.13287336149E+03 -0.14465735861E+02  0.60320625669E+02  0.19269557641E+03  0.12501367757E+03 0.  0.
         23    2    1    2    0    0  0.13287336149E+03  0.14465735861E+02 -0.60320625669E+02  0.17230442359E+03  0.90474575431E+02 0.  0.
        -11    1    4    4    0    0  0.50804694311E+01 -0.20025095122E+02  0.94023966119E+01  0.22698472775E+02  0.00000000000E+00 0. -1.
         11    1    4    4    0    0  0.12779289206E+03  0.34490830983E+02 -0.69723022280E+02  0.14960595081E+03  0.00000000000E+00 0.  1.
        -15    1    3    3    0    0 -0.10057702443E+02 -0.41205108636E+02  0.51413899600E+02  0.66675071483E+02  0.17770000000E+01 0. -1.
         15    1    3    3    0    0 -0.12281565905E+03  0.26739372775E+02  0.89067260681E+01  0.12602050493E+03  0.17770000000E+01 0. -1.
</event>
<event>
 8    1  0.3345745E-006  0.1918285E+03  0.7546771E-02  0.1061263E+00
        -11   -1    0    0    0    0  0.00000000000E+00  0.00000000000E+00  0.18250000000E+03  0.18250000000E+03  0.00000000000E+00 0.  1.
         11   -1    0    0    0    0 -0.00000000000E+00 -0.00000000000E+00 -0.18250000000E+03  0.18250000000E+03  0.00000000000E+00 0. -1.
         25    2    1    2    0    0 -0.31161979249E+00 -0.13311394911E+03 -0.58767284825E+02  0.19182849277E+03  0.12500062526E+03 0.  0.
         23    2    1    2    0    0  0.31161979249E+00  0.13311394911E+03  0.58767284825E+02  0.17317150723E+03  0.93890130454E+02 0.  0.
        -11    1    4    4    0    0  0.45949179988E+02  0.57312463632E+02  0.17355353995E+02  0.75480155945E+02  0.00000000000E+00 0.  1.
         11    1    4    4    0    0 -0.45637560196E+02  0.75801485479E+02  0.41411930830E+02  0.97691351288E+02  0.00000000000E+00 0. -1.
        -15    1    3    3    0    0  0.15737093442E+02 -0.15468788801E+03 -0.47188559117E+02  0.16249897429E+03  0.17770000000E+01 0. -1.
         15    1    3    3    0    0 -0.16048713234E+02  0.21573938894E+02 -0.11578725708E+02  0.29329518474E+02  0.17770000000E+01 0. -1.
</event>
<event>
 8    1  0.3345745E-006  0.1898993E+03  0.7546771E-02  0.1062713E+00
        -11   -1    0    0    0    0  0.00000000000E+00  0.00000000000E+00  0.18250000000E+03  0.18250000000E+03  0.00000000000E+00 0. -1.
         11   -1    0    0    0    0 -0.00000000000E+00 -0.00000000000E+00 -0.18250000000E+03  0.18250000000E+03  0.00000000000E+00 0.  1.
         25    2    1    2    0    0  0.58166279739E+02 -0.77659887772E+02 -0.10499038094E+03  0.18989929638E+03  0.12499755361E+03 0.  0.
         23    2    1    2    0    0 -0.58166279739E+02  0.77659887772E+02  0.10499038094E+03  0.17510070362E+03  0.10110836787E+03 0.  0.
        -11    1    4    4    0    0 -0.13899331547E+01  0.25319479399E+02 -0.17138849509E+02  0.30606341070E+02  0.00000000000E+00 0.  1.
         11    1    4    4    0    0 -0.56776346584E+02  0.52340408373E+02  0.12212923045E+03  0.14449436255E+03  0.00000000000E+00 0. -1.
        -15    1    3    3    0    0  0.17331833368E+02 -0.99945919110E+02 -0.10102938425E+03  0.14317707011E+03  0.17770000000E+01 0.  1.
         15    1    3    3    0    0  0.40834446371E+02  0.22286031338E+02 -0.39609966858E+01  0.46722226264E+02  0.17770000000E+01 0.  1.
</event>
<event>
 8    1  0.3345745E-006  0.1910598E+03  0.7546771E-02  0.1061838E+00
        -11   -1    0    0    0    0  0.00000000000E+00  0.00000000000E+00  0.18250000000E+03  0.18250000000E+03  0.00000000000E+00 0.  1.
         11   -1    0    0    0    0 -0.00000000000E+00 -0.00000000000E+00 -0.18250000000E+03  0.18250000000E+03  0.00000000000E+00 0. -1.
         25    2    1    2    0    0 -0.14038903388E+03  0.16737803995E+02  0.29805224575E+02  0.19105977850E+03  0.12500501043E+03 0.  0.
         23    2    1    2    0    0  0.14038903388E+03 -0.16737803995E+02 -0.29805224575E+02  0.17394022150E+03  0.96838083035E+02 0.  0.
        -11    1    4    4    0    0  0.43401655352E+02 -0.52373266590E+02 -0.10495227602E+02  0.68824505397E+02  0.00000000000E+00 0.  1.
         11    1    4    4    0    0  0.96987378529E+02  0.35635462595E+02 -0.19309996973E+02  0.10511571610E+03  0.00000000000E+00 0. -1.
        -15    1    3    3    0    0 -0.93438691576E+02 -0.49806649175E+02  0.54591761136E+01  0.10603985910E+03  0.17770000000E+01 0. -1.
         15    1    3    3    0    0 -0.46950342306E+02  0.66544453170E+02  0.24346048462E+02  0.85019919401E+02  0.17770000000E+01 0. -1.
</event>
<event>
 8    1  0.3345745E-006  0.1911966E+03  0.7546771E-02  0.1061736E+00
        -11   -1    0    0    0    0  0.00000000000E+00  0.00000000000E+00  0.18250000000E+03  0.18250000000E+03  0.00000000000E+00 0. -1.
         11   -1    0    0    0    0 -0.00000000000E+00 -0.00000000000E+00 -0.18250000000E+03  0.18250000000E+03  0.00000000000E+00 0.  1.
         25    2    1    2    0    0 -0.37301275238E+02  0.13929753146E+03 -0.11704843170E+02  0.19119664252E+03  0.12499586134E+03 0.  0.
         23    2    1    2    0    0  0.37301275238E+02 -0.13929753146E+03  0.11704843170E+02  0.17380335748E+03  0.96308962787E+02 0.  0.
        -11    1    4    4    0    0  0.13287412501E+02 -0.12390356994E+03  0.42656291493E+02  0.13171260068E+03  0.00000000000E+00 0. -1.
         11    1    4    4    0    0  0.24013862737E+02 -0.15393961524E+02 -0.30951448323E+02  0.42090756803E+02  0.00000000000E+00 0.  1.
        -15    1    3    3    0    0 -0.99958549022E+01 -0.23582736123E+02 -0.15461320744E+01  0.25721796431E+02  0.17770000000E+01 0. -1.
         15    1    3    3    0    0 -0.27305420336E+02  0.16288026758E+03 -0.10158711096E+02  0.16547484609E+03  0.17770000000E+01 0. -1.
</event>
<event>
 8    1  0.3345745E-006  0.1925642E+03  0.7546771E-02  0.1060714E+00
        -11   -1    0    0    0    0  0.00000000000E+00  0.00000000000E+00  0.18250000000E+03  0.18250000000E+03  0.00000000000E+00 0.  1.
         11   -1    0    0    0    0 -0.00000000000E+00 -0.00000000000E+00 -0.18250000000E+03  0.18250000000E+03  0.00000000000E+00 0. -1.
         25    2    1    2    0    0  0.13149630725E+03  0.34507556219E+02 -0.54554573830E+02  0.19256417130E+03  0.12499083280E+03 0.  0.
         23    2    1    2    0    0 -0.13149630725E+03 -0.34507556219E+02  0.54554573830E+02  0.17243582870E+03  0.90971771648E+02 0.  0.
        -11    1    4    4    0    0 -0.71621424817E+02  0.62860853855E+01  0.67755168975E+02  0.98792237981E+02  0.00000000000E+00 0.  1.
         11    1    4    4    0    0 -0.59874882436E+02 -0.40793641604E+02 -0.13200595145E+02  0.73643590721E+02  0.00000000000E+00 0. -1.
        -15    1    3    3    0    0  0.15083302183E+02  0.38593407982E+02  0.27770736366E+02  0.49913211394E+02  0.17770000000E+01 0.  1.
         15    1    3    3    0    0  0.11641300507E+03 -0.40858517627E+01 -0.82325310196E+02  0.14265095990E+03  0.17770000000E+01 0.  1.
</event>
<event>
 8    1  0.3345745E-006  0.1924941E+03  0.7546771E-02  0.1060767E+00
        -11   -1    0    0    0    0  0.00000000000E+00  0.00000000000E+00  0.18250000000E+03  0.18250000000E+03  0.00000000000E+00 0.  1.
         11   -1    0    0    0    0 -0.00000000000E+00 -0.00000000000E+00 -0.18250000000E+03  0.18250000000E+03  0.00000000000E+00 0. -1.
         25    2    1    2    0    0  0.84191870224E+02 -0.11791849648E+03  0.20883089094E+02  0.19249406411E+03  0.12499927393E+03 0.  0.
         23    2    1    2    0    0 -0.84191870224E+02  0.11791849648E+03 -0.20883089094E+02  0.17250593589E+03  0.91264186201E+02 0.  0.
        -11    1    4    4    0    0  0.15040823927E+02  0.17223599301E+02  0.14104889548E+02  0.26866832088E+02  0.00000000000E+00 0.  1.
         11    1    4    4    0    0 -0.99232694152E+02  0.10069489718E+03 -0.34987978641E+02  0.14563910380E+03  0.00000000000E+00 0. -1.
        -15    1    3    3    0    0  0.35458517079E+02 -0.13334086358E+03  0.28166285761E+02  0.14083177808E+03  0.17770000000E+01 0.  1.
         15    1    3    3    0    0  0.48733353145E+02  0.15422367099E+02 -0.72831966671E+01  0.51662286036E+02  0.17770000000E+01 0.  1.
</event>
<event>
 8    1  0.3345745E-006  0.1922614E+03  0.7546771E-02  0.1060940E+00
        -11   -1    0    0    0    0  0.00000000000E+00  0.00000000000E+00  0.18250000000E+03  0.18250000000E+03  0.00000000000E+00 0.  1.
         11   -1    0    0    0    0 -0.00000000000E+00 -0.00000000000E+00 -0.18250000000E+03  0.18250000000E+03  0.00000000000E+00 0. -1.
         25    2    1    2    0    0 -0.13486495130E+03  0.88313629854E+01  0.55438831477E+02  0.19226139337E+03  0.12499772512E+03 0.  0.
         23    2    1    2    0    0  0.13486495130E+03 -0.88313629854E+01 -0.55438831477E+02  0.17273860663E+03  0.92187928290E+02 0.  0.
        -11    1    4    4    0    0  0.65361384766E+02 -0.23248806417E+02  0.16887635716E+02  0.71398948581E+02  0.00000000000E+00 0.  1.
         11    1    4    4    0    0  0.69503566533E+02  0.14417443432E+02 -0.72326467194E+02  0.10133965805E+03  0.00000000000E+00 0. -1.
        -15    1    3    3    0    0 -0.11446934297E+03  0.17287582340E+02 -0.16535341786E+02  0.11695583029E+03  0.17770000000E+01 0.  1.
         15    1    3    3    0    0 -0.20395608332E+02 -0.84562193550E+01  0.71974173263E+02  0.75305563081E+02  0.17770000000E+01 0.  1.
</event>
<event>
 8    1  0.3345745E-006  0.1918747E+03  0.7546771E-02  0.1061228E+00
        -11   -1    0    0    0    0  0.00000000000E+00  0.00000000000E+00  0.18250000000E+03  0.18250000000E+03  0.00000000000E+00 0. -1.
         11   -1    0    0    0    0 -0.00000000000E+00 -0.00000000000E+00 -0.18250000000E+03  0.18250000000E+03  0.00000000000E+00 0.  1.
         25    2    1    2    0    0 -0.74101011509E+02 -0.10988336450E+03 -0.60220015934E+02  0.19187465601E+03  0.12499647835E+03 0.  0.
         23    2    1    2    0    0  0.74101011509E+02  0.10988336450E+03  0.60220015934E+02  0.17312534399E+03  0.93704966320E+02 0.  0.
        -11    1    4    4    0    0  0.93957761191E+02  0.68966775867E+02  0.38689605856E+02  0.12280619961E+03  0.00000000000E+00 0.  1.
         11    1    4    4    0    0 -0.19856749682E+02  0.40916588632E+02  0.21530410077E+02  0.50319144381E+02  0.00000000000E+00 0. -1.
        -15    1    3    3    0    0  0.25546727331E+02 -0.46175277741E+02  0.10816222147E+02  0.53897494768E+02  0.17770000000E+01 0.  1.
         15    1    3    3    0    0 -0.99647738840E+02 -0.63708086757E+02 -0.71036238080E+02  0.13797716124E+03  0.17770000000E+01 0.  1.
</event>
<event>
 8    1  0.3345745E-006  0.1922853E+03  0.7546771E-02  0.1060922E+00
        -11   -1    0    0    0    0  0.00000000000E+00  0.00000000000E+00  0.18250000000E+03  0.18250000000E+03  0.00000000000E+00 0.  1.
         11   -1    0    0    0    0 -0.00000000000E+00 -0.00000000000E+00 -0.18250000000E+03  0.18250000000E+03  0.00000000000E+00 0. -1.
         25    2    1    2    0    0  0.73770681458E+02  0.12500873359E+03 -0.16712583862E+02  0.19228526627E+03  0.12500006500E+03 0.  0.
         23    2    1    2    0    0 -0.73770681458E+02 -0.12500873359E+03  0.16712583862E+02  0.17271473373E+03  0.92096535599E+02 0.  0.
        -11    1    4    4    0    0 -0.44400637432E+02 -0.96830413445E+02  0.52280051662E+02  0.11866233343E+03  0.00000000000E+00 0.  1.
         11    1    4    4    0    0 -0.29370044026E+02 -0.28178320147E+02 -0.35567467800E+02  0.54052400299E+02  0.00000000000E+00 0. -1.
        -15    1    3    3    0    0  0.74483601583E+02  0.10410977942E+03  0.38116917970E+02  0.13357660813E+03  0.17770000000E+01 0. -1.
         15    1    3    3    0    0 -0.71292012502E+00  0.20898954169E+02 -0.54829501832E+02  0.58708658140E+02  0.17770000000E+01 0. -1.
</event>
<event>
 8    1  0.3345745E-006  0.1927160E+03  0.7546771E-02  0.1060602E+00
        -11   -1    0    0    0    0  0.00000000000E+00  0.00000000000E+00  0.18250000000E+03  0.18250000000E+03  0.00000000000E+00 0.  1.
         11   -1    0    0    0    0 -0.00000000000E+00 -0.00000000000E+00 -0.18250000000E+03  0.18250000000E+03  0.00000000000E+00 0. -1.
         25    2    1    2    0    0  0.52475236462E+02  0.12457642135E+03 -0.56943533718E+02  0.19271598020E+03  0.12499579110E+03 0.  0.
         23    2    1    2    0    0 -0.52475236462E+02 -0.12457642135E+03  0.56943533718E+02  0.17228401980E+03  0.90367484472E+02 0.  0.
        -11    1    4    4    0    0 -0.75661279548E+02 -0.11285807734E+03  0.53712554827E+02  0.14610480276E+03  0.00000000000E+00 0. -1.
         11    1    4    4    0    0  0.23186043087E+02 -0.11718344004E+02  0.32309788912E+01  0.26179217040E+02  0.00000000000E+00 0.  1.
        -15    1    3    3    0    0  0.66969590700E+02  0.12296204413E+03 -0.83017904304E+02  0.16278734760E+03  0.17770000000E+01 0.  1.
         15    1    3    3    0    0 -0.14494354239E+02  0.16143772157E+01  0.26074370585E+02  0.29928632595E+02  0.17770000000E+01 0.  1.
</event>
<event>
 8    1  0.3345745E-006  0.1922002E+03  0.7546771E-02  0.1060985E+00
        -11   -1    0    0    0    0  0.00000000000E+00  0.00000000000E+00  0.18250000000E+03  0.18250000000E+03  0.00000000000E+00 0. -1.
         11   -1    0    0    0    0 -0.00000000000E+00 -0.00000000000E+00 -0.18250000000E+03  0.18250000000E+03  0.00000000000E+00 0.  1.
         25    2    1    2    0    0  0.12583738426E+03 -0.62618013903E+02 -0.39481310773E+02  0.19220023209E+03  0.12500436942E+03 0.  0.
         23    2    1    2    0    0 -0.12583738426E+03  0.62618013903E+02  0.39481310773E+02  0.17279976791E+03  0.92438752403E+02 0.  0.
        -11    1    4    4    0    0 -0.30592559172E+02 -0.87111615075E-01 -0.26999297132E+02  0.40802871354E+02  0.00000000000E+00 0.  1.
         11    1    4    4    0    0 -0.95244825088E+02  0.62705125518E+02  0.66480607904E+02  0.13199689655E+03  0.00000000000E+00 0. -1.
        -15    1    3    3    0    0  0.10717384975E+03 -0.41445783417E+01  0.17193550478E+02  0.10863787326E+03  0.17770000000E+01 0.  1.
         15    1    3    3    0    0  0.18663534510E+02 -0.58473435561E+02 -0.56674861251E+02  0.83562358832E+02  0.17770000000E+01 0.  1.
</event>
<event>
 8    1  0.3345745E-006  0.1922269E+03  0.7546771E-02  0.1060965E+00
        -11   -1    0    0    0    0  0.00000000000E+00  0.00000000000E+00  0.18250000000E+03  0.18250000000E+03  0.00000000000E+00 0. -1.
         11   -1    0    0    0    0 -0.00000000000E+00 -0.00000000000E+00 -0.18250000000E+03  0.18250000000E+03  0.00000000000E+00 0.  1.
         25    2    1    2    0    0  0.47270895696E+02 -0.34779823270E+02  0.13372586698E+03  0.19222686976E+03  0.12499755306E+03 0.  0.
         23    2    1    2    0    0 -0.47270895696E+02  0.34779823270E+02 -0.13372586698E+03  0.17277313024E+03  0.92324283622E+02 0.  0.
        -11    1    4    4    0    0 -0.31586177758E+02  0.17785847587E+02  0.81558919613E+00  0.36258629118E+02  0.00000000000E+00 0. -1.
         11    1    4    4    0    0 -0.15684717937E+02  0.16993975684E+02 -0.13454145618E+03  0.13651450112E+03  0.00000000000E+00 0.  1.
        -15    1    3    3    0    0  0.27521626002E+02  0.44448317902E+02  0.30331567113E+02  0.60466970775E+02  0.17770000000E+01 0. -1.
         15    1    3    3    0    0  0.19749269694E+02 -0.79228141173E+02  0.10339429987E+03  0.13175989899E+03  0.17770000000E+01 0. -1.
</event>
<event>
 8    1  0.3345745E-006  0.1924866E+03  0.7546771E-02  0.1060772E+00
        -11   -1    0    0    0    0  0.00000000000E+00  0.00000000000E+00  0.18250000000E+03  0.18250000000E+03  0.00000000000E+00 0. -1.
         11   -1    0    0    0    0 -0.00000000000E+00 -0.00000000000E+00 -0.18250000000E+03  0.18250000000E+03  0.00000000000E+00 0.  1.
         25    2    1    2    0    0 -0.26168871393E+02 -0.14233106562E+03 -0.22001506767E+02  0.19248658459E+03  0.12499630746E+03 0.  0.
         23    2    1    2    0    0  0.26168871393E+02  0.14233106562E+03  0.22001506767E+02  0.17251341541E+03  0.91290033002E+02 0.  0.
        -11    1    4    4    0    0 -0.29589505321E+02  0.89178640967E+02  0.89876419661E+01  0.94388275427E+02  0.00000000000E+00 0.  1.
         11    1    4    4    0    0  0.55758376713E+02  0.53152424651E+02  0.13013864801E+02  0.78125139981E+02  0.00000000000E+00 0. -1.
        -15    1    3    3    0    0 -0.58401730446E+02 -0.18204832994E+02  0.50578894009E+01  0.61407801113E+02  0.17770000000E+01 0.  1.
         15    1    3    3    0    0  0.32232859053E+02 -0.12412623262E+03 -0.27059396168E+02  0.13107878348E+03  0.17770000000E+01 0.  1.
</event>
<event>
 8    1  0.3345745E-006  0.1949879E+03  0.7546771E-02  0.1058927E+00
        -11   -1    0    0    0    0  0.00000000000E+00  0.00000000000E+00  0.18250000000E+03  0.18250000000E+03  0.00000000000E+00 0.  1.
         11   -1    0    0    0    0 -0.00000000000E+00 -0.00000000000E+00 -0.18250000000E+03  0.18250000000E+03  0.00000000000E+00 0. -1.
         25    2    1    2    0    0 -0.12122021324E+03 -0.84172821727E+02  0.24799075740E+02  0.19498794458E+03  0.12500360139E+03 0.  0.
         23    2    1    2    0    0  0.12122021324E+03  0.84172821727E+02 -0.24799075740E+02  0.17001205542E+03  0.80682716954E+02 0.  0.
        -11    1    4    4    0    0  0.76727376359E+02  0.41065859115E+02  0.24980174719E+02  0.90540069565E+02  0.00000000000E+00 0.  1.
         11    1    4    4    0    0  0.44492836878E+02  0.43106962611E+02 -0.49779250460E+02  0.79471985852E+02  0.00000000000E+00 0. -1.
        -15    1    3    3    0    0 -0.88491270595E+02 -0.11276293654E+03 -0.29769386136E+01  0.14338132627E+03  0.17770000000E+01 0. -1.
         15    1    3    3    0    0 -0.32728942642E+02  0.28590114817E+02  0.27776014354E+02  0.51606618317E+02  0.17770000000E+01 0. -1.
</event>
<event>
 8    1  0.3345745E-006  0.1924757E+03  0.7546771E-02  0.1060780E+00
        -11   -1    0    0    0    0  0.00000000000E+00  0.00000000000E+00  0.18250000000E+03  0.18250000000E+03  0.00000000000E+00 0.  1.
         11   -1    0    0    0    0 -0.00000000000E+00 -0.00000000000E+00 -0.18250000000E+03  0.18250000000E+03  0.00000000000E+00 0. -1.
         25    2    1    2    0    0 -0.18938454964E+02  0.14509560186E+03 -0.33361044093E+01  0.19247572407E+03  0.12499750401E+03 0.  0.
         23    2    1    2    0    0  0.18938454964E+02 -0.14509560186E+03  0.33361044093E+01  0.17252427593E+03  0.91335083281E+02 0.  0.
        -11    1    4    4    0    0 -0.23242115604E+02 -0.91232725097E+02  0.30428078109E+02  0.98941770773E+02  0.00000000000E+00 0.  1.
         11    1    4    4    0    0  0.42180570568E+02 -0.53862876762E+02 -0.27091973700E+02  0.73582505158E+02  0.00000000000E+00 0. -1.
        -15    1    3    3    0    0 -0.43559572867E+02  0.15404756092E+03 -0.20051762248E+02  0.16134843759E+03  0.17770000000E+01 0. -1.
         15    1    3    3    0    0  0.24621117903E+02 -0.89519590590E+01  0.16715657839E+02  0.31127286483E+02  0.17770000000E+01 0. -1.
</event>
<event>
 8    1  0.5531293E-006  0.1908597E+03  0.7546771E-02  0.1061989E+00
        -11   -1    0    0    0    0  0.00000000000E+00  0.00000000000E+00  0.18250000000E+03  0.18250000000E+03  0.00000000000E+00 0.  1.
         11   -1    0    0    0    0 -0.00000000000E+00 -0.00000000000E+00 -0.18250000000E+03  0.18250000000E+03  0.00000000000E+00 0. -1.
         25    2    1    2    0    0 -0.50980585955E+02 -0.97591089808E+02 -0.93156437131E+02  0.19085970131E+03  0.12500505130E+03 0.  0.
         23    2    1    2    0    0  0.50980585955E+02  0.97591089808E+02  0.93156437131E+02  0.17414029869E+03  0.97589348265E+02 0.  0.
        -11    1    4    4    0    0  0.10184901835E+02  0.41379567593E+02  0.95572878351E+02  0.10464308824E+03  0.00000000000E+00 0.  1.
         11    1    4    4    0    0  0.40795684120E+02  0.56211522215E+02 -0.24164412201E+01  0.69497210453E+02  0.00000000000E+00 0. -1.
        -15    1    3    3    0    0 -0.52707610803E+02 -0.10811864727E+03 -0.26302980760E+02  0.12313707260E+03  0.17770000000E+01 0. -1.
         15    1    3    3    0    0  0.17270248476E+01  0.10527557460E+02 -0.66853456371E+02  0.67722628705E+02  0.17770000000E+01 0. -1.
</event>
<event>
 8    1  0.3345745E-006  0.1926592E+03  0.7546771E-02  0.1060644E+00
        -11   -1    0    0    0    0  0.00000000000E+00  0.00000000000E+00  0.18250000000E+03  0.18250000000E+03  0.00000000000E+00 0. -1.
         11   -1    0    0    0    0 -0.00000000000E+00 -0.00000000000E+00 -0.18250000000E+03  0.18250000000E+03  0.00000000000E+00 0.  1.
         25    2    1    2    0    0  0.45245107003E+02  0.10656258253E+03  0.89947099355E+02  0.19265918094E+03  0.12499750243E+03 0.  0.
         23    2    1    2    0    0 -0.45245107003E+02 -0.10656258253E+03 -0.89947099355E+02  0.17234081906E+03  0.90598970904E+02 0.  0.
        -11    1    4    4    0    0 -0.72563098123E+02 -0.82846450695E+02 -0.74742691957E+02  0.13309923968E+03  0.00000000000E+00 0. -1.
         11    1    4    4    0    0  0.27317991120E+02 -0.23716131837E+02 -0.15204407398E+02  0.39241579383E+02  0.00000000000E+00 0.  1.
        -15    1    3    3    0    0  0.28877870248E+02  0.77424629218E+02  0.12131099263E+03  0.14679243598E+03  0.17770000000E+01 0.  1.
         15    1    3    3    0    0  0.16367236755E+02  0.29137953314E+02 -0.31363893277E+02  0.45866744955E+02  0.17770000000E+01 0.  1.
</event>
<event>
 8    1  0.3345745E-006  0.1924417E+03  0.7546771E-02  0.1060806E+00
        -11   -1    0    0    0    0  0.00000000000E+00  0.00000000000E+00  0.18250000000E+03  0.18250000000E+03  0.00000000000E+00 0.  1.
         11   -1    0    0    0    0 -0.00000000000E+00 -0.00000000000E+00 -0.18250000000E+03  0.18250000000E+03  0.00000000000E+00 0. -1.
         25    2    1    2    0    0 -0.10535302075E+03 -0.43739411179E+02  0.91620006143E+02  0.19244167785E+03  0.12500871480E+03 0.  0.
         23    2    1    2    0    0  0.10535302075E+03  0.43739411179E+02 -0.91620006143E+02  0.17255832215E+03  0.91486359347E+02 0.  0.
        -11    1    4    4    0    0  0.31114446453E+02 -0.18176080473E+02  0.44046055992E+01  0.36302606380E+02  0.00000000000E+00 0.  1.
         11    1    4    4    0    0  0.74238574297E+02  0.61915491653E+02 -0.96024611742E+02  0.13625571577E+03  0.00000000000E+00 0. -1.
        -15    1    3    3    0    0 -0.84910532960E+02  0.20554103077E+02  0.12214301978E+02  0.88230474682E+02  0.17770000000E+01 0.  1.
         15    1    3    3    0    0 -0.20442487790E+02 -0.64293514257E+02  0.79405704165E+02  0.10421120317E+03  0.17770000000E+01 0.  1.
</event>
<event>
 8    1  0.3345745E-006  0.1924908E+03  0.7546771E-02  0.1060769E+00
        -11   -1    0    0    0    0  0.00000000000E+00  0.00000000000E+00  0.18250000000E+03  0.18250000000E+03  0.00000000000E+00 0.  1.
         11   -1    0    0    0    0 -0.00000000000E+00 -0.00000000000E+00 -0.18250000000E+03  0.18250000000E+03  0.00000000000E+00 0. -1.
         25    2    1    2    0    0 -0.72811030701E+02  0.12516906007E+03  0.21442054935E+02  0.19249081834E+03  0.12499685449E+03 0.  0.
         23    2    1    2    0    0  0.72811030701E+02 -0.12516906007E+03 -0.21442054935E+02  0.17250918166E+03  0.91273853028E+02 0.  0.
        -11    1    4    4    0    0  0.64057148280E+02 -0.43578963902E+02 -0.41703345162E+02  0.87986438377E+02  0.00000000000E+00 0. -1.
         11    1    4    4    0    0  0.87538824212E+01 -0.81590096173E+02  0.20261290228E+02  0.84522743286E+02  0.00000000000E+00 0.  1.
        -15    1    3    3    0    0 -0.64893061089E+02  0.15082945424E+03  0.21261040563E+02  0.16557724245E+03  0.17770000000E+01 0. -1.
         15    1    3    3    0    0 -0.79179696123E+01 -0.25660394166E+02  0.18101437187E+00  0.26913575882E+02  0.17770000000E+01 0. -1.
</event>
<event>
 8    1  0.3345745E-006  0.1927861E+03  0.7546771E-02  0.1060550E+00
        -11   -1    0    0    0    0  0.00000000000E+00  0.00000000000E+00  0.18250000000E+03  0.18250000000E+03  0.00000000000E+00 0.  1.
         11   -1    0    0    0    0 -0.00000000000E+00 -0.00000000000E+00 -0.18250000000E+03  0.18250000000E+03  0.00000000000E+00 0. -1.
         25    2    1    2    0    0 -0.11069452336E+03 -0.53374110893E+02  0.80242423488E+02  0.19278610256E+03  0.12500224637E+03 0.  0.
         23    2    1    2    0    0  0.11069452336E+03  0.53374110893E+02 -0.80242423488E+02  0.17221389744E+03  0.90092767352E+02 0.  0.
        -11    1    4    4    0    0 -0.12582081025E+00  0.31711654384E+02  0.31102353231E+01  0.31864061549E+02  0.00000000000E+00 0.  1.
         11    1    4    4    0    0  0.11082034417E+03  0.21662456509E+02 -0.83352658811E+02  0.14034983589E+03  0.00000000000E+00 0. -1.
        -15    1    3    3    0    0 -0.77466983463E+02  0.31687862063E+02  0.33362416026E+02  0.90119158124E+02  0.17770000000E+01 0.  1.
         15    1    3    3    0    0 -0.33227539898E+02 -0.85061972956E+02  0.46880007463E+02  0.10266694443E+03  0.17770000000E+01 0.  1.
</event>
<event>
 8    1  0.3345745E-006  0.1921281E+03  0.7546771E-02  0.1061039E+00
        -11   -1    0    0    0    0  0.00000000000E+00  0.00000000000E+00  0.18250000000E+03  0.18250000000E+03  0.00000000000E+00 0.  1.
         11   -1    0    0    0    0 -0.00000000000E+00 -0.00000000000E+00 -0.18250000000E+03  0.18250000000E+03  0.00000000000E+00 0. -1.
         25    2    1    2    0    0  0.75199598218E+02 -0.10054590206E+03  0.74311321875E+02  0.19212806658E+03  0.12500625351E+03 0.  0.
         23    2    1    2    0    0 -0.75199598218E+02  0.10054590206E+03 -0.74311321875E+02  0.17287193342E+03  0.92725804460E+02 0.  0.
        -11    1    4    4    0    0 -0.60793914306E+02  0.11023788558E+02 -0.48641190211E+02  0.78634530049E+02  0.00000000000E+00 0. -1.
         11    1    4    4    0    0 -0.14405683912E+02  0.89522113501E+02 -0.25670131664E+02  0.94237403372E+02  0.00000000000E+00 0.  1.
        -15    1    3    3    0    0  0.36441452356E+02 -0.76234589529E+02  0.10664665670E+03  0.13607482943E+03  0.17770000000E+01 0. -1.
         15    1    3    3    0    0  0.38758145863E+02 -0.24311312531E+02 -0.32335334824E+02  0.56053237149E+02  0.17770000000E+01 0. -1.
</event>
<event>
 8    1  0.3345745E-006  0.1941336E+03  0.7546771E-02  0.1059554E+00
        -11   -1    0    0    0    0  0.00000000000E+00  0.00000000000E+00  0.18250000000E+03  0.18250000000E+03  0.00000000000E+00 0.  1.
         11   -1    0    0    0    0 -0.00000000000E+00 -0.00000000000E+00 -0.18250000000E+03  0.18250000000E+03  0.00000000000E+00 0. -1.
         25    2    1    2    0    0 -0.19381884991E+02 -0.13397522961E+03  0.61139894955E+02  0.19413364585E+03  0.12499906433E+03 0.  0.
         23    2    1    2    0    0  0.19381884991E+02  0.13397522961E+03 -0.61139894955E+02  0.17086635415E+03  0.84452380723E+02 0.  0.
        -11    1    4    4    0    0  0.29391037276E+02  0.44503175069E+02 -0.60745230311E+02  0.80835318202E+02  0.00000000000E+00 0. -1.
         11    1    4    4    0    0 -0.10009152285E+02  0.89472054539E+02 -0.39466464398E+00  0.90031035944E+02  0.00000000000E+00 0.  1.
        -15    1    3    3    0    0 -0.68576698623E+02 -0.90318491954E+02  0.60038912741E+02  0.12832779261E+03  0.17770000000E+01 0. -1.
         15    1    3    3    0    0  0.49194813632E+02 -0.43656737654E+02  0.11009822140E+01  0.65805853248E+02  0.17770000000E+01 0. -1.
</event>
<event>
 8    1  0.3345745E-006  0.1941362E+03  0.7546771E-02  0.1059552E+00
        -11   -1    0    0    0    0  0.00000000000E+00  0.00000000000E+00  0.18250000000E+03  0.18250000000E+03  0.00000000000E+00 0. -1.
         11   -1    0    0    0    0 -0.00000000000E+00 -0.00000000000E+00 -0.18250000000E+03  0.18250000000E+03  0.00000000000E+00 0.  1.
         25    2    1    2    0    0  0.32760310698E+02  0.13662645248E+03  0.48208409467E+02  0.19413619401E+03  0.12499914243E+03 0.  0.
         23    2    1    2    0    0 -0.32760310698E+02 -0.13662645248E+03 -0.48208409467E+02  0.17086380599E+03  0.84441482566E+02 0.  0.
        -11    1    4    4    0    0 -0.34232692298E+02 -0.18155988749E+02 -0.33970688028E+02  0.51531784314E+02  0.00000000000E+00 0.  1.
         11    1    4    4    0    0  0.14723816004E+01 -0.11847046373E+03 -0.14237721439E+02  0.11933202167E+03  0.00000000000E+00 0. -1.
        -15    1    3    3    0    0 -0.12626483949E+01  0.94358849578E+02  0.86240948741E+02  0.12785087306E+03  0.17770000000E+01 0.  1.
         15    1    3    3    0    0  0.34022959093E+02  0.42267602904E+02 -0.38032539274E+02  0.66285320949E+02  0.17770000000E+01 0.  1.
</event>
<event>
 8    1  0.3345745E-006  0.1920759E+03  0.7546771E-02  0.1061078E+00
        -11   -1    0    0    0    0  0.00000000000E+00  0.00000000000E+00  0.18250000000E+03  0.18250000000E+03  0.00000000000E+00 0.  1.
         11   -1    0    0    0    0 -0.00000000000E+00 -0.00000000000E+00 -0.18250000000E+03  0.18250000000E+03  0.00000000000E+00 0. -1.
         25    2    1    2    0    0 -0.12930367145E+03 -0.38545295844E+02  0.55373552221E+02  0.19207590448E+03  0.12498697338E+03 0.  0.
         23    2    1    2    0    0  0.12930367145E+03  0.38545295844E+02 -0.55373552221E+02  0.17292409552E+03  0.92904968894E+02 0.  0.
        -11    1    4    4    0    0  0.12549529109E+03  0.10286340993E+02 -0.20009256099E+02  0.12749606749E+03  0.00000000000E+00 0.  1.
         11    1    4    4    0    0  0.38083803552E+01  0.28258954851E+02 -0.35364296122E+02  0.45428028027E+02  0.00000000000E+00 0. -1.
        -15    1    3    3    0    0 -0.94610898914E+02  0.36144515475E+02  0.35533522916E+02  0.10734727371E+03  0.17770000000E+01 0.  1.
         15    1    3    3    0    0 -0.34692772532E+02 -0.74689811319E+02  0.19840029306E+02  0.84728630773E+02  0.17770000000E+01 0.  1.
</event>
<event>
 8    1  0.3345745E-006  0.1928699E+03  0.7546771E-02  0.1060487E+00
        -11   -1    0    0    0    0  0.00000000000E+00  0.00000000000E+00  0.18250000000E+03  0.18250000000E+03  0.00000000000E+00 0.  1.
         11   -1    0    0    0    0 -0.00000000000E+00 -0.00000000000E+00 -0.18250000000E+03  0.18250000000E+03  0.00000000000E+00 0. -1.
         25    2    1    2    0    0  0.36066168960E+02  0.89307310746E+02  0.11089500587E+03  0.19286988938E+03  0.12499811041E+03 0.  0.
         23    2    1    2    0    0 -0.36066168960E+02 -0.89307310746E+02 -0.11089500587E+03  0.17213011062E+03  0.89746912803E+02 0.  0.
        -11    1    4    4    0    0 -0.32820174500E+02 -0.13880361373E+02 -0.85247721512E+02  0.92395899849E+02  0.00000000000E+00 0. -1.
         11    1    4    4    0    0 -0.32459944596E+01 -0.75426949373E+02 -0.25647284363E+02  0.79734210769E+02  0.00000000000E+00 0.  1.
        -15    1    3    3    0    0  0.10630716999E+02  0.42036326375E+02 -0.22633960902E+02  0.48944037371E+02  0.17770000000E+01 0. -1.
         15    1    3    3    0    0  0.25435451960E+02  0.47270984371E+02  0.13352896678E+03  0.14392585201E+03  0.17770000000E+01 0. -1.
</event>
<event>
 8    1  0.3345745E-006  0.1894695E+03  0.7546771E-02  0.1063039E+00
        -11   -1    0    0    0    0  0.00000000000E+00  0.00000000000E+00  0.18250000000E+03  0.18250000000E+03  0.00000000000E+00 0. -1.
         11   -1    0    0    0    0 -0.00000000000E+00 -0.00000000000E+00 -0.18250000000E+03  0.18250000000E+03  0.00000000000E+00 0.  1.
         25    2    1    2    0    0 -0.95273722586E+02  0.96067170119E+02 -0.44369957834E+02  0.18946951410E+03  0.12499608084E+03 0.  0.
         23    2    1    2    0    0  0.95273722586E+02 -0.96067170119E+02  0.44369957834E+02  0.17553048590E+03  0.10264635859E+03 0.  0.
        -11    1    4    4    0    0  0.23458294868E+02  0.70836748407E+01 -0.22406848883E+02  0.33204471449E+02  0.00000000000E+00 0.  1.
         11    1    4    4    0    0  0.71815427718E+02 -0.10315084496E+03  0.66776806717E+02  0.14232601445E+03  0.00000000000E+00 0. -1.
        -15    1    3    3    0    0 -0.81343662193E+02  0.49970164714E+02  0.30671314853E+02  0.10028806521E+03  0.17770000000E+01 0. -1.
         15    1    3    3    0    0 -0.13930060393E+02  0.46097005405E+02 -0.75041272687E+02  0.89181448886E+02  0.17770000000E+01 0. -1.
</event>
<event>
 8    1  0.3345745E-006  0.1921677E+03  0.7546771E-02  0.1061010E+00
        -11   -1    0    0    0    0  0.00000000000E+00  0.00000000000E+00  0.18250000000E+03  0.18250000000E+03  0.00000000000E+00 0.  1.
         11   -1    0    0    0    0 -0.00000000000E+00 -0.00000000000E+00 -0.18250000000E+03  0.18250000000E+03  0.00000000000E+00 0. -1.
         25    2    1    2    0    0  0.45245123649E+02 -0.23677315338E+02  0.13672753535E+03  0.19216768406E+03  0.12500505349E+03 0.  0.
         23    2    1    2    0    0 -0.45245123649E+02  0.23677315338E+02 -0.13672753535E+03  0.17283231594E+03  0.92568104856E+02 0.  0.
        -11    1    4    4    0    0 -0.15687077198E+02 -0.15793120683E+02  0.49628026719E+01  0.22806500439E+02  0.00000000000E+00 0.  1.
         11    1    4    4    0    0 -0.29558046451E+02  0.39470436021E+02 -0.14169033802E+03  0.15002581550E+03  0.00000000000E+00 0. -1.
        -15    1    3    3    0    0  0.74315655334E+02 -0.52295378997E+02  0.73439811827E+02  0.11685113171E+03  0.17770000000E+01 0. -1.
         15    1    3    3    0    0 -0.29070531685E+02  0.28618063660E+02  0.63287723519E+02  0.75316552346E+02  0.17770000000E+01 0. -1.
</event>
<event>
 8    1  0.3345745E-006  0.1940997E+03  0.7546771E-02  0.1059579E+00
        -11   -1    0    0    0    0  0.00000000000E+00  0.00000000000E+00  0.18250000000E+03  0.18250000000E+03  0.00000000000E+00 0.  1.
         11   -1    0    0    0    0 -0.00000000000E+00 -0.00000000000E+00 -0.18250000000E+03  0.18250000000E+03  0.00000000000E+00 0. -1.
         25    2    1    2    0    0  0.21234499289E+02  0.14692139753E+03 -0.36119461373E+01  0.19409972413E+03  0.12499942295E+03 0.  0.
         23    2    1    2    0    0 -0.21234499289E+02 -0.14692139753E+03  0.36119461373E+01  0.17090027587E+03  0.84599391993E+02 0.  0.
        -11    1    4    4    0    0 -0.53439000463E+02 -0.79642746220E+02 -0.34934376429E+01  0.95973422897E+02  0.00000000000E+00 0.  1.
         11    1    4    4    0    0  0.32204501174E+02 -0.67278651313E+02  0.71053837802E+01  0.74926852977E+02  0.00000000000E+00 0. -1.
        -15    1    3    3    0    0 -0.89073214627E+00  0.14469247370E+03 -0.41141171663E+02  0.15044088235E+03  0.17770000000E+01 0.  1.
         15    1    3    3    0    0  0.22125231435E+02  0.22289238382E+01  0.37529225526E+02  0.43658841775E+02  0.17770000000E+01 0.  1.
</event>
<event>
 8    1  0.3345745E-006  0.1926509E+03  0.7546771E-02  0.1060650E+00
        -11   -1    0    0    0    0  0.00000000000E+00  0.00000000000E+00  0.18250000000E+03  0.18250000000E+03  0.00000000000E+00 0. -1.
         11   -1    0    0    0    0 -0.00000000000E+00 -0.00000000000E+00 -0.18250000000E+03  0.18250000000E+03  0.00000000000E+00 0.  1.
         25    2    1    2    0    0 -0.34136111594E+02  0.14255221291E+03 -0.18961503944E+01  0.19265091869E+03  0.12499749425E+03 0.  0.
         23    2    1    2    0    0  0.34136111594E+02 -0.14255221291E+03  0.18961503944E+01  0.17234908131E+03  0.90632239966E+02 0.  0.
        -11    1    4    4    0    0 -0.48237925632E+00  0.10144851766E+02 -0.11334274782E+02  0.15218951736E+02  0.00000000000E+00 0.  1.
         11    1    4    4    0    0  0.34618490850E+02 -0.15269706467E+03  0.13230425176E+02  0.15713012957E+03  0.00000000000E+00 0. -1.
        -15    1    3    3    0    0 -0.30000406619E+01  0.10580793048E+03 -0.56353394611E+02  0.11992990123E+03  0.17770000000E+01 0.  1.
         15    1    3    3    0    0 -0.31136070932E+02  0.36744282426E+02  0.54457244216E+02  0.72721017462E+02  0.17770000000E+01 0.  1.
</event>
<event>
 8    1  0.3857105E-006  0.1907468E+03  0.7546771E-02  0.1062073E+00
        -11   -1    0    0    0    0  0.00000000000E+00  0.00000000000E+00  0.18250000000E+03  0.18250000000E+03  0.00000000000E+00 0.  1.
         11   -1    0    0    0    0 -0.00000000000E+00 -0.00000000000E+00 -0.18250000000E+03  0.18250000000E+03  0.00000000000E+00 0. -1.
         25    2    1    2    0    0  0.98981550680E+01  0.12556825261E+03  0.69950709138E+02  0.19074682285E+03  0.12500355667E+03 0.  0.
         23    2    1    2    0    0 -0.98981550680E+01 -0.12556825261E+03 -0.69950709138E+02  0.17425317715E+03  0.98008716459E+02 0.  0.
        -11    1    4    4    0    0  0.12089912217E+02 -0.36287145090E+02  0.22076751855E+02  0.44162267250E+02  0.00000000000E+00 0.  1.
         11    1    4    4    0    0 -0.21988067285E+02 -0.89281107517E+02 -0.92027460993E+02  0.13009090990E+03  0.00000000000E+00 0. -1.
        -15    1    3    3    0    0  0.56026147478E+02  0.78182591641E+02  0.78339313761E+02  0.12406309946E+03  0.17770000000E+01 0. -1.
         15    1    3    3    0    0 -0.46127992410E+02  0.47385660966E+02 -0.83886046227E+01  0.66683723392E+02  0.17770000000E+01 0. -1.
</event>
<event>
 8    1  0.3345745E-006  0.1925225E+03  0.7546771E-02  0.1060745E+00
        -11   -1    0    0    0    0  0.00000000000E+00  0.00000000000E+00  0.18250000000E+03  0.18250000000E+03  0.00000000000E+00 0.  1.
         11   -1    0    0    0    0 -0.00000000000E+00 -0.00000000000E+00 -0.18250000000E+03  0.18250000000E+03  0.00000000000E+00 0. -1.
         25    2    1    2    0    0  0.93053384267E+01  0.13479782478E+03  0.56418857963E+02  0.19252252737E+03  0.12499917248E+03 0.  0.
         23    2    1    2    0    0 -0.93053384267E+01 -0.13479782478E+03 -0.56418857963E+02  0.17247747263E+03  0.91150140661E+02 0.  0.
        -11    1    4    4    0    0  0.35973623054E+02 -0.36200261135E+02 -0.35007391045E+02  0.61887623073E+02  0.00000000000E+00 0. -1.
         11    1    4    4    0    0 -0.45278961481E+02 -0.98597563648E+02 -0.21411466919E+02  0.11058984956E+03  0.00000000000E+00 0.  1.
        -15    1    3    3    0    0 -0.61619966357E+01  0.13729614720E+03  0.36995806736E+01  0.13749562489E+03  0.17770000000E+01 0.  1.
         15    1    3    3    0    0  0.15467335062E+02 -0.24983224171E+01  0.52719277290E+02  0.55026902473E+02  0.17770000000E+01 0.  1.
</event>
<event>
 8    1  0.3345745E-006  0.1917769E+03  0.7546771E-02  0.1061301E+00
        -11   -1    0    0    0    0  0.00000000000E+00  0.00000000000E+00  0.18250000000E+03  0.18250000000E+03  0.00000000000E+00 0.  1.
         11   -1    0    0    0    0 -0.00000000000E+00 -0.00000000000E+00 -0.18250000000E+03  0.18250000000E+03  0.00000000000E+00 0. -1.
         25    2    1    2    0    0  0.71832714619E+02 -0.11678861651E+03  0.48444922196E+02  0.19177691568E+03  0.12502781717E+03 0.  0.
         23    2    1    2    0    0 -0.71832714619E+02  0.11678861651E+03 -0.48444922196E+02  0.17322308432E+03  0.94126545765E+02 0.  0.
        -11    1    4    4    0    0  0.17486764806E+02  0.69447076903E+01 -0.22430908290E+02  0.29277321513E+02  0.00000000000E+00 0. -1.
         11    1    4    4    0    0 -0.89319479425E+02  0.10984390882E+03 -0.26014013907E+02  0.14394576280E+03  0.00000000000E+00 0.  1.
        -15    1    3    3    0    0  0.21051323569E+02  0.12404570505E+02  0.46932814331E+02  0.52942217402E+02  0.17770000000E+01 0.  1.
         15    1    3    3    0    0  0.50781391051E+02 -0.12919318701E+03  0.15121078652E+01  0.13883469828E+03  0.17770000000E+01 0.  1.
</event>
<event>
 8    1  0.3345745E-006  0.1919523E+03  0.7546771E-02  0.1061170E+00
        -11   -1    0    0    0    0  0.00000000000E+00  0.00000000000E+00  0.18250000000E+03  0.18250000000E+03  0.00000000000E+00 0.  1.
         11   -1    0    0    0    0 -0.00000000000E+00 -0.00000000000E+00 -0.18250000000E+03  0.18250000000E+03  0.00000000000E+00 0. -1.
         25    2    1    2    0    0  0.80263045024E+02  0.12149920555E+03  0.41410768559E+01  0.19195226460E+03  0.12499724005E+03 0.  0.
         23    2    1    2    0    0 -0.80263045024E+02 -0.12149920555E+03 -0.41410768559E+01  0.17304773540E+03  0.93403195148E+02 0.  0.
        -11    1    4    4    0    0 -0.15003016011E+02 -0.42575023234E+02 -0.44109772641E+02  0.63114143702E+02  0.00000000000E+00 0. -1.
         11    1    4    4    0    0 -0.65260029013E+02 -0.78924182317E+02  0.39968695785E+02  0.10993359170E+03  0.00000000000E+00 0.  1.
        -15    1    3    3    0    0  0.48391634480E+02  0.46637199524E+02 -0.58605686758E+02  0.89188356395E+02  0.17770000000E+01 0. -1.
         15    1    3    3    0    0  0.31871410544E+02  0.74862006026E+02  0.62746763614E+02  0.10276390820E+03  0.17770000000E+01 0. -1.
</event>
<event>
 8    1  0.3345745E-006  0.1922145E+03  0.7546771E-02  0.1060975E+00
        -11   -1    0    0    0    0  0.00000000000E+00  0.00000000000E+00  0.18250000000E+03  0.18250000000E+03  0.00000000000E+00 0.  1.
         11   -1    0    0    0    0 -0.00000000000E+00 -0.00000000000E+00 -0.18250000000E+03  0.18250000000E+03  0.00000000000E+00 0. -1.
         25    2    1    2    0    0 -0.12049555679E+03  0.50436720013E+02 -0.65275440090E+02  0.19221445546E+03  0.12498988710E+03 0.  0.
         23    2    1    2    0    0  0.12049555679E+03 -0.50436720013E+02  0.65275440090E+02  0.17278554454E+03  0.92362976305E+02 0.  0.
        -11    1    4    4    0    0  0.75292940636E+02  0.13262763284E+02  0.54608667328E+02  0.93952298252E+02  0.00000000000E+00 0.  1.
         11    1    4    4    0    0  0.45202616154E+02 -0.63699483297E+02  0.10666772762E+02  0.78833246290E+02  0.00000000000E+00 0. -1.
        -15    1    3    3    0    0 -0.68838800217E+02  0.80889191102E+02 -0.37714593144E+01  0.10629780471E+03  0.17770000000E+01 0. -1.
         15    1    3    3    0    0 -0.51656756573E+02 -0.30452471089E+02 -0.61503980776E+02  0.85916650745E+02  0.17770000000E+01 0. -1.
</event>
<event>
 8    1  0.3345745E-006  0.1925358E+03  0.7546771E-02  0.1060736E+00
        -11   -1    0    0    0    0  0.00000000000E+00  0.00000000000E+00  0.18250000000E+03  0.18250000000E+03  0.00000000000E+00 0. -1.
         11   -1    0    0    0    0 -0.00000000000E+00 -0.00000000000E+00 -0.18250000000E+03  0.18250000000E+03  0.00000000000E+00 0.  1.
         25    2    1    2    0    0  0.10621610607E+03  0.59923658486E+02 -0.81077782181E+02  0.19253575817E+03  0.12499482139E+03 0.  0.
         23    2    1    2    0    0 -0.10621610607E+03 -0.59923658486E+02  0.81077782181E+02  0.17246424183E+03  0.91091173634E+02 0.  0.
        -11    1    4    4    0    0 -0.79424695774E+02 -0.84386328532E+02  0.63679871970E+02  0.13222881999E+03  0.00000000000E+00 0.  1.
         11    1    4    4    0    0 -0.26791410292E+02  0.24462670047E+02  0.17397910211E+02  0.40235421844E+02  0.00000000000E+00 0. -1.
        -15    1    3    3    0    0  0.10744488193E+03  0.20731521242E+02 -0.10063948190E+03  0.14867972851E+03  0.17770000000E+01 0. -1.
         15    1    3    3    0    0 -0.12287758593E+01  0.39192137243E+02  0.19561699719E+02  0.43856029651E+02  0.17770000000E+01 0. -1.
</event>
<event>
 8    1  0.3345745E-006  0.1937336E+03  0.7546771E-02  0.1059849E+00
        -11   -1    0    0    0    0  0.00000000000E+00  0.00000000000E+00  0.18250000000E+03  0.18250000000E+03  0.00000000000E+00 0.  1.
         11   -1    0    0    0    0 -0.00000000000E+00 -0.00000000000E+00 -0.18250000000E+03  0.18250000000E+03  0.00000000000E+00 0. -1.
         25    2    1    2    0    0 -0.39088261468E+01  0.84777407700E+02  0.12124774782E+03  0.19373357587E+03  0.12501677603E+03 0.  0.
         23    2    1    2    0    0  0.39088261468E+01 -0.84777407700E+02 -0.12124774782E+03  0.17126642413E+03  0.86189813228E+02 0.  0.
        -11    1    4    4    0    0 -0.16281818893E+02 -0.42306631136E+02 -0.46824196166E+01  0.45572729982E+02  0.00000000000E+00 0.  1.
         11    1    4    4    0    0  0.20190645040E+02 -0.42470776565E+02 -0.11656532821E+03  0.12569369415E+03  0.00000000000E+00 0. -1.
        -15    1    3    3    0    0 -0.48293933921E+02  0.89257868736E+02  0.59892729380E+02  0.11785401116E+03  0.17770000000E+01 0.  1.
         15    1    3    3    0    0  0.44385107774E+02 -0.44804610362E+01  0.61355018443E+02  0.75879564708E+02  0.17770000000E+01 0.  1.
</event>
<event>
 8    1  0.3345745E-006  0.1917547E+03  0.7546771E-02  0.1061318E+00
        -11   -1    0    0    0    0  0.00000000000E+00  0.00000000000E+00  0.18250000000E+03  0.18250000000E+03  0.00000000000E+00 0.  1.
         11   -1    0    0    0    0 -0.00000000000E+00 -0.00000000000E+00 -0.18250000000E+03  0.18250000000E+03  0.00000000000E+00 0. -1.
         25    2    1    2    0    0  0.12720167185E+03 -0.11984676024E+02  0.69419583714E+02  0.19175465305E+03  0.12500748210E+03 0.  0.
         23    2    1    2    0    0 -0.12720167185E+03  0.11984676024E+02 -0.69419583714E+02  0.17324534695E+03  0.94185847438E+02 0.  0.
        -11    1    4    4    0    0  0.10018623007E+02 -0.12358008190E+02  0.30001611309E+01  0.16189321795E+02  0.00000000000E+00 0.  1.
         11    1    4    4    0    0 -0.13722029486E+03  0.24342684214E+02 -0.72419744845E+02  0.15705602516E+03  0.00000000000E+00 0. -1.
        -15    1    3    3    0    0  0.14463648030E+03  0.14919522715E+02  0.47896947490E+02  0.15309989843E+03  0.17770000000E+01 0.  1.
         15    1    3    3    0    0 -0.17434808450E+02 -0.26904198739E+02  0.21522636223E+02  0.38654754617E+02  0.17770000000E+01 0.  1.
</event>
<event>
 8    1  0.3345745E-006  0.1928275E+03  0.7546771E-02  0.1060519E+00
        -11   -1    0    0    0    0  0.00000000000E+00  0.00000000000E+00  0.18250000000E+03  0.18250000000E+03  0.00000000000E+00 0.  1.
         11   -1    0    0    0    0 -0.00000000000E+00 -0.00000000000E+00 -0.18250000000E+03  0.18250000000E+03  0.00000000000E+00 0. -1.
         25    2    1    2    0    0  0.50856615485E+02 -0.88847697776E+02 -0.10523688961E+03  0.19282752077E+03  0.12500936403E+03 0.  0.
         23    2    1    2    0    0 -0.50856615485E+02  0.88847697776E+02  0.10523688961E+03  0.17217247923E+03  0.89934703706E+02 0.  0.
        -11    1    4    4    0    0 -0.27092770075E+02  0.19334317726E+02  0.91592962305E+02  0.97453090131E+02  0.00000000000E+00 0.  1.
         11    1    4    4    0    0 -0.23763845410E+02  0.69513380050E+02  0.13643927301E+02  0.74719389096E+02  0.00000000000E+00 0. -1.
        -15    1    3    3    0    0  0.72622415161E+02 -0.54283951886E+02 -0.12583681504E+02  0.91554734369E+02  0.17770000000E+01 0.  1.
         15    1    3    3    0    0 -0.21765799676E+02 -0.34563745890E+02 -0.92653208102E+02  0.10127278640E+03  0.17770000000E+01 0.  1.
</event>
<event>
 8    1  0.3345745E-006  0.1946570E+03  0.7546771E-02  0.1059170E+00
        -11   -1    0    0    0    0  0.00000000000E+00  0.00000000000E+00  0.18250000000E+03  0.18250000000E+03  0.00000000000E+00 0. -1.
         11   -1    0    0    0    0 -0.00000000000E+00 -0.00000000000E+00 -0.18250000000E+03  0.18250000000E+03  0.00000000000E+00 0. -1.
         25    2    1    2    0    0 -0.14879001972E+03 -0.22705462436E+01  0.11052028368E+02  0.19465701137E+03  0.12500231757E+03 0.  0.
         23    2    1    2    0    0  0.14879001972E+03  0.22705462436E+01 -0.11052028368E+02  0.17034298863E+03  0.82164232466E+02 0.  0.
        -11    1    4    4    0    0  0.15676963743E+03  0.92750467142E+01 -0.30945192525E+01  0.15707425557E+03  0.00000000000E+00 0. -1.
         11    1    4    4    0    0 -0.79796177172E+01 -0.70045004706E+01 -0.79575091151E+01  0.13268733062E+02  0.00000000000E+00 0. -1.
        -15    1    3    3    0    0 -0.13651908410E+03  0.37486712055E+02  0.36028680324E+02  0.14609564483E+03  0.17770000000E+01 0.  1.
         15    1    3    3    0    0 -0.12270935621E+02 -0.39757258298E+02 -0.24976651957E+02  0.48561366542E+02  0.17770000000E+01 0.  1.
</event>
<event>
 8    1  0.3345745E-006  0.1924885E+03  0.7546771E-02  0.1060771E+00
        -11   -1    0    0    0    0  0.00000000000E+00  0.00000000000E+00  0.18250000000E+03  0.18250000000E+03  0.00000000000E+00 0.  1.
         11   -1    0    0    0    0 -0.00000000000E+00 -0.00000000000E+00 -0.18250000000E+03  0.18250000000E+03  0.00000000000E+00 0. -1.
         25    2    1    2    0    0  0.10334186095E+03  0.91636412921E+02  0.48476364512E+02  0.19248854784E+03  0.12500044295E+03 0.  0.
         23    2    1    2    0    0 -0.10334186095E+03 -0.91636412921E+02 -0.48476364512E+02  0.17251145216E+03  0.91287845921E+02 0.  0.
        -11    1    4    4    0    0 -0.11294914197E+03 -0.51308259282E+02 -0.38109382108E+02  0.12977816129E+03  0.00000000000E+00 0. -1.
         11    1    4    4    0    0  0.96072810244E+01 -0.40328153638E+02 -0.10366982404E+02  0.42733290872E+02  0.00000000000E+00 0.  1.
        -15    1    3    3    0    0  0.83412623630E+02  0.12311354946E+03  0.34595081919E+02  0.15269115647E+03  0.17770000000E+01 0. -1.
         15    1    3    3    0    0  0.19929237316E+02 -0.31477136540E+02  0.13881282593E+02  0.39797391374E+02  0.17770000000E+01 0. -1.
</event>
<event>
 8    1  0.3345745E-006  0.1922030E+03  0.7546771E-02  0.1060983E+00
        -11   -1    0    0    0    0  0.00000000000E+00  0.00000000000E+00  0.18250000000E+03  0.18250000000E+03  0.00000000000E+00 0.  1.
         11   -1    0    0    0    0 -0.00000000000E+00 -0.00000000000E+00 -0.18250000000E+03  0.18250000000E+03  0.00000000000E+00 0. -1.
         25    2    1    2    0    0 -0.27356096138E+02 -0.10009485289E+03  0.10270757044E+03  0.19220302370E+03  0.12500328686E+03 0.  0.
         23    2    1    2    0    0  0.27356096138E+02  0.10009485289E+03 -0.10270757044E+03  0.17279697630E+03  0.92426264779E+02 0.  0.
        -11    1    4    4    0    0  0.30287727360E+02  0.33445947995E+02 -0.95590740609E+02  0.10570509711E+03  0.00000000000E+00 0. -1.
         11    1    4    4    0    0 -0.29316312222E+01  0.66648904894E+02 -0.71168298279E+01  0.67091879181E+02  0.00000000000E+00 0.  1.
        -15    1    3    3    0    0  0.24562183226E+01 -0.85729915260E+02  0.12547469139E+03  0.15199574760E+03  0.17770000000E+01 0.  1.
         15    1    3    3    0    0 -0.29812314460E+02 -0.14364937629E+02 -0.22767120953E+02  0.40207276109E+02  0.17770000000E+01 0.  1.
</event>
<event>
 8    1  0.3345745E-006  0.1924200E+03  0.7546771E-02  0.1060822E+00
        -11   -1    0    0    0    0  0.00000000000E+00  0.00000000000E+00  0.18250000000E+03  0.18250000000E+03  0.00000000000E+00 0. -1.
         11   -1    0    0    0    0 -0.00000000000E+00 -0.00000000000E+00 -0.18250000000E+03  0.18250000000E+03  0.00000000000E+00 0.  1.
         25    2    1    2    0    0  0.21612444455E+02 -0.47406583564E+02  0.13670041755E+03  0.19241999647E+03  0.12499587579E+03 0.  0.
         23    2    1    2    0    0 -0.21612444455E+02  0.47406583564E+02 -0.13670041755E+03  0.17258000353E+03  0.91555292254E+02 0.  0.
        -11    1    4    4    0    0  0.32968589502E+02  0.35970601856E+02 -0.74330148979E+02  0.88914470919E+02  0.00000000000E+00 0.  1.
         11    1    4    4    0    0 -0.54581033957E+02  0.11435981708E+02 -0.62370268569E+02  0.83665532609E+02  0.00000000000E+00 0. -1.
        -15    1    3    3    0    0 -0.25350639669E+02  0.31360247841E+02  0.62696855414E+02  0.74566570822E+02  0.17770000000E+01 0.  1.
         15    1    3    3    0    0  0.46963084124E+02 -0.78766831404E+02  0.74003562133E+02  0.11785342565E+03  0.17770000000E+01 0.  1.
</event>
<event>
 8    1  0.3345745E-006  0.1927049E+03  0.7546771E-02  0.1060610E+00
        -11   -1    0    0    0    0  0.00000000000E+00  0.00000000000E+00  0.18250000000E+03  0.18250000000E+03  0.00000000000E+00 0.  1.
         11   -1    0    0    0    0 -0.00000000000E+00 -0.00000000000E+00 -0.18250000000E+03  0.18250000000E+03  0.00000000000E+00 0. -1.
         25    2    1    2    0    0 -0.46079853456E+02  0.10612930808E+03  0.90124236504E+02  0.19270492923E+03  0.12500411519E+03 0.  0.
         23    2    1    2    0    0  0.46079853456E+02 -0.10612930808E+03 -0.90124236504E+02  0.17229507077E+03  0.90423616821E+02 0.  0.
        -11    1    4    4    0    0  0.19616826611E+02 -0.20207592535E+02 -0.76302654982E+02  0.81334259937E+02  0.00000000000E+00 0. -1.
         11    1    4    4    0    0  0.26463026845E+02 -0.85921715544E+02 -0.13821581523E+02  0.90960810834E+02  0.00000000000E+00 0.  1.
        -15    1    3    3    0    0 -0.16868529022E+02  0.11865015871E+03  0.28276882987E+02  0.12314685247E+03  0.17770000000E+01 0.  1.
         15    1    3    3    0    0 -0.29211324434E+02 -0.12520850633E+02  0.61847353517E+02  0.69558076755E+02  0.17770000000E+01 0.  1.
</event>
<event>
 8    1  0.3345745E-006  0.1936525E+03  0.7546771E-02  0.1059908E+00
        -11   -1    0    0    0    0  0.00000000000E+00  0.00000000000E+00  0.18250000000E+03  0.18250000000E+03  0.00000000000E+00 0. -1.
         11   -1    0    0    0    0 -0.00000000000E+00 -0.00000000000E+00 -0.18250000000E+03  0.18250000000E+03  0.00000000000E+00 0.  1.
         25    2    1    2    0    0 -0.12106353256E+03 -0.80335848386E+02 -0.27658557165E+02  0.19365246056E+03  0.12500420890E+03 0.  0.
         23    2    1    2    0    0  0.12106353256E+03  0.80335848386E+02  0.27658557165E+02  0.17134753944E+03  0.86514484543E+02 0.  0.
        -11    1    4    4    0    0  0.39386946588E+02  0.38696388936E+02 -0.30203695514E+02  0.62936518024E+02  0.00000000000E+00 0.  1.
         11    1    4    4    0    0  0.81676585974E+02  0.41639459449E+02  0.57862252679E+02  0.10841102142E+03  0.00000000000E+00 0. -1.
        -15    1    3    3    0    0  0.23682673568E+02  0.12220916926E+01  0.50527591862E+01  0.24311533062E+02  0.17770000000E+01 0. -1.
         15    1    3    3    0    0 -0.14474620613E+03 -0.81557940078E+02 -0.32711316351E+02  0.16934092750E+03  0.17770000000E+01 0. -1.
</event>
<event>
 8    1  0.3345745E-006  0.1919358E+03  0.7546771E-02  0.1061183E+00
        -11   -1    0    0    0    0  0.00000000000E+00  0.00000000000E+00  0.18250000000E+03  0.18250000000E+03  0.00000000000E+00 0.  1.
         11   -1    0    0    0    0 -0.00000000000E+00 -0.00000000000E+00 -0.18250000000E+03  0.18250000000E+03  0.00000000000E+00 0.  1.
         25    2    1    2    0    0  0.59365041877E+02  0.50846465561E+02  0.12290929476E+03  0.19193580541E+03  0.12499234937E+03 0.  0.
         23    2    1    2    0    0 -0.59365041877E+02 -0.50846465561E+02 -0.12290929476E+03  0.17306419459E+03  0.93460951498E+02 0.  0.
        -11    1    4    4    0    0  0.74723225011E+01 -0.53902719884E+02 -0.47293456478E+02  0.72097224913E+02  0.00000000000E+00 0.  1.
         11    1    4    4    0    0 -0.66837364379E+02  0.30562543233E+01 -0.75615838282E+02  0.10096696968E+03  0.00000000000E+00 0.  1.
        -15    1    3    3    0    0  0.88340181177E+02  0.54820433144E+02  0.12495840363E+03  0.16256391933E+03  0.17770000000E+01 0.  1.
         15    1    3    3    0    0 -0.28975139300E+02 -0.39739675839E+01 -0.20491088657E+01  0.29371886081E+02  0.17770000000E+01 0.  1.
</event>
<event>
 8    1  0.3345745E-006  0.1925663E+03  0.7546771E-02  0.1060713E+00
        -11   -1    0    0    0    0  0.00000000000E+00  0.00000000000E+00  0.18250000000E+03  0.18250000000E+03  0.00000000000E+00 0.  1.
         11   -1    0    0    0    0 -0.00000000000E+00 -0.00000000000E+00 -0.18250000000E+03  0.18250000000E+03  0.00000000000E+00 0. -1.
         25    2    1    2    0    0 -0.33848042775E+02 -0.14088747472E+03  0.21445595585E+02  0.19256632226E+03  0.12500761723E+03 0.  0.
         23    2    1    2    0    0  0.33848042775E+02  0.14088747472E+03 -0.21445595585E+02  0.17243367774E+03  0.90986202883E+02 0.  0.
        -11    1    4    4    0    0 -0.23621776351E+02  0.43533747885E+02  0.17999567028E+02  0.52698765983E+02  0.00000000000E+00 0.  1.
         11    1    4    4    0    0  0.57469819127E+02  0.97353726837E+02 -0.39445162613E+02  0.11973491176E+03  0.00000000000E+00 0. -1.
        -15    1    3    3    0    0 -0.63173682772E+02 -0.13254493943E+03 -0.11931729427E+02  0.14732480803E+03  0.17770000000E+01 0.  1.
         15    1    3    3    0    0  0.29325639997E+02 -0.83425352894E+01  0.33377325012E+02  0.45241514234E+02  0.17770000000E+01 0.  1.
</event>
<event>
 8    1  0.3345745E-006  0.1925094E+03  0.7546771E-02  0.1060755E+00
        -11   -1    0    0    0    0  0.00000000000E+00  0.00000000000E+00  0.18250000000E+03  0.18250000000E+03  0.00000000000E+00 0. -1.
         11   -1    0    0    0    0 -0.00000000000E+00 -0.00000000000E+00 -0.18250000000E+03  0.18250000000E+03  0.00000000000E+00 0.  1.
         25    2    1    2    0    0 -0.61198714056E+02  0.10140106511E+03  0.86058943240E+02  0.19250938188E+03  0.12500504708E+03 0.  0.
         23    2    1    2    0    0  0.61198714056E+02 -0.10140106511E+03 -0.86058943240E+02  0.17249061812E+03  0.91210816355E+02 0.  0.
        -11    1    4    4    0    0  0.45602506763E+02 -0.74455915492E+02 -0.70813086620E+01  0.87598041686E+02  0.00000000000E+00 0. -1.
         11    1    4    4    0    0  0.15596207294E+02 -0.26945149614E+02 -0.78977634578E+02  0.84892576432E+02  0.00000000000E+00 0.  1.
        -15    1    3    3    0    0 -0.57907867323E+02  0.12850355011E+03  0.55499135054E+02  0.15149189816E+03  0.17770000000E+01 0.  1.
         15    1    3    3    0    0 -0.32908467331E+01 -0.27102485000E+02  0.30559808186E+02  0.41017483721E+02  0.17770000000E+01 0.  1.
</event>
<event>
 8    1  0.3345745E-006  0.1925329E+03  0.7546771E-02  0.1060738E+00
        -11   -1    0    0    0    0  0.00000000000E+00  0.00000000000E+00  0.18250000000E+03  0.18250000000E+03  0.00000000000E+00 0.  1.
         11   -1    0    0    0    0 -0.00000000000E+00 -0.00000000000E+00 -0.18250000000E+03  0.18250000000E+03  0.00000000000E+00 0. -1.
         25    2    1    2    0    0 -0.13656666060E+03  0.43602004576E+02  0.29862564906E+02  0.19253294378E+03  0.12500229625E+03 0.  0.
         23    2    1    2    0    0  0.13656666060E+03 -0.43602004576E+02 -0.29862564906E+02  0.17246705622E+03  0.91112705516E+02 0.  0.
        -11    1    4    4    0    0  0.11804971872E+03 -0.12563958057E+02 -0.52514980313E+02  0.12981298968E+03  0.00000000000E+00 0. -1.
         11    1    4    4    0    0  0.18516941877E+02 -0.31038046519E+02  0.22652415407E+02  0.42654066534E+02  0.00000000000E+00 0.  1.
        -15    1    3    3    0    0 -0.71421835549E+02 -0.38447591840E+02  0.33287552789E+02  0.87695580340E+02  0.17770000000E+01 0.  1.
         15    1    3    3    0    0 -0.65144825051E+02  0.82049596415E+02 -0.34249878833E+01  0.10483736344E+03  0.17770000000E+01 0.  1.
</event>
<event>
 8    1  0.3345745E-006  0.1922675E+03  0.7546771E-02  0.1060935E+00
        -11   -1    0    0    0    0  0.00000000000E+00  0.00000000000E+00  0.18250000000E+03  0.18250000000E+03  0.00000000000E+00 0.  1.
         11   -1    0    0    0    0 -0.00000000000E+00 -0.00000000000E+00 -0.18250000000E+03  0.18250000000E+03  0.00000000000E+00 0. -1.
         25    2    1    2    0    0 -0.12073492898E+03 -0.27017743048E+02  0.77691231501E+02  0.19226752964E+03  0.12499597589E+03 0.  0.
         23    2    1    2    0    0  0.12073492898E+03  0.27017743048E+02 -0.77691231501E+02  0.17273247036E+03  0.92161257315E+02 0.  0.
        -11    1    4    4    0    0  0.10737141753E+03  0.11136821588E+02 -0.17874692124E+02  0.10941734193E+03  0.00000000000E+00 0.  1.
         11    1    4    4    0    0  0.13363511449E+02  0.15880921460E+02 -0.59816539377E+02  0.63315128427E+02  0.00000000000E+00 0. -1.
        -15    1    3    3    0    0  0.11110152430E+02 -0.41161046112E+02  0.12300756138E+02  0.44408710121E+02  0.17770000000E+01 0. -1.
         15    1    3    3    0    0 -0.13184508141E+03  0.14143303063E+02  0.65390475363E+02  0.14785881952E+03  0.17770000000E+01 0. -1.
</event>
<event>
 8    1  0.3345745E-006  0.1922490E+03  0.7546771E-02  0.1060949E+00
        -11   -1    0    0    0    0  0.00000000000E+00  0.00000000000E+00  0.18250000000E+03  0.18250000000E+03  0.00000000000E+00 0. -1.
         11   -1    0    0    0    0 -0.00000000000E+00 -0.00000000000E+00 -0.18250000000E+03  0.18250000000E+03  0.00000000000E+00 0.  1.
         25    2    1    2    0    0 -0.78904609715E+02  0.79138346911E+02 -0.94043456270E+02  0.19224896156E+03  0.12500670449E+03 0.  0.
         23    2    1    2    0    0  0.78904609715E+02 -0.79138346911E+02  0.94043456270E+02  0.17275103844E+03  0.92249304765E+02 0.  0.
        -11    1    4    4    0    0  0.62636232695E+02 -0.49238849370E+02  0.10945855456E+03  0.13538440494E+03  0.00000000000E+00 0. -1.
         11    1    4    4    0    0  0.16268377020E+02 -0.29899497541E+02 -0.15415098293E+02  0.37366633504E+02  0.00000000000E+00 0.  1.
        -15    1    3    3    0    0 -0.37893315783E+02 -0.30469482029E+02 -0.14630097497E+02  0.50808367400E+02  0.17770000000E+01 0.  1.
         15    1    3    3    0    0 -0.41011293932E+02  0.10960782894E+03 -0.79413358773E+02  0.14144059416E+03  0.17770000000E+01 0.  1.
</event>
<event>
 8    1  0.3345745E-006  0.1923093E+03  0.7546771E-02  0.1060904E+00
        -11   -1    0    0    0    0  0.00000000000E+00  0.00000000000E+00  0.18250000000E+03  0.18250000000E+03  0.00000000000E+00 0.  1.
         11   -1    0    0    0    0 -0.00000000000E+00 -0.00000000000E+00 -0.18250000000E+03  0.18250000000E+03  0.00000000000E+00 0. -1.
         25    2    1    2    0    0 -0.17769714974E+02 -0.14338204648E+03  0.21984409574E+02  0.19230925058E+03  0.12500143829E+03 0.  0.
         23    2    1    2    0    0  0.17769714974E+02  0.14338204648E+03 -0.21984409574E+02  0.17269074942E+03  0.92003296936E+02 0.  0.
        -11    1    4    4    0    0 -0.18784976870E+02  0.13128722326E+03 -0.13931756212E+02  0.13335405572E+03  0.00000000000E+00 0.  1.
         11    1    4    4    0    0  0.36554691843E+02  0.12094823220E+02 -0.80526533626E+01  0.39336693692E+02  0.00000000000E+00 0. -1.
        -15    1    3    3    0    0 -0.55552602662E+02 -0.84264684193E+02 -0.29615825502E+02  0.10519925624E+03  0.17770000000E+01 0.  1.
         15    1    3    3    0    0  0.37782887688E+02 -0.59117362284E+02  0.51600235077E+02  0.87109994343E+02  0.17770000000E+01 0.  1.
</event>
<event>
 8    1  0.3345745E-006  0.1924699E+03  0.7546771E-02  0.1060785E+00
        -11   -1    0    0    0    0  0.00000000000E+00  0.00000000000E+00  0.18250000000E+03  0.18250000000E+03  0.00000000000E+00 0.  1.
         11   -1    0    0    0    0 -0.00000000000E+00 -0.00000000000E+00 -0.18250000000E+03  0.18250000000E+03  0.00000000000E+00 0. -1.
         25    2    1    2    0    0 -0.87768471662E+02 -0.95350282373E+02  0.68005980338E+02  0.19246991118E+03  0.12499948952E+03 0.  0.
         23    2    1    2    0    0  0.87768471662E+02  0.95350282373E+02 -0.68005980338E+02  0.17253008882E+03  0.91361026817E+02 0.  0.
        -11    1    4    4    0    0  0.56542365375E+02  0.48757825990E+02 -0.85752724014E+02  0.11370089865E+03  0.00000000000E+00 0. -1.
         11    1    4    4    0    0  0.31226106286E+02  0.46592456383E+02  0.17746743675E+02  0.58829190175E+02  0.00000000000E+00 0.  1.
        -15    1    3    3    0    0 -0.15119389392E+02 -0.10383670422E+03  0.26059242112E+02  0.10813370847E+03  0.17770000000E+01 0. -1.
         15    1    3    3    0    0 -0.72649082269E+02  0.84864218470E+01  0.41946738226E+02  0.84336202707E+02  0.17770000000E+01 0. -1.
</event>
<event>
 8    1  0.3345745E-006  0.1910481E+03  0.7546771E-02  0.1061847E+00
        -11   -1    0    0    0    0  0.00000000000E+00  0.00000000000E+00  0.18250000000E+03  0.18250000000E+03  0.00000000000E+00 0.  1.
         11   -1    0    0    0    0 -0.00000000000E+00 -0.00000000000E+00 -0.18250000000E+03  0.18250000000E+03  0.00000000000E+00 0. -1.
         25    2    1    2    0    0 -0.83208394118E+02  0.29245891692E+02 -0.11443345532E+03  0.19104807135E+03  0.12500156335E+03 0.  0.
         23    2    1    2    0    0  0.83208394118E+02 -0.29245891692E+02  0.11443345532E+03  0.17395192865E+03  0.96877751583E+02 0.  0.
        -11    1    4    4    0    0  0.21513084913E+02  0.95493013959E+01  0.95909489918E+02  0.98755416236E+02  0.00000000000E+00 0.  1.
         11    1    4    4    0    0  0.61695309205E+02 -0.38795193088E+02  0.18523965398E+02  0.75196512411E+02  0.00000000000E+00 0. -1.
        -15    1    3    3    0    0 -0.39455729246E+02 -0.10693617044E+02 -0.12439282312E+03  0.13094976208E+03  0.17770000000E+01 0. -1.
         15    1    3    3    0    0 -0.43752664872E+02  0.39939508736E+02  0.99593678048E+01  0.60098309274E+02  0.17770000000E+01 0. -1.
</event>
<event>
 8    1  0.3345745E-006  0.1928081E+03  0.7546771E-02  0.1060533E+00
        -11   -1    0    0    0    0  0.00000000000E+00  0.00000000000E+00  0.18250000000E+03  0.18250000000E+03  0.00000000000E+00 0. -1.
         11   -1    0    0    0    0 -0.00000000000E+00 -0.00000000000E+00 -0.18250000000E+03  0.18250000000E+03  0.00000000000E+00 0.  1.
         25    2    1    2    0    0 -0.11824266124E+03 -0.78421009220E+02  0.37746304799E+02  0.19280809250E+03  0.12497597923E+03 0.  0.
         23    2    1    2    0    0  0.11824266124E+03  0.78421009220E+02 -0.37746304799E+02  0.17219190750E+03  0.89967148775E+02 0.  0.
        -11    1    4    4    0    0  0.69539840718E+02  0.15915867305E+02  0.20063983784E+02  0.74105787388E+02  0.00000000000E+00 0. -1.
         11    1    4    4    0    0  0.48702820520E+02  0.62505141915E+02 -0.57810288584E+02  0.98086120111E+02  0.00000000000E+00 0.  1.
        -15    1    3    3    0    0 -0.47742693209E+02  0.30769562065E+02 -0.20625525492E+01  0.56864246734E+02  0.17770000000E+01 0. -1.
         15    1    3    3    0    0 -0.70499968028E+02 -0.10919057128E+03  0.39808857349E+02  0.13594384577E+03  0.17770000000E+01 0. -1.
</event>
<event>
 8    1  0.3345745E-006  0.1924240E+03  0.7546771E-02  0.1060819E+00
        -11   -1    0    0    0    0  0.00000000000E+00  0.00000000000E+00  0.18250000000E+03  0.18250000000E+03  0.00000000000E+00 0.  1.
         11   -1    0    0    0    0 -0.00000000000E+00 -0.00000000000E+00 -0.18250000000E+03  0.18250000000E+03  0.00000000000E+00 0. -1.
         25    2    1    2    0    0  0.86883658258E+02  0.30528183697E+02 -0.11366774377E+03  0.19242401499E+03  0.12500362194E+03 0.  0.
         23    2    1    2    0    0 -0.86883658258E+02 -0.30528183697E+02  0.11366774377E+03  0.17257598501E+03  0.91549847385E+02 0.  0.
        -11    1    4    4    0    0 -0.90997867377E+02  0.68339886776E+01  0.70348161643E+02  0.11522230303E+03  0.00000000000E+00 0.  1.
         11    1    4    4    0    0  0.41142091195E+01 -0.37362172374E+02  0.43319582130E+02  0.57353681984E+02  0.00000000000E+00 0. -1.
        -15    1    3    3    0    0  0.93791807666E+02  0.65311506416E+02 -0.10643849829E+03  0.15618837250E+03  0.17770000000E+01 0. -1.
         15    1    3    3    0    0 -0.69081494077E+01 -0.34783322719E+02 -0.72292454833E+01  0.36235642493E+02  0.17770000000E+01 0. -1.
</event>
<event>
 8    1  0.3345745E-006  0.1925286E+03  0.7546771E-02  0.1060741E+00
        -11   -1    0    0    0    0  0.00000000000E+00  0.00000000000E+00  0.18250000000E+03  0.18250000000E+03  0.00000000000E+00 0. -1.
         11   -1    0    0    0    0 -0.00000000000E+00 -0.00000000000E+00 -0.18250000000E+03  0.18250000000E+03  0.00000000000E+00 0.  1.
         25    2    1    2    0    0 -0.14635952123E+03  0.15347564796E+01  0.41642523863E+01  0.19252862887E+03  0.12500586787E+03 0.  0.
         23    2    1    2    0    0  0.14635952123E+03 -0.15347564796E+01 -0.41642523863E+01  0.17247137113E+03  0.91134888657E+02 0.  0.
        -11    1    4    4    0    0  0.78570813685E+02  0.23427096253E+01  0.43190234938E+02  0.89689784511E+02  0.00000000000E+00 0. -1.
         11    1    4    4    0    0  0.67788707545E+02 -0.38774661049E+01 -0.47354487325E+02  0.82781586623E+02  0.00000000000E+00 0.  1.
        -15    1    3    3    0    0 -0.50264844599E+02 -0.41603577235E+02 -0.41884658031E+02  0.77555751229E+02  0.17770000000E+01 0.  1.
         15    1    3    3    0    0 -0.96094676632E+02  0.43138333714E+02  0.46048910417E+02  0.11497287764E+03  0.17770000000E+01 0.  1.
</event>
<event>
 8    1  0.3345745E-006  0.1927005E+03  0.7546771E-02  0.1060613E+00
        -11   -1    0    0    0    0  0.00000000000E+00  0.00000000000E+00  0.18250000000E+03  0.18250000000E+03  0.00000000000E+00 0.  1.
         11   -1    0    0    0    0 -0.00000000000E+00 -0.00000000000E+00 -0.18250000000E+03  0.18250000000E+03  0.00000000000E+00 0. -1.
         25    2    1    2    0    0 -0.80064096744E+02 -0.11994874289E+03  0.26678590567E+02  0.19270047933E+03  0.12499506802E+03 0.  0.
         23    2    1    2    0    0  0.80064096744E+02  0.11994874289E+03 -0.26678590567E+02  0.17229952067E+03  0.90429072322E+02 0.  0.
        -11    1    4    4    0    0  0.45486605540E+02  0.32335185699E+02  0.28989766159E+02  0.62888807110E+02  0.00000000000E+00 0.  1.
         11    1    4    4    0    0  0.34577491204E+02  0.87613557194E+02 -0.55668356726E+02  0.10941071356E+03  0.00000000000E+00 0. -1.
        -15    1    3    3    0    0 -0.10009380746E+03 -0.68723094137E+02  0.52036305709E+02  0.13210817083E+03  0.17770000000E+01 0. -1.
         15    1    3    3    0    0  0.20029710720E+02 -0.51225648756E+02 -0.25357715142E+02  0.60592308490E+02  0.17770000000E+01 0. -1.
</event>
<event>
 8    1  0.3345745E-006  0.1917901E+03  0.7546771E-02  0.1061291E+00
        -11   -1    0    0    0    0  0.00000000000E+00  0.00000000000E+00  0.18250000000E+03  0.18250000000E+03  0.00000000000E+00 0.  1.
         11   -1    0    0    0    0 -0.00000000000E+00 -0.00000000000E+00 -0.18250000000E+03  0.18250000000E+03  0.00000000000E+00 0. -1.
         25    2    1    2    0    0 -0.34365233865E+02  0.14042497246E+03 -0.16066892295E+02  0.19179006745E+03  0.12500057102E+03 0.  0.
         23    2    1    2    0    0  0.34365233865E+02 -0.14042497246E+03  0.16066892295E+02  0.17320993255E+03  0.94039318990E+02 0.  0.
        -11    1    4    4    0    0 -0.42248293255E+00 -0.35370939070E+02 -0.36383909897E+02  0.50745154664E+02  0.00000000000E+00 0. -1.
         11    1    4    4    0    0  0.34787716797E+02 -0.10505403339E+03  0.52450802192E+02  0.12246477788E+03  0.00000000000E+00 0.  1.
        -15    1    3    3    0    0 -0.10587408451E+02  0.12847961645E+03  0.35508314168E+02  0.13372772025E+03  0.17770000000E+01 0.  1.
         15    1    3    3    0    0 -0.23777825413E+02  0.11945356015E+02 -0.51575206463E+02  0.58062347200E+02  0.17770000000E+01 0.  1.
</event>
<event>
 8    1  0.3345745E-006  0.1924079E+03  0.7546771E-02  0.1060831E+00
        -11   -1    0    0    0    0  0.00000000000E+00  0.00000000000E+00  0.18250000000E+03  0.18250000000E+03  0.00000000000E+00 0. -1.
         11   -1    0    0    0    0 -0.00000000000E+00 -0.00000000000E+00 -0.18250000000E+03  0.18250000000E+03  0.00000000000E+00 0.  1.
         25    2    1    2    0    0  0.12412332300E+03  0.74476613915E+02  0.21030083424E+02  0.19240787659E+03  0.12500064493E+03 0.  0.
         23    2    1    2    0    0 -0.12412332300E+03 -0.74476613915E+02 -0.21030083424E+02  0.17259212341E+03  0.91610104918E+02 0.  0.
        -11    1    4    4    0    0 -0.69555159764E+02 -0.80003856411E+02  0.14856094421E+02  0.10704784366E+03  0.00000000000E+00 0.  1.
         11    1    4    4    0    0 -0.54568163232E+02  0.55272424957E+01 -0.35886177845E+02  0.65544279754E+02  0.00000000000E+00 0. -1.
        -15    1    3    3    0    0  0.10316281789E+03  0.90663102617E+02  0.56150307450E+02  0.14838591553E+03  0.17770000000E+01 0. -1.
         15    1    3    3    0    0  0.20960505102E+02 -0.16186488702E+02 -0.35120224026E+02  0.44021961057E+02  0.17770000000E+01 0. -1.
</event>
<event>
 8    1  0.3345745E-006  0.1895022E+03  0.7546771E-02  0.1063014E+00
        -11   -1    0    0    0    0  0.00000000000E+00  0.00000000000E+00  0.18250000000E+03  0.18250000000E+03  0.00000000000E+00 0.  1.
         11   -1    0    0    0    0 -0.00000000000E+00 -0.00000000000E+00 -0.18250000000E+03  0.18250000000E+03  0.00000000000E+00 0. -1.
         25    2    1    2    0    0  0.46922859915E+01 -0.88524813541E+02 -0.11147412014E+03  0.18950221566E+03  0.12500380041E+03 0.  0.
         23    2    1    2    0    0 -0.46922859915E+01  0.88524813541E+02  0.11147412014E+03  0.17549778434E+03  0.10253942017E+03 0.  0.
        -11    1    4    4    0    0  0.22230133637E+02 -0.97853778164E+01 -0.21403691167E+00  0.24289468342E+02  0.00000000000E+00 0. -1.
         11    1    4    4    0    0 -0.26922419628E+02  0.98310191358E+02  0.11168815705E+03  0.15120831600E+03  0.00000000000E+00 0.  1.
        -15    1    3    3    0    0  0.61197610705E+02 -0.65532484608E+02 -0.82846390749E+02  0.12209150783E+03  0.17770000000E+01 0. -1.
         15    1    3    3    0    0 -0.56505324714E+02 -0.22992328934E+02 -0.28627729388E+02  0.67410707827E+02  0.17770000000E+01 0. -1.
</event>
<event>
 8    1  0.3345745E-006  0.1929705E+03  0.7546771E-02  0.1060413E+00
        -11   -1    0    0    0    0  0.00000000000E+00  0.00000000000E+00  0.18250000000E+03  0.18250000000E+03  0.00000000000E+00 0.  1.
         11   -1    0    0    0    0 -0.00000000000E+00 -0.00000000000E+00 -0.18250000000E+03  0.18250000000E+03  0.00000000000E+00 0. -1.
         25    2    1    2    0    0  0.11760962754E+03 -0.85910138054E+02  0.19990217222E+02  0.19297049663E+03  0.12500170988E+03 0.  0.
         23    2    1    2    0    0 -0.11760962754E+03  0.85910138054E+02 -0.19990217222E+02  0.17202950337E+03  0.89341843141E+02 0.  0.
        -11    1    4    4    0    0  0.74661605863E+00  0.37615452202E+02 -0.23123583471E+02  0.44160840033E+02  0.00000000000E+00 0. -1.
         11    1    4    4    0    0 -0.11835624360E+03  0.48294685852E+02  0.31333662495E+01  0.12786866334E+03  0.00000000000E+00 0.  1.
        -15    1    3    3    0    0  0.90540642718E+02 -0.74119886009E+02 -0.41961925998E+02  0.12431945322E+03  0.17770000000E+01 0.  1.
         15    1    3    3    0    0  0.27068984822E+02 -0.11790252045E+02  0.61952143220E+02  0.68651043409E+02  0.17770000000E+01 0.  1.
</event>
<event>
 8    1  0.3345745E-006  0.1922028E+03  0.7546771E-02  0.1060983E+00
        -11   -1    0    0    0    0  0.00000000000E+00  0.00000000000E+00  0.18250000000E+03  0.18250000000E+03  0.00000000000E+00 0. -1.
         11   -1    0    0    0    0 -0.00000000000E+00 -0.00000000000E+00 -0.18250000000E+03  0.18250000000E+03  0.00000000000E+00 0.  1.
         25    2    1    2    0    0  0.73511573704E+02  0.12519918966E+03  0.15274994081E+02  0.19220282617E+03  0.12501924806E+03 0.  0.
         23    2    1    2    0    0 -0.73511573704E+02 -0.12519918966E+03 -0.15274994081E+02  0.17279717383E+03  0.92448630498E+02 0.  0.
        -11    1    4    4    0    0 -0.30847952319E+02 -0.11765328120E+02 -0.37092222699E+02  0.49657346816E+02  0.00000000000E+00 0.  1.
         11    1    4    4    0    0 -0.42663621384E+02 -0.11343386154E+03  0.21817228619E+02  0.12313982701E+03  0.00000000000E+00 0. -1.
        -15    1    3    3    0    0  0.81263399810E+01  0.65843158991E+02 -0.49396518198E+02  0.82731691186E+02  0.17770000000E+01 0.  1.
         15    1    3    3    0    0  0.65385233723E+02  0.59356030664E+02  0.64671512278E+02  0.10947113498E+03  0.17770000000E+01 0.  1.
</event>
<event>
 8    1  0.3345745E-006  0.1925284E+03  0.7546771E-02  0.1060741E+00
        -11   -1    0    0    0    0  0.00000000000E+00  0.00000000000E+00  0.18250000000E+03  0.18250000000E+03  0.00000000000E+00 0. -1.
         11   -1    0    0    0    0 -0.00000000000E+00 -0.00000000000E+00 -0.18250000000E+03  0.18250000000E+03  0.00000000000E+00 0.  1.
         25    2    1    2    0    0 -0.35715438449E+01  0.40417144571E+02  0.14070183577E+03  0.19252844672E+03  0.12499557876E+03 0.  0.
         23    2    1    2    0    0  0.35715438449E+01 -0.40417144571E+02 -0.14070183577E+03  0.17247155328E+03  0.91121504604E+02 0.  0.
        -11    1    4    4    0    0  0.39176796632E+02 -0.29853404676E+02 -0.34969715979E+02  0.60406358943E+02  0.00000000000E+00 0. -1.
         11    1    4    4    0    0 -0.35605252787E+02 -0.10563739895E+02 -0.10573211979E+03  0.11206519434E+03  0.00000000000E+00 0.  1.
        -15    1    3    3    0    0 -0.20689986352E+02 -0.29601346989E+02  0.20110115429E+01  0.36214875055E+02  0.17770000000E+01 0. -1.
         15    1    3    3    0    0  0.17118442508E+02  0.70018491560E+02  0.13869082422E+03  0.15631357167E+03  0.17770000000E+01 0. -1.
</event>
<event>
 8    1  0.3345745E-006  0.1948132E+03  0.7546771E-02  0.1059055E+00
        -11   -1    0    0    0    0  0.00000000000E+00  0.00000000000E+00  0.18250000000E+03  0.18250000000E+03  0.00000000000E+00 0.  1.
         11   -1    0    0    0    0 -0.00000000000E+00 -0.00000000000E+00 -0.18250000000E+03  0.18250000000E+03  0.00000000000E+00 0. -1.
         25    2    1    2    0    0  0.13721277033E+03 -0.57224333994E+02  0.15029444113E+02  0.19481317934E+03  0.12499728763E+03 0.  0.
         23    2    1    2    0    0 -0.13721277033E+03  0.57224333994E+02 -0.15029444113E+02  0.17018682066E+03  0.81459812130E+02 0.  0.
        -11    1    4    4    0    0 -0.51734534164E+02  0.26228104401E+02 -0.46108752114E+02  0.74097182856E+02  0.00000000000E+00 0. -1.
         11    1    4    4    0    0 -0.85478236165E+02  0.30996229593E+02  0.31079308000E+02  0.96089637800E+02  0.00000000000E+00 0.  1.
        -15    1    3    3    0    0  0.10206213608E+02 -0.57810606479E+02 -0.21662995078E+02  0.62599329888E+02  0.17770000000E+01 0.  1.
         15    1    3    3    0    0  0.12700655672E+03  0.58627248491E+00  0.36692439191E+02  0.13221384946E+03  0.17770000000E+01 0.  1.
</event>
<event>
 8    1  0.3345745E-006  0.1924862E+03  0.7546771E-02  0.1060772E+00
        -11   -1    0    0    0    0  0.00000000000E+00  0.00000000000E+00  0.18250000000E+03  0.18250000000E+03  0.00000000000E+00 0. -1.
         11   -1    0    0    0    0 -0.00000000000E+00 -0.00000000000E+00 -0.18250000000E+03  0.18250000000E+03  0.00000000000E+00 0.  1.
         25    2    1    2    0    0 -0.12151411849E+03  0.88911527098E+01  0.81122140417E+02  0.19248622449E+03  0.12500164544E+03 0.  0.
         23    2    1    2    0    0  0.12151411849E+03 -0.88911527098E+01 -0.81122140417E+02  0.17251377551E+03  0.91298781412E+02 0.  0.
        -11    1    4    4    0    0  0.42768556379E+02 -0.22132605467E+02 -0.79137856381E+02  0.92638015696E+02  0.00000000000E+00 0.  1.
         11    1    4    4    0    0  0.78745562110E+02  0.13241452758E+02 -0.19842840355E+01  0.79875759817E+02  0.00000000000E+00 0. -1.
        -15    1    3    3    0    0 -0.85755058064E+02  0.17001927984E+02 -0.15787850824E+02  0.88856116849E+02  0.17770000000E+01 0. -1.
         15    1    3    3    0    0 -0.35759060425E+02 -0.81107752743E+01  0.96909991240E+02  0.10363010764E+03  0.17770000000E+01 0. -1.
</event>
<event>
 8    1  0.3345745E-006  0.1922899E+03  0.7546771E-02  0.1060919E+00
        -11   -1    0    0    0    0  0.00000000000E+00  0.00000000000E+00  0.18250000000E+03  0.18250000000E+03  0.00000000000E+00 0.  1.
         11   -1    0    0    0    0 -0.00000000000E+00 -0.00000000000E+00 -0.18250000000E+03  0.18250000000E+03  0.00000000000E+00 0. -1.
         25    2    1    2    0    0  0.13121414671E+03 -0.54171623243E+02  0.34615875522E+02  0.19228987258E+03  0.12500167678E+03 0.  0.
         23    2    1    2    0    0 -0.13121414671E+03  0.54171623243E+02 -0.34615875522E+02  0.17271012742E+03  0.92080465977E+02 0.  0.
        -11    1    4    4    0    0 -0.49577538955E+02 -0.20710217034E+02 -0.30658815610E+02  0.61861202971E+02  0.00000000000E+00 0.  1.
         11    1    4    4    0    0 -0.81636607751E+02  0.74881840276E+02 -0.39570599116E+01  0.11084892445E+03  0.00000000000E+00 0. -1.
        -15    1    3    3    0    0  0.90804108162E+02 -0.70505014360E+02 -0.25738095100E+02  0.11782168891E+03  0.17770000000E+01 0. -1.
         15    1    3    3    0    0  0.40410038544E+02  0.16333391117E+02  0.60353970622E+02  0.74468183672E+02  0.17770000000E+01 0. -1.
</event>
<event>
 8    1  0.3345745E-006  0.1924515E+03  0.7546771E-02  0.1060798E+00
        -11   -1    0    0    0    0  0.00000000000E+00  0.00000000000E+00  0.18250000000E+03  0.18250000000E+03  0.00000000000E+00 0.  1.
         11   -1    0    0    0    0 -0.00000000000E+00 -0.00000000000E+00 -0.18250000000E+03  0.18250000000E+03  0.00000000000E+00 0. -1.
         25    2    1    2    0    0 -0.69272705192E+02  0.59588367562E+02 -0.11429818628E+03  0.19245149291E+03  0.12499608195E+03 0.  0.
         23    2    1    2    0    0  0.69272705192E+02 -0.59588367562E+02  0.11429818628E+03  0.17254850709E+03  0.91429922238E+02 0.  0.
        -11    1    4    4    0    0  0.24067389401E+02 -0.10452781137E+02  0.10115167444E+03  0.10449957468E+03  0.00000000000E+00 0.  1.
         11    1    4    4    0    0  0.45205315790E+02 -0.49135586425E+02  0.13146511836E+02  0.68048932413E+02  0.00000000000E+00 0. -1.
        -15    1    3    3    0    0 -0.97070339409E+02  0.64473040029E+02 -0.59656292168E+02  0.13092537801E+03  0.17770000000E+01 0. -1.
         15    1    3    3    0    0  0.27797634217E+02 -0.48846724667E+01 -0.54641894110E+02  0.61526114895E+02  0.17770000000E+01 0. -1.
</event>
<event>
 8    1  0.3345745E-006  0.1910097E+03  0.7546771E-02  0.1061876E+00
        -11   -1    0    0    0    0  0.00000000000E+00  0.00000000000E+00  0.18250000000E+03  0.18250000000E+03  0.00000000000E+00 0. -1.
         11   -1    0    0    0    0 -0.00000000000E+00 -0.00000000000E+00 -0.18250000000E+03  0.18250000000E+03  0.00000000000E+00 0.  1.
         25    2    1    2    0    0 -0.13711684944E+03 -0.42183677899E+02 -0.16720439620E+02  0.19100967318E+03  0.12499851625E+03 0.  0.
         23    2    1    2    0    0  0.13711684944E+03  0.42183677899E+02  0.16720439620E+02  0.17399032682E+03  0.97018388183E+02 0.  0.
        -11    1    4    4    0    0  0.76288151017E+02  0.56890616727E+02  0.45056788012E+02  0.10529263224E+03  0.00000000000E+00 0.  1.
         11    1    4    4    0    0  0.60828698422E+02 -0.14706938828E+02 -0.28336348391E+02  0.68697694587E+02  0.00000000000E+00 0. -1.
        -15    1    3    3    0    0 -0.37855755331E+02 -0.14456281881E+02  0.52873268991E+02  0.66639197176E+02  0.17770000000E+01 0.  1.
         15    1    3    3    0    0 -0.99261094108E+02 -0.27727396017E+02 -0.69593708611E+02  0.12437047600E+03  0.17770000000E+01 0.  1.
</event>
<event>
 8    1  0.3345745E-006  0.1929629E+03  0.7546771E-02  0.1060419E+00
        -11   -1    0    0    0    0  0.00000000000E+00  0.00000000000E+00  0.18250000000E+03  0.18250000000E+03  0.00000000000E+00 0.  1.
         11   -1    0    0    0    0 -0.00000000000E+00 -0.00000000000E+00 -0.18250000000E+03  0.18250000000E+03  0.00000000000E+00 0. -1.
         25    2    1    2    0    0 -0.89477489051E+02  0.18123084144E+02  0.11521568068E+03  0.19296288646E+03  0.12500142099E+03 0.  0.
         23    2    1    2    0    0  0.89477489051E+02 -0.18123084144E+02 -0.11521568068E+03  0.17203711354E+03  0.89372524497E+02 0.  0.
        -11    1    4    4    0    0  0.84858967816E+02  0.15322558923E+02 -0.10675267062E+03  0.13722958105E+03  0.00000000000E+00 0.  1.
         11    1    4    4    0    0  0.46185212345E+01 -0.33445643067E+02 -0.84630100552E+01  0.34807532486E+02  0.00000000000E+00 0. -1.
        -15    1    3    3    0    0  0.82666513553E+01  0.44933510748E+02  0.98887191424E+01  0.46779294651E+02  0.17770000000E+01 0. -1.
         15    1    3    3    0    0 -0.97744140406E+02 -0.26810426604E+02  0.10532696154E+03  0.14618359181E+03  0.17770000000E+01 0. -1.
</event>
<event>
 8    1  0.3345745E-006  0.1931552E+03  0.7546771E-02  0.1060276E+00
        -11   -1    0    0    0    0  0.00000000000E+00  0.00000000000E+00  0.18250000000E+03  0.18250000000E+03  0.00000000000E+00 0.  1.
         11   -1    0    0    0    0 -0.00000000000E+00 -0.00000000000E+00 -0.18250000000E+03  0.18250000000E+03  0.00000000000E+00 0. -1.
         25    2    1    2    0    0 -0.23702138750E+02 -0.14295214453E+03 -0.26170219009E+02  0.19315521086E+03  0.12500779222E+03 0.  0.
         23    2    1    2    0    0  0.23702138750E+02  0.14295214453E+03  0.26170219009E+02  0.17184478914E+03  0.88592574094E+02 0.  0.
        -11    1    4    4    0    0  0.21253009310E+02  0.82857722269E+02 -0.28906775859E+02  0.90292271180E+02  0.00000000000E+00 0. -1.
         11    1    4    4    0    0  0.24491294393E+01  0.60094422257E+02  0.55076994868E+02  0.81552517956E+02  0.00000000000E+00 0.  1.
        -15    1    3    3    0    0  0.29674055610E+02 -0.36622931610E+02 -0.53237289214E+02  0.71127739932E+02  0.17770000000E+01 0.  1.
         15    1    3    3    0    0 -0.53376194359E+02 -0.10632921292E+03  0.27067070205E+02  0.12202747093E+03  0.17770000000E+01 0.  1.
</event>
<event>
 8    1  0.3345745E-006  0.1936149E+03  0.7546771E-02  0.1059936E+00
        -11   -1    0    0    0    0  0.00000000000E+00  0.00000000000E+00  0.18250000000E+03  0.18250000000E+03  0.00000000000E+00 0.  1.
         11   -1    0    0    0    0 -0.00000000000E+00 -0.00000000000E+00 -0.18250000000E+03  0.18250000000E+03  0.00000000000E+00 0. -1.
         25    2    1    2    0    0  0.10020077092E+03 -0.94633748021E+02 -0.53539886174E+02  0.19361486441E+03  0.12499782219E+03 0.  0.
         23    2    1    2    0    0 -0.10020077092E+03  0.94633748021E+02  0.53539886174E+02  0.17138513559E+03  0.86663744057E+02 0.  0.
        -11    1    4    4    0    0 -0.37517062020E+02 -0.11670303533E+02  0.15623974698E+02  0.42282792156E+02  0.00000000000E+00 0.  1.
         11    1    4    4    0    0 -0.62683708895E+02  0.10630405155E+03  0.37915911476E+02  0.12910234344E+03  0.00000000000E+00 0. -1.
        -15    1    3    3    0    0  0.33263613490E+02 -0.33692280573E+02  0.41041012348E+02  0.62683013457E+02  0.17770000000E+01 0. -1.
         15    1    3    3    0    0  0.66937157426E+02 -0.60941467448E+02 -0.94580898522E+02  0.13093185095E+03  0.17770000000E+01 0. -1.
</event>
<event>
 8    1  0.3345745E-006  0.1930772E+03  0.7546771E-02  0.1060334E+00
        -11   -1    0    0    0    0  0.00000000000E+00  0.00000000000E+00  0.18250000000E+03  0.18250000000E+03  0.00000000000E+00 0.  1.
         11   -1    0    0    0    0 -0.00000000000E+00 -0.00000000000E+00 -0.18250000000E+03  0.18250000000E+03  0.00000000000E+00 0. -1.
         25    2    1    2    0    0 -0.74335356827E+02 -0.62303963614E+02 -0.11065903774E+03  0.19307720956E+03  0.12500342819E+03 0.  0.
         23    2    1    2    0    0  0.74335356827E+02  0.62303963614E+02  0.11065903774E+03  0.17192279044E+03  0.88907221777E+02 0.  0.
        -11    1    4    4    0    0  0.75709915920E+02  0.62246197553E+02  0.47798380705E+02  0.10904708009E+03  0.00000000000E+00 0. -1.
         11    1    4    4    0    0 -0.13745590938E+01  0.57766061263E-01  0.62860657033E+02  0.62875710352E+02  0.00000000000E+00 0.  1.
        -15    1    3    3    0    0 -0.10399614346E+03 -0.65741902657E+02 -0.66858013240E+02  0.14003694971E+03  0.17770000000E+01 0.  1.
         15    1    3    3    0    0  0.29660786636E+02  0.34379390433E+01 -0.43801024499E+02  0.53040259849E+02  0.17770000000E+01 0.  1.
</event>
<event>
 8    1  0.3345745E-006  0.1923759E+03  0.7546771E-02  0.1060855E+00
        -11   -1    0    0    0    0  0.00000000000E+00  0.00000000000E+00  0.18250000000E+03  0.18250000000E+03  0.00000000000E+00 0. -1.
         11   -1    0    0    0    0 -0.00000000000E+00 -0.00000000000E+00 -0.18250000000E+03  0.18250000000E+03  0.00000000000E+00 0.  1.
         25    2    1    2    0    0  0.20913260414E+02 -0.87446296471E+02  0.11531447486E+03  0.19237588512E+03  0.12500733512E+03 0.  0.
         23    2    1    2    0    0 -0.20913260414E+02  0.87446296471E+02 -0.11531447486E+03  0.17262411488E+03  0.91746595019E+02 0.  0.
        -11    1    4    4    0    0  0.32598749839E+02  0.43373300044E+02 -0.74542736100E+02  0.92198379340E+02  0.00000000000E+00 0.  1.
         11    1    4    4    0    0 -0.53512010253E+02  0.44072996428E+02 -0.40771738764E+02  0.80425735541E+02  0.00000000000E+00 0. -1.
        -15    1    3    3    0    0  0.47612390692E+02 -0.10202785055E+03  0.56156669461E+02  0.12583064527E+03  0.17770000000E+01 0. -1.
         15    1    3    3    0    0 -0.26699130278E+02  0.14581554081E+02  0.59157805403E+02  0.66545239846E+02  0.17770000000E+01 0. -1.
</event>
<event>
 8    1  0.3345745E-006  0.1911940E+03  0.7546771E-02  0.1061738E+00
        -11   -1    0    0    0    0  0.00000000000E+00  0.00000000000E+00  0.18250000000E+03  0.18250000000E+03  0.00000000000E+00 0. -1.
         11   -1    0    0    0    0 -0.00000000000E+00 -0.00000000000E+00 -0.18250000000E+03  0.18250000000E+03  0.00000000000E+00 0.  1.
         25    2    1    2    0    0  0.37180028147E+02 -0.85907698389E+02 -0.11033107980E+03  0.19119397809E+03  0.12497881001E+03 0.  0.
         23    2    1    2    0    0 -0.37180028147E+02  0.85907698389E+02  0.11033107980E+03  0.17380602191E+03  0.96296931141E+02 0.  0.
        -11    1    4    4    0    0 -0.37082384635E+02  0.88589999508E+02  0.12570866202E+03  0.15819595118E+03  0.00000000000E+00 0. -1.
         11    1    4    4    0    0 -0.97643511430E-01 -0.26823011189E+01 -0.15377582215E+02  0.15610070734E+02  0.00000000000E+00 0.  1.
        -15    1    3    3    0    0  0.63961781395E+02 -0.86855521963E+02 -0.12116691892E+03  0.16223307660E+03  0.17770000000E+01 0. -1.
         15    1    3    3    0    0 -0.26781753248E+02  0.94782357369E+00  0.10835839114E+02  0.28960901486E+02  0.17770000000E+01 0. -1.
</event>
<event>
 8    1  0.3345745E-006  0.1945606E+03  0.7546771E-02  0.1059240E+00
        -11   -1    0    0    0    0  0.00000000000E+00  0.00000000000E+00  0.18250000000E+03  0.18250000000E+03  0.00000000000E+00 0.  1.
         11   -1    0    0    0    0 -0.00000000000E+00 -0.00000000000E+00 -0.18250000000E+03  0.18250000000E+03  0.00000000000E+00 0. -1.
         25    2    1    2    0    0 -0.23258630607E+02 -0.68298155189E+02 -0.13048733276E+03  0.19456060689E+03  0.12498513448E+03 0.  0.
         23    2    1    2    0    0  0.23258630607E+02  0.68298155189E+02  0.13048733276E+03  0.17043939311E+03  0.82565372967E+02 0.  0.
        -11    1    4    4    0    0  0.17633660667E+02  0.17109701936E+02  0.11362680084E+03  0.11625290430E+03  0.00000000000E+00 0.  1.
         11    1    4    4    0    0  0.56249699397E+01  0.51188453253E+02  0.16860531923E+02  0.54186488814E+02  0.00000000000E+00 0. -1.
        -15    1    3    3    0    0 -0.34713244848E+02  0.82133696171E+00  0.11166303261E+02  0.36517502924E+02  0.17770000000E+01 0.  1.
         15    1    3    3    0    0  0.11454614241E+02 -0.69119492150E+02 -0.14165363602E+03  0.15804310396E+03  0.17770000000E+01 0.  1.
</event>
<event>
 8    1  0.3345745E-006  0.1929022E+03  0.7546771E-02  0.1060464E+00
        -11   -1    0    0    0    0  0.00000000000E+00  0.00000000000E+00  0.18250000000E+03  0.18250000000E+03  0.00000000000E+00 0. -1.
         11   -1    0    0    0    0 -0.00000000000E+00 -0.00000000000E+00 -0.18250000000E+03  0.18250000000E+03  0.00000000000E+00 0.  1.
         25    2    1    2    0    0  0.49760902740E+02 -0.65649350349E+02 -0.12165793820E+03  0.19290215062E+03  0.12499840456E+03 0.  0.
         23    2    1    2    0    0 -0.49760902740E+02  0.65649350349E+02  0.12165793820E+03  0.17209784938E+03  0.89616020848E+02 0.  0.
        -11    1    4    4    0    0 -0.36179104738E+02 -0.12329324278E+02  0.19634699845E+02  0.42970470032E+02  0.00000000000E+00 0.  1.
         11    1    4    4    0    0 -0.13581798002E+02  0.77978674628E+02  0.10202323835E+03  0.12912737935E+03  0.00000000000E+00 0. -1.
        -15    1    3    3    0    0  0.18805359199E+02  0.36903718186E+02 -0.44857345965E+02  0.61080808497E+02  0.17770000000E+01 0.  1.
         15    1    3    3    0    0  0.30955543540E+02 -0.10255306854E+03 -0.76800592234E+02  0.13182134212E+03  0.17770000000E+01 0.  1.
</event>
<event>
 8    1  0.3345745E-006  0.1904068E+03  0.7546771E-02  0.1062330E+00
        -11   -1    0    0    0    0  0.00000000000E+00  0.00000000000E+00  0.18250000000E+03  0.18250000000E+03  0.00000000000E+00 0. -1.
         11   -1    0    0    0    0 -0.00000000000E+00 -0.00000000000E+00 -0.18250000000E+03  0.18250000000E+03  0.00000000000E+00 0.  1.
         25    2    1    2    0    0 -0.63304755528E+02 -0.40393958786E+01 -0.12885724339E+03  0.19040683445E+03  0.12500705837E+03 0.  0.
         23    2    1    2    0    0  0.63304755528E+02  0.40393958786E+01  0.12885724339E+03  0.17459316555E+03  0.99271221865E+02 0.  0.
        -11    1    4    4    0    0 -0.87670270176E+01  0.13760630976E+02 -0.90700049063E+01  0.18667638217E+02  0.00000000000E+00 0.  1.
         11    1    4    4    0    0  0.72071782546E+02 -0.97212350976E+01  0.13792724829E+03  0.15592552733E+03  0.00000000000E+00 0. -1.
        -15    1    3    3    0    0 -0.87667142902E+02  0.32830687240E+02 -0.70605364045E+02  0.11726745981E+03  0.17770000000E+01 0.  1.
         15    1    3    3    0    0  0.24362387374E+02 -0.36870083118E+02 -0.58251879341E+02  0.73139374645E+02  0.17770000000E+01 0.  1.
</event>
<event>
 8    1  0.3345745E-006  0.1941679E+03  0.7546771E-02  0.1059529E+00
        -11   -1    0    0    0    0  0.00000000000E+00  0.00000000000E+00  0.18250000000E+03  0.18250000000E+03  0.00000000000E+00 0.  1.
         11   -1    0    0    0    0 -0.00000000000E+00 -0.00000000000E+00 -0.18250000000E+03  0.18250000000E+03  0.00000000000E+00 0. -1.
         25    2    1    2    0    0  0.72293341929E+02 -0.32377137492E+02  0.12570308689E+03  0.19416793358E+03  0.12500125622E+03 0.  0.
         23    2    1    2    0    0 -0.72293341929E+02  0.32377137492E+02 -0.12570308689E+03  0.17083206642E+03  0.84307310138E+02 0.  0.
        -11    1    4    4    0    0 -0.46965308816E+01  0.26706675962E+02  0.97617696055E+00  0.27134053599E+02  0.00000000000E+00 0. -1.
         11    1    4    4    0    0 -0.67596811047E+02  0.56704615306E+01 -0.12667926385E+03  0.14369801282E+03  0.00000000000E+00 0.  1.
        -15    1    3    3    0    0  0.37730892787E+02 -0.62132858059E+02  0.14750576062E+02  0.74194673288E+02  0.17770000000E+01 0. -1.
         15    1    3    3    0    0  0.34562449141E+02  0.29755720567E+02  0.11095251083E+03  0.11997326029E+03  0.17770000000E+01 0. -1.
</event>
<event>
 8    1  0.3345745E-006  0.1923850E+03  0.7546771E-02  0.1060848E+00
        -11   -1    0    0    0    0  0.00000000000E+00  0.00000000000E+00  0.18250000000E+03  0.18250000000E+03  0.00000000000E+00 0.  1.
         11   -1    0    0    0    0 -0.00000000000E+00 -0.00000000000E+00 -0.18250000000E+03  0.18250000000E+03  0.00000000000E+00 0. -1.
         25    2    1    2    0    0  0.12598582993E+03 -0.10690219093E+02  0.73476351467E+02  0.19238495319E+03  0.12500594331E+03 0.  0.
         23    2    1    2    0    0 -0.12598582993E+03  0.10690219093E+02 -0.73476351467E+02  0.17261504681E+03  0.91708614824E+02 0.  0.
        -11    1    4    4    0    0 -0.27332258234E+02 -0.30660654602E+02  0.29012509860E+01  0.41177000110E+02  0.00000000000E+00 0.  1.
         11    1    4    4    0    0 -0.98653571696E+02  0.41350873695E+02 -0.76377602453E+02  0.13143804670E+03  0.00000000000E+00 0. -1.
        -15    1    3    3    0    0  0.44162279036E+02 -0.48021451872E+02 -0.14176334460E+02  0.66786921753E+02  0.17770000000E+01 0.  1.
         15    1    3    3    0    0  0.81823550893E+02  0.37331232778E+02  0.87652685927E+02  0.12559803144E+03  0.17770000000E+01 0.  1.
</event>
<event>
 8    1  0.3345745E-006  0.1924791E+03  0.7546771E-02  0.1060778E+00
        -11   -1    0    0    0    0  0.00000000000E+00  0.00000000000E+00  0.18250000000E+03  0.18250000000E+03  0.00000000000E+00 0.  1.
         11   -1    0    0    0    0 -0.00000000000E+00 -0.00000000000E+00 -0.18250000000E+03  0.18250000000E+03  0.00000000000E+00 0. -1.
         25    2    1    2    0    0  0.13391369925E+03  0.38376504535E+02  0.44924756354E+02  0.19247911296E+03  0.12499736096E+03 0.  0.
         23    2    1    2    0    0 -0.13391369925E+03 -0.38376504535E+02 -0.44924756354E+02  0.17252088704E+03  0.91321343521E+02 0.  0.
        -11    1    4    4    0    0 -0.80575547364E+02 -0.60299966862E+02 -0.53889366729E+02  0.11416027629E+03  0.00000000000E+00 0. -1.
         11    1    4    4    0    0 -0.53338151888E+02  0.21923462327E+02  0.89646103743E+01  0.58360610744E+02  0.00000000000E+00 0.  1.
        -15    1    3    3    0    0  0.13779765188E+03  0.47634813232E+02  0.72673281652E+02  0.16291664092E+03  0.17770000000E+01 0.  1.
         15    1    3    3    0    0 -0.38839526272E+01 -0.92583086961E+01 -0.27748525297E+02  0.29562472040E+02  0.17770000000E+01 0.  1.
</event>
<event>
 8    1  0.3345745E-006  0.1927626E+03  0.7546771E-02  0.1060567E+00
        -11   -1    0    0    0    0  0.00000000000E+00  0.00000000000E+00  0.18250000000E+03  0.18250000000E+03  0.00000000000E+00 0.  1.
         11   -1    0    0    0    0 -0.00000000000E+00 -0.00000000000E+00 -0.18250000000E+03  0.18250000000E+03  0.00000000000E+00 0. -1.
         25    2    1    2    0    0 -0.84223942593E+02 -0.81320280315E+02  0.88460424144E+02  0.19276262025E+03  0.12500208250E+03 0.  0.
         23    2    1    2    0    0  0.84223942593E+02  0.81320280315E+02 -0.88460424144E+02  0.17223737975E+03  0.90187625801E+02 0.  0.
        -11    1    4    4    0    0  0.41820900211E+02  0.30108026696E+02  0.10911213181E+02  0.52673860112E+02  0.00000000000E+00 0.  1.
         11    1    4    4    0    0  0.42403042382E+02  0.51212253619E+02 -0.99371637325E+02  0.11956351964E+03  0.00000000000E+00 0. -1.
        -15    1    3    3    0    0 -0.41292664097E+02 -0.41005569615E+02 -0.26203889178E+02  0.63846240177E+02  0.17770000000E+01 0. -1.
         15    1    3    3    0    0 -0.42931278495E+02 -0.40314710700E+02  0.11466431332E+03  0.12891638007E+03  0.17770000000E+01 0. -1.
</event>
<event>
 8    1  0.3345745E-006  0.1936355E+03  0.7546771E-02  0.1059921E+00
        -11   -1    0    0    0    0  0.00000000000E+00  0.00000000000E+00  0.18250000000E+03  0.18250000000E+03  0.00000000000E+00 0.  1.
         11   -1    0    0    0    0 -0.00000000000E+00 -0.00000000000E+00 -0.18250000000E+03  0.18250000000E+03  0.00000000000E+00 0. -1.
         25    2    1    2    0    0 -0.13667860496E+03 -0.49650243653E+02  0.26813651525E+02  0.19363547719E+03  0.12501815216E+03 0.  0.
         23    2    1    2    0    0  0.13667860496E+03  0.49650243653E+02 -0.26813651525E+02  0.17136452281E+03  0.86606235467E+02 0.  0.
        -11    1    4    4    0    0  0.13626063674E+03  0.40884135161E+02  0.93091237124E+00  0.14226503516E+03  0.00000000000E+00 0.  1.
         11    1    4    4    0    0  0.41796821997E+00  0.87661084925E+01 -0.27744563896E+02  0.29099487647E+02  0.00000000000E+00 0. -1.
        -15    1    3    3    0    0  0.17798851215E+02 -0.26429469101E+02  0.19163584403E+02  0.37225215079E+02  0.17770000000E+01 0.  1.
         15    1    3    3    0    0 -0.15447745617E+03 -0.23220774552E+02  0.76500671222E+01  0.15641026211E+03  0.17770000000E+01 0.  1.
</event>
<event>
 8    1  0.3345745E-006  0.1925353E+03  0.7546771E-02  0.1060736E+00
        -11   -1    0    0    0    0  0.00000000000E+00  0.00000000000E+00  0.18250000000E+03  0.18250000000E+03  0.00000000000E+00 0.  1.
         11   -1    0    0    0    0 -0.00000000000E+00 -0.00000000000E+00 -0.18250000000E+03  0.18250000000E+03  0.00000000000E+00 0. -1.
         25    2    1    2    0    0  0.66767198508E+02 -0.54814741773E+02 -0.11826473097E+03  0.19253531501E+03  0.12498314375E+03 0.  0.
         23    2    1    2    0    0 -0.66767198508E+02  0.54814741773E+02  0.11826473097E+03  0.17246468499E+03  0.91076924981E+02 0.  0.
        -11    1    4    4    0    0 -0.74737775453E+02  0.48548269377E+01  0.68390261158E+02  0.10142254308E+03  0.00000000000E+00 0.  1.
         11    1    4    4    0    0  0.79705769453E+01  0.49959914836E+02  0.49874469814E+02  0.71042141905E+02  0.00000000000E+00 0. -1.
        -15    1    3    3    0    0 -0.25694660458E+02  0.11990021921E+02 -0.55442230358E+02  0.62297470557E+02  0.17770000000E+01 0. -1.
         15    1    3    3    0    0  0.92461858966E+02 -0.66804763695E+02 -0.62822500615E+02  0.13023784445E+03  0.17770000000E+01 0. -1.
</event>
<event>
 8    1  0.3345745E-006  0.1944006E+03  0.7546771E-02  0.1059358E+00
        -11   -1    0    0    0    0  0.00000000000E+00  0.00000000000E+00  0.18250000000E+03  0.18250000000E+03  0.00000000000E+00 0.  1.
         11   -1    0    0    0    0 -0.00000000000E+00 -0.00000000000E+00 -0.18250000000E+03  0.18250000000E+03  0.00000000000E+00 0. -1.
         25    2    1    2    0    0 -0.51627037482E+02  0.13262799129E+03 -0.43730036361E+02  0.19440056780E+03  0.12499491832E+03 0.  0.
         23    2    1    2    0    0  0.51627037482E+02 -0.13262799129E+03  0.43730036361E+02  0.17059943220E+03  0.83284543076E+02 0.  0.
        -11    1    4    4    0    0  0.46272453942E+01 -0.61703793202E+02 -0.19182871046E+02  0.64782343560E+02  0.00000000000E+00 0. -1.
         11    1    4    4    0    0  0.46999792088E+02 -0.70924198088E+02  0.62912907408E+02  0.10581708864E+03  0.00000000000E+00 0.  1.
        -15    1    3    3    0    0 -0.39504923148E+02  0.75604148393E+00  0.23361853289E+02  0.45936308839E+02  0.17770000000E+01 0.  1.
         15    1    3    3    0    0 -0.12122114334E+02  0.13187194981E+03 -0.67091889650E+02  0.14846425896E+03  0.17770000000E+01 0.  1.
</event>
<event>
 8    1  0.3345745E-006  0.1923483E+03  0.7546771E-02  0.1060875E+00
        -11   -1    0    0    0    0  0.00000000000E+00  0.00000000000E+00  0.18250000000E+03  0.18250000000E+03  0.00000000000E+00 0.  1.
         11   -1    0    0    0    0 -0.00000000000E+00 -0.00000000000E+00 -0.18250000000E+03  0.18250000000E+03  0.00000000000E+00 0. -1.
         25    2    1    2    0    0  0.27849226296E+02 -0.12398272711E+03  0.72283300957E+02  0.19234831121E+03  0.12500280478E+03 0.  0.
         23    2    1    2    0    0 -0.27849226296E+02  0.12398272711E+03 -0.72283300957E+02  0.17265168879E+03  0.91850062690E+02 0.  0.
        -11    1    4    4    0    0  0.11366021695E+02  0.34572161247E+02  0.17166468488E+02  0.40238146364E+02  0.00000000000E+00 0. -1.
         11    1    4    4    0    0 -0.39215247991E+02  0.89410565864E+02 -0.89449769445E+02  0.13241354242E+03  0.00000000000E+00 0.  1.
        -15    1    3    3    0    0 -0.21279717895E+02 -0.12330601912E+03  0.33008343983E+02  0.12942144044E+03  0.17770000000E+01 0.  1.
         15    1    3    3    0    0  0.49128944192E+02 -0.67670799481E+00  0.39274956974E+02  0.62926870774E+02  0.17770000000E+01 0.  1.
</event>
<event>
 8    1  0.3345745E-006  0.1925375E+03  0.7546771E-02  0.1060734E+00
        -11   -1    0    0    0    0  0.00000000000E+00  0.00000000000E+00  0.18250000000E+03  0.18250000000E+03  0.00000000000E+00 0.  1.
         11   -1    0    0    0    0 -0.00000000000E+00 -0.00000000000E+00 -0.18250000000E+03  0.18250000000E+03  0.00000000000E+00 0. -1.
         25    2    1    2    0    0 -0.35808343713E+02  0.62691839897E+02 -0.12740114181E+03  0.19253748014E+03  0.12500850393E+03 0.  0.
         23    2    1    2    0    0  0.35808343713E+02 -0.62691839897E+02  0.12740114181E+03  0.17246251986E+03  0.91103049094E+02 0.  0.
        -11    1    4    4    0    0 -0.11199317551E+02 -0.25162799479E+02  0.10455022084E+03  0.10811725056E+03  0.00000000000E+00 0.  1.
         11    1    4    4    0    0  0.47007661264E+02 -0.37529040418E+02  0.22850920966E+02  0.64345269299E+02  0.00000000000E+00 0. -1.
        -15    1    3    3    0    0  0.28079416969E+02  0.25616133348E+02 -0.11032484899E+03  0.11670205644E+03  0.17770000000E+01 0. -1.
         15    1    3    3    0    0 -0.63887760682E+02  0.37075706549E+02 -0.17076292821E+02  0.75835423692E+02  0.17770000000E+01 0. -1.
</event>
<event>
 8    1  0.3345745E-006  0.1935293E+03  0.7546771E-02  0.1059999E+00
        -11   -1    0    0    0    0  0.00000000000E+00  0.00000000000E+00  0.18250000000E+03  0.18250000000E+03  0.00000000000E+00 0. -1.
         11   -1    0    0    0    0 -0.00000000000E+00 -0.00000000000E+00 -0.18250000000E+03  0.18250000000E+03  0.00000000000E+00 0.  1.
         25    2    1    2    0    0 -0.78650344350E+02 -0.87099829169E+02  0.89756184134E+02  0.19352927967E+03  0.12500061036E+03 0.  0.
         23    2    1    2    0    0  0.78650344350E+02  0.87099829169E+02 -0.89756184134E+02  0.17147072033E+03  0.87027457928E+02 0.  0.
        -11    1    4    4    0    0  0.60353321562E+02  0.11776497776E+02 -0.66433729791E+02  0.90524304899E+02  0.00000000000E+00 0.  1.
         11    1    4    4    0    0  0.18297022788E+02  0.75323331392E+02 -0.23322454342E+02  0.80946415433E+02  0.00000000000E+00 0. -1.
        -15    1    3    3    0    0 -0.54532184573E+02 -0.91975384421E+02  0.69951929625E+01  0.10716958966E+03  0.17770000000E+01 0. -1.
         15    1    3    3    0    0 -0.24118159778E+02  0.48755552530E+01  0.82760991171E+02  0.86359690010E+02  0.17770000000E+01 0. -1.
</event>
<event>
 8    1  0.3345745E-006  0.1917702E+03  0.7546771E-02  0.1061306E+00
        -11   -1    0    0    0    0  0.00000000000E+00  0.00000000000E+00  0.18250000000E+03  0.18250000000E+03  0.00000000000E+00 0.  1.
         11   -1    0    0    0    0 -0.00000000000E+00 -0.00000000000E+00 -0.18250000000E+03  0.18250000000E+03  0.00000000000E+00 0. -1.
         25    2    1    2    0    0  0.11619862420E+03  0.84502824912E+02 -0.22542204639E+02  0.19177022945E+03  0.12499928892E+03 0.  0.
         23    2    1    2    0    0 -0.11619862420E+03 -0.84502824912E+02  0.22542204639E+02  0.17322977055E+03  0.94114582989E+02 0.  0.
        -11    1    4    4    0    0 -0.70713098851E+02 -0.61607802761E+02  0.58820863829E+02  0.11070572583E+03  0.00000000000E+00 0.  1.
         11    1    4    4    0    0 -0.45485525347E+02 -0.22895022151E+02 -0.36278659190E+02  0.62524044719E+02  0.00000000000E+00 0. -1.
        -15    1    3    3    0    0  0.77242301899E+02 -0.17797955411E+02  0.30217040888E+01  0.79343738531E+02  0.17770000000E+01 0.  1.
         15    1    3    3    0    0  0.38956322299E+02  0.10230078032E+03 -0.25563908727E+02  0.11242649092E+03  0.17770000000E+01 0.  1.
</event>
<event>
 8    1  0.3345745E-006  0.1926298E+03  0.7546771E-02  0.1060666E+00
        -11   -1    0    0    0    0  0.00000000000E+00  0.00000000000E+00  0.18250000000E+03  0.18250000000E+03  0.00000000000E+00 0.  1.
         11   -1    0    0    0    0 -0.00000000000E+00 -0.00000000000E+00 -0.18250000000E+03  0.18250000000E+03  0.00000000000E+00 0. -1.
         25    2    1    2    0    0  0.38799724969E+02 -0.10298117580E+03  0.96811056236E+02  0.19262977980E+03  0.12499324074E+03 0.  0.
         23    2    1    2    0    0 -0.38799724969E+02  0.10298117580E+03 -0.96811056236E+02  0.17237022020E+03  0.90711471035E+02 0.  0.
        -11    1    4    4    0    0 -0.19834677874E+02  0.19645115135E+02 -0.80707796682E+02  0.85399610305E+02  0.00000000000E+00 0. -1.
         11    1    4    4    0    0 -0.18965047095E+02  0.83336060660E+02 -0.16103259554E+02  0.86970609897E+02  0.00000000000E+00 0.  1.
        -15    1    3    3    0    0  0.79791907528E+02 -0.74320703806E+02  0.91391168752E+02  0.14228780333E+03  0.17770000000E+01 0.  1.
         15    1    3    3    0    0 -0.40992182558E+02 -0.28660471989E+02  0.54198874838E+01  0.50341976469E+02  0.17770000000E+01 0.  1.
</event>
<event>
 8    1  0.3345745E-006  0.1929580E+03  0.7546771E-02  0.1060422E+00
        -11   -1    0    0    0    0  0.00000000000E+00  0.00000000000E+00  0.18250000000E+03  0.18250000000E+03  0.00000000000E+00 0.  1.
         11   -1    0    0    0    0 -0.00000000000E+00 -0.00000000000E+00 -0.18250000000E+03  0.18250000000E+03  0.00000000000E+00 0. -1.
         25    2    1    2    0    0 -0.31210111619E+02  0.96468751941E+02  0.10643106837E+03  0.19295798104E+03  0.12499967586E+03 0.  0.
         23    2    1    2    0    0  0.31210111619E+02 -0.96468751941E+02 -0.10643106837E+03  0.17204201896E+03  0.89390115816E+02 0.  0.
        -11    1    4    4    0    0  0.61057998193E+02 -0.51637867462E+02 -0.75271703379E+02  0.10981975154E+03  0.00000000000E+00 0. -1.
         11    1    4    4    0    0 -0.29847886574E+02 -0.44830884478E+02 -0.31159364989E+02  0.62222267417E+02  0.00000000000E+00 0.  1.
        -15    1    3    3    0    0  0.35476211884E+02  0.72334217010E+02  0.23746507277E+02  0.84011040328E+02  0.17770000000E+01 0.  1.
         15    1    3    3    0    0 -0.66686323504E+02  0.24134534931E+02  0.82684561091E+02  0.10894694071E+03  0.17770000000E+01 0.  1.
</event>
<event>
 8    1  0.3345745E-006  0.1896471E+03  0.7546771E-02  0.1062904E+00
        -11   -1    0    0    0    0  0.00000000000E+00  0.00000000000E+00  0.18250000000E+03  0.18250000000E+03  0.00000000000E+00 0.  1.
         11   -1    0    0    0    0 -0.00000000000E+00 -0.00000000000E+00 -0.18250000000E+03  0.18250000000E+03  0.00000000000E+00 0. -1.
         25    2    1    2    0    0  0.78740744424E+02  0.11229199992E+03 -0.39128006011E+02  0.18964713247E+03  0.12500174367E+03 0.  0.
         23    2    1    2    0    0 -0.78740744424E+02 -0.11229199992E+03  0.39128006011E+02  0.17535286753E+03  0.10201974915E+03 0.  0.
        -11    1    4    4    0    0 -0.33250375129E+02 -0.21941460082E+02  0.60043255508E+02  0.72056975018E+02  0.00000000000E+00 0.  1.
         11    1    4    4    0    0 -0.45490369295E+02 -0.90350539839E+02 -0.20915249497E+02  0.10329589251E+03  0.00000000000E+00 0. -1.
        -15    1    3    3    0    0  0.20162299130E+02  0.20050724363E+02 -0.70425082536E+02  0.75969729714E+02  0.17770000000E+01 0. -1.
         15    1    3    3    0    0  0.58578445294E+02  0.92241275559E+02  0.31297076525E+02  0.11367740276E+03  0.17770000000E+01 0. -1.
</event>
<event>
 8    1  0.3345745E-006  0.1924462E+03  0.7546771E-02  0.1060802E+00
        -11   -1    0    0    0    0  0.00000000000E+00  0.00000000000E+00  0.18250000000E+03  0.18250000000E+03  0.00000000000E+00 0.  1.
         11   -1    0    0    0    0 -0.00000000000E+00 -0.00000000000E+00 -0.18250000000E+03  0.18250000000E+03  0.00000000000E+00 0. -1.
         25    2    1    2    0    0 -0.65609020835E+02 -0.12787476296E+03  0.27454305873E+02  0.19244617529E+03  0.12500117143E+03 0.  0.
         23    2    1    2    0    0  0.65609020835E+02  0.12787476296E+03 -0.27454305873E+02  0.17255382471E+03  0.91458104580E+02 0.  0.
        -11    1    4    4    0    0  0.78236163941E+01  0.39834283939E+02 -0.50457257950E+02  0.64760435686E+02  0.00000000000E+00 0.  1.
         11    1    4    4    0    0  0.57785404441E+02  0.88040479019E+02  0.23002952077E+02  0.10779338902E+03  0.00000000000E+00 0. -1.
        -15    1    3    3    0    0 -0.56605948083E+01 -0.11970740848E+03 -0.11596336834E+02  0.12041403048E+03  0.17770000000E+01 0.  1.
         15    1    3    3    0    0 -0.59948426027E+02 -0.81673544774E+01  0.39050642706E+02  0.72032144818E+02  0.17770000000E+01 0.  1.
</event>
<event>
 8    1  0.3345745E-006  0.1924525E+03  0.7546771E-02  0.1060797E+00
        -11   -1    0    0    0    0  0.00000000000E+00  0.00000000000E+00  0.18250000000E+03  0.18250000000E+03  0.00000000000E+00 0.  1.
         11   -1    0    0    0    0 -0.00000000000E+00 -0.00000000000E+00 -0.18250000000E+03  0.18250000000E+03  0.00000000000E+00 0. -1.
         25    2    1    2    0    0  0.32513374553E+01 -0.32721246927E+02  0.14258929345E+03  0.19245254706E+03  0.12500010027E+03 0.  0.
         23    2    1    2    0    0 -0.32513374553E+01  0.32721246927E+02 -0.14258929345E+03  0.17254745294E+03  0.91431207550E+02 0.  0.
        -11    1    4    4    0    0  0.57507322103E+01  0.54265266204E+02 -0.13847417837E+03  0.14883846315E+03  0.00000000000E+00 0. -1.
         11    1    4    4    0    0 -0.90020696656E+01 -0.21544019277E+02 -0.41151150809E+01  0.23708989793E+02  0.00000000000E+00 0.  1.
        -15    1    3    3    0    0  0.51051007275E+02 -0.27767405024E+02  0.13050280077E+03  0.14286837601E+03  0.17770000000E+01 0.  1.
         15    1    3    3    0    0 -0.47799669820E+02 -0.49538419031E+01  0.12086492676E+02  0.49584171050E+02  0.17770000000E+01 0.  1.
</event>
<event>
 8    1  0.3345745E-006  0.1921741E+03  0.7546771E-02  0.1061005E+00
        -11   -1    0    0    0    0  0.00000000000E+00  0.00000000000E+00  0.18250000000E+03  0.18250000000E+03  0.00000000000E+00 0. -1.
         11   -1    0    0    0    0 -0.00000000000E+00 -0.00000000000E+00 -0.18250000000E+03  0.18250000000E+03  0.00000000000E+00 0.  1.
         25    2    1    2    0    0  0.65576484590E+02  0.11656808597E+03 -0.58458492662E+02  0.19217405269E+03  0.12500030866E+03 0.  0.
         23    2    1    2    0    0 -0.65576484590E+02 -0.11656808597E+03  0.58458492662E+02  0.17282594731E+03  0.92536580355E+02 0.  0.
        -11    1    4    4    0    0  0.59780013523E+00 -0.41095975222E+02  0.59656635493E+02  0.72444121244E+02  0.00000000000E+00 0. -1.
         11    1    4    4    0    0 -0.66174284725E+02 -0.75472110745E+02 -0.11981428309E+01  0.10038182607E+03  0.00000000000E+00 0.  1.
        -15    1    3    3    0    0  0.23591351027E+02  0.75106194506E+02 -0.94499962084E+02  0.12300769431E+03  0.17770000000E+01 0. -1.
         15    1    3    3    0    0  0.41985133563E+02  0.41461891460E+02  0.36041469422E+02  0.69166358375E+02  0.17770000000E+01 0. -1.
</event>
<event>
 8    1  0.3345745E-006  0.1920878E+03  0.7546771E-02  0.1061069E+00
        -11   -1    0    0    0    0  0.00000000000E+00  0.00000000000E+00  0.18250000000E+03  0.18250000000E+03  0.00000000000E+00 0.  1.
         11   -1    0    0    0    0 -0.00000000000E+00 -0.00000000000E+00 -0.18250000000E+03  0.18250000000E+03  0.00000000000E+00 0. -1.
         25    2    1    2    0    0  0.70788496470E+02  0.12553067467E+03 -0.22434915619E+02  0.19208777799E+03  0.12500170998E+03 0.  0.
         23    2    1    2    0    0 -0.70788496470E+02 -0.12553067467E+03  0.22434915619E+02  0.17291222201E+03  0.92878143637E+02 0.  0.
        -11    1    4    4    0    0 -0.65812960362E+02 -0.44429274838E+02 -0.19081374549E+02  0.81666425592E+02  0.00000000000E+00 0. -1.
         11    1    4    4    0    0 -0.49755361076E+01 -0.81101399834E+02  0.41516290168E+02  0.91245796418E+02  0.00000000000E+00 0.  1.
        -15    1    3    3    0    0 -0.25435760193E+02 -0.28800324511E+01  0.11413619695E+02  0.28083819666E+02  0.17770000000E+01 0. -1.
         15    1    3    3    0    0  0.96224256663E+02  0.12841070712E+03 -0.33848535313E+02  0.16400395832E+03  0.17770000000E+01 0. -1.
</event>
<event>
 8    1  0.3345745E-006  0.1922247E+03  0.7546771E-02  0.1060967E+00
        -11   -1    0    0    0    0  0.00000000000E+00  0.00000000000E+00  0.18250000000E+03  0.18250000000E+03  0.00000000000E+00 0. -1.
         11   -1    0    0    0    0 -0.00000000000E+00 -0.00000000000E+00 -0.18250000000E+03  0.18250000000E+03  0.00000000000E+00 0.  1.
         25    2    1    2    0    0 -0.48984253534E+02  0.13610754939E+03  0.20020659640E+02  0.19222474927E+03  0.12499922130E+03 0.  0.
         23    2    1    2    0    0  0.48984253534E+02 -0.13610754939E+03 -0.20020659640E+02  0.17277525073E+03  0.92334924903E+02 0.  0.
        -11    1    4    4    0    0  0.18760574285E+02 -0.11281980091E+03  0.21514778276E+02  0.11637505020E+03  0.00000000000E+00 0. -1.
         11    1    4    4    0    0  0.30223679248E+02 -0.23287748477E+02 -0.41535437916E+02  0.56400200526E+02  0.00000000000E+00 0.  1.
        -15    1    3    3    0    0 -0.27859914258E+02  0.13761494725E+03  0.55401115357E+02  0.15095194547E+03  0.17770000000E+01 0. -1.
         15    1    3    3    0    0 -0.21124339275E+02 -0.15073978589E+01 -0.35380455718E+02  0.41272803805E+02  0.17770000000E+01 0. -1.
</event>
<event>
 8    1  0.3345745E-006  0.1925394E+03  0.7546771E-02  0.1060733E+00
        -11   -1    0    0    0    0  0.00000000000E+00  0.00000000000E+00  0.18250000000E+03  0.18250000000E+03  0.00000000000E+00 0. -1.
         11   -1    0    0    0    0 -0.00000000000E+00 -0.00000000000E+00 -0.18250000000E+03  0.18250000000E+03  0.00000000000E+00 0.  1.
         25    2    1    2    0    0  0.10317768571E+03  0.30795181021E+02  0.99277864222E+02  0.19253940054E+03  0.12498539289E+03 0.  0.
         23    2    1    2    0    0 -0.10317768571E+03 -0.30795181021E+02 -0.99277864222E+02  0.17246059946E+03  0.91063637307E+02 0.  0.
        -11    1    4    4    0    0 -0.60398833130E+02 -0.62130290925E+02 -0.49834041152E+02  0.99958109983E+02  0.00000000000E+00 0.  1.
         11    1    4    4    0    0 -0.42778852575E+02  0.31335109904E+02 -0.49443823071E+02  0.72502489476E+02  0.00000000000E+00 0. -1.
        -15    1    3    3    0    0 -0.14207068198E+02 -0.25437620551E+02  0.60450329958E+00  0.29196514849E+02  0.17770000000E+01 0. -1.
         15    1    3    3    0    0  0.11738475390E+03  0.56232801572E+02  0.98673360923E+02  0.16334288569E+03  0.17770000000E+01 0. -1.
</event>
<event>
 8    1  0.3345745E-006  0.1933208E+03  0.7546771E-02  0.1060154E+00
        -11   -1    0    0    0    0  0.00000000000E+00  0.00000000000E+00  0.18250000000E+03  0.18250000000E+03  0.00000000000E+00 0.  1.
         11   -1    0    0    0    0 -0.00000000000E+00 -0.00000000000E+00 -0.18250000000E+03  0.18250000000E+03  0.00000000000E+00 0. -1.
         25    2    1    2    0    0  0.78019509663E+02 -0.12139202138E+03  0.30407375681E+02  0.19332078517E+03  0.12500100297E+03 0.  0.
         23    2    1    2    0    0 -0.78019509663E+02  0.12139202138E+03 -0.30407375681E+02  0.17167921483E+03  0.87898108998E+02 0.  0.
        -11    1    4    4    0    0 -0.28230083324E+02  0.19469113661E+02  0.27834234774E+02  0.44167053521E+02  0.00000000000E+00 0.  1.
         11    1    4    4    0    0 -0.49789426339E+02  0.10192290772E+03 -0.58241610455E+02  0.12751216131E+03  0.00000000000E+00 0. -1.
        -15    1    3    3    0    0 -0.94242203284E+01  0.21407950044E+02  0.35466179053E+01  0.23724512249E+02  0.17770000000E+01 0.  1.
         15    1    3    3    0    0  0.87443729992E+02 -0.14279997142E+03  0.26860757775E+02  0.16959627292E+03  0.17770000000E+01 0.  1.
</event>
<event>
 8    1  0.3345745E-006  0.1923900E+03  0.7546771E-02  0.1060844E+00
        -11   -1    0    0    0    0  0.00000000000E+00  0.00000000000E+00  0.18250000000E+03  0.18250000000E+03  0.00000000000E+00 0.  1.
         11   -1    0    0    0    0 -0.00000000000E+00 -0.00000000000E+00 -0.18250000000E+03  0.18250000000E+03  0.00000000000E+00 0. -1.
         25    2    1    2    0    0  0.19746117165E+02 -0.14302049356E+03 -0.23399045383E+02  0.19239001593E+03  0.12498652801E+03 0.  0.
         23    2    1    2    0    0 -0.19746117165E+02  0.14302049356E+03  0.23399045383E+02  0.17260998407E+03  0.91661990788E+02 0.  0.
        -11    1    4    4    0    0  0.25049557433E+02  0.11115451996E+03  0.28343570895E+02  0.11741450356E+03  0.00000000000E+00 0.  1.
         11    1    4    4    0    0 -0.44795674598E+02  0.31865973592E+02 -0.49445255112E+01  0.55195480505E+02  0.00000000000E+00 0. -1.
        -15    1    3    3    0    0  0.59781560219E+02 -0.49966741344E+02  0.22565300452E+02  0.81134830352E+02  0.17770000000E+01 0. -1.
         15    1    3    3    0    0 -0.40035443054E+02 -0.93053752212E+02 -0.45964345835E+02  0.11125518558E+03  0.17770000000E+01 0. -1.
</event>
<event>
 8    1  0.3345745E-006  0.1924201E+03  0.7546771E-02  0.1060822E+00
        -11   -1    0    0    0    0  0.00000000000E+00  0.00000000000E+00  0.18250000000E+03  0.18250000000E+03  0.00000000000E+00 0.  1.
         11   -1    0    0    0    0 -0.00000000000E+00 -0.00000000000E+00 -0.18250000000E+03  0.18250000000E+03  0.00000000000E+00 0. -1.
         25    2    1    2    0    0  0.62585018186E+02 -0.30281423248E+01  0.13219052934E+03  0.19242009643E+03  0.12500041327E+03 0.  0.
         23    2    1    2    0    0 -0.62585018186E+02  0.30281423248E+01 -0.13219052934E+03  0.17257990357E+03  0.91561088464E+02 0.  0.
        -11    1    4    4    0    0 -0.77417534633E+02  0.27404993551E+02 -0.10338170411E+03  0.13203137916E+03  0.00000000000E+00 0. -1.
         11    1    4    4    0    0  0.14832516447E+02 -0.24376851226E+02 -0.28808825233E+02  0.40548524402E+02  0.00000000000E+00 0.  1.
        -15    1    3    3    0    0  0.24063906971E+02 -0.61375196766E+02  0.86927589979E+02  0.10911255668E+03  0.17770000000E+01 0.  1.
         15    1    3    3    0    0  0.38521111215E+02  0.58347054441E+02  0.45262939361E+02  0.83307539753E+02  0.17770000000E+01 0.  1.
</event>
<event>
 8    1  0.3345745E-006  0.1923841E+03  0.7546771E-02  0.1060848E+00
        -11   -1    0    0    0    0  0.00000000000E+00  0.00000000000E+00  0.18250000000E+03  0.18250000000E+03  0.00000000000E+00 0. -1.
         11   -1    0    0    0    0 -0.00000000000E+00 -0.00000000000E+00 -0.18250000000E+03  0.18250000000E+03  0.00000000000E+00 0.  1.
         25    2    1    2    0    0  0.60241768390E+02 -0.11304474694E+03  0.70561218109E+02  0.19238413327E+03  0.12499833504E+03 0.  0.
         23    2    1    2    0    0 -0.60241768390E+02  0.11304474694E+03 -0.70561218109E+02  0.17261586673E+03  0.91701507502E+02 0.  0.
        -11    1    4    4    0    0 -0.20133852875E+01  0.56356168562E+02 -0.71853161432E+02  0.91339740875E+02  0.00000000000E+00 0.  1.
         11    1    4    4    0    0 -0.58228383103E+02  0.56688578377E+02  0.12919433232E+01  0.81276125860E+02  0.00000000000E+00 0. -1.
        -15    1    3    3    0    0  0.42163497772E+02  0.18572927295E+02  0.17581857999E+02  0.49345654645E+02  0.17770000000E+01 0.  1.
         15    1    3    3    0    0  0.18078270619E+02 -0.13161767423E+03  0.52979360110E+02  0.14303847862E+03  0.17770000000E+01 0.  1.
</event>
<event>
 8    1  0.3345745E-006  0.1918364E+03  0.7546771E-02  0.1061257E+00
        -11   -1    0    0    0    0  0.00000000000E+00  0.00000000000E+00  0.18250000000E+03  0.18250000000E+03  0.00000000000E+00 0.  1.
         11   -1    0    0    0    0 -0.00000000000E+00 -0.00000000000E+00 -0.18250000000E+03  0.18250000000E+03  0.00000000000E+00 0. -1.
         25    2    1    2    0    0 -0.98125858510E+02 -0.10356850482E+03 -0.28653387260E+02  0.19183635953E+03  0.12500021175E+03 0.  0.
         23    2    1    2    0    0  0.98125858510E+02  0.10356850482E+03  0.28653387260E+02  0.17316364047E+03  0.93858992527E+02 0.  0.
        -11    1    4    4    0    0  0.15617337005E+02  0.50333891428E+02  0.50036401883E+02  0.72670787492E+02  0.00000000000E+00 0.  1.
         11    1    4    4    0    0  0.82508521506E+02  0.53234613395E+02 -0.21383014623E+02  0.10049285297E+03  0.00000000000E+00 0. -1.
        -15    1    3    3    0    0 -0.36701643975E+02 -0.11178877567E+03 -0.47709140132E+02  0.12697661524E+03  0.17770000000E+01 0. -1.
         15    1    3    3    0    0 -0.61424214535E+02  0.82202708428E+01  0.19055752872E+02  0.64859744299E+02  0.17770000000E+01 0. -1.
</event>
<event>
 8    1  0.3345745E-006  0.1917369E+03  0.7546771E-02  0.1061331E+00
        -11   -1    0    0    0    0  0.00000000000E+00  0.00000000000E+00  0.18250000000E+03  0.18250000000E+03  0.00000000000E+00 0. -1.
         11   -1    0    0    0    0 -0.00000000000E+00 -0.00000000000E+00 -0.18250000000E+03  0.18250000000E+03  0.00000000000E+00 0.  1.
         25    2    1    2    0    0  0.31816137287E+02  0.12362510390E+03  0.69587824294E+02  0.19173688516E+03  0.12500053974E+03 0.  0.
         23    2    1    2    0    0 -0.31816137287E+02 -0.12362510390E+03 -0.69587824294E+02  0.17326311484E+03  0.94245470804E+02 0.  0.
        -11    1    4    4    0    0 -0.23233739774E+02  0.84121327556E+01 -0.22883799810E+01  0.24815465427E+02  0.00000000000E+00 0. -1.
         11    1    4    4    0    0 -0.85823975124E+01 -0.13203723666E+03 -0.67299444313E+02  0.14844764941E+03  0.00000000000E+00 0.  1.
        -15    1    3    3    0    0  0.20338254549E+02  0.62329405388E+02 -0.31646334056E+02  0.72823399827E+02  0.17770000000E+01 0.  1.
         15    1    3    3    0    0  0.11477882738E+02  0.61295698513E+02  0.10123415835E+03  0.11891348533E+03  0.17770000000E+01 0.  1.
</event>
<event>
 8    1  0.3345745E-006  0.1932850E+03  0.7546771E-02  0.1060180E+00
        -11   -1    0    0    0    0  0.00000000000E+00  0.00000000000E+00  0.18250000000E+03  0.18250000000E+03  0.00000000000E+00 0.  1.
         11   -1    0    0    0    0 -0.00000000000E+00 -0.00000000000E+00 -0.18250000000E+03  0.18250000000E+03  0.00000000000E+00 0. -1.
         25    2    1    2    0    0 -0.62740338483E+02 -0.12776945854E+03  0.38328623264E+02  0.19328498204E+03  0.12501446441E+03 0.  0.
         23    2    1    2    0    0  0.62740338483E+02  0.12776945854E+03 -0.38328623264E+02  0.17171501796E+03  0.88065767603E+02 0.  0.
        -11    1    4    4    0    0  0.25293975986E+02  0.49744162544E+02 -0.60568046697E+02  0.82357484232E+02  0.00000000000E+00 0. -1.
         11    1    4    4    0    0  0.37446362498E+02  0.78025295995E+02  0.22239423433E+02  0.89357533729E+02  0.00000000000E+00 0.  1.
        -15    1    3    3    0    0 -0.66606113852E+02 -0.28563188477E+02 -0.23623825498E+02  0.76246134319E+02  0.17770000000E+01 0.  1.
         15    1    3    3    0    0  0.38657753691E+01 -0.99206270062E+02  0.61952448762E+02  0.11703884772E+03  0.17770000000E+01 0.  1.
</event>
<event>
 8    1  0.3345745E-006  0.1924087E+03  0.7546771E-02  0.1060830E+00
        -11   -1    0    0    0    0  0.00000000000E+00  0.00000000000E+00  0.18250000000E+03  0.18250000000E+03  0.00000000000E+00 0. -1.
         11   -1    0    0    0    0 -0.00000000000E+00 -0.00000000000E+00 -0.18250000000E+03  0.18250000000E+03  0.00000000000E+00 0.  1.
         25    2    1    2    0    0 -0.68846923262E+02  0.17621761075E+02  0.12783806095E+03  0.19240867175E+03  0.12501240671E+03 0.  0.
         23    2    1    2    0    0  0.68846923262E+02 -0.17621761075E+02 -0.12783806095E+03  0.17259132825E+03  0.91622985406E+02 0.  0.
        -11    1    4    4    0    0 -0.20391110351E+02 -0.65042244640E+01 -0.47110009795E+02  0.51744133388E+02  0.00000000000E+00 0.  1.
         11    1    4    4    0    0  0.89238033613E+02 -0.11117536611E+02 -0.80728051151E+02  0.12084719486E+03  0.00000000000E+00 0. -1.
        -15    1    3    3    0    0  0.29836329295E+02 -0.16401748547E+02  0.56412024519E+02  0.65914324244E+02  0.17770000000E+01 0. -1.
         15    1    3    3    0    0 -0.98683252557E+02  0.34023509622E+02  0.71426036426E+02  0.12649434751E+03  0.17770000000E+01 0. -1.
</event>
<event>
 8    1  0.3345745E-006  0.1926161E+03  0.7546771E-02  0.1060676E+00
        -11   -1    0    0    0    0  0.00000000000E+00  0.00000000000E+00  0.18250000000E+03  0.18250000000E+03  0.00000000000E+00 0.  1.
         11   -1    0    0    0    0 -0.00000000000E+00 -0.00000000000E+00 -0.18250000000E+03  0.18250000000E+03  0.00000000000E+00 0. -1.
         25    2    1    2    0    0 -0.35534050528E+02  0.66933170225E+02  0.12543274330E+03  0.19261612715E+03  0.12499952529E+03 0.  0.
         23    2    1    2    0    0  0.35534050528E+02 -0.66933170225E+02 -0.12543274330E+03  0.17238387285E+03  0.90775043386E+02 0.  0.
        -11    1    4    4    0    0 -0.21260542617E+02 -0.46752427125E+02 -0.86598596803E+02  0.10068325125E+03  0.00000000000E+00 0. -1.
         11    1    4    4    0    0  0.56794593145E+02 -0.20180743099E+02 -0.38834146500E+02  0.71700621594E+02  0.00000000000E+00 0.  1.
        -15    1    3    3    0    0  0.37808084434E+02 -0.65104375375E+01  0.55334710732E+02  0.67356699639E+02  0.17770000000E+01 0. -1.
         15    1    3    3    0    0 -0.73342134962E+02  0.73443607762E+02  0.70098032571E+02  0.12525942751E+03  0.17770000000E+01 0. -1.
</event>
<event>
 8    1  0.3345745E-006  0.1920807E+03  0.7546771E-02  0.1061074E+00
        -11   -1    0    0    0    0  0.00000000000E+00  0.00000000000E+00  0.18250000000E+03  0.18250000000E+03  0.00000000000E+00 0.  1.
         11   -1    0    0    0    0 -0.00000000000E+00 -0.00000000000E+00 -0.18250000000E+03  0.18250000000E+03  0.00000000000E+00 0. -1.
         25    2    1    2    0    0 -0.10019328972E+03 -0.57103173611E+02 -0.89276484145E+02  0.19208065244E+03  0.12500087472E+03 0.  0.
         23    2    1    2    0    0  0.10019328972E+03  0.57103173611E+02  0.89276484145E+02  0.17291934756E+03  0.92905018156E+02 0.  0.
        -11    1    4    4    0    0  0.55122756176E+02  0.40775822606E+01 -0.52679030383E+01  0.55523830271E+02  0.00000000000E+00 0. -1.
         11    1    4    4    0    0  0.45070533541E+02  0.53025591350E+02  0.94544387183E+02  0.11739551729E+03  0.00000000000E+00 0.  1.
        -15    1    3    3    0    0 -0.10893336036E+03 -0.50589989170E+02 -0.19811807519E+02  0.12174353966E+03  0.17770000000E+01 0.  1.
         15    1    3    3    0    0  0.87400706418E+01 -0.65131844410E+01 -0.69464676626E+02  0.70337112779E+02  0.17770000000E+01 0.  1.
</event>
<event>
 8    1  0.3345745E-006  0.1922395E+03  0.7546771E-02  0.1060956E+00
        -11   -1    0    0    0    0  0.00000000000E+00  0.00000000000E+00  0.18250000000E+03  0.18250000000E+03  0.00000000000E+00 0. -1.
         11   -1    0    0    0    0 -0.00000000000E+00 -0.00000000000E+00 -0.18250000000E+03  0.18250000000E+03  0.00000000000E+00 0.  1.
         25    2    1    2    0    0 -0.33764851491E+02 -0.86534468761E+02  0.11270643268E+03  0.19223950342E+03  0.12500002891E+03 0.  0.
         23    2    1    2    0    0  0.33764851491E+02  0.86534468761E+02 -0.11270643268E+03  0.17276049658E+03  0.92277677326E+02 0.  0.
        -11    1    4    4    0    0  0.19949908974E+01  0.54878258044E+02 -0.11543208431E+03  0.12782867160E+03  0.00000000000E+00 0.  1.
         11    1    4    4    0    0  0.31769860594E+02  0.31656210717E+02  0.27256516382E+01  0.44931824979E+02  0.00000000000E+00 0. -1.
        -15    1    3    3    0    0  0.12731605096E+02 -0.30247283027E+02  0.11456529849E+03  0.11918622927E+03  0.17770000000E+01 0.  1.
         15    1    3    3    0    0 -0.46496456587E+02 -0.56287185734E+02 -0.18588658192E+01  0.73053274151E+02  0.17770000000E+01 0.  1.
</event>
<event>
 8    1  0.3345745E-006  0.1904529E+03  0.7546771E-02  0.1062295E+00
        -11   -1    0    0    0    0  0.00000000000E+00  0.00000000000E+00  0.18250000000E+03  0.18250000000E+03  0.00000000000E+00 0.  1.
         11   -1    0    0    0    0 -0.00000000000E+00 -0.00000000000E+00 -0.18250000000E+03  0.18250000000E+03  0.00000000000E+00 0. -1.
         25    2    1    2    0    0  0.19815631564E+02 -0.89311845556E+02 -0.11080909086E+03  0.19045293713E+03  0.12499760651E+03 0.  0.
         23    2    1    2    0    0 -0.19815631564E+02  0.89311845556E+02  0.11080909086E+03  0.17454706287E+03  0.99089643910E+02 0.  0.
        -11    1    4    4    0    0 -0.24467208241E+02  0.10790956142E+03  0.74206641422E+02  0.13322816277E+03  0.00000000000E+00 0. -1.
         11    1    4    4    0    0  0.46515766769E+01 -0.18597715863E+02  0.36602449434E+02  0.41318900100E+02  0.00000000000E+00 0.  1.
        -15    1    3    3    0    0  0.15105031426E+02  0.30864528700E+02 -0.20617983538E+02  0.40112841839E+02  0.17770000000E+01 0.  1.
         15    1    3    3    0    0  0.47106001378E+01 -0.12017637426E+03 -0.90191107319E+02  0.15034009529E+03  0.17770000000E+01 0.  1.
</event>
<event>
 8    1  0.3345745E-006  0.1922999E+03  0.7546771E-02  0.1060911E+00
        -11   -1    0    0    0    0  0.00000000000E+00  0.00000000000E+00  0.18250000000E+03  0.18250000000E+03  0.00000000000E+00 0. -1.
         11   -1    0    0    0    0 -0.00000000000E+00 -0.00000000000E+00 -0.18250000000E+03  0.18250000000E+03  0.00000000000E+00 0.  1.
         25    2    1    2    0    0  0.81760562260E+02  0.62528043971E+02  0.10374271755E+03  0.19229993892E+03  0.12498867645E+03 0.  0.
         23    2    1    2    0    0 -0.81760562260E+02 -0.62528043971E+02 -0.10374271755E+03  0.17270006108E+03  0.92022898385E+02 0.  0.
        -11    1    4    4    0    0 -0.69899055022E+02  0.35797000527E+01 -0.43010043353E+02  0.82149595097E+02  0.00000000000E+00 0. -1.
         11    1    4    4    0    0 -0.11861507238E+02 -0.66107744024E+02 -0.60732674197E+02  0.90550465979E+02  0.00000000000E+00 0.  1.
        -15    1    3    3    0    0  0.11005599737E+03  0.53849354154E+02  0.10672895457E+03  0.16250016299E+03  0.17770000000E+01 0. -1.
         15    1    3    3    0    0 -0.28295435110E+02  0.86786898178E+01 -0.29862370215E+01  0.29799775931E+02  0.17770000000E+01 0. -1.
</event>
<event>
 8    1  0.3448744E-006  0.1913105E+03  0.7546771E-02  0.1061650E+00
        -11   -1    0    0    0    0  0.00000000000E+00  0.00000000000E+00  0.18250000000E+03  0.18250000000E+03  0.00000000000E+00 0. -1.
         11   -1    0    0    0    0 -0.00000000000E+00 -0.00000000000E+00 -0.18250000000E+03  0.18250000000E+03  0.00000000000E+00 0.  1.
         25    2    1    2    0    0  0.20481501195E+02  0.12865562164E+03  0.63257981063E+02  0.19131046176E+03  0.12500543884E+03 0.  0.
         23    2    1    2    0    0 -0.20481501195E+02 -0.12865562164E+03 -0.63257981063E+02  0.17368953824E+03  0.95889116443E+02 0.  0.
        -11    1    4    4    0    0  0.28076889581E+01 -0.91325040025E+02  0.60790747041E+01  0.91570198220E+02  0.00000000000E+00 0. -1.
         11    1    4    4    0    0 -0.23289190153E+02 -0.37330581620E+02 -0.69337055768E+02  0.82119340015E+02  0.00000000000E+00 0.  1.
        -15    1    3    3    0    0 -0.26423243795E+02  0.67513202530E+02  0.84501619814E+02  0.11135484636E+03  0.17770000000E+01 0. -1.
         15    1    3    3    0    0  0.46904744989E+02  0.61142419115E+02 -0.21243638750E+02  0.79955615401E+02  0.17770000000E+01 0. -1.
</event>
<event>
 8    1  0.3345745E-006  0.1916533E+03  0.7546771E-02  0.1061394E+00
        -11   -1    0    0    0    0  0.00000000000E+00  0.00000000000E+00  0.18250000000E+03  0.18250000000E+03  0.00000000000E+00 0.  1.
         11   -1    0    0    0    0 -0.00000000000E+00 -0.00000000000E+00 -0.18250000000E+03  0.18250000000E+03  0.00000000000E+00 0. -1.
         25    2    1    2    0    0 -0.11024011737E+03 -0.94276252595E+02  0.79089527413E+01  0.19165325235E+03  0.12501008888E+03 0.  0.
         23    2    1    2    0    0  0.11024011737E+03  0.94276252595E+02 -0.79089527413E+01  0.17334674765E+03  0.94581436368E+02 0.  0.
        -11    1    4    4    0    0  0.81438559475E+02  0.17581266502E+02 -0.29907329096E+02  0.88519987770E+02  0.00000000000E+00 0.  1.
         11    1    4    4    0    0  0.28801557895E+02  0.76694986094E+02  0.21998376355E+02  0.84826759878E+02  0.00000000000E+00 0. -1.
        -15    1    3    3    0    0 -0.49240684048E+02 -0.75512191183E+02  0.60796622897E+02  0.10874797960E+03  0.17770000000E+01 0. -1.
         15    1    3    3    0    0 -0.60999433323E+02 -0.18764061412E+02 -0.52887670155E+02  0.82905272750E+02  0.17770000000E+01 0. -1.
</event>
<event>
 8    1  0.3345745E-006  0.1920549E+03  0.7546771E-02  0.1061094E+00
        -11   -1    0    0    0    0  0.00000000000E+00  0.00000000000E+00  0.18250000000E+03  0.18250000000E+03  0.00000000000E+00 0. -1.
         11   -1    0    0    0    0 -0.00000000000E+00 -0.00000000000E+00 -0.18250000000E+03  0.18250000000E+03  0.00000000000E+00 0.  1.
         25    2    1    2    0    0  0.59932524238E+01 -0.13970045383E+03  0.41370966501E+02  0.19205491777E+03  0.12498559395E+03 0.  0.
         23    2    1    2    0    0 -0.59932524238E+01  0.13970045383E+03 -0.41370966501E+02  0.17294508223E+03  0.92985529655E+02 0.  0.
        -11    1    4    4    0    0 -0.92721374399E+01  0.81985465726E+02 -0.70214718989E+02  0.10834064743E+03  0.00000000000E+00 0.  1.
         11    1    4    4    0    0  0.32788850161E+01  0.57714988102E+02  0.28843752489E+02  0.64604434803E+02  0.00000000000E+00 0. -1.
        -15    1    3    3    0    0  0.22841528276E+02  0.15933773083E+02  0.19353097224E+02  0.33960574787E+02  0.17770000000E+01 0.  1.
         15    1    3    3    0    0 -0.16848275853E+02 -0.15563422691E+03  0.22017869276E+02  0.15809434298E+03  0.17770000000E+01 0.  1.
</event>
<event>
 8    1  0.3345745E-006  0.1934942E+03  0.7546771E-02  0.1060025E+00
        -11   -1    0    0    0    0  0.00000000000E+00  0.00000000000E+00  0.18250000000E+03  0.18250000000E+03  0.00000000000E+00 0.  1.
         11   -1    0    0    0    0 -0.00000000000E+00 -0.00000000000E+00 -0.18250000000E+03  0.18250000000E+03  0.00000000000E+00 0. -1.
         25    2    1    2    0    0  0.67212840805E+01  0.12601660816E+03 -0.76749328310E+02  0.19349423668E+03  0.12499679612E+03 0.  0.
         23    2    1    2    0    0 -0.67212840805E+01 -0.12601660816E+03  0.76749328310E+02  0.17150576332E+03  0.87168837684E+02 0.  0.
        -11    1    4    4    0    0  0.34901950148E+02 -0.41961951995E+02  0.49875462565E+02  0.73935872927E+02  0.00000000000E+00 0.  1.
         11    1    4    4    0    0 -0.41623234228E+02 -0.84054656166E+02  0.26873865744E+02  0.97569890391E+02  0.00000000000E+00 0. -1.
        -15    1    3    3    0    0  0.11025178215E+02 -0.24500443631E+02 -0.92592869497E+01  0.28473117438E+02  0.17770000000E+01 0. -1.
         15    1    3    3    0    0 -0.43038941349E+01  0.15051705179E+03 -0.67490041360E+02  0.16502111924E+03  0.17770000000E+01 0. -1.
</event>
<event>
 8    1  0.3345745E-006  0.1926720E+03  0.7546771E-02  0.1060634E+00
        -11   -1    0    0    0    0  0.00000000000E+00  0.00000000000E+00  0.18250000000E+03  0.18250000000E+03  0.00000000000E+00 0.  1.
         11   -1    0    0    0    0 -0.00000000000E+00 -0.00000000000E+00 -0.18250000000E+03  0.18250000000E+03  0.00000000000E+00 0. -1.
         25    2    1    2    0    0  0.50918981594E+02  0.10599903803E+03  0.87569735318E+02  0.19267195224E+03  0.12500193553E+03 0.  0.
         23    2    1    2    0    0 -0.50918981594E+02 -0.10599903803E+03 -0.87569735318E+02  0.17232804776E+03  0.90553623624E+02 0.  0.
        -11    1    4    4    0    0 -0.45060350539E+02 -0.57015431727E+02 -0.97900761339E+02  0.12192519722E+03  0.00000000000E+00 0. -1.
         11    1    4    4    0    0 -0.58586310543E+01 -0.48983606301E+02  0.10331026022E+02  0.50402850542E+02  0.00000000000E+00 0.  1.
        -15    1    3    3    0    0  0.88793910929E+02  0.45218184623E+02  0.45087981621E+02  0.10938522137E+03  0.17770000000E+01 0.  1.
         15    1    3    3    0    0 -0.37874929335E+02  0.60780853405E+02  0.42481753697E+02  0.83286730870E+02  0.17770000000E+01 0.  1.
</event>
<event>
 8    1  0.3345745E-006  0.1926007E+03  0.7546771E-02  0.1060687E+00
        -11   -1    0    0    0    0  0.00000000000E+00  0.00000000000E+00  0.18250000000E+03  0.18250000000E+03  0.00000000000E+00 0.  1.
         11   -1    0    0    0    0 -0.00000000000E+00 -0.00000000000E+00 -0.18250000000E+03  0.18250000000E+03  0.00000000000E+00 0. -1.
         25    2    1    2    0    0  0.84376409833E+02 -0.11975648860E+03  0.30352951900E+01  0.19260071022E+03  0.12499930185E+03 0.  0.
         23    2    1    2    0    0 -0.84376409833E+02  0.11975648860E+03 -0.30352951900E+01  0.17239928978E+03  0.90836705141E+02 0.  0.
        -11    1    4    4    0    0 -0.49295741374E+02  0.45415853402E+02  0.41573229773E+02  0.78873337013E+02  0.00000000000E+00 0.  1.
         11    1    4    4    0    0 -0.35080668459E+02  0.74340635200E+02 -0.44608524963E+02  0.93525952766E+02  0.00000000000E+00 0. -1.
        -15    1    3    3    0    0  0.93200813237E+01 -0.82630796066E+02  0.49531304048E+02  0.96805062802E+02  0.17770000000E+01 0.  1.
         15    1    3    3    0    0  0.75056328510E+02 -0.37125692536E+02 -0.46496008858E+02  0.95795647419E+02  0.17770000000E+01 0.  1.
</event>
<event>
 8    1  0.3345745E-006  0.1925196E+03  0.7546771E-02  0.1060748E+00
        -11   -1    0    0    0    0  0.00000000000E+00  0.00000000000E+00  0.18250000000E+03  0.18250000000E+03  0.00000000000E+00 0. -1.
         11   -1    0    0    0    0 -0.00000000000E+00 -0.00000000000E+00 -0.18250000000E+03  0.18250000000E+03  0.00000000000E+00 0.  1.
         25    2    1    2    0    0  0.97026150193E+02  0.64524093895E+02  0.88684123411E+02  0.19251955045E+03  0.12498588338E+03 0.  0.
         23    2    1    2    0    0 -0.97026150193E+02 -0.64524093895E+02 -0.88684123411E+02  0.17248044955E+03  0.91143838076E+02 0.  0.
        -11    1    4    4    0    0 -0.88226279752E+02 -0.11447354460E+02 -0.32567295279E+02  0.94739363966E+02  0.00000000000E+00 0. -1.
         11    1    4    4    0    0 -0.87998704410E+01 -0.53076739435E+02 -0.56116828132E+02  0.77741085588E+02  0.00000000000E+00 0.  1.
        -15    1    3    3    0    0 -0.11257119483E+02  0.25700512284E+02  0.70688598592E+02  0.76074139960E+02  0.17770000000E+01 0.  1.
         15    1    3    3    0    0  0.10828326968E+03  0.38823581610E+02  0.17995524818E+02  0.11644541049E+03  0.17770000000E+01 0.  1.
</event>
<event>
 8    1  0.3345745E-006  0.1923548E+03  0.7546771E-02  0.1060870E+00
        -11   -1    0    0    0    0  0.00000000000E+00  0.00000000000E+00  0.18250000000E+03  0.18250000000E+03  0.00000000000E+00 0.  1.
         11   -1    0    0    0    0 -0.00000000000E+00 -0.00000000000E+00 -0.18250000000E+03  0.18250000000E+03  0.00000000000E+00 0. -1.
         25    2    1    2    0    0 -0.14405630034E+03 -0.22287530190E+02  0.11465135279E+02  0.19235477573E+03  0.12497983338E+03 0.  0.
         23    2    1    2    0    0  0.14405630034E+03  0.22287530190E+02 -0.11465135279E+02  0.17264522427E+03  0.91793095955E+02 0.  0.
        -11    1    4    4    0    0  0.58475481613E+01  0.13561711264E+02  0.25361574573E+02  0.29348309947E+02  0.00000000000E+00 0.  1.
         11    1    4    4    0    0  0.13820875218E+03  0.87258189267E+01 -0.36826709852E+02  0.14329691432E+03  0.00000000000E+00 0. -1.
        -15    1    3    3    0    0 -0.10233485376E+03 -0.31615367962E+02  0.63856600874E+02  0.12471077335E+03  0.17770000000E+01 0.  1.
         15    1    3    3    0    0 -0.41721446578E+02  0.93278377719E+01 -0.52391465595E+02  0.67644002382E+02  0.17770000000E+01 0.  1.
</event>
<event>
 8    1  0.3345745E-006  0.1925131E+03  0.7546771E-02  0.1060752E+00
        -11   -1    0    0    0    0  0.00000000000E+00  0.00000000000E+00  0.18250000000E+03  0.18250000000E+03  0.00000000000E+00 0. -1.
         11   -1    0    0    0    0 -0.00000000000E+00 -0.00000000000E+00 -0.18250000000E+03  0.18250000000E+03  0.00000000000E+00 0.  1.
         25    2    1    2    0    0 -0.76991488272E+02 -0.70933275303E+02  0.10235907391E+03  0.19251307877E+03  0.12499874669E+03 0.  0.
         23    2    1    2    0    0  0.76991488272E+02  0.70933275303E+02 -0.10235907391E+03  0.17248692123E+03  0.91187384942E+02 0.  0.
        -11    1    4    4    0    0  0.91300254086E+02  0.59582346078E+02 -0.55796979177E+02  0.12247079344E+03  0.00000000000E+00 0. -1.
         11    1    4    4    0    0 -0.14308765814E+02  0.11350929225E+02 -0.46562094733E+02  0.50016127792E+02  0.00000000000E+00 0.  1.
        -15    1    3    3    0    0 -0.23677986763E+02 -0.98806126335E+02  0.75547535420E+02  0.12662497975E+03  0.17770000000E+01 0.  1.
         15    1    3    3    0    0 -0.53313501508E+02  0.27872851032E+02  0.26811538490E+02  0.65888099023E+02  0.17770000000E+01 0.  1.
</event>
<event>
 8    1  0.3345745E-006  0.1922455E+03  0.7546771E-02  0.1060952E+00
        -11   -1    0    0    0    0  0.00000000000E+00  0.00000000000E+00  0.18250000000E+03  0.18250000000E+03  0.00000000000E+00 0. -1.
         11   -1    0    0    0    0 -0.00000000000E+00 -0.00000000000E+00 -0.18250000000E+03  0.18250000000E+03  0.00000000000E+00 0.  1.
         25    2    1    2    0    0 -0.93881281942E+02 -0.95090951399E+02  0.58969788684E+02  0.19224551840E+03  0.12499967691E+03 0.  0.
         23    2    1    2    0    0  0.93881281942E+02  0.95090951399E+02 -0.58969788684E+02  0.17275448160E+03  0.92253405358E+02 0.  0.
        -11    1    4    4    0    0  0.61617519682E+02  0.79068679489E+02 -0.82416385717E+02  0.12977301508E+03  0.00000000000E+00 0.  1.
         11    1    4    4    0    0  0.32263762260E+02  0.16022271910E+02  0.23446597033E+02  0.42981466526E+02  0.00000000000E+00 0. -1.
        -15    1    3    3    0    0 -0.10268135774E+03 -0.56684853433E+02  0.85111969218E+02  0.14492701221E+03  0.17770000000E+01 0. -1.
         15    1    3    3    0    0  0.88000757996E+01 -0.38406097966E+02 -0.26142180534E+02  0.47318506180E+02  0.17770000000E+01 0. -1.
</event>
<event>
 8    1  0.3345745E-006  0.1938209E+03  0.7546771E-02  0.1059784E+00
        -11   -1    0    0    0    0  0.00000000000E+00  0.00000000000E+00  0.18250000000E+03  0.18250000000E+03  0.00000000000E+00 0.  1.
         11   -1    0    0    0    0 -0.00000000000E+00 -0.00000000000E+00 -0.18250000000E+03  0.18250000000E+03  0.00000000000E+00 0. -1.
         25    2    1    2    0    0 -0.96614372153E+02 -0.80671142507E+02 -0.78075295111E+02  0.19382091439E+03  0.12501449919E+03 0.  0.
         23    2    1    2    0    0  0.96614372153E+02  0.80671142507E+02  0.78075295111E+02  0.17117908561E+03  0.85815834806E+02 0.  0.
        -11    1    4    4    0    0  0.52525709227E+02 -0.73899067102E+01  0.19028997530E+02  0.56353026521E+02  0.00000000000E+00 0. -1.
         11    1    4    4    0    0  0.44088662925E+02  0.88061049217E+02  0.59046297581E+02  0.11482605909E+03  0.00000000000E+00 0.  1.
        -15    1    3    3    0    0 -0.16485547610E+02 -0.75121762497E+02  0.64572737831E+01  0.77200431310E+02  0.17770000000E+01 0.  1.
         15    1    3    3    0    0 -0.80128824543E+02 -0.55493800099E+01 -0.84532568895E+02  0.11662048308E+03  0.17770000000E+01 0.  1.
</event>
<event>
 8    1  0.3345745E-006  0.1925466E+03  0.7546771E-02  0.1060728E+00
        -11   -1    0    0    0    0  0.00000000000E+00  0.00000000000E+00  0.18250000000E+03  0.18250000000E+03  0.00000000000E+00 0. -1.
         11   -1    0    0    0    0 -0.00000000000E+00 -0.00000000000E+00 -0.18250000000E+03  0.18250000000E+03  0.00000000000E+00 0.  1.
         25    2    1    2    0    0 -0.13006328509E+03  0.23781204769E+01 -0.67284033413E+02  0.19254659583E+03  0.12499974731E+03 0.  0.
         23    2    1    2    0    0  0.13006328509E+03 -0.23781204769E+01  0.67284033413E+02  0.17245340417E+03  0.91054499468E+02 0.  0.
        -11    1    4    4    0    0  0.39289477755E+02 -0.23005426750E+01  0.71462591979E+02  0.81583439564E+02  0.00000000000E+00 0. -1.
         11    1    4    4    0    0  0.90773807334E+02 -0.77577801942E-01 -0.41785585658E+01  0.90869964608E+02  0.00000000000E+00 0.  1.
        -15    1    3    3    0    0 -0.13339302683E+02  0.48655806449E+02 -0.39082780533E+02  0.63843135578E+02  0.17770000000E+01 0. -1.
         15    1    3    3    0    0 -0.11672398240E+03 -0.46277685972E+02 -0.28201252880E+02  0.12870346025E+03  0.17770000000E+01 0. -1.
</event>
<event>
 8    1  0.3345745E-006  0.1925374E+03  0.7546771E-02  0.1060734E+00
        -11   -1    0    0    0    0  0.00000000000E+00  0.00000000000E+00  0.18250000000E+03  0.18250000000E+03  0.00000000000E+00 0. -1.
         11   -1    0    0    0    0 -0.00000000000E+00 -0.00000000000E+00 -0.18250000000E+03  0.18250000000E+03  0.00000000000E+00 0.  1.
         25    2    1    2    0    0 -0.58985130136E+02 -0.11500298772E+03 -0.68855909140E+02  0.19253744746E+03  0.12499839874E+03 0.  0.
         23    2    1    2    0    0  0.58985130136E+02  0.11500298772E+03  0.68855909140E+02  0.17246255254E+03  0.91089313563E+02 0.  0.
        -11    1    4    4    0    0  0.67950599743E+02  0.62787871974E+02  0.75039077817E+02  0.11912373429E+03  0.00000000000E+00 0. -1.
         11    1    4    4    0    0 -0.89654696068E+01  0.52215115745E+02 -0.61831686779E+01  0.53338818251E+02  0.00000000000E+00 0.  1.
        -15    1    3    3    0    0  0.86833343273E+01 -0.11137920264E+03 -0.37582785117E+02  0.11788278306E+03  0.17770000000E+01 0.  1.
         15    1    3    3    0    0 -0.67668464464E+02 -0.36237850804E+01 -0.31273124023E+02  0.74654664398E+02  0.17770000000E+01 0.  1.
</event>
<event>
 8    1  0.3345745E-006  0.1921161E+03  0.7546771E-02  0.1061048E+00
        -11   -1    0    0    0    0  0.00000000000E+00  0.00000000000E+00  0.18250000000E+03  0.18250000000E+03  0.00000000000E+00 0. -1.
         11   -1    0    0    0    0 -0.00000000000E+00 -0.00000000000E+00 -0.18250000000E+03  0.18250000000E+03  0.00000000000E+00 0.  1.
         25    2    1    2    0    0  0.24757901210E+01 -0.14387940269E+03  0.24018980285E+02  0.19211612233E+03  0.12499712392E+03 0.  0.
         23    2    1    2    0    0 -0.24757901210E+01  0.14387940269E+03 -0.24018980285E+02  0.17288387767E+03  0.92760507174E+02 0.  0.
        -11    1    4    4    0    0 -0.19000999070E+02  0.42902698887E+02 -0.48702712225E+02  0.67628645673E+02  0.00000000000E+00 0.  1.
         11    1    4    4    0    0  0.16525208949E+02  0.10097670380E+03  0.24683731940E+02  0.10525523200E+03  0.00000000000E+00 0. -1.
        -15    1    3    3    0    0  0.60509321565E+02 -0.10083774505E+03  0.67467872488E+01  0.11780622093E+03  0.17770000000E+01 0. -1.
         15    1    3    3    0    0 -0.58033531444E+02 -0.43041657640E+02  0.17272193036E+02  0.74309901397E+02  0.17770000000E+01 0. -1.
</event>
<event>
 8    1  0.3345745E-006  0.1926897E+03  0.7546771E-02  0.1060621E+00
        -11   -1    0    0    0    0  0.00000000000E+00  0.00000000000E+00  0.18250000000E+03  0.18250000000E+03  0.00000000000E+00 0. -1.
         11   -1    0    0    0    0 -0.00000000000E+00 -0.00000000000E+00 -0.18250000000E+03  0.18250000000E+03  0.00000000000E+00 0.  1.
         25    2    1    2    0    0  0.10853394074E+03  0.81469846621E+02  0.55565828817E+02  0.19268971386E+03  0.12499924918E+03 0.  0.
         23    2    1    2    0    0 -0.10853394074E+03 -0.81469846621E+02 -0.55565828817E+02  0.17231028614E+03  0.90478291183E+02 0.  0.
        -11    1    4    4    0    0 -0.43643551108E+02 -0.34603018614E+02 -0.71562102681E+02  0.90682208788E+02  0.00000000000E+00 0.  1.
         11    1    4    4    0    0 -0.64890389632E+02 -0.46866828008E+02  0.15996273864E+02  0.81628077349E+02  0.00000000000E+00 0. -1.
        -15    1    3    3    0    0  0.10914443169E+03  0.31128431799E+02  0.77811606628E+02  0.13762009334E+03  0.17770000000E+01 0.  1.
         15    1    3    3    0    0 -0.61049094901E+00  0.50341414822E+02 -0.22245777811E+02  0.55069620526E+02  0.17770000000E+01 0.  1.
</event>
<event>
 8    1  0.3345745E-006  0.1942351E+03  0.7546771E-02  0.1059479E+00
        -11   -1    0    0    0    0  0.00000000000E+00  0.00000000000E+00  0.18250000000E+03  0.18250000000E+03  0.00000000000E+00 0. -1.
         11   -1    0    0    0    0 -0.00000000000E+00 -0.00000000000E+00 -0.18250000000E+03  0.18250000000E+03  0.00000000000E+00 0.  1.
         25    2    1    2    0    0 -0.40051114717E+02  0.59417206254E+02 -0.13025471157E+03  0.19423506120E+03  0.12500589157E+03 0.  0.
         23    2    1    2    0    0  0.40051114717E+02 -0.59417206254E+02  0.13025471157E+03  0.17076493880E+03  0.84023081641E+02 0.  0.
        -11    1    4    4    0    0  0.65283515434E+02 -0.46853803286E+02  0.81528298286E+02  0.11447305225E+03  0.00000000000E+00 0.  1.
         11    1    4    4    0    0 -0.25232400717E+02 -0.12563402967E+02  0.48726413279E+02  0.56291886548E+02  0.00000000000E+00 0. -1.
        -15    1    3    3    0    0  0.44538054530E+02  0.15924895320E+02 -0.57473607649E+02  0.74455449079E+02  0.17770000000E+01 0. -1.
         15    1    3    3    0    0 -0.84589169247E+02  0.43492310934E+02 -0.72781103916E+02  0.11977961212E+03  0.17770000000E+01 0. -1.
</event>
<event>
 8    1  0.3345745E-006  0.1924691E+03  0.7546771E-02  0.1060785E+00
        -11   -1    0    0    0    0  0.00000000000E+00  0.00000000000E+00  0.18250000000E+03  0.18250000000E+03  0.00000000000E+00 0. -1.
         11   -1    0    0    0    0 -0.00000000000E+00 -0.00000000000E+00 -0.18250000000E+03  0.18250000000E+03  0.00000000000E+00 0.  1.
         25    2    1    2    0    0  0.86233527909E+02 -0.71788138805E+01 -0.11802894842E+03  0.19246914827E+03  0.12500313463E+03 0.  0.
         23    2    1    2    0    0 -0.86233527909E+02  0.71788138805E+01  0.11802894842E+03  0.17253085173E+03  0.91369061658E+02 0.  0.
        -11    1    4    4    0    0 -0.16440068752E+02 -0.38185533752E+02  0.50008691666E+02  0.65032915440E+02  0.00000000000E+00 0. -1.
         11    1    4    4    0    0 -0.69793459157E+02  0.45364347632E+02  0.68020256754E+02  0.10749793629E+03  0.00000000000E+00 0.  1.
        -15    1    3    3    0    0  0.34096677265E+02  0.58755311502E+02 -0.52544228031E+02  0.85900079503E+02  0.17770000000E+01 0.  1.
         15    1    3    3    0    0  0.52136850645E+02 -0.65934125382E+02 -0.65484720389E+02  0.10656906877E+03  0.17770000000E+01 0.  1.
</event>
<event>
 8    1  0.3345745E-006  0.1923516E+03  0.7546771E-02  0.1060873E+00
        -11   -1    0    0    0    0  0.00000000000E+00  0.00000000000E+00  0.18250000000E+03  0.18250000000E+03  0.00000000000E+00 0.  1.
         11   -1    0    0    0    0 -0.00000000000E+00 -0.00000000000E+00 -0.18250000000E+03  0.18250000000E+03  0.00000000000E+00 0. -1.
         25    2    1    2    0    0 -0.16024969368E+02 -0.11123134359E+03  0.93510331133E+02  0.19235163125E+03  0.12500302627E+03 0.  0.
         23    2    1    2    0    0  0.16024969368E+02  0.11123134359E+03 -0.93510331133E+02  0.17264836875E+03  0.91837169842E+02 0.  0.
        -11    1    4    4    0    0  0.49156411572E+01  0.39155776201E+02  0.14738801911E+02  0.42125652751E+02  0.00000000000E+00 0.  1.
         11    1    4    4    0    0  0.11109328211E+02  0.72075567384E+02 -0.10824913304E+03  0.13052271600E+03  0.00000000000E+00 0. -1.
        -15    1    3    3    0    0 -0.65803776389E+02 -0.52529136711E+02  0.75906797499E+02  0.11337745290E+03  0.17770000000E+01 0. -1.
         15    1    3    3    0    0  0.49778807021E+02 -0.58702206874E+02  0.17603533633E+02  0.78974178348E+02  0.17770000000E+01 0. -1.
</event>
<event>
 8    1  0.3345745E-006  0.1927552E+03  0.7546771E-02  0.1060573E+00
        -11   -1    0    0    0    0  0.00000000000E+00  0.00000000000E+00  0.18250000000E+03  0.18250000000E+03  0.00000000000E+00 0.  1.
         11   -1    0    0    0    0 -0.00000000000E+00 -0.00000000000E+00 -0.18250000000E+03  0.18250000000E+03  0.00000000000E+00 0. -1.
         25    2    1    2    0    0 -0.12526758815E+03 -0.37911773622E+02 -0.66343775543E+02  0.19275522787E+03  0.12499524030E+03 0.  0.
         23    2    1    2    0    0  0.12526758815E+03  0.37911773622E+02  0.66343775543E+02  0.17224477213E+03  0.90208058123E+02 0.  0.
        -11    1    4    4    0    0  0.56611986890E+02  0.40464794221E+02  0.75795649735E+02  0.10289459242E+03  0.00000000000E+00 0.  1.
         11    1    4    4    0    0  0.68655601264E+02 -0.25530205992E+01 -0.94518741927E+01  0.69350179703E+02  0.00000000000E+00 0. -1.
        -15    1    3    3    0    0 -0.76597209238E+02 -0.83777346109E+01  0.28456543307E+02  0.82159914108E+02  0.17770000000E+01 0.  1.
         15    1    3    3    0    0 -0.48670378916E+02 -0.29534039011E+02 -0.94800318849E+02  0.11059531377E+03  0.17770000000E+01 0.  1.
</event>
<event>
 8    1  0.3345745E-006  0.1927231E+03  0.7546771E-02  0.1060596E+00
        -11   -1    0    0    0    0  0.00000000000E+00  0.00000000000E+00  0.18250000000E+03  0.18250000000E+03  0.00000000000E+00 0.  1.
         11   -1    0    0    0    0 -0.00000000000E+00 -0.00000000000E+00 -0.18250000000E+03  0.18250000000E+03  0.00000000000E+00 0. -1.
         25    2    1    2    0    0  0.14432754989E+03  0.12189135903E+02  0.23188391484E+02  0.19272306608E+03  0.12500184802E+03 0.  0.
         23    2    1    2    0    0 -0.14432754989E+03 -0.12189135903E+02 -0.23188391484E+02  0.17227693392E+03  0.90347239977E+02 0.  0.
        -11    1    4    4    0    0 -0.15164679472E+03 -0.18606693768E+02 -0.35229639800E+02  0.15679313417E+03  0.00000000000E+00 0. -1.
         11    1    4    4    0    0  0.73192448313E+01  0.64175578657E+01  0.12041248316E+02  0.15483799756E+02  0.00000000000E+00 0.  1.
        -15    1    3    3    0    0  0.35508355403E+01 -0.38303482117E+02 -0.94134696350E+01  0.39642607317E+02  0.17770000000E+01 0. -1.
         15    1    3    3    0    0  0.14077671435E+03  0.50492618020E+02  0.32601861119E+02  0.15308045876E+03  0.17770000000E+01 0. -1.
</event>
<event>
 8    1  0.3345745E-006  0.1925229E+03  0.7546771E-02  0.1060745E+00
        -11   -1    0    0    0    0  0.00000000000E+00  0.00000000000E+00  0.18250000000E+03  0.18250000000E+03  0.00000000000E+00 0. -1.
         11   -1    0    0    0    0 -0.00000000000E+00 -0.00000000000E+00 -0.18250000000E+03  0.18250000000E+03  0.00000000000E+00 0.  1.
         25    2    1    2    0    0  0.45552821530E+02 -0.92655161562E+02  0.10382873876E+03  0.19252288415E+03  0.12499846166E+03 0.  0.
         23    2    1    2    0    0 -0.45552821530E+02  0.92655161562E+02 -0.10382873876E+03  0.17247711585E+03  0.91147737140E+02 0.  0.
        -11    1    4    4    0    0  0.16674512756E+02  0.30314437825E+02 -0.70070840156E+02  0.78146830751E+02  0.00000000000E+00 0.  1.
         11    1    4    4    0    0 -0.62227334286E+02  0.62340723737E+02 -0.33757898601E+02  0.94330285096E+02  0.00000000000E+00 0. -1.
        -15    1    3    3    0    0  0.31547633395E+02 -0.45222805052E+02  0.12656146553E+03  0.13806273051E+03  0.17770000000E+01 0. -1.
         15    1    3    3    0    0  0.14005188135E+02 -0.47432356510E+02 -0.22732726777E+02  0.54460153640E+02  0.17770000000E+01 0. -1.
</event>
<event>
 8    1  0.3345745E-006  0.1933752E+03  0.7546771E-02  0.1060113E+00
        -11   -1    0    0    0    0  0.00000000000E+00  0.00000000000E+00  0.18250000000E+03  0.18250000000E+03  0.00000000000E+00 0.  1.
         11   -1    0    0    0    0 -0.00000000000E+00 -0.00000000000E+00 -0.18250000000E+03  0.18250000000E+03  0.00000000000E+00 0. -1.
         25    2    1    2    0    0 -0.10572777901E+03 -0.51255232088E+02 -0.89216794382E+02  0.19337516052E+03  0.12501541599E+03 0.  0.
         23    2    1    2    0    0  0.10572777901E+03  0.51255232088E+02  0.89216794382E+02  0.17162483948E+03  0.87692571272E+02 0.  0.
        -11    1    4    4    0    0  0.78959789621E+02 -0.10101467372E+02  0.51070329411E+02  0.94577304710E+02  0.00000000000E+00 0.  1.
         11    1    4    4    0    0  0.26767989389E+02  0.61356699459E+02  0.38146464971E+02  0.77047534771E+02  0.00000000000E+00 0. -1.
        -15    1    3    3    0    0 -0.70058167122E+02  0.20433912272E+02 -0.86569019910E+02  0.11323888241E+03  0.17770000000E+01 0.  1.
         15    1    3    3    0    0 -0.35669611888E+02 -0.71689144360E+02 -0.26477744720E+01  0.80136278114E+02  0.17770000000E+01 0.  1.
</event>
<event>
 8    1  0.3345745E-006  0.1925382E+03  0.7546771E-02  0.1060734E+00
        -11   -1    0    0    0    0  0.00000000000E+00  0.00000000000E+00  0.18250000000E+03  0.18250000000E+03  0.00000000000E+00 0. -1.
         11   -1    0    0    0    0 -0.00000000000E+00 -0.00000000000E+00 -0.18250000000E+03  0.18250000000E+03  0.00000000000E+00 0.  1.
         25    2    1    2    0    0  0.24638117716E+02 -0.48737180362E+02 -0.13589177284E+03  0.19253820545E+03  0.12498814759E+03 0.  0.
         23    2    1    2    0    0 -0.24638117716E+02  0.48737180362E+02  0.13589177284E+03  0.17246179455E+03  0.91072207959E+02 0.  0.
        -11    1    4    4    0    0 -0.40802962332E+02 -0.90439626407E+01  0.32583461305E+02  0.52993933105E+02  0.00000000000E+00 0.  1.
         11    1    4    4    0    0  0.16164844616E+02  0.57781143003E+02  0.10330831153E+03  0.11946786145E+03  0.00000000000E+00 0. -1.
        -15    1    3    3    0    0  0.55041659092E+02 -0.76640041805E+02 -0.10333620754E+03  0.13994573863E+03  0.17770000000E+01 0.  1.
         15    1    3    3    0    0 -0.30403541376E+02  0.27902861443E+02 -0.32555565297E+02  0.52592466815E+02  0.17770000000E+01 0.  1.
</event>
<event>
 8    1  0.3345745E-006  0.1927788E+03  0.7546771E-02  0.1060555E+00
        -11   -1    0    0    0    0  0.00000000000E+00  0.00000000000E+00  0.18250000000E+03  0.18250000000E+03  0.00000000000E+00 0. -1.
         11   -1    0    0    0    0 -0.00000000000E+00 -0.00000000000E+00 -0.18250000000E+03  0.18250000000E+03  0.00000000000E+00 0.  1.
         25    2    1    2    0    0  0.50622195935E+02  0.10005877604E+03  0.94683890284E+02  0.19277881014E+03  0.12499706067E+03 0.  0.
         23    2    1    2    0    0 -0.50622195935E+02 -0.10005877604E+03 -0.94683890284E+02  0.17222118986E+03  0.90115114009E+02 0.  0.
        -11    1    4    4    0    0  0.44715180642E+00 -0.47040419995E+02 -0.86093607392E+02  0.98107646449E+02  0.00000000000E+00 0.  1.
         11    1    4    4    0    0 -0.51069347741E+02 -0.53018356044E+02 -0.85902828922E+01  0.74113543408E+02  0.00000000000E+00 0. -1.
        -15    1    3    3    0    0 -0.14729198957E+02  0.25910856891E+02  0.88874071086E+02  0.93755426761E+02  0.17770000000E+01 0.  1.
         15    1    3    3    0    0  0.65351394892E+02  0.74147919148E+02  0.58098191983E+01  0.99023383382E+02  0.17770000000E+01 0.  1.
</event>
<event>
 8    1  0.3345745E-006  0.1934697E+03  0.7546771E-02  0.1060043E+00
        -11   -1    0    0    0    0  0.00000000000E+00  0.00000000000E+00  0.18250000000E+03  0.18250000000E+03  0.00000000000E+00 0.  1.
         11   -1    0    0    0    0 -0.00000000000E+00 -0.00000000000E+00 -0.18250000000E+03  0.18250000000E+03  0.00000000000E+00 0. -1.
         25    2    1    2    0    0  0.16249034049E+02 -0.13876054316E+03 -0.47791645067E+02  0.19346968004E+03  0.12501182469E+03 0.  0.
         23    2    1    2    0    0 -0.16249034049E+02  0.13876054316E+03  0.47791645067E+02  0.17153031996E+03  0.87293126196E+02 0.  0.
        -11    1    4    4    0    0 -0.13392610914E+02 -0.49794365133E+01 -0.90718863299E+01  0.16925009207E+02  0.00000000000E+00 0. -1.
         11    1    4    4    0    0 -0.28564231349E+01  0.14373997967E+03  0.56863531397E+02  0.15460531075E+03  0.00000000000E+00 0.  1.
        -15    1    3    3    0    0 -0.35025278258E+02 -0.83165882721E+02 -0.70451497701E+02  0.11449849529E+03  0.17770000000E+01 0.  1.
         15    1    3    3    0    0  0.51274312307E+02 -0.55594660436E+02  0.22659852633E+02  0.78971184757E+02  0.17770000000E+01 0.  1.
</event>
<event>
 8    1  0.3345745E-006  0.1931128E+03  0.7546771E-02  0.1060307E+00
        -11   -1    0    0    0    0  0.00000000000E+00  0.00000000000E+00  0.18250000000E+03  0.18250000000E+03  0.00000000000E+00 0. -1.
         11   -1    0    0    0    0 -0.00000000000E+00 -0.00000000000E+00 -0.18250000000E+03  0.18250000000E+03  0.00000000000E+00 0.  1.
         25    2    1    2    0    0  0.12385555765E+03 -0.79511116956E+02 -0.19811850263E+01  0.19311284382E+03  0.12500571376E+03 0.  0.
         23    2    1    2    0    0 -0.12385555765E+03  0.79511116956E+02  0.19811850263E+01  0.17188715618E+03  0.88764026977E+02 0.  0.
        -11    1    4    4    0    0 -0.13508592574E+03  0.82267951169E+02 -0.52433840726E+01  0.15825206539E+03  0.00000000000E+00 0.  1.
         11    1    4    4    0    0  0.11230368089E+02 -0.27568342130E+01  0.72245690989E+01  0.13635090794E+02  0.00000000000E+00 0. -1.
        -15    1    3    3    0    0  0.26002334629E+02  0.29315007246E+02 -0.22656696600E+02  0.45298727199E+02  0.17770000000E+01 0.  1.
         15    1    3    3    0    0  0.97853223022E+02 -0.10882612420E+03  0.20675511574E+02  0.14781411662E+03  0.17770000000E+01 0.  1.
</event>
<event>
 8    1  0.3345745E-006  0.1922978E+03  0.7546771E-02  0.1060913E+00
        -11   -1    0    0    0    0  0.00000000000E+00  0.00000000000E+00  0.18250000000E+03  0.18250000000E+03  0.00000000000E+00 0.  1.
         11   -1    0    0    0    0 -0.00000000000E+00 -0.00000000000E+00 -0.18250000000E+03  0.18250000000E+03  0.00000000000E+00 0. -1.
         25    2    1    2    0    0 -0.13193744693E+03 -0.52609623974E+02 -0.34294141171E+02  0.19229778742E+03  0.12500835368E+03 0.  0.
         23    2    1    2    0    0  0.13193744693E+03  0.52609623974E+02  0.34294141171E+02  0.17270221258E+03  0.92058153772E+02 0.  0.
        -11    1    4    4    0    0  0.82149341591E+02 -0.39324199656E+01  0.49294692887E+02  0.95885061388E+02  0.00000000000E+00 0.  1.
         11    1    4    4    0    0  0.49788105336E+02  0.56542043939E+02 -0.15000551716E+02  0.76817151194E+02  0.00000000000E+00 0. -1.
        -15    1    3    3    0    0 -0.86749700302E+02 -0.91233489024E+02 -0.50053250758E+01  0.12600504367E+03  0.17770000000E+01 0. -1.
         15    1    3    3    0    0 -0.45187746625E+02  0.38623865050E+02 -0.29288816095E+02  0.66292743748E+02  0.17770000000E+01 0. -1.
</event>
<event>
 8    1  0.3345745E-006  0.1921767E+03  0.7546771E-02  0.1061003E+00
        -11   -1    0    0    0    0  0.00000000000E+00  0.00000000000E+00  0.18250000000E+03  0.18250000000E+03  0.00000000000E+00 0.  1.
         11   -1    0    0    0    0 -0.00000000000E+00 -0.00000000000E+00 -0.18250000000E+03  0.18250000000E+03  0.00000000000E+00 0. -1.
         25    2    1    2    0    0  0.15372607810E+02 -0.11212845661E+03  0.92183103877E+02  0.19217669262E+03  0.12500019478E+03 0.  0.
         23    2    1    2    0    0 -0.15372607810E+02  0.11212845661E+03 -0.92183103877E+02  0.17282330738E+03  0.92526012985E+02 0.  0.
        -11    1    4    4    0    0 -0.25360184316E+02  0.83862335014E+02 -0.13531104801E+02  0.88651683457E+02  0.00000000000E+00 0.  1.
         11    1    4    4    0    0  0.99875765067E+01  0.28266121599E+02 -0.78651999076E+02  0.84171623920E+02  0.00000000000E+00 0. -1.
        -15    1    3    3    0    0  0.38914825441E+01 -0.15033807915E+02  0.93082068882E+02  0.94385318208E+02  0.17770000000E+01 0. -1.
         15    1    3    3    0    0  0.11481125266E+02 -0.97094648697E+02 -0.89896500525E+00  0.97791374415E+02  0.17770000000E+01 0. -1.
</event>
<event>
 8    1  0.3345745E-006  0.1927000E+03  0.7546771E-02  0.1060614E+00
        -11   -1    0    0    0    0  0.00000000000E+00  0.00000000000E+00  0.18250000000E+03  0.18250000000E+03  0.00000000000E+00 0.  1.
         11   -1    0    0    0    0 -0.00000000000E+00 -0.00000000000E+00 -0.18250000000E+03  0.18250000000E+03  0.00000000000E+00 0. -1.
         25    2    1    2    0    0  0.73944204232E+02  0.76184082217E+02  0.10117731252E+03  0.19269997043E+03  0.12499868124E+03 0.  0.
         23    2    1    2    0    0 -0.73944204232E+02 -0.76184082217E+02 -0.10117731252E+03  0.17230002957E+03  0.90436120544E+02 0.  0.
        -11    1    4    4    0    0 -0.51983432668E+02 -0.56571254560E+02 -0.11215729818E+02  0.77642621734E+02  0.00000000000E+00 0.  1.
         11    1    4    4    0    0 -0.21960771564E+02 -0.19612827658E+02 -0.89961582702E+02  0.94657407838E+02  0.00000000000E+00 0. -1.
        -15    1    3    3    0    0  0.68416355424E+02  0.41318771815E+02  0.12620192617E+03  0.14939251150E+03  0.17770000000E+01 0. -1.
         15    1    3    3    0    0  0.55278488073E+01  0.34865310403E+02 -0.25024613647E+02  0.43307458931E+02  0.17770000000E+01 0. -1.
</event>
<event>
 8    1  0.3345745E-006  0.1928154E+03  0.7546771E-02  0.1060528E+00
        -11   -1    0    0    0    0  0.00000000000E+00  0.00000000000E+00  0.18250000000E+03  0.18250000000E+03  0.00000000000E+00 0.  1.
         11   -1    0    0    0    0 -0.00000000000E+00 -0.00000000000E+00 -0.18250000000E+03  0.18250000000E+03  0.00000000000E+00 0. -1.
         25    2    1    2    0    0 -0.38471682163E+02  0.14044795264E+03 -0.18836528875E+02  0.19281539355E+03  0.12496904993E+03 0.  0.
         23    2    1    2    0    0  0.38471682163E+02 -0.14044795264E+03  0.18836528875E+02  0.17218460645E+03  0.89927894165E+02 0.  0.
        -11    1    4    4    0    0 -0.10650983954E+02 -0.15612089042E+02 -0.24738978538E+02  0.31131942480E+02  0.00000000000E+00 0.  1.
         11    1    4    4    0    0  0.49122666118E+02 -0.12483586360E+03  0.43575507413E+02  0.14105266397E+03  0.00000000000E+00 0. -1.
        -15    1    3    3    0    0 -0.10386028723E+02  0.15803057004E+03 -0.19826823284E+02  0.15961764098E+03  0.17770000000E+01 0.  1.
         15    1    3    3    0    0 -0.28085653440E+02 -0.17582617404E+02  0.99029440830E+00  0.33197752574E+02  0.17770000000E+01 0.  1.
</event>
<event>
 8    1  0.3345745E-006  0.1933993E+03  0.7546771E-02  0.1060095E+00
        -11   -1    0    0    0    0  0.00000000000E+00  0.00000000000E+00  0.18250000000E+03  0.18250000000E+03  0.00000000000E+00 0.  1.
         11   -1    0    0    0    0 -0.00000000000E+00 -0.00000000000E+00 -0.18250000000E+03  0.18250000000E+03  0.00000000000E+00 0. -1.
         25    2    1    2    0    0  0.17516841091E+01 -0.86757435969E+02 -0.11936405793E+03  0.19339934485E+03  0.12500242866E+03 0.  0.
         23    2    1    2    0    0 -0.17516841091E+01  0.86757435969E+02  0.11936405793E+03  0.17160065515E+03  0.87573314586E+02 0.  0.
        -11    1    4    4    0    0 -0.33142397326E+02  0.15628714888E+02  0.71386000720E+02  0.80241113703E+02  0.00000000000E+00 0.  1.
         11    1    4    4    0    0  0.31390713216E+02  0.71128721081E+02  0.47978057212E+02  0.91359541443E+02  0.00000000000E+00 0. -1.
        -15    1    3    3    0    0  0.23611551411E+02  0.39295171047E+01 -0.93568204283E+02  0.96597686548E+02  0.17770000000E+01 0. -1.
         15    1    3    3    0    0 -0.21859867302E+02 -0.90686953074E+02 -0.25795853649E+02  0.96801658306E+02  0.17770000000E+01 0. -1.
</event>
<event>
 8    1  0.3345745E-006  0.1923092E+03  0.7546771E-02  0.1060904E+00
        -11   -1    0    0    0    0  0.00000000000E+00  0.00000000000E+00  0.18250000000E+03  0.18250000000E+03  0.00000000000E+00 0. -1.
         11   -1    0    0    0    0 -0.00000000000E+00 -0.00000000000E+00 -0.18250000000E+03  0.18250000000E+03  0.00000000000E+00 0.  1.
         25    2    1    2    0    0  0.74069868950E+02  0.12498047457E+03 -0.15882427475E+02  0.19230917260E+03  0.12499640736E+03 0.  0.
         23    2    1    2    0    0 -0.74069868950E+02 -0.12498047457E+03  0.15882427475E+02  0.17269082740E+03  0.91996770907E+02 0.  0.
        -11    1    4    4    0    0  0.78462643727E+01  0.10362302774E+02 -0.30760334222E+01  0.13356764766E+02  0.00000000000E+00 0. -1.
         11    1    4    4    0    0 -0.81916133323E+02 -0.13534277734E+03  0.18958460898E+02  0.15933406264E+03  0.00000000000E+00 0.  1.
        -15    1    3    3    0    0  0.23799905724E+02 -0.12934194464E+00 -0.48077781212E+02  0.53675720928E+02  0.17770000000E+01 0. -1.
         15    1    3    3    0    0  0.50269963226E+02  0.12510981651E+03  0.32195353737E+02  0.13863345167E+03  0.17770000000E+01 0. -1.
</event>
<event>
 8    1  0.3991547E-006  0.1913763E+03  0.7546771E-02  0.1061601E+00
        -11   -1    0    0    0    0  0.00000000000E+00  0.00000000000E+00  0.18250000000E+03  0.18250000000E+03  0.00000000000E+00 0.  1.
         11   -1    0    0    0    0 -0.00000000000E+00 -0.00000000000E+00 -0.18250000000E+03  0.18250000000E+03  0.00000000000E+00 0. -1.
         25    2    1    2    0    0  0.18596387415E+02 -0.14235459335E+03 -0.19671498349E+02  0.19137634030E+03  0.12500911928E+03 0.  0.
         23    2    1    2    0    0 -0.18596387415E+02  0.14235459335E+03  0.19671498349E+02  0.17362365970E+03  0.95642832914E+02 0.  0.
        -11    1    4    4    0    0 -0.63438735140E+01  0.10662184648E+03  0.56528593851E+02  0.12084678233E+03  0.00000000000E+00 0.  1.
         11    1    4    4    0    0 -0.12252513901E+02  0.35732746878E+02 -0.36857095502E+02  0.52776877372E+02  0.00000000000E+00 0. -1.
        -15    1    3    3    0    0 -0.41263482741E+02 -0.94977797897E+02 -0.42086512055E+02  0.11179395926E+03  0.17770000000E+01 0. -1.
         15    1    3    3    0    0  0.59859870156E+02 -0.47376795456E+02  0.22415013706E+02  0.79582381035E+02  0.17770000000E+01 0. -1.
</event>
<event>
 8    1  0.3345745E-006  0.1939175E+03  0.7546771E-02  0.1059713E+00
        -11   -1    0    0    0    0  0.00000000000E+00  0.00000000000E+00  0.18250000000E+03  0.18250000000E+03  0.00000000000E+00 0.  1.
         11   -1    0    0    0    0 -0.00000000000E+00 -0.00000000000E+00 -0.18250000000E+03  0.18250000000E+03  0.00000000000E+00 0. -1.
         25    2    1    2    0    0 -0.61947221119E+02 -0.12451885561E+03 -0.51346036155E+02  0.19391746163E+03  0.12500065155E+03 0.  0.
         23    2    1    2    0    0  0.61947221119E+02  0.12451885561E+03  0.51346036155E+02  0.17108253837E+03  0.85383932328E+02 0.  0.
        -11    1    4    4    0    0  0.20535738546E+02  0.40383391300E+01 -0.16585510628E+02  0.26704005380E+02  0.00000000000E+00 0. -1.
         11    1    4    4    0    0  0.41411482573E+02  0.12048051648E+03  0.67931546783E+02  0.14437853299E+03  0.00000000000E+00 0.  1.
        -15    1    3    3    0    0 -0.11805874360E+02 -0.29073636943E+02 -0.76923360811E+02  0.83096427131E+02  0.17770000000E+01 0. -1.
         15    1    3    3    0    0 -0.50141346759E+02 -0.95445218668E+02  0.25577324657E+02  0.11082103450E+03  0.17770000000E+01 0. -1.
</event>
<event>
 8    1  0.3345745E-006  0.1920555E+03  0.7546771E-02  0.1061093E+00
        -11   -1    0    0    0    0  0.00000000000E+00  0.00000000000E+00  0.18250000000E+03  0.18250000000E+03  0.00000000000E+00 0.  1.
         11   -1    0    0    0    0 -0.00000000000E+00 -0.00000000000E+00 -0.18250000000E+03  0.18250000000E+03  0.00000000000E+00 0. -1.
         25    2    1    2    0    0  0.14121424879E+03 -0.53600509415E+01 -0.35933924804E+02  0.19205551206E+03  0.12499551414E+03 0.  0.
         23    2    1    2    0    0 -0.14121424879E+03  0.53600509415E+01  0.35933924804E+02  0.17294448794E+03  0.92996530837E+02 0.  0.
        -11    1    4    4    0    0 -0.43458684039E+02 -0.39182761374E+02  0.28971015048E+02  0.65293688212E+02  0.00000000000E+00 0. -1.
         11    1    4    4    0    0 -0.97755564752E+02  0.44542812316E+02  0.69629097561E+01  0.10765079972E+03  0.00000000000E+00 0.  1.
        -15    1    3    3    0    0  0.91222192528E+01  0.44664627904E+02 -0.20302496043E+02  0.49934887048E+02  0.17770000000E+01 0.  1.
         15    1    3    3    0    0  0.13209202954E+03 -0.50024678845E+02 -0.15631428761E+02  0.14212062502E+03  0.17770000000E+01 0.  1.
</event>
<event>
 8    1  0.3345745E-006  0.1927683E+03  0.7546771E-02  0.1060563E+00
        -11   -1    0    0    0    0  0.00000000000E+00  0.00000000000E+00  0.18250000000E+03  0.18250000000E+03  0.00000000000E+00 0.  1.
         11   -1    0    0    0    0 -0.00000000000E+00 -0.00000000000E+00 -0.18250000000E+03  0.18250000000E+03  0.00000000000E+00 0. -1.
         25    2    1    2    0    0  0.26028878407E+02  0.12339889256E+03 -0.75029192467E+02  0.19276830585E+03  0.12500180327E+03 0.  0.
         23    2    1    2    0    0 -0.26028878407E+02 -0.12339889256E+03  0.75029192467E+02  0.17223169415E+03  0.90164225456E+02 0.  0.
        -11    1    4    4    0    0 -0.29968754792E+02 -0.29967272220E+02  0.65793542239E+02  0.78262084488E+02  0.00000000000E+00 0.  1.
         11    1    4    4    0    0  0.39398763847E+01 -0.93431620339E+02  0.92356502279E+01  0.93969609663E+02  0.00000000000E+00 0. -1.
        -15    1    3    3    0    0  0.31950889229E+01  0.14561330890E+03 -0.61892880522E+02  0.15826348508E+03  0.17770000000E+01 0. -1.
         15    1    3    3    0    0  0.22833789484E+02 -0.22214416342E+02 -0.13136311944E+02  0.34504820766E+02  0.17770000000E+01 0. -1.
</event>
<event>
 8    1  0.3345745E-006  0.1927520E+03  0.7546771E-02  0.1060575E+00
        -11   -1    0    0    0    0  0.00000000000E+00  0.00000000000E+00  0.18250000000E+03  0.18250000000E+03  0.00000000000E+00 0. -1.
         11   -1    0    0    0    0 -0.00000000000E+00 -0.00000000000E+00 -0.18250000000E+03  0.18250000000E+03  0.00000000000E+00 0.  1.
         25    2    1    2    0    0 -0.18178936367E+02  0.13762257634E+03 -0.47511064640E+02  0.19275199153E+03  0.12500232690E+03 0.  0.
         23    2    1    2    0    0  0.18178936367E+02 -0.13762257634E+03  0.47511064640E+02  0.17224800847E+03  0.90230969798E+02 0.  0.
        -11    1    4    4    0    0  0.35716207460E+02 -0.93977826830E+02  0.67549112519E+02  0.12112126986E+03  0.00000000000E+00 0.  1.
         11    1    4    4    0    0 -0.17537271093E+02 -0.43644749514E+02 -0.20038047879E+02  0.51126738605E+02  0.00000000000E+00 0. -1.
        -15    1    3    3    0    0 -0.17812851101E+02 -0.19224387129E+02  0.61334986932E+01  0.26975030307E+02  0.17770000000E+01 0.  1.
         15    1    3    3    0    0 -0.36608526637E+00  0.15684696347E+03 -0.53644563333E+02  0.16577696123E+03  0.17770000000E+01 0.  1.
</event>
<event>
 8    1  0.3345745E-006  0.1926349E+03  0.7546771E-02  0.1060662E+00
        -11   -1    0    0    0    0  0.00000000000E+00  0.00000000000E+00  0.18250000000E+03  0.18250000000E+03  0.00000000000E+00 0. -1.
         11   -1    0    0    0    0 -0.00000000000E+00 -0.00000000000E+00 -0.18250000000E+03  0.18250000000E+03  0.00000000000E+00 0.  1.
         25    2    1    2    0    0 -0.22683581235E+02 -0.42814849466E+01  0.14474736766E+03  0.19263493863E+03  0.12499417252E+03 0.  0.
         23    2    1    2    0    0  0.22683581235E+02  0.42814849466E+01 -0.14474736766E+03  0.17236506137E+03  0.90691995040E+02 0.  0.
        -11    1    4    4    0    0  0.40702762523E+02  0.24315180574E+02 -0.13601267898E+03  0.14403954917E+03  0.00000000000E+00 0.  1.
         11    1    4    4    0    0 -0.18019181288E+02 -0.20033695627E+02 -0.87346886867E+01  0.28325512197E+02  0.00000000000E+00 0. -1.
        -15    1    3    3    0    0 -0.54581808068E+02  0.33215295452E+02  0.12334988771E+03  0.13892725489E+03  0.17770000000E+01 0. -1.
         15    1    3    3    0    0  0.31898226833E+02 -0.37496780399E+02  0.21397479953E+02  0.53707683740E+02  0.17770000000E+01 0. -1.
</event>
<event>
 8    1  0.3345745E-006  0.1929935E+03  0.7546771E-02  0.1060396E+00
        -11   -1    0    0    0    0  0.00000000000E+00  0.00000000000E+00  0.18250000000E+03  0.18250000000E+03  0.00000000000E+00 0.  1.
         11   -1    0    0    0    0 -0.00000000000E+00 -0.00000000000E+00 -0.18250000000E+03  0.18250000000E+03  0.00000000000E+00 0. -1.
         25    2    1    2    0    0 -0.14073671619E+03 -0.33110369533E+01  0.42454227677E+02  0.19299348072E+03  0.12500534349E+03 0.  0.
         23    2    1    2    0    0  0.14073671619E+03  0.33110369533E+01 -0.42454227677E+02  0.17200651928E+03  0.89252983013E+02 0.  0.
        -11    1    4    4    0    0  0.14130763616E+03 -0.79231183275E+01 -0.14981738938E+02  0.14232033004E+03  0.00000000000E+00 0.  1.
         11    1    4    4    0    0 -0.57091996014E+00  0.11234155281E+02 -0.27472488739E+02  0.29686189247E+02  0.00000000000E+00 0. -1.
        -15    1    3    3    0    0 -0.10540475115E+03 -0.31955348202E+02  0.78220796510E+02  0.13510350321E+03  0.17770000000E+01 0.  1.
         15    1    3    3    0    0 -0.35331965043E+02  0.28644311249E+02 -0.35766568833E+02  0.57889977507E+02  0.17770000000E+01 0.  1.
</event>
<event>
 8    1  0.3345745E-006  0.1930084E+03  0.7546771E-02  0.1060385E+00
        -11   -1    0    0    0    0  0.00000000000E+00  0.00000000000E+00  0.18250000000E+03  0.18250000000E+03  0.00000000000E+00 0. -1.
         11   -1    0    0    0    0 -0.00000000000E+00 -0.00000000000E+00 -0.18250000000E+03  0.18250000000E+03  0.00000000000E+00 0.  1.
         25    2    1    2    0    0 -0.63518820881E+02 -0.41975715000E+02  0.12581506790E+03  0.19300837599E+03  0.12500480244E+03 0.  0.
         23    2    1    2    0    0  0.63518820881E+02  0.41975715000E+02 -0.12581506790E+03  0.17199162401E+03  0.89191289727E+02 0.  0.
        -11    1    4    4    0    0  0.40380884898E+02  0.33237492061E+02 -0.13564369246E+03  0.14537729550E+03  0.00000000000E+00 0.  1.
         11    1    4    4    0    0  0.23137935982E+02  0.87382229392E+01  0.98286245518E+01  0.26614328514E+02  0.00000000000E+00 0. -1.
        -15    1    3    3    0    0 -0.98879235976E+02 -0.22724685135E+02  0.66585044643E+02  0.12136820226E+03  0.17770000000E+01 0.  1.
         15    1    3    3    0    0  0.35360415095E+02 -0.19251029866E+02  0.59230023261E+02  0.71640173723E+02  0.17770000000E+01 0.  1.
</event>
<event>
 8    1  0.3345745E-006  0.1927785E+03  0.7546771E-02  0.1060555E+00
        -11   -1    0    0    0    0  0.00000000000E+00  0.00000000000E+00  0.18250000000E+03  0.18250000000E+03  0.00000000000E+00 0.  1.
         11   -1    0    0    0    0 -0.00000000000E+00 -0.00000000000E+00 -0.18250000000E+03  0.18250000000E+03  0.00000000000E+00 0. -1.
         25    2    1    2    0    0  0.50910786927E+02  0.13749314034E+03  0.65549355570E+01  0.19277853008E+03  0.12499729042E+03 0.  0.
         23    2    1    2    0    0 -0.50910786927E+02 -0.13749314034E+03 -0.65549355570E+01  0.17222146992E+03  0.90116567055E+02 0.  0.
        -11    1    4    4    0    0 -0.42848010680E+02 -0.56951438406E+02  0.37001014117E+02  0.80302511800E+02  0.00000000000E+00 0.  1.
         11    1    4    4    0    0 -0.80627762477E+01 -0.80541701930E+02 -0.43555949674E+02  0.91918958124E+02  0.00000000000E+00 0. -1.
        -15    1    3    3    0    0  0.47696014371E+02  0.95277346128E+02 -0.53530666471E+02  0.11925339598E+03  0.17770000000E+01 0.  1.
         15    1    3    3    0    0  0.32147725567E+01  0.42215794208E+02  0.60085602028E+02  0.73525134092E+02  0.17770000000E+01 0.  1.
</event>
<event>
 8    1  0.3345745E-006  0.1924439E+03  0.7546771E-02  0.1060804E+00
        -11   -1    0    0    0    0  0.00000000000E+00  0.00000000000E+00  0.18250000000E+03  0.18250000000E+03  0.00000000000E+00 0.  1.
         11   -1    0    0    0    0 -0.00000000000E+00 -0.00000000000E+00 -0.18250000000E+03  0.18250000000E+03  0.00000000000E+00 0. -1.
         25    2    1    2    0    0  0.74877243083E+02 -0.10612523326E+03  0.67379723190E+02  0.19244390389E+03  0.12500184951E+03 0.  0.
         23    2    1    2    0    0 -0.74877243083E+02  0.10612523326E+03 -0.67379723190E+02  0.17255609611E+03  0.91468095765E+02 0.  0.
        -11    1    4    4    0    0  0.11823361728E+02  0.58017739809E+02 -0.18665854599E+02  0.62082720164E+02  0.00000000000E+00 0.  1.
         11    1    4    4    0    0 -0.86700604811E+02  0.48107493451E+02 -0.48713868590E+02  0.11047337595E+03  0.00000000000E+00 0. -1.
        -15    1    3    3    0    0  0.40471414815E+02 -0.11694912756E+03  0.87057875835E+02  0.15131842362E+03  0.17770000000E+01 0. -1.
         15    1    3    3    0    0  0.34405828267E+02  0.10823894296E+02 -0.19678152646E+02  0.41125480265E+02  0.17770000000E+01 0. -1.
</event>
<event>
 8    1  0.3345745E-006  0.1922219E+03  0.7546771E-02  0.1060969E+00
        -11   -1    0    0    0    0  0.00000000000E+00  0.00000000000E+00  0.18250000000E+03  0.18250000000E+03  0.00000000000E+00 0. -1.
         11   -1    0    0    0    0 -0.00000000000E+00 -0.00000000000E+00 -0.18250000000E+03  0.18250000000E+03  0.00000000000E+00 0.  1.
         25    2    1    2    0    0  0.35432909650E+02  0.10839472737E+03 -0.91191701366E+02  0.19222189942E+03  0.12501369609E+03 0.  0.
         23    2    1    2    0    0 -0.35432909650E+02 -0.10839472737E+03  0.91191701366E+02  0.17277810058E+03  0.92365781728E+02 0.  0.
        -11    1    4    4    0    0 -0.15046012318E+01 -0.65576840146E+02 -0.10157969930E+01  0.65601963628E+02  0.00000000000E+00 0. -1.
         11    1    4    4    0    0 -0.33928308418E+02 -0.42817887228E+02  0.92207498359E+02  0.10717613695E+03  0.00000000000E+00 0.  1.
        -15    1    3    3    0    0 -0.25691468032E+02  0.96645631254E+02 -0.28818968041E+02  0.10408707998E+03  0.17770000000E+01 0. -1.
         15    1    3    3    0    0  0.61124377682E+02  0.11749096119E+02 -0.62372733325E+02  0.88134819441E+02  0.17770000000E+01 0. -1.
</event>
<event>
 8    1  0.3345745E-006  0.1923368E+03  0.7546771E-02  0.1060884E+00
        -11   -1    0    0    0    0  0.00000000000E+00  0.00000000000E+00  0.18250000000E+03  0.18250000000E+03  0.00000000000E+00 0.  1.
         11   -1    0    0    0    0 -0.00000000000E+00 -0.00000000000E+00 -0.18250000000E+03  0.18250000000E+03  0.00000000000E+00 0. -1.
         25    2    1    2    0    0  0.11809380252E+03 -0.21870431604E+02 -0.83334097576E+02  0.19233684653E+03  0.12499771494E+03 0.  0.
         23    2    1    2    0    0 -0.11809380252E+03  0.21870431604E+02  0.83334097576E+02  0.17266315347E+03  0.91888686867E+02 0.  0.
        -11    1    4    4    0    0 -0.32132292157E+02  0.46974879049E+02  0.53931613137E+02  0.78407540176E+02  0.00000000000E+00 0.  1.
         11    1    4    4    0    0 -0.85961510368E+02 -0.25104447445E+02  0.29402484440E+02  0.94255613294E+02  0.00000000000E+00 0. -1.
        -15    1    3    3    0    0  0.35457546482E+02 -0.50062175618E+02  0.12550430425E+02  0.62642877193E+02  0.17770000000E+01 0. -1.
         15    1    3    3    0    0  0.82636256043E+02  0.28191744014E+02 -0.95884528001E+02  0.12969396934E+03  0.17770000000E+01 0. -1.
</event>
<event>
 8    1  0.3345745E-006  0.1918833E+03  0.7546771E-02  0.1061222E+00
        -11   -1    0    0    0    0  0.00000000000E+00  0.00000000000E+00  0.18250000000E+03  0.18250000000E+03  0.00000000000E+00 0.  1.
         11   -1    0    0    0    0 -0.00000000000E+00 -0.00000000000E+00 -0.18250000000E+03  0.18250000000E+03  0.00000000000E+00 0. -1.
         25    2    1    2    0    0 -0.14252919169E+03  0.99567817403E+01  0.27934245599E+02  0.19188326187E+03  0.12500062448E+03 0.  0.
         23    2    1    2    0    0  0.14252919169E+03 -0.99567817403E+01 -0.27934245599E+02  0.17311673813E+03  0.93676971332E+02 0.  0.
        -11    1    4    4    0    0  0.18318694586E+01  0.23424307954E+02 -0.15134580255E+02  0.27948335699E+02  0.00000000000E+00 0. -1.
         11    1    4    4    0    0  0.14069732223E+03 -0.33381089694E+02 -0.12799665344E+02  0.14516840243E+03  0.00000000000E+00 0.  1.
        -15    1    3    3    0    0 -0.10875274475E+03  0.12006770581E+02  0.75886895619E+02  0.13316643979E+03  0.17770000000E+01 0.  1.
         15    1    3    3    0    0 -0.33776446942E+02 -0.20499888409E+01 -0.47952650019E+02  0.58716822080E+02  0.17770000000E+01 0.  1.
</event>
<event>
 8    1  0.3345745E-006  0.1921991E+03  0.7546771E-02  0.1060986E+00
        -11   -1    0    0    0    0  0.00000000000E+00  0.00000000000E+00  0.18250000000E+03  0.18250000000E+03  0.00000000000E+00 0.  1.
         11   -1    0    0    0    0 -0.00000000000E+00 -0.00000000000E+00 -0.18250000000E+03  0.18250000000E+03  0.00000000000E+00 0. -1.
         25    2    1    2    0    0 -0.28760277135E+02 -0.11677307796E+03  0.82785593104E+02  0.19219905931E+03  0.12499567471E+03 0.  0.
         23    2    1    2    0    0  0.28760277135E+02  0.11677307796E+03 -0.82785593104E+02  0.17280094069E+03  0.92431625547E+02 0.  0.
        -11    1    4    4    0    0 -0.30110498228E+02  0.14951545895E+02 -0.13025479911E+02  0.36053487419E+02  0.00000000000E+00 0.  1.
         11    1    4    4    0    0  0.58870775363E+02  0.10182153206E+03 -0.69760113194E+02  0.13674745327E+03  0.00000000000E+00 0. -1.
        -15    1    3    3    0    0 -0.12501665457E+02  0.26444915223E+02  0.14354774546E+02  0.32631923965E+02  0.17770000000E+01 0. -1.
         15    1    3    3    0    0 -0.16258611679E+02 -0.14321799318E+03  0.68430818558E+02  0.15956713534E+03  0.17770000000E+01 0. -1.
</event>
<event>
 8    1  0.3345745E-006  0.1923989E+03  0.7546771E-02  0.1060837E+00
        -11   -1    0    0    0    0  0.00000000000E+00  0.00000000000E+00  0.18250000000E+03  0.18250000000E+03  0.00000000000E+00 0. -1.
         11   -1    0    0    0    0 -0.00000000000E+00 -0.00000000000E+00 -0.18250000000E+03  0.18250000000E+03  0.00000000000E+00 0.  1.
         25    2    1    2    0    0  0.48497056630E+02  0.13793235852E+03 -0.38228065442E+01  0.19239890094E+03  0.12500169281E+03 0.  0.
         23    2    1    2    0    0 -0.48497056630E+02 -0.13793235852E+03  0.38228065442E+01  0.17260109906E+03  0.91647288651E+02 0.  0.
        -11    1    4    4    0    0 -0.11748588643E+02 -0.97566263784E+01 -0.31201375462E+02  0.34738263113E+02  0.00000000000E+00 0.  1.
         11    1    4    4    0    0 -0.36748467987E+02 -0.12817573214E+03  0.35024182006E+02  0.13786283594E+03  0.00000000000E+00 0. -1.
        -15    1    3    3    0    0  0.30871597189E+02 -0.12013666247E+02  0.21172708661E+02  0.39355114162E+02  0.17770000000E+01 0. -1.
         15    1    3    3    0    0  0.17625459441E+02  0.14994602477E+03 -0.24995515205E+02  0.15304378678E+03  0.17770000000E+01 0. -1.
</event>
<event>
 8    1  0.3345745E-006  0.1921910E+03  0.7546771E-02  0.1060992E+00
        -11   -1    0    0    0    0  0.00000000000E+00  0.00000000000E+00  0.18250000000E+03  0.18250000000E+03  0.00000000000E+00 0. -1.
         11   -1    0    0    0    0 -0.00000000000E+00 -0.00000000000E+00 -0.18250000000E+03  0.18250000000E+03  0.00000000000E+00 0.  1.
         25    2    1    2    0    0  0.21319588420E+02 -0.44557264213E+02  0.13738328060E+03  0.19219096927E+03  0.12499331277E+03 0.  0.
         23    2    1    2    0    0 -0.21319588420E+02  0.44557264213E+02 -0.13738328060E+03  0.17280903073E+03  0.92460373515E+02 0.  0.
        -11    1    4    4    0    0 -0.53243332554E+02  0.45791222788E+02 -0.11112492983E+03  0.13145508197E+03  0.00000000000E+00 0.  1.
         11    1    4    4    0    0  0.31923744134E+02 -0.12339585750E+01 -0.26258350766E+02  0.41353948762E+02  0.00000000000E+00 0. -1.
        -15    1    3    3    0    0  0.53022213848E+01  0.39809286650E+02  0.15502308919E+02  0.43085637584E+02  0.17770000000E+01 0. -1.
         15    1    3    3    0    0  0.16017367035E+02 -0.84366550863E+02  0.12188097168E+03  0.14910533169E+03  0.17770000000E+01 0. -1.
</event>
<event>
 8    1  0.3345745E-006  0.1920652E+03  0.7546771E-02  0.1061086E+00
        -11   -1    0    0    0    0  0.00000000000E+00  0.00000000000E+00  0.18250000000E+03  0.18250000000E+03  0.00000000000E+00 0. -1.
         11   -1    0    0    0    0 -0.00000000000E+00 -0.00000000000E+00 -0.18250000000E+03  0.18250000000E+03  0.00000000000E+00 0.  1.
         25    2    1    2    0    0  0.12025499366E+03 -0.66961182580E+02  0.48162472470E+02  0.19206524515E+03  0.12499748465E+03 0.  0.
         23    2    1    2    0    0 -0.12025499366E+03  0.66961182580E+02 -0.48162472470E+02  0.17293475485E+03  0.92960971413E+02 0.  0.
        -11    1    4    4    0    0 -0.38824482223E+02  0.12496314630E+02 -0.61777900211E+02  0.74027071087E+02  0.00000000000E+00 0.  1.
         11    1    4    4    0    0 -0.81430511440E+02  0.54464867950E+02  0.13615427741E+02  0.98907683760E+02  0.00000000000E+00 0. -1.
        -15    1    3    3    0    0  0.14228061674E+02 -0.60065604426E+02 -0.21055642037E+02  0.65244251584E+02  0.17770000000E+01 0. -1.
         15    1    3    3    0    0  0.10602693199E+03 -0.68955781540E+01  0.69218114507E+02  0.12682099357E+03  0.17770000000E+01 0. -1.
</event>
<event>
 8    1  0.3345745E-006  0.1925253E+03  0.7546771E-02  0.1060743E+00
        -11   -1    0    0    0    0  0.00000000000E+00  0.00000000000E+00  0.18250000000E+03  0.18250000000E+03  0.00000000000E+00 0.  1.
         11   -1    0    0    0    0 -0.00000000000E+00 -0.00000000000E+00 -0.18250000000E+03  0.18250000000E+03  0.00000000000E+00 0. -1.
         25    2    1    2    0    0 -0.12918080872E+03 -0.42267084534E+01  0.68810835361E+02  0.19252528380E+03  0.12500202971E+03 0.  0.
         23    2    1    2    0    0  0.12918080872E+03  0.42267084534E+01 -0.68810835361E+02  0.17247471620E+03  0.91143020905E+02 0.  0.
        -11    1    4    4    0    0  0.49238445794E+02  0.64970814674E+01  0.19479045030E+02  0.53348568932E+02  0.00000000000E+00 0.  1.
         11    1    4    4    0    0  0.79942362927E+02 -0.22703730140E+01 -0.88289880391E+02  0.11912614727E+03  0.00000000000E+00 0. -1.
        -15    1    3    3    0    0 -0.19320670813E+02 -0.35760618984E+02  0.66779692798E+02  0.78197156533E+02  0.17770000000E+01 0. -1.
         15    1    3    3    0    0 -0.10986013791E+03  0.31533910530E+02  0.20311425636E+01  0.11432812726E+03  0.17770000000E+01 0. -1.
</event>
<event>
 8    1  0.3345745E-006  0.1910971E+03  0.7546771E-02  0.1061810E+00
        -11   -1    0    0    0    0  0.00000000000E+00  0.00000000000E+00  0.18250000000E+03  0.18250000000E+03  0.00000000000E+00 0.  1.
         11   -1    0    0    0    0 -0.00000000000E+00 -0.00000000000E+00 -0.18250000000E+03  0.18250000000E+03  0.00000000000E+00 0. -1.
         25    2    1    2    0    0 -0.76763735766E+02  0.97003146452E+01  0.12208881574E+03  0.19109706980E+03  0.12500257567E+03 0.  0.
         23    2    1    2    0    0  0.76763735766E+02 -0.97003146452E+01 -0.12208881574E+03  0.17390293020E+03  0.96694275787E+02 0.  0.
        -11    1    4    4    0    0  0.81680574069E+02  0.15825400861E+02 -0.49526234943E+02  0.96824622077E+02  0.00000000000E+00 0.  1.
         11    1    4    4    0    0 -0.49168383032E+01 -0.25525715506E+02 -0.72562580800E+02  0.77078308125E+02  0.00000000000E+00 0. -1.
        -15    1    3    3    0    0 -0.58401818298E+02 -0.11681645650E+02 -0.60423461637E+01  0.59890741370E+02  0.17770000000E+01 0.  1.
         15    1    3    3    0    0 -0.18361917468E+02  0.21381960296E+02  0.12813116191E+03  0.13120632843E+03  0.17770000000E+01 0.  1.
</event>
<event>
 8    1  0.3345745E-006  0.1924828E+03  0.7546771E-02  0.1060775E+00
        -11   -1    0    0    0    0  0.00000000000E+00  0.00000000000E+00  0.18250000000E+03  0.18250000000E+03  0.00000000000E+00 0.  1.
         11   -1    0    0    0    0 -0.00000000000E+00 -0.00000000000E+00 -0.18250000000E+03  0.18250000000E+03  0.00000000000E+00 0. -1.
         25    2    1    2    0    0 -0.12884336768E+03 -0.53898424636E+02 -0.43805000174E+02  0.19248282320E+03  0.12500042246E+03 0.  0.
         23    2    1    2    0    0  0.12884336768E+03  0.53898424636E+02  0.43805000174E+02  0.17251717680E+03  0.91310704062E+02 0.  0.
        -11    1    4    4    0    0  0.94660371300E+02  0.60479210886E+02  0.66898373299E+02  0.13074292789E+03  0.00000000000E+00 0.  1.
         11    1    4    4    0    0  0.34182996381E+02 -0.65807862499E+01 -0.23093373124E+02  0.41774248904E+02  0.00000000000E+00 0. -1.
        -15    1    3    3    0    0 -0.48268697711E+02 -0.76654075092E+02 -0.57951599704E+02  0.10755119732E+03  0.17770000000E+01 0.  1.
         15    1    3    3    0    0 -0.80574669970E+02  0.22755650456E+02  0.14146599529E+02  0.84931625886E+02  0.17770000000E+01 0.  1.
</event>
<event>
 8    1  0.3345745E-006  0.1920602E+03  0.7546771E-02  0.1061090E+00
        -11   -1    0    0    0    0  0.00000000000E+00  0.00000000000E+00  0.18250000000E+03  0.18250000000E+03  0.00000000000E+00 0.  1.
         11   -1    0    0    0    0 -0.00000000000E+00 -0.00000000000E+00 -0.18250000000E+03  0.18250000000E+03  0.00000000000E+00 0. -1.
         25    2    1    2    0    0 -0.64895504962E+02 -0.40321050767E+01 -0.13052751038E+03  0.19206024695E+03  0.12498809165E+03 0.  0.
         23    2    1    2    0    0  0.64895504962E+02  0.40321050767E+01  0.13052751038E+03  0.17293975305E+03  0.92967966438E+02 0.  0.
        -11    1    4    4    0    0  0.35526706018E+02 -0.35731864135E+02  0.10683564523E+03  0.11812183561E+03  0.00000000000E+00 0.  1.
         11    1    4    4    0    0  0.29368798944E+02  0.39763969212E+02  0.23691865154E+02  0.54817917449E+02  0.00000000000E+00 0. -1.
        -15    1    3    3    0    0  0.36504575933E+02 -0.98240043355E+01 -0.48355889684E+02  0.61404763019E+02  0.17770000000E+01 0. -1.
         15    1    3    3    0    0 -0.10140008090E+03  0.57918992588E+01 -0.82171620701E+02  0.13065548393E+03  0.17770000000E+01 0. -1.
</event>
<event>
 8    1  0.3345745E-006  0.1925985E+03  0.7546771E-02  0.1060689E+00
        -11   -1    0    0    0    0  0.00000000000E+00  0.00000000000E+00  0.18250000000E+03  0.18250000000E+03  0.00000000000E+00 0.  1.
         11   -1    0    0    0    0 -0.00000000000E+00 -0.00000000000E+00 -0.18250000000E+03  0.18250000000E+03  0.00000000000E+00 0. -1.
         25    2    1    2    0    0 -0.30022118217E+02  0.13992668058E+03  0.31428086130E+02  0.19259852788E+03  0.12500265926E+03 0.  0.
         23    2    1    2    0    0  0.30022118217E+02 -0.13992668058E+03 -0.31428086130E+02  0.17240147212E+03  0.90850093393E+02 0.  0.
        -11    1    4    4    0    0  0.29266839638E+02 -0.13450302466E+03  0.28588442984E+01  0.13768000776E+03  0.00000000000E+00 0.  1.
         11    1    4    4    0    0  0.75527857872E+00 -0.54236559248E+01 -0.34286930428E+02  0.34721464363E+02  0.00000000000E+00 0. -1.
        -15    1    3    3    0    0  0.41337526200E+02  0.98794720878E+02  0.24836042729E+02  0.10995078305E+03  0.17770000000E+01 0.  1.
         15    1    3    3    0    0 -0.71359644416E+02  0.41131959707E+02  0.65920434013E+01  0.82647744832E+02  0.17770000000E+01 0.  1.
</event>
<event>
 8    1  0.3345745E-006  0.1937731E+03  0.7546771E-02  0.1059820E+00
        -11   -1    0    0    0    0  0.00000000000E+00  0.00000000000E+00  0.18250000000E+03  0.18250000000E+03  0.00000000000E+00 0.  1.
         11   -1    0    0    0    0 -0.00000000000E+00 -0.00000000000E+00 -0.18250000000E+03  0.18250000000E+03  0.00000000000E+00 0.  1.
         25    2    1    2    0    0 -0.10340748846E+03  0.89500120694E+02 -0.56749272597E+02  0.19377307021E+03  0.12499657005E+03 0.  0.
         23    2    1    2    0    0  0.10340748846E+03 -0.89500120694E+02  0.56749272597E+02  0.17122692979E+03  0.85993030348E+02 0.  0.
        -11    1    4    4    0    0  0.50321735583E+02 -0.90247610992E+02  0.57259126155E+02  0.11813346643E+03  0.00000000000E+00 0.  1.
         11    1    4    4    0    0  0.53085752882E+02  0.74749029799E+00 -0.50985355838E+00  0.53093463359E+02  0.00000000000E+00 0.  1.
        -15    1    3    3    0    0 -0.94464386892E+02  0.10203371704E+03 -0.83972592082E+02  0.16244677206E+03  0.17770000000E+01 0. -1.
         15    1    3    3    0    0 -0.89431015724E+01 -0.12533596345E+02  0.27223319486E+02  0.31326298152E+02  0.17770000000E+01 0. -1.
</event>
<event>
 8    1  0.3345745E-006  0.1935588E+03  0.7546771E-02  0.1059978E+00
        -11   -1    0    0    0    0  0.00000000000E+00  0.00000000000E+00  0.18250000000E+03  0.18250000000E+03  0.00000000000E+00 0.  1.
         11   -1    0    0    0    0 -0.00000000000E+00 -0.00000000000E+00 -0.18250000000E+03  0.18250000000E+03  0.00000000000E+00 0. -1.
         25    2    1    2    0    0  0.10713662198E+03 -0.32683168558E+02  0.96382680070E+02  0.19355876364E+03  0.12501571377E+03 0.  0.
         23    2    1    2    0    0 -0.10713662198E+03  0.32683168558E+02 -0.96382680070E+02  0.17144123636E+03  0.86925434881E+02 0.  0.
        -11    1    4    4    0    0 -0.74838317560E+02  0.51387227591E+02 -0.98631025082E+02  0.13405036383E+03  0.00000000000E+00 0. -1.
         11    1    4    4    0    0 -0.32298304422E+02 -0.18704059034E+02  0.22483450116E+01  0.37390872525E+02  0.00000000000E+00 0.  1.
        -15    1    3    3    0    0  0.64521266970E+02  0.38221621718E+02  0.13081323127E+02  0.76145682753E+02  0.17770000000E+01 0.  1.
         15    1    3    3    0    0  0.42615355012E+02 -0.70904790275E+02  0.83301356943E+02  0.11741308089E+03  0.17770000000E+01 0.  1.
</event>
<event>
 8    1  0.3345745E-006  0.1924137E+03  0.7546771E-02  0.1060826E+00
        -11   -1    0    0    0    0  0.00000000000E+00  0.00000000000E+00  0.18250000000E+03  0.18250000000E+03  0.00000000000E+00 0. -1.
         11   -1    0    0    0    0 -0.00000000000E+00 -0.00000000000E+00 -0.18250000000E+03  0.18250000000E+03  0.00000000000E+00 0.  1.
         25    2    1    2    0    0  0.98248090404E+02 -0.22066696036E+02  0.10610521684E+03  0.19241372223E+03  0.12500038847E+03 0.  0.
         23    2    1    2    0    0 -0.98248090404E+02  0.22066696036E+02 -0.10610521684E+03  0.17258627777E+03  0.91586461286E+02 0.  0.
        -11    1    4    4    0    0 -0.84807811655E+02  0.54331917515E+02 -0.72498499587E+02  0.12409816526E+03  0.00000000000E+00 0.  1.
         11    1    4    4    0    0 -0.13440278749E+02 -0.32265221479E+02 -0.33606717258E+02  0.48488112510E+02  0.00000000000E+00 0. -1.
        -15    1    3    3    0    0  0.73418010020E+02 -0.45900233374E+02  0.63076804526E+01  0.86833059262E+02  0.17770000000E+01 0. -1.
         15    1    3    3    0    0  0.24830080384E+02  0.23833537337E+02  0.99797536392E+02  0.10558066297E+03  0.17770000000E+01 0. -1.
</event>
<event>
 8    1  0.3345745E-006  0.1914589E+03  0.7546771E-02  0.1061539E+00
        -11   -1    0    0    0    0  0.00000000000E+00  0.00000000000E+00  0.18250000000E+03  0.18250000000E+03  0.00000000000E+00 0.  1.
         11   -1    0    0    0    0 -0.00000000000E+00 -0.00000000000E+00 -0.18250000000E+03  0.18250000000E+03  0.00000000000E+00 0. -1.
         25    2    1    2    0    0 -0.10322544675E+03 -0.99624283060E+02  0.21242379483E+02  0.19145890871E+03  0.12499913762E+03 0.  0.
         23    2    1    2    0    0  0.10322544675E+03  0.99624283060E+02 -0.21242379483E+02  0.17354109129E+03  0.95314117767E+02 0.  0.
        -11    1    4    4    0    0  0.11637412653E+03  0.62542146782E+02 -0.93820631613E+01  0.13244802966E+03  0.00000000000E+00 0. -1.
         11    1    4    4    0    0 -0.13148679779E+02  0.37082136278E+02 -0.11860316322E+02  0.41093061630E+02  0.00000000000E+00 0.  1.
        -15    1    3    3    0    0 -0.12854989379E+03 -0.95934201976E+02  0.32119299459E+02  0.16359478423E+03  0.17770000000E+01 0. -1.
         15    1    3    3    0    0  0.25324447032E+02 -0.36900810849E+01 -0.10876919976E+02  0.27864124481E+02  0.17770000000E+01 0. -1.
</event>
<event>
 8    1  0.3345745E-006  0.1926803E+03  0.7546771E-02  0.1060628E+00
        -11   -1    0    0    0    0  0.00000000000E+00  0.00000000000E+00  0.18250000000E+03  0.18250000000E+03  0.00000000000E+00 0.  1.
         11   -1    0    0    0    0 -0.00000000000E+00 -0.00000000000E+00 -0.18250000000E+03  0.18250000000E+03  0.00000000000E+00 0. -1.
         25    2    1    2    0    0  0.41082899058E+02  0.10721117756E+03 -0.91202189270E+02  0.19268027405E+03  0.12500322993E+03 0.  0.
         23    2    1    2    0    0 -0.41082899058E+02 -0.10721117756E+03  0.91202189270E+02  0.17231972595E+03  0.90521861646E+02 0.  0.
        -11    1    4    4    0    0  0.12630367030E+02 -0.73705995304E+02  0.20755519532E+02  0.77607290289E+02  0.00000000000E+00 0. -1.
         11    1    4    4    0    0 -0.53713266088E+02 -0.33505182254E+02  0.70446669738E+02  0.94712435662E+02  0.00000000000E+00 0.  1.
        -15    1    3    3    0    0 -0.50784383051E+01 -0.77288215275E+01 -0.65490602317E+02  0.66164204360E+02  0.17770000000E+01 0.  1.
         15    1    3    3    0    0  0.46161337363E+02  0.11493999908E+03 -0.25711586953E+02  0.12651606969E+03  0.17770000000E+01 0.  1.
</event>
<event>
 8    1  0.3345745E-006  0.1925460E+03  0.7546771E-02  0.1060728E+00
        -11   -1    0    0    0    0  0.00000000000E+00  0.00000000000E+00  0.18250000000E+03  0.18250000000E+03  0.00000000000E+00 0.  1.
         11   -1    0    0    0    0 -0.00000000000E+00 -0.00000000000E+00 -0.18250000000E+03  0.18250000000E+03  0.00000000000E+00 0. -1.
         25    2    1    2    0    0 -0.66796659877E+01  0.10407306557E+03 -0.10282923638E+03  0.19254600668E+03  0.12499716764E+03 0.  0.
         23    2    1    2    0    0  0.66796659877E+01 -0.10407306557E+03  0.10282923638E+03  0.17245399332E+03  0.91053319771E+02 0.  0.
        -11    1    4    4    0    0 -0.27483625723E+02  0.12976253824E+01  0.17235447379E+02  0.32466816303E+02  0.00000000000E+00 0.  1.
         11    1    4    4    0    0  0.34163291711E+02 -0.10537069096E+03  0.85593789000E+02  0.13998717702E+03  0.00000000000E+00 0. -1.
        -15    1    3    3    0    0  0.48563692353E+02  0.83203904998E+02 -0.90501476161E+02  0.13219302908E+03  0.17770000000E+01 0.  1.
         15    1    3    3    0    0 -0.55243358341E+02  0.20869160576E+02 -0.12327760218E+02  0.60352977598E+02  0.17770000000E+01 0.  1.
</event>
<event>
 8    1  0.3345745E-006  0.1924258E+03  0.7546771E-02  0.1060817E+00
        -11   -1    0    0    0    0  0.00000000000E+00  0.00000000000E+00  0.18250000000E+03  0.18250000000E+03  0.00000000000E+00 0.  1.
         11   -1    0    0    0    0 -0.00000000000E+00 -0.00000000000E+00 -0.18250000000E+03  0.18250000000E+03  0.00000000000E+00 0. -1.
         25    2    1    2    0    0 -0.14314225414E+03  0.28453574933E+02  0.10200735766E+02  0.19242584964E+03  0.12499736698E+03 0.  0.
         23    2    1    2    0    0  0.14314225414E+03 -0.28453574933E+02 -0.10200735766E+02  0.17257415036E+03  0.91533991040E+02 0.  0.
        -11    1    4    4    0    0  0.80807041513E+02 -0.24977001846E+02 -0.50269323244E+02  0.98390210076E+02  0.00000000000E+00 0. -1.
         11    1    4    4    0    0  0.62335212630E+02 -0.34765730870E+01  0.40068587478E+02  0.74183940288E+02  0.00000000000E+00 0.  1.
        -15    1    3    3    0    0 -0.25477298882E+02 -0.43278932477E+02  0.20390579386E+02  0.54231837618E+02  0.17770000000E+01 0.  1.
         15    1    3    3    0    0 -0.11766495526E+03  0.71732507410E+02 -0.10189843620E+02  0.13819401202E+03  0.17770000000E+01 0.  1.
</event>
<event>
 8    1  0.3345745E-006  0.1912684E+03  0.7546771E-02  0.1061682E+00
        -11   -1    0    0    0    0  0.00000000000E+00  0.00000000000E+00  0.18250000000E+03  0.18250000000E+03  0.00000000000E+00 0. -1.
         11   -1    0    0    0    0 -0.00000000000E+00 -0.00000000000E+00 -0.18250000000E+03  0.18250000000E+03  0.00000000000E+00 0.  1.
         25    2    1    2    0    0 -0.11500748580E+03  0.44136655234E+02  0.76043700585E+02  0.19126844132E+03  0.12500482438E+03 0.  0.
         23    2    1    2    0    0  0.11500748580E+03 -0.44136655234E+02 -0.76043700585E+02  0.17373155868E+03  0.96048133542E+02 0.  0.
        -11    1    4    4    0    0  0.93598316749E+02 -0.66997348656E+02 -0.31606884125E+02  0.11936617925E+03  0.00000000000E+00 0. -1.
         11    1    4    4    0    0  0.21409169055E+02  0.22860693422E+02 -0.44436816460E+02  0.54365379429E+02  0.00000000000E+00 0.  1.
        -15    1    3    3    0    0 -0.93440686360E+01  0.22779228085E+02 -0.30805919547E+02  0.39476160641E+02  0.17770000000E+01 0. -1.
         15    1    3    3    0    0 -0.10566341717E+03  0.21357427149E+02  0.10684962013E+03  0.15179228068E+03  0.17770000000E+01 0. -1.
</event>
<event>
 8    1  0.3345745E-006  0.1925928E+03  0.7546771E-02  0.1060693E+00
        -11   -1    0    0    0    0  0.00000000000E+00  0.00000000000E+00  0.18250000000E+03  0.18250000000E+03  0.00000000000E+00 0.  1.
         11   -1    0    0    0    0 -0.00000000000E+00 -0.00000000000E+00 -0.18250000000E+03  0.18250000000E+03  0.00000000000E+00 0. -1.
         25    2    1    2    0    0  0.70572750484E+02  0.12613051773E+03 -0.24120572606E+02  0.19259275329E+03  0.12498298277E+03 0.  0.
         23    2    1    2    0    0 -0.70572750484E+02 -0.12613051773E+03  0.24120572606E+02  0.17240724671E+03  0.90846222175E+02 0.  0.
        -11    1    4    4    0    0 -0.59443838658E+02 -0.26137513472E+02  0.30195508067E+02  0.71613603961E+02  0.00000000000E+00 0.  1.
         11    1    4    4    0    0 -0.11128911826E+02 -0.99993004255E+02 -0.60749354611E+01  0.10079364275E+03  0.00000000000E+00 0. -1.
        -15    1    3    3    0    0  0.95636838260E+02  0.12089932853E+03 -0.43784504861E+02  0.16026007945E+03  0.17770000000E+01 0. -1.
         15    1    3    3    0    0 -0.25064087776E+02  0.52311891940E+01  0.19663932254E+02  0.32332673832E+02  0.17770000000E+01 0. -1.
</event>
<event>
 8    1  0.3345745E-006  0.1917781E+03  0.7546771E-02  0.1061300E+00
        -11   -1    0    0    0    0  0.00000000000E+00  0.00000000000E+00  0.18250000000E+03  0.18250000000E+03  0.00000000000E+00 0. -1.
         11   -1    0    0    0    0 -0.00000000000E+00 -0.00000000000E+00 -0.18250000000E+03  0.18250000000E+03  0.00000000000E+00 0.  1.
         25    2    1    2    0    0 -0.17018102921E+00 -0.13551390510E+03  0.52889090593E+02  0.19177810838E+03  0.12497015448E+03 0.  0.
         23    2    1    2    0    0  0.17018102921E+00  0.13551390510E+03 -0.52889090593E+02  0.17322189162E+03  0.94045310338E+02 0.  0.
        -11    1    4    4    0    0  0.15092501001E+02  0.10512601914E+02 -0.43209748747E+02  0.46961481794E+02  0.00000000000E+00 0.  1.
         11    1    4    4    0    0 -0.14922319972E+02  0.12500130319E+03 -0.96793418459E+01  0.12626040983E+03  0.00000000000E+00 0. -1.
        -15    1    3    3    0    0  0.48412761918E+02 -0.44479442636E+02  0.59056736881E+02  0.88391584633E+02  0.17770000000E+01 0. -1.
         15    1    3    3    0    0 -0.48582942948E+02 -0.91034462466E+02 -0.61676462881E+01  0.10338652374E+03  0.17770000000E+01 0. -1.
</event>
<event>
 8    1  0.3345745E-006  0.1924806E+03  0.7546771E-02  0.1060777E+00
        -11   -1    0    0    0    0  0.00000000000E+00  0.00000000000E+00  0.18250000000E+03  0.18250000000E+03  0.00000000000E+00 0.  1.
         11   -1    0    0    0    0 -0.00000000000E+00 -0.00000000000E+00 -0.18250000000E+03  0.18250000000E+03  0.00000000000E+00 0. -1.
         25    2    1    2    0    0  0.14634151761E+03  0.29335435391E+01  0.29079543843E+00  0.19248062058E+03  0.12499703709E+03 0.  0.
         23    2    1    2    0    0 -0.14634151761E+03 -0.29335435391E+01 -0.29079543843E+00  0.17251937942E+03  0.91314874255E+02 0.  0.
        -11    1    4    4    0    0 -0.90871639632E+02 -0.14830298822E+02 -0.42891427733E+02  0.10157394954E+03  0.00000000000E+00 0. -1.
         11    1    4    4    0    0 -0.55469877980E+02  0.11896755283E+02  0.42600632294E+02  0.70945429883E+02  0.00000000000E+00 0.  1.
        -15    1    3    3    0    0 -0.10187674640E+02  0.42337038700E+01  0.30999759944E+02  0.32952326301E+02  0.17770000000E+01 0. -1.
         15    1    3    3    0    0  0.15652919225E+03 -0.13001603309E+01 -0.30708964506E+02  0.15952829427E+03  0.17770000000E+01 0. -1.
</event>
<event>
 8    1  0.3345745E-006  0.1920871E+03  0.7546771E-02  0.1061070E+00
        -11   -1    0    0    0    0  0.00000000000E+00  0.00000000000E+00  0.18250000000E+03  0.18250000000E+03  0.00000000000E+00 0.  1.
         11   -1    0    0    0    0 -0.00000000000E+00 -0.00000000000E+00 -0.18250000000E+03  0.18250000000E+03  0.00000000000E+00 0. -1.
         25    2    1    2    0    0  0.31717512298E+02  0.14164627297E+03 -0.14453300848E+02  0.19208709211E+03  0.12497554087E+03 0.  0.
         23    2    1    2    0    0 -0.31717512298E+02 -0.14164627297E+03  0.14453300848E+02  0.17291290789E+03  0.92845616902E+02 0.  0.
        -11    1    4    4    0    0  0.31673767833E+02 -0.29434605578E+02  0.71535243666E+01  0.43826892259E+02  0.00000000000E+00 0.  1.
         11    1    4    4    0    0 -0.63391280130E+02 -0.11221166739E+03  0.72997764815E+01  0.12908601564E+03  0.00000000000E+00 0. -1.
        -15    1    3    3    0    0  0.77709883627E+02  0.93844279974E+02 -0.26346271875E+02  0.12467100171E+03  0.17770000000E+01 0.  1.
         15    1    3    3    0    0 -0.45992371330E+02  0.47801992998E+02  0.11892971027E+02  0.67416090393E+02  0.17770000000E+01 0.  1.
</event>
<event>
 8    1  0.3345745E-006  0.1925176E+03  0.7546771E-02  0.1060749E+00
        -11   -1    0    0    0    0  0.00000000000E+00  0.00000000000E+00  0.18250000000E+03  0.18250000000E+03  0.00000000000E+00 0.  1.
         11   -1    0    0    0    0 -0.00000000000E+00 -0.00000000000E+00 -0.18250000000E+03  0.18250000000E+03  0.00000000000E+00 0. -1.
         25    2    1    2    0    0  0.78706265686E+02  0.79072782542E+02  0.94820029812E+02  0.19251763793E+03  0.12500008666E+03 0.  0.
         23    2    1    2    0    0 -0.78706265686E+02 -0.79072782542E+02 -0.94820029812E+02  0.17248236207E+03  0.91170971111E+02 0.  0.
        -11    1    4    4    0    0 -0.20695745419E+02 -0.76017044819E+02 -0.80531859617E+02  0.11266004347E+03  0.00000000000E+00 0.  1.
         11    1    4    4    0    0 -0.58010520267E+02 -0.30557377235E+01 -0.14288170195E+02  0.59822318596E+02  0.00000000000E+00 0. -1.
        -15    1    3    3    0    0 -0.31385329367E+02  0.32570380132E+02  0.11151096621E+02  0.46619451372E+02  0.17770000000E+01 0. -1.
         15    1    3    3    0    0  0.11009159505E+03  0.46502402410E+02  0.83668933191E+02  0.14589818656E+03  0.17770000000E+01 0. -1.
</event>
<event>
 8    1  0.3345745E-006  0.1903183E+03  0.7546771E-02  0.1062396E+00
        -11   -1    0    0    0    0  0.00000000000E+00  0.00000000000E+00  0.18250000000E+03  0.18250000000E+03  0.00000000000E+00 0. -1.
         11   -1    0    0    0    0 -0.00000000000E+00 -0.00000000000E+00 -0.18250000000E+03  0.18250000000E+03  0.00000000000E+00 0.  1.
         25    2    1    2    0    0  0.55676318196E+02  0.34520193434E+02 -0.12768422989E+03  0.19031832353E+03  0.12500522208E+03 0.  0.
         23    2    1    2    0    0 -0.55676318196E+02 -0.34520193434E+02  0.12768422989E+03  0.17468167647E+03  0.99593821932E+02 0.  0.
        -11    1    4    4    0    0  0.84006379222E+01 -0.38845956112E+02  0.94228434015E+02  0.10226718340E+03  0.00000000000E+00 0. -1.
         11    1    4    4    0    0 -0.64076956118E+02  0.43257626782E+01  0.33455795879E+02  0.72414493066E+02  0.00000000000E+00 0.  1.
        -15    1    3    3    0    0  0.20065823480E+02 -0.19385681211E+02  0.16393138852E+02  0.32408866663E+02  0.17770000000E+01 0.  1.
         15    1    3    3    0    0  0.35610494716E+02  0.53905874645E+02 -0.14407736875E+03  0.15790945687E+03  0.17770000000E+01 0.  1.
</event>
<event>
 8    1  0.3345745E-006  0.1936881E+03  0.7546771E-02  0.1059882E+00
        -11   -1    0    0    0    0  0.00000000000E+00  0.00000000000E+00  0.18250000000E+03  0.18250000000E+03  0.00000000000E+00 0.  1.
         11   -1    0    0    0    0 -0.00000000000E+00 -0.00000000000E+00 -0.18250000000E+03  0.18250000000E+03  0.00000000000E+00 0. -1.
         25    2    1    2    0    0 -0.36156511820E+02 -0.14315963666E+03  0.93683607580E+01  0.19368814433E+03  0.12500142461E+03 0.  0.
         23    2    1    2    0    0  0.36156511820E+02  0.14315963666E+03 -0.93683607580E+01  0.17131185567E+03  0.86359775320E+02 0.  0.
        -11    1    4    4    0    0 -0.21445445026E+02  0.17364185732E+02 -0.17569708488E+02  0.32712638457E+02  0.00000000000E+00 0. -1.
         11    1    4    4    0    0  0.57601956846E+02  0.12579545093E+03  0.82013477301E+01  0.13859921721E+03  0.00000000000E+00 0.  1.
        -15    1    3    3    0    0 -0.50705426390E+02 -0.15802576913E+03  0.24683518480E+02  0.16779635809E+03  0.17770000000E+01 0. -1.
         15    1    3    3    0    0  0.14548914570E+02  0.14866132470E+02 -0.15315157722E+02  0.25891786242E+02  0.17770000000E+01 0. -1.
</event>
<event>
 8    1  0.3345745E-006  0.1898649E+03  0.7546771E-02  0.1062739E+00
        -11   -1    0    0    0    0  0.00000000000E+00  0.00000000000E+00  0.18250000000E+03  0.18250000000E+03  0.00000000000E+00 0.  1.
         11   -1    0    0    0    0 -0.00000000000E+00 -0.00000000000E+00 -0.18250000000E+03  0.18250000000E+03  0.00000000000E+00 0. -1.
         25    2    1    2    0    0 -0.10829733945E+03  0.54835276706E+02 -0.75430180194E+02  0.18986486521E+03  0.12499493451E+03 0.  0.
         23    2    1    2    0    0  0.10829733945E+03 -0.54835276706E+02  0.75430180194E+02  0.17513513479E+03  0.10122935369E+03 0.  0.
        -11    1    4    4    0    0  0.36403224678E+02  0.11452129341E+02 -0.15888208342E+02  0.41337406761E+02  0.00000000000E+00 0. -1.
         11    1    4    4    0    0  0.71894114776E+02 -0.66287406047E+02  0.91318388536E+02  0.13379772803E+03  0.00000000000E+00 0.  1.
        -15    1    3    3    0    0 -0.40961595625E+02  0.48967722670E+01  0.32955161685E+02  0.52830210159E+02  0.17770000000E+01 0.  1.
         15    1    3    3    0    0 -0.67335743830E+02  0.49938504439E+02 -0.10838534188E+03  0.13703465505E+03  0.17770000000E+01 0.  1.
</event>
<event>
 8    1  0.3345745E-006  0.1914157E+03  0.7546771E-02  0.1061571E+00
        -11   -1    0    0    0    0  0.00000000000E+00  0.00000000000E+00  0.18250000000E+03  0.18250000000E+03  0.00000000000E+00 0.  1.
         11   -1    0    0    0    0 -0.00000000000E+00 -0.00000000000E+00 -0.18250000000E+03  0.18250000000E+03  0.00000000000E+00 0. -1.
         25    2    1    2    0    0 -0.89745490907E+02  0.26187437534E+02  0.11079845868E+03  0.19141566971E+03  0.12499450045E+03 0.  0.
         23    2    1    2    0    0  0.89745490907E+02 -0.26187437534E+02 -0.11079845868E+03  0.17358433029E+03  0.95473484551E+02 0.  0.
        -11    1    4    4    0    0  0.37751848125E+02  0.93453679621E+01  0.74625038087E+01  0.39600844717E+02  0.00000000000E+00 0.  1.
         11    1    4    4    0    0  0.51993642781E+02 -0.35532805497E+02 -0.11826096249E+03  0.13398348557E+03  0.00000000000E+00 0. -1.
        -15    1    3    3    0    0 -0.36309526674E+02  0.25441754072E+02 -0.21069149880E+02  0.49119562124E+02  0.17770000000E+01 0.  1.
         15    1    3    3    0    0 -0.53435964233E+02  0.74568346224E+00  0.13186760856E+03  0.14229610759E+03  0.17770000000E+01 0.  1.
</event>
<event>
 8    1  0.3345745E-006  0.1914828E+03  0.7546771E-02  0.1061521E+00
        -11   -1    0    0    0    0  0.00000000000E+00  0.00000000000E+00  0.18250000000E+03  0.18250000000E+03  0.00000000000E+00 0.  1.
         11   -1    0    0    0    0 -0.00000000000E+00 -0.00000000000E+00 -0.18250000000E+03  0.18250000000E+03  0.00000000000E+00 0. -1.
         25    2    1    2    0    0  0.20472683443E+02 -0.13549656506E+03  0.47566739873E+02  0.19148280042E+03  0.12499847281E+03 0.  0.
         23    2    1    2    0    0 -0.20472683443E+02  0.13549656506E+03 -0.47566739873E+02  0.17351719958E+03  0.95221709178E+02 0.  0.
        -11    1    4    4    0    0 -0.35760439014E+02  0.12646365420E+03 -0.66728764990E+02  0.14739264876E+03  0.00000000000E+00 0. -1.
         11    1    4    4    0    0  0.15287755571E+02  0.90329108585E+01  0.19162025117E+02  0.26124550820E+02  0.00000000000E+00 0.  1.
        -15    1    3    3    0    0 -0.39184853159E+02 -0.10498126014E+02  0.32767891290E+02  0.52178116059E+02  0.17770000000E+01 0.  1.
         15    1    3    3    0    0  0.59657536602E+02 -0.12499843904E+03  0.14798848584E+02  0.13930468436E+03  0.17770000000E+01 0.  1.
</event>
<event>
 8    1  0.3345745E-006  0.1927558E+03  0.7546771E-02  0.1060572E+00
        -11   -1    0    0    0    0  0.00000000000E+00  0.00000000000E+00  0.18250000000E+03  0.18250000000E+03  0.00000000000E+00 0.  1.
         11   -1    0    0    0    0 -0.00000000000E+00 -0.00000000000E+00 -0.18250000000E+03  0.18250000000E+03  0.00000000000E+00 0. -1.
         25    2    1    2    0    0 -0.10453785657E+03  0.10202905522E+03 -0.14046830875E+02  0.19275582726E+03  0.12497761367E+03 0.  0.
         23    2    1    2    0    0  0.10453785657E+03 -0.10202905522E+03  0.14046830875E+02  0.17224417274E+03  0.90181206577E+02 0.  0.
        -11    1    4    4    0    0  0.66256418752E+02 -0.40023037515E+01  0.75917465594E+01  0.66809924988E+02  0.00000000000E+00 0. -1.
         11    1    4    4    0    0  0.38281437816E+02 -0.98026751472E+02  0.64550843161E+01  0.10543424775E+03  0.00000000000E+00 0.  1.
        -15    1    3    3    0    0 -0.36384496606E+02  0.37270444499E+02 -0.66966884010E+02  0.84856578468E+02  0.17770000000E+01 0. -1.
         15    1    3    3    0    0 -0.68153359962E+02  0.64758610725E+02  0.52920053134E+02  0.10789924879E+03  0.17770000000E+01 0. -1.
</event>
<event>
 8    1  0.3345745E-006  0.1895985E+03  0.7546771E-02  0.1062941E+00
        -11   -1    0    0    0    0  0.00000000000E+00  0.00000000000E+00  0.18250000000E+03  0.18250000000E+03  0.00000000000E+00 0.  1.
         11   -1    0    0    0    0 -0.00000000000E+00 -0.00000000000E+00 -0.18250000000E+03  0.18250000000E+03  0.00000000000E+00 0. -1.
         25    2    1    2    0    0  0.92764087479E+02 -0.10302586721E+03  0.33233571759E+02  0.18959848588E+03  0.12499444114E+03 0.  0.
         23    2    1    2    0    0 -0.92764087479E+02  0.10302586721E+03 -0.33233571759E+02  0.17540151412E+03  0.10218471325E+03 0.  0.
        -11    1    4    4    0    0 -0.28756764273E+02  0.97974778706E+02  0.20713074027E+01  0.10212883564E+03  0.00000000000E+00 0.  1.
         11    1    4    4    0    0 -0.64007323206E+02  0.50510885067E+01 -0.35304879162E+02  0.73272678481E+02  0.00000000000E+00 0. -1.
        -15    1    3    3    0    0  0.10396636456E+03 -0.92002358679E+02 -0.14231346075E+02  0.13956764633E+03  0.17770000000E+01 0.  1.
         15    1    3    3    0    0 -0.11202277082E+02 -0.11023508534E+02  0.47464917834E+02  0.50030839552E+02  0.17770000000E+01 0.  1.
</event>
<event>
 8    1  0.3345745E-006  0.1942122E+03  0.7546771E-02  0.1059496E+00
        -11   -1    0    0    0    0  0.00000000000E+00  0.00000000000E+00  0.18250000000E+03  0.18250000000E+03  0.00000000000E+00 0.  1.
         11   -1    0    0    0    0 -0.00000000000E+00 -0.00000000000E+00 -0.18250000000E+03  0.18250000000E+03  0.00000000000E+00 0.  1.
         25    2    1    2    0    0  0.44479558556E+02 -0.13251924237E+03  0.50529876667E+02  0.19421217517E+03  0.12500127927E+03 0.  0.
         23    2    1    2    0    0 -0.44479558556E+02  0.13251924237E+03 -0.50529876667E+02  0.17078782483E+03  0.84115586839E+02 0.  0.
        -11    1    4    4    0    0 -0.14966708159E+01  0.17976667152E+02  0.22087444474E+02  0.28517639959E+02  0.00000000000E+00 0.  1.
         11    1    4    4    0    0 -0.42982887740E+02  0.11454257521E+03 -0.72617321141E+02  0.14227018488E+03  0.00000000000E+00 0.  1.
        -15    1    3    3    0    0  0.12980794049E+02 -0.20621238334E+01  0.58280745631E+02  0.59770865889E+02  0.17770000000E+01 0. -1.
         15    1    3    3    0    0  0.31498764507E+02 -0.13045711853E+03 -0.77508689636E+01  0.13444130928E+03  0.17770000000E+01 0. -1.
</event>
<event>
 8    1  0.3345745E-006  0.1925612E+03  0.7546771E-02  0.1060717E+00
        -11   -1    0    0    0    0  0.00000000000E+00  0.00000000000E+00  0.18250000000E+03  0.18250000000E+03  0.00000000000E+00 0. -1.
         11   -1    0    0    0    0 -0.00000000000E+00 -0.00000000000E+00 -0.18250000000E+03  0.18250000000E+03  0.00000000000E+00 0.  1.
         25    2    1    2    0    0  0.12981137984E+03 -0.18634880595E+02 -0.65246011045E+02  0.19256122314E+03  0.12499811834E+03 0.  0.
         23    2    1    2    0    0 -0.12981137984E+03  0.18634880595E+02  0.65246011045E+02  0.17243877686E+03  0.90993607997E+02 0.  0.
        -11    1    4    4    0    0  0.55978437401E+00 -0.22753296296E+02  0.11182652257E+02  0.25358974001E+02  0.00000000000E+00 0. -1.
         11    1    4    4    0    0 -0.13037116422E+03  0.41388176891E+02  0.54063358787E+02  0.14707980286E+03  0.00000000000E+00 0.  1.
        -15    1    3    3    0    0  0.40277461327E+02  0.21411000640E+01  0.37211984940E+02  0.54906718647E+02  0.17770000000E+01 0. -1.
         15    1    3    3    0    0  0.89533918516E+02 -0.20775980659E+02 -0.10245799598E+03  0.13765450449E+03  0.17770000000E+01 0. -1.
</event>
<event>
 8    1  0.3345745E-006  0.1932715E+03  0.7546771E-02  0.1060190E+00
        -11   -1    0    0    0    0  0.00000000000E+00  0.00000000000E+00  0.18250000000E+03  0.18250000000E+03  0.00000000000E+00 0. -1.
         11   -1    0    0    0    0 -0.00000000000E+00 -0.00000000000E+00 -0.18250000000E+03  0.18250000000E+03  0.00000000000E+00 0.  1.
         25    2    1    2    0    0  0.27691782823E+02  0.13735736476E+03  0.45759033247E+02  0.19327147930E+03  0.12500438031E+03 0.  0.
         23    2    1    2    0    0 -0.27691782823E+02 -0.13735736476E+03 -0.45759033247E+02  0.17172852070E+03  0.88107407240E+02 0.  0.
        -11    1    4    4    0    0 -0.32109722724E+02 -0.10767815717E+03 -0.70661090883E+02  0.13273511062E+03  0.00000000000E+00 0.  1.
         11    1    4    4    0    0  0.44179399011E+01 -0.29679207581E+02  0.24902057636E+02  0.38993410085E+02  0.00000000000E+00 0. -1.
        -15    1    3    3    0    0  0.11816209219E+02  0.12662094221E+03  0.82637306723E+02  0.15167256838E+03  0.17770000000E+01 0.  1.
         15    1    3    3    0    0  0.15875573603E+02  0.10736422547E+02 -0.36878273476E+02  0.41598910922E+02  0.17770000000E+01 0.  1.
</event>
<event>
 8    1  0.3345745E-006  0.1933058E+03  0.7546771E-02  0.1060165E+00
        -11   -1    0    0    0    0  0.00000000000E+00  0.00000000000E+00  0.18250000000E+03  0.18250000000E+03  0.00000000000E+00 0.  1.
         11   -1    0    0    0    0 -0.00000000000E+00 -0.00000000000E+00 -0.18250000000E+03  0.18250000000E+03  0.00000000000E+00 0. -1.
         25    2    1    2    0    0 -0.61175630408E+02 -0.10947729708E+03 -0.77555509020E+02  0.19330580741E+03  0.12499816746E+03 0.  0.
         23    2    1    2    0    0  0.61175630408E+02  0.10947729708E+03  0.77555509020E+02  0.17169419259E+03  0.87956253081E+02 0.  0.
        -11    1    4    4    0    0  0.28742011349E+02 -0.44650131135E+01  0.35699899329E+02  0.46049129966E+02  0.00000000000E+00 0.  1.
         11    1    4    4    0    0  0.32433619059E+02  0.11394231020E+03  0.41855609691E+02  0.12564506262E+03  0.00000000000E+00 0. -1.
        -15    1    3    3    0    0  0.18353964803E+02 -0.70248854428E+02 -0.75246205316E+02  0.10457972421E+03  0.17770000000E+01 0. -1.
         15    1    3    3    0    0 -0.79529595212E+02 -0.39228442657E+02 -0.23093037039E+01  0.88726083202E+02  0.17770000000E+01 0. -1.
</event>
<event>
 8    1  0.3345745E-006  0.1938807E+03  0.7546771E-02  0.1059740E+00
        -11   -1    0    0    0    0  0.00000000000E+00  0.00000000000E+00  0.18250000000E+03  0.18250000000E+03  0.00000000000E+00 0. -1.
         11   -1    0    0    0    0 -0.00000000000E+00 -0.00000000000E+00 -0.18250000000E+03  0.18250000000E+03  0.00000000000E+00 0.  1.
         25    2    1    2    0    0 -0.52469062359E+02  0.13428573577E+03 -0.34318206660E+02  0.19388065817E+03  0.12500523576E+03 0.  0.
         23    2    1    2    0    0  0.52469062359E+02 -0.13428573577E+03  0.34318206660E+02  0.17111934183E+03  0.85547814155E+02 0.  0.
        -11    1    4    4    0    0 -0.19966336387E+02 -0.57538327263E+02  0.27478626232E+01  0.60966092560E+02  0.00000000000E+00 0.  1.
         11    1    4    4    0    0  0.72435398746E+02 -0.76747408502E+02  0.31570344037E+02  0.11015324928E+03  0.00000000000E+00 0. -1.
        -15    1    3    3    0    0 -0.85020795647E+02  0.10977764698E+03 -0.53497229307E+02  0.14881121847E+03  0.17770000000E+01 0. -1.
         15    1    3    3    0    0  0.32551733289E+02  0.24508088784E+02  0.19179022647E+02  0.45069439697E+02  0.17770000000E+01 0. -1.
</event>
<event>
 8    1  0.3345745E-006  0.1928083E+03  0.7546771E-02  0.1060533E+00
        -11   -1    0    0    0    0  0.00000000000E+00  0.00000000000E+00  0.18250000000E+03  0.18250000000E+03  0.00000000000E+00 0.  1.
         11   -1    0    0    0    0 -0.00000000000E+00 -0.00000000000E+00 -0.18250000000E+03  0.18250000000E+03  0.00000000000E+00 0. -1.
         25    2    1    2    0    0 -0.11166129825E+03  0.27563999998E+02  0.91225955135E+02  0.19280829242E+03  0.12499937245E+03 0.  0.
         23    2    1    2    0    0  0.11166129825E+03 -0.27563999998E+02 -0.91225955135E+02  0.17219170758E+03  0.89998831359E+02 0.  0.
        -11    1    4    4    0    0  0.16489303611E+02 -0.16338934038E+02  0.16143854241E+02  0.28275111473E+02  0.00000000000E+00 0.  1.
         11    1    4    4    0    0  0.95171994641E+02 -0.11225065961E+02 -0.10736980938E+03  0.14391659611E+03  0.00000000000E+00 0. -1.
        -15    1    3    3    0    0  0.25987872581E+02 -0.83197970121E+01  0.18694837581E+02  0.33124661882E+02  0.17770000000E+01 0. -1.
         15    1    3    3    0    0 -0.13764917083E+03  0.35883797010E+02  0.72531117554E+02  0.15968363054E+03  0.17770000000E+01 0. -1.
</event>
<event>
 8    1  0.3345745E-006  0.1915452E+03  0.7546771E-02  0.1061474E+00
        -11   -1    0    0    0    0  0.00000000000E+00  0.00000000000E+00  0.18250000000E+03  0.18250000000E+03  0.00000000000E+00 0.  1.
         11   -1    0    0    0    0 -0.00000000000E+00 -0.00000000000E+00 -0.18250000000E+03  0.18250000000E+03  0.00000000000E+00 0. -1.
         25    2    1    2    0    0  0.61474520567E+00 -0.10943024922E+03  0.95319695792E+02  0.19154522609E+03  0.12501348678E+03 0.  0.
         23    2    1    2    0    0 -0.61474520567E+00  0.10943024922E+03 -0.95319695792E+02  0.17345477391E+03  0.95001878027E+02 0.  0.
        -11    1    4    4    0    0 -0.43680191791E+02  0.44704525008E+02 -0.21087756573E+02  0.65963226030E+02  0.00000000000E+00 0.  1.
         11    1    4    4    0    0  0.43065446585E+02  0.64725724216E+02 -0.74231939219E+02  0.10749154788E+03  0.00000000000E+00 0. -1.
        -15    1    3    3    0    0  0.48583580932E+02 -0.81708225379E+02  0.97349931061E+02  0.13607632137E+03  0.17770000000E+01 0.  1.
         15    1    3    3    0    0 -0.47968835727E+02 -0.27722023844E+02 -0.20302352687E+01  0.55468904724E+02  0.17770000000E+01 0.  1.
</event>
<event>
 8    1  0.3345745E-006  0.1925450E+03  0.7546771E-02  0.1060729E+00
        -11   -1    0    0    0    0  0.00000000000E+00  0.00000000000E+00  0.18250000000E+03  0.18250000000E+03  0.00000000000E+00 0.  1.
         11   -1    0    0    0    0 -0.00000000000E+00 -0.00000000000E+00 -0.18250000000E+03  0.18250000000E+03  0.00000000000E+00 0. -1.
         25    2    1    2    0    0 -0.81409321749E+02 -0.98672658119E+02 -0.71312573887E+02  0.19254500613E+03  0.12499730023E+03 0.  0.
         23    2    1    2    0    0  0.81409321749E+02  0.98672658119E+02  0.71312573887E+02  0.17245499387E+03  0.91057512528E+02 0.  0.
        -11    1    4    4    0    0  0.50176286089E+02  0.64023731062E+02 -0.66370459939E+01  0.81613407014E+02  0.00000000000E+00 0. -1.
         11    1    4    4    0    0  0.31233035659E+02  0.34648927056E+02  0.77949619881E+02  0.90841586854E+02  0.00000000000E+00 0.  1.
        -15    1    3    3    0    0 -0.10287189683E+03 -0.10955397885E+03 -0.75280119024E+02  0.16809210419E+03  0.17770000000E+01 0. -1.
         15    1    3    3    0    0  0.21462575083E+02  0.10881320736E+02  0.39675451366E+01  0.24452901946E+02  0.17770000000E+01 0. -1.
</event>
<event>
 8    1  0.3345745E-006  0.1924543E+03  0.7546771E-02  0.1060796E+00
        -11   -1    0    0    0    0  0.00000000000E+00  0.00000000000E+00  0.18250000000E+03  0.18250000000E+03  0.00000000000E+00 0.  1.
         11   -1    0    0    0    0 -0.00000000000E+00 -0.00000000000E+00 -0.18250000000E+03  0.18250000000E+03  0.00000000000E+00 0. -1.
         25    2    1    2    0    0  0.65348859623E+02 -0.44904839948E+02  0.12299200951E+03  0.19245433938E+03  0.12499888094E+03 0.  0.
         23    2    1    2    0    0 -0.65348859623E+02  0.44904839948E+02 -0.12299200951E+03  0.17254566062E+03  0.91422385077E+02 0.  0.
        -11    1    4    4    0    0 -0.88740546002E+02  0.34220978811E+02 -0.92744112086E+02  0.13284363072E+03  0.00000000000E+00 0. -1.
         11    1    4    4    0    0  0.23391686378E+02  0.10683861137E+02 -0.30247897421E+02  0.39702029908E+02  0.00000000000E+00 0.  1.
        -15    1    3    3    0    0  0.51973144942E+02  0.17906805903E+02  0.11530588658E+03  0.12775158200E+03  0.17770000000E+01 0. -1.
         15    1    3    3    0    0  0.13375714681E+02 -0.62811645851E+02  0.76861229221E+01  0.64702757378E+02  0.17770000000E+01 0. -1.
</event>
<event>
 8    1  0.3345745E-006  0.1927681E+03  0.7546771E-02  0.1060563E+00
        -11   -1    0    0    0    0  0.00000000000E+00  0.00000000000E+00  0.18250000000E+03  0.18250000000E+03  0.00000000000E+00 0. -1.
         11   -1    0    0    0    0 -0.00000000000E+00 -0.00000000000E+00 -0.18250000000E+03  0.18250000000E+03  0.00000000000E+00 0.  1.
         25    2    1    2    0    0 -0.57964893570E+02  0.13106247743E+03  0.31576957093E+02  0.19276808380E+03  0.12500051215E+03 0.  0.
         23    2    1    2    0    0  0.57964893570E+02 -0.13106247743E+03 -0.31576957093E+02  0.17223191620E+03  0.90163334349E+02 0.  0.
        -11    1    4    4    0    0  0.11533440878E+02 -0.15734593012E+02  0.28194665126E+02  0.34286102392E+02  0.00000000000E+00 0. -1.
         11    1    4    4    0    0  0.46431452693E+02 -0.11532788442E+03 -0.59771622218E+02  0.13794581380E+03  0.00000000000E+00 0.  1.
        -15    1    3    3    0    0 -0.47124410567E+02  0.20078136828E+02 -0.35753995150E+02  0.62492779967E+02  0.17770000000E+01 0. -1.
         15    1    3    3    0    0 -0.10840483003E+02  0.11098434060E+03  0.67330952243E+02  0.13027530384E+03  0.17770000000E+01 0. -1.
</event>
<event>
 8    1  0.3345745E-006  0.1924527E+03  0.7546771E-02  0.1060797E+00
        -11   -1    0    0    0    0  0.00000000000E+00  0.00000000000E+00  0.18250000000E+03  0.18250000000E+03  0.00000000000E+00 0. -1.
         11   -1    0    0    0    0 -0.00000000000E+00 -0.00000000000E+00 -0.18250000000E+03  0.18250000000E+03  0.00000000000E+00 0.  1.
         25    2    1    2    0    0 -0.12390623923E+03 -0.61855273834E+02  0.47324716396E+02  0.19245270047E+03  0.12497832658E+03 0.  0.
         23    2    1    2    0    0  0.12390623923E+03  0.61855273834E+02 -0.47324716396E+02  0.17254729953E+03  0.91400824783E+02 0.  0.
        -11    1    4    4    0    0  0.14596435921E+02  0.15008314159E+02  0.25579159651E+02  0.33054482963E+02  0.00000000000E+00 0. -1.
         11    1    4    4    0    0  0.10930980331E+03  0.46846959675E+02 -0.72903876047E+02  0.13949281657E+03  0.00000000000E+00 0.  1.
        -15    1    3    3    0    0 -0.59599834338E+02 -0.66463519945E+02 -0.27726904864E+02  0.93495875412E+02  0.17770000000E+01 0.  1.
         15    1    3    3    0    0 -0.64306404895E+02  0.46082461113E+01  0.75051621260E+02  0.98956825058E+02  0.17770000000E+01 0.  1.
</event>
<event>
 8    1  0.3345745E-006  0.1922068E+03  0.7546771E-02  0.1060980E+00
        -11   -1    0    0    0    0  0.00000000000E+00  0.00000000000E+00  0.18250000000E+03  0.18250000000E+03  0.00000000000E+00 0.  1.
         11   -1    0    0    0    0 -0.00000000000E+00 -0.00000000000E+00 -0.18250000000E+03  0.18250000000E+03  0.00000000000E+00 0. -1.
         25    2    1    2    0    0  0.11539757444E+03 -0.89050566969E+02 -0.84637262072E+01  0.19220681338E+03  0.12500088313E+03 0.  0.
         23    2    1    2    0    0 -0.11539757444E+03  0.89050566969E+02  0.84637262072E+01  0.17279318662E+03  0.92408046278E+02 0.  0.
        -11    1    4    4    0    0 -0.56810133941E+02  0.89540505182E+02  0.30269319984E+02  0.11027749144E+03  0.00000000000E+00 0. -1.
         11    1    4    4    0    0 -0.58587440498E+02 -0.48993821242E+00 -0.21805593776E+02  0.62515695178E+02  0.00000000000E+00 0.  1.
        -15    1    3    3    0    0  0.62185014724E+02 -0.33133711280E+01  0.46078599353E+02  0.77487737945E+02  0.17770000000E+01 0.  1.
         15    1    3    3    0    0  0.53212559716E+02 -0.85737195841E+02 -0.54542325560E+02  0.11471907544E+03  0.17770000000E+01 0.  1.
</event>
<event>
 8    1  0.3345745E-006  0.1932683E+03  0.7546771E-02  0.1060192E+00
        -11   -1    0    0    0    0  0.00000000000E+00  0.00000000000E+00  0.18250000000E+03  0.18250000000E+03  0.00000000000E+00 0.  1.
         11   -1    0    0    0    0 -0.00000000000E+00 -0.00000000000E+00 -0.18250000000E+03  0.18250000000E+03  0.00000000000E+00 0. -1.
         25    2    1    2    0    0 -0.67889607241E+02 -0.36007042336E+02  0.12578570551E+03  0.19326826452E+03  0.12500028996E+03 0.  0.
         23    2    1    2    0    0  0.67889607241E+02  0.36007042336E+02 -0.12578570551E+03  0.17173173548E+03  0.88114921498E+02 0.  0.
        -11    1    4    4    0    0  0.67848895048E+02  0.54773546049E+02 -0.66834904525E+02  0.10986591086E+03  0.00000000000E+00 0.  1.
         11    1    4    4    0    0  0.40712193408E-01 -0.18766503713E+02 -0.58950800986E+02  0.61865824620E+02  0.00000000000E+00 0. -1.
        -15    1    3    3    0    0 -0.51501509481E+02 -0.62894271777E+02  0.13740305017E+03  0.15965854448E+03  0.17770000000E+01 0.  1.
         15    1    3    3    0    0 -0.16388097760E+02  0.26887229441E+02 -0.11617344659E+02  0.33609720039E+02  0.17770000000E+01 0.  1.
</event>
<event>
 8    1  0.3345745E-006  0.1931914E+03  0.7546771E-02  0.1060249E+00
        -11   -1    0    0    0    0  0.00000000000E+00  0.00000000000E+00  0.18250000000E+03  0.18250000000E+03  0.00000000000E+00 0.  1.
         11   -1    0    0    0    0 -0.00000000000E+00 -0.00000000000E+00 -0.18250000000E+03  0.18250000000E+03  0.00000000000E+00 0. -1.
         25    2    1    2    0    0 -0.85476421738E+01  0.14239381179E+03  0.36728554220E+02  0.19319137858E+03  0.12499944896E+03 0.  0.
         23    2    1    2    0    0  0.85476421738E+01 -0.14239381179E+03 -0.36728554220E+02  0.17180862142E+03  0.88431645207E+02 0.  0.
        -11    1    4    4    0    0 -0.33805776752E+02 -0.54277171934E+02  0.77268203968E+01  0.64409204998E+02  0.00000000000E+00 0.  1.
         11    1    4    4    0    0  0.42353418926E+02 -0.88116639860E+02 -0.44455374617E+02  0.10739941642E+03  0.00000000000E+00 0. -1.
        -15    1    3    3    0    0 -0.52812878815E+02  0.48650805014E+02 -0.20587371298E+02  0.74720135059E+02  0.17770000000E+01 0.  1.
         15    1    3    3    0    0  0.44265236642E+02  0.93743006780E+02  0.57315925518E+02  0.11847124352E+03  0.17770000000E+01 0.  1.
</event>
<event>
 8    1  0.3345745E-006  0.1926665E+03  0.7546771E-02  0.1060638E+00
        -11   -1    0    0    0    0  0.00000000000E+00  0.00000000000E+00  0.18250000000E+03  0.18250000000E+03  0.00000000000E+00 0.  1.
         11   -1    0    0    0    0 -0.00000000000E+00 -0.00000000000E+00 -0.18250000000E+03  0.18250000000E+03  0.00000000000E+00 0. -1.
         25    2    1    2    0    0  0.65043287789E+00  0.13523772675E+03 -0.56610480125E+02  0.19266652365E+03  0.12500390824E+03 0.  0.
         23    2    1    2    0    0 -0.65043287789E+00 -0.13523772675E+03  0.56610480125E+02  0.17233347635E+03  0.90578224820E+02 0.  0.
        -11    1    4    4    0    0  0.16959950797E+02 -0.11332492436E+03  0.76605806979E+02  0.13783551093E+03  0.00000000000E+00 0.  1.
         11    1    4    4    0    0 -0.17610383675E+02 -0.21912802398E+02 -0.19995326854E+02  0.34497965420E+02  0.00000000000E+00 0. -1.
        -15    1    3    3    0    0 -0.39093262028E+02  0.10649292349E+03 -0.79473290197E+02  0.13852143326E+03  0.17770000000E+01 0.  1.
         15    1    3    3    0    0  0.39743694906E+02  0.28744803264E+02  0.22862810072E+02  0.54145090386E+02  0.17770000000E+01 0.  1.
</event>
<event>
 8    1  0.3345745E-006  0.1918031E+03  0.7546771E-02  0.1061282E+00
        -11   -1    0    0    0    0  0.00000000000E+00  0.00000000000E+00  0.18250000000E+03  0.18250000000E+03  0.00000000000E+00 0. -1.
         11   -1    0    0    0    0 -0.00000000000E+00 -0.00000000000E+00 -0.18250000000E+03  0.18250000000E+03  0.00000000000E+00 0.  1.
         25    2    1    2    0    0 -0.12754306931E+03  0.69546695155E+02 -0.77476077855E+01  0.19180308229E+03  0.12499767842E+03 0.  0.
         23    2    1    2    0    0  0.12754306931E+03 -0.69546695155E+02  0.77476077855E+01  0.17319691771E+03  0.93984943171E+02 0.  0.
        -11    1    4    4    0    0  0.10287171509E+03 -0.90092615015E+02 -0.88936950360E+01  0.13703418134E+03  0.00000000000E+00 0. -1.
         11    1    4    4    0    0  0.24671354223E+02  0.20545919860E+02  0.16641302821E+02  0.36162736369E+02  0.00000000000E+00 0.  1.
        -15    1    3    3    0    0 -0.43818100811E+02  0.92348439182E+00 -0.57771123403E+02  0.72536468141E+02  0.17770000000E+01 0.  1.
         15    1    3    3    0    0 -0.83724968500E+02  0.68623210764E+02  0.50023515618E+02  0.11926661414E+03  0.17770000000E+01 0.  1.
</event>
<event>
 8    1  0.3345745E-006  0.1926814E+03  0.7546771E-02  0.1060627E+00
        -11   -1    0    0    0    0  0.00000000000E+00  0.00000000000E+00  0.18250000000E+03  0.18250000000E+03  0.00000000000E+00 0.  1.
         11   -1    0    0    0    0 -0.00000000000E+00 -0.00000000000E+00 -0.18250000000E+03  0.18250000000E+03  0.00000000000E+00 0. -1.
         25    2    1    2    0    0  0.86162683454E+02  0.87225700103E+02  0.80426599558E+02  0.19268141893E+03  0.12500144202E+03 0.  0.
         23    2    1    2    0    0 -0.86162683454E+02 -0.87225700103E+02 -0.80426599558E+02  0.17231858107E+03  0.90514776070E+02 0.  0.
        -11    1    4    4    0    0 -0.38969861068E+02 -0.96480595036E+02 -0.59571184476E+02  0.11989946334E+03  0.00000000000E+00 0.  1.
         11    1    4    4    0    0 -0.47192822386E+02  0.92548949328E+01 -0.20855415082E+02  0.52419117726E+02  0.00000000000E+00 0. -1.
        -15    1    3    3    0    0  0.54491113186E+02  0.11735025275E+03  0.47158559356E+02  0.13772236814E+03  0.17770000000E+01 0.  1.
         15    1    3    3    0    0  0.31671570269E+02 -0.30124552649E+02  0.33268040202E+02  0.54959050788E+02  0.17770000000E+01 0.  1.
</event>
<event>
 8    1  0.3345745E-006  0.1918506E+03  0.7546771E-02  0.1061246E+00
        -11   -1    0    0    0    0  0.00000000000E+00  0.00000000000E+00  0.18250000000E+03  0.18250000000E+03  0.00000000000E+00 0.  1.
         11   -1    0    0    0    0 -0.00000000000E+00 -0.00000000000E+00 -0.18250000000E+03  0.18250000000E+03  0.00000000000E+00 0. -1.
         25    2    1    2    0    0  0.70451579908E+02 -0.79861071803E+02 -0.99199341708E+02  0.19185063967E+03  0.12499977058E+03 0.  0.
         23    2    1    2    0    0 -0.70451579908E+02  0.79861071803E+02  0.99199341708E+02  0.17314936033E+03  0.93802855427E+02 0.  0.
        -11    1    4    4    0    0 -0.42165465017E+02  0.47979653791E+02  0.11175192519E+03  0.12871855500E+03  0.00000000000E+00 0.  1.
         11    1    4    4    0    0 -0.28286114890E+02  0.31881418011E+02 -0.12552583482E+02  0.44430805328E+02  0.00000000000E+00 0. -1.
        -15    1    3    3    0    0  0.51187354448E+02 -0.11399783034E+03 -0.75776390812E+02  0.14615358261E+03  0.17770000000E+01 0. -1.
         15    1    3    3    0    0  0.19264225460E+02  0.34136758537E+02 -0.23422950896E+02  0.45697057057E+02  0.17770000000E+01 0. -1.
</event>
<event>
 8    1  0.3345745E-006  0.1934528E+03  0.7546771E-02  0.1060056E+00
        -11   -1    0    0    0    0  0.00000000000E+00  0.00000000000E+00  0.18250000000E+03  0.18250000000E+03  0.00000000000E+00 0. -1.
         11   -1    0    0    0    0 -0.00000000000E+00 -0.00000000000E+00 -0.18250000000E+03  0.18250000000E+03  0.00000000000E+00 0.  1.
         25    2    1    2    0    0 -0.34477675398E+02 -0.13631825564E+03 -0.45041092266E+02  0.19345281037E+03  0.12499565163E+03 0.  0.
         23    2    1    2    0    0  0.34477675398E+02  0.13631825564E+03  0.45041092266E+02  0.17154718963E+03  0.87340490921E+02 0.  0.
        -11    1    4    4    0    0  0.78388116616E+01  0.13410347577E+03  0.21727722892E+02  0.13607822428E+03  0.00000000000E+00 0.  1.
         11    1    4    4    0    0  0.26638863737E+02  0.22147798730E+01  0.23313369374E+02  0.35468965345E+02  0.00000000000E+00 0. -1.
        -15    1    3    3    0    0  0.42408187183E+02 -0.85152176183E+02 -0.15006980286E+02  0.96320894074E+02  0.17770000000E+01 0. -1.
         15    1    3    3    0    0 -0.76885862582E+02 -0.51166079460E+02 -0.30034111980E+02  0.97131916298E+02  0.17770000000E+01 0. -1.
</event>
<event>
 8    1  0.3345745E-006  0.1925027E+03  0.7546771E-02  0.1060760E+00
        -11   -1    0    0    0    0  0.00000000000E+00  0.00000000000E+00  0.18250000000E+03  0.18250000000E+03  0.00000000000E+00 0. -1.
         11   -1    0    0    0    0 -0.00000000000E+00 -0.00000000000E+00 -0.18250000000E+03  0.18250000000E+03  0.00000000000E+00 0.  1.
         25    2    1    2    0    0 -0.14478065248E+03 -0.15403642622E+02  0.15259387749E+02  0.19250265734E+03  0.12500285849E+03 0.  0.
         23    2    1    2    0    0  0.14478065248E+03  0.15403642622E+02 -0.15259387749E+02  0.17249734266E+03  0.91234723500E+02 0.  0.
        -11    1    4    4    0    0  0.62070755792E+02 -0.24074321691E+02  0.26661990290E+02  0.71716200511E+02  0.00000000000E+00 0. -1.
         11    1    4    4    0    0  0.82709896684E+02  0.39477964313E+02 -0.41921378039E+02  0.10078114215E+03  0.00000000000E+00 0.  1.
        -15    1    3    3    0    0 -0.77592296808E+02  0.54059242756E+02 -0.40514579409E+00  0.94584819730E+02  0.17770000000E+01 0. -1.
         15    1    3    3    0    0 -0.67188355669E+02 -0.69462885378E+02  0.15664533543E+02  0.97917837612E+02  0.17770000000E+01 0. -1.
</event>
<event>
 8    1  0.3345745E-006  0.1923534E+03  0.7546771E-02  0.1060871E+00
        -11   -1    0    0    0    0  0.00000000000E+00  0.00000000000E+00  0.18250000000E+03  0.18250000000E+03  0.00000000000E+00 0.  1.
         11   -1    0    0    0    0 -0.00000000000E+00 -0.00000000000E+00 -0.18250000000E+03  0.18250000000E+03  0.00000000000E+00 0. -1.
         25    2    1    2    0    0 -0.92292068985E+02 -0.91457609607E+02  0.67019751961E+02  0.19235342957E+03  0.12500349740E+03 0.  0.
         23    2    1    2    0    0  0.92292068985E+02  0.91457609607E+02 -0.67019751961E+02  0.17264657043E+03  0.91830663585E+02 0.  0.
        -11    1    4    4    0    0  0.12313225106E+02  0.75898840890E+02 -0.24246135955E+02  0.80623350648E+02  0.00000000000E+00 0.  1.
         11    1    4    4    0    0  0.79978843879E+02  0.15558768718E+02 -0.42773616006E+02  0.92023219779E+02  0.00000000000E+00 0. -1.
        -15    1    3    3    0    0 -0.78553641221E+02 -0.36761010655E+02  0.95610911467E+02  0.12909938255E+03  0.17770000000E+01 0. -1.
         15    1    3    3    0    0 -0.13738427765E+02 -0.54696598952E+02 -0.28591159506E+02  0.63254047027E+02  0.17770000000E+01 0. -1.
</event>
<event>
 8    1  0.3345745E-006  0.1927861E+03  0.7546771E-02  0.1060550E+00
        -11   -1    0    0    0    0  0.00000000000E+00  0.00000000000E+00  0.18250000000E+03  0.18250000000E+03  0.00000000000E+00 0. -1.
         11   -1    0    0    0    0 -0.00000000000E+00 -0.00000000000E+00 -0.18250000000E+03  0.18250000000E+03  0.00000000000E+00 0.  1.
         25    2    1    2    0    0  0.12109725599E+02  0.12074821226E+03  0.82547309036E+02  0.19278608872E+03  0.12500256620E+03 0.  0.
         23    2    1    2    0    0 -0.12109725599E+02 -0.12074821226E+03 -0.82547309036E+02  0.17221391128E+03  0.90093267176E+02 0.  0.
        -11    1    4    4    0    0  0.25329662323E+02 -0.10896642632E+03 -0.62324580850E+02  0.12806102934E+03  0.00000000000E+00 0. -1.
         11    1    4    4    0    0 -0.37439387922E+02 -0.11781785943E+02 -0.20222728186E+02  0.44152881936E+02  0.00000000000E+00 0.  1.
        -15    1    3    3    0    0 -0.39270839441E+02  0.52702930811E+02  0.85007176467E+02  0.10746709043E+03  0.17770000000E+01 0. -1.
         15    1    3    3    0    0  0.51380565040E+02  0.68045281452E+02 -0.24598674308E+01  0.85318998286E+02  0.17770000000E+01 0. -1.
</event>
<event>
 8    1  0.3345745E-006  0.1930135E+03  0.7546771E-02  0.1060381E+00
        -11   -1    0    0    0    0  0.00000000000E+00  0.00000000000E+00  0.18250000000E+03  0.18250000000E+03  0.00000000000E+00 0. -1.
         11   -1    0    0    0    0 -0.00000000000E+00 -0.00000000000E+00 -0.18250000000E+03  0.18250000000E+03  0.00000000000E+00 0.  1.
         25    2    1    2    0    0 -0.11967311080E+03 -0.81985728239E+02 -0.24210454593E+02  0.19301351604E+03  0.12499903271E+03 0.  0.
         23    2    1    2    0    0  0.11967311080E+03  0.81985728239E+02  0.24210454593E+02  0.17198648396E+03  0.89162163894E+02 0.  0.
        -11    1    4    4    0    0  0.18105741200E+02 -0.45309641025E+01 -0.23751242804E+02  0.30207102391E+02  0.00000000000E+00 0.  1.
         11    1    4    4    0    0  0.10156736960E+03  0.86516692341E+02  0.47961697397E+02  0.14177938157E+03  0.00000000000E+00 0. -1.
        -15    1    3    3    0    0 -0.73439352204E+02 -0.11110590569E+03 -0.34019986955E+02  0.13747137147E+03  0.17770000000E+01 0. -1.
         15    1    3    3    0    0 -0.46233758599E+02  0.29120177455E+02  0.98095323623E+01  0.55542144569E+02  0.17770000000E+01 0. -1.
</event>
<event>
 8    1  0.3345745E-006  0.1945675E+03  0.7546771E-02  0.1059235E+00
        -11   -1    0    0    0    0  0.00000000000E+00  0.00000000000E+00  0.18250000000E+03  0.18250000000E+03  0.00000000000E+00 0.  1.
         11   -1    0    0    0    0 -0.00000000000E+00 -0.00000000000E+00 -0.18250000000E+03  0.18250000000E+03  0.00000000000E+00 0. -1.
         25    2    1    2    0    0  0.78205886192E+02 -0.12676201748E+03  0.70232124807E+01  0.19456753742E+03  0.12498972515E+03 0.  0.
         23    2    1    2    0    0 -0.78205886192E+02  0.12676201748E+03 -0.70232124807E+01  0.17043246258E+03  0.82541680834E+02 0.  0.
        -11    1    4    4    0    0 -0.56622060405E+02  0.29794303842E+02  0.20783308656E+02  0.67273354195E+02  0.00000000000E+00 0.  1.
         11    1    4    4    0    0 -0.21583825787E+02  0.96967713642E+02 -0.27806521136E+02  0.10315910838E+03  0.00000000000E+00 0. -1.
        -15    1    3    3    0    0  0.98658679914E+02 -0.77759892851E+02  0.40228869831E+02  0.13191533556E+03  0.17770000000E+01 0.  1.
         15    1    3    3    0    0 -0.20452793722E+02 -0.49002124632E+02 -0.33205657350E+02  0.62652201865E+02  0.17770000000E+01 0.  1.
</event>
<event>
 8    1  0.3345745E-006  0.1925935E+03  0.7546771E-02  0.1060693E+00
        -11   -1    0    0    0    0  0.00000000000E+00  0.00000000000E+00  0.18250000000E+03  0.18250000000E+03  0.00000000000E+00 0.  1.
         11   -1    0    0    0    0 -0.00000000000E+00 -0.00000000000E+00 -0.18250000000E+03  0.18250000000E+03  0.00000000000E+00 0. -1.
         25    2    1    2    0    0 -0.75023537986E+02 -0.84447528384E+02 -0.93304525799E+02  0.19259349714E+03  0.12500641704E+03 0.  0.
         23    2    1    2    0    0  0.75023537986E+02  0.84447528384E+02  0.93304525799E+02  0.17240650286E+03  0.90875471902E+02 0.  0.
        -11    1    4    4    0    0  0.54400519435E+02  0.45081344480E+02  0.17933983076E+01  0.70675033869E+02  0.00000000000E+00 0. -1.
         11    1    4    4    0    0  0.20623018552E+02  0.39366183903E+02  0.91511127491E+02  0.10173146900E+03  0.00000000000E+00 0.  1.
        -15    1    3    3    0    0 -0.51595021803E+02 -0.11712887013E+03 -0.66615703877E+02  0.14429839994E+03  0.17770000000E+01 0.  1.
         15    1    3    3    0    0 -0.23428516184E+02  0.32681341745E+02 -0.26688821922E+02  0.48295097198E+02  0.17770000000E+01 0.  1.
</event>
<event>
 8    1  0.3345745E-006  0.1933735E+03  0.7546771E-02  0.1060115E+00
        -11   -1    0    0    0    0  0.00000000000E+00  0.00000000000E+00  0.18250000000E+03  0.18250000000E+03  0.00000000000E+00 0.  1.
         11   -1    0    0    0    0 -0.00000000000E+00 -0.00000000000E+00 -0.18250000000E+03  0.18250000000E+03  0.00000000000E+00 0. -1.
         25    2    1    2    0    0 -0.72564602384E+02 -0.11358092560E+02 -0.12795294904E+03  0.19337351289E+03  0.12500692195E+03 0.  0.
         23    2    1    2    0    0  0.72564602384E+02  0.11358092560E+02  0.12795294904E+03  0.17162648711E+03  0.87687320202E+02 0.  0.
        -11    1    4    4    0    0  0.55699470475E+02 -0.33630685685E+02  0.60764918869E+02  0.89027127304E+02  0.00000000000E+00 0. -1.
         11    1    4    4    0    0  0.16865131909E+02  0.44988778245E+02  0.67188030167E+02  0.82599359804E+02  0.00000000000E+00 0.  1.
        -15    1    3    3    0    0  0.55389166729E+00 -0.56461606363E+02 -0.33484125249E+02  0.65670116200E+02  0.17770000000E+01 0. -1.
         15    1    3    3    0    0 -0.73118494051E+02  0.45103513803E+02 -0.94468823787E+02  0.12770339669E+03  0.17770000000E+01 0. -1.
</event>
<event>
 8    1  0.3345745E-006  0.1932804E+03  0.7546771E-02  0.1060183E+00
        -11   -1    0    0    0    0  0.00000000000E+00  0.00000000000E+00  0.18250000000E+03  0.18250000000E+03  0.00000000000E+00 0. -1.
         11   -1    0    0    0    0 -0.00000000000E+00 -0.00000000000E+00 -0.18250000000E+03  0.18250000000E+03  0.00000000000E+00 0.  1.
         25    2    1    2    0    0 -0.13629856704E+03 -0.35088854998E+01 -0.56043655339E+02  0.19328040096E+03  0.12500724155E+03 0.  0.
         23    2    1    2    0    0  0.13629856704E+03  0.35088854998E+01  0.56043655339E+02  0.17171959904E+03  0.88074501052E+02 0.  0.
        -11    1    4    4    0    0  0.22606204076E+01 -0.22084606074E+02  0.21613399828E+02  0.30983532436E+02  0.00000000000E+00 0. -1.
         11    1    4    4    0    0  0.13403794663E+03  0.25593491573E+02  0.34430255511E+02  0.14073606660E+03  0.00000000000E+00 0.  1.
        -15    1    3    3    0    0 -0.14321014595E+03  0.31440787273E+02 -0.31487283286E+02  0.14997425028E+03  0.17770000000E+01 0.  1.
         15    1    3    3    0    0  0.69115789158E+01 -0.34949672773E+02 -0.24556372053E+02  0.43306150689E+02  0.17770000000E+01 0.  1.
</event>
<event>
 8    1  0.3345745E-006  0.1927192E+03  0.7546771E-02  0.1060599E+00
        -11   -1    0    0    0    0  0.00000000000E+00  0.00000000000E+00  0.18250000000E+03  0.18250000000E+03  0.00000000000E+00 0.  1.
         11   -1    0    0    0    0 -0.00000000000E+00 -0.00000000000E+00 -0.18250000000E+03  0.18250000000E+03  0.00000000000E+00 0. -1.
         25    2    1    2    0    0 -0.12032058632E+03 -0.79604222305E+02 -0.26587261824E+02  0.19271924579E+03  0.12497979639E+03 0.  0.
         23    2    1    2    0    0  0.12032058632E+03  0.79604222305E+02  0.26587261824E+02  0.17228075421E+03  0.90332165258E+02 0.  0.
        -11    1    4    4    0    0  0.74359544707E+02  0.56614201924E+02 -0.27749680868E+02  0.97491304929E+02  0.00000000000E+00 0. -1.
         11    1    4    4    0    0  0.45961041610E+02  0.22990020381E+02  0.54336942692E+02  0.74789449283E+02  0.00000000000E+00 0.  1.
        -15    1    3    3    0    0 -0.98364838674E+02 -0.83890664034E+02  0.29234198587E+02  0.13255595458E+03  0.17770000000E+01 0. -1.
         15    1    3    3    0    0 -0.21955747643E+02  0.42864417286E+01 -0.55821460411E+02  0.60163291205E+02  0.17770000000E+01 0. -1.
</event>
<event>
 8    1  0.3345745E-006  0.1916778E+03  0.7546771E-02  0.1061375E+00
        -11   -1    0    0    0    0  0.00000000000E+00  0.00000000000E+00  0.18250000000E+03  0.18250000000E+03  0.00000000000E+00 0.  1.
         11   -1    0    0    0    0 -0.00000000000E+00 -0.00000000000E+00 -0.18250000000E+03  0.18250000000E+03  0.00000000000E+00 0. -1.
         25    2    1    2    0    0 -0.14589663930E+02  0.13966812140E+03 -0.37361273912E+02  0.19167784366E+03  0.12499795411E+03 0.  0.
         23    2    1    2    0    0  0.14589663930E+02 -0.13966812140E+03  0.37361273912E+02  0.17332215634E+03  0.94470432732E+02 0.  0.
        -11    1    4    4    0    0 -0.30281819386E+02 -0.22781936605E+02  0.29224748242E+02  0.47854896621E+02  0.00000000000E+00 0.  1.
         11    1    4    4    0    0  0.44871483316E+02 -0.11688618480E+03  0.81365256703E+01  0.12546725972E+03  0.00000000000E+00 0. -1.
        -15    1    3    3    0    0 -0.66639749150E+02  0.10345468461E+03 -0.36000518664E+02  0.12822996143E+03  0.17770000000E+01 0. -1.
         15    1    3    3    0    0  0.52050085220E+02  0.36213436793E+02 -0.13607552480E+01  0.63447882231E+02  0.17770000000E+01 0. -1.
</event>
<event>
 8    1  0.3345745E-006  0.1927316E+03  0.7546771E-02  0.1060590E+00
        -11   -1    0    0    0    0  0.00000000000E+00  0.00000000000E+00  0.18250000000E+03  0.18250000000E+03  0.00000000000E+00 0.  1.
         11   -1    0    0    0    0 -0.00000000000E+00 -0.00000000000E+00 -0.18250000000E+03  0.18250000000E+03  0.00000000000E+00 0. -1.
         25    2    1    2    0    0  0.68104591841E+02 -0.12819525299E+03  0.21194695241E+02  0.19273164919E+03  0.12499606063E+03 0.  0.
         23    2    1    2    0    0 -0.68104591841E+02  0.12819525299E+03 -0.21194695241E+02  0.17226835081E+03  0.90304547303E+02 0.  0.
        -11    1    4    4    0    0  0.11656437331E+02  0.59778715240E+02  0.11981025031E+02  0.62071831678E+02  0.00000000000E+00 0. -1.
         11    1    4    4    0    0 -0.79761029172E+02  0.68416537754E+02 -0.33175720272E+02  0.11019651913E+03  0.00000000000E+00 0.  1.
        -15    1    3    3    0    0 -0.29777792626E+02 -0.65815207113E+02 -0.89118493872E+01  0.72807535390E+02  0.17770000000E+01 0.  1.
         15    1    3    3    0    0  0.97882384467E+02 -0.62380045881E+02  0.30106544628E+02  0.11992411380E+03  0.17770000000E+01 0.  1.
</event>
<event>
 8    1  0.3345745E-006  0.1925710E+03  0.7546771E-02  0.1060709E+00
        -11   -1    0    0    0    0  0.00000000000E+00  0.00000000000E+00  0.18250000000E+03  0.18250000000E+03  0.00000000000E+00 0. -1.
         11   -1    0    0    0    0 -0.00000000000E+00 -0.00000000000E+00 -0.18250000000E+03  0.18250000000E+03  0.00000000000E+00 0.  1.
         25    2    1    2    0    0  0.11959771999E+03  0.43177159242E+02 -0.72750130900E+02  0.19257104045E+03  0.12499256924E+03 0.  0.
         23    2    1    2    0    0 -0.11959771999E+03 -0.43177159242E+02  0.72750130900E+02  0.17242895955E+03  0.90946593338E+02 0.  0.
        -11    1    4    4    0    0 -0.88736595606E+01 -0.34021121044E+02 -0.67650324973E+01  0.35804248013E+02  0.00000000000E+00 0.  1.
         11    1    4    4    0    0 -0.11072406043E+03 -0.91560381977E+01  0.79515163397E+02  0.13662471154E+03  0.00000000000E+00 0. -1.
        -15    1    3    3    0    0  0.70516945350E+02  0.22360469614E+02  0.27556362988E+02  0.78962909350E+02  0.17770000000E+01 0. -1.
         15    1    3    3    0    0  0.49080774640E+02  0.20816689628E+02 -0.10030649389E+03  0.11360813110E+03  0.17770000000E+01 0. -1.
</event>
<event>
 8    1  0.3345745E-006  0.1906387E+03  0.7546771E-02  0.1062155E+00
        -11   -1    0    0    0    0  0.00000000000E+00  0.00000000000E+00  0.18250000000E+03  0.18250000000E+03  0.00000000000E+00 0. -1.
         11   -1    0    0    0    0 -0.00000000000E+00 -0.00000000000E+00 -0.18250000000E+03  0.18250000000E+03  0.00000000000E+00 0.  1.
         25    2    1    2    0    0  0.14288975748E+03 -0.82919086655E+00  0.17282020434E+02  0.19063868647E+03  0.12500508068E+03 0.  0.
         23    2    1    2    0    0 -0.14288975748E+03  0.82919086655E+00 -0.17282020434E+02  0.17436131353E+03  0.98412545323E+02 0.  0.
        -11    1    4    4    0    0 -0.70361577271E+01 -0.48555566768E+01  0.29385102321E+02  0.30603401520E+02  0.00000000000E+00 0. -1.
         11    1    4    4    0    0 -0.13585359975E+03  0.56847475433E+01 -0.46667122755E+02  0.14375791201E+03  0.00000000000E+00 0.  1.
        -15    1    3    3    0    0  0.89958779127E+02 -0.11327777856E+02  0.70470952356E+02  0.11484865410E+03  0.17770000000E+01 0. -1.
         15    1    3    3    0    0  0.52930978353E+02  0.10498586989E+02 -0.53188931922E+02  0.75790032367E+02  0.17770000000E+01 0. -1.
</event>
<event>
 8    1  0.3345745E-006  0.1928275E+03  0.7546771E-02  0.1060519E+00
        -11   -1    0    0    0    0  0.00000000000E+00  0.00000000000E+00  0.18250000000E+03  0.18250000000E+03  0.00000000000E+00 0.  1.
         11   -1    0    0    0    0 -0.00000000000E+00 -0.00000000000E+00 -0.18250000000E+03  0.18250000000E+03  0.00000000000E+00 0. -1.
         25    2    1    2    0    0  0.47759957059E+02  0.25408082815E+02  0.13649386075E+03  0.19282753668E+03  0.12500120283E+03 0.  0.
         23    2    1    2    0    0 -0.47759957059E+02 -0.25408082815E+02 -0.13649386075E+03  0.17217246332E+03  0.89923294705E+02 0.  0.
        -11    1    4    4    0    0 -0.33691730663E+02  0.26150490915E+02 -0.96234756725E+02  0.10526209808E+03  0.00000000000E+00 0. -1.
         11    1    4    4    0    0 -0.14068226396E+02 -0.51558573730E+02 -0.40259104028E+02  0.66910365237E+02  0.00000000000E+00 0.  1.
        -15    1    3    3    0    0 -0.36383243576E+02  0.26309474573E+02  0.20185729819E+02  0.49260027230E+02  0.17770000000E+01 0. -1.
         15    1    3    3    0    0  0.84143200635E+02 -0.90139175739E+00  0.11630813093E+03  0.14356750945E+03  0.17770000000E+01 0. -1.
</event>
<event>
 8    1  0.3345745E-006  0.1927647E+03  0.7546771E-02  0.1060566E+00
        -11   -1    0    0    0    0  0.00000000000E+00  0.00000000000E+00  0.18250000000E+03  0.18250000000E+03  0.00000000000E+00 0.  1.
         11   -1    0    0    0    0 -0.00000000000E+00 -0.00000000000E+00 -0.18250000000E+03  0.18250000000E+03  0.00000000000E+00 0. -1.
         25    2    1    2    0    0  0.13064265239E+03  0.64337100235E+02  0.18055231104E+02  0.19276467491E+03  0.12500185371E+03 0.  0.
         23    2    1    2    0    0 -0.13064265239E+03 -0.64337100235E+02 -0.18055231104E+02  0.17223532509E+03  0.90178992841E+02 0.  0.
        -11    1    4    4    0    0 -0.60300086950E+02 -0.78936777667E+02 -0.13539670479E+02  0.10025187296E+03  0.00000000000E+00 0.  1.
         11    1    4    4    0    0 -0.70342565440E+02  0.14599677433E+02 -0.45155606257E+01  0.71983452137E+02  0.00000000000E+00 0. -1.
        -15    1    3    3    0    0  0.95712609813E+02 -0.62529663666E+01  0.49488401877E+02  0.10794564797E+03  0.17770000000E+01 0. -1.
         15    1    3    3    0    0  0.34930042577E+02  0.70590066601E+02 -0.31433170773E+02  0.84819026940E+02  0.17770000000E+01 0. -1.
</event>
<event>
 8    1  0.3345745E-006  0.1930993E+03  0.7546771E-02  0.1060317E+00
        -11   -1    0    0    0    0  0.00000000000E+00  0.00000000000E+00  0.18250000000E+03  0.18250000000E+03  0.00000000000E+00 0.  1.
         11   -1    0    0    0    0 -0.00000000000E+00 -0.00000000000E+00 -0.18250000000E+03  0.18250000000E+03  0.00000000000E+00 0. -1.
         25    2    1    2    0    0  0.10385989357E+03  0.95240457148E+02  0.42480769360E+02  0.19309933470E+03  0.12500046049E+03 0.  0.
         23    2    1    2    0    0 -0.10385989357E+03 -0.95240457148E+02 -0.42480769360E+02  0.17190066530E+03  0.88812165807E+02 0.  0.
        -11    1    4    4    0    0 -0.29342402944E+02 -0.84387372046E+02 -0.10036766481E+02  0.89905182568E+02  0.00000000000E+00 0.  1.
         11    1    4    4    0    0 -0.74517490630E+02 -0.10853085103E+02 -0.32444002879E+02  0.81995482735E+02  0.00000000000E+00 0. -1.
        -15    1    3    3    0    0 -0.74974639154E+01 -0.16466110794E+02 -0.16638587028E+02  0.24644372118E+02  0.17770000000E+01 0. -1.
         15    1    3    3    0    0  0.11135735749E+03  0.11170656794E+03  0.59119356387E+02  0.16845496258E+03  0.17770000000E+01 0. -1.
</event>
<event>
 8    1  0.3345745E-006  0.1925415E+03  0.7546771E-02  0.1060731E+00
        -11   -1    0    0    0    0  0.00000000000E+00  0.00000000000E+00  0.18250000000E+03  0.18250000000E+03  0.00000000000E+00 0.  1.
         11   -1    0    0    0    0 -0.00000000000E+00 -0.00000000000E+00 -0.18250000000E+03  0.18250000000E+03  0.00000000000E+00 0. -1.
         25    2    1    2    0    0  0.91594852745E+02 -0.10876823091E+03 -0.34982405071E+02  0.19254152291E+03  0.12501329640E+03 0.  0.
         23    2    1    2    0    0 -0.91594852745E+02  0.10876823091E+03  0.34982405071E+02  0.17245847709E+03  0.91093427593E+02 0.  0.
        -11    1    4    4    0    0  0.14514806985E+02  0.75293125599E+01 -0.98647209986E+01  0.19096672218E+02  0.00000000000E+00 0. -1.
         11    1    4    4    0    0 -0.10610965973E+03  0.10123891835E+03  0.44847126069E+02  0.15336180487E+03  0.00000000000E+00 0.  1.
        -15    1    3    3    0    0 -0.80444840911E+01  0.12328319430E+02  0.21270349759E+02  0.25928491899E+02  0.17770000000E+01 0. -1.
         15    1    3    3    0    0  0.99639336836E+02 -0.12109655034E+03 -0.56252754830E+02  0.16661303101E+03  0.17770000000E+01 0. -1.
</event>
<event>
 8    1  0.3345745E-006  0.1920570E+03  0.7546771E-02  0.1061092E+00
        -11   -1    0    0    0    0  0.00000000000E+00  0.00000000000E+00  0.18250000000E+03  0.18250000000E+03  0.00000000000E+00 0. -1.
         11   -1    0    0    0    0 -0.00000000000E+00 -0.00000000000E+00 -0.18250000000E+03  0.18250000000E+03  0.00000000000E+00 0.  1.
         25    2    1    2    0    0 -0.10400267820E+03  0.73061071828E+02 -0.71465877002E+02  0.19205695113E+03  0.12499609439E+03 0.  0.
         23    2    1    2    0    0  0.10400267820E+03 -0.73061071828E+02  0.71465877002E+02  0.17294304887E+03  0.92991662455E+02 0.  0.
        -11    1    4    4    0    0  0.56640720347E+02 -0.56475949847E+02  0.89116540478E+02  0.11974749225E+03  0.00000000000E+00 0. -1.
         11    1    4    4    0    0  0.47361957857E+02 -0.16585121981E+02 -0.17650663476E+02  0.53195556622E+02  0.00000000000E+00 0.  1.
        -15    1    3    3    0    0  0.22569659193E+02  0.40055782624E+02 -0.29575285262E+02  0.54696530649E+02  0.17770000000E+01 0.  1.
         15    1    3    3    0    0 -0.12657233740E+03  0.33005289204E+02 -0.41890591740E+02  0.13736042048E+03  0.17770000000E+01 0.  1.
</event>
<event>
 8    1  0.3345745E-006  0.1931203E+03  0.7546771E-02  0.1060302E+00
        -11   -1    0    0    0    0  0.00000000000E+00  0.00000000000E+00  0.18250000000E+03  0.18250000000E+03  0.00000000000E+00 0. -1.
         11   -1    0    0    0    0 -0.00000000000E+00 -0.00000000000E+00 -0.18250000000E+03  0.18250000000E+03  0.00000000000E+00 0.  1.
         25    2    1    2    0    0 -0.10759230653E+03 -0.94887714921E+02  0.33020890024E+02  0.19312030790E+03  0.12500116511E+03 0.  0.
         23    2    1    2    0    0  0.10759230653E+03  0.94887714921E+02 -0.33020890024E+02  0.17187969210E+03  0.88726920995E+02 0.  0.
        -11    1    4    4    0    0  0.54174416615E+00  0.45611688114E+02 -0.28822248423E+02  0.53957775932E+02  0.00000000000E+00 0.  1.
         11    1    4    4    0    0  0.10705056236E+03  0.49276026807E+02 -0.41986416014E+01  0.11792191616E+03  0.00000000000E+00 0. -1.
        -15    1    3    3    0    0 -0.18248397699E+02 -0.58455615213E+02  0.67021926786E+02  0.90802859908E+02  0.17770000000E+01 0. -1.
         15    1    3    3    0    0 -0.89343908832E+02 -0.36432099708E+02 -0.34001036762E+02  0.10231744800E+03  0.17770000000E+01 0. -1.
</event>
<event>
 8    1  0.3345745E-006  0.1930301E+03  0.7546771E-02  0.1060369E+00
        -11   -1    0    0    0    0  0.00000000000E+00  0.00000000000E+00  0.18250000000E+03  0.18250000000E+03  0.00000000000E+00 0.  1.
         11   -1    0    0    0    0 -0.00000000000E+00 -0.00000000000E+00 -0.18250000000E+03  0.18250000000E+03  0.00000000000E+00 0. -1.
         25    2    1    2    0    0  0.71365274421E+02  0.11394865972E+03 -0.59645075146E+02  0.19303005941E+03  0.12500307757E+03 0.  0.
         23    2    1    2    0    0 -0.71365274421E+02 -0.11394865972E+03  0.59645075146E+02  0.17196994059E+03  0.89100089970E+02 0.  0.
        -11    1    4    4    0    0  0.60507072413E+01 -0.53867536104E+02  0.49577840381E+02  0.73459408934E+02  0.00000000000E+00 0.  1.
         11    1    4    4    0    0 -0.77415981662E+02 -0.60081123616E+02  0.10067234765E+02  0.98510531657E+02  0.00000000000E+00 0. -1.
        -15    1    3    3    0    0  0.91480532952E+01  0.11956814518E+03 -0.49371394980E+02  0.12969549180E+03  0.17770000000E+01 0. -1.
         15    1    3    3    0    0  0.62217221125E+02 -0.56194854617E+01 -0.10273680166E+02  0.63334567612E+02  0.17770000000E+01 0. -1.
</event>
<event>
 8    1  0.3345745E-006  0.1925693E+03  0.7546771E-02  0.1060711E+00
        -11   -1    0    0    0    0  0.00000000000E+00  0.00000000000E+00  0.18250000000E+03  0.18250000000E+03  0.00000000000E+00 0.  1.
         11   -1    0    0    0    0 -0.00000000000E+00 -0.00000000000E+00 -0.18250000000E+03  0.18250000000E+03  0.00000000000E+00 0. -1.
         25    2    1    2    0    0  0.56593099339E+02 -0.13398837967E+03  0.17421842588E+02  0.19256934829E+03  0.12499507400E+03 0.  0.
         23    2    1    2    0    0 -0.56593099339E+02  0.13398837967E+03 -0.17421842588E+02  0.17243065171E+03  0.90956826406E+02 0.  0.
        -11    1    4    4    0    0 -0.33816572028E+02  0.76490680492E+02  0.35671348717E+02  0.90922108781E+02  0.00000000000E+00 0.  1.
         11    1    4    4    0    0 -0.22776527311E+02  0.57497699178E+02 -0.53093191305E+02  0.81508542927E+02  0.00000000000E+00 0. -1.
        -15    1    3    3    0    0  0.77700777621E+02 -0.14210621858E+03  0.32673798482E+02  0.16523414610E+03  0.17770000000E+01 0. -1.
         15    1    3    3    0    0 -0.21107678282E+02  0.81178389127E+01 -0.15251955894E+02  0.27335202188E+02  0.17770000000E+01 0. -1.
</event>
<event>
 8    1  0.3345745E-006  0.1921362E+03  0.7546771E-02  0.1061033E+00
        -11   -1    0    0    0    0  0.00000000000E+00  0.00000000000E+00  0.18250000000E+03  0.18250000000E+03  0.00000000000E+00 0. -1.
         11   -1    0    0    0    0 -0.00000000000E+00 -0.00000000000E+00 -0.18250000000E+03  0.18250000000E+03  0.00000000000E+00 0.  1.
         25    2    1    2    0    0 -0.96465271603E+02 -0.60057057331E+02 -0.91535762737E+02  0.19213623679E+03  0.12500055547E+03 0.  0.
         23    2    1    2    0    0  0.96465271603E+02  0.60057057331E+02  0.91535762737E+02  0.17286376321E+03  0.92685953676E+02 0.  0.
        -11    1    4    4    0    0  0.58557893774E+02 -0.45514054731E+01  0.58099513982E+01  0.59021163580E+02  0.00000000000E+00 0.  1.
         11    1    4    4    0    0  0.37907377829E+02  0.64608462805E+02  0.85725811339E+02  0.11384259963E+03  0.00000000000E+00 0. -1.
        -15    1    3    3    0    0 -0.86421323632E+02 -0.51973252013E+02 -0.12242218314E+03  0.15861971112E+03  0.17770000000E+01 0. -1.
         15    1    3    3    0    0 -0.10043947970E+02 -0.80838053186E+01  0.30886420398E+02  0.33516525674E+02  0.17770000000E+01 0. -1.
</event>
<event>
 8    1  0.3345745E-006  0.1929117E+03  0.7546771E-02  0.1060456E+00
        -11   -1    0    0    0    0  0.00000000000E+00  0.00000000000E+00  0.18250000000E+03  0.18250000000E+03  0.00000000000E+00 0. -1.
         11   -1    0    0    0    0 -0.00000000000E+00 -0.00000000000E+00 -0.18250000000E+03  0.18250000000E+03  0.00000000000E+00 0.  1.
         25    2    1    2    0    0  0.66968923493E+02 -0.10647393454E+03  0.75954026346E+02  0.19291172756E+03  0.12499754022E+03 0.  0.
         23    2    1    2    0    0 -0.66968923493E+02  0.10647393454E+03 -0.75954026346E+02  0.17208827244E+03  0.89575799987E+02 0.  0.
        -11    1    4    4    0    0 -0.58454444627E+02  0.48772077442E+02 -0.83822095833E+02  0.11323330510E+03  0.00000000000E+00 0.  1.
         11    1    4    4    0    0 -0.85144788669E+01  0.57701857100E+02  0.78680694865E+01  0.58854967340E+02  0.00000000000E+00 0. -1.
        -15    1    3    3    0    0  0.33245116092E+01  0.63088190463E+01  0.62242124175E+02  0.62674502998E+02  0.17770000000E+01 0.  1.
         15    1    3    3    0    0  0.63644411884E+02 -0.11278275359E+03  0.13711902172E+02  0.13023722456E+03  0.17770000000E+01 0.  1.
</event>
<event>
 8    1  0.3345745E-006  0.1927925E+03  0.7546771E-02  0.1060545E+00
        -11   -1    0    0    0    0  0.00000000000E+00  0.00000000000E+00  0.18250000000E+03  0.18250000000E+03  0.00000000000E+00 0.  1.
         11   -1    0    0    0    0 -0.00000000000E+00 -0.00000000000E+00 -0.18250000000E+03  0.18250000000E+03  0.00000000000E+00 0. -1.
         25    2    1    2    0    0 -0.74060398764E+02  0.90431941669E+02 -0.88763037496E+02  0.19279254609E+03  0.12500884075E+03 0.  0.
         23    2    1    2    0    0  0.74060398764E+02 -0.90431941669E+02  0.88763037496E+02  0.17220745391E+03  0.90075810381E+02 0.  0.
        -11    1    4    4    0    0  0.24245359733E+02 -0.57432179767E+02  0.93378389777E+02  0.11227562700E+03  0.00000000000E+00 0.  1.
         11    1    4    4    0    0  0.49815039031E+02 -0.32999761902E+02 -0.46153522805E+01  0.59931826903E+02  0.00000000000E+00 0. -1.
        -15    1    3    3    0    0 -0.17392748678E+02 -0.59332390597E+01 -0.78357458491E+02  0.80503168028E+02  0.17770000000E+01 0.  1.
         15    1    3    3    0    0 -0.56667650086E+02  0.96365180729E+02 -0.10405579005E+02  0.11228937807E+03  0.17770000000E+01 0.  1.
</event>
<event>
 8    1  0.3345745E-006  0.1917745E+03  0.7546771E-02  0.1061303E+00
        -11   -1    0    0    0    0  0.00000000000E+00  0.00000000000E+00  0.18250000000E+03  0.18250000000E+03  0.00000000000E+00 0. -1.
         11   -1    0    0    0    0 -0.00000000000E+00 -0.00000000000E+00 -0.18250000000E+03  0.18250000000E+03  0.00000000000E+00 0.  1.
         25    2    1    2    0    0 -0.59896372386E+00 -0.14185056906E+03 -0.32115676777E+02  0.19177453807E+03  0.12499645618E+03 0.  0.
         23    2    1    2    0    0  0.59896372386E+00  0.14185056906E+03  0.32115676777E+02  0.17322546193E+03  0.94094108565E+02 0.  0.
        -11    1    4    4    0    0 -0.21005522746E+02  0.14176817439E+03  0.42176491564E+02  0.14939311797E+03  0.00000000000E+00 0. -1.
         11    1    4    4    0    0  0.21604486470E+02  0.82394666666E-01 -0.10060814787E+02  0.23832343961E+02  0.00000000000E+00 0.  1.
        -15    1    3    3    0    0  0.27253500597E+02 -0.45693598165E+02  0.41500504187E+02  0.67498946546E+02  0.17770000000E+01 0.  1.
         15    1    3    3    0    0 -0.27852464321E+02 -0.96156970892E+02 -0.73616180964E+02  0.12427559152E+03  0.17770000000E+01 0.  1.
</event>
<event>
 8    1  0.3345745E-006  0.1912703E+03  0.7546771E-02  0.1061680E+00
        -11   -1    0    0    0    0  0.00000000000E+00  0.00000000000E+00  0.18250000000E+03  0.18250000000E+03  0.00000000000E+00 0.  1.
         11   -1    0    0    0    0 -0.00000000000E+00 -0.00000000000E+00 -0.18250000000E+03  0.18250000000E+03  0.00000000000E+00 0. -1.
         25    2    1    2    0    0 -0.91467187008E+02 -0.96387983571E+02 -0.57461849389E+02  0.19127029875E+03  0.12500229347E+03 0.  0.
         23    2    1    2    0    0  0.91467187008E+02  0.96387983571E+02  0.57461849389E+02  0.17372970125E+03  0.96037780505E+02 0.  0.
        -11    1    4    4    0    0  0.81644494701E+02  0.20512692549E+02  0.47269480823E+02  0.96545315204E+02  0.00000000000E+00 0. -1.
         11    1    4    4    0    0  0.98226923071E+01  0.75875291022E+02  0.10192368566E+02  0.77184386043E+02  0.00000000000E+00 0.  1.
        -15    1    3    3    0    0 -0.58107021438E+02 -0.91777349767E+01 -0.75933209608E+02  0.96071154932E+02  0.17770000000E+01 0. -1.
         15    1    3    3    0    0 -0.33360165570E+02 -0.87210248594E+02  0.18471360219E+02  0.95199143820E+02  0.17770000000E+01 0. -1.
</event>
<event>
 8    1  0.3345745E-006  0.1925325E+03  0.7546771E-02  0.1060738E+00
        -11   -1    0    0    0    0  0.00000000000E+00  0.00000000000E+00  0.18250000000E+03  0.18250000000E+03  0.00000000000E+00 0.  1.
         11   -1    0    0    0    0 -0.00000000000E+00 -0.00000000000E+00 -0.18250000000E+03  0.18250000000E+03  0.00000000000E+00 0.  1.
         25    2    1    2    0    0 -0.14535956236E+03  0.22095458483E+01  0.17623722134E+02  0.19253252160E+03  0.12499556723E+03 0.  0.
         23    2    1    2    0    0  0.14535956236E+03 -0.22095458483E+01 -0.17623722134E+02  0.17246747840E+03  0.91105164847E+02 0.  0.
        -11    1    4    4    0    0 -0.17180299297E+01  0.19966957452E+02 -0.12539666854E+02  0.23640521601E+02  0.00000000000E+00 0.  1.
         11    1    4    4    0    0  0.14707759229E+03 -0.22176503300E+02 -0.50840552792E+01  0.14882695680E+03  0.00000000000E+00 0.  1.
        -15    1    3    3    0    0 -0.16605118038E+03  0.13411196170E+02  0.72564395611E+01  0.16675931258E+03  0.17770000000E+01 0. -1.
         15    1    3    3    0    0  0.20691618017E+02 -0.11201650322E+02  0.10367282573E+02  0.25773209017E+02  0.17770000000E+01 0. -1.
</event>
<event>
 8    1  0.3345745E-006  0.1918290E+03  0.7546771E-02  0.1061262E+00
        -11   -1    0    0    0    0  0.00000000000E+00  0.00000000000E+00  0.18250000000E+03  0.18250000000E+03  0.00000000000E+00 0. -1.
         11   -1    0    0    0    0 -0.00000000000E+00 -0.00000000000E+00 -0.18250000000E+03  0.18250000000E+03  0.00000000000E+00 0.  1.
         25    2    1    2    0    0 -0.52802800817E+02  0.13558100099E+03 -0.14164500582E+01  0.19182898858E+03  0.12500404363E+03 0.  0.
         23    2    1    2    0    0  0.52802800817E+02 -0.13558100099E+03  0.14164500582E+01  0.17317101142E+03  0.93892754044E+02 0.  0.
        -11    1    4    4    0    0  0.76242447533E+02 -0.88515963684E+02 -0.15703257931E+02  0.11787526858E+03  0.00000000000E+00 0. -1.
         11    1    4    4    0    0 -0.23439646716E+02 -0.47065037308E+02  0.17119707989E+02  0.55295742843E+02  0.00000000000E+00 0.  1.
        -15    1    3    3    0    0 -0.30938785434E+02  0.12902092075E+03  0.44966574039E+02  0.14010266574E+03  0.17770000000E+01 0.  1.
         15    1    3    3    0    0 -0.21864015383E+02  0.65600802372E+01 -0.46383024098E+02  0.51726322843E+02  0.17770000000E+01 0.  1.
</event>
<event>
 8    1  0.3345745E-006  0.1911944E+03  0.7546771E-02  0.1061737E+00
        -11   -1    0    0    0    0  0.00000000000E+00  0.00000000000E+00  0.18250000000E+03  0.18250000000E+03  0.00000000000E+00 0. -1.
         11   -1    0    0    0    0 -0.00000000000E+00 -0.00000000000E+00 -0.18250000000E+03  0.18250000000E+03  0.00000000000E+00 0.  1.
         25    2    1    2    0    0  0.10664267002E+03  0.91099933908E+02 -0.35493522778E+02  0.19119440361E+03  0.12499461103E+03 0.  0.
         23    2    1    2    0    0 -0.10664267002E+03 -0.91099933908E+02  0.35493522778E+02  0.17380559639E+03  0.96315825022E+02 0.  0.
        -11    1    4    4    0    0  0.18879351538E+01 -0.47106592109E+02  0.31365061502E+02  0.56624750792E+02  0.00000000000E+00 0.  1.
         11    1    4    4    0    0 -0.10853060518E+03 -0.43993341800E+02  0.41284612759E+01  0.11718084560E+03  0.00000000000E+00 0. -1.
        -15    1    3    3    0    0  0.30358156613E+01 -0.29017641006E+02 -0.50886104185E+01  0.29669704266E+02  0.17770000000E+01 0. -1.
         15    1    3    3    0    0  0.10360685436E+03  0.12011757491E+03 -0.30404912359E+02  0.16152469934E+03  0.17770000000E+01 0. -1.
</event>
<event>
 8    1  0.3345745E-006  0.1927255E+03  0.7546771E-02  0.1060595E+00
        -11   -1    0    0    0    0  0.00000000000E+00  0.00000000000E+00  0.18250000000E+03  0.18250000000E+03  0.00000000000E+00 0.  1.
         11   -1    0    0    0    0 -0.00000000000E+00 -0.00000000000E+00 -0.18250000000E+03  0.18250000000E+03  0.00000000000E+00 0. -1.
         25    2    1    2    0    0  0.10318957634E+03  0.19101075877E+02  0.10250388057E+03  0.19272554873E+03  0.12499260713E+03 0.  0.
         23    2    1    2    0    0 -0.10318957634E+03 -0.19101075877E+02 -0.10250388057E+03  0.17227445127E+03  0.90324422297E+02 0.  0.
        -11    1    4    4    0    0  0.73069720170E+01  0.10841438297E+02  0.61426377659E+01  0.14445089931E+02  0.00000000000E+00 0.  1.
         11    1    4    4    0    0 -0.11049654835E+03 -0.29942514174E+02 -0.10864651834E+03  0.15782936134E+03  0.00000000000E+00 0. -1.
        -15    1    3    3    0    0  0.11136354602E+03  0.55674709322E+02  0.68632397920E+02  0.14217973278E+03  0.17770000000E+01 0.  1.
         15    1    3    3    0    0 -0.81739696861E+01 -0.36573633445E+02  0.33871482654E+02  0.50545815949E+02  0.17770000000E+01 0.  1.
</event>
<event>
 8    1  0.3345745E-006  0.1925129E+03  0.7546771E-02  0.1060753E+00
        -11   -1    0    0    0    0  0.00000000000E+00  0.00000000000E+00  0.18250000000E+03  0.18250000000E+03  0.00000000000E+00 0. -1.
         11   -1    0    0    0    0 -0.00000000000E+00 -0.00000000000E+00 -0.18250000000E+03  0.18250000000E+03  0.00000000000E+00 0.  1.
         25    2    1    2    0    0  0.13995115000E+03  0.41856977086E+02 -0.99437547203E+01  0.19251289402E+03  0.12499602069E+03 0.  0.
         23    2    1    2    0    0 -0.13995115000E+03 -0.41856977086E+02  0.99437547203E+01  0.17248710598E+03  0.91184387654E+02 0.  0.
        -11    1    4    4    0    0  0.62705821916E+01  0.13918606626E+02  0.44137276192E+01  0.15891154865E+02  0.00000000000E+00 0. -1.
         11    1    4    4    0    0 -0.14622173220E+03 -0.55775583712E+02  0.55300271011E+01  0.15659595111E+03  0.00000000000E+00 0.  1.
        -15    1    3    3    0    0  0.45785932079E+02 -0.44277938728E+01 -0.60505714991E+02  0.76026680912E+02  0.17770000000E+01 0. -1.
         15    1    3    3    0    0  0.94165217925E+02  0.46284770958E+02  0.50561960271E+02  0.11648621311E+03  0.17770000000E+01 0. -1.
</event>
<event>
 8    1  0.3345745E-006  0.1925206E+03  0.7546771E-02  0.1060747E+00
        -11   -1    0    0    0    0  0.00000000000E+00  0.00000000000E+00  0.18250000000E+03  0.18250000000E+03  0.00000000000E+00 0.  1.
         11   -1    0    0    0    0 -0.00000000000E+00 -0.00000000000E+00 -0.18250000000E+03  0.18250000000E+03  0.00000000000E+00 0. -1.
         25    2    1    2    0    0 -0.26099989862E+02  0.11157678375E+03 -0.91146285405E+02  0.19252063918E+03  0.12500385205E+03 0.  0.
         23    2    1    2    0    0  0.26099989862E+02 -0.11157678375E+03  0.91146285405E+02  0.17247936082E+03  0.91164118059E+02 0.  0.
        -11    1    4    4    0    0 -0.70328624984E+01 -0.79226331445E+02  0.97402327529E+02  0.12575168451E+03  0.00000000000E+00 0.  1.
         11    1    4    4    0    0  0.33132852360E+02 -0.32350452304E+02 -0.62560421233E+01  0.46727676305E+02  0.00000000000E+00 0. -1.
        -15    1    3    3    0    0  0.36123102176E+02  0.83661916452E+02 -0.83960449981E+02  0.12392219198E+03  0.17770000000E+01 0.  1.
         15    1    3    3    0    0 -0.62223092038E+02  0.27914867297E+02 -0.71858354248E+01  0.68598447204E+02  0.17770000000E+01 0.  1.
</event>
<event>
 8    1  0.3345745E-006  0.1924009E+03  0.7546771E-02  0.1060836E+00
        -11   -1    0    0    0    0  0.00000000000E+00  0.00000000000E+00  0.18250000000E+03  0.18250000000E+03  0.00000000000E+00 0.  1.
         11   -1    0    0    0    0 -0.00000000000E+00 -0.00000000000E+00 -0.18250000000E+03  0.18250000000E+03  0.00000000000E+00 0. -1.
         25    2    1    2    0    0 -0.29049854040E+02 -0.42496284371E+02  0.13691469281E+03  0.19240086697E+03  0.12499052884E+03 0.  0.
         23    2    1    2    0    0  0.29049854040E+02  0.42496284371E+02 -0.13691469281E+03  0.17259913303E+03  0.91624229378E+02 0.  0.
        -11    1    4    4    0    0 -0.28084232813E+02 -0.23447957234E+01 -0.62782367819E+02  0.68817497111E+02  0.00000000000E+00 0. -1.
         11    1    4    4    0    0  0.57134086853E+02  0.44841080095E+02 -0.74132324990E+02  0.10378163591E+03  0.00000000000E+00 0.  1.
        -15    1    3    3    0    0 -0.67575457795E+02 -0.47322215176E+02  0.12837288158E+03  0.15260599267E+03  0.17770000000E+01 0.  1.
         15    1    3    3    0    0  0.38525603756E+02  0.48259308046E+01  0.85418112341E+01  0.39794874306E+02  0.17770000000E+01 0.  1.
</event>
<event>
 8    1  0.3345745E-006  0.1929307E+03  0.7546771E-02  0.1060442E+00
        -11   -1    0    0    0    0  0.00000000000E+00  0.00000000000E+00  0.18250000000E+03  0.18250000000E+03  0.00000000000E+00 0. -1.
         11   -1    0    0    0    0 -0.00000000000E+00 -0.00000000000E+00 -0.18250000000E+03  0.18250000000E+03  0.00000000000E+00 0.  1.
         25    2    1    2    0    0  0.10050450156E+03  0.20341217933E+02 -0.10527057980E+03  0.19293067451E+03  0.12500172084E+03 0.  0.
         23    2    1    2    0    0 -0.10050450156E+03 -0.20341217933E+02  0.10527057980E+03  0.17206932549E+03  0.89504401146E+02 0.  0.
        -11    1    4    4    0    0 -0.10147927890E+03 -0.35260019811E+02  0.57162516288E+02  0.12169168547E+03  0.00000000000E+00 0.  1.
         11    1    4    4    0    0  0.97477733960E+00  0.14918801878E+02  0.48108063508E+02  0.50377640028E+02  0.00000000000E+00 0. -1.
        -15    1    3    3    0    0  0.11411623286E+03  0.32235371835E+02 -0.39967517938E+02  0.12514868764E+03  0.17770000000E+01 0. -1.
         15    1    3    3    0    0 -0.13611731299E+02 -0.11894153902E+02 -0.65303061858E+02  0.67781986862E+02  0.17770000000E+01 0. -1.
</event>
<event>
 8    1  0.3345745E-006  0.1927627E+03  0.7546771E-02  0.1060567E+00
        -11   -1    0    0    0    0  0.00000000000E+00  0.00000000000E+00  0.18250000000E+03  0.18250000000E+03  0.00000000000E+00 0. -1.
         11   -1    0    0    0    0 -0.00000000000E+00 -0.00000000000E+00 -0.18250000000E+03  0.18250000000E+03  0.00000000000E+00 0.  1.
         25    2    1    2    0    0 -0.15335230220E+02 -0.14492616203E+03  0.17136212164E+02  0.19276266596E+03  0.12500013558E+03 0.  0.
         23    2    1    2    0    0  0.15335230220E+02  0.14492616203E+03 -0.17136212164E+02  0.17223733404E+03  0.90184742295E+02 0.  0.
        -11    1    4    4    0    0 -0.35078476700E+02  0.38509336822E+02  0.53163939013E+01  0.52361556453E+02  0.00000000000E+00 0.  1.
         11    1    4    4    0    0  0.50413706920E+02  0.10641682521E+03 -0.22452606065E+02  0.11987577759E+03  0.00000000000E+00 0. -1.
        -15    1    3    3    0    0 -0.19963272526E+02 -0.55043219029E+02 -0.52727009679E+02  0.78813599650E+02  0.17770000000E+01 0.  1.
         15    1    3    3    0    0  0.46280423065E+01 -0.89882943001E+02  0.69863221842E+02  0.11394906631E+03  0.17770000000E+01 0.  1.
</event>
<event>
 8    1  0.3345745E-006  0.1923938E+03  0.7546771E-02  0.1060841E+00
        -11   -1    0    0    0    0  0.00000000000E+00  0.00000000000E+00  0.18250000000E+03  0.18250000000E+03  0.00000000000E+00 0. -1.
         11   -1    0    0    0    0 -0.00000000000E+00 -0.00000000000E+00 -0.18250000000E+03  0.18250000000E+03  0.00000000000E+00 0.  1.
         25    2    1    2    0    0 -0.18751414090E+02 -0.34334133395E+02  0.14093121531E+03  0.19239380375E+03  0.12499327993E+03 0.  0.
         23    2    1    2    0    0  0.18751414090E+02  0.34334133395E+02 -0.14093121531E+03  0.17260619625E+03  0.91656114304E+02 0.  0.
        -11    1    4    4    0    0 -0.36376022854E+02  0.74436877581E+01 -0.40655704713E+02  0.55059148666E+02  0.00000000000E+00 0.  1.
         11    1    4    4    0    0  0.55127436944E+02  0.26890445637E+02 -0.10027551059E+03  0.11754704758E+03  0.00000000000E+00 0. -1.
        -15    1    3    3    0    0  0.19611420943E+02 -0.69703797338E+02  0.51628187340E+02  0.88948606800E+02  0.17770000000E+01 0. -1.
         15    1    3    3    0    0 -0.38362835033E+02  0.35369663942E+02  0.89303027967E+02  0.10344519695E+03  0.17770000000E+01 0. -1.
</event>
<event>
 8    1  0.3345745E-006  0.1928636E+03  0.7546771E-02  0.1060492E+00
        -11   -1    0    0    0    0  0.00000000000E+00  0.00000000000E+00  0.18250000000E+03  0.18250000000E+03  0.00000000000E+00 0.  1.
         11   -1    0    0    0    0 -0.00000000000E+00 -0.00000000000E+00 -0.18250000000E+03  0.18250000000E+03  0.00000000000E+00 0. -1.
         25    2    1    2    0    0 -0.13038254150E+03  0.45833252391E+02  0.49704992799E+02  0.19286360198E+03  0.12500195401E+03 0.  0.
         23    2    1    2    0    0  0.13038254150E+03 -0.45833252391E+02 -0.49704992799E+02  0.17213639802E+03  0.89777831671E+02 0.  0.
        -11    1    4    4    0    0  0.10825633532E+03 -0.18984870568E+02  0.18696013722E+01  0.10992431422E+03  0.00000000000E+00 0.  1.
         11    1    4    4    0    0  0.22126206185E+02 -0.26848381823E+02 -0.51574594171E+02  0.62212083799E+02  0.00000000000E+00 0. -1.
        -15    1    3    3    0    0 -0.11847710397E+03  0.75338682977E+02  0.83582379368E+01  0.14066186117E+03  0.17770000000E+01 0.  1.
         15    1    3    3    0    0 -0.11905437534E+02 -0.29505430586E+02  0.41346754862E+02  0.52201740810E+02  0.17770000000E+01 0.  1.
</event>
<event>
 8    1  0.3345745E-006  0.1923891E+03  0.7546771E-02  0.1060845E+00
        -11   -1    0    0    0    0  0.00000000000E+00  0.00000000000E+00  0.18250000000E+03  0.18250000000E+03  0.00000000000E+00 0. -1.
         11   -1    0    0    0    0 -0.00000000000E+00 -0.00000000000E+00 -0.18250000000E+03  0.18250000000E+03  0.00000000000E+00 0.  1.
         25    2    1    2    0    0 -0.32655402317E+02  0.13943460185E+03  0.29676033688E+02  0.19238908634E+03  0.12499804027E+03 0.  0.
         23    2    1    2    0    0  0.32655402317E+02 -0.13943460185E+03 -0.29676033688E+02  0.17261091366E+03  0.91681388766E+02 0.  0.
        -11    1    4    4    0    0  0.59941428219E+02 -0.73113971448E+02 -0.34723402353E+02  0.10071912583E+03  0.00000000000E+00 0.  1.
         11    1    4    4    0    0 -0.27286025902E+02 -0.66320630406E+02  0.50473686659E+01  0.71891787830E+02  0.00000000000E+00 0. -1.
        -15    1    3    3    0    0 -0.13689188765E+02  0.14793041377E+03 -0.85755085095E+01  0.14882035574E+03  0.17770000000E+01 0.  1.
         15    1    3    3    0    0 -0.18966213552E+02 -0.84958119133E+01  0.38251542197E+02  0.43568730599E+02  0.17770000000E+01 0.  1.
</event>
<event>
 8    1  0.3345745E-006  0.1926890E+03  0.7546771E-02  0.1060622E+00
        -11   -1    0    0    0    0  0.00000000000E+00  0.00000000000E+00  0.18250000000E+03  0.18250000000E+03  0.00000000000E+00 0. -1.
         11   -1    0    0    0    0 -0.00000000000E+00 -0.00000000000E+00 -0.18250000000E+03  0.18250000000E+03  0.00000000000E+00 0.  1.
         25    2    1    2    0    0 -0.85554408445E+02  0.97223214296E+02 -0.68788869772E+02  0.19268899780E+03  0.12500092427E+03 0.  0.
         23    2    1    2    0    0  0.85554408445E+02 -0.97223214296E+02  0.68788869772E+02  0.17231100220E+03  0.90483493915E+02 0.  0.
        -11    1    4    4    0    0  0.10641645603E+02 -0.78161476345E+02  0.47710913691E+02  0.92188894617E+02  0.00000000000E+00 0. -1.
         11    1    4    4    0    0  0.74912762842E+02 -0.19061737951E+02  0.21077956081E+02  0.80122107579E+02  0.00000000000E+00 0.  1.
        -15    1    3    3    0    0 -0.27557159301E+02  0.37763557861E+02 -0.94730724392E+02  0.10565297537E+03  0.17770000000E+01 0.  1.
         15    1    3    3    0    0 -0.57997249144E+02  0.59459656435E+02  0.25941854620E+02  0.87036022437E+02  0.17770000000E+01 0.  1.
</event>
<event>
 8    1  0.3345745E-006  0.1925070E+03  0.7546771E-02  0.1060757E+00
        -11   -1    0    0    0    0  0.00000000000E+00  0.00000000000E+00  0.18250000000E+03  0.18250000000E+03  0.00000000000E+00 0. -1.
         11   -1    0    0    0    0 -0.00000000000E+00 -0.00000000000E+00 -0.18250000000E+03  0.18250000000E+03  0.00000000000E+00 0.  1.
         25    2    1    2    0    0  0.55905306662E+02  0.12891215356E+03 -0.41109348959E+02  0.19250696865E+03  0.12500083102E+03 0.  0.
         23    2    1    2    0    0 -0.55905306662E+02 -0.12891215356E+03  0.41109348959E+02  0.17249303135E+03  0.91214695335E+02 0.  0.
        -11    1    4    4    0    0 -0.12930426945E+01 -0.99169787123E+02  0.23285892541E+01  0.99205549066E+02  0.00000000000E+00 0.  1.
         11    1    4    4    0    0 -0.54612263967E+02 -0.29742366439E+02  0.38780759705E+02  0.73287482289E+02  0.00000000000E+00 0. -1.
        -15    1    3    3    0    0  0.68104546224E+02  0.14005688487E+03 -0.85865245392E+01  0.15598412211E+03  0.17770000000E+01 0. -1.
         15    1    3    3    0    0 -0.12199239562E+02 -0.11144731312E+02 -0.32522824420E+02  0.36522846537E+02  0.17770000000E+01 0. -1.
</event>
<event>
 8    1  0.3345745E-006  0.1914937E+03  0.7546771E-02  0.1061513E+00
        -11   -1    0    0    0    0  0.00000000000E+00  0.00000000000E+00  0.18250000000E+03  0.18250000000E+03  0.00000000000E+00 0.  1.
         11   -1    0    0    0    0 -0.00000000000E+00 -0.00000000000E+00 -0.18250000000E+03  0.18250000000E+03  0.00000000000E+00 0. -1.
         25    2    1    2    0    0 -0.18912013629E+02  0.13380389936E+03  0.52792949853E+02  0.19149373313E+03  0.12498642538E+03 0.  0.
         23    2    1    2    0    0  0.18912013629E+02 -0.13380389936E+03 -0.52792949853E+02  0.17350626687E+03  0.95163970849E+02 0.  0.
        -11    1    4    4    0    0  0.50228645600E+02 -0.40420976620E+02 -0.68879083635E+01  0.64839921895E+02  0.00000000000E+00 0.  1.
         11    1    4    4    0    0 -0.31316631971E+02 -0.93382922738E+02 -0.45905041489E+02  0.10866634498E+03  0.00000000000E+00 0. -1.
        -15    1    3    3    0    0 -0.12340326904E+02  0.14664433178E+03  0.74823131824E+02  0.16510149150E+03  0.17770000000E+01 0.  1.
         15    1    3    3    0    0 -0.65716867251E+01 -0.12840432422E+02 -0.22030181972E+02  0.26392241623E+02  0.17770000000E+01 0.  1.
</event>
<event>
 8    1  0.3345745E-006  0.1926125E+03  0.7546771E-02  0.1060679E+00
        -11   -1    0    0    0    0  0.00000000000E+00  0.00000000000E+00  0.18250000000E+03  0.18250000000E+03  0.00000000000E+00 0.  1.
         11   -1    0    0    0    0 -0.00000000000E+00 -0.00000000000E+00 -0.18250000000E+03  0.18250000000E+03  0.00000000000E+00 0. -1.
         25    2    1    2    0    0  0.63683780742E+02 -0.12563261683E+03 -0.40448244444E+02  0.19261253807E+03  0.12499740397E+03 0.  0.
         23    2    1    2    0    0 -0.63683780742E+02  0.12563261683E+03  0.40448244444E+02  0.17238746193E+03  0.90786553037E+02 0.  0.
        -11    1    4    4    0    0 -0.49866630902E+02  0.53595499094E+02  0.62003750767E+02  0.95935517457E+02  0.00000000000E+00 0.  1.
         11    1    4    4    0    0 -0.13817149840E+02  0.72037117737E+02 -0.21555506323E+02  0.76451944477E+02  0.00000000000E+00 0. -1.
        -15    1    3    3    0    0  0.28977836466E+02 -0.82368127688E+02 -0.84680694197E+02  0.12164785721E+03  0.17770000000E+01 0.  1.
         15    1    3    3    0    0  0.34705944275E+02 -0.43264489143E+02  0.44232449752E+02  0.70964680856E+02  0.17770000000E+01 0.  1.
</event>
<event>
 8    1  0.3345745E-006  0.1922925E+03  0.7546771E-02  0.1060917E+00
        -11   -1    0    0    0    0  0.00000000000E+00  0.00000000000E+00  0.18250000000E+03  0.18250000000E+03  0.00000000000E+00 0. -1.
         11   -1    0    0    0    0 -0.00000000000E+00 -0.00000000000E+00 -0.18250000000E+03  0.18250000000E+03  0.00000000000E+00 0.  1.
         25    2    1    2    0    0 -0.84584012636E+02 -0.11849353105E+03  0.12418117312E+02  0.19229248545E+03  0.12500807265E+03 0.  0.
         23    2    1    2    0    0  0.84584012636E+02  0.11849353105E+03 -0.12418117312E+02  0.17270751455E+03  0.92078791529E+02 0.  0.
        -11    1    4    4    0    0  0.51229494371E+02  0.96457921674E+02  0.31154785215E+02  0.11357469960E+03  0.00000000000E+00 0. -1.
         11    1    4    4    0    0  0.33354518264E+02  0.22035609380E+02 -0.43572902527E+02  0.59132814951E+02  0.00000000000E+00 0.  1.
        -15    1    3    3    0    0  0.27474760582E+01 -0.12295616458E+02 -0.42395683938E+02  0.44263783778E+02  0.17770000000E+01 0. -1.
         15    1    3    3    0    0 -0.87331488694E+02 -0.10619791460E+03  0.54813801250E+02  0.14802870167E+03  0.17770000000E+01 0. -1.
</event>
<event>
 8    1  0.3345745E-006  0.1923305E+03  0.7546771E-02  0.1060888E+00
        -11   -1    0    0    0    0  0.00000000000E+00  0.00000000000E+00  0.18250000000E+03  0.18250000000E+03  0.00000000000E+00 0. -1.
         11   -1    0    0    0    0 -0.00000000000E+00 -0.00000000000E+00 -0.18250000000E+03  0.18250000000E+03  0.00000000000E+00 0.  1.
         25    2    1    2    0    0  0.14502178563E+03 -0.29069876971E+01  0.18078725554E+02  0.19233046432E+03  0.12499759319E+03 0.  0.
         23    2    1    2    0    0 -0.14502178563E+03  0.29069876971E+01 -0.18078725554E+02  0.17266953568E+03  0.91913869190E+02 0.  0.
        -11    1    4    4    0    0 -0.84835477423E+02  0.37232213921E+02 -0.38663274950E+02  0.10038996371E+03  0.00000000000E+00 0.  1.
         11    1    4    4    0    0 -0.60186308209E+02 -0.34325226224E+02  0.20584549396E+02  0.72279571975E+02  0.00000000000E+00 0. -1.
        -15    1    3    3    0    0  0.12856698394E+03 -0.61995902440E+01  0.63744276506E+02  0.14364677092E+03  0.17770000000E+01 0. -1.
         15    1    3    3    0    0  0.16454801688E+02  0.32926025470E+01 -0.45665550952E+02  0.48683693398E+02  0.17770000000E+01 0. -1.
</event>
<event>
 8    1  0.3345745E-006  0.1919227E+03  0.7546771E-02  0.1061192E+00
        -11   -1    0    0    0    0  0.00000000000E+00  0.00000000000E+00  0.18250000000E+03  0.18250000000E+03  0.00000000000E+00 0.  1.
         11   -1    0    0    0    0 -0.00000000000E+00 -0.00000000000E+00 -0.18250000000E+03  0.18250000000E+03  0.00000000000E+00 0. -1.
         25    2    1    2    0    0 -0.59010761389E+02  0.27401781991E+02  0.13029389133E+03  0.19192266522E+03  0.12499873476E+03 0.  0.
         23    2    1    2    0    0  0.59010761389E+02 -0.27401781991E+02 -0.13029389133E+03  0.17307733478E+03  0.93520789567E+02 0.  0.
        -11    1    4    4    0    0  0.70782050336E+02 -0.97181772125E+01 -0.43334660546E+02  0.83560962314E+02  0.00000000000E+00 0.  1.
         11    1    4    4    0    0 -0.11771288948E+02 -0.17683604779E+02 -0.86959230780E+02  0.89516372465E+02  0.00000000000E+00 0. -1.
        -15    1    3    3    0    0 -0.57482867542E+02  0.61245263734E+02  0.13361769513E+03  0.15783570119E+03  0.17770000000E+01 0. -1.
         15    1    3    3    0    0 -0.15278938464E+01 -0.33843481743E+02 -0.33238037993E+01  0.34086964030E+02  0.17770000000E+01 0. -1.
</event>
<event>
 8    1  0.3345745E-006  0.1925620E+03  0.7546771E-02  0.1060716E+00
        -11   -1    0    0    0    0  0.00000000000E+00  0.00000000000E+00  0.18250000000E+03  0.18250000000E+03  0.00000000000E+00 0.  1.
         11   -1    0    0    0    0 -0.00000000000E+00 -0.00000000000E+00 -0.18250000000E+03  0.18250000000E+03  0.00000000000E+00 0. -1.
         25    2    1    2    0    0 -0.97410461271E+02  0.10929804882E+03 -0.44395776050E+01  0.19256204768E+03  0.12500228364E+03 0.  0.
         23    2    1    2    0    0  0.97410461271E+02 -0.10929804882E+03  0.44395776050E+01  0.17243795232E+03  0.90996022495E+02 0.  0.
        -11    1    4    4    0    0  0.60367186429E+02 -0.86529429376E+02  0.43372895438E+02  0.11407342988E+03  0.00000000000E+00 0.  1.
         11    1    4    4    0    0  0.37043274841E+02 -0.22768619447E+02 -0.38933317833E+02  0.58364522443E+02  0.00000000000E+00 0. -1.
        -15    1    3    3    0    0 -0.15166730534E+02  0.34799126905E+02 -0.57991836912E+02  0.69334117329E+02  0.17770000000E+01 0.  1.
         15    1    3    3    0    0 -0.82243730737E+02  0.74498921918E+02  0.53552259307E+02  0.12322793035E+03  0.17770000000E+01 0.  1.
</event>
<event>
 8    1  0.3521340E-006  0.1915998E+03  0.7546771E-02  0.1061434E+00
        -11   -1    0    0    0    0  0.00000000000E+00  0.00000000000E+00  0.18250000000E+03  0.18250000000E+03  0.00000000000E+00 0.  1.
         11   -1    0    0    0    0 -0.00000000000E+00 -0.00000000000E+00 -0.18250000000E+03  0.18250000000E+03  0.00000000000E+00 0. -1.
         25    2    1    2    0    0 -0.13811738957E+03  0.44388910476E+02 -0.62765463869E+01  0.19159978051E+03  0.12499716869E+03 0.  0.
         23    2    1    2    0    0  0.13811738957E+03 -0.44388910476E+02  0.62765463869E+01  0.17340021949E+03  0.94770525018E+02 0.  0.
        -11    1    4    4    0    0  0.99786081894E+02 -0.38369155722E+02  0.47325637060E+02  0.11691522644E+03  0.00000000000E+00 0.  1.
         11    1    4    4    0    0  0.38331307672E+02 -0.60197547545E+01 -0.41049090673E+02  0.56484993053E+02  0.00000000000E+00 0. -1.
        -15    1    3    3    0    0 -0.10958063746E+02  0.23386333329E+02 -0.49325920248E+02  0.55706407935E+02  0.17770000000E+01 0.  1.
         15    1    3    3    0    0 -0.12715932582E+03  0.21002577148E+02  0.43049373862E+02  0.13589337257E+03  0.17770000000E+01 0.  1.
</event>
<event>
 8    1  0.3345745E-006  0.1909192E+03  0.7546771E-02  0.1061944E+00
        -11   -1    0    0    0    0  0.00000000000E+00  0.00000000000E+00  0.18250000000E+03  0.18250000000E+03  0.00000000000E+00 0.  1.
         11   -1    0    0    0    0 -0.00000000000E+00 -0.00000000000E+00 -0.18250000000E+03  0.18250000000E+03  0.00000000000E+00 0. -1.
         25    2    1    2    0    0  0.83418890493E+02 -0.73224650105E+02  0.92219438148E+02  0.19091918080E+03  0.12500059260E+03 0.  0.
         23    2    1    2    0    0 -0.83418890493E+02  0.73224650105E+02 -0.92219438148E+02  0.17408081920E+03  0.97360906766E+02 0.  0.
        -11    1    4    4    0    0  0.60080290917E+00  0.60989285769E+02 -0.51911584676E+02  0.80092862143E+02  0.00000000000E+00 0.  1.
         11    1    4    4    0    0 -0.84019693402E+02  0.12235364336E+02 -0.40307853472E+02  0.93987957055E+02  0.00000000000E+00 0. -1.
        -15    1    3    3    0    0  0.21363407546E+02 -0.26692292334E+02 -0.30421323206E+02  0.45798343711E+02  0.17770000000E+01 0. -1.
         15    1    3    3    0    0  0.62055482947E+02 -0.46532357770E+02  0.12264076135E+03  0.14512083709E+03  0.17770000000E+01 0. -1.
</event>
<event>
 8    1  0.3345745E-006  0.1922600E+03  0.7546771E-02  0.1060941E+00
        -11   -1    0    0    0    0  0.00000000000E+00  0.00000000000E+00  0.18250000000E+03  0.18250000000E+03  0.00000000000E+00 0.  1.
         11   -1    0    0    0    0 -0.00000000000E+00 -0.00000000000E+00 -0.18250000000E+03  0.18250000000E+03  0.00000000000E+00 0. -1.
         25    2    1    2    0    0  0.60988597541E+02 -0.12876710205E+03  0.32148850333E+02  0.19225995852E+03  0.12501906843E+03 0.  0.
         23    2    1    2    0    0 -0.60988597541E+02  0.12876710205E+03 -0.32148850333E+02  0.17274004148E+03  0.92222544708E+02 0.  0.
        -11    1    4    4    0    0 -0.32365054422E+02  0.10856147677E+03 -0.59807625911E+02  0.12810169048E+03  0.00000000000E+00 0. -1.
         11    1    4    4    0    0 -0.28623543119E+02  0.20205625278E+02  0.27658775578E+02  0.44638351000E+02  0.00000000000E+00 0.  1.
        -15    1    3    3    0    0 -0.12171109454E+02 -0.11198131183E+03  0.32243141362E+02  0.11717818909E+03  0.17770000000E+01 0.  1.
         15    1    3    3    0    0  0.73159706995E+02 -0.16785790219E+02 -0.94291028794E-01  0.75081769429E+02  0.17770000000E+01 0.  1.
</event>
<event>
 8    1  0.3345745E-006  0.1925714E+03  0.7546771E-02  0.1060709E+00
        -11   -1    0    0    0    0  0.00000000000E+00  0.00000000000E+00  0.18250000000E+03  0.18250000000E+03  0.00000000000E+00 0.  1.
         11   -1    0    0    0    0 -0.00000000000E+00 -0.00000000000E+00 -0.18250000000E+03  0.18250000000E+03  0.00000000000E+00 0. -1.
         25    2    1    2    0    0 -0.58237770010E+02 -0.13365090094E+03 -0.14305685585E+02  0.19257143513E+03  0.12499961524E+03 0.  0.
         23    2    1    2    0    0  0.58237770010E+02  0.13365090094E+03  0.14305685585E+02  0.17242856487E+03  0.90954692923E+02 0.  0.
        -11    1    4    4    0    0  0.32019765092E+02  0.14113685375E+02 -0.25988023055E+02  0.43587140463E+02  0.00000000000E+00 0. -1.
         11    1    4    4    0    0  0.26218004918E+02  0.11953721556E+03  0.40293708640E+02  0.12884142441E+03  0.00000000000E+00 0.  1.
        -15    1    3    3    0    0  0.14046532988E+02  0.13073742887E+02 -0.21458159849E+02  0.28841605281E+02  0.17770000000E+01 0.  1.
         15    1    3    3    0    0 -0.72284302998E+02 -0.14672464383E+03  0.71524742640E+01  0.16372982985E+03  0.17770000000E+01 0.  1.
</event>
<event>
 8    1  0.3345745E-006  0.1924930E+03  0.7546771E-02  0.1060767E+00
        -11   -1    0    0    0    0  0.00000000000E+00  0.00000000000E+00  0.18250000000E+03  0.18250000000E+03  0.00000000000E+00 0. -1.
         11   -1    0    0    0    0 -0.00000000000E+00 -0.00000000000E+00 -0.18250000000E+03  0.18250000000E+03  0.00000000000E+00 0.  1.
         25    2    1    2    0    0  0.70476653587E+02 -0.12694307478E+03 -0.18601162198E+02  0.19249295216E+03  0.12500412178E+03 0.  0.
         23    2    1    2    0    0 -0.70476653587E+02  0.12694307478E+03  0.18601162198E+02  0.17250704784E+03  0.91275272565E+02 0.  0.
        -11    1    4    4    0    0 -0.35032113199E+02  0.31873573274E+02  0.47430780777E+02  0.67028744532E+02  0.00000000000E+00 0.  1.
         11    1    4    4    0    0 -0.35444540388E+02  0.95069501510E+02 -0.28829618579E+02  0.10547830330E+03  0.00000000000E+00 0. -1.
        -15    1    3    3    0    0  0.25124258791E+02 -0.10233671271E+03  0.41495026111E+02  0.11326529067E+03  0.17770000000E+01 0. -1.
         15    1    3    3    0    0  0.45352394795E+02 -0.24606362069E+02 -0.60096188309E+02  0.79227661496E+02  0.17770000000E+01 0. -1.
</event>
<event>
 8    1  0.3345745E-006  0.1922593E+03  0.7546771E-02  0.1060941E+00
        -11   -1    0    0    0    0  0.00000000000E+00  0.00000000000E+00  0.18250000000E+03  0.18250000000E+03  0.00000000000E+00 0.  1.
         11   -1    0    0    0    0 -0.00000000000E+00 -0.00000000000E+00 -0.18250000000E+03  0.18250000000E+03  0.00000000000E+00 0. -1.
         25    2    1    2    0    0 -0.60734013121E+02 -0.12149683280E+03 -0.53793041697E+02  0.19225931149E+03  0.12497940146E+03 0.  0.
         23    2    1    2    0    0  0.60734013121E+02  0.12149683280E+03  0.53793041697E+02  0.17274068851E+03  0.92171326339E+02 0.  0.
        -11    1    4    4    0    0 -0.19958357853E+00  0.94498923872E+02  0.47589875569E+02  0.10580587273E+03  0.00000000000E+00 0.  1.
         11    1    4    4    0    0  0.60933596699E+02  0.26997908932E+02  0.62031661281E+01  0.66934815780E+02  0.00000000000E+00 0. -1.
        -15    1    3    3    0    0  0.33957234507E+02 -0.65751735967E+02 -0.13716975477E+02  0.75284113220E+02  0.17770000000E+01 0.  1.
         15    1    3    3    0    0 -0.94691247628E+02 -0.55745096838E+02 -0.40076066220E+02  0.11697519827E+03  0.17770000000E+01 0.  1.
</event>
<event>
 8    1  0.3345745E-006  0.1930003E+03  0.7546771E-02  0.1060391E+00
        -11   -1    0    0    0    0  0.00000000000E+00  0.00000000000E+00  0.18250000000E+03  0.18250000000E+03  0.00000000000E+00 0.  1.
         11   -1    0    0    0    0 -0.00000000000E+00 -0.00000000000E+00 -0.18250000000E+03  0.18250000000E+03  0.00000000000E+00 0. -1.
         25    2    1    2    0    0 -0.71865403638E+02  0.16086070660E+01  0.12828373279E+03  0.19300027030E+03  0.12500065752E+03 0.  0.
         23    2    1    2    0    0  0.71865403638E+02 -0.16086070660E+01 -0.12828373279E+03  0.17199972970E+03  0.89218647512E+02 0.  0.
        -11    1    4    4    0    0  0.14140627075E+02  0.23784777913E+02  0.14939094023E+01  0.27711094525E+02  0.00000000000E+00 0.  1.
         11    1    4    4    0    0  0.57724776562E+02 -0.25393384979E+02 -0.12977764219E+03  0.14428863518E+03  0.00000000000E+00 0. -1.
        -15    1    3    3    0    0 -0.92193636510E+02  0.39296023110E+02  0.10040255966E+03  0.14187204009E+03  0.17770000000E+01 0. -1.
         15    1    3    3    0    0  0.20328232872E+02 -0.37687416044E+02  0.27881173130E+02  0.51128230205E+02  0.17770000000E+01 0. -1.
</event>
<event>
 8    1  0.3345745E-006  0.1923203E+03  0.7546771E-02  0.1060896E+00
        -11   -1    0    0    0    0  0.00000000000E+00  0.00000000000E+00  0.18250000000E+03  0.18250000000E+03  0.00000000000E+00 0. -1.
         11   -1    0    0    0    0 -0.00000000000E+00 -0.00000000000E+00 -0.18250000000E+03  0.18250000000E+03  0.00000000000E+00 0.  1.
         25    2    1    2    0    0 -0.48696013020E+02 -0.13772555790E+03  0.46381308306E+01  0.19232033917E+03  0.12500387842E+03 0.  0.
         23    2    1    2    0    0  0.48696013020E+02  0.13772555790E+03 -0.46381308306E+01  0.17267966083E+03  0.91962612088E+02 0.  0.
        -11    1    4    4    0    0  0.72863377466E+02  0.90220927498E+02 -0.18915427241E+02  0.11750183370E+03  0.00000000000E+00 0.  1.
         11    1    4    4    0    0 -0.24167364445E+02  0.47504630403E+02  0.14277296410E+02  0.55177827129E+02  0.00000000000E+00 0. -1.
        -15    1    3    3    0    0 -0.19323832600E+02 -0.15196869052E+03  0.22851308771E+02  0.15489749335E+03  0.17770000000E+01 0.  1.
         15    1    3    3    0    0 -0.29372180420E+02  0.14243132623E+02 -0.18213177941E+02  0.37422845820E+02  0.17770000000E+01 0.  1.
</event>
<event>
 8    1  0.3345745E-006  0.1923157E+03  0.7546771E-02  0.1060899E+00
        -11   -1    0    0    0    0  0.00000000000E+00  0.00000000000E+00  0.18250000000E+03  0.18250000000E+03  0.00000000000E+00 0.  1.
         11   -1    0    0    0    0 -0.00000000000E+00 -0.00000000000E+00 -0.18250000000E+03  0.18250000000E+03  0.00000000000E+00 0. -1.
         25    2    1    2    0    0  0.94087383707E+02  0.37522527280E+02 -0.10533993460E+03  0.19231569736E+03  0.12501379846E+03 0.  0.
         23    2    1    2    0    0 -0.94087383707E+02 -0.37522527280E+02  0.10533993460E+03  0.17268430264E+03  0.91994514675E+02 0.  0.
        -11    1    4    4    0    0 -0.82765068810E+02 -0.29469548219E+02  0.25268952965E+02  0.91416797534E+02  0.00000000000E+00 0. -1.
         11    1    4    4    0    0 -0.11322314897E+02 -0.80529790610E+01  0.80070981630E+02  0.81267505103E+02  0.00000000000E+00 0.  1.
        -15    1    3    3    0    0  0.75690842092E+02  0.46321533881E+02 -0.13177661051E+03  0.15888052393E+03  0.17770000000E+01 0. -1.
         15    1    3    3    0    0  0.18396541615E+02 -0.87990066006E+01  0.26436675911E+02  0.33435173437E+02  0.17770000000E+01 0. -1.
</event>
<event>
 8    1  0.3345745E-006  0.1921795E+03  0.7546771E-02  0.1061001E+00
        -11   -1    0    0    0    0  0.00000000000E+00  0.00000000000E+00  0.18250000000E+03  0.18250000000E+03  0.00000000000E+00 0.  1.
         11   -1    0    0    0    0 -0.00000000000E+00 -0.00000000000E+00 -0.18250000000E+03  0.18250000000E+03  0.00000000000E+00 0. -1.
         25    2    1    2    0    0  0.20588447079E+02  0.11320436822E+03  0.89825466445E+02  0.19217954604E+03  0.12500100143E+03 0.  0.
         23    2    1    2    0    0 -0.20588447079E+02 -0.11320436822E+03 -0.89825466445E+02  0.17282045396E+03  0.92515845919E+02 0.  0.
        -11    1    4    4    0    0 -0.30315833190E+02 -0.17098530324E+02 -0.63966033373E+02  0.72822131985E+02  0.00000000000E+00 0. -1.
         11    1    4    4    0    0  0.97273861116E+01 -0.96105837896E+02 -0.25859433071E+02  0.99998321971E+02  0.00000000000E+00 0.  1.
        -15    1    3    3    0    0 -0.11253983828E+02  0.15562133223E+02 -0.29177826901E+02  0.34976212690E+02  0.17770000000E+01 0. -1.
         15    1    3    3    0    0  0.31842430907E+02  0.97642234997E+02  0.11900329335E+03  0.15720333335E+03  0.17770000000E+01 0. -1.
</event>
<event>
 8    1  0.3345745E-006  0.1939606E+03  0.7546771E-02  0.1059681E+00
        -11   -1    0    0    0    0  0.00000000000E+00  0.00000000000E+00  0.18250000000E+03  0.18250000000E+03  0.00000000000E+00 0.  1.
         11   -1    0    0    0    0 -0.00000000000E+00 -0.00000000000E+00 -0.18250000000E+03  0.18250000000E+03  0.00000000000E+00 0. -1.
         25    2    1    2    0    0  0.12120075531E+03 -0.75959483272E+02 -0.39181442611E+02  0.19396061196E+03  0.12500426936E+03 0.  0.
         23    2    1    2    0    0 -0.12120075531E+03  0.75959483272E+02  0.39181442611E+02  0.17103938804E+03  0.85204581037E+02 0.  0.
        -11    1    4    4    0    0 -0.51868024239E+02  0.15981754011E+02 -0.24365890908E+02  0.59492899067E+02  0.00000000000E+00 0. -1.
         11    1    4    4    0    0 -0.69332731072E+02  0.59977729261E+02  0.63547333518E+02  0.11154648897E+03  0.00000000000E+00 0.  1.
        -15    1    3    3    0    0  0.12595319419E+03 -0.59850304223E+02 -0.72074749706E+02  0.15698469134E+03  0.17770000000E+01 0.  1.
         15    1    3    3    0    0 -0.47524388745E+01 -0.16109179049E+02  0.32893307095E+02  0.36975920618E+02  0.17770000000E+01 0.  1.
</event>
<event>
 8    1  0.3345745E-006  0.1925427E+03  0.7546771E-02  0.1060730E+00
        -11   -1    0    0    0    0  0.00000000000E+00  0.00000000000E+00  0.18250000000E+03  0.18250000000E+03  0.00000000000E+00 0.  1.
         11   -1    0    0    0    0 -0.00000000000E+00 -0.00000000000E+00 -0.18250000000E+03  0.18250000000E+03  0.00000000000E+00 0. -1.
         25    2    1    2    0    0  0.12943021160E+02  0.14201138994E+03 -0.33352349788E+02  0.19254272226E+03  0.12500225593E+03 0.  0.
         23    2    1    2    0    0 -0.12943021160E+02 -0.14201138994E+03  0.33352349788E+02  0.17245727774E+03  0.91073468914E+02 0.  0.
        -11    1    4    4    0    0 -0.34487336596E+02 -0.11968958020E+03  0.53397090500E+02  0.13552203241E+03  0.00000000000E+00 0.  1.
         11    1    4    4    0    0  0.21544315436E+02 -0.22321809743E+02 -0.20044740712E+02  0.36935245336E+02  0.00000000000E+00 0. -1.
        -15    1    3    3    0    0 -0.28012512530E+01  0.87413166200E+02 -0.80352396381E+02  0.11877951830E+03  0.17770000000E+01 0. -1.
         15    1    3    3    0    0  0.15744272413E+02  0.54598223743E+02  0.47000046593E+02  0.73763203960E+02  0.17770000000E+01 0. -1.
</event>
<event>
 8    1  0.3345745E-006  0.1919444E+03  0.7546771E-02  0.1061176E+00
        -11   -1    0    0    0    0  0.00000000000E+00  0.00000000000E+00  0.18250000000E+03  0.18250000000E+03  0.00000000000E+00 0. -1.
         11   -1    0    0    0    0 -0.00000000000E+00 -0.00000000000E+00 -0.18250000000E+03  0.18250000000E+03  0.00000000000E+00 0.  1.
         25    2    1    2    0    0  0.10126042680E+03  0.34936139603E+02  0.98711753930E+02  0.19194439126E+03  0.12499772432E+03 0.  0.
         23    2    1    2    0    0 -0.10126042680E+03 -0.34936139603E+02 -0.98711753930E+02  0.17305560874E+03  0.93434605298E+02 0.  0.
        -11    1    4    4    0    0 -0.15993348088E+01 -0.41663001704E+02 -0.22227749515E+02  0.47248665921E+02  0.00000000000E+00 0.  1.
         11    1    4    4    0    0 -0.99661091994E+02  0.67268621012E+01 -0.76484004415E+02  0.12580694282E+03  0.00000000000E+00 0. -1.
        -15    1    3    3    0    0  0.15160463142E+02 -0.25163749238E+01  0.96786260055E+02  0.98014844029E+02  0.17770000000E+01 0.  1.
         15    1    3    3    0    0  0.86099963660E+02  0.37452514526E+02  0.19254938750E+01  0.93929547227E+02  0.17770000000E+01 0.  1.
</event>
<event>
 8    1  0.3345745E-006  0.1926210E+03  0.7546771E-02  0.1060672E+00
        -11   -1    0    0    0    0  0.00000000000E+00  0.00000000000E+00  0.18250000000E+03  0.18250000000E+03  0.00000000000E+00 0.  1.
         11   -1    0    0    0    0 -0.00000000000E+00 -0.00000000000E+00 -0.18250000000E+03  0.18250000000E+03  0.00000000000E+00 0. -1.
         25    2    1    2    0    0 -0.78979707819E+02  0.28498872289E+02  0.12011510517E+03  0.19262095383E+03  0.12500085358E+03 0.  0.
         23    2    1    2    0    0  0.78979707819E+02 -0.28498872289E+02 -0.12011510517E+03  0.17237904617E+03  0.90757463047E+02 0.  0.
        -11    1    4    4    0    0  0.50246200128E+02 -0.55514727012E+02 -0.10743058400E+03  0.13094997488E+03  0.00000000000E+00 0. -1.
         11    1    4    4    0    0  0.28733507691E+02  0.27015854723E+02 -0.12684521176E+02  0.41429071292E+02  0.00000000000E+00 0.  1.
        -15    1    3    3    0    0 -0.60720654476E+02 -0.18229108853E+02  0.12699519844E+03  0.14195152850E+03  0.17770000000E+01 0. -1.
         15    1    3    3    0    0 -0.18259053342E+02  0.46727981142E+02 -0.68800932658E+01  0.50669425327E+02  0.17770000000E+01 0. -1.
</event>
<event>
 8    1  0.3345745E-006  0.1925859E+03  0.7546771E-02  0.1060698E+00
        -11   -1    0    0    0    0  0.00000000000E+00  0.00000000000E+00  0.18250000000E+03  0.18250000000E+03  0.00000000000E+00 0.  1.
         11   -1    0    0    0    0 -0.00000000000E+00 -0.00000000000E+00 -0.18250000000E+03  0.18250000000E+03  0.00000000000E+00 0. -1.
         25    2    1    2    0    0  0.12698941693E+03 -0.71296085500E+02  0.15954158907E+02  0.19258594590E+03  0.12500147020E+03 0.  0.
         23    2    1    2    0    0 -0.12698941693E+03  0.71296085500E+02 -0.15954158907E+02  0.17241405410E+03  0.90898993639E+02 0.  0.
        -11    1    4    4    0    0 -0.66559256248E+02 -0.95722637331E+01 -0.23369473942E+02  0.71189150420E+02  0.00000000000E+00 0.  1.
         11    1    4    4    0    0 -0.60430160683E+02  0.80868349233E+02  0.74153150353E+01  0.10122490368E+03  0.00000000000E+00 0. -1.
        -15    1    3    3    0    0  0.99230272070E+02  0.81269469565E+01 -0.19152640484E+02  0.10140352819E+03  0.17770000000E+01 0.  1.
         15    1    3    3    0    0  0.27759144861E+02 -0.79423032456E+02  0.35106799391E+02  0.91182417715E+02  0.17770000000E+01 0.  1.
</event>
<event>
 8    1  0.3345745E-006  0.1922004E+03  0.7546771E-02  0.1060985E+00
        -11   -1    0    0    0    0  0.00000000000E+00  0.00000000000E+00  0.18250000000E+03  0.18250000000E+03  0.00000000000E+00 0.  1.
         11   -1    0    0    0    0 -0.00000000000E+00 -0.00000000000E+00 -0.18250000000E+03  0.18250000000E+03  0.00000000000E+00 0. -1.
         25    2    1    2    0    0  0.12033200231E+03  0.79290616941E+02  0.23406555006E+02  0.19220038653E+03  0.12500531610E+03 0.  0.
         23    2    1    2    0    0 -0.12033200231E+03 -0.79290616941E+02 -0.23406555006E+02  0.17279961347E+03  0.92439422777E+02 0.  0.
        -11    1    4    4    0    0 -0.13344631678E+03 -0.69941446796E+02 -0.32746214367E+02  0.15418184068E+03  0.00000000000E+00 0. -1.
         11    1    4    4    0    0  0.13114314471E+02 -0.93491701450E+01  0.93396593609E+01  0.18617772784E+02  0.00000000000E+00 0.  1.
        -15    1    3    3    0    0  0.92522695630E+02  0.50547455302E+02 -0.43633850166E+02  0.11411645391E+03  0.17770000000E+01 0. -1.
         15    1    3    3    0    0  0.27809306676E+02  0.28743161639E+02  0.67040405173E+02  0.78083932621E+02  0.17770000000E+01 0. -1.
</event>
<event>
 8    1  0.3345745E-006  0.1921429E+03  0.7546771E-02  0.1061028E+00
        -11   -1    0    0    0    0  0.00000000000E+00  0.00000000000E+00  0.18250000000E+03  0.18250000000E+03  0.00000000000E+00 0.  1.
         11   -1    0    0    0    0 -0.00000000000E+00 -0.00000000000E+00 -0.18250000000E+03  0.18250000000E+03  0.00000000000E+00 0. -1.
         25    2    1    2    0    0 -0.10730722376E+03  0.51079756372E+02 -0.84671567131E+02  0.19214290100E+03  0.12500255335E+03 0.  0.
         23    2    1    2    0    0  0.10730722376E+03 -0.51079756372E+02  0.84671567131E+02  0.17285709900E+03  0.92662401282E+02 0.  0.
        -11    1    4    4    0    0  0.44437453377E+02 -0.54262711134E+02  0.84618983531E+02  0.10990678530E+03  0.00000000000E+00 0.  1.
         11    1    4    4    0    0  0.62869770383E+02  0.31829547617E+01  0.52583600227E-01  0.62950313693E+02  0.00000000000E+00 0. -1.
        -15    1    3    3    0    0 -0.10929251927E+03  0.74694566363E+02 -0.34783675333E+02  0.13688387345E+03  0.17770000000E+01 0.  1.
         15    1    3    3    0    0  0.19852955059E+01 -0.23614809991E+02 -0.49887891798E+02  0.55259027554E+02  0.17770000000E+01 0.  1.
</event>
<event>
 8    1  0.3345745E-006  0.1927107E+03  0.7546771E-02  0.1060606E+00
        -11   -1    0    0    0    0  0.00000000000E+00  0.00000000000E+00  0.18250000000E+03  0.18250000000E+03  0.00000000000E+00 0.  1.
         11   -1    0    0    0    0 -0.00000000000E+00 -0.00000000000E+00 -0.18250000000E+03  0.18250000000E+03  0.00000000000E+00 0. -1.
         25    2    1    2    0    0 -0.14271063563E+03 -0.10139070133E+02  0.32304166175E+02  0.19271071193E+03  0.12499893229E+03 0.  0.
         23    2    1    2    0    0  0.14271063563E+03  0.10139070133E+02 -0.32304166175E+02  0.17228928807E+03  0.90393104650E+02 0.  0.
        -11    1    4    4    0    0  0.29741615277E+02 -0.27261018217E+02  0.16608604353E+02  0.43629949943E+02  0.00000000000E+00 0.  1.
         11    1    4    4    0    0  0.11296902035E+03  0.37400088349E+02 -0.48912770528E+02  0.12865933813E+03  0.00000000000E+00 0. -1.
        -15    1    3    3    0    0  0.16480017141E+01  0.21597996815E+00 -0.33589015740E+02  0.33677028735E+02  0.17770000000E+01 0. -1.
         15    1    3    3    0    0 -0.14435863734E+03 -0.10355050101E+02  0.65893181915E+02  0.15903368319E+03  0.17770000000E+01 0. -1.
</event>
<event>
 8    1  0.3345745E-006  0.1925078E+03  0.7546771E-02  0.1060756E+00
        -11   -1    0    0    0    0  0.00000000000E+00  0.00000000000E+00  0.18250000000E+03  0.18250000000E+03  0.00000000000E+00 0. -1.
         11   -1    0    0    0    0 -0.00000000000E+00 -0.00000000000E+00 -0.18250000000E+03  0.18250000000E+03  0.00000000000E+00 0.  1.
         25    2    1    2    0    0  0.31671413118E+02  0.10573839281E+03 -0.96180919678E+02  0.19250780504E+03  0.12499919827E+03 0.  0.
         23    2    1    2    0    0 -0.31671413118E+02 -0.10573839281E+03  0.96180919678E+02  0.17249219496E+03  0.91209110772E+02 0.  0.
        -11    1    4    4    0    0 -0.49091754609E+02 -0.58263105063E+02  0.95172845032E+02  0.12191169023E+03  0.00000000000E+00 0. -1.
         11    1    4    4    0    0  0.17420341491E+02 -0.47475287748E+02  0.10080746464E+01  0.50580504732E+02  0.00000000000E+00 0.  1.
        -15    1    3    3    0    0  0.69674189388E+01 -0.27735580321E+02 -0.29992715082E+02  0.41479248178E+02  0.17770000000E+01 0. -1.
         15    1    3    3    0    0  0.24703994179E+02  0.13347397313E+03 -0.66188204597E+02  0.15102855687E+03  0.17770000000E+01 0. -1.
</event>
<event>
 8    1  0.3345745E-006  0.1927772E+03  0.7546771E-02  0.1060556E+00
        -11   -1    0    0    0    0  0.00000000000E+00  0.00000000000E+00  0.18250000000E+03  0.18250000000E+03  0.00000000000E+00 0.  1.
         11   -1    0    0    0    0 -0.00000000000E+00 -0.00000000000E+00 -0.18250000000E+03  0.18250000000E+03  0.00000000000E+00 0. -1.
         25    2    1    2    0    0  0.45213592214E+01  0.14659523083E+03 -0.53496948354E+01  0.19277718229E+03  0.12499527344E+03 0.  0.
         23    2    1    2    0    0 -0.45213592214E+01 -0.14659523083E+03  0.53496948354E+01  0.17222281771E+03  0.90119228321E+02 0.  0.
        -11    1    4    4    0    0  0.42638905969E+02 -0.76974837376E+02  0.49011133571E+01  0.88131848973E+02  0.00000000000E+00 0.  1.
         11    1    4    4    0    0 -0.47160265190E+02 -0.69620393459E+02  0.44858147823E+00  0.84090968739E+02  0.00000000000E+00 0. -1.
        -15    1    3    3    0    0  0.28079667764E+02  0.22137258693E+02 -0.47309444602E+02  0.59328469066E+02  0.17770000000E+01 0. -1.
         15    1    3    3    0    0 -0.23558308542E+02  0.12445797214E+03  0.41959749767E+02  0.13344871322E+03  0.17770000000E+01 0. -1.
</event>
<event>
 8    1  0.3345745E-006  0.1913192E+03  0.7546771E-02  0.1061644E+00
        -11   -1    0    0    0    0  0.00000000000E+00  0.00000000000E+00  0.18250000000E+03  0.18250000000E+03  0.00000000000E+00 0.  1.
         11   -1    0    0    0    0 -0.00000000000E+00 -0.00000000000E+00 -0.18250000000E+03  0.18250000000E+03  0.00000000000E+00 0. -1.
         25    2    1    2    0    0  0.43010633804E+02 -0.13800517695E+03  0.93738556528E+01  0.19131920814E+03  0.12497930528E+03 0.  0.
         23    2    1    2    0    0 -0.43010633804E+02  0.13800517695E+03 -0.93738556528E+01  0.17368079186E+03  0.95821734513E+02 0.  0.
        -11    1    4    4    0    0 -0.44217773066E+02  0.85521841073E+02  0.37480910433E+02  0.10331512669E+03  0.00000000000E+00 0.  1.
         11    1    4    4    0    0  0.12071392612E+01  0.52483335879E+02 -0.46854766086E+02  0.70365665173E+02  0.00000000000E+00 0. -1.
        -15    1    3    3    0    0  0.40156702311E+02 -0.13649570753E+03  0.49778290814E+02  0.15074705596E+03  0.17770000000E+01 0.  1.
         15    1    3    3    0    0  0.28539314935E+01 -0.15094694198E+01 -0.40404435162E+02  0.40572152181E+02  0.17770000000E+01 0.  1.
</event>
<event>
 8    1  0.3345745E-006  0.1929379E+03  0.7546771E-02  0.1060437E+00
        -11   -1    0    0    0    0  0.00000000000E+00  0.00000000000E+00  0.18250000000E+03  0.18250000000E+03  0.00000000000E+00 0. -1.
         11   -1    0    0    0    0 -0.00000000000E+00 -0.00000000000E+00 -0.18250000000E+03  0.18250000000E+03  0.00000000000E+00 0.  1.
         25    2    1    2    0    0 -0.41378595615E+02 -0.67210404142E+02  0.12398161991E+03  0.19293788371E+03  0.12499663313E+03 0.  0.
         23    2    1    2    0    0  0.41378595615E+02  0.67210404142E+02 -0.12398161991E+03  0.17206211629E+03  0.89467889147E+02 0.  0.
        -11    1    4    4    0    0 -0.92117269227E+01 -0.17148098711E+02 -0.11385746750E+02  0.22551018410E+02  0.00000000000E+00 0. -1.
         11    1    4    4    0    0  0.50590322537E+02  0.84358502853E+02 -0.11259587316E+03  0.14951109788E+03  0.00000000000E+00 0.  1.
        -15    1    3    3    0    0  0.48539234800E+01 -0.19658013784E+02  0.12494202622E+03  0.12658461883E+03  0.17770000000E+01 0.  1.
         15    1    3    3    0    0 -0.46232519095E+02 -0.47552390358E+02 -0.96040631402E+00  0.66353264877E+02  0.17770000000E+01 0.  1.
</event>
<event>
 8    1  0.3345745E-006  0.1927504E+03  0.7546771E-02  0.1060576E+00
        -11   -1    0    0    0    0  0.00000000000E+00  0.00000000000E+00  0.18250000000E+03  0.18250000000E+03  0.00000000000E+00 0.  1.
         11   -1    0    0    0    0 -0.00000000000E+00 -0.00000000000E+00 -0.18250000000E+03  0.18250000000E+03  0.00000000000E+00 0. -1.
         25    2    1    2    0    0 -0.11646282151E+03 -0.81375497849E+02  0.36630706017E+02  0.19275042273E+03  0.12500142558E+03 0.  0.
         23    2    1    2    0    0  0.11646282151E+03  0.81375497849E+02 -0.36630706017E+02  0.17224957727E+03  0.90236067076E+02 0.  0.
        -11    1    4    4    0    0 -0.13329870794E+01  0.38067690558E+02 -0.26365852027E+02  0.46325846696E+02  0.00000000000E+00 0. -1.
         11    1    4    4    0    0  0.11779580859E+03  0.43307807290E+02 -0.10264853989E+02  0.12592373057E+03  0.00000000000E+00 0.  1.
        -15    1    3    3    0    0 -0.76059825112E+02  0.87632192973E+01  0.52275070755E+02  0.92723954618E+02  0.17770000000E+01 0. -1.
         15    1    3    3    0    0 -0.40402996397E+02 -0.90138717146E+02 -0.15644364739E+02  0.10002646812E+03  0.17770000000E+01 0. -1.
</event>
<event>
 8    1  0.3345745E-006  0.1920308E+03  0.7546771E-02  0.1061112E+00
        -11   -1    0    0    0    0  0.00000000000E+00  0.00000000000E+00  0.18250000000E+03  0.18250000000E+03  0.00000000000E+00 0.  1.
         11   -1    0    0    0    0 -0.00000000000E+00 -0.00000000000E+00 -0.18250000000E+03  0.18250000000E+03  0.00000000000E+00 0. -1.
         25    2    1    2    0    0 -0.24617252539E+02 -0.14263686356E+03  0.17259664685E+02  0.19203081970E+03  0.12500662271E+03 0.  0.
         23    2    1    2    0    0  0.24617252539E+02  0.14263686356E+03 -0.17259664685E+02  0.17296918030E+03  0.93108309730E+02 0.  0.
        -11    1    4    4    0    0  0.29261103971E+02  0.84604991320E+01  0.16348697361E+02  0.34569815686E+02  0.00000000000E+00 0.  1.
         11    1    4    4    0    0 -0.46438514317E+01  0.13417636442E+03 -0.33608362046E+02  0.13839936461E+03  0.00000000000E+00 0. -1.
        -15    1    3    3    0    0  0.15108449319E+02  0.19260782814E+02  0.22341682525E+01  0.24645328811E+02  0.17770000000E+01 0. -1.
         15    1    3    3    0    0 -0.39725701858E+02 -0.16189764637E+03  0.15025496432E+02  0.16738549089E+03  0.17770000000E+01 0. -1.
</event>
<event>
 8    1  0.3345745E-006  0.1920997E+03  0.7546771E-02  0.1061060E+00
        -11   -1    0    0    0    0  0.00000000000E+00  0.00000000000E+00  0.18250000000E+03  0.18250000000E+03  0.00000000000E+00 0.  1.
         11   -1    0    0    0    0 -0.00000000000E+00 -0.00000000000E+00 -0.18250000000E+03  0.18250000000E+03  0.00000000000E+00 0. -1.
         25    2    1    2    0    0  0.90712254354E+02  0.10688337797E+03  0.40311815141E+02  0.19209974489E+03  0.12499799987E+03 0.  0.
         23    2    1    2    0    0 -0.90712254354E+02 -0.10688337797E+03 -0.40311815141E+02  0.17290025511E+03  0.92826107329E+02 0.  0.
        -11    1    4    4    0    0 -0.13565116211E+02 -0.65850158981E+02  0.15787077879E+02  0.69061477277E+02  0.00000000000E+00 0.  1.
         11    1    4    4    0    0 -0.77147138143E+02 -0.41033218985E+02 -0.56098893021E+02  0.10383877783E+03  0.00000000000E+00 0. -1.
        -15    1    3    3    0    0  0.12013026886E+03  0.94541597829E+02  0.19865126412E+02  0.15416606693E+03  0.17770000000E+01 0. -1.
         15    1    3    3    0    0 -0.29418014507E+02  0.12341780138E+02  0.20446688729E+02  0.37933677959E+02  0.17770000000E+01 0. -1.
</event>
<event>
 8    1  0.3345745E-006  0.1919087E+03  0.7546771E-02  0.1061203E+00
        -11   -1    0    0    0    0  0.00000000000E+00  0.00000000000E+00  0.18250000000E+03  0.18250000000E+03  0.00000000000E+00 0. -1.
         11   -1    0    0    0    0 -0.00000000000E+00 -0.00000000000E+00 -0.18250000000E+03  0.18250000000E+03  0.00000000000E+00 0.  1.
         25    2    1    2    0    0 -0.12161100866E+03 -0.79511952296E+02  0.93311099689E+01  0.19190867898E+03  0.12502193195E+03 0.  0.
         23    2    1    2    0    0  0.12161100866E+03  0.79511952296E+02 -0.93311099689E+01  0.17309132102E+03  0.93606344942E+02 0.  0.
        -11    1    4    4    0    0  0.65954061030E+02  0.81481390351E+02  0.24866424954E+02  0.10773808161E+03  0.00000000000E+00 0. -1.
         11    1    4    4    0    0  0.55656947635E+02 -0.19694380550E+01 -0.34197534923E+02  0.65353239408E+02  0.00000000000E+00 0.  1.
        -15    1    3    3    0    0 -0.79473182617E+02 -0.97638465455E+02 -0.32249605931E+02  0.12997096408E+03  0.17770000000E+01 0.  1.
         15    1    3    3    0    0 -0.42137826048E+02  0.18126513159E+02  0.41580715900E+02  0.61937714901E+02  0.17770000000E+01 0.  1.
</event>
<event>
 8    1  0.3345745E-006  0.1922583E+03  0.7546771E-02  0.1060942E+00
        -11   -1    0    0    0    0  0.00000000000E+00  0.00000000000E+00  0.18250000000E+03  0.18250000000E+03  0.00000000000E+00 0.  1.
         11   -1    0    0    0    0 -0.00000000000E+00 -0.00000000000E+00 -0.18250000000E+03  0.18250000000E+03  0.00000000000E+00 0. -1.
         25    2    1    2    0    0  0.70660391263E+02  0.10348305967E+03 -0.75050680150E+02  0.19225828254E+03  0.12501603131E+03 0.  0.
         23    2    1    2    0    0 -0.70660391263E+02 -0.10348305967E+03  0.75050680150E+02  0.17274171746E+03  0.92225060730E+02 0.  0.
        -11    1    4    4    0    0 -0.66743521642E+02 -0.40583676604E+02  0.77007722735E+02  0.10969011737E+03  0.00000000000E+00 0. -1.
         11    1    4    4    0    0 -0.39168696208E+01 -0.62899383066E+02 -0.19570425845E+01  0.63051600086E+02  0.00000000000E+00 0.  1.
        -15    1    3    3    0    0  0.66925053733E+02  0.10842699940E+03 -0.10282718719E+03  0.16374359582E+03  0.17770000000E+01 0. -1.
         15    1    3    3    0    0  0.37353375301E+01 -0.49439397327E+01  0.27776507043E+02  0.28514686725E+02  0.17770000000E+01 0. -1.
</event>
<event>
 8    1  0.3345745E-006  0.1925061E+03  0.7546771E-02  0.1060758E+00
        -11   -1    0    0    0    0  0.00000000000E+00  0.00000000000E+00  0.18250000000E+03  0.18250000000E+03  0.00000000000E+00 0.  1.
         11   -1    0    0    0    0 -0.00000000000E+00 -0.00000000000E+00 -0.18250000000E+03  0.18250000000E+03  0.00000000000E+00 0. -1.
         25    2    1    2    0    0 -0.12908504867E+03 -0.44896085515E+02  0.52482791373E+02  0.19250611181E+03  0.12500220562E+03 0.  0.
         23    2    1    2    0    0  0.12908504867E+03  0.44896085515E+02 -0.52482791373E+02  0.17249388819E+03  0.91220007605E+02 0.  0.
        -11    1    4    4    0    0  0.53433307897E+02  0.57532033738E+02 -0.54814888767E+02  0.95758682789E+02  0.00000000000E+00 0. -1.
         11    1    4    4    0    0  0.75651740773E+02 -0.12635948224E+02  0.23320973941E+01  0.76735205400E+02  0.00000000000E+00 0.  1.
        -15    1    3    3    0    0 -0.50234293668E+02  0.20111640712E+02 -0.29341293256E+02  0.61579473620E+02  0.17770000000E+01 0.  1.
         15    1    3    3    0    0 -0.78850755003E+02 -0.65007726227E+02  0.81824084629E+02  0.13092663819E+03  0.17770000000E+01 0.  1.
</event>
<event>
 8    1  0.3345745E-006  0.1921085E+03  0.7546771E-02  0.1061054E+00
        -11   -1    0    0    0    0  0.00000000000E+00  0.00000000000E+00  0.18250000000E+03  0.18250000000E+03  0.00000000000E+00 0. -1.
         11   -1    0    0    0    0 -0.00000000000E+00 -0.00000000000E+00 -0.18250000000E+03  0.18250000000E+03  0.00000000000E+00 0.  1.
         25    2    1    2    0    0  0.68132755860E+02  0.92079188102E+02 -0.90341665545E+02  0.19210851250E+03  0.12499365880E+03 0.  0.
         23    2    1    2    0    0 -0.68132755860E+02 -0.92079188102E+02  0.90341665545E+02  0.17289148750E+03  0.92785778075E+02 0.  0.
        -11    1    4    4    0    0 -0.30871936643E+02 -0.84282253190E+02  0.99226944012E+02  0.13380045251E+03  0.00000000000E+00 0. -1.
         11    1    4    4    0    0 -0.37260819216E+02 -0.77969349118E+01 -0.88852784664E+01  0.39091034984E+02  0.00000000000E+00 0.  1.
        -15    1    3    3    0    0  0.72521197566E+02  0.83825853487E+02 -0.10112609165E+02  0.11131720623E+03  0.17770000000E+01 0. -1.
         15    1    3    3    0    0 -0.43884417067E+01  0.82533346148E+01 -0.80229056381E+02  0.80791306275E+02  0.17770000000E+01 0. -1.
</event>
