<event>
 8    1  0.2370702E-007  0.5036441E+03  0.7546771E-02  0.9391692E-01
        -11   -1    0    0    0    0  0.00000000000E+00  0.00000000000E+00  0.50000000000E+03  0.50000000000E+03  0.00000000000E+00 0. -1.
         11   -1    0    0    0    0 -0.00000000000E+00 -0.00000000000E+00 -0.50000000000E+03  0.50000000000E+03  0.00000000000E+00 0.  1.
         25    2    1    2    0    0 -0.68164593709E+02 -0.45177890536E+03 -0.17110563366E+03  0.50364411391E+03  0.12501865639E+03 0.  0.
         23    2    1    2    0    0  0.68164593709E+02  0.45177890536E+03  0.17110563366E+03  0.49635588609E+03  0.91331465645E+02 0.  0.
        -11    1    4    4    0    0  0.44992008309E+02  0.38549086176E+03  0.17561269470E+03  0.42598979313E+03  0.00000000000E+00 0. -1.
         11    1    4    4    0    0  0.23172585400E+02  0.66288043606E+02 -0.45070610381E+01  0.70366092960E+02  0.00000000000E+00 0.  1.
        -15    1    3    3    0    0  0.92457004978E+01 -0.26092292055E+03 -0.53669261500E+02  0.26655168506E+03  0.17770000000E+01 0.  1.
         15    1    3    3    0    0 -0.77410294207E+02 -0.19085598481E+03 -0.11743637216E+03  0.23709242886E+03  0.17770000000E+01 0.  1.
</event>
<event>
 8    1  0.2370702E-007  0.5035731E+03  0.7546771E-02  0.9391850E-01
        -11   -1    0    0    0    0  0.00000000000E+00  0.00000000000E+00  0.50000000000E+03  0.50000000000E+03  0.00000000000E+00 0.  1.
         11   -1    0    0    0    0 -0.00000000000E+00 -0.00000000000E+00 -0.50000000000E+03  0.50000000000E+03  0.00000000000E+00 0. -1.
         25    2    1    2    0    0 -0.28615355371E+03 -0.38814997588E+03  0.73596863586E+02  0.50357309530E+03  0.12500041563E+03 0.  0.
         23    2    1    2    0    0  0.28615355371E+03  0.38814997588E+03 -0.73596863586E+02  0.49642690470E+03  0.92081014872E+02 0.  0.
        -11    1    4    4    0    0  0.18571497651E+03  0.30413008867E+03 -0.80383938090E+02  0.36530362828E+03  0.00000000000E+00 0. -1.
         11    1    4    4    0    0  0.10043857720E+03  0.84019887213E+02  0.67870745048E+01  0.13112327642E+03  0.00000000000E+00 0.  1.
        -15    1    3    3    0    0 -0.68339402851E+01  0.69249764939E+01 -0.82179090205E+01  0.12858841197E+02  0.17770000000E+01 0.  1.
         15    1    3    3    0    0 -0.27931961343E+03 -0.39507495237E+03  0.81814772606E+02  0.49071425411E+03  0.17770000000E+01 0.  1.
</event>
<event>
 8    1  0.2370702E-007  0.5036510E+03  0.7546771E-02  0.9391677E-01
        -11   -1    0    0    0    0  0.00000000000E+00  0.00000000000E+00  0.50000000000E+03  0.50000000000E+03  0.00000000000E+00 0.  1.
         11   -1    0    0    0    0 -0.00000000000E+00 -0.00000000000E+00 -0.50000000000E+03  0.50000000000E+03  0.00000000000E+00 0. -1.
         25    2    1    2    0    0  0.68415603934E+02  0.20201581550E+03  0.43880271712E+03  0.50365095391E+03  0.12500149699E+03 0.  0.
         23    2    1    2    0    0 -0.68415603934E+02 -0.20201581550E+03 -0.43880271712E+03  0.49634904609E+03  0.91233033613E+02 0.  0.
        -11    1    4    4    0    0 -0.44881338347E+02 -0.37290289505E+02 -0.17479847846E+03  0.18428078656E+03  0.00000000000E+00 0.  1.
         11    1    4    4    0    0 -0.23534265587E+02 -0.16472552600E+03 -0.26400423866E+03  0.31206825952E+03  0.00000000000E+00 0. -1.
        -15    1    3    3    0    0  0.22550223620E+02  0.78474572888E+01  0.15437961055E+03  0.15622521260E+03  0.17770000000E+01 0.  1.
         15    1    3    3    0    0  0.45865380314E+02  0.19416835822E+03  0.28442310657E+03  0.34742574131E+03  0.17770000000E+01 0.  1.
</event>
<event>
 8    1  0.2370702E-007  0.5038130E+03  0.7546771E-02  0.9391318E-01
        -11   -1    0    0    0    0  0.00000000000E+00  0.00000000000E+00  0.50000000000E+03  0.50000000000E+03  0.00000000000E+00 0.  1.
         11   -1    0    0    0    0 -0.00000000000E+00 -0.00000000000E+00 -0.50000000000E+03  0.50000000000E+03  0.00000000000E+00 0. -1.
         25    2    1    2    0    0 -0.13816259348E+03  0.43485467261E+03 -0.17324685776E+03  0.50381299053E+03  0.12500226864E+03 0.  0.
         23    2    1    2    0    0  0.13816259348E+03 -0.43485467261E+03  0.17324685776E+03  0.49618700947E+03  0.89440405384E+02 0.  0.
        -11    1    4    4    0    0  0.97840162270E+01 -0.42468065678E+02 -0.96475184081E+01  0.44635615683E+02  0.00000000000E+00 0.  1.
         11    1    4    4    0    0  0.12837857725E+03 -0.39238660694E+03  0.18289437617E+03  0.45155139379E+03  0.00000000000E+00 0. -1.
        -15    1    3    3    0    0 -0.10404113546E+03  0.18507547603E+03 -0.31659851917E+02  0.21466949865E+03  0.17770000000E+01 0. -1.
         15    1    3    3    0    0 -0.34121458016E+02  0.24977919658E+03 -0.14158700585E+03  0.28914349188E+03  0.17770000000E+01 0. -1.
</event>
<event>
 8    1  0.2370702E-007  0.5035898E+03  0.7546771E-02  0.9391813E-01
        -11   -1    0    0    0    0  0.00000000000E+00  0.00000000000E+00  0.50000000000E+03  0.50000000000E+03  0.00000000000E+00 0.  1.
         11   -1    0    0    0    0 -0.00000000000E+00 -0.00000000000E+00 -0.50000000000E+03  0.50000000000E+03  0.00000000000E+00 0. -1.
         25    2    1    2    0    0  0.34284694223E+03  0.27650851566E+03  0.20970416769E+03  0.50358981922E+03  0.12500353214E+03 0.  0.
         23    2    1    2    0    0 -0.34284694223E+03 -0.27650851566E+03 -0.20970416769E+03  0.49641018078E+03  0.91903452663E+02 0.  0.
        -11    1    4    4    0    0 -0.19513466604E+03 -0.10225172408E+03 -0.84844927587E+02  0.23607544283E+03  0.00000000000E+00 0. -1.
         11    1    4    4    0    0 -0.14771227619E+03 -0.17425679158E+03 -0.12485924010E+03  0.26033473795E+03  0.00000000000E+00 0.  1.
        -15    1    3    3    0    0  0.97937578241E+02  0.14484679365E+02  0.39813359959E+02  0.10672317709E+03  0.17770000000E+01 0.  1.
         15    1    3    3    0    0  0.24490936399E+03  0.26202383629E+03  0.16989080773E+03  0.39686664213E+03  0.17770000000E+01 0.  1.
</event>
<event>
 8    1  0.2370702E-007  0.5036061E+03  0.7546771E-02  0.9391777E-01
        -11   -1    0    0    0    0  0.00000000000E+00  0.00000000000E+00  0.50000000000E+03  0.50000000000E+03  0.00000000000E+00 0. -1.
         11   -1    0    0    0    0 -0.00000000000E+00 -0.00000000000E+00 -0.50000000000E+03  0.50000000000E+03  0.00000000000E+00 0.  1.
         25    2    1    2    0    0 -0.16795618237E+03 -0.44638912006E+03  0.10256756964E+03  0.50360607338E+03  0.12500578030E+03 0.  0.
         23    2    1    2    0    0  0.16795618237E+03  0.44638912006E+03 -0.10256756964E+03  0.49639392662E+03  0.91729484573E+02 0.  0.
        -11    1    4    4    0    0  0.13785070331E+03  0.29087684594E+03 -0.33620467334E+02  0.32363944712E+03  0.00000000000E+00 0.  1.
         11    1    4    4    0    0  0.30105479055E+02  0.15551227412E+03 -0.68947102308E+02  0.17275447950E+03  0.00000000000E+00 0. -1.
        -15    1    3    3    0    0 -0.44523538208E+02 -0.34762499239E+02 -0.14228647048E+02  0.58278546084E+02  0.17770000000E+01 0.  1.
         15    1    3    3    0    0 -0.12343264416E+03 -0.41162662082E+03  0.11679621669E+03  0.44532752730E+03  0.17770000000E+01 0.  1.
</event>
<event>
 8    1  0.2370702E-007  0.5036420E+03  0.7546771E-02  0.9391697E-01
        -11   -1    0    0    0    0  0.00000000000E+00  0.00000000000E+00  0.50000000000E+03  0.50000000000E+03  0.00000000000E+00 0.  1.
         11   -1    0    0    0    0 -0.00000000000E+00 -0.00000000000E+00 -0.50000000000E+03  0.50000000000E+03  0.00000000000E+00 0. -1.
         25    2    1    2    0    0  0.29953625004E+03 -0.79926412571E+02 -0.37672558605E+03  0.50364204466E+03  0.12499178153E+03 0.  0.
         23    2    1    2    0    0 -0.29953625004E+03  0.79926412571E+02  0.37672558605E+03  0.49635795534E+03  0.91317337539E+02 0.  0.
        -11    1    4    4    0    0 -0.20592506865E+03  0.10792588771E+02  0.22603504714E+03  0.30596316185E+03  0.00000000000E+00 0. -1.
         11    1    4    4    0    0 -0.93611181384E+02  0.69133823800E+02  0.15069053891E+03  0.19039479350E+03  0.00000000000E+00 0.  1.
        -15    1    3    3    0    0  0.18148929411E+03 -0.10631475385E+03 -0.27043660031E+03  0.34260808992E+03  0.17770000000E+01 0. -1.
         15    1    3    3    0    0  0.11804695592E+03  0.26388341282E+02 -0.10628898574E+03  0.16103395473E+03  0.17770000000E+01 0. -1.
</event>
<event>
 8    1  0.2370702E-007  0.5037069E+03  0.7546771E-02  0.9391553E-01
        -11   -1    0    0    0    0  0.00000000000E+00  0.00000000000E+00  0.50000000000E+03  0.50000000000E+03  0.00000000000E+00 0. -1.
         11   -1    0    0    0    0 -0.00000000000E+00 -0.00000000000E+00 -0.50000000000E+03  0.50000000000E+03  0.00000000000E+00 0.  1.
         25    2    1    2    0    0  0.25448675401E+03  0.37189408367E+02  0.41466913801E+03  0.50370690154E+03  0.12499435420E+03 0.  0.
         23    2    1    2    0    0 -0.25448675401E+03 -0.37189408367E+02 -0.41466913801E+03  0.49629309846E+03  0.90607866677E+02 0.  0.
        -11    1    4    4    0    0 -0.13280539838E+02  0.11131987085E+02 -0.74537622050E+02  0.76525492326E+02  0.00000000000E+00 0.  1.
         11    1    4    4    0    0 -0.24120621417E+03 -0.48321395453E+02 -0.34013151596E+03  0.41976760614E+03  0.00000000000E+00 0. -1.
        -15    1    3    3    0    0  0.15115588725E+03  0.83273288636E+02  0.25992250876E+03  0.31200226143E+03  0.17770000000E+01 0.  1.
         15    1    3    3    0    0  0.10333086676E+03 -0.46083880269E+02  0.15474662925E+03  0.19170464011E+03  0.17770000000E+01 0.  1.
</event>
<event>
 8    1  0.2370702E-007  0.5034776E+03  0.7546771E-02  0.9392062E-01
        -11   -1    0    0    0    0  0.00000000000E+00  0.00000000000E+00  0.50000000000E+03  0.50000000000E+03  0.00000000000E+00 0. -1.
         11   -1    0    0    0    0 -0.00000000000E+00 -0.00000000000E+00 -0.50000000000E+03  0.50000000000E+03  0.00000000000E+00 0.  1.
         25    2    1    2    0    0  0.51450100814E+02 -0.44613144094E+03 -0.19022137763E+03  0.50347758776E+03  0.12500053359E+03 0.  0.
         23    2    1    2    0    0 -0.51450100814E+02  0.44613144094E+03  0.19022137763E+03  0.49652241224E+03  0.93112608597E+02 0.  0.
        -11    1    4    4    0    0  0.18752405861E+02  0.20304315094E+03  0.63668215836E+02  0.21361604710E+03  0.00000000000E+00 0.  1.
         11    1    4    4    0    0 -0.70202506675E+02  0.24308829000E+03  0.12655316179E+03  0.28290636514E+03  0.00000000000E+00 0. -1.
        -15    1    3    3    0    0  0.75516703226E+02 -0.42558644676E+03 -0.16386388933E+03  0.46225656090E+03  0.17770000000E+01 0. -1.
         15    1    3    3    0    0 -0.24066602412E+02 -0.20544994179E+02 -0.26357488293E+02  0.41221026862E+02  0.17770000000E+01 0. -1.
</event>
<event>
 8    1  0.2370702E-007  0.5037149E+03  0.7546771E-02  0.9391535E-01
        -11   -1    0    0    0    0  0.00000000000E+00  0.00000000000E+00  0.50000000000E+03  0.50000000000E+03  0.00000000000E+00 0.  1.
         11   -1    0    0    0    0 -0.00000000000E+00 -0.00000000000E+00 -0.50000000000E+03  0.50000000000E+03  0.00000000000E+00 0. -1.
         25    2    1    2    0    0 -0.19180796567E+03 -0.40020389308E+03 -0.20284982393E+03  0.50371491988E+03  0.12500887054E+03 0.  0.
         23    2    1    2    0    0  0.19180796567E+03  0.40020389308E+03  0.20284982393E+03  0.49628508012E+03  0.90539372347E+02 0.  0.
        -11    1    4    4    0    0  0.31585135872E+02  0.16699455853E+03  0.73122856121E+02  0.18501825714E+03  0.00000000000E+00 0. -1.
         11    1    4    4    0    0  0.16022282979E+03  0.23320933455E+03  0.12972696781E+03  0.31126682298E+03  0.00000000000E+00 0.  1.
        -15    1    3    3    0    0 -0.10822361722E+03 -0.93586919156E+02 -0.56734035588E+02  0.15392456362E+03  0.17770000000E+01 0.  1.
         15    1    3    3    0    0 -0.83584348444E+02 -0.30661697393E+03 -0.14611578834E+03  0.34979035627E+03  0.17770000000E+01 0.  1.
</event>
<event>
 8    1  0.2370702E-007  0.5035877E+03  0.7546771E-02  0.9391818E-01
        -11   -1    0    0    0    0  0.00000000000E+00  0.00000000000E+00  0.50000000000E+03  0.50000000000E+03  0.00000000000E+00 0.  1.
         11   -1    0    0    0    0 -0.00000000000E+00 -0.00000000000E+00 -0.50000000000E+03  0.50000000000E+03  0.00000000000E+00 0. -1.
         25    2    1    2    0    0 -0.60175835132E+02  0.41000153846E+03  0.25740020657E+03  0.50358768715E+03  0.12499319834E+03 0.  0.
         23    2    1    2    0    0  0.60175835132E+02 -0.41000153846E+03 -0.25740020657E+03  0.49641231285E+03  0.91912596198E+02 0.  0.
        -11    1    4    4    0    0 -0.11112788057E+01 -0.22838360513E+03 -0.10420828352E+03  0.25103719323E+03  0.00000000000E+00 0.  1.
         11    1    4    4    0    0  0.61287113937E+02 -0.18161793333E+03 -0.15319192305E+03  0.24537511963E+03  0.00000000000E+00 0. -1.
        -15    1    3    3    0    0 -0.49353307884E+02  0.30541850487E+03  0.25071696709E+03  0.39821899431E+03  0.17770000000E+01 0. -1.
         15    1    3    3    0    0 -0.10822527248E+02  0.10458303359E+03  0.66832394813E+01  0.10536869284E+03  0.17770000000E+01 0. -1.
</event>
<event>
 8    1  0.2370702E-007  0.5038623E+03  0.7546771E-02  0.9391209E-01
        -11   -1    0    0    0    0  0.00000000000E+00  0.00000000000E+00  0.50000000000E+03  0.50000000000E+03  0.00000000000E+00 0.  1.
         11   -1    0    0    0    0 -0.00000000000E+00 -0.00000000000E+00 -0.50000000000E+03  0.50000000000E+03  0.00000000000E+00 0. -1.
         25    2    1    2    0    0  0.17955463536E+03 -0.25805018676E+03  0.37339207612E+03  0.50386230523E+03  0.12500325657E+03 0.  0.
         23    2    1    2    0    0 -0.17955463536E+03  0.25805018676E+03 -0.37339207612E+03  0.49613769477E+03  0.88888715256E+02 0.  0.
        -11    1    4    4    0    0 -0.11594242415E+03  0.17629450469E+03 -0.18262197307E+03  0.27905766994E+03  0.00000000000E+00 0.  1.
         11    1    4    4    0    0 -0.63612211207E+02  0.81755682070E+02 -0.19077010305E+03  0.21708002484E+03  0.00000000000E+00 0. -1.
        -15    1    3    3    0    0  0.56911148345E+02 -0.18253662003E+03  0.24599189209E+03  0.31156646990E+03  0.17770000000E+01 0.  1.
         15    1    3    3    0    0  0.12264348701E+03 -0.75513566728E+02  0.12740018403E+03  0.19229583533E+03  0.17770000000E+01 0.  1.
</event>
<event>
 8    1  0.2370702E-007  0.5038242E+03  0.7546771E-02  0.9391293E-01
        -11   -1    0    0    0    0  0.00000000000E+00  0.00000000000E+00  0.50000000000E+03  0.50000000000E+03  0.00000000000E+00 0.  1.
         11   -1    0    0    0    0 -0.00000000000E+00 -0.00000000000E+00 -0.50000000000E+03  0.50000000000E+03  0.00000000000E+00 0. -1.
         25    2    1    2    0    0  0.15532285962E+03 -0.11878636751E+03 -0.44718953250E+03  0.50382417028E+03  0.12499969903E+03 0.  0.
         23    2    1    2    0    0 -0.15532285962E+03  0.11878636751E+03  0.44718953250E+03  0.49617582972E+03  0.89311724824E+02 0.  0.
        -11    1    4    4    0    0 -0.41371377078E+02 -0.83926633405E+01  0.11815265694E+03  0.12546743794E+03  0.00000000000E+00 0.  1.
         11    1    4    4    0    0 -0.11395148254E+03  0.12717903085E+03  0.32903687556E+03  0.37070839178E+03  0.00000000000E+00 0. -1.
        -15    1    3    3    0    0  0.11693788858E+03 -0.10850698160E+02 -0.23174828250E+03  0.25981268561E+03  0.17770000000E+01 0.  1.
         15    1    3    3    0    0  0.38384971038E+02 -0.10793566935E+03 -0.21544125001E+03  0.24401148467E+03  0.17770000000E+01 0.  1.
</event>
<event>
 8    1  0.2370702E-007  0.5037021E+03  0.7546771E-02  0.9391564E-01
        -11   -1    0    0    0    0  0.00000000000E+00  0.00000000000E+00  0.50000000000E+03  0.50000000000E+03  0.00000000000E+00 0.  1.
         11   -1    0    0    0    0 -0.00000000000E+00 -0.00000000000E+00 -0.50000000000E+03  0.50000000000E+03  0.00000000000E+00 0. -1.
         25    2    1    2    0    0  0.16093687297E+03 -0.32759496486E+03  0.32384129407E+03  0.50370212205E+03  0.12499402358E+03 0.  0.
         23    2    1    2    0    0 -0.16093687297E+03  0.32759496486E+03 -0.32384129407E+03  0.49629787795E+03  0.90660144693E+02 0.  0.
        -11    1    4    4    0    0 -0.13427211365E+03  0.32143250758E+03 -0.29428667493E+03  0.45601809665E+03  0.00000000000E+00 0.  1.
         11    1    4    4    0    0 -0.26664759320E+02  0.61624572790E+01 -0.29554619138E+02  0.40279781302E+02  0.00000000000E+00 0. -1.
        -15    1    3    3    0    0  0.44068764727E+01  0.22770608216E+01  0.42312789222E+02  0.42639599283E+02  0.17770000000E+01 0.  1.
         15    1    3    3    0    0  0.15652999649E+03 -0.32987202568E+03  0.28152850485E+03  0.46106252276E+03  0.17770000000E+01 0.  1.
</event>
<event>
 8    1  0.2370702E-007  0.5039844E+03  0.7546771E-02  0.9390938E-01
        -11   -1    0    0    0    0  0.00000000000E+00  0.00000000000E+00  0.50000000000E+03  0.50000000000E+03  0.00000000000E+00 0.  1.
         11   -1    0    0    0    0 -0.00000000000E+00 -0.00000000000E+00 -0.50000000000E+03  0.50000000000E+03  0.00000000000E+00 0. -1.
         25    2    1    2    0    0 -0.33284090712E+03  0.19530074100E+03 -0.29908201021E+03  0.50398437535E+03  0.12499901153E+03 0.  0.
         23    2    1    2    0    0  0.33284090712E+03 -0.19530074100E+03  0.29908201021E+03  0.49601562465E+03  0.87498583905E+02 0.  0.
        -11    1    4    4    0    0  0.18172892696E+03 -0.75374216467E+02  0.10777736636E+03  0.22432707394E+03  0.00000000000E+00 0. -1.
         11    1    4    4    0    0  0.15111198016E+03 -0.11992652453E+03  0.19130464384E+03  0.27168855071E+03  0.00000000000E+00 0.  1.
        -15    1    3    3    0    0 -0.18239916000E+03  0.35431021831E+02 -0.12748024537E+03  0.22534236523E+03  0.17770000000E+01 0. -1.
         15    1    3    3    0    0 -0.15044174711E+03  0.15986971917E+03 -0.17160176484E+03  0.27864201012E+03  0.17770000000E+01 0. -1.
</event>
<event>
 8    1  0.2370702E-007  0.5035985E+03  0.7546771E-02  0.9391794E-01
        -11   -1    0    0    0    0  0.00000000000E+00  0.00000000000E+00  0.50000000000E+03  0.50000000000E+03  0.00000000000E+00 0.  1.
         11   -1    0    0    0    0 -0.00000000000E+00 -0.00000000000E+00 -0.50000000000E+03  0.50000000000E+03  0.00000000000E+00 0. -1.
         25    2    1    2    0    0 -0.32427741437E+03 -0.12462944577E+03  0.34248860769E+03  0.50359845797E+03  0.12499848099E+03 0.  0.
         23    2    1    2    0    0  0.32427741437E+03  0.12462944577E+03 -0.34248860769E+03  0.49640154203E+03  0.91802528836E+02 0.  0.
        -11    1    4    4    0    0  0.26067583991E+03  0.84830888791E+02 -0.31225075150E+03  0.41551017439E+03  0.00000000000E+00 0. -1.
         11    1    4    4    0    0  0.63601574457E+02  0.39798556978E+02 -0.30237856195E+02  0.80891367638E+02  0.00000000000E+00 0.  1.
        -15    1    3    3    0    0 -0.12234274500E+03 -0.92226862762E+02  0.86544110400E+02  0.17597324297E+03  0.17770000000E+01 0.  1.
         15    1    3    3    0    0 -0.20193466937E+03 -0.32402583007E+02  0.25594449729E+03  0.32762521500E+03  0.17770000000E+01 0.  1.
</event>
<event>
 8    1  0.2370702E-007  0.5034801E+03  0.7546771E-02  0.9392056E-01
        -11   -1    0    0    0    0  0.00000000000E+00  0.00000000000E+00  0.50000000000E+03  0.50000000000E+03  0.00000000000E+00 0.  1.
         11   -1    0    0    0    0 -0.00000000000E+00 -0.00000000000E+00 -0.50000000000E+03  0.50000000000E+03  0.00000000000E+00 0. -1.
         25    2    1    2    0    0 -0.27282480120E+03  0.31544709567E+03 -0.25283739232E+03  0.50348009180E+03  0.12500085426E+03 0.  0.
         23    2    1    2    0    0  0.27282480120E+03 -0.31544709567E+03  0.25283739232E+03  0.49651990820E+03  0.93086142717E+02 0.  0.
        -11    1    4    4    0    0  0.17634016639E+03 -0.22427766391E+03  0.12250861694E+03  0.31049104019E+03  0.00000000000E+00 0. -1.
         11    1    4    4    0    0  0.96484634802E+02 -0.91169431761E+02  0.13032877538E+03  0.18602886801E+03  0.00000000000E+00 0.  1.
        -15    1    3    3    0    0 -0.45537156861E+02  0.16887310063E+02 -0.72191531163E+02  0.87026368399E+02  0.17770000000E+01 0.  1.
         15    1    3    3    0    0 -0.22728764434E+03  0.29855978561E+03 -0.18064586116E+03  0.41645372340E+03  0.17770000000E+01 0.  1.
</event>
<event>
 8    1  0.2370702E-007  0.5036414E+03  0.7546771E-02  0.9391698E-01
        -11   -1    0    0    0    0  0.00000000000E+00  0.00000000000E+00  0.50000000000E+03  0.50000000000E+03  0.00000000000E+00 0.  1.
         11   -1    0    0    0    0 -0.00000000000E+00 -0.00000000000E+00 -0.50000000000E+03  0.50000000000E+03  0.00000000000E+00 0. -1.
         25    2    1    2    0    0  0.43649649195E+03 -0.61426044525E+02 -0.20911302842E+03  0.50364142148E+03  0.12499630532E+03 0.  0.
         23    2    1    2    0    0 -0.43649649195E+03  0.61426044525E+02  0.20911302842E+03  0.49635857852E+03  0.91330353078E+02 0.  0.
        -11    1    4    4    0    0 -0.39381324703E+03  0.54427672295E+02  0.15409940998E+03  0.42637761808E+03  0.00000000000E+00 0. -1.
         11    1    4    4    0    0 -0.42683244920E+02  0.69983722295E+01  0.55013618439E+02  0.69980960443E+02  0.00000000000E+00 0.  1.
        -15    1    3    3    0    0  0.12417942605E+03  0.11070863951E+02 -0.11466509867E+03  0.16939402724E+03  0.17770000000E+01 0.  1.
         15    1    3    3    0    0  0.31231706590E+03 -0.72496908476E+02 -0.94447929744E+02  0.33424739423E+03  0.17770000000E+01 0.  1.
</event>
<event>
 8    1  0.2370702E-007  0.5035899E+03  0.7546771E-02  0.9391813E-01
        -11   -1    0    0    0    0  0.00000000000E+00  0.00000000000E+00  0.50000000000E+03  0.50000000000E+03  0.00000000000E+00 0.  1.
         11   -1    0    0    0    0 -0.00000000000E+00 -0.00000000000E+00 -0.50000000000E+03  0.50000000000E+03  0.00000000000E+00 0. -1.
         25    2    1    2    0    0 -0.10088742247E+03 -0.31039710839E+03 -0.36256479022E+03  0.50358988871E+03  0.12499964796E+03 0.  0.
         23    2    1    2    0    0  0.10088742247E+03  0.31039710839E+03  0.36256479022E+03  0.49641011129E+03  0.91897413309E+02 0.  0.
        -11    1    4    4    0    0  0.53214068047E+02  0.10874188638E+03  0.19677822576E+03  0.23103723731E+03  0.00000000000E+00 0.  1.
         11    1    4    4    0    0  0.47673354422E+02  0.20165522202E+03  0.16578656446E+03  0.26537287398E+03  0.00000000000E+00 0. -1.
        -15    1    3    3    0    0 -0.22644304533E+02 -0.14053115211E+03 -0.75943774477E+02  0.16134554178E+03  0.17770000000E+01 0.  1.
         15    1    3    3    0    0 -0.78243117935E+02 -0.16986595628E+03 -0.28662101574E+03  0.34224434692E+03  0.17770000000E+01 0.  1.
</event>
<event>
 8    1  0.2370702E-007  0.5034187E+03  0.7546771E-02  0.9392192E-01
        -11   -1    0    0    0    0  0.00000000000E+00  0.00000000000E+00  0.50000000000E+03  0.50000000000E+03  0.00000000000E+00 0. -1.
         11   -1    0    0    0    0 -0.00000000000E+00 -0.00000000000E+00 -0.50000000000E+03  0.50000000000E+03  0.00000000000E+00 0.  1.
         25    2    1    2    0    0  0.41982195617E+03 -0.19398390978E+03 -0.15468623443E+03  0.50341868570E+03  0.12498923895E+03 0.  0.
         23    2    1    2    0    0 -0.41982195617E+03  0.19398390978E+03  0.15468623443E+03  0.49658131430E+03  0.93728002519E+02 0.  0.
        -11    1    4    4    0    0 -0.28989383172E+03  0.99124480396E+02  0.67951260450E+02  0.31381757453E+03  0.00000000000E+00 0.  1.
         11    1    4    4    0    0 -0.12992812444E+03  0.94859429384E+02  0.86734973982E+02  0.18276373977E+03  0.00000000000E+00 0. -1.
        -15    1    3    3    0    0  0.33648979152E+03 -0.19587656412E+03 -0.94688448743E+02  0.40070196933E+03  0.17770000000E+01 0. -1.
         15    1    3    3    0    0  0.83332164650E+02  0.18926543423E+01 -0.59997785690E+02  0.10271671637E+03  0.17770000000E+01 0. -1.
</event>
<event>
 8    1  0.2370702E-007  0.5033620E+03  0.7546771E-02  0.9392318E-01
        -11   -1    0    0    0    0  0.00000000000E+00  0.00000000000E+00  0.50000000000E+03  0.50000000000E+03  0.00000000000E+00 0.  1.
         11   -1    0    0    0    0 -0.00000000000E+00 -0.00000000000E+00 -0.50000000000E+03  0.50000000000E+03  0.00000000000E+00 0. -1.
         25    2    1    2    0    0  0.15662843403E+03  0.42881118209E+03 -0.17128502775E+03  0.50336204429E+03  0.12499316251E+03 0.  0.
         23    2    1    2    0    0 -0.15662843403E+03 -0.42881118209E+03  0.17128502775E+03  0.49663795571E+03  0.94335582309E+02 0.  0.
        -11    1    4    4    0    0 -0.74754048229E+02 -0.13782805183E+03  0.10030500328E+03  0.18613391223E+03  0.00000000000E+00 0.  1.
         11    1    4    4    0    0 -0.81874385803E+02 -0.29098313026E+03  0.70980024468E+02  0.31050404348E+03  0.00000000000E+00 0. -1.
        -15    1    3    3    0    0  0.96200556117E+02  0.38242293996E+03 -0.12269671836E+03  0.41298849188E+03  0.17770000000E+01 0. -1.
         15    1    3    3    0    0  0.60427877915E+02  0.46388242130E+02 -0.48588309386E+02  0.90373552411E+02  0.17770000000E+01 0. -1.
</event>
<event>
 8    1  0.2370702E-007  0.5036233E+03  0.7546771E-02  0.9391739E-01
        -11   -1    0    0    0    0  0.00000000000E+00  0.00000000000E+00  0.50000000000E+03  0.50000000000E+03  0.00000000000E+00 0.  1.
         11   -1    0    0    0    0 -0.00000000000E+00 -0.00000000000E+00 -0.50000000000E+03  0.50000000000E+03  0.00000000000E+00 0. -1.
         25    2    1    2    0    0 -0.12735180919E+03 -0.41438735585E+03  0.22377704592E+03  0.50362327627E+03  0.12499949655E+03 0.  0.
         23    2    1    2    0    0  0.12735180919E+03  0.41438735585E+03 -0.22377704592E+03  0.49637672373E+03  0.91533172059E+02 0.  0.
        -11    1    4    4    0    0  0.36215573600E+02  0.29052605893E+02 -0.32195232733E+02  0.56499156552E+02  0.00000000000E+00 0. -1.
         11    1    4    4    0    0  0.91136235587E+02  0.38533474995E+03 -0.19158181319E+03  0.43987756717E+03  0.00000000000E+00 0.  1.
        -15    1    3    3    0    0 -0.53444952673E+02 -0.34416273166E+02  0.39909691991E+02  0.75078519356E+02  0.17770000000E+01 0.  1.
         15    1    3    3    0    0 -0.73906856514E+02 -0.37997108268E+03  0.18386735393E+03  0.42854475692E+03  0.17770000000E+01 0.  1.
</event>
<event>
 8    1  0.2370702E-007  0.5035842E+03  0.7546771E-02  0.9391825E-01
        -11   -1    0    0    0    0  0.00000000000E+00  0.00000000000E+00  0.50000000000E+03  0.50000000000E+03  0.00000000000E+00 0.  1.
         11   -1    0    0    0    0 -0.00000000000E+00 -0.00000000000E+00 -0.50000000000E+03  0.50000000000E+03  0.00000000000E+00 0. -1.
         25    2    1    2    0    0  0.46314184831E+03  0.63738830913E+02  0.13931891647E+03  0.50358421198E+03  0.12499715133E+03 0.  0.
         23    2    1    2    0    0 -0.46314184831E+03 -0.63738830913E+02 -0.13931891647E+03  0.49641578802E+03  0.91955771344E+02 0.  0.
        -11    1    4    4    0    0 -0.13066528759E+03 -0.11986250644E+02  0.25786563842E+01  0.13123923596E+03  0.00000000000E+00 0. -1.
         11    1    4    4    0    0 -0.33247656072E+03 -0.51752580269E+02 -0.14189757286E+03  0.36517655206E+03  0.00000000000E+00 0.  1.
        -15    1    3    3    0    0  0.18981120606E+03  0.79520543861E+02  0.93250574620E+02  0.22594388294E+03  0.17770000000E+01 0.  1.
         15    1    3    3    0    0  0.27333064226E+03 -0.15781712948E+02  0.46068341854E+02  0.27764032904E+03  0.17770000000E+01 0.  1.
</event>
<event>
 8    1  0.2370702E-007  0.5036781E+03  0.7546771E-02  0.9391617E-01
        -11   -1    0    0    0    0  0.00000000000E+00  0.00000000000E+00  0.50000000000E+03  0.50000000000E+03  0.00000000000E+00 0. -1.
         11   -1    0    0    0    0 -0.00000000000E+00 -0.00000000000E+00 -0.50000000000E+03  0.50000000000E+03  0.00000000000E+00 0.  1.
         25    2    1    2    0    0 -0.40073235670E+03 -0.84673118441E+02  0.26516862243E+03  0.50367810765E+03  0.12498511556E+03 0.  0.
         23    2    1    2    0    0  0.40073235670E+03  0.84673118441E+02 -0.26516862243E+03  0.49632189235E+03  0.90912396350E+02 0.  0.
        -11    1    4    4    0    0  0.24477426436E+03  0.89168125653E+02 -0.19413242276E+03  0.32488889284E+03  0.00000000000E+00 0.  1.
         11    1    4    4    0    0  0.15595809235E+03 -0.44950072117E+01 -0.71036199673E+02  0.17143299951E+03  0.00000000000E+00 0. -1.
        -15    1    3    3    0    0  0.48802011919E+01 -0.34957608140E+01  0.24100077322E+02  0.24899963118E+02  0.17770000000E+01 0.  1.
         15    1    3    3    0    0 -0.40561255789E+03 -0.81177357627E+02  0.24106854511E+03  0.47877814453E+03  0.17770000000E+01 0.  1.
</event>
<event>
 8    1  0.2370702E-007  0.5035674E+03  0.7546771E-02  0.9391863E-01
        -11   -1    0    0    0    0  0.00000000000E+00  0.00000000000E+00  0.50000000000E+03  0.50000000000E+03  0.00000000000E+00 0. -1.
         11   -1    0    0    0    0 -0.00000000000E+00 -0.00000000000E+00 -0.50000000000E+03  0.50000000000E+03  0.00000000000E+00 0.  1.
         25    2    1    2    0    0 -0.29152748343E+03  0.24494895702E+03 -0.30490556851E+03  0.50356739474E+03  0.12499780077E+03 0.  0.
         23    2    1    2    0    0  0.29152748343E+03 -0.24494895702E+03  0.30490556851E+03  0.49643260526E+03  0.92139354887E+02 0.  0.
        -11    1    4    4    0    0  0.26525371307E+03 -0.23576194498E+03  0.24759271117E+03  0.43271858941E+03  0.00000000000E+00 0.  1.
         11    1    4    4    0    0  0.26273770360E+02 -0.91870120401E+01  0.57312857344E+02  0.63714015852E+02  0.00000000000E+00 0. -1.
        -15    1    3    3    0    0 -0.12508823535E+03  0.39019472691E+02 -0.13933006306E+03  0.19127365232E+03  0.17770000000E+01 0. -1.
         15    1    3    3    0    0 -0.16643924807E+03  0.20592948433E+03 -0.16557550545E+03  0.31229374241E+03  0.17770000000E+01 0. -1.
</event>
<event>
 8    1  0.2370702E-007  0.5035983E+03  0.7546771E-02  0.9391794E-01
        -11   -1    0    0    0    0  0.00000000000E+00  0.00000000000E+00  0.50000000000E+03  0.50000000000E+03  0.00000000000E+00 0. -1.
         11   -1    0    0    0    0 -0.00000000000E+00 -0.00000000000E+00 -0.50000000000E+03  0.50000000000E+03  0.00000000000E+00 0.  1.
         25    2    1    2    0    0 -0.44090515440E+03  0.12379914802E+03 -0.16811627646E+03  0.50359830418E+03  0.12499834135E+03 0.  0.
         23    2    1    2    0    0  0.44090515440E+03 -0.12379914802E+03  0.16811627646E+03  0.49640169582E+03  0.91804013939E+02 0.  0.
        -11    1    4    4    0    0  0.42896113841E+03 -0.11934340981E+03  0.17875694561E+03  0.47979636653E+03  0.00000000000E+00 0. -1.
         11    1    4    4    0    0  0.11944015984E+02 -0.44557382085E+01 -0.10640669147E+02  0.16605329286E+02  0.00000000000E+00 0.  1.
        -15    1    3    3    0    0 -0.43362931071E+03  0.12861965056E+03 -0.13904864439E+03  0.47319665769E+03  0.17770000000E+01 0. -1.
         15    1    3    3    0    0 -0.72758436872E+01 -0.48205025377E+01 -0.29067632071E+02  0.30401646490E+02  0.17770000000E+01 0. -1.
</event>
<event>
 8    1  0.2370702E-007  0.5037446E+03  0.7546771E-02  0.9391470E-01
        -11   -1    0    0    0    0  0.00000000000E+00  0.00000000000E+00  0.50000000000E+03  0.50000000000E+03  0.00000000000E+00 0.  1.
         11   -1    0    0    0    0 -0.00000000000E+00 -0.00000000000E+00 -0.50000000000E+03  0.50000000000E+03  0.00000000000E+00 0. -1.
         25    2    1    2    0    0 -0.21328763181E+03 -0.23007462560E+03 -0.37377572609E+03  0.50374463555E+03  0.12499766879E+03 0.  0.
         23    2    1    2    0    0  0.21328763181E+03  0.23007462560E+03  0.37377572609E+03  0.49625536445E+03  0.90195044812E+02 0.  0.
        -11    1    4    4    0    0  0.11038868466E+03  0.10795280193E+03  0.25155024827E+03  0.29515588517E+03  0.00000000000E+00 0.  1.
         11    1    4    4    0    0  0.10289894714E+03  0.12212182367E+03  0.12222547782E+03  0.20109947928E+03  0.00000000000E+00 0. -1.
        -15    1    3    3    0    0 -0.92812999477E+02 -0.16029866800E+03 -0.28053612799E+03  0.33617494355E+03  0.17770000000E+01 0.  1.
         15    1    3    3    0    0 -0.12047463233E+03 -0.69775957602E+02 -0.93239598101E+02  0.16756969200E+03  0.17770000000E+01 0.  1.
</event>
<event>
 8    1  0.2370702E-007  0.5036946E+03  0.7546771E-02  0.9391580E-01
        -11   -1    0    0    0    0  0.00000000000E+00  0.00000000000E+00  0.50000000000E+03  0.50000000000E+03  0.00000000000E+00 0.  1.
         11   -1    0    0    0    0 -0.00000000000E+00 -0.00000000000E+00 -0.50000000000E+03  0.50000000000E+03  0.00000000000E+00 0. -1.
         25    2    1    2    0    0 -0.25329577138E+03  0.41321428527E+03 -0.56373054182E+02  0.50369460635E+03  0.12500216751E+03 0.  0.
         23    2    1    2    0    0  0.25329577138E+03 -0.41321428527E+03  0.56373054182E+02  0.49630539365E+03  0.90754224017E+02 0.  0.
        -11    1    4    4    0    0  0.69096149974E+02 -0.71449591715E+02  0.41692654381E+02  0.10778496893E+03  0.00000000000E+00 0.  1.
         11    1    4    4    0    0  0.18419962140E+03 -0.34176469356E+03  0.14680399801E+02  0.38852042472E+03  0.00000000000E+00 0. -1.
        -15    1    3    3    0    0 -0.19408458059E+03  0.37480410976E+03 -0.16035162389E+02  0.42238279946E+03  0.17770000000E+01 0.  1.
         15    1    3    3    0    0 -0.59211190790E+02  0.38410175509E+02 -0.40337891793E+02  0.81311806896E+02  0.17770000000E+01 0.  1.
</event>
<event>
 8    1  0.2370702E-007  0.5033822E+03  0.7546771E-02  0.9392273E-01
        -11   -1    0    0    0    0  0.00000000000E+00  0.00000000000E+00  0.50000000000E+03  0.50000000000E+03  0.00000000000E+00 0. -1.
         11   -1    0    0    0    0 -0.00000000000E+00 -0.00000000000E+00 -0.50000000000E+03  0.50000000000E+03  0.00000000000E+00 0.  1.
         25    2    1    2    0    0  0.29623354710E+03 -0.32784953663E+02  0.38592513000E+03  0.50338218552E+03  0.12500500436E+03 0.  0.
         23    2    1    2    0    0 -0.29623354710E+03  0.32784953663E+02 -0.38592513000E+03  0.49661781448E+03  0.94137559345E+02 0.  0.
        -11    1    4    4    0    0 -0.32376292065E+02  0.36324947019E+02 -0.61884188424E+02  0.78723432602E+02  0.00000000000E+00 0.  1.
         11    1    4    4    0    0 -0.26385725503E+03 -0.35399933563E+01 -0.32404094158E+03  0.41789438188E+03  0.00000000000E+00 0. -1.
        -15    1    3    3    0    0  0.26972396213E+03  0.11946513781E+02  0.33845336512E+03  0.43295216021E+03  0.17770000000E+01 0. -1.
         15    1    3    3    0    0  0.26509584965E+02 -0.44731467444E+02  0.47471764888E+02  0.70430025311E+02  0.17770000000E+01 0. -1.
</event>
<event>
 8    1  0.2370702E-007  0.5037175E+03  0.7546771E-02  0.9391530E-01
        -11   -1    0    0    0    0  0.00000000000E+00  0.00000000000E+00  0.50000000000E+03  0.50000000000E+03  0.00000000000E+00 0.  1.
         11   -1    0    0    0    0 -0.00000000000E+00 -0.00000000000E+00 -0.50000000000E+03  0.50000000000E+03  0.00000000000E+00 0. -1.
         25    2    1    2    0    0  0.32388019516E+03 -0.46795002543E+02 -0.36196450639E+03  0.50371754109E+03  0.12499961693E+03 0.  0.
         23    2    1    2    0    0 -0.32388019516E+03  0.46795002543E+02  0.36196450639E+03  0.49628245891E+03  0.90497635586E+02 0.  0.
        -11    1    4    4    0    0 -0.15191348994E+03 -0.20977802702E+02  0.18612417574E+03  0.24116381451E+03  0.00000000000E+00 0.  1.
         11    1    4    4    0    0 -0.17196670522E+03  0.67772805245E+02  0.17584033065E+03  0.25511864440E+03  0.00000000000E+00 0. -1.
        -15    1    3    3    0    0  0.28477090821E+03 -0.46212874615E+02 -0.36405269026E+03  0.46450793207E+03  0.17770000000E+01 0. -1.
         15    1    3    3    0    0  0.39109286950E+02 -0.58212792756E+00  0.20881838646E+01  0.39209609020E+02  0.17770000000E+01 0. -1.
</event>
<event>
 8    1  0.2370702E-007  0.5036188E+03  0.7546771E-02  0.9391749E-01
        -11   -1    0    0    0    0  0.00000000000E+00  0.00000000000E+00  0.50000000000E+03  0.50000000000E+03  0.00000000000E+00 0. -1.
         11   -1    0    0    0    0 -0.00000000000E+00 -0.00000000000E+00 -0.50000000000E+03  0.50000000000E+03  0.00000000000E+00 0.  1.
         25    2    1    2    0    0 -0.45986773028E+03 -0.98829327357E+02  0.12946876466E+03  0.50361879163E+03  0.12499664380E+03 0.  0.
         23    2    1    2    0    0  0.45986773028E+03  0.98829327357E+02 -0.12946876466E+03  0.49638120837E+03  0.91578259971E+02 0.  0.
        -11    1    4    4    0    0  0.10844589886E+03 -0.12796387881E+02 -0.14547574333E+02  0.11016302665E+03  0.00000000000E+00 0. -1.
         11    1    4    4    0    0  0.35142183142E+03  0.11162571524E+03 -0.11492119032E+03  0.38621818171E+03  0.00000000000E+00 0.  1.
        -15    1    3    3    0    0 -0.29950699026E+03 -0.12291859772E+03  0.72844975015E+02  0.33184780698E+03  0.17770000000E+01 0.  1.
         15    1    3    3    0    0 -0.16036074002E+03  0.24089270367E+02  0.56623789641E+02  0.17177098465E+03  0.17770000000E+01 0.  1.
</event>
<event>
 8    1  0.2370702E-007  0.5037301E+03  0.7546771E-02  0.9391502E-01
        -11   -1    0    0    0    0  0.00000000000E+00  0.00000000000E+00  0.50000000000E+03  0.50000000000E+03  0.00000000000E+00 0.  1.
         11   -1    0    0    0    0 -0.00000000000E+00 -0.00000000000E+00 -0.50000000000E+03  0.50000000000E+03  0.00000000000E+00 0. -1.
         25    2    1    2    0    0 -0.33870535644E+03  0.26955137152E+03 -0.22525661074E+03  0.50373010550E+03  0.12499687249E+03 0.  0.
         23    2    1    2    0    0  0.33870535644E+03 -0.26955137152E+03  0.22525661074E+03  0.49626989450E+03  0.90354895457E+02 0.  0.
        -11    1    4    4    0    0  0.29068650208E+03 -0.24949028016E+03  0.16624696169E+03  0.41759082204E+03  0.00000000000E+00 0.  1.
         11    1    4    4    0    0  0.48018854363E+02 -0.20061091360E+02  0.59009649057E+02  0.78679072457E+02  0.00000000000E+00 0. -1.
        -15    1    3    3    0    0 -0.22890998221E+02 -0.10975201353E+02 -0.26994424228E+02  0.37098645699E+02  0.17770000000E+01 0. -1.
         15    1    3    3    0    0 -0.31581435822E+03  0.28052657287E+03 -0.19826218652E+03  0.46663145980E+03  0.17770000000E+01 0. -1.
</event>
<event>
 8    1  0.2370702E-007  0.5037550E+03  0.7546771E-02  0.9391447E-01
        -11   -1    0    0    0    0  0.00000000000E+00  0.00000000000E+00  0.50000000000E+03  0.50000000000E+03  0.00000000000E+00 0.  1.
         11   -1    0    0    0    0 -0.00000000000E+00 -0.00000000000E+00 -0.50000000000E+03  0.50000000000E+03  0.00000000000E+00 0. -1.
         25    2    1    2    0    0 -0.33604293880E+03  0.24140004766E+03  0.25873704670E+03  0.50375500350E+03  0.12500161793E+03 0.  0.
         23    2    1    2    0    0  0.33604293880E+03 -0.24140004766E+03 -0.25873704670E+03  0.49624499650E+03  0.90085500984E+02 0.  0.
        -11    1    4    4    0    0  0.17845698745E+03 -0.16188366961E+03 -0.10763217065E+03  0.26388994490E+03  0.00000000000E+00 0. -1.
         11    1    4    4    0    0  0.15758595135E+03 -0.79516378050E+02 -0.15110487605E+03  0.23235505160E+03  0.00000000000E+00 0.  1.
        -15    1    3    3    0    0 -0.25494638708E+03  0.23580550085E+03  0.23401966900E+03  0.41877232206E+03  0.17770000000E+01 0. -1.
         15    1    3    3    0    0 -0.81096551721E+02  0.55945468166E+01  0.24717377700E+02  0.84982681438E+02  0.17770000000E+01 0. -1.
</event>
<event>
 8    1  0.2370702E-007  0.5044860E+03  0.7546771E-02  0.9389827E-01
        -11   -1    0    0    0    0  0.00000000000E+00  0.00000000000E+00  0.50000000000E+03  0.50000000000E+03  0.00000000000E+00 0. -1.
         11   -1    0    0    0    0 -0.00000000000E+00 -0.00000000000E+00 -0.50000000000E+03  0.50000000000E+03  0.00000000000E+00 0.  1.
         25    2    1    2    0    0  0.74705434366E+02  0.23508759608E+03  0.42194328314E+03  0.50448603967E+03  0.12499180085E+03 0.  0.
         23    2    1    2    0    0 -0.74705434366E+02 -0.23508759608E+03 -0.42194328314E+03  0.49551396033E+03  0.81552872056E+02 0.  0.
        -11    1    4    4    0    0 -0.48670267654E+02 -0.17229227770E+03 -0.22730238734E+03  0.28934373883E+03  0.00000000000E+00 0.  1.
         11    1    4    4    0    0 -0.26035166712E+02 -0.62795318376E+02 -0.19464089580E+03  0.20617022150E+03  0.00000000000E+00 0. -1.
        -15    1    3    3    0    0  0.73409173449E+02  0.18031653178E+03  0.21344652728E+03  0.28890402579E+03  0.17770000000E+01 0.  1.
         15    1    3    3    0    0  0.12962609173E+01  0.54771064302E+02  0.20849675586E+03  0.21558201388E+03  0.17770000000E+01 0.  1.
</event>
<event>
 8    1  0.2370702E-007  0.5037385E+03  0.7546771E-02  0.9391483E-01
        -11   -1    0    0    0    0  0.00000000000E+00  0.00000000000E+00  0.50000000000E+03  0.50000000000E+03  0.00000000000E+00 0.  1.
         11   -1    0    0    0    0 -0.00000000000E+00 -0.00000000000E+00 -0.50000000000E+03  0.50000000000E+03  0.00000000000E+00 0. -1.
         25    2    1    2    0    0 -0.44261672029E+03  0.17399160599E+03  0.10928941863E+03  0.50373847179E+03  0.12500252357E+03 0.  0.
         23    2    1    2    0    0  0.44261672029E+03 -0.17399160599E+03 -0.10928941863E+03  0.49626152821E+03  0.90270079848E+02 0.  0.
        -11    1    4    4    0    0  0.34605805474E+03 -0.11903427568E+03 -0.47208568078E+02  0.36899049437E+03  0.00000000000E+00 0.  1.
         11    1    4    4    0    0  0.96558665553E+02 -0.54957330318E+02 -0.62080850547E+02  0.12727103384E+03  0.00000000000E+00 0. -1.
        -15    1    3    3    0    0 -0.19247929180E+03  0.88800224551E+02 -0.13372435810E+02  0.21240465489E+03  0.17770000000E+01 0. -1.
         15    1    3    3    0    0 -0.25013742849E+03  0.85191381442E+02  0.12266185444E+03  0.29133381690E+03  0.17770000000E+01 0. -1.
</event>
<event>
 8    1  0.2370702E-007  0.5035618E+03  0.7546771E-02  0.9391875E-01
        -11   -1    0    0    0    0  0.00000000000E+00  0.00000000000E+00  0.50000000000E+03  0.50000000000E+03  0.00000000000E+00 0.  1.
         11   -1    0    0    0    0 -0.00000000000E+00 -0.00000000000E+00 -0.50000000000E+03  0.50000000000E+03  0.00000000000E+00 0. -1.
         25    2    1    2    0    0 -0.36229128334E+03 -0.84661238297E+02 -0.31547802579E+03  0.50356175596E+03  0.12500223217E+03 0.  0.
         23    2    1    2    0    0  0.36229128334E+03  0.84661238297E+02  0.31547802579E+03  0.49643824404E+03  0.92206540636E+02 0.  0.
        -11    1    4    4    0    0  0.32978896041E+03  0.10272869091E+03  0.29327903747E+03  0.45312971230E+03  0.00000000000E+00 0. -1.
         11    1    4    4    0    0  0.32502322927E+02 -0.18067452612E+02  0.22198988326E+02  0.43308531749E+02  0.00000000000E+00 0.  1.
        -15    1    3    3    0    0 -0.23629881829E+02 -0.22455134074E+02  0.51689482744E+01  0.33052686983E+02  0.17770000000E+01 0. -1.
         15    1    3    3    0    0 -0.33866140151E+03 -0.62206104223E+02 -0.32064697407E+03  0.47050906897E+03  0.17770000000E+01 0. -1.
</event>
<event>
 8    1  0.2370702E-007  0.5038816E+03  0.7546771E-02  0.9391166E-01
        -11   -1    0    0    0    0  0.00000000000E+00  0.00000000000E+00  0.50000000000E+03  0.50000000000E+03  0.00000000000E+00 0.  1.
         11   -1    0    0    0    0 -0.00000000000E+00 -0.00000000000E+00 -0.50000000000E+03  0.50000000000E+03  0.00000000000E+00 0. -1.
         25    2    1    2    0    0  0.70356045877E+02 -0.43000718988E+03 -0.22002919118E+03  0.50388161389E+03  0.12501071676E+03 0.  0.
         23    2    1    2    0    0 -0.70356045877E+02  0.43000718988E+03  0.22002919118E+03  0.49611838611E+03  0.88681742878E+02 0.  0.
        -11    1    4    4    0    0 -0.53812378449E+02  0.17370436867E+03  0.51769697203E+02  0.18907427461E+03  0.00000000000E+00 0. -1.
         11    1    4    4    0    0 -0.16543667428E+02  0.25630282121E+03  0.16825949398E+03  0.30704411150E+03  0.00000000000E+00 0.  1.
        -15    1    3    3    0    0 -0.38342073194E+00 -0.32626320406E+03 -0.17665701618E+03  0.37102383270E+03  0.17770000000E+01 0.  1.
         15    1    3    3    0    0  0.70739466609E+02 -0.10374398582E+03 -0.43372175001E+02  0.13285778119E+03  0.17770000000E+01 0.  1.
</event>
<event>
 8    1  0.2370702E-007  0.5035630E+03  0.7546771E-02  0.9391872E-01
        -11   -1    0    0    0    0  0.00000000000E+00  0.00000000000E+00  0.50000000000E+03  0.50000000000E+03  0.00000000000E+00 0.  1.
         11   -1    0    0    0    0 -0.00000000000E+00 -0.00000000000E+00 -0.50000000000E+03  0.50000000000E+03  0.00000000000E+00 0. -1.
         25    2    1    2    0    0 -0.44751003168E+03  0.18810345632E+03  0.47989348525E+02  0.50356297954E+03  0.12499823222E+03 0.  0.
         23    2    1    2    0    0  0.44751003168E+03 -0.18810345632E+03 -0.47989348525E+02  0.49643702046E+03  0.92187846174E+02 0.  0.
        -11    1    4    4    0    0  0.81482164785E+02 -0.97693508284E+01 -0.34586610612E+02  0.89056257654E+02  0.00000000000E+00 0.  1.
         11    1    4    4    0    0  0.36602786689E+03 -0.17833410549E+03 -0.13402737913E+02  0.40738076281E+03  0.00000000000E+00 0. -1.
        -15    1    3    3    0    0 -0.11655860724E+03  0.32877261314E+02 -0.40032958118E+02  0.12756417483E+03  0.17770000000E+01 0.  1.
         15    1    3    3    0    0 -0.33095142443E+03  0.15522619500E+03  0.88022306643E+02  0.37599880471E+03  0.17770000000E+01 0.  1.
</event>
<event>
 8    1  0.2370702E-007  0.5034521E+03  0.7546771E-02  0.9392118E-01
        -11   -1    0    0    0    0  0.00000000000E+00  0.00000000000E+00  0.50000000000E+03  0.50000000000E+03  0.00000000000E+00 0.  1.
         11   -1    0    0    0    0 -0.00000000000E+00 -0.00000000000E+00 -0.50000000000E+03  0.50000000000E+03  0.00000000000E+00 0. -1.
         25    2    1    2    0    0  0.40870602557E+03  0.12389080357E+02 -0.26578749055E+03  0.50345209440E+03  0.12500766605E+03 0.  0.
         23    2    1    2    0    0 -0.40870602557E+03 -0.12389080357E+02  0.26578749055E+03  0.49654790560E+03  0.93395544738E+02 0.  0.
        -11    1    4    4    0    0 -0.19604358916E+03  0.14078523880E+02  0.77487800398E+02  0.21127151463E+03  0.00000000000E+00 0. -1.
         11    1    4    4    0    0 -0.21266243642E+03 -0.26467604237E+02  0.18829969015E+03  0.28527639097E+03  0.00000000000E+00 0.  1.
        -15    1    3    3    0    0  0.16969715531E+03  0.51854529414E+02 -0.65598643947E+02  0.18918867978E+03  0.17770000000E+01 0. -1.
         15    1    3    3    0    0  0.23900887026E+03 -0.39465449057E+02 -0.20018884660E+03  0.31426341461E+03  0.17770000000E+01 0. -1.
</event>
<event>
 8    1  0.2370702E-007  0.5033173E+03  0.7546771E-02  0.9392417E-01
        -11   -1    0    0    0    0  0.00000000000E+00  0.00000000000E+00  0.50000000000E+03  0.50000000000E+03  0.00000000000E+00 0.  1.
         11   -1    0    0    0    0 -0.00000000000E+00 -0.00000000000E+00 -0.50000000000E+03  0.50000000000E+03  0.00000000000E+00 0. -1.
         25    2    1    2    0    0 -0.36952831898E+03 -0.84826014567E+02  0.30652251830E+03  0.50331734606E+03  0.12500266135E+03 0.  0.
         23    2    1    2    0    0  0.36952831898E+03  0.84826014567E+02 -0.30652251830E+03  0.49668265394E+03  0.94820742593E+02 0.  0.
        -11    1    4    4    0    0  0.33778616962E+03  0.75315059763E+02 -0.30831530906E+03  0.46349777175E+03  0.00000000000E+00 0. -1.
         11    1    4    4    0    0  0.31742149365E+02  0.95109548038E+01  0.17927907645E+01  0.33184882196E+02  0.00000000000E+00 0.  1.
        -15    1    3    3    0    0 -0.34137635175E+03 -0.58307304524E+02  0.30952487734E+03  0.46448505112E+03  0.17770000000E+01 0. -1.
         15    1    3    3    0    0 -0.28151967234E+02 -0.26518710044E+02 -0.30023590402E+01  0.38832294940E+02  0.17770000000E+01 0. -1.
</event>
<event>
 8    1  0.2370702E-007  0.5037257E+03  0.7546771E-02  0.9391512E-01
        -11   -1    0    0    0    0  0.00000000000E+00  0.00000000000E+00  0.50000000000E+03  0.50000000000E+03  0.00000000000E+00 0. -1.
         11   -1    0    0    0    0 -0.00000000000E+00 -0.00000000000E+00 -0.50000000000E+03  0.50000000000E+03  0.00000000000E+00 0.  1.
         25    2    1    2    0    0 -0.40121244997E+03 -0.10570876602E+03  0.25684463899E+03  0.50372569467E+03  0.12499853468E+03 0.  0.
         23    2    1    2    0    0  0.40121244997E+03  0.10570876602E+03 -0.25684463899E+03  0.49627430533E+03  0.90405997216E+02 0.  0.
        -11    1    4    4    0    0  0.24804134767E+03  0.30822130471E+02 -0.18638479805E+03  0.31179128728E+03  0.00000000000E+00 0.  1.
         11    1    4    4    0    0  0.15317110230E+03  0.74886635552E+02 -0.70459840931E+02  0.18448301805E+03  0.00000000000E+00 0. -1.
        -15    1    3    3    0    0 -0.23337173413E+03 -0.56071084224E+02  0.75326507206E+02  0.25156226504E+03  0.17770000000E+01 0. -1.
         15    1    3    3    0    0 -0.16784071584E+03 -0.49637681799E+02  0.18151813178E+03  0.25216342963E+03  0.17770000000E+01 0. -1.
</event>
<event>
 8    1  0.2370702E-007  0.5037095E+03  0.7546771E-02  0.9391548E-01
        -11   -1    0    0    0    0  0.00000000000E+00  0.00000000000E+00  0.50000000000E+03  0.50000000000E+03  0.00000000000E+00 0. -1.
         11   -1    0    0    0    0 -0.00000000000E+00 -0.00000000000E+00 -0.50000000000E+03  0.50000000000E+03  0.00000000000E+00 0.  1.
         25    2    1    2    0    0  0.30670264858E+03 -0.28644252428E+03 -0.24896144159E+03  0.50370945232E+03  0.12500231436E+03 0.  0.
         23    2    1    2    0    0 -0.30670264858E+03  0.28644252428E+03  0.24896144159E+03  0.49629054768E+03  0.90590694653E+02 0.  0.
        -11    1    4    4    0    0 -0.19229406717E+03  0.12746809634E+03  0.10652113762E+03  0.25410996953E+03  0.00000000000E+00 0. -1.
         11    1    4    4    0    0 -0.11440858140E+03  0.15897442795E+03  0.14244030397E+03  0.24218057815E+03  0.00000000000E+00 0.  1.
        -15    1    3    3    0    0  0.17825911816E+03 -0.12983103310E+03 -0.19427817046E+03  0.29390402449E+03  0.17770000000E+01 0. -1.
         15    1    3    3    0    0  0.12844353042E+03 -0.15661149119E+03 -0.54683271129E+02  0.20980542783E+03  0.17770000000E+01 0. -1.
</event>
<event>
 8    1  0.2370702E-007  0.5033295E+03  0.7546771E-02  0.9392390E-01
        -11   -1    0    0    0    0  0.00000000000E+00  0.00000000000E+00  0.50000000000E+03  0.50000000000E+03  0.00000000000E+00 0. -1.
         11   -1    0    0    0    0 -0.00000000000E+00 -0.00000000000E+00 -0.50000000000E+03  0.50000000000E+03  0.00000000000E+00 0.  1.
         25    2    1    2    0    0 -0.19305489893E+03 -0.43853614865E+03  0.90175400016E+02  0.50332951037E+03  0.12499938227E+03 0.  0.
         23    2    1    2    0    0  0.19305489893E+03  0.43853614865E+03 -0.90175400016E+02  0.49667048963E+03  0.94688039523E+02 0.  0.
        -11    1    4    4    0    0 -0.92208760296E+00  0.78374597345E+02 -0.26069147042E+02  0.82601623361E+02  0.00000000000E+00 0. -1.
         11    1    4    4    0    0  0.19397698654E+03  0.36016155130E+03 -0.64106252975E+02  0.41406886627E+03  0.00000000000E+00 0.  1.
        -15    1    3    3    0    0 -0.15407016896E+03 -0.38039242667E+03  0.30884184961E+02  0.41157381579E+03  0.17770000000E+01 0.  1.
         15    1    3    3    0    0 -0.38984729976E+02 -0.58143721975E+02  0.59291215055E+02  0.91755694581E+02  0.17770000000E+01 0.  1.
</event>
<event>
 8    1  0.2370702E-007  0.5036694E+03  0.7546771E-02  0.9391636E-01
        -11   -1    0    0    0    0  0.00000000000E+00  0.00000000000E+00  0.50000000000E+03  0.50000000000E+03  0.00000000000E+00 0.  1.
         11   -1    0    0    0    0 -0.00000000000E+00 -0.00000000000E+00 -0.50000000000E+03  0.50000000000E+03  0.00000000000E+00 0. -1.
         25    2    1    2    0    0  0.10697915559E+03  0.21138038672E+03  0.42653445404E+03  0.50366942250E+03  0.12500015622E+03 0.  0.
         23    2    1    2    0    0 -0.10697915559E+03 -0.21138038672E+03 -0.42653445404E+03  0.49633057750E+03  0.91028534346E+02 0.  0.
        -11    1    4    4    0    0 -0.11283954961E+03 -0.13212821484E+03 -0.30779048999E+03  0.35344817844E+03  0.00000000000E+00 0.  1.
         11    1    4    4    0    0  0.58603940215E+01 -0.79252171871E+02 -0.11874396405E+03  0.14288239907E+03  0.00000000000E+00 0. -1.
        -15    1    3    3    0    0  0.62905215415E+02  0.35195843544E+02  0.20435179571E+03  0.21669939472E+03  0.17770000000E+01 0.  1.
         15    1    3    3    0    0  0.44073940174E+02  0.17618454317E+03  0.22218265832E+03  0.28697002778E+03  0.17770000000E+01 0.  1.
</event>
<event>
 8    1  0.2370702E-007  0.5034922E+03  0.7546771E-02  0.9392029E-01
        -11   -1    0    0    0    0  0.00000000000E+00  0.00000000000E+00  0.50000000000E+03  0.50000000000E+03  0.00000000000E+00 0.  1.
         11   -1    0    0    0    0 -0.00000000000E+00 -0.00000000000E+00 -0.50000000000E+03  0.50000000000E+03  0.00000000000E+00 0. -1.
         25    2    1    2    0    0  0.37492388240E+03 -0.20756406208E+03  0.23286957318E+03  0.50349219983E+03  0.12500159887E+03 0.  0.
         23    2    1    2    0    0 -0.37492388240E+03  0.20756406208E+03 -0.23286957318E+03  0.49650780017E+03  0.92956979624E+02 0.  0.
        -11    1    4    4    0    0 -0.17941827476E+03  0.15202552080E+03 -0.11950526221E+03  0.26378814224E+03  0.00000000000E+00 0. -1.
         11    1    4    4    0    0 -0.19550560764E+03  0.55538541277E+02 -0.11336431097E+03  0.23271965793E+03  0.00000000000E+00 0.  1.
        -15    1    3    3    0    0  0.33832258595E+03 -0.21425283746E+03  0.23806709383E+03  0.46588147572E+03  0.17770000000E+01 0.  1.
         15    1    3    3    0    0  0.36601296449E+02  0.66887753878E+01 -0.51975206573E+01  0.37610724108E+02  0.17770000000E+01 0.  1.
</event>
<event>
 8    1  0.2370702E-007  0.5036237E+03  0.7546771E-02  0.9391738E-01
        -11   -1    0    0    0    0  0.00000000000E+00  0.00000000000E+00  0.50000000000E+03  0.50000000000E+03  0.00000000000E+00 0.  1.
         11   -1    0    0    0    0 -0.00000000000E+00 -0.00000000000E+00 -0.50000000000E+03  0.50000000000E+03  0.00000000000E+00 0. -1.
         25    2    1    2    0    0  0.49747380454E+02 -0.31047581962E+03 -0.37302115013E+03  0.50362369201E+03  0.12498803255E+03 0.  0.
         23    2    1    2    0    0 -0.49747380454E+02  0.31047581962E+03  0.37302115013E+03  0.49637630799E+03  0.91512973137E+02 0.  0.
        -11    1    4    4    0    0  0.66038214072E+01  0.22190187880E+03  0.26588691966E+03  0.34638116046E+03  0.00000000000E+00 0. -1.
         11    1    4    4    0    0 -0.56351201861E+02  0.88573940818E+02  0.10713423047E+03  0.14999514753E+03  0.00000000000E+00 0.  1.
        -15    1    3    3    0    0  0.76215391986E+02 -0.26686695282E+03 -0.35240338736E+03  0.44857336260E+03  0.17770000000E+01 0.  1.
         15    1    3    3    0    0 -0.26468011532E+02 -0.43608866795E+02 -0.20617762777E+02  0.55050329414E+02  0.17770000000E+01 0.  1.
</event>
<event>
 8    1  0.2370702E-007  0.5033449E+03  0.7546771E-02  0.9392356E-01
        -11   -1    0    0    0    0  0.00000000000E+00  0.00000000000E+00  0.50000000000E+03  0.50000000000E+03  0.00000000000E+00 0.  1.
         11   -1    0    0    0    0 -0.00000000000E+00 -0.00000000000E+00 -0.50000000000E+03  0.50000000000E+03  0.00000000000E+00 0. -1.
         25    2    1    2    0    0 -0.55946863273E+02  0.45164575806E+03  0.17497581328E+03  0.50334485215E+03  0.12500225067E+03 0.  0.
         23    2    1    2    0    0  0.55946863273E+02 -0.45164575806E+03 -0.17497581328E+03  0.49665514785E+03  0.94529669256E+02 0.  0.
        -11    1    4    4    0    0  0.79664829008E+02 -0.27029654906E+03 -0.10044860751E+03  0.29915987727E+03  0.00000000000E+00 0. -1.
         11    1    4    4    0    0 -0.23717965736E+02 -0.18134920900E+03 -0.74527205771E+02  0.19749527058E+03  0.00000000000E+00 0.  1.
        -15    1    3    3    0    0 -0.93788648139E+02  0.33650345035E+03  0.14663627382E+03  0.37886176522E+03  0.17770000000E+01 0.  1.
         15    1    3    3    0    0  0.37841784866E+02  0.11514230770E+03  0.28339539463E+02  0.12448308693E+03  0.17770000000E+01 0.  1.
</event>
<event>
 8    1  0.2370702E-007  0.5033982E+03  0.7546771E-02  0.9392238E-01
        -11   -1    0    0    0    0  0.00000000000E+00  0.00000000000E+00  0.50000000000E+03  0.50000000000E+03  0.00000000000E+00 0.  1.
         11   -1    0    0    0    0 -0.00000000000E+00 -0.00000000000E+00 -0.50000000000E+03  0.50000000000E+03  0.00000000000E+00 0. -1.
         25    2    1    2    0    0  0.13174348428E+03 -0.37560552923E+03 -0.28168903092E+03  0.50339817935E+03  0.12500063036E+03 0.  0.
         23    2    1    2    0    0 -0.13174348428E+03  0.37560552923E+03  0.28168903092E+03  0.49660182065E+03  0.93961688463E+02 0.  0.
        -11    1    4    4    0    0 -0.90988080585E+02  0.13708748338E+03  0.14109176933E+03  0.21674569495E+03  0.00000000000E+00 0.  1.
         11    1    4    4    0    0 -0.40755403700E+02  0.23851804585E+03  0.14059726159E+03  0.27985612570E+03  0.00000000000E+00 0. -1.
        -15    1    3    3    0    0  0.14967798813E+02 -0.12943616327E+03 -0.15620401631E+03  0.20342224019E+03  0.17770000000E+01 0. -1.
         15    1    3    3    0    0  0.11677568547E+03 -0.24616936595E+03 -0.12548501461E+03  0.29997593916E+03  0.17770000000E+01 0. -1.
</event>
<event>
 8    1  0.2370702E-007  0.5037479E+03  0.7546771E-02  0.9391462E-01
        -11   -1    0    0    0    0  0.00000000000E+00  0.00000000000E+00  0.50000000000E+03  0.50000000000E+03  0.00000000000E+00 0.  1.
         11   -1    0    0    0    0 -0.00000000000E+00 -0.00000000000E+00 -0.50000000000E+03  0.50000000000E+03  0.00000000000E+00 0. -1.
         25    2    1    2    0    0 -0.20314331099E+03  0.40510209534E+03 -0.18100237061E+03  0.50374785219E+03  0.12500051190E+03 0.  0.
         23    2    1    2    0    0  0.20314331099E+03 -0.40510209534E+03  0.18100237061E+03  0.49625214781E+03  0.90163316190E+02 0.  0.
        -11    1    4    4    0    0  0.15061128018E+03 -0.26504502220E+03  0.78109401110E+02  0.31469620279E+03  0.00000000000E+00 0.  1.
         11    1    4    4    0    0  0.52532030818E+02 -0.14005707314E+03  0.10289296950E+03  0.18155594502E+03  0.00000000000E+00 0. -1.
        -15    1    3    3    0    0 -0.64486532339E+01 -0.84787792250E+01  0.11864858709E+01  0.10864635447E+02  0.17770000000E+01 0. -1.
         15    1    3    3    0    0 -0.19669465776E+03  0.41358087456E+03 -0.18218885648E+03  0.49288321675E+03  0.17770000000E+01 0. -1.
</event>
<event>
 8    1  0.2370702E-007  0.5034731E+03  0.7546771E-02  0.9392072E-01
        -11   -1    0    0    0    0  0.00000000000E+00  0.00000000000E+00  0.50000000000E+03  0.50000000000E+03  0.00000000000E+00 0. -1.
         11   -1    0    0    0    0 -0.00000000000E+00 -0.00000000000E+00 -0.50000000000E+03  0.50000000000E+03  0.00000000000E+00 0.  1.
         25    2    1    2    0    0 -0.26051102703E+03 -0.34080885897E+03  0.23204010806E+03  0.50347308272E+03  0.12500343883E+03 0.  0.
         23    2    1    2    0    0  0.26051102703E+03  0.34080885897E+03 -0.23204010806E+03  0.49652691728E+03  0.93164876834E+02 0.  0.
        -11    1    4    4    0    0  0.12205699810E+03  0.20711676066E+03 -0.87518545505E+02  0.25584127724E+03  0.00000000000E+00 0.  1.
         11    1    4    4    0    0  0.13845402893E+03  0.13369209831E+03 -0.14452156256E+03  0.24068564004E+03  0.00000000000E+00 0. -1.
        -15    1    3    3    0    0 -0.91008646509E+02 -0.38876642789E+02  0.69606011306E+02  0.12100463476E+03  0.17770000000E+01 0. -1.
         15    1    3    3    0    0 -0.16950238052E+03 -0.30193221618E+03  0.16243409676E+03  0.38246844796E+03  0.17770000000E+01 0. -1.
</event>
<event>
 8    1  0.2370702E-007  0.5036870E+03  0.7546771E-02  0.9391597E-01
        -11   -1    0    0    0    0  0.00000000000E+00  0.00000000000E+00  0.50000000000E+03  0.50000000000E+03  0.00000000000E+00 0.  1.
         11   -1    0    0    0    0 -0.00000000000E+00 -0.00000000000E+00 -0.50000000000E+03  0.50000000000E+03  0.00000000000E+00 0. -1.
         25    2    1    2    0    0  0.44905614531E+03  0.24016812609E+02  0.18933339658E+03  0.50368697543E+03  0.12500082093E+03 0.  0.
         23    2    1    2    0    0 -0.44905614531E+03 -0.24016812609E+02 -0.18933339658E+03  0.49631302457E+03  0.90836415431E+02 0.  0.
        -11    1    4    4    0    0 -0.21549020962E+03 -0.91659925722E+01 -0.13998285617E+03  0.25712885074E+03  0.00000000000E+00 0. -1.
         11    1    4    4    0    0 -0.23356593569E+03 -0.14850820037E+02 -0.49350540406E+02  0.23918417383E+03  0.00000000000E+00 0.  1.
        -15    1    3    3    0    0  0.25881788468E+03  0.72255330122E+01  0.41631070405E+02  0.26225028029E+03  0.17770000000E+01 0.  1.
         15    1    3    3    0    0  0.19023826062E+03  0.16791279597E+02  0.14770232618E+03  0.24143669514E+03  0.17770000000E+01 0.  1.
</event>
<event>
 8    1  0.2370702E-007  0.5036727E+03  0.7546771E-02  0.9391629E-01
        -11   -1    0    0    0    0  0.00000000000E+00  0.00000000000E+00  0.50000000000E+03  0.50000000000E+03  0.00000000000E+00 0. -1.
         11   -1    0    0    0    0 -0.00000000000E+00 -0.00000000000E+00 -0.50000000000E+03  0.50000000000E+03  0.00000000000E+00 0.  1.
         25    2    1    2    0    0  0.23051641404E+03 -0.24913007393E+03 -0.35050876793E+03  0.50367265878E+03  0.12500455962E+03 0.  0.
         23    2    1    2    0    0 -0.23051641404E+03  0.24913007393E+03  0.35050876793E+03  0.49632734122E+03  0.90999024024E+02 0.  0.
        -11    1    4    4    0    0 -0.92729680319E+02  0.14586309400E+03  0.12853527439E+03  0.21539766147E+03  0.00000000000E+00 0.  1.
         11    1    4    4    0    0 -0.13778673372E+03  0.10326697993E+03  0.22197349354E+03  0.28092967975E+03  0.00000000000E+00 0. -1.
        -15    1    3    3    0    0  0.18665969248E+03 -0.21215646246E+03 -0.21054037832E+03  0.35239553628E+03  0.17770000000E+01 0.  1.
         15    1    3    3    0    0  0.43856721558E+02 -0.36973611472E+02 -0.13996838961E+03  0.15127712249E+03  0.17770000000E+01 0.  1.
</event>
<event>
 8    1  0.2370702E-007  0.5036165E+03  0.7546771E-02  0.9391754E-01
        -11   -1    0    0    0    0  0.00000000000E+00  0.00000000000E+00  0.50000000000E+03  0.50000000000E+03  0.00000000000E+00 0.  1.
         11   -1    0    0    0    0 -0.00000000000E+00 -0.00000000000E+00 -0.50000000000E+03  0.50000000000E+03  0.00000000000E+00 0. -1.
         25    2    1    2    0    0 -0.13515299098E+03  0.46673428922E+03  0.43548184082E+02  0.50361651440E+03  0.12500368607E+03 0.  0.
         23    2    1    2    0    0  0.13515299098E+03 -0.46673428922E+03 -0.43548184082E+02  0.49638348560E+03  0.91612732375E+02 0.  0.
        -11    1    4    4    0    0  0.12996043044E+03 -0.46952089403E+03 -0.38623739868E+02  0.48870377193E+03  0.00000000000E+00 0.  1.
         11    1    4    4    0    0  0.51925605398E+01  0.27866048090E+01 -0.49244442141E+01  0.76797136756E+01  0.00000000000E+00 0. -1.
        -15    1    3    3    0    0 -0.13917409758E+03  0.25978596153E+03  0.27343166358E+02  0.29598814456E+03  0.17770000000E+01 0.  1.
         15    1    3    3    0    0  0.40211065979E+01  0.20694832769E+03  0.16205017724E+02  0.20762836984E+03  0.17770000000E+01 0.  1.
</event>
<event>
 8    1  0.2370702E-007  0.5032267E+03  0.7546771E-02  0.9392619E-01
        -11   -1    0    0    0    0  0.00000000000E+00  0.00000000000E+00  0.50000000000E+03  0.50000000000E+03  0.00000000000E+00 0. -1.
         11   -1    0    0    0    0 -0.00000000000E+00 -0.00000000000E+00 -0.50000000000E+03  0.50000000000E+03  0.00000000000E+00 0.  1.
         25    2    1    2    0    0 -0.12842237272E+03  0.42764865973E+03  0.19554227148E+03  0.50322666923E+03  0.12499847479E+03 0.  0.
         23    2    1    2    0    0  0.12842237272E+03 -0.42764865973E+03 -0.19554227148E+03  0.49677333077E+03  0.95766801383E+02 0.  0.
        -11    1    4    4    0    0  0.52648724238E+02 -0.32275265128E+03 -0.13266256835E+03  0.35290298824E+03  0.00000000000E+00 0.  1.
         11    1    4    4    0    0  0.75773648482E+02 -0.10489600846E+03 -0.62879703130E+02  0.14387034253E+03  0.00000000000E+00 0. -1.
        -15    1    3    3    0    0 -0.69479386636E+02  0.37377805540E+03  0.18452373936E+03  0.42259861332E+03  0.17770000000E+01 0.  1.
         15    1    3    3    0    0 -0.58942986083E+02  0.53870604335E+02  0.11018532113E+02  0.80628055903E+02  0.17770000000E+01 0.  1.
</event>
<event>
 8    1  0.2370702E-007  0.5036831E+03  0.7546771E-02  0.9391606E-01
        -11   -1    0    0    0    0  0.00000000000E+00  0.00000000000E+00  0.50000000000E+03  0.50000000000E+03  0.00000000000E+00 0.  1.
         11   -1    0    0    0    0 -0.00000000000E+00 -0.00000000000E+00 -0.50000000000E+03  0.50000000000E+03  0.00000000000E+00 0. -1.
         25    2    1    2    0    0  0.40465588846E+03  0.94926882435E+02 -0.25557850738E+03  0.50368313828E+03  0.12497531468E+03 0.  0.
         23    2    1    2    0    0 -0.40465588846E+03 -0.94926882435E+02  0.25557850738E+03  0.49631686172E+03  0.90843561781E+02 0.  0.
        -11    1    4    4    0    0 -0.65299169424E+02 -0.50518656504E+02  0.60709139969E+02  0.10247787985E+03  0.00000000000E+00 0.  1.
         11    1    4    4    0    0 -0.33935671904E+03 -0.44408225932E+02  0.19486936741E+03  0.39383898187E+03  0.00000000000E+00 0. -1.
        -15    1    3    3    0    0  0.18799998350E+03  0.10820740152E+03 -0.12480226221E+03  0.25026305745E+03  0.17770000000E+01 0. -1.
         15    1    3    3    0    0  0.21665590496E+03 -0.13280519086E+02 -0.13077624517E+03  0.25342008084E+03  0.17770000000E+01 0. -1.
</event>
<event>
 8    1  0.2370702E-007  0.5034034E+03  0.7546771E-02  0.9392226E-01
        -11   -1    0    0    0    0  0.00000000000E+00  0.00000000000E+00  0.50000000000E+03  0.50000000000E+03  0.00000000000E+00 0.  1.
         11   -1    0    0    0    0 -0.00000000000E+00 -0.00000000000E+00 -0.50000000000E+03  0.50000000000E+03  0.00000000000E+00 0. -1.
         25    2    1    2    0    0 -0.13311063723E+03 -0.36751411496E+03  0.29155608436E+03  0.50340337123E+03  0.12499974959E+03 0.  0.
         23    2    1    2    0    0  0.13311063723E+03  0.36751411496E+03 -0.29155608436E+03  0.49659662877E+03  0.93905244460E+02 0.  0.
        -11    1    4    4    0    0  0.45519525624E+02  0.52455683330E+02 -0.85205626260E+02  0.10992554150E+03  0.00000000000E+00 0. -1.
         11    1    4    4    0    0  0.87591111603E+02  0.31505843164E+03 -0.20635045810E+03  0.38667108727E+03  0.00000000000E+00 0.  1.
        -15    1    3    3    0    0 -0.52196454449E+02 -0.15706635558E+03  0.49867375619E+02  0.17287053766E+03  0.17770000000E+01 0.  1.
         15    1    3    3    0    0 -0.80914182779E+02 -0.21044775939E+03  0.24168870874E+03  0.33053283357E+03  0.17770000000E+01 0.  1.
</event>
<event>
 8    1  0.2370702E-007  0.5034641E+03  0.7546771E-02  0.9392092E-01
        -11   -1    0    0    0    0  0.00000000000E+00  0.00000000000E+00  0.50000000000E+03  0.50000000000E+03  0.00000000000E+00 0.  1.
         11   -1    0    0    0    0 -0.00000000000E+00 -0.00000000000E+00 -0.50000000000E+03  0.50000000000E+03  0.00000000000E+00 0. -1.
         25    2    1    2    0    0  0.14628286451E+03  0.23869838844E+03  0.39935121798E+03  0.50346411868E+03  0.12497650340E+03 0.  0.
         23    2    1    2    0    0 -0.14628286451E+03 -0.23869838844E+03 -0.39935121798E+03  0.49653588132E+03  0.93224937865E+02 0.  0.
        -11    1    4    4    0    0 -0.43149613955E+02 -0.12984471528E+03 -0.13265959698E+03  0.19057835119E+03  0.00000000000E+00 0.  1.
         11    1    4    4    0    0 -0.10313325056E+03 -0.10885367316E+03 -0.26669162100E+03  0.30595753013E+03  0.00000000000E+00 0. -1.
        -15    1    3    3    0    0 -0.15726548477E+02  0.73526207647E+02  0.96691603139E+02  0.12249837299E+03  0.17770000000E+01 0.  1.
         15    1    3    3    0    0  0.16200941299E+03  0.16517218079E+03  0.30265961484E+03  0.38096574569E+03  0.17770000000E+01 0.  1.
</event>
<event>
 8    1  0.2370702E-007  0.5031372E+03  0.7546771E-02  0.9392817E-01
        -11   -1    0    0    0    0  0.00000000000E+00  0.00000000000E+00  0.50000000000E+03  0.50000000000E+03  0.00000000000E+00 0. -1.
         11   -1    0    0    0    0 -0.00000000000E+00 -0.00000000000E+00 -0.50000000000E+03  0.50000000000E+03  0.00000000000E+00 0.  1.
         25    2    1    2    0    0 -0.11573833570E+03  0.45841724017E+03  0.11823911370E+03  0.50313721623E+03  0.12499936763E+03 0.  0.
         23    2    1    2    0    0  0.11573833570E+03 -0.45841724017E+03 -0.11823911370E+03  0.49686278377E+03  0.96697515243E+02 0.  0.
        -11    1    4    4    0    0  0.11630897478E+03 -0.45232704622E+03 -0.10000229782E+03  0.47762746354E+03  0.00000000000E+00 0. -1.
         11    1    4    4    0    0 -0.57063907564E+00 -0.60901939504E+01 -0.18236815874E+02  0.19235320235E+02  0.00000000000E+00 0.  1.
        -15    1    3    3    0    0 -0.45139409978E+02  0.91186225516E+02  0.75564454343E+02  0.12675029998E+03  0.17770000000E+01 0.  1.
         15    1    3    3    0    0 -0.70598925727E+02  0.36723101466E+03  0.42674659352E+02  0.37638691624E+03  0.17770000000E+01 0.  1.
</event>
<event>
 8    1  0.2370702E-007  0.5036603E+03  0.7546771E-02  0.9391657E-01
        -11   -1    0    0    0    0  0.00000000000E+00  0.00000000000E+00  0.50000000000E+03  0.50000000000E+03  0.00000000000E+00 0. -1.
         11   -1    0    0    0    0 -0.00000000000E+00 -0.00000000000E+00 -0.50000000000E+03  0.50000000000E+03  0.00000000000E+00 0.  1.
         25    2    1    2    0    0 -0.25556230907E+03 -0.32175926789E+03  0.26306910980E+03  0.50366028126E+03  0.12500880805E+03 0.  0.
         23    2    1    2    0    0  0.25556230907E+03  0.32175926789E+03 -0.26306910980E+03  0.49633971874E+03  0.91140767932E+02 0.  0.
        -11    1    4    4    0    0  0.20435980989E+03  0.28518174491E+03 -0.25314606988E+03  0.43263667462E+03  0.00000000000E+00 0.  1.
         11    1    4    4    0    0  0.51202499180E+02  0.36577522980E+02 -0.99230399242E+01  0.63703044127E+02  0.00000000000E+00 0. -1.
        -15    1    3    3    0    0 -0.16619766924E+03 -0.10940193348E+03  0.11610630090E+03  0.23037855618E+03  0.17770000000E+01 0. -1.
         15    1    3    3    0    0 -0.89364639827E+02 -0.21235733441E+03  0.14696280891E+03  0.27328172508E+03  0.17770000000E+01 0. -1.
</event>
<event>
 8    1  0.2370702E-007  0.5035234E+03  0.7546771E-02  0.9391960E-01
        -11   -1    0    0    0    0  0.00000000000E+00  0.00000000000E+00  0.50000000000E+03  0.50000000000E+03  0.00000000000E+00 0.  1.
         11   -1    0    0    0    0 -0.00000000000E+00 -0.00000000000E+00 -0.50000000000E+03  0.50000000000E+03  0.00000000000E+00 0. -1.
         25    2    1    2    0    0  0.35093156381E+03  0.38619844889E+02  0.33655002356E+03  0.50352339677E+03  0.12500175132E+03 0.  0.
         23    2    1    2    0    0 -0.35093156381E+03 -0.38619844889E+02 -0.33655002356E+03  0.49647660323E+03  0.92620971177E+02 0.  0.
        -11    1    4    4    0    0 -0.12667422846E+03  0.21182059897E+02 -0.83931655347E+02  0.15342608183E+03  0.00000000000E+00 0. -1.
         11    1    4    4    0    0 -0.22425733536E+03 -0.59801904786E+02 -0.25261836821E+03  0.34305052140E+03  0.00000000000E+00 0.  1.
        -15    1    3    3    0    0  0.23442312865E+03 -0.25351422664E+02  0.25622432204E+03  0.34821108370E+03  0.17770000000E+01 0.  1.
         15    1    3    3    0    0  0.11650843517E+03  0.63971267554E+02  0.80325701523E+02  0.15531231307E+03  0.17770000000E+01 0.  1.
</event>
<event>
 8    1  0.2370702E-007  0.5036753E+03  0.7546771E-02  0.9391623E-01
        -11   -1    0    0    0    0  0.00000000000E+00  0.00000000000E+00  0.50000000000E+03  0.50000000000E+03  0.00000000000E+00 0.  1.
         11   -1    0    0    0    0 -0.00000000000E+00 -0.00000000000E+00 -0.50000000000E+03  0.50000000000E+03  0.00000000000E+00 0. -1.
         25    2    1    2    0    0  0.47415500818E+02  0.29284130001E+03 -0.38737672507E+03  0.50367530692E+03  0.12499532377E+03 0.  0.
         23    2    1    2    0    0 -0.47415500818E+02 -0.29284130001E+03  0.38737672507E+03  0.49632469308E+03  0.90957226907E+02 0.  0.
        -11    1    4    4    0    0  0.69501898274E+01 -0.99124506066E+02  0.73906238826E+02  0.12383902850E+03  0.00000000000E+00 0.  1.
         11    1    4    4    0    0 -0.54365690645E+02 -0.19371679395E+03  0.31347048624E+03  0.37248566458E+03  0.00000000000E+00 0. -1.
        -15    1    3    3    0    0 -0.13648398423E+02  0.61792855416E+02 -0.16696911155E+03  0.17856785181E+03  0.17770000000E+01 0.  1.
         15    1    3    3    0    0  0.61063899241E+02  0.23104844460E+03 -0.22040761352E+03  0.32510745511E+03  0.17770000000E+01 0.  1.
</event>
<event>
 8    1  0.2370702E-007  0.5036636E+03  0.7546771E-02  0.9391649E-01
        -11   -1    0    0    0    0  0.00000000000E+00  0.00000000000E+00  0.50000000000E+03  0.50000000000E+03  0.00000000000E+00 0. -1.
         11   -1    0    0    0    0 -0.00000000000E+00 -0.00000000000E+00 -0.50000000000E+03  0.50000000000E+03  0.00000000000E+00 0.  1.
         25    2    1    2    0    0  0.10278296870E+03  0.42344885461E+03 -0.21950331444E+03  0.50366364478E+03  0.12498836306E+03 0.  0.
         23    2    1    2    0    0 -0.10278296870E+03 -0.42344885461E+03  0.21950331444E+03  0.49633635522E+03  0.91075799980E+02 0.  0.
        -11    1    4    4    0    0 -0.68194842237E+02 -0.36514937806E+03  0.15415603614E+03  0.40217992029E+03  0.00000000000E+00 0. -1.
         11    1    4    4    0    0 -0.34588126462E+02 -0.58299476544E+02  0.65347278300E+02  0.94156434930E+02  0.00000000000E+00 0.  1.
        -15    1    3    3    0    0 -0.19853739320E+02  0.59630616587E+02 -0.31226978629E+01  0.62951492202E+02  0.17770000000E+01 0. -1.
         15    1    3    3    0    0  0.12263670802E+03  0.36381823802E+03 -0.21638061658E+03  0.44071215258E+03  0.17770000000E+01 0. -1.
</event>
<event>
 8    1  0.2370702E-007  0.5036929E+03  0.7546771E-02  0.9391584E-01
        -11   -1    0    0    0    0  0.00000000000E+00  0.00000000000E+00  0.50000000000E+03  0.50000000000E+03  0.00000000000E+00 0. -1.
         11   -1    0    0    0    0 -0.00000000000E+00 -0.00000000000E+00 -0.50000000000E+03  0.50000000000E+03  0.00000000000E+00 0.  1.
         25    2    1    2    0    0 -0.26673524960E+03 -0.61507961272E+02  0.40391916565E+03  0.50369291064E+03  0.12499973270E+03 0.  0.
         23    2    1    2    0    0  0.26673524960E+03  0.61507961272E+02 -0.40391916565E+03  0.49630708936E+03  0.90769553742E+02 0.  0.
        -11    1    4    4    0    0  0.32153332401E+02  0.36851505050E+01 -0.11609364437E+03  0.12052033597E+03  0.00000000000E+00 0.  1.
         11    1    4    4    0    0  0.23458191719E+03  0.57822810767E+02 -0.28782552128E+03  0.37578675339E+03  0.00000000000E+00 0. -1.
        -15    1    3    3    0    0 -0.15910192947E+03 -0.97781183926E+02  0.23588340237E+03  0.30086329310E+03  0.17770000000E+01 0.  1.
         15    1    3    3    0    0 -0.10763332012E+03  0.36273222653E+02  0.16803576328E+03  0.20282961754E+03  0.17770000000E+01 0.  1.
</event>
<event>
 8    1  0.2370702E-007  0.5046570E+03  0.7546771E-02  0.9389449E-01
        -11   -1    0    0    0    0  0.00000000000E+00  0.00000000000E+00  0.50000000000E+03  0.50000000000E+03  0.00000000000E+00 0.  1.
         11   -1    0    0    0    0 -0.00000000000E+00 -0.00000000000E+00 -0.50000000000E+03  0.50000000000E+03  0.00000000000E+00 0. -1.
         25    2    1    2    0    0  0.25018492215E+03  0.74769793622E+02 -0.41336327795E+03  0.50465702363E+03  0.12500597841E+03 0.  0.
         23    2    1    2    0    0 -0.25018492215E+03 -0.74769793622E+02  0.41336327795E+03  0.49534297637E+03  0.79450911705E+02 0.  0.
        -11    1    4    4    0    0 -0.12111578311E+03 -0.44304001986E+02  0.27472909382E+03  0.30349292002E+03  0.00000000000E+00 0.  1.
         11    1    4    4    0    0 -0.12906913904E+03 -0.30465791636E+02  0.13863418413E+03  0.19185005635E+03  0.00000000000E+00 0. -1.
        -15    1    3    3    0    0  0.13101956077E+03 -0.25810122658E+02 -0.19001277218E+03  0.23225050927E+03  0.17770000000E+01 0.  1.
         15    1    3    3    0    0  0.11916536137E+03  0.10057991628E+03 -0.22335050577E+03  0.27240651436E+03  0.17770000000E+01 0.  1.
</event>
<event>
 8    1  0.2370702E-007  0.5035555E+03  0.7546771E-02  0.9391889E-01
        -11   -1    0    0    0    0  0.00000000000E+00  0.00000000000E+00  0.50000000000E+03  0.50000000000E+03  0.00000000000E+00 0.  1.
         11   -1    0    0    0    0 -0.00000000000E+00 -0.00000000000E+00 -0.50000000000E+03  0.50000000000E+03  0.00000000000E+00 0. -1.
         25    2    1    2    0    0  0.26441960145E+03  0.39045515808E+03 -0.12478349648E+03  0.50355553721E+03  0.12499720781E+03 0.  0.
         23    2    1    2    0    0 -0.26441960145E+03 -0.39045515808E+03  0.12478349648E+03  0.49644446279E+03  0.92267153043E+02 0.  0.
        -11    1    4    4    0    0 -0.35967618096E+02 -0.10073110493E+03  0.12222577245E-01  0.10695992334E+03  0.00000000000E+00 0. -1.
         11    1    4    4    0    0 -0.22845198336E+03 -0.28972405316E+03  0.12477127390E+03  0.38948453945E+03  0.00000000000E+00 0.  1.
        -15    1    3    3    0    0  0.14246170948E+03  0.22891626660E+03 -0.13366866268E+03  0.30094595012E+03  0.17770000000E+01 0.  1.
         15    1    3    3    0    0  0.12195789197E+03  0.16153889149E+03  0.88851661962E+01  0.20260958709E+03  0.17770000000E+01 0.  1.
</event>
<event>
 8    1  0.2370702E-007  0.5036152E+03  0.7546771E-02  0.9391756E-01
        -11   -1    0    0    0    0  0.00000000000E+00  0.00000000000E+00  0.50000000000E+03  0.50000000000E+03  0.00000000000E+00 0. -1.
         11   -1    0    0    0    0 -0.00000000000E+00 -0.00000000000E+00 -0.50000000000E+03  0.50000000000E+03  0.00000000000E+00 0.  1.
         25    2    1    2    0    0 -0.21064887096E+03 -0.43370840111E+03  0.74362612153E+02  0.50361524368E+03  0.12499036581E+03 0.  0.
         23    2    1    2    0    0  0.21064887096E+03  0.43370840111E+03 -0.74362612153E+02  0.49638475632E+03  0.91608428570E+02 0.  0.
        -11    1    4    4    0    0  0.81876601202E+01  0.42882912362E+01 -0.15429603183E+02  0.17986102256E+02  0.00000000000E+00 0.  1.
         11    1    4    4    0    0  0.20246121084E+03  0.42942010988E+03 -0.58933008970E+02  0.47839865406E+03  0.00000000000E+00 0. -1.
        -15    1    3    3    0    0 -0.12458220538E+03 -0.35314837422E+03  0.88704365054E+02  0.38484558230E+03  0.17770000000E+01 0. -1.
         15    1    3    3    0    0 -0.86066665585E+02 -0.80560026895E+02 -0.14341752901E+02  0.11876966138E+03  0.17770000000E+01 0. -1.
</event>
<event>
 8    1  0.2370702E-007  0.5033085E+03  0.7546771E-02  0.9392437E-01
        -11   -1    0    0    0    0  0.00000000000E+00  0.00000000000E+00  0.50000000000E+03  0.50000000000E+03  0.00000000000E+00 0. -1.
         11   -1    0    0    0    0 -0.00000000000E+00 -0.00000000000E+00 -0.50000000000E+03  0.50000000000E+03  0.00000000000E+00 0.  1.
         25    2    1    2    0    0 -0.47819870477E+03  0.94598815770E+02 -0.84365278274E+01  0.50330848089E+03  0.12500125895E+03 0.  0.
         23    2    1    2    0    0  0.47819870477E+03 -0.94598815770E+02  0.84365278274E+01  0.49669151911E+03  0.94912343572E+02 0.  0.
        -11    1    4    4    0    0  0.33333654471E+03 -0.29974992218E+02  0.32490731273E+02  0.33625496251E+03  0.00000000000E+00 0. -1.
         11    1    4    4    0    0  0.14486216007E+03 -0.64623823552E+02 -0.24054203446E+02  0.16043655660E+03  0.00000000000E+00 0.  1.
        -15    1    3    3    0    0 -0.10571215492E+03  0.73068452844E+02  0.15381630158E+02  0.12943651252E+03  0.17770000000E+01 0. -1.
         15    1    3    3    0    0 -0.37248654985E+03  0.21530362926E+02 -0.23818157985E+02  0.37387196837E+03  0.17770000000E+01 0. -1.
</event>
<event>
 8    1  0.2370702E-007  0.5036574E+03  0.7546771E-02  0.9391663E-01
        -11   -1    0    0    0    0  0.00000000000E+00  0.00000000000E+00  0.50000000000E+03  0.50000000000E+03  0.00000000000E+00 0. -1.
         11   -1    0    0    0    0 -0.00000000000E+00 -0.00000000000E+00 -0.50000000000E+03  0.50000000000E+03  0.00000000000E+00 0.  1.
         25    2    1    2    0    0 -0.38506870699E+03  0.54585759560E+02  0.29459873398E+03  0.50365737765E+03  0.12499930297E+03 0.  0.
         23    2    1    2    0    0  0.38506870699E+03 -0.54585759560E+02 -0.29459873398E+03  0.49634262235E+03  0.91159587804E+02 0.  0.
        -11    1    4    4    0    0  0.23231599588E+03 -0.74358455899E+02 -0.20130143264E+03  0.31626281585E+03  0.00000000000E+00 0. -1.
         11    1    4    4    0    0  0.15275271112E+03  0.19772696338E+02 -0.93297301337E+02  0.18007980651E+03  0.00000000000E+00 0.  1.
        -15    1    3    3    0    0 -0.16587529060E+03 -0.32364117434E+02  0.15671811999E+03  0.23049029262E+03  0.17770000000E+01 0. -1.
         15    1    3    3    0    0 -0.21919341640E+03  0.86949876995E+02  0.13788061398E+03  0.27316708503E+03  0.17770000000E+01 0. -1.
</event>
<event>
 8    1  0.2370702E-007  0.5037168E+03  0.7546771E-02  0.9391531E-01
        -11   -1    0    0    0    0  0.00000000000E+00  0.00000000000E+00  0.50000000000E+03  0.50000000000E+03  0.00000000000E+00 0.  1.
         11   -1    0    0    0    0 -0.00000000000E+00 -0.00000000000E+00 -0.50000000000E+03  0.50000000000E+03  0.00000000000E+00 0. -1.
         25    2    1    2    0    0  0.33654244012E+03  0.21152066709E+03  0.28302274862E+03  0.50371677554E+03  0.12500762825E+03 0.  0.
         23    2    1    2    0    0 -0.33654244012E+03 -0.21152066709E+03 -0.28302274862E+03  0.49628322446E+03  0.90517158783E+02 0.  0.
        -11    1    4    4    0    0 -0.18024700840E+03 -0.16051757577E+03 -0.14458016994E+03  0.28135085162E+03  0.00000000000E+00 0. -1.
         11    1    4    4    0    0 -0.15629543172E+03 -0.51003091311E+02 -0.13844257868E+03  0.21493237283E+03  0.00000000000E+00 0.  1.
        -15    1    3    3    0    0  0.29478884930E+03  0.13051291407E+03  0.24513299690E+03  0.40500300037E+03  0.17770000000E+01 0.  1.
         15    1    3    3    0    0  0.41753590826E+02  0.81007753011E+02  0.37889751717E+02  0.98713775173E+02  0.17770000000E+01 0.  1.
</event>
<event>
 8    1  0.2370702E-007  0.5036694E+03  0.7546771E-02  0.9391636E-01
        -11   -1    0    0    0    0  0.00000000000E+00  0.00000000000E+00  0.50000000000E+03  0.50000000000E+03  0.00000000000E+00 0. -1.
         11   -1    0    0    0    0 -0.00000000000E+00 -0.00000000000E+00 -0.50000000000E+03  0.50000000000E+03  0.00000000000E+00 0.  1.
         25    2    1    2    0    0  0.40422288635E+03 -0.18126359390E+03  0.20446430352E+03  0.50366938699E+03  0.12499827063E+03 0.  0.
         23    2    1    2    0    0 -0.40422288635E+03  0.18126359390E+03 -0.20446430352E+03  0.49633061301E+03  0.91026335038E+02 0.  0.
        -11    1    4    4    0    0 -0.98699178115E+02  0.63459503964E+02 -0.95300986942E+02  0.15116518950E+03  0.00000000000E+00 0.  1.
         11    1    4    4    0    0 -0.30552370823E+03  0.11780408993E+03 -0.10916331658E+03  0.34516542351E+03  0.00000000000E+00 0. -1.
        -15    1    3    3    0    0  0.17628432295E+03 -0.73877686732E+02  0.21664271162E+02  0.19237092683E+03  0.17770000000E+01 0. -1.
         15    1    3    3    0    0  0.22793856340E+03 -0.10738590717E+03  0.18280003236E+03  0.31129846017E+03  0.17770000000E+01 0. -1.
</event>
<event>
 8    1  0.2370702E-007  0.5035175E+03  0.7546771E-02  0.9391973E-01
        -11   -1    0    0    0    0  0.00000000000E+00  0.00000000000E+00  0.50000000000E+03  0.50000000000E+03  0.00000000000E+00 0.  1.
         11   -1    0    0    0    0 -0.00000000000E+00 -0.00000000000E+00 -0.50000000000E+03  0.50000000000E+03  0.00000000000E+00 0. -1.
         25    2    1    2    0    0 -0.17362168542E+03  0.42891947424E+03 -0.15424051746E+03  0.50351748747E+03  0.12499327153E+03 0.  0.
         23    2    1    2    0    0  0.17362168542E+03 -0.42891947424E+03  0.15424051746E+03  0.49648251253E+03  0.92673313255E+02 0.  0.
        -11    1    4    4    0    0 -0.11041483895E+02 -0.24742150585E+02  0.14100738009E+02  0.30543725945E+02  0.00000000000E+00 0.  1.
         11    1    4    4    0    0  0.18466316932E+03 -0.40417732366E+03  0.14013977945E+03  0.46593878659E+03  0.00000000000E+00 0. -1.
        -15    1    3    3    0    0 -0.12703837881E+03  0.37405351733E+03 -0.85946756821E+02  0.40428305214E+03  0.17770000000E+01 0.  1.
         15    1    3    3    0    0 -0.46583306617E+02  0.54865956917E+02 -0.68293760635E+02  0.99234435326E+02  0.17770000000E+01 0.  1.
</event>
<event>
 8    1  0.2370702E-007  0.5037418E+03  0.7546771E-02  0.9391476E-01
        -11   -1    0    0    0    0  0.00000000000E+00  0.00000000000E+00  0.50000000000E+03  0.50000000000E+03  0.00000000000E+00 0.  1.
         11   -1    0    0    0    0 -0.00000000000E+00 -0.00000000000E+00 -0.50000000000E+03  0.50000000000E+03  0.00000000000E+00 0. -1.
         25    2    1    2    0    0 -0.26040928034E+03 -0.36277677912E+03 -0.19675236545E+03  0.50374175957E+03  0.12499712905E+03 0.  0.
         23    2    1    2    0    0  0.26040928034E+03  0.36277677912E+03  0.19675236545E+03  0.49625824043E+03  0.90226177588E+02 0.  0.
        -11    1    4    4    0    0  0.67045634342E+02  0.15697262318E+03  0.99584234838E+02  0.19761715852E+03  0.00000000000E+00 0.  1.
         11    1    4    4    0    0  0.19336364599E+03  0.20580415595E+03  0.97168130614E+02  0.29864108191E+03  0.00000000000E+00 0. -1.
        -15    1    3    3    0    0 -0.47071758021E+02 -0.54251554913E+02 -0.87158271738E+02  0.11295443185E+03  0.17770000000E+01 0. -1.
         15    1    3    3    0    0 -0.21333752232E+03 -0.30852522421E+03 -0.10959409371E+03  0.39078732772E+03  0.17770000000E+01 0. -1.
</event>
<event>
 8    1  0.2370702E-007  0.5030068E+03  0.7546771E-02  0.9393107E-01
        -11   -1    0    0    0    0  0.00000000000E+00  0.00000000000E+00  0.50000000000E+03  0.50000000000E+03  0.00000000000E+00 0.  1.
         11   -1    0    0    0    0 -0.00000000000E+00 -0.00000000000E+00 -0.50000000000E+03  0.50000000000E+03  0.00000000000E+00 0. -1.
         25    2    1    2    0    0 -0.23379239565E+03 -0.39540658396E+03 -0.16243571656E+03  0.50300683390E+03  0.12500104812E+03 0.  0.
         23    2    1    2    0    0  0.23379239565E+03  0.39540658396E+03  0.16243571656E+03  0.49699316610E+03  0.98038738394E+02 0.  0.
        -11    1    4    4    0    0  0.78292471408E+02  0.59331200644E+02  0.48505297016E+02  0.10955668071E+03  0.00000000000E+00 0.  1.
         11    1    4    4    0    0  0.15549992424E+03  0.33607538332E+03  0.11393041955E+03  0.38743648539E+03  0.00000000000E+00 0. -1.
        -15    1    3    3    0    0 -0.90750229862E+02 -0.53347921884E+02 -0.34893597392E+02  0.11091585034E+03  0.17770000000E+01 0.  1.
         15    1    3    3    0    0 -0.14304216579E+03 -0.34205866208E+03 -0.12754211917E+03  0.39209098356E+03  0.17770000000E+01 0.  1.
</event>
<event>
 8    1  0.2370702E-007  0.5034277E+03  0.7546771E-02  0.9392172E-01
        -11   -1    0    0    0    0  0.00000000000E+00  0.00000000000E+00  0.50000000000E+03  0.50000000000E+03  0.00000000000E+00 0.  1.
         11   -1    0    0    0    0 -0.00000000000E+00 -0.00000000000E+00 -0.50000000000E+03  0.50000000000E+03  0.00000000000E+00 0. -1.
         25    2    1    2    0    0  0.24780909495E+01  0.46941801471E+03 -0.13211809683E+03  0.50342774082E+03  0.12499954101E+03 0.  0.
         23    2    1    2    0    0 -0.24780909495E+01 -0.46941801471E+03  0.13211809683E+03  0.49657225918E+03  0.93645093858E+02 0.  0.
        -11    1    4    4    0    0 -0.40801400919E+02 -0.11479432189E+03  0.28138262731E+02  0.12503700446E+03  0.00000000000E+00 0. -1.
         11    1    4    4    0    0  0.38323309969E+02 -0.35462369282E+03  0.10397983410E+03  0.37153525472E+03  0.00000000000E+00 0.  1.
        -15    1    3    3    0    0  0.12841223290E+02 -0.12089341138E+01 -0.11750386241E+02  0.17538182434E+02  0.17770000000E+01 0.  1.
         15    1    3    3    0    0 -0.10363132340E+02  0.47062694882E+03 -0.12036771059E+03  0.48588955839E+03  0.17770000000E+01 0.  1.
</event>
<event>
 8    1  0.2370702E-007  0.5037251E+03  0.7546771E-02  0.9391513E-01
        -11   -1    0    0    0    0  0.00000000000E+00  0.00000000000E+00  0.50000000000E+03  0.50000000000E+03  0.00000000000E+00 0.  1.
         11   -1    0    0    0    0 -0.00000000000E+00 -0.00000000000E+00 -0.50000000000E+03  0.50000000000E+03  0.00000000000E+00 0. -1.
         25    2    1    2    0    0 -0.73774525951E+02 -0.35423222854E+03  0.32740243124E+03  0.50372510342E+03  0.12499390151E+03 0.  0.
         23    2    1    2    0    0  0.73774525951E+02  0.35423222854E+03 -0.32740243124E+03  0.49627489658E+03  0.90406131329E+02 0.  0.
        -11    1    4    4    0    0  0.43999019204E+01  0.16095557285E+03 -0.19069779341E+03  0.24958306028E+03  0.00000000000E+00 0.  1.
         11    1    4    4    0    0  0.69374624031E+02  0.19327665569E+03 -0.13670463783E+03  0.24669183630E+03  0.00000000000E+00 0. -1.
        -15    1    3    3    0    0  0.56726973382E+01 -0.17954763173E+02 -0.94668938183E+01  0.21150244047E+02  0.17770000000E+01 0.  1.
         15    1    3    3    0    0 -0.79447223290E+02 -0.33627746537E+03  0.33686932506E+03  0.48257485937E+03  0.17770000000E+01 0.  1.
</event>
<event>
 8    1  0.2370702E-007  0.5038077E+03  0.7546771E-02  0.9391330E-01
        -11   -1    0    0    0    0  0.00000000000E+00  0.00000000000E+00  0.50000000000E+03  0.50000000000E+03  0.00000000000E+00 0.  1.
         11   -1    0    0    0    0 -0.00000000000E+00 -0.00000000000E+00 -0.50000000000E+03  0.50000000000E+03  0.00000000000E+00 0. -1.
         25    2    1    2    0    0 -0.31857531140E+03 -0.29882359197E+03  0.21773773523E+03  0.50380772090E+03  0.12500692040E+03 0.  0.
         23    2    1    2    0    0  0.31857531140E+03  0.29882359197E+03 -0.21773773523E+03  0.49619227910E+03  0.89505800590E+02 0.  0.
        -11    1    4    4    0    0  0.47806050803E+02  0.95817821342E+02 -0.43835405021E+02  0.11570659494E+03  0.00000000000E+00 0.  1.
         11    1    4    4    0    0  0.27076926060E+03  0.20300577063E+03 -0.17390233021E+03  0.38048568415E+03  0.00000000000E+00 0. -1.
        -15    1    3    3    0    0 -0.14243937476E+02 -0.71263787736E+02  0.19810586718E+02  0.75346096597E+02  0.17770000000E+01 0.  1.
         15    1    3    3    0    0 -0.30433137392E+03 -0.22755980424E+03  0.19792714851E+03  0.42846162431E+03  0.17770000000E+01 0.  1.
</event>
<event>
 8    1  0.2370702E-007  0.5037301E+03  0.7546771E-02  0.9391502E-01
        -11   -1    0    0    0    0  0.00000000000E+00  0.00000000000E+00  0.50000000000E+03  0.50000000000E+03  0.00000000000E+00 0.  1.
         11   -1    0    0    0    0 -0.00000000000E+00 -0.00000000000E+00 -0.50000000000E+03  0.50000000000E+03  0.00000000000E+00 0. -1.
         25    2    1    2    0    0 -0.14403523963E+03  0.45381047670E+03  0.10690011919E+03  0.50373005999E+03  0.12500495527E+03 0.  0.
         23    2    1    2    0    0  0.14403523963E+03 -0.45381047670E+03 -0.10690011919E+03  0.49626994001E+03  0.90366580416E+02 0.  0.
        -11    1    4    4    0    0  0.18849529244E+02 -0.12790336271E+03 -0.64806858042E+02  0.14461847667E+03  0.00000000000E+00 0. -1.
         11    1    4    4    0    0  0.12518571039E+03 -0.32590711399E+03 -0.42093261148E+02  0.35165146334E+03  0.00000000000E+00 0.  1.
        -15    1    3    3    0    0 -0.12154338780E+03  0.26216517136E+03  0.11395567417E+03  0.31063229967E+03  0.17770000000E+01 0.  1.
         15    1    3    3    0    0 -0.22491851826E+02  0.19164530534E+03 -0.70555549812E+01  0.19309776032E+03  0.17770000000E+01 0.  1.
</event>
<event>
 8    1  0.2370702E-007  0.5028357E+03  0.7546771E-02  0.9393487E-01
        -11   -1    0    0    0    0  0.00000000000E+00  0.00000000000E+00  0.50000000000E+03  0.50000000000E+03  0.00000000000E+00 0.  1.
         11   -1    0    0    0    0 -0.00000000000E+00 -0.00000000000E+00 -0.50000000000E+03  0.50000000000E+03  0.00000000000E+00 0. -1.
         25    2    1    2    0    0  0.25955397704E+03 -0.11808437771E+03  0.39485131960E+03  0.50283568286E+03  0.12499588837E+03 0.  0.
         23    2    1    2    0    0 -0.25955397704E+03  0.11808437771E+03 -0.39485131960E+03  0.49716431714E+03  0.99762750510E+02 0.  0.
        -11    1    4    4    0    0 -0.16645789799E+03  0.23307912407E+02 -0.24204508917E+03  0.29468171945E+03  0.00000000000E+00 0. -1.
         11    1    4    4    0    0 -0.93096079048E+02  0.94776465306E+02 -0.15280623043E+03  0.20248259769E+03  0.00000000000E+00 0.  1.
        -15    1    3    3    0    0  0.20706694766E+03 -0.11811943974E+03  0.23569072271E+03  0.33523454082E+03  0.17770000000E+01 0. -1.
         15    1    3    3    0    0  0.52487029383E+02  0.35062024147E-01  0.15916059689E+03  0.16760114204E+03  0.17770000000E+01 0. -1.
</event>
<event>
 8    1  0.2370702E-007  0.5041580E+03  0.7546771E-02  0.9390554E-01
        -11   -1    0    0    0    0  0.00000000000E+00  0.00000000000E+00  0.50000000000E+03  0.50000000000E+03  0.00000000000E+00 0.  1.
         11   -1    0    0    0    0 -0.00000000000E+00 -0.00000000000E+00 -0.50000000000E+03  0.50000000000E+03  0.00000000000E+00 0. -1.
         25    2    1    2    0    0 -0.19113442963E+02  0.48015116257E+03 -0.87402138827E+02  0.50415796310E+03  0.12500262106E+03 0.  0.
         23    2    1    2    0    0  0.19113442963E+02 -0.48015116257E+03  0.87402138827E+02  0.49584203690E+03  0.85496953534E+02 0.  0.
        -11    1    4    4    0    0 -0.22465891562E+02 -0.69590077895E+02  0.30676247832E+02  0.79300235852E+02  0.00000000000E+00 0.  1.
         11    1    4    4    0    0  0.41579334524E+02 -0.41056108467E+03  0.56725890995E+02  0.41654180104E+03  0.00000000000E+00 0. -1.
        -15    1    3    3    0    0 -0.32944317411E+02  0.43406690971E+03 -0.40926323740E+02  0.43723852970E+03  0.17770000000E+01 0.  1.
         15    1    3    3    0    0  0.13830874448E+02  0.46084252859E+02 -0.46475815087E+02  0.66919433400E+02  0.17770000000E+01 0.  1.
</event>
<event>
 8    1  0.2370702E-007  0.5037594E+03  0.7546771E-02  0.9391437E-01
        -11   -1    0    0    0    0  0.00000000000E+00  0.00000000000E+00  0.50000000000E+03  0.50000000000E+03  0.00000000000E+00 0.  1.
         11   -1    0    0    0    0 -0.00000000000E+00 -0.00000000000E+00 -0.50000000000E+03  0.50000000000E+03  0.00000000000E+00 0. -1.
         25    2    1    2    0    0 -0.41326940818E+03 -0.23075164101E+03  0.11878810255E+03  0.50375938563E+03  0.12499992694E+03 0.  0.
         23    2    1    2    0    0  0.41326940818E+03  0.23075164101E+03 -0.11878810255E+03  0.49624061437E+03  0.90034496042E+02 0.  0.
        -11    1    4    4    0    0  0.36344853652E+03  0.21148469028E+03 -0.13288035335E+03  0.44099637326E+03  0.00000000000E+00 0. -1.
         11    1    4    4    0    0  0.49820871659E+02  0.19266950729E+02  0.14092250800E+02  0.55244241111E+02  0.00000000000E+00 0.  1.
        -15    1    3    3    0    0 -0.25491658804E+03 -0.18549578914E+03  0.30114649952E+02  0.31670365409E+03  0.17770000000E+01 0. -1.
         15    1    3    3    0    0 -0.15835282015E+03 -0.45255851869E+02  0.88673452595E+02  0.18705573154E+03  0.17770000000E+01 0. -1.
</event>
<event>
 8    1  0.2370702E-007  0.5035103E+03  0.7546771E-02  0.9391989E-01
        -11   -1    0    0    0    0  0.00000000000E+00  0.00000000000E+00  0.50000000000E+03  0.50000000000E+03  0.00000000000E+00 0. -1.
         11   -1    0    0    0    0 -0.00000000000E+00 -0.00000000000E+00 -0.50000000000E+03  0.50000000000E+03  0.00000000000E+00 0.  1.
         25    2    1    2    0    0 -0.26343059108E+03 -0.40075444980E+03 -0.88874011513E+02  0.50351029361E+03  0.12499688195E+03 0.  0.
         23    2    1    2    0    0  0.26343059108E+03  0.40075444980E+03  0.88874011513E+02  0.49648970639E+03  0.92755772256E+02 0.  0.
        -11    1    4    4    0    0  0.23580575435E+03  0.32840539388E+03  0.10428357194E+03  0.41752786720E+03  0.00000000000E+00 0. -1.
         11    1    4    4    0    0  0.27624836724E+02  0.72349055917E+02 -0.15409560424E+02  0.78961839192E+02  0.00000000000E+00 0.  1.
        -15    1    3    3    0    0 -0.17848907104E+03 -0.34915462265E+03 -0.44497289749E+02  0.39465233501E+03  0.17770000000E+01 0. -1.
         15    1    3    3    0    0 -0.84941520035E+02 -0.51599827142E+02 -0.44376721764E+02  0.10885795860E+03  0.17770000000E+01 0. -1.
</event>
<event>
 8    1  0.2370702E-007  0.5035286E+03  0.7546771E-02  0.9391949E-01
        -11   -1    0    0    0    0  0.00000000000E+00  0.00000000000E+00  0.50000000000E+03  0.50000000000E+03  0.00000000000E+00 0. -1.
         11   -1    0    0    0    0 -0.00000000000E+00 -0.00000000000E+00 -0.50000000000E+03  0.50000000000E+03  0.00000000000E+00 0.  1.
         25    2    1    2    0    0 -0.36104561586E+03 -0.15001530509E+03  0.29164732338E+03  0.50352863320E+03  0.12499757888E+03 0.  0.
         23    2    1    2    0    0  0.36104561586E+03  0.15001530509E+03 -0.29164732338E+03  0.49647136680E+03  0.92558783081E+02 0.  0.
        -11    1    4    4    0    0  0.24701687870E+03  0.85124287535E+02 -0.24219518946E+03  0.35626112963E+03  0.00000000000E+00 0.  1.
         11    1    4    4    0    0  0.11402873716E+03  0.64891017556E+02 -0.49452133928E+02  0.14021023717E+03  0.00000000000E+00 0. -1.
        -15    1    3    3    0    0 -0.65789600448E+02 -0.59760043848E+02  0.12288224073E+03  0.15166653284E+03  0.17770000000E+01 0. -1.
         15    1    3    3    0    0 -0.29525601541E+03 -0.90255261243E+02  0.16876508265E+03  0.35186210036E+03  0.17770000000E+01 0. -1.
</event>
<event>
 8    1  0.2370702E-007  0.5036582E+03  0.7546771E-02  0.9391661E-01
        -11   -1    0    0    0    0  0.00000000000E+00  0.00000000000E+00  0.50000000000E+03  0.50000000000E+03  0.00000000000E+00 0.  1.
         11   -1    0    0    0    0 -0.00000000000E+00 -0.00000000000E+00 -0.50000000000E+03  0.50000000000E+03  0.00000000000E+00 0. -1.
         25    2    1    2    0    0 -0.36219116962E+03  0.30628491236E+03  0.11424803785E+03  0.50365822674E+03  0.12500441722E+03 0.  0.
         23    2    1    2    0    0  0.36219116962E+03 -0.30628491236E+03 -0.11424803785E+03  0.49634177326E+03  0.91157286278E+02 0.  0.
        -11    1    4    4    0    0  0.82774417442E+02 -0.68964350861E+02  0.12474129197E+02  0.10845870077E+03  0.00000000000E+00 0.  1.
         11    1    4    4    0    0  0.27941675218E+03 -0.23732056150E+03 -0.12672216704E+03  0.38788307249E+03  0.00000000000E+00 0. -1.
        -15    1    3    3    0    0 -0.14674546940E+02  0.54246173588E+00 -0.17004841978E+02  0.22537945167E+02  0.17770000000E+01 0.  1.
         15    1    3    3    0    0 -0.34751662268E+03  0.30574245062E+03  0.13125287982E+03  0.48112028157E+03  0.17770000000E+01 0.  1.
</event>
<event>
 8    1  0.2370702E-007  0.5036992E+03  0.7546771E-02  0.9391570E-01
        -11   -1    0    0    0    0  0.00000000000E+00  0.00000000000E+00  0.50000000000E+03  0.50000000000E+03  0.00000000000E+00 0.  1.
         11   -1    0    0    0    0 -0.00000000000E+00 -0.00000000000E+00 -0.50000000000E+03  0.50000000000E+03  0.00000000000E+00 0. -1.
         25    2    1    2    0    0 -0.31438845772E+03  0.71297055321E+02 -0.36628775793E+03  0.50369915361E+03  0.12499097286E+03 0.  0.
         23    2    1    2    0    0  0.31438845772E+03 -0.71297055321E+02  0.36628775793E+03  0.49630084639E+03  0.90688676623E+02 0.  0.
        -11    1    4    4    0    0  0.14447513365E+03 -0.24449614955E+02  0.23332277874E+03  0.27551836053E+03  0.00000000000E+00 0. -1.
         11    1    4    4    0    0  0.16991332408E+03 -0.46847440366E+02  0.13296497919E+03  0.22078248585E+03  0.00000000000E+00 0.  1.
        -15    1    3    3    0    0 -0.23079179697E+03  0.30090661214E+01 -0.29396837484E+03  0.37375723560E+03  0.17770000000E+01 0. -1.
         15    1    3    3    0    0 -0.83596660753E+02  0.68287989200E+02 -0.72319383091E+02  0.12994191802E+03  0.17770000000E+01 0. -1.
</event>
<event>
 8    1  0.2370702E-007  0.5037730E+03  0.7546771E-02  0.9391407E-01
        -11   -1    0    0    0    0  0.00000000000E+00  0.00000000000E+00  0.50000000000E+03  0.50000000000E+03  0.00000000000E+00 0. -1.
         11   -1    0    0    0    0 -0.00000000000E+00 -0.00000000000E+00 -0.50000000000E+03  0.50000000000E+03  0.00000000000E+00 0.  1.
         25    2    1    2    0    0  0.45114664783E+03  0.16062240042E+03  0.93986175406E+02  0.50377296125E+03  0.12498376675E+03 0.  0.
         23    2    1    2    0    0 -0.45114664783E+03 -0.16062240042E+03 -0.93986175406E+02  0.49622703875E+03  0.89861112053E+02 0.  0.
        -11    1    4    4    0    0 -0.97225878032E+02 -0.67662774569E+02 -0.11525723887E+00  0.11845309496E+03  0.00000000000E+00 0. -1.
         11    1    4    4    0    0 -0.35392076980E+03 -0.92959625850E+02 -0.93870918167E+02  0.37777394379E+03  0.00000000000E+00 0.  1.
        -15    1    3    3    0    0  0.34976374836E+03  0.16591875832E+03  0.41137498771E+02  0.38930600505E+03  0.17770000000E+01 0.  1.
         15    1    3    3    0    0  0.10138289947E+03 -0.52963578967E+01  0.52848676634E+02  0.11446695620E+03  0.17770000000E+01 0.  1.
</event>
<event>
 8    1  0.2370702E-007  0.5029726E+03  0.7546771E-02  0.9393183E-01
        -11   -1    0    0    0    0  0.00000000000E+00  0.00000000000E+00  0.50000000000E+03  0.50000000000E+03  0.00000000000E+00 0. -1.
         11   -1    0    0    0    0 -0.00000000000E+00 -0.00000000000E+00 -0.50000000000E+03  0.50000000000E+03  0.00000000000E+00 0.  1.
         25    2    1    2    0    0 -0.45420866989E+03 -0.48854987999E+02 -0.16930458712E+03  0.50297264356E+03  0.12500044517E+03 0.  0.
         23    2    1    2    0    0  0.45420866989E+03  0.48854987999E+02  0.16930458712E+03  0.49702735644E+03  0.98386097496E+02 0.  0.
        -11    1    4    4    0    0  0.36572088131E+03  0.34491556196E+02  0.92087130750E+02  0.37871027201E+03  0.00000000000E+00 0.  1.
         11    1    4    4    0    0  0.88487788574E+02  0.14363431803E+02  0.77217456375E+02  0.11831708443E+03  0.00000000000E+00 0. -1.
        -15    1    3    3    0    0 -0.25091810135E+03 -0.23458312385E+02 -0.26868829109E+02  0.25344679464E+03  0.17770000000E+01 0. -1.
         15    1    3    3    0    0 -0.20329056853E+03 -0.25396675614E+02 -0.14243575802E+03  0.24952584892E+03  0.17770000000E+01 0. -1.
</event>
<event>
 8    1  0.2370702E-007  0.5035187E+03  0.7546771E-02  0.9391971E-01
        -11   -1    0    0    0    0  0.00000000000E+00  0.00000000000E+00  0.50000000000E+03  0.50000000000E+03  0.00000000000E+00 0. -1.
         11   -1    0    0    0    0 -0.00000000000E+00 -0.00000000000E+00 -0.50000000000E+03  0.50000000000E+03  0.00000000000E+00 0.  1.
         25    2    1    2    0    0  0.33076382056E+03  0.18138910908E+03  0.30919074085E+03  0.50351871756E+03  0.12500188326E+03 0.  0.
         23    2    1    2    0    0 -0.33076382056E+03 -0.18138910908E+03 -0.30919074085E+03  0.49648128244E+03  0.92671655342E+02 0.  0.
        -11    1    4    4    0    0 -0.21047923253E+03 -0.16354304974E+03 -0.20314894620E+03  0.33513777881E+03  0.00000000000E+00 0.  1.
         11    1    4    4    0    0 -0.12028458803E+03 -0.17846059339E+02 -0.10604179465E+03  0.16134350363E+03  0.00000000000E+00 0. -1.
        -15    1    3    3    0    0  0.23559413756E+03  0.11391008147E+03  0.27998101575E+03  0.38323965247E+03  0.17770000000E+01 0. -1.
         15    1    3    3    0    0  0.95169683004E+02  0.67479027606E+02  0.29209725100E+02  0.12027906509E+03  0.17770000000E+01 0. -1.
</event>
<event>
 8    1  0.2370702E-007  0.5036019E+03  0.7546771E-02  0.9391786E-01
        -11   -1    0    0    0    0  0.00000000000E+00  0.00000000000E+00  0.50000000000E+03  0.50000000000E+03  0.00000000000E+00 0. -1.
         11   -1    0    0    0    0 -0.00000000000E+00 -0.00000000000E+00 -0.50000000000E+03  0.50000000000E+03  0.00000000000E+00 0.  1.
         25    2    1    2    0    0  0.40746750278E+03 -0.26804933416E+03 -0.10452256914E+02  0.50360188751E+03  0.12500160026E+03 0.  0.
         23    2    1    2    0    0 -0.40746750278E+03  0.26804933416E+03  0.10452256914E+02  0.49639811249E+03  0.91769412331E+02 0.  0.
        -11    1    4    4    0    0 -0.84768884873E+02  0.96415269929E+02 -0.18692699880E+02  0.12973467211E+03  0.00000000000E+00 0.  1.
         11    1    4    4    0    0 -0.32269861791E+03  0.17163406423E+03  0.29144956793E+02  0.36666344038E+03  0.00000000000E+00 0. -1.
        -15    1    3    3    0    0  0.65391031125E+02 -0.76258278027E+02  0.40103147226E+02  0.10817916651E+03  0.17770000000E+01 0.  1.
         15    1    3    3    0    0  0.34207647165E+03 -0.19179105613E+03 -0.50555404140E+02  0.39542272101E+03  0.17770000000E+01 0.  1.
</event>
<event>
 8    1  0.2370702E-007  0.5033635E+03  0.7546771E-02  0.9392315E-01
        -11   -1    0    0    0    0  0.00000000000E+00  0.00000000000E+00  0.50000000000E+03  0.50000000000E+03  0.00000000000E+00 0.  1.
         11   -1    0    0    0    0 -0.00000000000E+00 -0.00000000000E+00 -0.50000000000E+03  0.50000000000E+03  0.00000000000E+00 0. -1.
         25    2    1    2    0    0 -0.16564033819E+03  0.21715221679E+03 -0.40392738157E+03  0.50336349804E+03  0.12500269872E+03 0.  0.
         23    2    1    2    0    0  0.16564033819E+03 -0.21715221679E+03  0.40392738157E+03  0.49663650196E+03  0.94332807698E+02 0.  0.
        -11    1    4    4    0    0  0.16141406626E+03 -0.18218203195E+03  0.38788759715E+03  0.45793185254E+03  0.00000000000E+00 0.  1.
         11    1    4    4    0    0  0.42262719301E+01 -0.34970184842E+02  0.16039784415E+02  0.38704649416E+02  0.00000000000E+00 0. -1.
        -15    1    3    3    0    0 -0.89193134722E+02  0.10696144475E+03 -0.10092631808E+03  0.17200420156E+03  0.17770000000E+01 0. -1.
         15    1    3    3    0    0 -0.76447203469E+02  0.11019077204E+03 -0.30300106348E+03  0.33135929648E+03  0.17770000000E+01 0. -1.
</event>
<event>
 8    1  0.2370702E-007  0.5040543E+03  0.7546771E-02  0.9390783E-01
        -11   -1    0    0    0    0  0.00000000000E+00  0.00000000000E+00  0.50000000000E+03  0.50000000000E+03  0.00000000000E+00 0.  1.
         11   -1    0    0    0    0 -0.00000000000E+00 -0.00000000000E+00 -0.50000000000E+03  0.50000000000E+03  0.00000000000E+00 0. -1.
         25    2    1    2    0    0 -0.13054996703E+03  0.45279482978E+03 -0.12798295388E+03  0.50405425681E+03  0.12499842222E+03 0.  0.
         23    2    1    2    0    0  0.13054996703E+03 -0.45279482978E+03  0.12798295388E+03  0.49594574319E+03  0.86695397409E+02 0.  0.
        -11    1    4    4    0    0  0.13470462492E+03 -0.33851605723E+03  0.88071398572E+02  0.37482666424E+03  0.00000000000E+00 0. -1.
         11    1    4    4    0    0 -0.41546578895E+01 -0.11427877255E+03  0.39911555308E+02  0.12111907895E+03  0.00000000000E+00 0.  1.
        -15    1    3    3    0    0 -0.96820076642E+02  0.33024977242E+03 -0.33719867982E+02  0.34580229417E+03  0.17770000000E+01 0. -1.
         15    1    3    3    0    0 -0.33729890389E+02  0.12254505736E+03 -0.94263085898E+02  0.15825196264E+03  0.17770000000E+01 0. -1.
</event>
<event>
 8    1  0.2370702E-007  0.5032966E+03  0.7546771E-02  0.9392463E-01
        -11   -1    0    0    0    0  0.00000000000E+00  0.00000000000E+00  0.50000000000E+03  0.50000000000E+03  0.00000000000E+00 0. -1.
         11   -1    0    0    0    0 -0.00000000000E+00 -0.00000000000E+00 -0.50000000000E+03  0.50000000000E+03  0.00000000000E+00 0.  1.
         25    2    1    2    0    0 -0.18440250312E+03  0.36945954448E+03  0.25918709189E+03  0.50329662640E+03  0.12499962949E+03 0.  0.
         23    2    1    2    0    0  0.18440250312E+03 -0.36945954448E+03 -0.25918709189E+03  0.49670337360E+03  0.95035017637E+02 0.  0.
        -11    1    4    4    0    0  0.11712760004E+03 -0.27337475036E+03 -0.22962623725E+03  0.37574038598E+03  0.00000000000E+00 0.  1.
         11    1    4    4    0    0  0.67274903087E+02 -0.96084794124E+02 -0.29560854642E+02  0.12096298762E+03  0.00000000000E+00 0. -1.
        -15    1    3    3    0    0 -0.60098379057E+02  0.39810191634E+02  0.81136714230E+02  0.10854948479E+03  0.17770000000E+01 0. -1.
         15    1    3    3    0    0 -0.12430412407E+03  0.32964935285E+03  0.17805037766E+03  0.39474714161E+03  0.17770000000E+01 0. -1.
</event>
<event>
 8    1  0.2370702E-007  0.5036058E+03  0.7546771E-02  0.9391777E-01
        -11   -1    0    0    0    0  0.00000000000E+00  0.00000000000E+00  0.50000000000E+03  0.50000000000E+03  0.00000000000E+00 0.  1.
         11   -1    0    0    0    0 -0.00000000000E+00 -0.00000000000E+00 -0.50000000000E+03  0.50000000000E+03  0.00000000000E+00 0. -1.
         25    2    1    2    0    0 -0.84025237974E+02  0.25795836211E+03  0.40545201290E+03  0.50360582560E+03  0.12499894247E+03 0.  0.
         23    2    1    2    0    0  0.84025237974E+02 -0.25795836211E+03 -0.40545201290E+03  0.49639417440E+03  0.91722867433E+02 0.  0.
        -11    1    4    4    0    0  0.76793894667E+02 -0.90434976653E+02 -0.16288075794E+03  0.20150912775E+03  0.00000000000E+00 0. -1.
         11    1    4    4    0    0  0.72313433065E+01 -0.16752338546E+03 -0.24257125496E+03  0.29488504664E+03  0.00000000000E+00 0.  1.
        -15    1    3    3    0    0  0.21089568204E+02  0.13579035226E+03  0.17995669853E+03  0.22643180150E+03  0.17770000000E+01 0.  1.
         15    1    3    3    0    0 -0.10511480618E+03  0.12216800985E+03  0.22549531437E+03  0.27717402411E+03  0.17770000000E+01 0.  1.
</event>
<event>
 8    1  0.2370702E-007  0.5040785E+03  0.7546771E-02  0.9390730E-01
        -11   -1    0    0    0    0  0.00000000000E+00  0.00000000000E+00  0.50000000000E+03  0.50000000000E+03  0.00000000000E+00 0.  1.
         11   -1    0    0    0    0 -0.00000000000E+00 -0.00000000000E+00 -0.50000000000E+03  0.50000000000E+03  0.00000000000E+00 0. -1.
         25    2    1    2    0    0 -0.31113699442E+03 -0.23499844324E+03 -0.29400357405E+03  0.50407847061E+03  0.12500602129E+03 0.  0.
         23    2    1    2    0    0  0.31113699442E+03  0.23499844324E+03  0.29400357405E+03  0.49592152939E+03  0.86426640227E+02 0.  0.
        -11    1    4    4    0    0  0.10671562038E+03  0.11992922416E+03  0.84552181055E+02  0.18143955952E+03  0.00000000000E+00 0.  1.
         11    1    4    4    0    0  0.20442137404E+03  0.11506921908E+03  0.20945139299E+03  0.31448196987E+03  0.00000000000E+00 0. -1.
        -15    1    3    3    0    0 -0.20595553481E+03 -0.95971906299E+02 -0.11678537044E+03  0.25548046813E+03  0.17770000000E+01 0. -1.
         15    1    3    3    0    0 -0.10518145961E+03 -0.13902653694E+03 -0.17721820361E+03  0.24859800248E+03  0.17770000000E+01 0. -1.
</event>
<event>
 8    1  0.2370702E-007  0.5037114E+03  0.7546771E-02  0.9391543E-01
        -11   -1    0    0    0    0  0.00000000000E+00  0.00000000000E+00  0.50000000000E+03  0.50000000000E+03  0.00000000000E+00 0.  1.
         11   -1    0    0    0    0 -0.00000000000E+00 -0.00000000000E+00 -0.50000000000E+03  0.50000000000E+03  0.00000000000E+00 0. -1.
         25    2    1    2    0    0  0.40942031740E+03 -0.26049122738E+03  0.51182806953E+02  0.50371141472E+03  0.12499933499E+03 0.  0.
         23    2    1    2    0    0 -0.40942031740E+03  0.26049122738E+03 -0.51182806953E+02  0.49628858528E+03  0.90564917621E+02 0.  0.
        -11    1    4    4    0    0 -0.10293618230E+03  0.23765005311E+02  0.11431179820E+00  0.10564395946E+03  0.00000000000E+00 0.  1.
         11    1    4    4    0    0 -0.30648413511E+03  0.23672622207E+03 -0.51297118751E+02  0.39064462582E+03  0.00000000000E+00 0. -1.
        -15    1    3    3    0    0  0.30198757081E+03 -0.15296665304E+03 -0.12848109495E+02  0.33876765122E+03  0.17770000000E+01 0.  1.
         15    1    3    3    0    0  0.10743274659E+03 -0.10752457435E+03  0.64030916448E+02  0.16494376350E+03  0.17770000000E+01 0.  1.
</event>
<event>
 8    1  0.2370702E-007  0.5035271E+03  0.7546771E-02  0.9391952E-01
        -11   -1    0    0    0    0  0.00000000000E+00  0.00000000000E+00  0.50000000000E+03  0.50000000000E+03  0.00000000000E+00 0.  1.
         11   -1    0    0    0    0 -0.00000000000E+00 -0.00000000000E+00 -0.50000000000E+03  0.50000000000E+03  0.00000000000E+00 0. -1.
         25    2    1    2    0    0 -0.17617961080E+03  0.45054701803E+03 -0.62317412284E+02  0.50352714071E+03  0.12499700331E+03 0.  0.
         23    2    1    2    0    0  0.17617961080E+03 -0.45054701803E+03  0.62317412284E+02  0.49647285929E+03  0.92574129324E+02 0.  0.
        -11    1    4    4    0    0  0.15332458673E+02 -0.59726975171E+02 -0.22090287656E+02  0.65500966869E+02  0.00000000000E+00 0.  1.
         11    1    4    4    0    0  0.16084715213E+03 -0.39082004286E+03  0.84407699939E+02  0.43097189242E+03  0.00000000000E+00 0. -1.
        -15    1    3    3    0    0 -0.27263510956E+02  0.20979060580E+03 -0.61900014970E+02  0.22043177378E+03  0.17770000000E+01 0.  1.
         15    1    3    3    0    0 -0.14891609985E+03  0.24075641223E+03 -0.41739731369E+00  0.28309536692E+03  0.17770000000E+01 0.  1.
</event>
<event>
 8    1  0.2370702E-007  0.5029326E+03  0.7546771E-02  0.9393272E-01
        -11   -1    0    0    0    0  0.00000000000E+00  0.00000000000E+00  0.50000000000E+03  0.50000000000E+03  0.00000000000E+00 0. -1.
         11   -1    0    0    0    0 -0.00000000000E+00 -0.00000000000E+00 -0.50000000000E+03  0.50000000000E+03  0.00000000000E+00 0.  1.
         25    2    1    2    0    0 -0.43950288343E+03  0.14882330550E+03  0.14834044586E+03  0.50293258756E+03  0.12500055580E+03 0.  0.
         23    2    1    2    0    0  0.43950288343E+03 -0.14882330550E+03 -0.14834044586E+03  0.49706741244E+03  0.98792529212E+02 0.  0.
        -11    1    4    4    0    0  0.21502692640E+03 -0.10617094024E+03 -0.36154689602E+02  0.24252012124E+03  0.00000000000E+00 0. -1.
         11    1    4    4    0    0  0.22447595704E+03 -0.42652365255E+02 -0.11218575626E+03  0.25454729120E+03  0.00000000000E+00 0.  1.
        -15    1    3    3    0    0 -0.36186179633E+03  0.10178599277E+03  0.68651343105E+02  0.38212630452E+03  0.17770000000E+01 0. -1.
         15    1    3    3    0    0 -0.77641087100E+02  0.47037312729E+02  0.79689102758E+02  0.12080628304E+03  0.17770000000E+01 0. -1.
</event>
<event>
 8    1  0.2370702E-007  0.5037669E+03  0.7546771E-02  0.9391420E-01
        -11   -1    0    0    0    0  0.00000000000E+00  0.00000000000E+00  0.50000000000E+03  0.50000000000E+03  0.00000000000E+00 0. -1.
         11   -1    0    0    0    0 -0.00000000000E+00 -0.00000000000E+00 -0.50000000000E+03  0.50000000000E+03  0.00000000000E+00 0.  1.
         25    2    1    2    0    0  0.35270545757E+03  0.82707288519E+02  0.32698130338E+03  0.50376693091E+03  0.12499084983E+03 0.  0.
         23    2    1    2    0    0 -0.35270545757E+03 -0.82707288519E+02 -0.32698130338E+03  0.49623306909E+03  0.89938038282E+02 0.  0.
        -11    1    4    4    0    0 -0.15141189445E+03 -0.56119231470E+02 -0.92634689652E+02  0.18616153106E+03  0.00000000000E+00 0.  1.
         11    1    4    4    0    0 -0.20129356313E+03 -0.26588057049E+02 -0.23434661372E+03  0.31007153803E+03  0.00000000000E+00 0. -1.
        -15    1    3    3    0    0  0.22511077542E+03  0.10815406706E+03  0.24569200771E+03  0.35034252356E+03  0.17770000000E+01 0.  1.
         15    1    3    3    0    0  0.12759468215E+03 -0.25446778537E+02  0.81289295668E+02  0.15342440735E+03  0.17770000000E+01 0.  1.
</event>
<event>
 8    1  0.2370702E-007  0.5036406E+03  0.7546771E-02  0.9391700E-01
        -11   -1    0    0    0    0  0.00000000000E+00  0.00000000000E+00  0.50000000000E+03  0.50000000000E+03  0.00000000000E+00 0.  1.
         11   -1    0    0    0    0 -0.00000000000E+00 -0.00000000000E+00 -0.50000000000E+03  0.50000000000E+03  0.00000000000E+00 0. -1.
         25    2    1    2    0    0 -0.29666673267E+03  0.28993254683E+03 -0.25682094615E+03  0.50364064450E+03  0.12499947369E+03 0.  0.
         23    2    1    2    0    0  0.29666673267E+03 -0.28993254683E+03  0.25682094615E+03  0.49635935550E+03  0.91343195855E+02 0.  0.
        -11    1    4    4    0    0  0.14820794937E+03 -0.20466871244E+03  0.13753381249E+03  0.28769850137E+03  0.00000000000E+00 0. -1.
         11    1    4    4    0    0  0.14845878330E+03 -0.85263834390E+02  0.11928713366E+03  0.20866085414E+03  0.00000000000E+00 0.  1.
        -15    1    3    3    0    0 -0.20998786516E+03  0.15558624234E+03 -0.10043902168E+03  0.27998774460E+03  0.17770000000E+01 0.  1.
         15    1    3    3    0    0 -0.86678867511E+02  0.13434630449E+03 -0.15638192447E+03  0.22365289990E+03  0.17770000000E+01 0.  1.
</event>
<event>
 8    1  0.2370702E-007  0.5035432E+03  0.7546771E-02  0.9391916E-01
        -11   -1    0    0    0    0  0.00000000000E+00  0.00000000000E+00  0.50000000000E+03  0.50000000000E+03  0.00000000000E+00 0. -1.
         11   -1    0    0    0    0 -0.00000000000E+00 -0.00000000000E+00 -0.50000000000E+03  0.50000000000E+03  0.00000000000E+00 0.  1.
         25    2    1    2    0    0  0.16383902639E+03 -0.15485543071E+03 -0.43255945870E+03  0.50354322661E+03  0.12499865906E+03 0.  0.
         23    2    1    2    0    0 -0.16383902639E+03  0.15485543071E+03  0.43255945870E+03  0.49645677339E+03  0.92402443391E+02 0.  0.
        -11    1    4    4    0    0 -0.60341210429E+02  0.66409841277E+02  0.26944725525E+03  0.28399498597E+03  0.00000000000E+00 0.  1.
         11    1    4    4    0    0 -0.10349781596E+03  0.88445589436E+02  0.16311220345E+03  0.21246178742E+03  0.00000000000E+00 0. -1.
        -15    1    3    3    0    0  0.63139845132E+02 -0.10538835593E+03 -0.32765700538E+03  0.34993658927E+03  0.17770000000E+01 0. -1.
         15    1    3    3    0    0  0.10069918126E+03 -0.49467074781E+02 -0.10490245332E+03  0.15360663734E+03  0.17770000000E+01 0. -1.
</event>
<event>
 8    1  0.2370702E-007  0.5036408E+03  0.7546771E-02  0.9391700E-01
        -11   -1    0    0    0    0  0.00000000000E+00  0.00000000000E+00  0.50000000000E+03  0.50000000000E+03  0.00000000000E+00 0.  1.
         11   -1    0    0    0    0 -0.00000000000E+00 -0.00000000000E+00 -0.50000000000E+03  0.50000000000E+03  0.00000000000E+00 0. -1.
         25    2    1    2    0    0 -0.25949337980E+02 -0.45693057208E+03  0.16902462535E+03  0.50364077370E+03  0.12500315645E+03 0.  0.
         23    2    1    2    0    0  0.25949337980E+02  0.45693057208E+03 -0.16902462535E+03  0.49635922630E+03  0.91346821045E+02 0.  0.
        -11    1    4    4    0    0  0.12706878284E+02  0.41768659170E+03 -0.12559449962E+03  0.43634565654E+03  0.00000000000E+00 0.  1.
         11    1    4    4    0    0  0.13242459696E+02  0.39243980376E+02 -0.43430125730E+02  0.60013569761E+02  0.00000000000E+00 0. -1.
        -15    1    3    3    0    0 -0.40006208035E+02 -0.75751858482E+02 -0.17772263281E+01  0.85703891436E+02  0.17770000000E+01 0.  1.
         15    1    3    3    0    0  0.14056870056E+02 -0.38117871359E+03  0.17080185168E+03  0.41793688227E+03  0.17770000000E+01 0.  1.
</event>
<event>
 8    1  0.2370702E-007  0.5031808E+03  0.7546771E-02  0.9392720E-01
        -11   -1    0    0    0    0  0.00000000000E+00  0.00000000000E+00  0.50000000000E+03  0.50000000000E+03  0.00000000000E+00 0. -1.
         11   -1    0    0    0    0 -0.00000000000E+00 -0.00000000000E+00 -0.50000000000E+03  0.50000000000E+03  0.00000000000E+00 0.  1.
         25    2    1    2    0    0  0.28012073306E+03  0.36441443339E+03 -0.16217810985E+03  0.50318084784E+03  0.12499488774E+03 0.  0.
         23    2    1    2    0    0 -0.28012073306E+03 -0.36441443339E+03  0.16217810985E+03  0.49681915216E+03  0.96239421652E+02 0.  0.
        -11    1    4    4    0    0 -0.13127892418E+03 -0.17191480005E+03  0.25702884216E+02  0.21782904459E+03  0.00000000000E+00 0. -1.
         11    1    4    4    0    0 -0.14884180888E+03 -0.19249963334E+03  0.13647522564E+03  0.27899010757E+03  0.00000000000E+00 0.  1.
        -15    1    3    3    0    0  0.40490583424E+02  0.46666319299E+02  0.20711953991E+02  0.65187233951E+02  0.17770000000E+01 0.  1.
         15    1    3    3    0    0  0.23963014964E+03  0.31774811409E+03 -0.18289006384E+03  0.43799361389E+03  0.17770000000E+01 0.  1.
</event>
<event>
 8    1  0.2370702E-007  0.5036127E+03  0.7546771E-02  0.9391762E-01
        -11   -1    0    0    0    0  0.00000000000E+00  0.00000000000E+00  0.50000000000E+03  0.50000000000E+03  0.00000000000E+00 0. -1.
         11   -1    0    0    0    0 -0.00000000000E+00 -0.00000000000E+00 -0.50000000000E+03  0.50000000000E+03  0.00000000000E+00 0.  1.
         25    2    1    2    0    0 -0.30969724071E+03  0.27677521047E+03 -0.25589776605E+03  0.50361271121E+03  0.12500079275E+03 0.  0.
         23    2    1    2    0    0  0.30969724071E+03 -0.27677521047E+03  0.25589776605E+03  0.49638728879E+03  0.91650290601E+02 0.  0.
        -11    1    4    4    0    0  0.26759927972E+03 -0.21472325438E+03  0.17177268734E+03  0.38369428794E+03  0.00000000000E+00 0.  1.
         11    1    4    4    0    0  0.42097960997E+02 -0.62051956087E+02  0.84125078703E+02  0.11269300085E+03  0.00000000000E+00 0. -1.
        -15    1    3    3    0    0 -0.12924462453E+03  0.19571994119E+03 -0.15870706806E+03  0.28319879860E+03  0.17770000000E+01 0.  1.
         15    1    3    3    0    0 -0.18045261619E+03  0.81055269281E+02 -0.97190697986E+02  0.22041391261E+03  0.17770000000E+01 0.  1.
</event>
<event>
 8    1  0.2370702E-007  0.5035735E+03  0.7546771E-02  0.9391849E-01
        -11   -1    0    0    0    0  0.00000000000E+00  0.00000000000E+00  0.50000000000E+03  0.50000000000E+03  0.00000000000E+00 0. -1.
         11   -1    0    0    0    0 -0.00000000000E+00 -0.00000000000E+00 -0.50000000000E+03  0.50000000000E+03  0.00000000000E+00 0.  1.
         25    2    1    2    0    0 -0.18870393363E+03 -0.29375772180E+03  0.34068160193E+03  0.50357346789E+03  0.12497803801E+03 0.  0.
         23    2    1    2    0    0  0.18870393363E+03  0.29375772180E+03 -0.34068160193E+03  0.49642653211E+03  0.92046587142E+02 0.  0.
        -11    1    4    4    0    0  0.95196277632E+02  0.16705576230E+03 -0.12484492277E+03  0.22925142035E+03  0.00000000000E+00 0.  1.
         11    1    4    4    0    0  0.93507656003E+02  0.12670195950E+03 -0.21583667916E+03  0.26717511176E+03  0.00000000000E+00 0. -1.
        -15    1    3    3    0    0  0.12772107671E+02 -0.61803130226E+02  0.67812205146E+02  0.92652072485E+02  0.17770000000E+01 0.  1.
         15    1    3    3    0    0 -0.20147604131E+03 -0.23195459158E+03  0.27286939678E+03  0.41092139540E+03  0.17770000000E+01 0.  1.
</event>
<event>
 8    1  0.2370702E-007  0.5036958E+03  0.7546771E-02  0.9391578E-01
        -11   -1    0    0    0    0  0.00000000000E+00  0.00000000000E+00  0.50000000000E+03  0.50000000000E+03  0.00000000000E+00 0. -1.
         11   -1    0    0    0    0 -0.00000000000E+00 -0.00000000000E+00 -0.50000000000E+03  0.50000000000E+03  0.00000000000E+00 0.  1.
         25    2    1    2    0    0  0.40528742365E+02 -0.17600711822E+03 -0.45328047237E+03  0.50369584951E+03  0.12500095024E+03 0.  0.
         23    2    1    2    0    0 -0.40528742365E+02  0.17600711822E+03  0.45328047237E+03  0.49630415049E+03  0.90738847986E+02 0.  0.
        -11    1    4    4    0    0  0.24309406362E+02  0.51202320178E+02  0.18364837691E+03  0.19219612684E+03  0.00000000000E+00 0. -1.
         11    1    4    4    0    0 -0.64838148728E+02  0.12480479804E+03  0.26963209546E+03  0.30410802365E+03  0.00000000000E+00 0.  1.
        -15    1    3    3    0    0  0.76045197733E+02 -0.15673867211E+03 -0.40384990698E+03  0.43982699841E+03  0.17770000000E+01 0.  1.
         15    1    3    3    0    0 -0.35516455368E+02 -0.19268446108E+02 -0.49430565388E+02  0.63868851101E+02  0.17770000000E+01 0.  1.
</event>
<event>
 8    1  0.2370702E-007  0.5037024E+03  0.7546771E-02  0.9391563E-01
        -11   -1    0    0    0    0  0.00000000000E+00  0.00000000000E+00  0.50000000000E+03  0.50000000000E+03  0.00000000000E+00 0.  1.
         11   -1    0    0    0    0 -0.00000000000E+00 -0.00000000000E+00 -0.50000000000E+03  0.50000000000E+03  0.00000000000E+00 0. -1.
         25    2    1    2    0    0  0.17114694112E+03  0.38687126159E+03  0.24316698997E+03  0.50370242073E+03  0.12500118053E+03 0.  0.
         23    2    1    2    0    0 -0.17114694112E+03 -0.38687126159E+03 -0.24316698997E+03  0.49629757927E+03  0.90666717576E+02 0.  0.
        -11    1    4    4    0    0 -0.10693376566E+03 -0.32051898511E+03 -0.21178993124E+03  0.39877590829E+03  0.00000000000E+00 0. -1.
         11    1    4    4    0    0 -0.64213175459E+02 -0.66352276481E+02 -0.31377058735E+02  0.97521670985E+02  0.00000000000E+00 0.  1.
        -15    1    3    3    0    0  0.89544617725E+02  0.13000625199E+03  0.31456804246E+02  0.16097376302E+03  0.17770000000E+01 0. -1.
         15    1    3    3    0    0  0.81602323396E+02  0.25686500961E+03  0.21171018573E+03  0.34272865771E+03  0.17770000000E+01 0. -1.
</event>
<event>
 8    1  0.2370702E-007  0.5035377E+03  0.7546771E-02  0.9391928E-01
        -11   -1    0    0    0    0  0.00000000000E+00  0.00000000000E+00  0.50000000000E+03  0.50000000000E+03  0.00000000000E+00 0.  1.
         11   -1    0    0    0    0 -0.00000000000E+00 -0.00000000000E+00 -0.50000000000E+03  0.50000000000E+03  0.00000000000E+00 0. -1.
         25    2    1    2    0    0  0.42144759569E+03 -0.20008016478E+03  0.14239075929E+03  0.50353773468E+03  0.12499989464E+03 0.  0.
         23    2    1    2    0    0 -0.42144759569E+03  0.20008016478E+03 -0.14239075929E+03  0.49646226532E+03  0.92463529608E+02 0.  0.
        -11    1    4    4    0    0 -0.36801988622E+03  0.15745889169E+03 -0.89835870202E+02  0.41024678280E+03  0.00000000000E+00 0.  1.
         11    1    4    4    0    0 -0.53427709471E+02  0.42621273091E+02 -0.52554889090E+02  0.86215482522E+02  0.00000000000E+00 0. -1.
        -15    1    3    3    0    0  0.40250122701E+03 -0.16938432872E+03  0.15772072142E+03  0.46430299618E+03  0.17770000000E+01 0.  1.
         15    1    3    3    0    0  0.18946368676E+02 -0.30695836056E+02 -0.15329962131E+02  0.39234738499E+02  0.17770000000E+01 0.  1.
</event>
<event>
 8    1  0.2370702E-007  0.5033860E+03  0.7546771E-02  0.9392265E-01
        -11   -1    0    0    0    0  0.00000000000E+00  0.00000000000E+00  0.50000000000E+03  0.50000000000E+03  0.00000000000E+00 0.  1.
         11   -1    0    0    0    0 -0.00000000000E+00 -0.00000000000E+00 -0.50000000000E+03  0.50000000000E+03  0.00000000000E+00 0. -1.
         25    2    1    2    0    0  0.38350507549E+03  0.63478023199E+02 -0.29439637303E+03  0.50338600387E+03  0.12499056798E+03 0.  0.
         23    2    1    2    0    0 -0.38350507549E+03 -0.63478023199E+02  0.29439637303E+03  0.49661399613E+03  0.94077810055E+02 0.  0.
        -11    1    4    4    0    0 -0.17217505211E+03 -0.75445086990E+02  0.14804356516E+03  0.23927621466E+03  0.00000000000E+00 0.  1.
         11    1    4    4    0    0 -0.21133002338E+03  0.11967063791E+02  0.14635280787E+03  0.25733778147E+03  0.00000000000E+00 0. -1.
        -15    1    3    3    0    0  0.32658025262E+03  0.52276065710E+02 -0.18354671687E+03  0.37825917497E+03  0.17770000000E+01 0.  1.
         15    1    3    3    0    0  0.56924822867E+02  0.11201957490E+02 -0.11084965616E+03  0.12512682889E+03  0.17770000000E+01 0.  1.
</event>
<event>
 8    1  0.2370702E-007  0.5037100E+03  0.7546771E-02  0.9391546E-01
        -11   -1    0    0    0    0  0.00000000000E+00  0.00000000000E+00  0.50000000000E+03  0.50000000000E+03  0.00000000000E+00 0.  1.
         11   -1    0    0    0    0 -0.00000000000E+00 -0.00000000000E+00 -0.50000000000E+03  0.50000000000E+03  0.00000000000E+00 0. -1.
         25    2    1    2    0    0  0.24733246355E+03  0.77058346064E+02  0.41350670094E+03  0.50370996297E+03  0.12499839538E+03 0.  0.
         23    2    1    2    0    0 -0.24733246355E+03 -0.77058346064E+02 -0.41350670094E+03  0.49629003703E+03  0.90579649512E+02 0.  0.
        -11    1    4    4    0    0 -0.72887358512E+02  0.18743356084E+02 -0.10603993182E+03  0.13003210207E+03  0.00000000000E+00 0.  1.
         11    1    4    4    0    0 -0.17444510504E+03 -0.95801702149E+02 -0.30746676912E+03  0.36625793496E+03  0.00000000000E+00 0. -1.
        -15    1    3    3    0    0  0.79156700571E+02  0.19180439538E+01  0.43438076003E+02  0.90329874979E+02  0.17770000000E+01 0.  1.
         15    1    3    3    0    0  0.16817576298E+03  0.75140302110E+02  0.37006862494E+03  0.41338008799E+03  0.17770000000E+01 0.  1.
</event>
<event>
 8    1  0.2370702E-007  0.5037843E+03  0.7546771E-02  0.9391382E-01
        -11   -1    0    0    0    0  0.00000000000E+00  0.00000000000E+00  0.50000000000E+03  0.50000000000E+03  0.00000000000E+00 0.  1.
         11   -1    0    0    0    0 -0.00000000000E+00 -0.00000000000E+00 -0.50000000000E+03  0.50000000000E+03  0.00000000000E+00 0. -1.
         25    2    1    2    0    0  0.44727745090E+03  0.19162638704E+03 -0.37354575343E+02  0.50378426801E+03  0.12500173639E+03 0.  0.
         23    2    1    2    0    0 -0.44727745090E+03 -0.19162638704E+03  0.37354575343E+02  0.49621573199E+03  0.89760225477E+02 0.  0.
        -11    1    4    4    0    0 -0.10070550354E+03 -0.80245792743E+02  0.29490090671E+02  0.13210091273E+03  0.00000000000E+00 0.  1.
         11    1    4    4    0    0 -0.34657194736E+03 -0.11138059430E+03  0.78644846721E+01  0.36411481926E+03  0.00000000000E+00 0. -1.
        -15    1    3    3    0    0  0.25219300448E+02  0.50495227257E+02 -0.13778715671E+02  0.58127375868E+02  0.17770000000E+01 0.  1.
         15    1    3    3    0    0  0.42205815045E+03  0.14113115979E+03 -0.23575859673E+02  0.44565689214E+03  0.17770000000E+01 0.  1.
</event>
<event>
 8    1  0.2370702E-007  0.5039363E+03  0.7546771E-02  0.9391045E-01
        -11   -1    0    0    0    0  0.00000000000E+00  0.00000000000E+00  0.50000000000E+03  0.50000000000E+03  0.00000000000E+00 0.  1.
         11   -1    0    0    0    0 -0.00000000000E+00 -0.00000000000E+00 -0.50000000000E+03  0.50000000000E+03  0.00000000000E+00 0. -1.
         25    2    1    2    0    0 -0.24849226670E+03  0.37754135599E+03  0.18449962841E+03  0.50393630731E+03  0.12500322735E+03 0.  0.
         23    2    1    2    0    0  0.24849226670E+03 -0.37754135599E+03 -0.18449962841E+03  0.49606369269E+03  0.88052213071E+02 0.  0.
        -11    1    4    4    0    0  0.15027515130E+03 -0.27927564647E+03 -0.96057386436E+02  0.33136766483E+03  0.00000000000E+00 0. -1.
         11    1    4    4    0    0  0.98217115405E+02 -0.98265709521E+02 -0.88442241971E+02  0.16469602785E+03  0.00000000000E+00 0.  1.
        -15    1    3    3    0    0 -0.95952989441E+02  0.14427663502E+03  0.68468227518E+01  0.17341499447E+03  0.17770000000E+01 0. -1.
         15    1    3    3    0    0 -0.15253927726E+03  0.23326472097E+03  0.17765280566E+03  0.33052131284E+03  0.17770000000E+01 0. -1.
</event>
<event>
 8    1  0.2370702E-007  0.5035361E+03  0.7546771E-02  0.9391932E-01
        -11   -1    0    0    0    0  0.00000000000E+00  0.00000000000E+00  0.50000000000E+03  0.50000000000E+03  0.00000000000E+00 0. -1.
         11   -1    0    0    0    0 -0.00000000000E+00 -0.00000000000E+00 -0.50000000000E+03  0.50000000000E+03  0.00000000000E+00 0.  1.
         25    2    1    2    0    0 -0.27214682707E+03  0.34304516018E+03 -0.21489885503E+03  0.50353605674E+03  0.12499266036E+03 0.  0.
         23    2    1    2    0    0  0.27214682707E+03 -0.34304516018E+03  0.21489885503E+03  0.49646394326E+03  0.92471896575E+02 0.  0.
        -11    1    4    4    0    0  0.69455225496E+02 -0.47353854994E+02  0.13101645537E+02  0.85076842015E+02  0.00000000000E+00 0. -1.
         11    1    4    4    0    0  0.20269160158E+03 -0.29569130518E+03  0.20179720949E+03  0.41138710124E+03  0.00000000000E+00 0.  1.
        -15    1    3    3    0    0 -0.10419485649E+03  0.65375443404E+02 -0.19009224054E+02  0.12447901448E+03  0.17770000000E+01 0. -1.
         15    1    3    3    0    0 -0.16795197058E+03  0.27766971677E+03 -0.19588963097E+03  0.37905704226E+03  0.17770000000E+01 0. -1.
</event>
<event>
 8    1  0.2370702E-007  0.5035581E+03  0.7546771E-02  0.9391883E-01
        -11   -1    0    0    0    0  0.00000000000E+00  0.00000000000E+00  0.50000000000E+03  0.50000000000E+03  0.00000000000E+00 0.  1.
         11   -1    0    0    0    0 -0.00000000000E+00 -0.00000000000E+00 -0.50000000000E+03  0.50000000000E+03  0.00000000000E+00 0. -1.
         25    2    1    2    0    0 -0.35905354294E+03 -0.25215463300E+03  0.21318157593E+03  0.50355805936E+03  0.12499171648E+03 0.  0.
         23    2    1    2    0    0  0.35905354294E+03  0.25215463300E+03 -0.21318157593E+03  0.49644194064E+03  0.92232372172E+02 0.  0.
        -11    1    4    4    0    0  0.19465299123E+03  0.85482626350E+02 -0.80344854764E+02  0.22727156023E+03  0.00000000000E+00 0.  1.
         11    1    4    4    0    0  0.16440055170E+03  0.16667200665E+03 -0.13283672116E+03  0.26917038041E+03  0.00000000000E+00 0. -1.
        -15    1    3    3    0    0 -0.97429501468E+02 -0.13898601329E+03  0.98843919110E+02  0.19642529807E+03  0.17770000000E+01 0. -1.
         15    1    3    3    0    0 -0.26162404147E+03 -0.11316861971E+03  0.11433765682E+03  0.30713276129E+03  0.17770000000E+01 0. -1.
</event>
<event>
 8    1  0.2370702E-007  0.5037077E+03  0.7546771E-02  0.9391551E-01
        -11   -1    0    0    0    0  0.00000000000E+00  0.00000000000E+00  0.50000000000E+03  0.50000000000E+03  0.00000000000E+00 0.  1.
         11   -1    0    0    0    0 -0.00000000000E+00 -0.00000000000E+00 -0.50000000000E+03  0.50000000000E+03  0.00000000000E+00 0. -1.
         25    2    1    2    0    0  0.45481755770E+03 -0.17414556915E+03  0.30228405378E+02  0.50370770594E+03  0.12498802536E+03 0.  0.
         23    2    1    2    0    0 -0.45481755770E+03  0.17414556915E+03 -0.30228405378E+02  0.49629229406E+03  0.90590256704E+02 0.  0.
        -11    1    4    4    0    0 -0.40807282968E+03  0.13096476360E+03 -0.45102695643E+02  0.43094020093E+03  0.00000000000E+00 0. -1.
         11    1    4    4    0    0 -0.46744728023E+02  0.43180805550E+02  0.14874290264E+02  0.65352093132E+02  0.00000000000E+00 0.  1.
        -15    1    3    3    0    0  0.10797492591E+02 -0.27486651812E+02 -0.16305987637E+02  0.33780835334E+02  0.17770000000E+01 0.  1.
         15    1    3    3    0    0  0.44402006511E+03 -0.14665891733E+03  0.46534393015E+02  0.46992687060E+03  0.17770000000E+01 0.  1.
</event>
<event>
 8    1  0.2370702E-007  0.5039599E+03  0.7546771E-02  0.9390992E-01
        -11   -1    0    0    0    0  0.00000000000E+00  0.00000000000E+00  0.50000000000E+03  0.50000000000E+03  0.00000000000E+00 0.  1.
         11   -1    0    0    0    0 -0.00000000000E+00 -0.00000000000E+00 -0.50000000000E+03  0.50000000000E+03  0.00000000000E+00 0. -1.
         25    2    1    2    0    0  0.34911990004E+03  0.45634437634E+02 -0.33820744935E+03  0.50395993746E+03  0.12499653300E+03 0.  0.
         23    2    1    2    0    0 -0.34911990004E+03 -0.45634437634E+02  0.33820744935E+03  0.49604006254E+03  0.87773904682E+02 0.  0.
        -11    1    4    4    0    0 -0.14814011269E+03 -0.53675539774E+02  0.11184957988E+03  0.19322754741E+03  0.00000000000E+00 0.  1.
         11    1    4    4    0    0 -0.20097978735E+03  0.80411021399E+01  0.22635786948E+03  0.30281251513E+03  0.00000000000E+00 0. -1.
        -15    1    3    3    0    0  0.64468184332E+02 -0.24344030033E+02 -0.12050381520E+03  0.13882761179E+03  0.17770000000E+01 0. -1.
         15    1    3    3    0    0  0.28465171571E+03  0.69978467667E+02 -0.21770363415E+03  0.36513232567E+03  0.17770000000E+01 0. -1.
</event>
<event>
 8    1  0.2370702E-007  0.5038198E+03  0.7546771E-02  0.9391303E-01
        -11   -1    0    0    0    0  0.00000000000E+00  0.00000000000E+00  0.50000000000E+03  0.50000000000E+03  0.00000000000E+00 0.  1.
         11   -1    0    0    0    0 -0.00000000000E+00 -0.00000000000E+00 -0.50000000000E+03  0.50000000000E+03  0.00000000000E+00 0. -1.
         25    2    1    2    0    0 -0.30512877438E+03  0.20788546114E+03  0.31920385061E+03  0.50381983634E+03  0.12499358120E+03 0.  0.
         23    2    1    2    0    0  0.30512877438E+03 -0.20788546114E+03 -0.31920385061E+03  0.49618016366E+03  0.89351679708E+02 0.  0.
        -11    1    4    4    0    0  0.29194615192E+02 -0.54708647803E+02 -0.73825837097E+02  0.96413774554E+02  0.00000000000E+00 0.  1.
         11    1    4    4    0    0  0.27593415918E+03 -0.15317681333E+03 -0.24537801351E+03  0.39976638911E+03  0.00000000000E+00 0. -1.
        -15    1    3    3    0    0  0.79089936831E+01  0.21499454333E+02  0.34465527920E+02  0.41422325641E+02  0.17770000000E+01 0.  1.
         15    1    3    3    0    0 -0.31303776806E+03  0.18638600680E+03  0.28473832269E+03  0.46239751070E+03  0.17770000000E+01 0.  1.
</event>
<event>
 8    1  0.2370702E-007  0.5038502E+03  0.7546771E-02  0.9391236E-01
        -11   -1    0    0    0    0  0.00000000000E+00  0.00000000000E+00  0.50000000000E+03  0.50000000000E+03  0.00000000000E+00 0.  1.
         11   -1    0    0    0    0 -0.00000000000E+00 -0.00000000000E+00 -0.50000000000E+03  0.50000000000E+03  0.00000000000E+00 0. -1.
         25    2    1    2    0    0 -0.11490528986E+03 -0.47432122274E+03 -0.74954382540E+01  0.50385018155E+03  0.12499990349E+03 0.  0.
         23    2    1    2    0    0  0.11490528986E+03  0.47432122274E+03  0.74954382540E+01  0.49614981845E+03  0.89020294143E+02 0.  0.
        -11    1    4    4    0    0  0.12349333275E+03  0.34619201696E+03  0.82078840800E+00  0.36755977682E+03  0.00000000000E+00 0. -1.
         11    1    4    4    0    0 -0.85880428980E+01  0.12812920578E+03  0.66746498460E+01  0.12859004163E+03  0.00000000000E+00 0.  1.
        -15    1    3    3    0    0 -0.50051615443E+02 -0.24177251858E+03 -0.65714051242E+02  0.25550070295E+03  0.17770000000E+01 0. -1.
         15    1    3    3    0    0 -0.64853674413E+02 -0.23254870417E+03  0.58218612988E+02  0.24834947860E+03  0.17770000000E+01 0. -1.
</event>
<event>
 8    1  0.2370702E-007  0.5033272E+03  0.7546771E-02  0.9392395E-01
        -11   -1    0    0    0    0  0.00000000000E+00  0.00000000000E+00  0.50000000000E+03  0.50000000000E+03  0.00000000000E+00 0.  1.
         11   -1    0    0    0    0 -0.00000000000E+00 -0.00000000000E+00 -0.50000000000E+03  0.50000000000E+03  0.00000000000E+00 0. -1.
         25    2    1    2    0    0  0.95501430597E+02 -0.43025467653E+03  0.20850648952E+03  0.50332722229E+03  0.12499490632E+03 0.  0.
         23    2    1    2    0    0 -0.95501430597E+02  0.43025467653E+03 -0.20850648952E+03  0.49667277771E+03  0.94706293441E+02 0.  0.
        -11    1    4    4    0    0 -0.96677940952E+01  0.21242039953E+03 -0.13234601179E+03  0.25046229101E+03  0.00000000000E+00 0. -1.
         11    1    4    4    0    0 -0.85833636502E+02  0.21783427700E+03 -0.76160477728E+02  0.24621048670E+03  0.00000000000E+00 0.  1.
        -15    1    3    3    0    0  0.57968479923E+02 -0.40371745244E+03  0.20680180828E+03  0.45729451310E+03  0.17770000000E+01 0. -1.
         15    1    3    3    0    0  0.37532950675E+02 -0.26537224088E+02  0.17046812395E+01  0.46032709194E+02  0.17770000000E+01 0. -1.
</event>
<event>
 8    1  0.2370702E-007  0.5037257E+03  0.7546771E-02  0.9391512E-01
        -11   -1    0    0    0    0  0.00000000000E+00  0.00000000000E+00  0.50000000000E+03  0.50000000000E+03  0.00000000000E+00 0.  1.
         11   -1    0    0    0    0 -0.00000000000E+00 -0.00000000000E+00 -0.50000000000E+03  0.50000000000E+03  0.00000000000E+00 0. -1.
         25    2    1    2    0    0  0.19920757685E+03  0.44211545666E+03 -0.54478526732E+02  0.50372565231E+03  0.12498754829E+03 0.  0.
         23    2    1    2    0    0 -0.19920757685E+03 -0.44211545666E+03  0.54478526732E+02  0.49627434769E+03  0.90391275046E+02 0.  0.
        -11    1    4    4    0    0 -0.16330132376E+03 -0.38430488052E+03  0.15501623698E+02  0.41784909222E+03  0.00000000000E+00 0.  1.
         11    1    4    4    0    0 -0.35906253092E+02 -0.57810576145E+02  0.38976903035E+02  0.78425255470E+02  0.00000000000E+00 0. -1.
        -15    1    3    3    0    0  0.12047572488E+03  0.25123567595E+03 -0.92862539720E+02  0.29370116473E+03  0.17770000000E+01 0. -1.
         15    1    3    3    0    0  0.78731851970E+02  0.19087978071E+03  0.38384012987E+02  0.21002448758E+03  0.17770000000E+01 0. -1.
</event>
<event>
 8    1  0.2370702E-007  0.5034813E+03  0.7546771E-02  0.9392054E-01
        -11   -1    0    0    0    0  0.00000000000E+00  0.00000000000E+00  0.50000000000E+03  0.50000000000E+03  0.00000000000E+00 0. -1.
         11   -1    0    0    0    0 -0.00000000000E+00 -0.00000000000E+00 -0.50000000000E+03  0.50000000000E+03  0.00000000000E+00 0.  1.
         25    2    1    2    0    0 -0.11278524161E+03 -0.40314648756E+03 -0.25023879856E+03  0.50348130791E+03  0.12500547967E+03 0.  0.
         23    2    1    2    0    0  0.11278524161E+03  0.40314648756E+03  0.25023879856E+03  0.49651869209E+03  0.93079289482E+02 0.  0.
        -11    1    4    4    0    0  0.55067243248E+02  0.64060316790E+02  0.40844547324E+02  0.93831777732E+02  0.00000000000E+00 0.  1.
         11    1    4    4    0    0  0.57717998360E+02  0.33908617077E+03  0.20939425124E+03  0.40268691436E+03  0.00000000000E+00 0. -1.
        -15    1    3    3    0    0 -0.12172063792E+02 -0.25346112514E+03 -0.17388511034E+03  0.30761971722E+03  0.17770000000E+01 0.  1.
         15    1    3    3    0    0 -0.10061317782E+03 -0.14968536242E+03 -0.76353688225E+02  0.19586159069E+03  0.17770000000E+01 0.  1.
</event>
<event>
 8    1  0.2370702E-007  0.5037342E+03  0.7546771E-02  0.9391493E-01
        -11   -1    0    0    0    0  0.00000000000E+00  0.00000000000E+00  0.50000000000E+03  0.50000000000E+03  0.00000000000E+00 0. -1.
         11   -1    0    0    0    0 -0.00000000000E+00 -0.00000000000E+00 -0.50000000000E+03  0.50000000000E+03  0.00000000000E+00 0.  1.
         25    2    1    2    0    0  0.27758721182E+03 -0.39638170676E+03  0.62859689978E+02  0.50373415132E+03  0.12499454775E+03 0.  0.
         23    2    1    2    0    0 -0.27758721182E+03  0.39638170676E+03 -0.62859689978E+02  0.49626584868E+03  0.90306889678E+02 0.  0.
        -11    1    4    4    0    0 -0.15533633462E+02  0.37894246378E-01 -0.93229207569E+01  0.18116623746E+02  0.00000000000E+00 0.  1.
         11    1    4    4    0    0 -0.26205357836E+03  0.39634381251E+03 -0.53536769221E+02  0.47814922493E+03  0.00000000000E+00 0. -1.
        -15    1    3    3    0    0  0.28483495032E+03 -0.38323443989E+03  0.76241551339E+02  0.48354474118E+03  0.17770000000E+01 0.  1.
         15    1    3    3    0    0 -0.72477385027E+01 -0.13147266870E+02 -0.13381861361E+02  0.20189410146E+02  0.17770000000E+01 0.  1.
</event>
<event>
 8    1  0.2370702E-007  0.5037119E+03  0.7546771E-02  0.9391542E-01
        -11   -1    0    0    0    0  0.00000000000E+00  0.00000000000E+00  0.50000000000E+03  0.50000000000E+03  0.00000000000E+00 0. -1.
         11   -1    0    0    0    0 -0.00000000000E+00 -0.00000000000E+00 -0.50000000000E+03  0.50000000000E+03  0.00000000000E+00 0.  1.
         25    2    1    2    0    0  0.15814205095E+03  0.33061385987E+03 -0.32216006066E+03  0.50371187182E+03  0.12499644997E+03 0.  0.
         23    2    1    2    0    0 -0.15814205095E+03 -0.33061385987E+03  0.32216006066E+03  0.49628812818E+03  0.90555888102E+02 0.  0.
        -11    1    4    4    0    0 -0.93603135361E+02 -0.24824256893E+03  0.18353224588E+03  0.32259883022E+03  0.00000000000E+00 0.  1.
         11    1    4    4    0    0 -0.64538915591E+02 -0.82371290942E+02  0.13862781478E+03  0.17368929797E+03  0.00000000000E+00 0. -1.
        -15    1    3    3    0    0  0.11542505369E+03  0.32392053519E+03 -0.28908980241E+03  0.44924773536E+03  0.17770000000E+01 0. -1.
         15    1    3    3    0    0  0.42716997260E+02  0.66933246805E+01 -0.33070258250E+02  0.54464136456E+02  0.17770000000E+01 0. -1.
</event>
<event>
 8    1  0.2370702E-007  0.5035144E+03  0.7546771E-02  0.9391980E-01
        -11   -1    0    0    0    0  0.00000000000E+00  0.00000000000E+00  0.50000000000E+03  0.50000000000E+03  0.00000000000E+00 0.  1.
         11   -1    0    0    0    0 -0.00000000000E+00 -0.00000000000E+00 -0.50000000000E+03  0.50000000000E+03  0.00000000000E+00 0. -1.
         25    2    1    2    0    0  0.14658053143E+02 -0.47955718535E+03  0.87821812148E+02  0.50351437634E+03  0.12499641575E+03 0.  0.
         23    2    1    2    0    0 -0.14658053143E+02  0.47955718535E+03 -0.87821812148E+02  0.49648562366E+03  0.92711117270E+02 0.  0.
        -11    1    4    4    0    0 -0.44403511906E+02  0.34118093596E+03 -0.87243582717E+02  0.35494724349E+03  0.00000000000E+00 0.  1.
         11    1    4    4    0    0  0.29745458763E+02  0.13837624939E+03 -0.57822943117E+00  0.14153838017E+03  0.00000000000E+00 0. -1.
        -15    1    3    3    0    0  0.30962074588E+02 -0.38100768297E+03  0.11640986727E+03  0.39959969904E+03  0.17770000000E+01 0. -1.
         15    1    3    3    0    0 -0.16304021444E+02 -0.98549502378E+02 -0.28588055117E+02  0.10391467730E+03  0.17770000000E+01 0. -1.
</event>
<event>
 8    1  0.2370702E-007  0.5036692E+03  0.7546771E-02  0.9391637E-01
        -11   -1    0    0    0    0  0.00000000000E+00  0.00000000000E+00  0.50000000000E+03  0.50000000000E+03  0.00000000000E+00 0. -1.
         11   -1    0    0    0    0 -0.00000000000E+00 -0.00000000000E+00 -0.50000000000E+03  0.50000000000E+03  0.00000000000E+00 0.  1.
         25    2    1    2    0    0 -0.12983177368E+03 -0.15693767997E+03 -0.44336463048E+03  0.50366920941E+03  0.12499900836E+03 0.  0.
         23    2    1    2    0    0  0.12983177368E+03  0.15693767997E+03  0.44336463048E+03  0.49633079059E+03  0.91029298995E+02 0.  0.
        -11    1    4    4    0    0  0.27379415624E+02  0.10264571479E+03  0.18965851443E+03  0.21738474478E+03  0.00000000000E+00 0.  1.
         11    1    4    4    0    0  0.10245235806E+03  0.54291965176E+02  0.25370611605E+03  0.27894604581E+03  0.00000000000E+00 0. -1.
        -15    1    3    3    0    0 -0.11645802242E+03 -0.13660540697E+03 -0.44435562675E+03  0.47924794100E+03  0.17770000000E+01 0. -1.
         15    1    3    3    0    0 -0.13373751264E+02 -0.20332272998E+02  0.99099626404E+00  0.24421268410E+02  0.17770000000E+01 0. -1.
</event>
<event>
 8    1  0.2370702E-007  0.5038031E+03  0.7546771E-02  0.9391340E-01
        -11   -1    0    0    0    0  0.00000000000E+00  0.00000000000E+00  0.50000000000E+03  0.50000000000E+03  0.00000000000E+00 0.  1.
         11   -1    0    0    0    0 -0.00000000000E+00 -0.00000000000E+00 -0.50000000000E+03  0.50000000000E+03  0.00000000000E+00 0. -1.
         25    2    1    2    0    0 -0.31214207280E+02 -0.46357634960E+03 -0.14938347607E+03  0.50380314266E+03  0.12499929996E+03 0.  0.
         23    2    1    2    0    0  0.31214207280E+02  0.46357634960E+03  0.14938347607E+03  0.49619685734E+03  0.89546299018E+02 0.  0.
        -11    1    4    4    0    0  0.51699198641E+02  0.14854952943E+03  0.42979310880E+02  0.16305517777E+03  0.00000000000E+00 0.  1.
         11    1    4    4    0    0 -0.20484991361E+02  0.31502682017E+03  0.10640416519E+03  0.33314167957E+03  0.00000000000E+00 0. -1.
        -15    1    3    3    0    0 -0.53739799174E+02 -0.35796320331E+03 -0.67381501254E+02  0.36819701978E+03  0.17770000000E+01 0. -1.
         15    1    3    3    0    0  0.22525591893E+02 -0.10561314629E+03 -0.82001974812E+02  0.13560612288E+03  0.17770000000E+01 0. -1.
</event>
<event>
 8    1  0.2370702E-007  0.5036304E+03  0.7546771E-02  0.9391723E-01
        -11   -1    0    0    0    0  0.00000000000E+00  0.00000000000E+00  0.50000000000E+03  0.50000000000E+03  0.00000000000E+00 0.  1.
         11   -1    0    0    0    0 -0.00000000000E+00 -0.00000000000E+00 -0.50000000000E+03  0.50000000000E+03  0.00000000000E+00 0. -1.
         25    2    1    2    0    0  0.17002462206E+03 -0.41227225409E+03 -0.19784653341E+03  0.50363039286E+03  0.12499415279E+03 0.  0.
         23    2    1    2    0    0 -0.17002462206E+03  0.41227225409E+03  0.19784653341E+03  0.49636960714E+03  0.91448086466E+02 0.  0.
        -11    1    4    4    0    0 -0.11291207724E+03  0.36117060616E+03  0.15910629684E+03  0.41049745143E+03  0.00000000000E+00 0. -1.
         11    1    4    4    0    0 -0.57112544823E+02  0.51101647928E+02  0.38740236569E+02  0.85872155711E+02  0.00000000000E+00 0.  1.
        -15    1    3    3    0    0  0.18553944518E+03 -0.40347505152E+03 -0.18286670470E+03  0.48027116542E+03  0.17770000000E+01 0. -1.
         15    1    3    3    0    0 -0.15514823116E+02 -0.87972025659E+01 -0.14979828711E+02  0.23359227439E+02  0.17770000000E+01 0. -1.
</event>
<event>
 8    1  0.2370702E-007  0.5039870E+03  0.7546771E-02  0.9390932E-01
        -11   -1    0    0    0    0  0.00000000000E+00  0.00000000000E+00  0.50000000000E+03  0.50000000000E+03  0.00000000000E+00 0. -1.
         11   -1    0    0    0    0 -0.00000000000E+00 -0.00000000000E+00 -0.50000000000E+03  0.50000000000E+03  0.00000000000E+00 0.  1.
         25    2    1    2    0    0 -0.33753310963E+03  0.12494733311E+03 -0.32990616548E+03  0.50398702837E+03  0.12499764238E+03 0.  0.
         23    2    1    2    0    0  0.33753310963E+03 -0.12494733311E+03  0.32990616548E+03  0.49601297163E+03  0.87466301248E+02 0.  0.
        -11    1    4    4    0    0  0.18485734720E+03 -0.83929399522E+02  0.12968597628E+03  0.24090420370E+03  0.00000000000E+00 0.  1.
         11    1    4    4    0    0  0.15267576243E+03 -0.41017933588E+02  0.20022018920E+03  0.25510876793E+03  0.00000000000E+00 0. -1.
        -15    1    3    3    0    0 -0.46675823658E+02  0.32095114539E+02 -0.12222615547E+03  0.13472609139E+03  0.17770000000E+01 0. -1.
         15    1    3    3    0    0 -0.29085728597E+03  0.92852218571E+02 -0.20768001001E+03  0.36926093698E+03  0.17770000000E+01 0. -1.
</event>
<event>
 8    1  0.2370702E-007  0.5034422E+03  0.7546771E-02  0.9392140E-01
        -11   -1    0    0    0    0  0.00000000000E+00  0.00000000000E+00  0.50000000000E+03  0.50000000000E+03  0.00000000000E+00 0. -1.
         11   -1    0    0    0    0 -0.00000000000E+00 -0.00000000000E+00 -0.50000000000E+03  0.50000000000E+03  0.00000000000E+00 0.  1.
         25    2    1    2    0    0  0.38070695548E+03  0.15307332684E+03 -0.26355381201E+03  0.50344218363E+03  0.12499676433E+03 0.  0.
         23    2    1    2    0    0 -0.38070695548E+03 -0.15307332684E+03  0.26355381201E+03  0.49655781637E+03  0.93487024897E+02 0.  0.
        -11    1    4    4    0    0 -0.40802200535E+02 -0.46052837697E+02  0.61087175824E+02  0.86702517141E+02  0.00000000000E+00 0.  1.
         11    1    4    4    0    0 -0.33990475495E+03 -0.10702048914E+03  0.20246663619E+03  0.40985529922E+03  0.00000000000E+00 0. -1.
        -15    1    3    3    0    0  0.34578913582E+03  0.13341327221E+03 -0.18277848599E+03  0.41325580495E+03  0.17770000000E+01 0. -1.
         15    1    3    3    0    0  0.34917819665E+02  0.19660054635E+02 -0.80775326018E+02  0.90186378688E+02  0.17770000000E+01 0. -1.
</event>
<event>
 8    1  0.2370702E-007  0.5037933E+03  0.7546771E-02  0.9391362E-01
        -11   -1    0    0    0    0  0.00000000000E+00  0.00000000000E+00  0.50000000000E+03  0.50000000000E+03  0.00000000000E+00 0.  1.
         11   -1    0    0    0    0 -0.00000000000E+00 -0.00000000000E+00 -0.50000000000E+03  0.50000000000E+03  0.00000000000E+00 0. -1.
         25    2    1    2    0    0 -0.84575524928E+02  0.29196713569E+03  0.38181752493E+03  0.50379330122E+03  0.12500096106E+03 0.  0.
         23    2    1    2    0    0  0.84575524928E+02 -0.29196713569E+03 -0.38181752493E+03  0.49620669878E+03  0.89658450947E+02 0.  0.
        -11    1    4    4    0    0  0.77044074605E+02 -0.10732807976E+03 -0.15758087787E+03  0.20563764054E+03  0.00000000000E+00 0.  1.
         11    1    4    4    0    0  0.75314503231E+01 -0.18463905594E+03 -0.22423664706E+03  0.29056905824E+03  0.00000000000E+00 0. -1.
        -15    1    3    3    0    0  0.94479646233E+01  0.18882655820E+03  0.22248251073E+03  0.29196979027E+03  0.17770000000E+01 0. -1.
         15    1    3    3    0    0 -0.94023489551E+02  0.10314057749E+03  0.15933501420E+03  0.21182351095E+03  0.17770000000E+01 0. -1.
</event>
<event>
 8    1  0.2370702E-007  0.5035817E+03  0.7546771E-02  0.9391831E-01
        -11   -1    0    0    0    0  0.00000000000E+00  0.00000000000E+00  0.50000000000E+03  0.50000000000E+03  0.00000000000E+00 0.  1.
         11   -1    0    0    0    0 -0.00000000000E+00 -0.00000000000E+00 -0.50000000000E+03  0.50000000000E+03  0.00000000000E+00 0. -1.
         25    2    1    2    0    0  0.44248429031E+03 -0.12438759032E+01 -0.20536783004E+03  0.50358171966E+03  0.12499883341E+03 0.  0.
         23    2    1    2    0    0 -0.44248429031E+03  0.12438759032E+01  0.20536783004E+03  0.49641828034E+03  0.91985156646E+02 0.  0.
        -11    1    4    4    0    0 -0.32871672510E+03  0.54789062595E+01  0.10635017506E+03  0.34553590769E+03  0.00000000000E+00 0.  1.
         11    1    4    4    0    0 -0.11376756522E+03 -0.42350303563E+01  0.99017654989E+02  0.15088237265E+03  0.00000000000E+00 0. -1.
        -15    1    3    3    0    0  0.13258495920E+03  0.51993790589E+02 -0.38183852687E+02  0.14745606125E+03  0.17770000000E+01 0. -1.
         15    1    3    3    0    0  0.30989933112E+03 -0.53237666492E+02 -0.16718397736E+03  0.35612565840E+03  0.17770000000E+01 0. -1.
</event>
<event>
 8    1  0.2370702E-007  0.5037496E+03  0.7546771E-02  0.9391459E-01
        -11   -1    0    0    0    0  0.00000000000E+00  0.00000000000E+00  0.50000000000E+03  0.50000000000E+03  0.00000000000E+00 0.  1.
         11   -1    0    0    0    0 -0.00000000000E+00 -0.00000000000E+00 -0.50000000000E+03  0.50000000000E+03  0.00000000000E+00 0. -1.
         25    2    1    2    0    0  0.23452134407E+03  0.27842982756E+03  0.32497984313E+03  0.50374959297E+03  0.12501329643E+03 0.  0.
         23    2    1    2    0    0 -0.23452134407E+03 -0.27842982756E+03 -0.32497984313E+03  0.49625040703E+03  0.90161734327E+02 0.  0.
        -11    1    4    4    0    0 -0.15854704899E+03 -0.12375516985E+03 -0.19761802241E+03  0.28196700444E+03  0.00000000000E+00 0. -1.
         11    1    4    4    0    0 -0.75974295075E+02 -0.15467465771E+03 -0.12736182071E+03  0.21428340259E+03  0.00000000000E+00 0.  1.
        -15    1    3    3    0    0  0.57810154005E+02  0.16416585290E+03  0.13563774250E+03  0.22066534863E+03  0.17770000000E+01 0.  1.
         15    1    3    3    0    0  0.17671119006E+03  0.11426397465E+03  0.18934210063E+03  0.28308424435E+03  0.17770000000E+01 0.  1.
</event>
<event>
 8    1  0.2370702E-007  0.5036441E+03  0.7546771E-02  0.9391692E-01
        -11   -1    0    0    0    0  0.00000000000E+00  0.00000000000E+00  0.50000000000E+03  0.50000000000E+03  0.00000000000E+00 0.  1.
         11   -1    0    0    0    0 -0.00000000000E+00 -0.00000000000E+00 -0.50000000000E+03  0.50000000000E+03  0.00000000000E+00 0. -1.
         25    2    1    2    0    0  0.11030156850E+03  0.43328643121E+03  0.19526766433E+03  0.50364413598E+03  0.12499754996E+03 0.  0.
         23    2    1    2    0    0 -0.11030156850E+03 -0.43328643121E+03 -0.19526766433E+03  0.49635586402E+03  0.91302330369E+02 0.  0.
        -11    1    4    4    0    0 -0.10557624081E+03 -0.31372310548E+03 -0.17684240068E+03  0.37528890766E+03  0.00000000000E+00 0. -1.
         11    1    4    4    0    0 -0.47253276816E+01 -0.11956332573E+03 -0.18425263652E+02  0.12106695635E+03  0.00000000000E+00 0.  1.
        -15    1    3    3    0    0  0.13422525137E+03  0.29861143147E+03  0.14136147419E+03  0.35661103352E+03  0.17770000000E+01 0. -1.
         15    1    3    3    0    0 -0.23923682878E+02  0.13467499974E+03  0.53906190140E+02  0.14703310247E+03  0.17770000000E+01 0. -1.
</event>
<event>
 8    1  0.2370702E-007  0.5037190E+03  0.7546771E-02  0.9391526E-01
        -11   -1    0    0    0    0  0.00000000000E+00  0.00000000000E+00  0.50000000000E+03  0.50000000000E+03  0.00000000000E+00 0.  1.
         11   -1    0    0    0    0 -0.00000000000E+00 -0.00000000000E+00 -0.50000000000E+03  0.50000000000E+03  0.00000000000E+00 0. -1.
         25    2    1    2    0    0 -0.10112583400E+03 -0.46189356604E+03 -0.12056539600E+03  0.50371896113E+03  0.12499870573E+03 0.  0.
         23    2    1    2    0    0  0.10112583400E+03  0.46189356604E+03  0.12056539600E+03  0.49628103887E+03  0.90480684035E+02 0.  0.
        -11    1    4    4    0    0  0.75145411709E+02  0.44138250871E+03  0.10596029774E+03  0.46010100695E+03  0.00000000000E+00 0.  1.
         11    1    4    4    0    0  0.25980422290E+02  0.20511057329E+02  0.14605098262E+02  0.36180031929E+02  0.00000000000E+00 0. -1.
        -15    1    3    3    0    0 -0.97005671207E+02 -0.46629964090E+03 -0.10612165381E+03  0.48796559150E+03  0.17770000000E+01 0.  1.
         15    1    3    3    0    0 -0.41201627917E+01  0.44060748637E+01 -0.14443742188E+02  0.15753369624E+02  0.17770000000E+01 0.  1.
</event>
<event>
 8    1  0.2370702E-007  0.5035913E+03  0.7546771E-02  0.9391810E-01
        -11   -1    0    0    0    0  0.00000000000E+00  0.00000000000E+00  0.50000000000E+03  0.50000000000E+03  0.00000000000E+00 0.  1.
         11   -1    0    0    0    0 -0.00000000000E+00 -0.00000000000E+00 -0.50000000000E+03  0.50000000000E+03  0.00000000000E+00 0. -1.
         25    2    1    2    0    0 -0.36903625078E+03  0.14721683877E+03  0.28304902850E+03  0.50359129034E+03  0.12500753245E+03 0.  0.
         23    2    1    2    0    0  0.36903625078E+03 -0.14721683877E+03 -0.28304902850E+03  0.49640870966E+03  0.91892885902E+02 0.  0.
        -11    1    4    4    0    0  0.20284928259E+03 -0.12800330770E+03 -0.15286953561E+03  0.28443237008E+03  0.00000000000E+00 0.  1.
         11    1    4    4    0    0  0.16618696820E+03 -0.19213531072E+02 -0.13017949288E+03  0.21197633958E+03  0.00000000000E+00 0. -1.
        -15    1    3    3    0    0 -0.28261310180E+02  0.38151521205E+02  0.77615912076E+02  0.91003449164E+02  0.17770000000E+01 0.  1.
         15    1    3    3    0    0 -0.34077494060E+03  0.10906531757E+03  0.20543311642E+03  0.41258784118E+03  0.17770000000E+01 0.  1.
</event>
<event>
 8    1  0.2370702E-007  0.5035753E+03  0.7546771E-02  0.9391845E-01
        -11   -1    0    0    0    0  0.00000000000E+00  0.00000000000E+00  0.50000000000E+03  0.50000000000E+03  0.00000000000E+00 0.  1.
         11   -1    0    0    0    0 -0.00000000000E+00 -0.00000000000E+00 -0.50000000000E+03  0.50000000000E+03  0.00000000000E+00 0. -1.
         25    2    1    2    0    0 -0.31867457184E+03 -0.36190210507E+03  0.73732745682E+02  0.50357527319E+03  0.12499968638E+03 0.  0.
         23    2    1    2    0    0  0.31867457184E+03  0.36190210507E+03 -0.73732745682E+02  0.49642472681E+03  0.92056369775E+02 0.  0.
        -11    1    4    4    0    0  0.49554469935E+02  0.81103583450E+02 -0.48408797735E+02  0.10666231029E+03  0.00000000000E+00 0. -1.
         11    1    4    4    0    0  0.26912010190E+03  0.28079852162E+03 -0.25323947947E+02  0.38976241652E+03  0.00000000000E+00 0.  1.
        -15    1    3    3    0    0 -0.13311181044E+03 -0.81890711389E+02  0.59866875198E+02  0.16736798728E+03  0.17770000000E+01 0. -1.
         15    1    3    3    0    0 -0.18556276140E+03 -0.28001139368E+03  0.13865870484E+02  0.33620728591E+03  0.17770000000E+01 0. -1.
</event>
<event>
 8    1  0.2370702E-007  0.5032371E+03  0.7546771E-02  0.9392596E-01
        -11   -1    0    0    0    0  0.00000000000E+00  0.00000000000E+00  0.50000000000E+03  0.50000000000E+03  0.00000000000E+00 0. -1.
         11   -1    0    0    0    0 -0.00000000000E+00 -0.00000000000E+00 -0.50000000000E+03  0.50000000000E+03  0.00000000000E+00 0.  1.
         25    2    1    2    0    0 -0.52720490817E+02  0.45251076487E+03  0.17342837033E+03  0.50323705555E+03  0.12499876790E+03 0.  0.
         23    2    1    2    0    0  0.52720490817E+02 -0.45251076487E+03 -0.17342837033E+03  0.49676294445E+03  0.95658668549E+02 0.  0.
        -11    1    4    4    0    0  0.23629386061E+02 -0.31701724820E+03 -0.16439311453E+03  0.35788738403E+03  0.00000000000E+00 0.  1.
         11    1    4    4    0    0  0.29091104756E+02 -0.13549351666E+03 -0.90352558009E+01  0.13887556042E+03  0.00000000000E+00 0. -1.
        -15    1    3    3    0    0 -0.81791091772E+02  0.29802585449E+03  0.75896828775E+02  0.31823368613E+03  0.17770000000E+01 0.  1.
         15    1    3    3    0    0  0.29070600954E+02  0.15448491037E+03  0.97531541551E+02  0.18500336943E+03  0.17770000000E+01 0.  1.
</event>
<event>
 8    1  0.2370702E-007  0.5035858E+03  0.7546771E-02  0.9391822E-01
        -11   -1    0    0    0    0  0.00000000000E+00  0.00000000000E+00  0.50000000000E+03  0.50000000000E+03  0.00000000000E+00 0. -1.
         11   -1    0    0    0    0 -0.00000000000E+00 -0.00000000000E+00 -0.50000000000E+03  0.50000000000E+03  0.00000000000E+00 0.  1.
         25    2    1    2    0    0  0.33399858734E+03 -0.69053567088E+02 -0.34878452682E+03  0.50358578328E+03  0.12499817399E+03 0.  0.
         23    2    1    2    0    0 -0.33399858734E+03  0.69053567088E+02  0.34878452682E+03  0.49641421672E+03  0.91940072516E+02 0.  0.
        -11    1    4    4    0    0 -0.10849582605E+03 -0.20834291455E+02  0.10969134040E+03  0.15568430277E+03  0.00000000000E+00 0.  1.
         11    1    4    4    0    0 -0.22550276129E+03  0.89887858543E+02  0.23909318642E+03  0.34072991394E+03  0.00000000000E+00 0. -1.
        -15    1    3    3    0    0  0.19643143150E+03 -0.90341887360E+02 -0.26132607249E+03  0.33917759034E+03  0.17770000000E+01 0. -1.
         15    1    3    3    0    0  0.13756715584E+03  0.21288320272E+02 -0.87458454332E+02  0.16440819295E+03  0.17770000000E+01 0. -1.
</event>
<event>
 8    1  0.2370702E-007  0.5040374E+03  0.7546771E-02  0.9390821E-01
        -11   -1    0    0    0    0  0.00000000000E+00  0.00000000000E+00  0.50000000000E+03  0.50000000000E+03  0.00000000000E+00 0.  1.
         11   -1    0    0    0    0 -0.00000000000E+00 -0.00000000000E+00 -0.50000000000E+03  0.50000000000E+03  0.00000000000E+00 0. -1.
         25    2    1    2    0    0  0.18482891352E+03  0.29170046119E+03 -0.34522791952E+03  0.50403737193E+03  0.12498187692E+03 0.  0.
         23    2    1    2    0    0 -0.18482891352E+03 -0.29170046119E+03  0.34522791952E+03  0.49596262807E+03  0.86866136635E+02 0.  0.
        -11    1    4    4    0    0 -0.89316840111E+02 -0.21187354137E+03  0.20053490910E+03  0.30509366632E+03  0.00000000000E+00 0.  1.
         11    1    4    4    0    0 -0.95512073411E+02 -0.79826919814E+02  0.14469301041E+03  0.19086896174E+03  0.00000000000E+00 0. -1.
        -15    1    3    3    0    0  0.10429714759E+03  0.20428224699E+03 -0.29817432811E+03  0.37619173184E+03  0.17770000000E+01 0.  1.
         15    1    3    3    0    0  0.80531765930E+02  0.87418214198E+02 -0.47053591406E+02  0.12784564009E+03  0.17770000000E+01 0.  1.
</event>
<event>
 8    1  0.2370702E-007  0.5043997E+03  0.7546771E-02  0.9390019E-01
        -11   -1    0    0    0    0  0.00000000000E+00  0.00000000000E+00  0.50000000000E+03  0.50000000000E+03  0.00000000000E+00 0.  1.
         11   -1    0    0    0    0 -0.00000000000E+00 -0.00000000000E+00 -0.50000000000E+03  0.50000000000E+03  0.00000000000E+00 0. -1.
         25    2    1    2    0    0 -0.18536656756E+03 -0.19753357086E+03  0.40671255050E+03  0.50439969841E+03  0.12499472403E+03 0.  0.
         23    2    1    2    0    0  0.18536656756E+03  0.19753357086E+03 -0.40671255050E+03  0.49560030159E+03  0.82609225988E+02 0.  0.
        -11    1    4    4    0    0  0.11548288910E+03  0.62947226964E+02 -0.19259079376E+03  0.23321634784E+03  0.00000000000E+00 0.  1.
         11    1    4    4    0    0  0.69883678454E+02  0.13458634389E+03 -0.21412175674E+03  0.26238395376E+03  0.00000000000E+00 0. -1.
        -15    1    3    3    0    0 -0.13317142319E+03 -0.66830905781E+02  0.26883128613E+03  0.30736690787E+03  0.17770000000E+01 0. -1.
         15    1    3    3    0    0 -0.52195144365E+02 -0.13070266508E+03  0.13788126438E+03  0.19703279054E+03  0.17770000000E+01 0. -1.
</event>
<event>
 8    1  0.2370702E-007  0.5036707E+03  0.7546771E-02  0.9391634E-01
        -11   -1    0    0    0    0  0.00000000000E+00  0.00000000000E+00  0.50000000000E+03  0.50000000000E+03  0.00000000000E+00 0.  1.
         11   -1    0    0    0    0 -0.00000000000E+00 -0.00000000000E+00 -0.50000000000E+03  0.50000000000E+03  0.00000000000E+00 0. -1.
         25    2    1    2    0    0  0.89438777956E+01  0.29524415083E+03 -0.38834251905E+03  0.50367065726E+03  0.12500046931E+03 0.  0.
         23    2    1    2    0    0 -0.89438777956E+01 -0.29524415083E+03  0.38834251905E+03  0.49632934274E+03  0.91015398764E+02 0.  0.
        -11    1    4    4    0    0 -0.48728998839E+00 -0.21463282723E+03  0.33962346559E+03  0.40176060827E+03  0.00000000000E+00 0.  1.
         11    1    4    4    0    0 -0.84565878072E+01 -0.80611323599E+02  0.48719053466E+02  0.94568734475E+02  0.00000000000E+00 0. -1.
        -15    1    3    3    0    0  0.72170096199E+01  0.26159622314E+03 -0.25232924450E+03  0.36353524527E+03  0.17770000000E+01 0.  1.
         15    1    3    3    0    0  0.17268681758E+01  0.33647927691E+02 -0.13601327455E+03  0.14013541199E+03  0.17770000000E+01 0.  1.
</event>
<event>
 8    1  0.2370702E-007  0.5034975E+03  0.7546771E-02  0.9392018E-01
        -11   -1    0    0    0    0  0.00000000000E+00  0.00000000000E+00  0.50000000000E+03  0.50000000000E+03  0.00000000000E+00 0.  1.
         11   -1    0    0    0    0 -0.00000000000E+00 -0.00000000000E+00 -0.50000000000E+03  0.50000000000E+03  0.00000000000E+00 0. -1.
         25    2    1    2    0    0  0.39294522098E+03  0.11400400723E+02 -0.28869742202E+03  0.50349751493E+03  0.12501052049E+03 0.  0.
         23    2    1    2    0    0 -0.39294522098E+03 -0.11400400723E+02  0.28869742202E+03  0.49650248507E+03  0.92911788109E+02 0.  0.
        -11    1    4    4    0    0 -0.27316582539E+03  0.21460174809E+02  0.15843165478E+03  0.31651334332E+03  0.00000000000E+00 0.  1.
         11    1    4    4    0    0 -0.11977939559E+03 -0.32860575532E+02  0.13026576724E+03  0.17998914175E+03  0.00000000000E+00 0. -1.
        -15    1    3    3    0    0  0.30955032311E+03  0.15930581923E+01 -0.15648602137E+03  0.34686448793E+03  0.17770000000E+01 0.  1.
         15    1    3    3    0    0  0.83394897871E+02  0.98073425308E+01 -0.13221140065E+03  0.15663302700E+03  0.17770000000E+01 0.  1.
</event>
<event>
 8    1  0.2370702E-007  0.5035759E+03  0.7546771E-02  0.9391844E-01
        -11   -1    0    0    0    0  0.00000000000E+00  0.00000000000E+00  0.50000000000E+03  0.50000000000E+03  0.00000000000E+00 0.  1.
         11   -1    0    0    0    0 -0.00000000000E+00 -0.00000000000E+00 -0.50000000000E+03  0.50000000000E+03  0.00000000000E+00 0. -1.
         25    2    1    2    0    0  0.30287389594E+03 -0.23733479457E+03 -0.29984078483E+03  0.50357592735E+03  0.12499526711E+03 0.  0.
         23    2    1    2    0    0 -0.30287389594E+03  0.23733479457E+03  0.29984078483E+03  0.49642407265E+03  0.92043262161E+02 0.  0.
        -11    1    4    4    0    0 -0.28235696590E+03  0.18376812058E+03  0.27017380739E+03  0.43184495427E+03  0.00000000000E+00 0. -1.
         11    1    4    4    0    0 -0.20516930039E+02  0.53566673985E+02  0.29666977443E+02  0.64579118380E+02  0.00000000000E+00 0.  1.
        -15    1    3    3    0    0  0.10452616170E+02 -0.58415145933E+02 -0.65003009961E+02  0.88034853848E+02  0.17770000000E+01 0. -1.
         15    1    3    3    0    0  0.29242127977E+03 -0.17891964864E+03 -0.23483777487E+03  0.41554107350E+03  0.17770000000E+01 0. -1.
</event>
<event>
 8    1  0.2370702E-007  0.5028993E+03  0.7546771E-02  0.9393346E-01
        -11   -1    0    0    0    0  0.00000000000E+00  0.00000000000E+00  0.50000000000E+03  0.50000000000E+03  0.00000000000E+00 0.  1.
         11   -1    0    0    0    0 -0.00000000000E+00 -0.00000000000E+00 -0.50000000000E+03  0.50000000000E+03  0.00000000000E+00 0. -1.
         25    2    1    2    0    0 -0.40896292014E+03 -0.25351454427E+03 -0.75904048177E+02  0.50289927053E+03  0.12500383022E+03 0.  0.
         23    2    1    2    0    0  0.40896292014E+03  0.25351454427E+03  0.75904048177E+02  0.49710072947E+03  0.99133326907E+02 0.  0.
        -11    1    4    4    0    0  0.13522164349E+03  0.13973697442E+03  0.39579765851E+02  0.19843858685E+03  0.00000000000E+00 0. -1.
         11    1    4    4    0    0  0.27374127665E+03  0.11377756984E+03  0.36324282326E+02  0.29866214261E+03  0.00000000000E+00 0.  1.
        -15    1    3    3    0    0 -0.33915775384E+03 -0.21504307565E+03 -0.13777182161E+02  0.40182642379E+03  0.17770000000E+01 0.  1.
         15    1    3    3    0    0 -0.69805166295E+02 -0.38471468617E+02 -0.62126866015E+02  0.10107284674E+03  0.17770000000E+01 0.  1.
</event>
<event>
 8    1  0.2370702E-007  0.5036404E+03  0.7546771E-02  0.9391701E-01
        -11   -1    0    0    0    0  0.00000000000E+00  0.00000000000E+00  0.50000000000E+03  0.50000000000E+03  0.00000000000E+00 0.  1.
         11   -1    0    0    0    0 -0.00000000000E+00 -0.00000000000E+00 -0.50000000000E+03  0.50000000000E+03  0.00000000000E+00 0. -1.
         25    2    1    2    0    0  0.29065396012E+03  0.35425102239E+03 -0.16749080042E+03  0.50364042839E+03  0.12500800568E+03 0.  0.
         23    2    1    2    0    0 -0.29065396012E+03 -0.35425102239E+03  0.16749080042E+03  0.49635957161E+03  0.91357236795E+02 0.  0.
        -11    1    4    4    0    0 -0.68206310588E+02 -0.88103400086E+02  0.84132341132E+02  0.13961576106E+03  0.00000000000E+00 0.  1.
         11    1    4    4    0    0 -0.22244764953E+03 -0.26614762230E+03  0.83358459283E+02  0.35674381056E+03  0.00000000000E+00 0. -1.
        -15    1    3    3    0    0  0.28832470488E+03  0.30918234267E+03 -0.12311544807E+03  0.44032423025E+03  0.17770000000E+01 0. -1.
         15    1    3    3    0    0  0.23292552365E+01  0.45068679715E+02 -0.44375352344E+02  0.63316198132E+02  0.17770000000E+01 0. -1.
</event>
<event>
 8    1  0.2370702E-007  0.5032706E+03  0.7546771E-02  0.9392521E-01
        -11   -1    0    0    0    0  0.00000000000E+00  0.00000000000E+00  0.50000000000E+03  0.50000000000E+03  0.00000000000E+00 0.  1.
         11   -1    0    0    0    0 -0.00000000000E+00 -0.00000000000E+00 -0.50000000000E+03  0.50000000000E+03  0.00000000000E+00 0. -1.
         25    2    1    2    0    0 -0.24536954800E+02 -0.43742117218E+03 -0.21381443768E+03  0.50327058337E+03  0.12500128923E+03 0.  0.
         23    2    1    2    0    0  0.24536954800E+02  0.43742117218E+03  0.21381443768E+03  0.49672941663E+03  0.95310836523E+02 0.  0.
        -11    1    4    4    0    0  0.57669661629E+02  0.19784201633E+03  0.10911218674E+03  0.23317959301E+03  0.00000000000E+00 0.  1.
         11    1    4    4    0    0 -0.33132706829E+02  0.23957915585E+03  0.10470225094E+03  0.26354982362E+03  0.00000000000E+00 0. -1.
        -15    1    3    3    0    0 -0.45556266764E+02 -0.92596208270E+02 -0.87902939064E+02  0.13557107233E+03  0.17770000000E+01 0. -1.
         15    1    3    3    0    0  0.21019311964E+02 -0.34482496391E+03 -0.12591149862E+03  0.36769951105E+03  0.17770000000E+01 0. -1.
</event>
<event>
 8    1  0.2370702E-007  0.5033451E+03  0.7546771E-02  0.9392356E-01
        -11   -1    0    0    0    0  0.00000000000E+00  0.00000000000E+00  0.50000000000E+03  0.50000000000E+03  0.00000000000E+00 0. -1.
         11   -1    0    0    0    0 -0.00000000000E+00 -0.00000000000E+00 -0.50000000000E+03  0.50000000000E+03  0.00000000000E+00 0.  1.
         25    2    1    2    0    0  0.20426869875E+03 -0.22409854607E+03 -0.38181963922E+03  0.50334507914E+03  0.12499668858E+03 0.  0.
         23    2    1    2    0    0 -0.20426869875E+03  0.22409854607E+03  0.38181963922E+03  0.49665492086E+03  0.94519912604E+02 0.  0.
        -11    1    4    4    0    0 -0.90117644789E+02  0.43652420263E+02  0.16012690638E+03  0.18885801504E+03  0.00000000000E+00 0.  1.
         11    1    4    4    0    0 -0.11415105397E+03  0.18044612580E+03  0.22169273284E+03  0.30779690582E+03  0.00000000000E+00 0. -1.
        -15    1    3    3    0    0  0.80486894523E+02 -0.82551010292E+02 -0.24504637121E+03  0.27082040407E+03  0.17770000000E+01 0.  1.
         15    1    3    3    0    0  0.12378180423E+03 -0.14154753577E+03 -0.13677326802E+03  0.23252467507E+03  0.17770000000E+01 0.  1.
</event>
<event>
 8    1  0.2370702E-007  0.5033733E+03  0.7546771E-02  0.9392293E-01
        -11   -1    0    0    0    0  0.00000000000E+00  0.00000000000E+00  0.50000000000E+03  0.50000000000E+03  0.00000000000E+00 0. -1.
         11   -1    0    0    0    0 -0.00000000000E+00 -0.00000000000E+00 -0.50000000000E+03  0.50000000000E+03  0.00000000000E+00 0.  1.
         25    2    1    2    0    0  0.21666516511E+02 -0.42901750129E+03 -0.23071384757E+03  0.50337328449E+03  0.12502131712E+03 0.  0.
         23    2    1    2    0    0 -0.21666516511E+02  0.42901750129E+03  0.23071384757E+03  0.49662671551E+03  0.94253704179E+02 0.  0.
        -11    1    4    4    0    0 -0.30727129034E+02  0.26289729960E+03  0.92652297463E+02  0.28043465339E+03  0.00000000000E+00 0.  1.
         11    1    4    4    0    0  0.90606125229E+01  0.16612020169E+03  0.13806155010E+03  0.21619206212E+03  0.00000000000E+00 0. -1.
        -15    1    3    3    0    0  0.70870026686E+02 -0.20688615167E+03 -0.13127391847E+03  0.25506948040E+03  0.17770000000E+01 0.  1.
         15    1    3    3    0    0 -0.49203510175E+02 -0.22213134962E+03 -0.99439929095E+02  0.24830380409E+03  0.17770000000E+01 0.  1.
</event>
<event>
 8    1  0.2370702E-007  0.5036957E+03  0.7546771E-02  0.9391578E-01
        -11   -1    0    0    0    0  0.00000000000E+00  0.00000000000E+00  0.50000000000E+03  0.50000000000E+03  0.00000000000E+00 0. -1.
         11   -1    0    0    0    0 -0.00000000000E+00 -0.00000000000E+00 -0.50000000000E+03  0.50000000000E+03  0.00000000000E+00 0.  1.
         25    2    1    2    0    0  0.21508748213E+02 -0.35291337835E+03 -0.33626485829E+03  0.50369565173E+03  0.12499910313E+03 0.  0.
         23    2    1    2    0    0 -0.21508748213E+02  0.35291337835E+03  0.33626485829E+03  0.49630434827E+03  0.90738483170E+02 0.  0.
        -11    1    4    4    0    0 -0.74986404971E+00  0.26131501078E+03  0.19244126893E+03  0.32453002811E+03  0.00000000000E+00 0.  1.
         11    1    4    4    0    0 -0.20758884164E+02  0.91598367569E+02  0.14382358936E+03  0.17177432017E+03  0.00000000000E+00 0. -1.
        -15    1    3    3    0    0  0.72488229077E+02 -0.18861593522E+03 -0.16412635651E+03  0.26032889391E+03  0.17770000000E+01 0.  1.
         15    1    3    3    0    0 -0.50979480863E+02 -0.16429744313E+03 -0.17213850177E+03  0.24336675781E+03  0.17770000000E+01 0.  1.
</event>
<event>
 8    1  0.2370702E-007  0.5028689E+03  0.7546771E-02  0.9393413E-01
        -11   -1    0    0    0    0  0.00000000000E+00  0.00000000000E+00  0.50000000000E+03  0.50000000000E+03  0.00000000000E+00 0. -1.
         11   -1    0    0    0    0 -0.00000000000E+00 -0.00000000000E+00 -0.50000000000E+03  0.50000000000E+03  0.00000000000E+00 0.  1.
         25    2    1    2    0    0  0.47486642697E+03 -0.30056117641E+02  0.10417033683E+03  0.50286888369E+03  0.12499664568E+03 0.  0.
         23    2    1    2    0    0 -0.47486642697E+03  0.30056117641E+02 -0.10417033683E+03  0.49713111631E+03  0.99430347768E+02 0.  0.
        -11    1    4    4    0    0 -0.27730474425E+03  0.30529290257E+02 -0.12296084868E+02  0.27925105631E+03  0.00000000000E+00 0. -1.
         11    1    4    4    0    0 -0.19756168272E+03 -0.47317261603E+00 -0.91874251967E+02  0.21788006000E+03  0.00000000000E+00 0.  1.
        -15    1    3    3    0    0  0.35330585998E+03 -0.14165689676E+02  0.20018210696E+02  0.35416039297E+03  0.17770000000E+01 0. -1.
         15    1    3    3    0    0  0.12156056699E+03 -0.15890427965E+02  0.84152126139E+02  0.14870849071E+03  0.17770000000E+01 0. -1.
</event>
<event>
 8    1  0.2370702E-007  0.5033459E+03  0.7546771E-02  0.9392354E-01
        -11   -1    0    0    0    0  0.00000000000E+00  0.00000000000E+00  0.50000000000E+03  0.50000000000E+03  0.00000000000E+00 0.  1.
         11   -1    0    0    0    0 -0.00000000000E+00 -0.00000000000E+00 -0.50000000000E+03  0.50000000000E+03  0.00000000000E+00 0. -1.
         25    2    1    2    0    0  0.12150747718E+02  0.27044513388E+03  0.40551587270E+03  0.50334588932E+03  0.12500300069E+03 0.  0.
         23    2    1    2    0    0 -0.12150747718E+02 -0.27044513388E+03 -0.40551587270E+03  0.49665411068E+03  0.94519688619E+02 0.  0.
        -11    1    4    4    0    0  0.33511800413E+02 -0.19510725558E+03 -0.29609480984E+03  0.35617694810E+03  0.00000000000E+00 0. -1.
         11    1    4    4    0    0 -0.45662548131E+02 -0.75337878300E+02 -0.10942106286E+03  0.14047716258E+03  0.00000000000E+00 0.  1.
        -15    1    3    3    0    0 -0.18944588105E+02  0.21125491800E+02  0.11862339996E+03  0.12198300115E+03  0.17770000000E+01 0.  1.
         15    1    3    3    0    0  0.31095335823E+02  0.24931964208E+03  0.28689247274E+03  0.38136288818E+03  0.17770000000E+01 0.  1.
</event>
<event>
 8    1  0.2370702E-007  0.5037084E+03  0.7546771E-02  0.9391550E-01
        -11   -1    0    0    0    0  0.00000000000E+00  0.00000000000E+00  0.50000000000E+03  0.50000000000E+03  0.00000000000E+00 0. -1.
         11   -1    0    0    0    0 -0.00000000000E+00 -0.00000000000E+00 -0.50000000000E+03  0.50000000000E+03  0.00000000000E+00 0.  1.
         25    2    1    2    0    0  0.42051498165E+03 -0.82456630119E+02  0.23337592532E+03  0.50370840657E+03  0.12500356272E+03 0.  0.
         23    2    1    2    0    0 -0.42051498165E+03  0.82456630119E+02 -0.23337592532E+03  0.49629159343E+03  0.90603959875E+02 0.  0.
        -11    1    4    4    0    0 -0.24191398952E+03  0.15398311901E+01 -0.12823460778E+03  0.27380442662E+03  0.00000000000E+00 0.  1.
         11    1    4    4    0    0 -0.17860099213E+03  0.80916798929E+02 -0.10514131755E+03  0.22248716680E+03  0.00000000000E+00 0. -1.
        -15    1    3    3    0    0  0.23509698679E+03  0.13879971385E+02  0.14684000778E+03  0.27753989338E+03  0.17770000000E+01 0.  1.
         15    1    3    3    0    0  0.18541799486E+03 -0.96336601504E+02  0.86535917547E+02  0.22616851320E+03  0.17770000000E+01 0.  1.
</event>
<event>
 8    1  0.2370702E-007  0.5037039E+03  0.7546771E-02  0.9391560E-01
        -11   -1    0    0    0    0  0.00000000000E+00  0.00000000000E+00  0.50000000000E+03  0.50000000000E+03  0.00000000000E+00 0. -1.
         11   -1    0    0    0    0 -0.00000000000E+00 -0.00000000000E+00 -0.50000000000E+03  0.50000000000E+03  0.00000000000E+00 0.  1.
         25    2    1    2    0    0  0.16402115433E+03 -0.45658687664E+03 -0.52122890008E+02  0.50370385540E+03  0.12500505308E+03 0.  0.
         23    2    1    2    0    0 -0.16402115433E+03  0.45658687664E+03  0.52122890008E+02  0.49629614460E+03  0.90656232541E+02 0.  0.
        -11    1    4    4    0    0 -0.32788883441E+02  0.12957210762E+03 -0.24023056271E+02  0.13579819285E+03  0.00000000000E+00 0.  1.
         11    1    4    4    0    0 -0.13123227089E+03  0.32701476902E+03  0.76145946279E+02  0.36049795175E+03  0.00000000000E+00 0. -1.
        -15    1    3    3    0    0 -0.71931165263E+01 -0.10600987905E+03  0.16552273751E+02  0.10754985298E+03  0.17770000000E+01 0.  1.
         15    1    3    3    0    0  0.17121427086E+03 -0.35057699759E+03 -0.68675163760E+02  0.39615400242E+03  0.17770000000E+01 0.  1.
</event>
<event>
 8    1  0.2370702E-007  0.5036459E+03  0.7546771E-02  0.9391689E-01
        -11   -1    0    0    0    0  0.00000000000E+00  0.00000000000E+00  0.50000000000E+03  0.50000000000E+03  0.00000000000E+00 0. -1.
         11   -1    0    0    0    0 -0.00000000000E+00 -0.00000000000E+00 -0.50000000000E+03  0.50000000000E+03  0.00000000000E+00 0.  1.
         25    2    1    2    0    0  0.38371543407E+02  0.48318035335E+03  0.55665464559E+02  0.50364586806E+03  0.12499954905E+03 0.  0.
         23    2    1    2    0    0 -0.38371543407E+02 -0.48318035335E+03 -0.55665464559E+02  0.49635413194E+03  0.91286094965E+02 0.  0.
        -11    1    4    4    0    0 -0.80162702993E+01 -0.42740828426E+03 -0.64228345962E+02  0.43228160090E+03  0.00000000000E+00 0.  1.
         11    1    4    4    0    0 -0.30355273108E+02 -0.55772069089E+02  0.85628814027E+01  0.64072531040E+02  0.00000000000E+00 0. -1.
        -15    1    3    3    0    0 -0.33125802794E+01  0.38993415613E+03  0.81270539911E+02  0.39833111565E+03  0.17770000000E+01 0.  1.
         15    1    3    3    0    0  0.41684123687E+02  0.93246197222E+02 -0.25605075352E+02  0.10531475242E+03  0.17770000000E+01 0.  1.
</event>
<event>
 8    1  0.2370702E-007  0.5036702E+03  0.7546771E-02  0.9391635E-01
        -11   -1    0    0    0    0  0.00000000000E+00  0.00000000000E+00  0.50000000000E+03  0.50000000000E+03  0.00000000000E+00 0.  1.
         11   -1    0    0    0    0 -0.00000000000E+00 -0.00000000000E+00 -0.50000000000E+03  0.50000000000E+03  0.00000000000E+00 0. -1.
         25    2    1    2    0    0 -0.44920258513E+03  0.13583996245E+03 -0.13349956865E+03  0.50367016292E+03  0.12500416113E+03 0.  0.
         23    2    1    2    0    0  0.44920258513E+03 -0.13583996245E+03  0.13349956865E+03  0.49632983708E+03  0.91025899950E+02 0.  0.
        -11    1    4    4    0    0  0.32863933877E+03 -0.57403768045E+02  0.10454419033E+03  0.34961192100E+03  0.00000000000E+00 0. -1.
         11    1    4    4    0    0  0.12056324636E+03 -0.78436194410E+02  0.28955378326E+02  0.14671791608E+03  0.00000000000E+00 0.  1.
        -15    1    3    3    0    0 -0.37018656185E+02 -0.28497491713E+01 -0.47564978770E+02  0.60366272955E+02  0.17770000000E+01 0. -1.
         15    1    3    3    0    0 -0.41218392894E+03  0.13868971163E+03 -0.85934589884E+02  0.44330388996E+03  0.17770000000E+01 0. -1.
</event>
<event>
 8    1  0.2370702E-007  0.5040743E+03  0.7546771E-02  0.9390739E-01
        -11   -1    0    0    0    0  0.00000000000E+00  0.00000000000E+00  0.50000000000E+03  0.50000000000E+03  0.00000000000E+00 0. -1.
         11   -1    0    0    0    0 -0.00000000000E+00 -0.00000000000E+00 -0.50000000000E+03  0.50000000000E+03  0.00000000000E+00 0.  1.
         25    2    1    2    0    0 -0.20468684236E+03 -0.35441959304E+03  0.26637668184E+03  0.50407426235E+03  0.12499749588E+03 0.  0.
         23    2    1    2    0    0  0.20468684236E+03  0.35441959304E+03 -0.26637668184E+03  0.49592573765E+03  0.86462993664E+02 0.  0.
        -11    1    4    4    0    0  0.86447699822E+02  0.21935372321E+03 -0.18049739593E+03  0.29693192929E+03  0.00000000000E+00 0.  1.
         11    1    4    4    0    0  0.11823914254E+03  0.13506586982E+03 -0.85879285909E+02  0.19899380836E+03  0.00000000000E+00 0. -1.
        -15    1    3    3    0    0 -0.62709341532E+02 -0.11914757173E+03  0.16069998479E+03  0.20965745444E+03  0.17770000000E+01 0.  1.
         15    1    3    3    0    0 -0.14197750083E+03 -0.23527202130E+03  0.10567669705E+03  0.29441680791E+03  0.17770000000E+01 0.  1.
</event>
<event>
 8    1  0.2370702E-007  0.5036503E+03  0.7546771E-02  0.9391679E-01
        -11   -1    0    0    0    0  0.00000000000E+00  0.00000000000E+00  0.50000000000E+03  0.50000000000E+03  0.00000000000E+00 0.  1.
         11   -1    0    0    0    0 -0.00000000000E+00 -0.00000000000E+00 -0.50000000000E+03  0.50000000000E+03  0.00000000000E+00 0. -1.
         25    2    1    2    0    0  0.94064484657E+02  0.28533721710E+03 -0.38441307149E+03  0.50365028092E+03  0.12499896482E+03 0.  0.
         23    2    1    2    0    0 -0.94064484657E+02 -0.28533721710E+03  0.38441307149E+03  0.49634971908E+03  0.91236940752E+02 0.  0.
        -11    1    4    4    0    0 -0.84708485862E+02 -0.11788886992E+03  0.15762454094E+03  0.21428674512E+03  0.00000000000E+00 0.  1.
         11    1    4    4    0    0 -0.93559987952E+01 -0.16744834718E+03  0.22678853055E+03  0.28206297396E+03  0.00000000000E+00 0. -1.
        -15    1    3    3    0    0  0.35664127795E+02  0.69113781355E+01 -0.20558570068E+02  0.41779297401E+02  0.17770000000E+01 0.  1.
         15    1    3    3    0    0  0.58400356862E+02  0.27842583896E+03 -0.36385450142E+03  0.46187098352E+03  0.17770000000E+01 0.  1.
</event>
<event>
 8    1  0.2370702E-007  0.5036550E+03  0.7546771E-02  0.9391668E-01
        -11   -1    0    0    0    0  0.00000000000E+00  0.00000000000E+00  0.50000000000E+03  0.50000000000E+03  0.00000000000E+00 0. -1.
         11   -1    0    0    0    0 -0.00000000000E+00 -0.00000000000E+00 -0.50000000000E+03  0.50000000000E+03  0.00000000000E+00 0.  1.
         25    2    1    2    0    0  0.52202102499E+02 -0.48503910922E+03 -0.74787895096E+01  0.50365495497E+03  0.12499753756E+03 0.  0.
         23    2    1    2    0    0 -0.52202102499E+02  0.48503910922E+03  0.74787895096E+01  0.49634504503E+03  0.91183740057E+02 0.  0.
        -11    1    4    4    0    0  0.10627956686E+01  0.16646363116E+02 -0.17623467622E+02  0.24265563061E+02  0.00000000000E+00 0.  1.
         11    1    4    4    0    0 -0.53264898167E+02  0.46839274611E+03  0.25102257131E+02  0.47207948197E+03  0.00000000000E+00 0. -1.
        -15    1    3    3    0    0  0.49546662683E+02 -0.48782150437E+03  0.51217569527E+01  0.49036117509E+03  0.17770000000E+01 0. -1.
         15    1    3    3    0    0  0.26554398158E+01  0.27823951522E+01 -0.12600546462E+02  0.13293779882E+02  0.17770000000E+01 0. -1.
</event>
<event>
 8    1  0.2370702E-007  0.5035129E+03  0.7546771E-02  0.9391983E-01
        -11   -1    0    0    0    0  0.00000000000E+00  0.00000000000E+00  0.50000000000E+03  0.50000000000E+03  0.00000000000E+00 0. -1.
         11   -1    0    0    0    0 -0.00000000000E+00 -0.00000000000E+00 -0.50000000000E+03  0.50000000000E+03  0.00000000000E+00 0.  1.
         25    2    1    2    0    0  0.13312433677E+03 -0.45967468407E+03  0.94216721512E+02  0.50351288362E+03  0.12500211656E+03 0.  0.
         23    2    1    2    0    0 -0.13312433677E+03  0.45967468407E+03 -0.94216721512E+02  0.49648711638E+03  0.92734901231E+02 0.  0.
        -11    1    4    4    0    0 -0.13018949508E+03  0.35392541833E+03 -0.10124114541E+03  0.39046418004E+03  0.00000000000E+00 0.  1.
         11    1    4    4    0    0 -0.29348416898E+01  0.10574926574E+03  0.70244238946E+01  0.10602293634E+03  0.00000000000E+00 0. -1.
        -15    1    3    3    0    0 -0.37629596709E+01 -0.23164218655E+01  0.19770140486E+02  0.20335728646E+02  0.17770000000E+01 0.  1.
         15    1    3    3    0    0  0.13688729644E+03 -0.45735826220E+03  0.74446581026E+02  0.48317715497E+03  0.17770000000E+01 0.  1.
</event>
<event>
 8    1  0.2370702E-007  0.5030464E+03  0.7546771E-02  0.9393019E-01
        -11   -1    0    0    0    0  0.00000000000E+00  0.00000000000E+00  0.50000000000E+03  0.50000000000E+03  0.00000000000E+00 0. -1.
         11   -1    0    0    0    0 -0.00000000000E+00 -0.00000000000E+00 -0.50000000000E+03  0.50000000000E+03  0.00000000000E+00 0.  1.
         25    2    1    2    0    0 -0.37283363067E+03 -0.11626765496E+03  0.29139345996E+03  0.50304639472E+03  0.12498977152E+03 0.  0.
         23    2    1    2    0    0  0.37283363067E+03  0.11626765496E+03 -0.29139345996E+03  0.49695360528E+03  0.97619944412E+02 0.  0.
        -11    1    4    4    0    0  0.23775116414E+03  0.11200500735E+03 -0.22687730768E+03  0.34719454268E+03  0.00000000000E+00 0.  1.
         11    1    4    4    0    0  0.13508246653E+03  0.42626476079E+01 -0.64516152278E+02  0.14975906261E+03  0.00000000000E+00 0. -1.
        -15    1    3    3    0    0 -0.29447407825E+03 -0.35324413774E+02  0.19695242480E+03  0.35602838698E+03  0.17770000000E+01 0.  1.
         15    1    3    3    0    0 -0.78359552416E+02 -0.80943241188E+02  0.94441035158E+02  0.14701800774E+03  0.17770000000E+01 0.  1.
</event>
<event>
 8    1  0.2370702E-007  0.5038090E+03  0.7546771E-02  0.9391327E-01
        -11   -1    0    0    0    0  0.00000000000E+00  0.00000000000E+00  0.50000000000E+03  0.50000000000E+03  0.00000000000E+00 0. -1.
         11   -1    0    0    0    0 -0.00000000000E+00 -0.00000000000E+00 -0.50000000000E+03  0.50000000000E+03  0.00000000000E+00 0.  1.
         25    2    1    2    0    0  0.33340532964E+03 -0.74557279028E+02  0.34853783800E+03  0.50380898834E+03  0.12500788186E+03 0.  0.
         23    2    1    2    0    0 -0.33340532964E+03  0.74557279028E+02 -0.34853783800E+03  0.49619101166E+03  0.89492982096E+02 0.  0.
        -11    1    4    4    0    0 -0.28270846700E+03  0.91887984164E+02 -0.31428780170E+03  0.43260178137E+03  0.00000000000E+00 0.  1.
         11    1    4    4    0    0 -0.50696862639E+02 -0.17330705136E+02 -0.34250036298E+02  0.63589230286E+02  0.00000000000E+00 0. -1.
        -15    1    3    3    0    0  0.10716607399E+03  0.27154079082E+02  0.70171409883E+02  0.13095455670E+03  0.17770000000E+01 0. -1.
         15    1    3    3    0    0  0.22623925564E+03 -0.10171135811E+03  0.27836642812E+03  0.37285443164E+03  0.17770000000E+01 0. -1.
</event>
<event>
 8    1  0.2370702E-007  0.5036812E+03  0.7546771E-02  0.9391610E-01
        -11   -1    0    0    0    0  0.00000000000E+00  0.00000000000E+00  0.50000000000E+03  0.50000000000E+03  0.00000000000E+00 0.  1.
         11   -1    0    0    0    0 -0.00000000000E+00 -0.00000000000E+00 -0.50000000000E+03  0.50000000000E+03  0.00000000000E+00 0. -1.
         25    2    1    2    0    0  0.39888427882E+03  0.22594782462E+03  0.16705806119E+03  0.50368120864E+03  0.12500110713E+03 0.  0.
         23    2    1    2    0    0 -0.39888427882E+03 -0.22594782462E+03 -0.16705806119E+03  0.49631879136E+03  0.90900272313E+02 0.  0.
        -11    1    4    4    0    0 -0.12054882147E+03 -0.60054282642E+02 -0.68525967993E+01  0.13485359952E+03  0.00000000000E+00 0.  1.
         11    1    4    4    0    0 -0.27833545736E+03 -0.16589354198E+03 -0.16020546439E+03  0.36146519184E+03  0.00000000000E+00 0. -1.
        -15    1    3    3    0    0  0.31530847166E+03  0.11573174900E+03  0.13271207203E+03  0.36114944527E+03  0.17770000000E+01 0.  1.
         15    1    3    3    0    0  0.83575807159E+02  0.11021607562E+03  0.34345989158E+02  0.14253176336E+03  0.17770000000E+01 0.  1.
</event>
<event>
 8    1  0.2370702E-007  0.5039011E+03  0.7546771E-02  0.9391123E-01
        -11   -1    0    0    0    0  0.00000000000E+00  0.00000000000E+00  0.50000000000E+03  0.50000000000E+03  0.00000000000E+00 0. -1.
         11   -1    0    0    0    0 -0.00000000000E+00 -0.00000000000E+00 -0.50000000000E+03  0.50000000000E+03  0.00000000000E+00 0.  1.
         25    2    1    2    0    0 -0.28043108729E+03 -0.14093179964E+03 -0.37387988050E+03  0.50390111183E+03  0.12500719417E+03 0.  0.
         23    2    1    2    0    0  0.28043108729E+03  0.14093179964E+03  0.37387988050E+03  0.49609888817E+03  0.88456627411E+02 0.  0.
        -11    1    4    4    0    0  0.15502285727E+02 -0.27968251357E+01 -0.13463313804E+00  0.15753133647E+02  0.00000000000E+00 0.  1.
         11    1    4    4    0    0  0.26492880157E+03  0.14372862477E+03  0.37401451364E+03  0.48034575452E+03  0.00000000000E+00 0. -1.
        -15    1    3    3    0    0 -0.12754721063E+02 -0.46480950382E+02 -0.25623327236E+02  0.54615696329E+02  0.17770000000E+01 0.  1.
         15    1    3    3    0    0 -0.26767636623E+03 -0.94450849253E+02 -0.34825655326E+03  0.44928541550E+03  0.17770000000E+01 0.  1.
</event>
<event>
 8    1  0.2370702E-007  0.5037030E+03  0.7546771E-02  0.9391562E-01
        -11   -1    0    0    0    0  0.00000000000E+00  0.00000000000E+00  0.50000000000E+03  0.50000000000E+03  0.00000000000E+00 0.  1.
         11   -1    0    0    0    0 -0.00000000000E+00 -0.00000000000E+00 -0.50000000000E+03  0.50000000000E+03  0.00000000000E+00 0. -1.
         25    2    1    2    0    0  0.31406626625E+03  0.31763771991E+03 -0.19636843332E+03  0.50370304033E+03  0.12499940215E+03 0.  0.
         23    2    1    2    0    0 -0.31406626625E+03 -0.31763771991E+03  0.19636843332E+03  0.49629695967E+03  0.90657431415E+02 0.  0.
        -11    1    4    4    0    0 -0.20315292536E+03 -0.14551010551E+03  0.90424832480E+02  0.26574602954E+03  0.00000000000E+00 0.  1.
         11    1    4    4    0    0 -0.11091334089E+03 -0.17212761439E+03  0.10594360084E+03  0.23055093013E+03  0.00000000000E+00 0. -1.
        -15    1    3    3    0    0  0.24828630642E+03  0.18179464459E+03 -0.95691110325E+02  0.32226592914E+03  0.17770000000E+01 0.  1.
         15    1    3    3    0    0  0.65779959826E+02  0.13584307532E+03 -0.10067732299E+03  0.18143711120E+03  0.17770000000E+01 0.  1.
</event>
<event>
 8    1  0.2370702E-007  0.5043999E+03  0.7546771E-02  0.9390018E-01
        -11   -1    0    0    0    0  0.00000000000E+00  0.00000000000E+00  0.50000000000E+03  0.50000000000E+03  0.00000000000E+00 0. -1.
         11   -1    0    0    0    0 -0.00000000000E+00 -0.00000000000E+00 -0.50000000000E+03  0.50000000000E+03  0.00000000000E+00 0.  1.
         25    2    1    2    0    0 -0.27964724282E+03 -0.37119642304E+03  0.15101279777E+03  0.50439991287E+03  0.12500016851E+03 0.  0.
         23    2    1    2    0    0  0.27964724282E+03  0.37119642304E+03 -0.15101279777E+03  0.49560008713E+03  0.82614867786E+02 0.  0.
        -11    1    4    4    0    0  0.85126219420E+02  0.56861960196E+02 -0.31637108214E+02  0.10714785283E+03  0.00000000000E+00 0. -1.
         11    1    4    4    0    0  0.19452102340E+03  0.31433446284E+03 -0.11937568956E+03  0.38845223430E+03  0.00000000000E+00 0.  1.
        -15    1    3    3    0    0 -0.26186991891E+03 -0.37557262683E+03  0.12893946388E+03  0.47566710578E+03  0.17770000000E+01 0.  1.
         15    1    3    3    0    0 -0.17777323911E+02  0.43762037932E+01  0.22073333894E+02  0.28732807090E+02  0.17770000000E+01 0.  1.
</event>
<event>
 8    1  0.2370702E-007  0.5036621E+03  0.7546771E-02  0.9391653E-01
        -11   -1    0    0    0    0  0.00000000000E+00  0.00000000000E+00  0.50000000000E+03  0.50000000000E+03  0.00000000000E+00 0. -1.
         11   -1    0    0    0    0 -0.00000000000E+00 -0.00000000000E+00 -0.50000000000E+03  0.50000000000E+03  0.00000000000E+00 0.  1.
         25    2    1    2    0    0 -0.36156669116E+03 -0.32748046237E+03  0.85881383227E+01  0.50366208828E+03  0.12501127012E+03 0.  0.
         23    2    1    2    0    0  0.36156669116E+03  0.32748046237E+03 -0.85881383227E+01  0.49633791172E+03  0.91124316704E+02 0.  0.
        -11    1    4    4    0    0  0.26056182477E+03  0.24576278853E+03  0.33567114580E+02  0.35974791721E+03  0.00000000000E+00 0. -1.
         11    1    4    4    0    0  0.10100486639E+03  0.81717673839E+02 -0.42155252902E+02  0.13658999451E+03  0.00000000000E+00 0.  1.
        -15    1    3    3    0    0 -0.19284457681E+03 -0.11363209196E+03 -0.38780626829E+02  0.22717477385E+03  0.17770000000E+01 0.  1.
         15    1    3    3    0    0 -0.16872211436E+03 -0.21384837041E+03  0.47368765152E+02  0.27648731443E+03  0.17770000000E+01 0.  1.
</event>
<event>
 8    1  0.2370702E-007  0.5036457E+03  0.7546771E-02  0.9391689E-01
        -11   -1    0    0    0    0  0.00000000000E+00  0.00000000000E+00  0.50000000000E+03  0.50000000000E+03  0.00000000000E+00 0.  1.
         11   -1    0    0    0    0 -0.00000000000E+00 -0.00000000000E+00 -0.50000000000E+03  0.50000000000E+03  0.00000000000E+00 0. -1.
         25    2    1    2    0    0  0.14669931784E+03 -0.26939290589E+03  0.37939500989E+03  0.50364568122E+03  0.12500068432E+03 0.  0.
         23    2    1    2    0    0 -0.14669931784E+03  0.26939290589E+03 -0.37939500989E+03  0.49635431878E+03  0.91289696303E+02 0.  0.
        -11    1    4    4    0    0 -0.10144487865E+03  0.91939538294E+02 -0.16174453418E+03  0.21190855680E+03  0.00000000000E+00 0.  1.
         11    1    4    4    0    0 -0.45254439184E+02  0.17745336760E+03 -0.21765047570E+03  0.28444576199E+03  0.00000000000E+00 0. -1.
        -15    1    3    3    0    0  0.55071202573E+02 -0.11745689843E+03  0.71119328519E+02  0.14795295523E+03  0.17770000000E+01 0. -1.
         15    1    3    3    0    0  0.91628115264E+02 -0.15193600746E+03  0.30827568137E+03  0.35569272599E+03  0.17770000000E+01 0. -1.
</event>
<event>
 8    1  0.2370702E-007  0.5035819E+03  0.7546771E-02  0.9391830E-01
        -11   -1    0    0    0    0  0.00000000000E+00  0.00000000000E+00  0.50000000000E+03  0.50000000000E+03  0.00000000000E+00 0. -1.
         11   -1    0    0    0    0 -0.00000000000E+00 -0.00000000000E+00 -0.50000000000E+03  0.50000000000E+03  0.00000000000E+00 0.  1.
         25    2    1    2    0    0 -0.27250084076E+03 -0.72842838709E+02  0.39800230931E+03  0.50358188793E+03  0.12500436901E+03 0.  0.
         23    2    1    2    0    0  0.27250084076E+03  0.72842838709E+02 -0.39800230931E+03  0.49641811207E+03  0.91990849636E+02 0.  0.
        -11    1    4    4    0    0  0.16741338196E+03  0.89792609633E+02 -0.24479648426E+03  0.30986331165E+03  0.00000000000E+00 0.  1.
         11    1    4    4    0    0  0.10508745880E+03 -0.16949770924E+02 -0.15320582505E+03  0.18655480042E+03  0.00000000000E+00 0. -1.
        -15    1    3    3    0    0 -0.20684628520E+03 -0.32924059059E+02  0.36307201799E+03  0.41915847522E+03  0.17770000000E+01 0. -1.
         15    1    3    3    0    0 -0.65654555551E+02 -0.39918779650E+02  0.34930291311E+02  0.84423412709E+02  0.17770000000E+01 0. -1.
</event>
<event>
 8    1  0.2370702E-007  0.5039127E+03  0.7546771E-02  0.9391097E-01
        -11   -1    0    0    0    0  0.00000000000E+00  0.00000000000E+00  0.50000000000E+03  0.50000000000E+03  0.00000000000E+00 0.  1.
         11   -1    0    0    0    0 -0.00000000000E+00 -0.00000000000E+00 -0.50000000000E+03  0.50000000000E+03  0.00000000000E+00 0. -1.
         25    2    1    2    0    0 -0.14718523144E+03  0.25718816388E+03  0.38793545700E+03  0.50391265387E+03  0.12499919979E+03 0.  0.
         23    2    1    2    0    0  0.14718523144E+03 -0.25718816388E+03 -0.38793545700E+03  0.49608734613E+03  0.88314733763E+02 0.  0.
        -11    1    4    4    0    0  0.58445372031E+02 -0.18154761927E+03 -0.21366460398E+03  0.28640524186E+03  0.00000000000E+00 0. -1.
         11    1    4    4    0    0  0.88739859405E+02 -0.75640544608E+02 -0.17427085302E+03  0.20968210426E+03  0.00000000000E+00 0.  1.
        -15    1    3    3    0    0  0.52349362278E+01 -0.41272453047E+01 -0.46261876714E+01  0.83065066355E+01  0.17770000000E+01 0.  1.
         15    1    3    3    0    0 -0.15242016766E+03  0.26131540918E+03  0.39256164467E+03  0.49560614724E+03  0.17770000000E+01 0.  1.
</event>
<event>
 8    1  0.2370702E-007  0.5035842E+03  0.7546771E-02  0.9391825E-01
        -11   -1    0    0    0    0  0.00000000000E+00  0.00000000000E+00  0.50000000000E+03  0.50000000000E+03  0.00000000000E+00 0. -1.
         11   -1    0    0    0    0 -0.00000000000E+00 -0.00000000000E+00 -0.50000000000E+03  0.50000000000E+03  0.00000000000E+00 0.  1.
         25    2    1    2    0    0  0.19223920429E+03 -0.36861713274E+03 -0.25522149392E+03  0.50358419837E+03  0.12499812672E+03 0.  0.
         23    2    1    2    0    0 -0.19223920429E+03  0.36861713274E+03  0.25522149392E+03  0.49641580163E+03  0.91957245144E+02 0.  0.
        -11    1    4    4    0    0 -0.59015742350E+02  0.21240989110E+03  0.12953160040E+03  0.25569367451E+03  0.00000000000E+00 0. -1.
         11    1    4    4    0    0 -0.13322346194E+03  0.15620724163E+03  0.12568989352E+03  0.24072212711E+03  0.00000000000E+00 0.  1.
        -15    1    3    3    0    0  0.19505928977E+03 -0.26530549366E+03 -0.17622269984E+03  0.37348725435E+03  0.17770000000E+01 0.  1.
         15    1    3    3    0    0 -0.28200854818E+01 -0.10331163907E+03 -0.78998794080E+02  0.13009694403E+03  0.17770000000E+01 0.  1.
</event>
<event>
 8    1  0.2370702E-007  0.5036980E+03  0.7546771E-02  0.9391573E-01
        -11   -1    0    0    0    0  0.00000000000E+00  0.00000000000E+00  0.50000000000E+03  0.50000000000E+03  0.00000000000E+00 0. -1.
         11   -1    0    0    0    0 -0.00000000000E+00 -0.00000000000E+00 -0.50000000000E+03  0.50000000000E+03  0.00000000000E+00 0.  1.
         25    2    1    2    0    0  0.24847572857E+03 -0.85677424473E+02  0.41110304328E+03  0.50369801249E+03  0.12500066737E+03 0.  0.
         23    2    1    2    0    0 -0.24847572857E+03  0.85677424473E+02 -0.41110304328E+03  0.49630198751E+03  0.90714617646E+02 0.  0.
        -11    1    4    4    0    0 -0.12924032582E+03  0.84537628172E+02 -0.27464147661E+03  0.31508350175E+03  0.00000000000E+00 0.  1.
         11    1    4    4    0    0 -0.11923540275E+03  0.11397963004E+01 -0.13646156667E+03  0.18121848576E+03  0.00000000000E+00 0. -1.
        -15    1    3    3    0    0  0.12210326057E+03 -0.73809370589E+02  0.31053113276E+03  0.34174518515E+03  0.17770000000E+01 0.  1.
         15    1    3    3    0    0  0.12637246799E+03 -0.11868053884E+02  0.10057191052E+03  0.16195282734E+03  0.17770000000E+01 0.  1.
</event>
<event>
 8    1  0.2370702E-007  0.5036541E+03  0.7546771E-02  0.9391670E-01
        -11   -1    0    0    0    0  0.00000000000E+00  0.00000000000E+00  0.50000000000E+03  0.50000000000E+03  0.00000000000E+00 0. -1.
         11   -1    0    0    0    0 -0.00000000000E+00 -0.00000000000E+00 -0.50000000000E+03  0.50000000000E+03  0.00000000000E+00 0.  1.
         25    2    1    2    0    0  0.10374607416E+02  0.48690193883E+03 -0.29350365797E+02  0.50365405054E+03  0.12499931254E+03 0.  0.
         23    2    1    2    0    0 -0.10374607416E+02 -0.48690193883E+03  0.29350365797E+02  0.49634594946E+03  0.91196091211E+02 0.  0.
        -11    1    4    4    0    0 -0.96902320604E+01 -0.36525414721E+03  0.61493863139E+02  0.37052123806E+03  0.00000000000E+00 0.  1.
         11    1    4    4    0    0 -0.68437535560E+00 -0.12164779162E+03 -0.32143497342E+02  0.12582471140E+03  0.00000000000E+00 0. -1.
        -15    1    3    3    0    0 -0.16646243397E+02  0.47102343397E+03 -0.25257643257E+02  0.47199711762E+03  0.17770000000E+01 0.  1.
         15    1    3    3    0    0  0.27020850813E+02  0.15878504864E+02 -0.40927225403E+01  0.31656932924E+02  0.17770000000E+01 0.  1.
</event>
<event>
 8    1  0.2370702E-007  0.5035976E+03  0.7546771E-02  0.9391796E-01
        -11   -1    0    0    0    0  0.00000000000E+00  0.00000000000E+00  0.50000000000E+03  0.50000000000E+03  0.00000000000E+00 0. -1.
         11   -1    0    0    0    0 -0.00000000000E+00 -0.00000000000E+00 -0.50000000000E+03  0.50000000000E+03  0.00000000000E+00 0.  1.
         25    2    1    2    0    0  0.72493146698E+02  0.48164319697E+03  0.27491084259E+02  0.50359762821E+03  0.12497754166E+03 0.  0.
         23    2    1    2    0    0 -0.72493146698E+02 -0.48164319697E+03 -0.27491084259E+02  0.49640237179E+03  0.91783056715E+02 0.  0.
        -11    1    4    4    0    0 -0.60889429493E+02 -0.41543559167E+03 -0.55610747895E+02  0.42354079937E+03  0.00000000000E+00 0.  1.
         11    1    4    4    0    0 -0.11603717205E+02 -0.66207605303E+02  0.28119663636E+02  0.72861572422E+02  0.00000000000E+00 0. -1.
        -15    1    3    3    0    0 -0.10358596927E+02 -0.30012220226E+01 -0.16614978221E+01  0.11055594418E+02  0.17770000000E+01 0. -1.
         15    1    3    3    0    0  0.82851743625E+02  0.48464441899E+03  0.29152582081E+02  0.49254203379E+03  0.17770000000E+01 0. -1.
</event>
<event>
 8    1  0.2370702E-007  0.5032994E+03  0.7546771E-02  0.9392457E-01
        -11   -1    0    0    0    0  0.00000000000E+00  0.00000000000E+00  0.50000000000E+03  0.50000000000E+03  0.00000000000E+00 0. -1.
         11   -1    0    0    0    0 -0.00000000000E+00 -0.00000000000E+00 -0.50000000000E+03  0.50000000000E+03  0.00000000000E+00 0.  1.
         25    2    1    2    0    0 -0.37829872467E+03  0.35290874758E+02  0.30549895036E+03  0.50329944913E+03  0.12500142359E+03 0.  0.
         23    2    1    2    0    0  0.37829872467E+03 -0.35290874758E+02 -0.30549895036E+03  0.49670055087E+03  0.95007671436E+02 0.  0.
        -11    1    4    4    0    0  0.12103262036E+03 -0.49141109521E+02 -0.72872447648E+02  0.14957986984E+03  0.00000000000E+00 0. -1.
         11    1    4    4    0    0  0.25726610431E+03  0.13850234763E+02 -0.23262650271E+03  0.34712068103E+03  0.00000000000E+00 0.  1.
        -15    1    3    3    0    0 -0.20974355317E+03 -0.40476098852E+02  0.18575260891E+03  0.28308631567E+03  0.17770000000E+01 0. -1.
         15    1    3    3    0    0 -0.16855517150E+03  0.75766973610E+02  0.11974634145E+03  0.22021313346E+03  0.17770000000E+01 0. -1.
</event>
<event>
 8    1  0.2370702E-007  0.5028652E+03  0.7546771E-02  0.9393421E-01
        -11   -1    0    0    0    0  0.00000000000E+00  0.00000000000E+00  0.50000000000E+03  0.50000000000E+03  0.00000000000E+00 0.  1.
         11   -1    0    0    0    0 -0.00000000000E+00 -0.00000000000E+00 -0.50000000000E+03  0.50000000000E+03  0.00000000000E+00 0. -1.
         25    2    1    2    0    0  0.25628525136E+03 -0.41410561744E+03 -0.91273888637E+01  0.50286521691E+03  0.12499809873E+03 0.  0.
         23    2    1    2    0    0 -0.25628525136E+03  0.41410561744E+03  0.91273888637E+01  0.49713478309E+03  0.99469044773E+02 0.  0.
        -11    1    4    4    0    0 -0.68349451873E+02  0.17016031823E+03 -0.33009638782E+02  0.18632181226E+03  0.00000000000E+00 0.  1.
         11    1    4    4    0    0 -0.18793579949E+03  0.24394529921E+03  0.42137027646E+02  0.31081297083E+03  0.00000000000E+00 0. -1.
        -15    1    3    3    0    0  0.25977163172E+03 -0.37535521578E+03  0.15569280503E+02  0.45674763150E+03  0.17770000000E+01 0.  1.
         15    1    3    3    0    0 -0.34863803542E+01 -0.38750401665E+02 -0.24696669367E+02  0.46117585409E+02  0.17770000000E+01 0.  1.
</event>
<event>
 8    1  0.2370702E-007  0.5032874E+03  0.7546771E-02  0.9392484E-01
        -11   -1    0    0    0    0  0.00000000000E+00  0.00000000000E+00  0.50000000000E+03  0.50000000000E+03  0.00000000000E+00 0.  1.
         11   -1    0    0    0    0 -0.00000000000E+00 -0.00000000000E+00 -0.50000000000E+03  0.50000000000E+03  0.00000000000E+00 0. -1.
         25    2    1    2    0    0  0.35144376106E+03  0.15637902141E+03 -0.29950875573E+03  0.50328744049E+03  0.12500254985E+03 0.  0.
         23    2    1    2    0    0 -0.35144376106E+03 -0.15637902141E+03  0.29950875573E+03  0.49671255951E+03  0.95135463917E+02 0.  0.
        -11    1    4    4    0    0 -0.16659926796E+03 -0.12547618665E+03  0.16705467341E+03  0.26722060813E+03  0.00000000000E+00 0.  1.
         11    1    4    4    0    0 -0.18484449311E+03 -0.30902834753E+02  0.13245408232E+03  0.22949195138E+03  0.00000000000E+00 0. -1.
        -15    1    3    3    0    0  0.17166218405E+03  0.14300766679E+03 -0.15050803448E+03  0.26939733548E+03  0.17770000000E+01 0. -1.
         15    1    3    3    0    0  0.17978157701E+03  0.13371354617E+02 -0.14900072125E+03  0.23389010501E+03  0.17770000000E+01 0. -1.
</event>
<event>
 8    1  0.2370702E-007  0.5035061E+03  0.7546771E-02  0.9391999E-01
        -11   -1    0    0    0    0  0.00000000000E+00  0.00000000000E+00  0.50000000000E+03  0.50000000000E+03  0.00000000000E+00 0.  1.
         11   -1    0    0    0    0 -0.00000000000E+00 -0.00000000000E+00 -0.50000000000E+03  0.50000000000E+03  0.00000000000E+00 0. -1.
         25    2    1    2    0    0 -0.23785185485E+03 -0.37702688178E+03 -0.19791547729E+03  0.50350609079E+03  0.12500029147E+03 0.  0.
         23    2    1    2    0    0  0.23785185485E+03  0.37702688178E+03  0.19791547729E+03  0.49649390921E+03  0.92805664127E+02 0.  0.
        -11    1    4    4    0    0  0.89585357910E+02  0.83257320402E+02  0.25247844999E+02  0.12487902718E+03  0.00000000000E+00 0. -1.
         11    1    4    4    0    0  0.14826649694E+03  0.29376956138E+03  0.17266763229E+03  0.37161488203E+03  0.00000000000E+00 0.  1.
        -15    1    3    3    0    0 -0.19250852716E+03 -0.36413065109E+03 -0.15613867312E+03  0.44049189217E+03  0.17770000000E+01 0.  1.
         15    1    3    3    0    0 -0.45343327689E+02 -0.12896230690E+02 -0.41776804167E+02  0.63014198617E+02  0.17770000000E+01 0.  1.
</event>
<event>
 8    1  0.2370702E-007  0.5035175E+03  0.7546771E-02  0.9391973E-01
        -11   -1    0    0    0    0  0.00000000000E+00  0.00000000000E+00  0.50000000000E+03  0.50000000000E+03  0.00000000000E+00 0.  1.
         11   -1    0    0    0    0 -0.00000000000E+00 -0.00000000000E+00 -0.50000000000E+03  0.50000000000E+03  0.00000000000E+00 0. -1.
         25    2    1    2    0    0  0.40630637971E+03 -0.10638516954E+03  0.24799490308E+03  0.50351751049E+03  0.12500293165E+03 0.  0.
         23    2    1    2    0    0 -0.40630637971E+03  0.10638516954E+03 -0.24799490308E+03  0.49648248951E+03  0.92686093621E+02 0.  0.
        -11    1    4    4    0    0 -0.32013335709E+03  0.73539940019E+02 -0.14744629769E+03  0.36004707998E+03  0.00000000000E+00 0.  1.
         11    1    4    4    0    0 -0.86173022622E+02  0.32845229518E+02 -0.10054860539E+03  0.13643540953E+03  0.00000000000E+00 0. -1.
        -15    1    3    3    0    0  0.15778907633E+03  0.20534511841E+02  0.92612168037E+02  0.18411743584E+03  0.17770000000E+01 0.  1.
         15    1    3    3    0    0  0.24851730338E+03 -0.12691968138E+03  0.15538273504E+03  0.31940007464E+03  0.17770000000E+01 0.  1.
</event>
<event>
 8    1  0.2370702E-007  0.5035241E+03  0.7546771E-02  0.9391959E-01
        -11   -1    0    0    0    0  0.00000000000E+00  0.00000000000E+00  0.50000000000E+03  0.50000000000E+03  0.00000000000E+00 0.  1.
         11   -1    0    0    0    0 -0.00000000000E+00 -0.00000000000E+00 -0.50000000000E+03  0.50000000000E+03  0.00000000000E+00 0. -1.
         25    2    1    2    0    0 -0.34388020260E+03 -0.19295449251E+03 -0.28710370859E+03  0.50352412667E+03  0.12499190666E+03 0.  0.
         23    2    1    2    0    0  0.34388020260E+03  0.19295449251E+03  0.28710370859E+03  0.49647587333E+03  0.92599802366E+02 0.  0.
        -11    1    4    4    0    0  0.30526899646E+02  0.37577294333E+02  0.68978677580E+02  0.84273380210E+02  0.00000000000E+00 0.  1.
         11    1    4    4    0    0  0.31335330296E+03  0.15537719818E+03  0.21812503101E+03  0.41220249312E+03  0.00000000000E+00 0. -1.
        -15    1    3    3    0    0 -0.85264978917E+02 -0.10718106569E+03 -0.63166561324E+02  0.15083457717E+03  0.17770000000E+01 0.  1.
         15    1    3    3    0    0 -0.25861522368E+03 -0.85773426818E+02 -0.22393714726E+03  0.35268954949E+03  0.17770000000E+01 0.  1.
</event>
<event>
 8    1  0.2370702E-007  0.5037149E+03  0.7546771E-02  0.9391535E-01
        -11   -1    0    0    0    0  0.00000000000E+00  0.00000000000E+00  0.50000000000E+03  0.50000000000E+03  0.00000000000E+00 0. -1.
         11   -1    0    0    0    0 -0.00000000000E+00 -0.00000000000E+00 -0.50000000000E+03  0.50000000000E+03  0.00000000000E+00 0.  1.
         25    2    1    2    0    0 -0.48280620280E+03  0.60276659930E+02  0.37003837503E+02  0.50371491846E+03  0.12499731956E+03 0.  0.
         23    2    1    2    0    0  0.48280620280E+03 -0.60276659930E+02 -0.37003837503E+02  0.49628508154E+03  0.90523438788E+02 0.  0.
        -11    1    4    4    0    0  0.87462212414E+02 -0.42043871681E+02 -0.25572763359E+02  0.10035582680E+03  0.00000000000E+00 0.  1.
         11    1    4    4    0    0  0.39534399039E+03 -0.18232788250E+02 -0.11431074144E+02  0.39592925474E+03  0.00000000000E+00 0. -1.
        -15    1    3    3    0    0 -0.24152256094E+03  0.69545951644E+02 -0.29990938102E+02  0.25312526727E+03  0.17770000000E+01 0.  1.
         15    1    3    3    0    0 -0.24128364186E+03 -0.92692917137E+01  0.66994775605E+02  0.25058965119E+03  0.17770000000E+01 0.  1.
</event>
<event>
 8    1  0.2370702E-007  0.5034626E+03  0.7546771E-02  0.9392095E-01
        -11   -1    0    0    0    0  0.00000000000E+00  0.00000000000E+00  0.50000000000E+03  0.50000000000E+03  0.00000000000E+00 0.  1.
         11   -1    0    0    0    0 -0.00000000000E+00 -0.00000000000E+00 -0.50000000000E+03  0.50000000000E+03  0.00000000000E+00 0. -1.
         25    2    1    2    0    0 -0.41065838186E+02 -0.41809400125E+03  0.24771161088E+03  0.50346260451E+03  0.12499822008E+03 0.  0.
         23    2    1    2    0    0  0.41065838186E+02  0.41809400125E+03 -0.24771161088E+03  0.49653739549E+03  0.93270284682E+02 0.  0.
        -11    1    4    4    0    0 -0.80982289999E+01  0.56211837282E+02 -0.28949409269E+01  0.56865918146E+02  0.00000000000E+00 0.  1.
         11    1    4    4    0    0  0.49164067186E+02  0.36188216397E+03 -0.24481666995E+03  0.43967147734E+03  0.00000000000E+00 0. -1.
        -15    1    3    3    0    0 -0.14415388299E+02 -0.24177847270E+03  0.70991266347E+02  0.25240354773E+03  0.17770000000E+01 0.  1.
         15    1    3    3    0    0 -0.26650449887E+02 -0.17631552855E+03  0.17672034453E+03  0.25105905677E+03  0.17770000000E+01 0.  1.
</event>
<event>
 8    1  0.2370702E-007  0.5038051E+03  0.7546771E-02  0.9391336E-01
        -11   -1    0    0    0    0  0.00000000000E+00  0.00000000000E+00  0.50000000000E+03  0.50000000000E+03  0.00000000000E+00 0. -1.
         11   -1    0    0    0    0 -0.00000000000E+00 -0.00000000000E+00 -0.50000000000E+03  0.50000000000E+03  0.00000000000E+00 0.  1.
         25    2    1    2    0    0  0.64144314191E+02  0.24095635578E+03  0.41954941793E+03  0.50380505867E+03  0.12499345832E+03 0.  0.
         23    2    1    2    0    0 -0.64144314191E+02 -0.24095635578E+03 -0.41954941793E+03  0.49619494133E+03  0.89516743047E+02 0.  0.
        -11    1    4    4    0    0 -0.49628133047E+02 -0.93313571400E+02 -0.24684621816E+03  0.26852081785E+03  0.00000000000E+00 0.  1.
         11    1    4    4    0    0 -0.14516181143E+02 -0.14764278438E+03 -0.17270319977E+03  0.22767412348E+03  0.00000000000E+00 0. -1.
        -15    1    3    3    0    0  0.16658789917E+02  0.12591915373E+03  0.32044151449E+03  0.34470142224E+03  0.17770000000E+01 0. -1.
         15    1    3    3    0    0  0.47485524273E+02  0.11503720205E+03  0.99107903438E+02  0.15910363643E+03  0.17770000000E+01 0. -1.
</event>
<event>
 8    1  0.2370702E-007  0.5036053E+03  0.7546771E-02  0.9391779E-01
        -11   -1    0    0    0    0  0.00000000000E+00  0.00000000000E+00  0.50000000000E+03  0.50000000000E+03  0.00000000000E+00 0.  1.
         11   -1    0    0    0    0 -0.00000000000E+00 -0.00000000000E+00 -0.50000000000E+03  0.50000000000E+03  0.00000000000E+00 0. -1.
         25    2    1    2    0    0 -0.39748097739E+03 -0.17047115622E+03 -0.22570200155E+03  0.50360530751E+03  0.12500147901E+03 0.  0.
         23    2    1    2    0    0  0.39748097739E+03  0.17047115622E+03  0.22570200155E+03  0.49639469249E+03  0.91731972266E+02 0.  0.
        -11    1    4    4    0    0  0.21998998392E+03  0.78184404554E+02  0.72651465227E+02  0.24451304575E+03  0.00000000000E+00 0. -1.
         11    1    4    4    0    0  0.17749099347E+03  0.92286751669E+02  0.15305053632E+03  0.25188164674E+03  0.00000000000E+00 0.  1.
        -15    1    3    3    0    0 -0.30949954868E+02 -0.59714098019E+02 -0.32477306023E+02  0.74710148869E+02  0.17770000000E+01 0. -1.
         15    1    3    3    0    0 -0.36653102253E+03 -0.11075705820E+03 -0.19322469553E+03  0.42889515864E+03  0.17770000000E+01 0. -1.
</event>
<event>
 8    1  0.2370702E-007  0.5038130E+03  0.7546771E-02  0.9391318E-01
        -11   -1    0    0    0    0  0.00000000000E+00  0.00000000000E+00  0.50000000000E+03  0.50000000000E+03  0.00000000000E+00 0.  1.
         11   -1    0    0    0    0 -0.00000000000E+00 -0.00000000000E+00 -0.50000000000E+03  0.50000000000E+03  0.00000000000E+00 0. -1.
         25    2    1    2    0    0  0.27308014066E+03 -0.39228026852E+03 -0.98722236570E+02  0.50381296112E+03  0.12499939001E+03 0.  0.
         23    2    1    2    0    0 -0.27308014066E+03  0.39228026852E+03  0.98722236570E+02  0.49618703888E+03  0.89436710984E+02 0.  0.
        -11    1    4    4    0    0 -0.20211649634E+03  0.26529509583E+03  0.10761328347E+03  0.35044712118E+03  0.00000000000E+00 0.  1.
         11    1    4    4    0    0 -0.70963644319E+02  0.12698517269E+03 -0.88910468965E+01  0.14573991770E+03  0.00000000000E+00 0. -1.
        -15    1    3    3    0    0  0.24554230769E+03 -0.30628417183E+03 -0.12100895012E+03  0.41078868353E+03  0.17770000000E+01 0.  1.
         15    1    3    3    0    0  0.27537832975E+02 -0.85996096689E+02  0.22286713552E+02  0.93024277588E+02  0.17770000000E+01 0.  1.
</event>
<event>
 8    1  0.2370702E-007  0.5038067E+03  0.7546771E-02  0.9391332E-01
        -11   -1    0    0    0    0  0.00000000000E+00  0.00000000000E+00  0.50000000000E+03  0.50000000000E+03  0.00000000000E+00 0. -1.
         11   -1    0    0    0    0 -0.00000000000E+00 -0.00000000000E+00 -0.50000000000E+03  0.50000000000E+03  0.00000000000E+00 0.  1.
         25    2    1    2    0    0  0.67315937040E+02  0.48043726755E+03 -0.53329490992E+02  0.50380665273E+03  0.12500282113E+03 0.  0.
         23    2    1    2    0    0 -0.67315937040E+02 -0.48043726755E+03  0.53329490992E+02  0.49619334727E+03  0.89512009460E+02 0.  0.
        -11    1    4    4    0    0 -0.44921422405E+02 -0.36411109681E+03  0.14638217956E+01  0.36687459408E+03  0.00000000000E+00 0.  1.
         11    1    4    4    0    0 -0.22394514635E+02 -0.11632617075E+03  0.51865669197E+02  0.12931875319E+03  0.00000000000E+00 0. -1.
        -15    1    3    3    0    0 -0.12459347266E+02  0.32400887876E+03 -0.18496702091E+02  0.32478034819E+03  0.17770000000E+01 0.  1.
         15    1    3    3    0    0  0.79775284306E+02  0.15642838879E+03 -0.34832788902E+02  0.17902630454E+03  0.17770000000E+01 0.  1.
</event>
<event>
 8    1  0.2370702E-007  0.5033376E+03  0.7546771E-02  0.9392372E-01
        -11   -1    0    0    0    0  0.00000000000E+00  0.00000000000E+00  0.50000000000E+03  0.50000000000E+03  0.00000000000E+00 0. -1.
         11   -1    0    0    0    0 -0.00000000000E+00 -0.00000000000E+00 -0.50000000000E+03  0.50000000000E+03  0.00000000000E+00 0.  1.
         25    2    1    2    0    0  0.49906875775E+02  0.45293078738E+03 -0.17345402541E+03  0.50333761289E+03  0.12500183682E+03 0.  0.
         23    2    1    2    0    0 -0.49906875775E+02 -0.45293078738E+03  0.17345402541E+03  0.49666238711E+03  0.94605673370E+02 0.  0.
        -11    1    4    4    0    0 -0.42370027071E+02 -0.37413197943E+03  0.10217343924E+03  0.39014019136E+03  0.00000000000E+00 0.  1.
         11    1    4    4    0    0 -0.75368487041E+01 -0.78798807945E+02  0.71280586177E+02  0.10652219575E+03  0.00000000000E+00 0. -1.
        -15    1    3    3    0    0  0.56560175235E+02  0.14909889794E+03 -0.10758156330E+03  0.19237069756E+03  0.17770000000E+01 0.  1.
         15    1    3    3    0    0 -0.66532994601E+01  0.30383188944E+03 -0.65872462119E+02  0.31096691533E+03  0.17770000000E+01 0.  1.
</event>
<event>
 8    1  0.2370702E-007  0.5037844E+03  0.7546771E-02  0.9391381E-01
        -11   -1    0    0    0    0  0.00000000000E+00  0.00000000000E+00  0.50000000000E+03  0.50000000000E+03  0.00000000000E+00 0.  1.
         11   -1    0    0    0    0 -0.00000000000E+00 -0.00000000000E+00 -0.50000000000E+03  0.50000000000E+03  0.00000000000E+00 0. -1.
         25    2    1    2    0    0  0.16130833181E+03  0.44695627664E+03 -0.11127825405E+03  0.50378437703E+03  0.12500223027E+03 0.  0.
         23    2    1    2    0    0 -0.16130833181E+03 -0.44695627664E+03  0.11127825405E+03  0.49621562297E+03  0.89759698718E+02 0.  0.
        -11    1    4    4    0    0 -0.16692057391E+03 -0.37423005169E+03  0.83674867287E+02  0.41822493111E+03  0.00000000000E+00 0. -1.
         11    1    4    4    0    0  0.56122420941E+01 -0.72726224947E+02  0.27603386763E+02  0.77990691862E+02  0.00000000000E+00 0.  1.
        -15    1    3    3    0    0  0.74329303956E+02  0.17093063001E+03  0.17088621301E+02  0.18718254302E+03  0.17770000000E+01 0. -1.
         15    1    3    3    0    0  0.86979027859E+02  0.27602564663E+03 -0.12836687535E+03  0.31660183401E+03  0.17770000000E+01 0. -1.
</event>
<event>
 8    1  0.2370702E-007  0.5035079E+03  0.7546771E-02  0.9391994E-01
        -11   -1    0    0    0    0  0.00000000000E+00  0.00000000000E+00  0.50000000000E+03  0.50000000000E+03  0.00000000000E+00 0.  1.
         11   -1    0    0    0    0 -0.00000000000E+00 -0.00000000000E+00 -0.50000000000E+03  0.50000000000E+03  0.00000000000E+00 0. -1.
         25    2    1    2    0    0  0.37032080788E+03  0.17275472064E+03  0.26629650390E+03  0.50350792894E+03  0.12499884902E+03 0.  0.
         23    2    1    2    0    0 -0.37032080788E+03 -0.17275472064E+03 -0.26629650390E+03  0.49649207106E+03  0.92783912310E+02 0.  0.
        -11    1    4    4    0    0 -0.24781636938E+03 -0.13829154326E+03 -0.22667610103E+03  0.36320732185E+03  0.00000000000E+00 0. -1.
         11    1    4    4    0    0 -0.12250443850E+03 -0.34463177379E+02 -0.39620402874E+02  0.13328474921E+03  0.00000000000E+00 0.  1.
        -15    1    3    3    0    0  0.77484119715E+02 -0.20872055610E+01  0.92556316688E+02  0.12073928409E+03  0.17770000000E+01 0.  1.
         15    1    3    3    0    0  0.29283668817E+03  0.17484192620E+03  0.17374018721E+03  0.38276864485E+03  0.17770000000E+01 0.  1.
</event>
<event>
 8    1  0.2370702E-007  0.5036048E+03  0.7546771E-02  0.9391780E-01
        -11   -1    0    0    0    0  0.00000000000E+00  0.00000000000E+00  0.50000000000E+03  0.50000000000E+03  0.00000000000E+00 0. -1.
         11   -1    0    0    0    0 -0.00000000000E+00 -0.00000000000E+00 -0.50000000000E+03  0.50000000000E+03  0.00000000000E+00 0.  1.
         25    2    1    2    0    0 -0.80434068208E+02  0.43337946964E+03  0.20906329557E+03  0.50360480191E+03  0.12499172338E+03 0.  0.
         23    2    1    2    0    0  0.80434068208E+02 -0.43337946964E+03 -0.20906329557E+03  0.49639519809E+03  0.91724190387E+02 0.  0.
        -11    1    4    4    0    0  0.40897407907E+02 -0.24516392230E+03 -0.16723602675E+03  0.29957609286E+03  0.00000000000E+00 0.  1.
         11    1    4    4    0    0  0.39536660301E+02 -0.18821554733E+03 -0.41827268824E+02  0.19681910523E+03  0.00000000000E+00 0. -1.
        -15    1    3    3    0    0 -0.66456871467E+02  0.42127212978E+03  0.16771940790E+03  0.45827904230E+03  0.17770000000E+01 0.  1.
         15    1    3    3    0    0 -0.13977196741E+02  0.12107339860E+02  0.41343887671E+02  0.45325759608E+02  0.17770000000E+01 0.  1.
</event>
<event>
 8    1  0.2370702E-007  0.5037881E+03  0.7546771E-02  0.9391373E-01
        -11   -1    0    0    0    0  0.00000000000E+00  0.00000000000E+00  0.50000000000E+03  0.50000000000E+03  0.00000000000E+00 0.  1.
         11   -1    0    0    0    0 -0.00000000000E+00 -0.00000000000E+00 -0.50000000000E+03  0.50000000000E+03  0.00000000000E+00 0. -1.
         25    2    1    2    0    0  0.22317229782E+03 -0.35954770030E+03  0.24310001230E+03  0.50378811234E+03  0.12499769137E+03 0.  0.
         23    2    1    2    0    0 -0.22317229782E+03  0.35954770030E+03 -0.24310001230E+03  0.49621188766E+03  0.89711750403E+02 0.  0.
        -11    1    4    4    0    0 -0.19552748390E+03  0.32324922567E+03 -0.24546035297E+03  0.45052396578E+03  0.00000000000E+00 0. -1.
         11    1    4    4    0    0 -0.27644813921E+02  0.36298474637E+02  0.23603406726E+01  0.45687921881E+02  0.00000000000E+00 0.  1.
        -15    1    3    3    0    0  0.17716336716E+03 -0.26870052441E+03  0.24071289117E+03  0.40191128895E+03  0.17770000000E+01 0. -1.
         15    1    3    3    0    0  0.46008930667E+02 -0.90847175894E+02  0.23871211344E+01  0.10187682340E+03  0.17770000000E+01 0. -1.
</event>
<event>
 8    1  0.2370702E-007  0.5037488E+03  0.7546771E-02  0.9391460E-01
        -11   -1    0    0    0    0  0.00000000000E+00  0.00000000000E+00  0.50000000000E+03  0.50000000000E+03  0.00000000000E+00 0. -1.
         11   -1    0    0    0    0 -0.00000000000E+00 -0.00000000000E+00 -0.50000000000E+03  0.50000000000E+03  0.00000000000E+00 0.  1.
         25    2    1    2    0    0  0.39287822562E+03  0.21793904241E+03 -0.19048352857E+03  0.50374875888E+03  0.12501244355E+03 0.  0.
         23    2    1    2    0    0 -0.39287822562E+03 -0.21793904241E+03  0.19048352857E+03  0.49625124112E+03  0.90169802527E+02 0.  0.
        -11    1    4    4    0    0 -0.32420076244E+03 -0.15372693039E+03  0.18066807472E+03  0.40172012237E+03  0.00000000000E+00 0. -1.
         11    1    4    4    0    0 -0.68677463183E+02 -0.64212112015E+02  0.98154538495E+01  0.94531118755E+02  0.00000000000E+00 0.  1.
        -15    1    3    3    0    0  0.46316020304E+02 -0.14779774813E+02 -0.14971635426E+02  0.50901110761E+02  0.17770000000E+01 0.  1.
         15    1    3    3    0    0  0.34656220531E+03  0.23271881722E+03 -0.17551189314E+03  0.45284764812E+03  0.17770000000E+01 0.  1.
</event>
<event>
 8    1  0.2370702E-007  0.5031895E+03  0.7546771E-02  0.9392701E-01
        -11   -1    0    0    0    0  0.00000000000E+00  0.00000000000E+00  0.50000000000E+03  0.50000000000E+03  0.00000000000E+00 0. -1.
         11   -1    0    0    0    0 -0.00000000000E+00 -0.00000000000E+00 -0.50000000000E+03  0.50000000000E+03  0.00000000000E+00 0.  1.
         25    2    1    2    0    0 -0.28083744765E+03  0.22070228158E+03 -0.33165826334E+03  0.50318945744E+03  0.12499302919E+03 0.  0.
         23    2    1    2    0    0  0.28083744765E+03 -0.22070228158E+03  0.33165826334E+03  0.49681054256E+03  0.96147503649E+02 0.  0.
        -11    1    4    4    0    0  0.26659539979E+03 -0.19872349253E+03  0.26500369147E+03  0.42519535529E+03  0.00000000000E+00 0.  1.
         11    1    4    4    0    0  0.14242047858E+02 -0.21978789055E+02  0.66654571871E+02  0.71615187264E+02  0.00000000000E+00 0. -1.
        -15    1    3    3    0    0 -0.29049228756E+03  0.20988389120E+03 -0.29657008046E+03  0.46518167126E+03  0.17770000000E+01 0.  1.
         15    1    3    3    0    0  0.96548399159E+01  0.10818390376E+02 -0.35088182880E+02  0.38007786189E+02  0.17770000000E+01 0.  1.
</event>
<event>
 8    1  0.2370702E-007  0.5033699E+03  0.7546771E-02  0.9392301E-01
        -11   -1    0    0    0    0  0.00000000000E+00  0.00000000000E+00  0.50000000000E+03  0.50000000000E+03  0.00000000000E+00 0.  1.
         11   -1    0    0    0    0 -0.00000000000E+00 -0.00000000000E+00 -0.50000000000E+03  0.50000000000E+03  0.00000000000E+00 0. -1.
         25    2    1    2    0    0  0.68630358749E+02 -0.42448123204E+03 -0.22992041152E+03  0.50336993337E+03  0.12499380662E+03 0.  0.
         23    2    1    2    0    0 -0.68630358749E+02  0.42448123204E+03  0.22992041152E+03  0.49663006663E+03  0.94252771601E+02 0.  0.
        -11    1    4    4    0    0 -0.12353994046E+02  0.26118810239E+03  0.17785585839E+03  0.31623496385E+03  0.00000000000E+00 0.  1.
         11    1    4    4    0    0 -0.56276364703E+02  0.16329312965E+03  0.52064553133E+02  0.18039510278E+03  0.00000000000E+00 0. -1.
        -15    1    3    3    0    0  0.86198938907E+02 -0.24547370826E+03 -0.18106027313E+03  0.31697567533E+03  0.17770000000E+01 0.  1.
         15    1    3    3    0    0 -0.17568580157E+02 -0.17900752378E+03 -0.48860138391E+02  0.18639425804E+03  0.17770000000E+01 0.  1.
</event>
<event>
 8    1  0.2370702E-007  0.5032964E+03  0.7546771E-02  0.9392464E-01
        -11   -1    0    0    0    0  0.00000000000E+00  0.00000000000E+00  0.50000000000E+03  0.50000000000E+03  0.00000000000E+00 0. -1.
         11   -1    0    0    0    0 -0.00000000000E+00 -0.00000000000E+00 -0.50000000000E+03  0.50000000000E+03  0.00000000000E+00 0.  1.
         25    2    1    2    0    0 -0.45204754943E+03 -0.71818311100E+00  0.18257541610E+03  0.50329635917E+03  0.12500375939E+03 0.  0.
         23    2    1    2    0    0  0.45204754943E+03  0.71818311100E+00 -0.18257541610E+03  0.49670364083E+03  0.95043261294E+02 0.  0.
        -11    1    4    4    0    0  0.30175021858E+02 -0.24589943126E+02 -0.21091582004E+02  0.44272475405E+02  0.00000000000E+00 0.  1.
         11    1    4    4    0    0  0.42187252757E+03  0.25308126237E+02 -0.16148383410E+03  0.45243116542E+03  0.00000000000E+00 0. -1.
        -15    1    3    3    0    0 -0.22590482689E+03  0.41810954378E+02  0.41750273842E+02  0.23351100576E+03  0.17770000000E+01 0.  1.
         15    1    3    3    0    0 -0.22614272254E+03 -0.42529137489E+02  0.14082514226E+03  0.26978535341E+03  0.17770000000E+01 0.  1.
</event>
<event>
 8    1  0.2370702E-007  0.5025413E+03  0.7546771E-02  0.9394141E-01
        -11   -1    0    0    0    0  0.00000000000E+00  0.00000000000E+00  0.50000000000E+03  0.50000000000E+03  0.00000000000E+00 0.  1.
         11   -1    0    0    0    0 -0.00000000000E+00 -0.00000000000E+00 -0.50000000000E+03  0.50000000000E+03  0.00000000000E+00 0. -1.
         25    2    1    2    0    0  0.48161136972E+03 -0.67188812568E+02  0.21438512685E+02  0.50254131018E+03  0.12499724251E+03 0.  0.
         23    2    1    2    0    0 -0.48161136972E+03  0.67188812568E+02 -0.21438512685E+02  0.49745868982E+03  0.10267273383E+03 0.  0.
        -11    1    4    4    0    0 -0.14902722880E+03  0.60614536587E+02 -0.34552248646E+02  0.16455119220E+03  0.00000000000E+00 0.  1.
         11    1    4    4    0    0 -0.33258414092E+03  0.65742759808E+01  0.13113735961E+02  0.33290749762E+03  0.00000000000E+00 0. -1.
        -15    1    3    3    0    0  0.15885706883E+03 -0.69676580732E+02 -0.28915716762E+02  0.17586833321E+03  0.17770000000E+01 0. -1.
         15    1    3    3    0    0  0.32275430089E+03  0.24877681642E+01  0.50354229446E+02  0.32667297697E+03  0.17770000000E+01 0. -1.
</event>
<event>
 8    1  0.2370702E-007  0.5034590E+03  0.7546771E-02  0.9392103E-01
        -11   -1    0    0    0    0  0.00000000000E+00  0.00000000000E+00  0.50000000000E+03  0.50000000000E+03  0.00000000000E+00 0.  1.
         11   -1    0    0    0    0 -0.00000000000E+00 -0.00000000000E+00 -0.50000000000E+03  0.50000000000E+03  0.00000000000E+00 0. -1.
         25    2    1    2    0    0 -0.47217056284E+02  0.43967736913E+03 -0.20567041391E+03  0.50345895945E+03  0.12499986147E+03 0.  0.
         23    2    1    2    0    0  0.47217056284E+02 -0.43967736913E+03  0.20567041391E+03  0.49654104055E+03  0.93311555900E+02 0.  0.
        -11    1    4    4    0    0  0.29561561524E+02 -0.37604913283E+03  0.20743805017E+03  0.43048505302E+03  0.00000000000E+00 0. -1.
         11    1    4    4    0    0  0.17655494759E+02 -0.63628236301E+02 -0.17676362584E+01  0.66055987525E+02  0.00000000000E+00 0.  1.
        -15    1    3    3    0    0  0.15107869060E+01  0.25619842080E+03 -0.57368436815E+02  0.26255324902E+03  0.17770000000E+01 0. -1.
         15    1    3    3    0    0 -0.48727843190E+02  0.18347894833E+03 -0.14830197709E+03  0.24090571043E+03  0.17770000000E+01 0. -1.
</event>
<event>
 8    1  0.2370702E-007  0.5035696E+03  0.7546771E-02  0.9391858E-01
        -11   -1    0    0    0    0  0.00000000000E+00  0.00000000000E+00  0.50000000000E+03  0.50000000000E+03  0.00000000000E+00 0.  1.
         11   -1    0    0    0    0 -0.00000000000E+00 -0.00000000000E+00 -0.50000000000E+03  0.50000000000E+03  0.00000000000E+00 0. -1.
         25    2    1    2    0    0 -0.39598496277E+03 -0.15174185038E+03  0.24109565963E+03  0.50356962732E+03  0.12500229024E+03 0.  0.
         23    2    1    2    0    0  0.39598496277E+03  0.15174185038E+03 -0.24109565963E+03  0.49643037268E+03  0.92121213262E+02 0.  0.
        -11    1    4    4    0    0  0.17218627467E+03  0.26960164023E+02 -0.12857061519E+03  0.21657646853E+03  0.00000000000E+00 0.  1.
         11    1    4    4    0    0  0.22379868810E+03  0.12478168636E+03 -0.11252504444E+03  0.27985390415E+03  0.00000000000E+00 0. -1.
        -15    1    3    3    0    0 -0.35859261586E+03 -0.16809195562E+03  0.19329533038E+03  0.44069242354E+03  0.17770000000E+01 0. -1.
         15    1    3    3    0    0 -0.37392346911E+02  0.16350105238E+02  0.47800329253E+02  0.62877203775E+02  0.17770000000E+01 0. -1.
</event>
<event>
 8    1  0.2370702E-007  0.5037101E+03  0.7546771E-02  0.9391546E-01
        -11   -1    0    0    0    0  0.00000000000E+00  0.00000000000E+00  0.50000000000E+03  0.50000000000E+03  0.00000000000E+00 0. -1.
         11   -1    0    0    0    0 -0.00000000000E+00 -0.00000000000E+00 -0.50000000000E+03  0.50000000000E+03  0.00000000000E+00 0.  1.
         25    2    1    2    0    0 -0.17330765525E+03  0.45288127960E+03  0.54362451861E+02  0.50371014507E+03  0.12502654636E+03 0.  0.
         23    2    1    2    0    0  0.17330765525E+03 -0.45288127960E+03 -0.54362451861E+02  0.49628985493E+03  0.90616483861E+02 0.  0.
        -11    1    4    4    0    0  0.17057355332E+03 -0.34001459164E+03 -0.42551256607E+02  0.38277391377E+03  0.00000000000E+00 0. -1.
         11    1    4    4    0    0  0.27341019375E+01 -0.11286668796E+03 -0.11811195254E+02  0.11351594116E+03  0.00000000000E+00 0.  1.
        -15    1    3    3    0    0 -0.50289441141E+02  0.18273182345E+03  0.80070692944E+02  0.20575330080E+03  0.17770000000E+01 0.  1.
         15    1    3    3    0    0 -0.12301821411E+03  0.27014945615E+03 -0.25708241083E+02  0.29795684428E+03  0.17770000000E+01 0.  1.
</event>
<event>
 8    1  0.2370702E-007  0.5029176E+03  0.7546771E-02  0.9393305E-01
        -11   -1    0    0    0    0  0.00000000000E+00  0.00000000000E+00  0.50000000000E+03  0.50000000000E+03  0.00000000000E+00 0.  1.
         11   -1    0    0    0    0 -0.00000000000E+00 -0.00000000000E+00 -0.50000000000E+03  0.50000000000E+03  0.00000000000E+00 0. -1.
         25    2    1    2    0    0  0.45472297979E+03 -0.14726026847E+03 -0.94036077826E+02  0.50291757705E+03  0.12499892142E+03 0.  0.
         23    2    1    2    0    0 -0.45472297979E+03  0.14726026847E+03  0.94036077826E+02  0.49708242295E+03  0.98942287481E+02 0.  0.
        -11    1    4    4    0    0 -0.29534488768E+03  0.51514109710E+02  0.81753228365E+02  0.31075053745E+03  0.00000000000E+00 0. -1.
         11    1    4    4    0    0 -0.15937809211E+03  0.95746158761E+02  0.12282849462E+02  0.18633188550E+03  0.00000000000E+00 0.  1.
        -15    1    3    3    0    0  0.15475336860E+03  0.38856456388E+01 -0.27670934062E+01  0.15483706878E+03  0.17770000000E+01 0. -1.
         15    1    3    3    0    0  0.29996961119E+03 -0.15114591411E+03 -0.91268984420E+02  0.34808050827E+03  0.17770000000E+01 0. -1.
</event>
<event>
 8    1  0.2370702E-007  0.5036075E+03  0.7546771E-02  0.9391774E-01
        -11   -1    0    0    0    0  0.00000000000E+00  0.00000000000E+00  0.50000000000E+03  0.50000000000E+03  0.00000000000E+00 0.  1.
         11   -1    0    0    0    0 -0.00000000000E+00 -0.00000000000E+00 -0.50000000000E+03  0.50000000000E+03  0.00000000000E+00 0. -1.
         25    2    1    2    0    0  0.85031253282E+02  0.45286422691E+03  0.16024441953E+03  0.50360748331E+03  0.12500360478E+03 0.  0.
         23    2    1    2    0    0 -0.85031253282E+02 -0.45286422691E+03 -0.16024441953E+03  0.49639251669E+03  0.91711147564E+02 0.  0.
        -11    1    4    4    0    0  0.11297067702E+02 -0.15706446088E+03 -0.71137190509E+02  0.17279284848E+03  0.00000000000E+00 0.  1.
         11    1    4    4    0    0 -0.96328320984E+02 -0.29579976602E+03 -0.89107229025E+02  0.32359966821E+03  0.00000000000E+00 0. -1.
        -15    1    3    3    0    0  0.11057240718E+03  0.42534786654E+03  0.14224831339E+03  0.46193593192E+03  0.17770000000E+01 0.  1.
         15    1    3    3    0    0 -0.25541153903E+02  0.27516360363E+02  0.17996106141E+02  0.41671551394E+02  0.17770000000E+01 0.  1.
</event>
<event>
 8    1  0.2370702E-007  0.5037083E+03  0.7546771E-02  0.9391550E-01
        -11   -1    0    0    0    0  0.00000000000E+00  0.00000000000E+00  0.50000000000E+03  0.50000000000E+03  0.00000000000E+00 0. -1.
         11   -1    0    0    0    0 -0.00000000000E+00 -0.00000000000E+00 -0.50000000000E+03  0.50000000000E+03  0.00000000000E+00 0.  1.
         25    2    1    2    0    0  0.33701961866E+03 -0.87231004667E+02  0.34191297307E+03  0.50370828609E+03  0.12500433907E+03 0.  0.
         23    2    1    2    0    0 -0.33701961866E+03  0.87231004667E+02 -0.34191297307E+03  0.49629171391E+03  0.90606360747E+02 0.  0.
        -11    1    4    4    0    0 -0.25416611914E+03  0.91842518651E+02 -0.21828226377E+03  0.34739402849E+03  0.00000000000E+00 0. -1.
         11    1    4    4    0    0 -0.82853499521E+02 -0.46115139843E+01 -0.12363070929E+03  0.14889768542E+03  0.00000000000E+00 0.  1.
        -15    1    3    3    0    0  0.33046252850E+03 -0.57104070573E+02  0.33031131905E+03  0.47071762538E+03  0.17770000000E+01 0. -1.
         15    1    3    3    0    0  0.65570901597E+01 -0.30126934094E+02  0.11601654016E+02  0.32990660712E+02  0.17770000000E+01 0. -1.
</event>
<event>
 8    1  0.2370702E-007  0.5033861E+03  0.7546771E-02  0.9392265E-01
        -11   -1    0    0    0    0  0.00000000000E+00  0.00000000000E+00  0.50000000000E+03  0.50000000000E+03  0.00000000000E+00 0.  1.
         11   -1    0    0    0    0 -0.00000000000E+00 -0.00000000000E+00 -0.50000000000E+03  0.50000000000E+03  0.00000000000E+00 0. -1.
         25    2    1    2    0    0 -0.43438188002E+03  0.17439458574E+03  0.13664252352E+03  0.50338606450E+03  0.12500104592E+03 0.  0.
         23    2    1    2    0    0  0.43438188002E+03 -0.17439458574E+03 -0.13664252352E+03  0.49661393550E+03  0.94091086067E+02 0.  0.
        -11    1    4    4    0    0  0.28622735716E+03 -0.14787656784E+03 -0.59982161158E+02  0.32770633036E+03  0.00000000000E+00 0.  1.
         11    1    4    4    0    0  0.14815452286E+03 -0.26518017902E+02 -0.76660362359E+02  0.16890760514E+03  0.00000000000E+00 0. -1.
        -15    1    3    3    0    0 -0.32095235929E+03  0.18083922913E+03  0.12562201979E+03  0.38922653212E+03  0.17770000000E+01 0. -1.
         15    1    3    3    0    0 -0.11342952073E+03 -0.64446433924E+01  0.11020503729E+02  0.11415953238E+03  0.17770000000E+01 0. -1.
</event>
<event>
 8    1  0.2370702E-007  0.5036547E+03  0.7546771E-02  0.9391669E-01
        -11   -1    0    0    0    0  0.00000000000E+00  0.00000000000E+00  0.50000000000E+03  0.50000000000E+03  0.00000000000E+00 0.  1.
         11   -1    0    0    0    0 -0.00000000000E+00 -0.00000000000E+00 -0.50000000000E+03  0.50000000000E+03  0.00000000000E+00 0. -1.
         25    2    1    2    0    0  0.47997863544E+03 -0.29415910259E+02 -0.82439764899E+02  0.50365473153E+03  0.12500794975E+03 0.  0.
         23    2    1    2    0    0 -0.47997863544E+03  0.29415910259E+02  0.82439764899E+02  0.49634526847E+03  0.91200462946E+02 0.  0.
        -11    1    4    4    0    0 -0.30920810260E+02  0.25904188551E+02  0.50152623209E+01  0.40648202270E+02  0.00000000000E+00 0.  1.
         11    1    4    4    0    0 -0.44905782518E+03  0.35117217077E+01  0.77424502578E+02  0.45569706620E+03  0.00000000000E+00 0. -1.
        -15    1    3    3    0    0  0.32383782545E+03 -0.43471039955E+02 -0.10939181369E+03  0.34457277191E+03  0.17770000000E+01 0. -1.
         15    1    3    3    0    0  0.15614080999E+03  0.14055129697E+02  0.26952048791E+02  0.15908195962E+03  0.17770000000E+01 0. -1.
</event>
<event>
 8    1  0.2370702E-007  0.5035632E+03  0.7546771E-02  0.9391872E-01
        -11   -1    0    0    0    0  0.00000000000E+00  0.00000000000E+00  0.50000000000E+03  0.50000000000E+03  0.00000000000E+00 0. -1.
         11   -1    0    0    0    0 -0.00000000000E+00 -0.00000000000E+00 -0.50000000000E+03  0.50000000000E+03  0.00000000000E+00 0.  1.
         25    2    1    2    0    0  0.40713734697E+03 -0.11150488127E+03 -0.24444844233E+03  0.50356315112E+03  0.12500659330E+03 0.  0.
         23    2    1    2    0    0 -0.40713734697E+03  0.11150488127E+03  0.24444844233E+03  0.49643684888E+03  0.92197321665E+02 0.  0.
        -11    1    4    4    0    0 -0.11989540994E+03  0.52469151746E+02  0.12109498343E+03  0.17830287777E+03  0.00000000000E+00 0.  1.
         11    1    4    4    0    0 -0.28724193703E+03  0.59035729525E+02  0.12335345889E+03  0.31813397110E+03  0.00000000000E+00 0. -1.
        -15    1    3    3    0    0  0.61507550797E+02  0.73275481113E+01  0.32358048945E+01  0.62052396640E+02  0.17770000000E+01 0. -1.
         15    1    3    3    0    0  0.34562979617E+03 -0.11883242938E+03 -0.24768424722E+03  0.44151075448E+03  0.17770000000E+01 0. -1.
</event>
<event>
 8    1  0.2370702E-007  0.5036556E+03  0.7546771E-02  0.9391667E-01
        -11   -1    0    0    0    0  0.00000000000E+00  0.00000000000E+00  0.50000000000E+03  0.50000000000E+03  0.00000000000E+00 0. -1.
         11   -1    0    0    0    0 -0.00000000000E+00 -0.00000000000E+00 -0.50000000000E+03  0.50000000000E+03  0.00000000000E+00 0.  1.
         25    2    1    2    0    0 -0.10522621245E+03 -0.26475758836E+03  0.39608113603E+03  0.50365562398E+03  0.12497833762E+03 0.  0.
         23    2    1    2    0    0  0.10522621245E+03  0.26475758836E+03 -0.39608113603E+03  0.49634437602E+03  0.91150079044E+02 0.  0.
        -11    1    4    4    0    0  0.57980319625E+02  0.74986376785E+02 -0.77092386574E+02  0.12217982745E+03  0.00000000000E+00 0. -1.
         11    1    4    4    0    0  0.47245892820E+02  0.18977121157E+03 -0.31898874945E+03  0.37416454857E+03  0.00000000000E+00 0.  1.
        -15    1    3    3    0    0 -0.11135586823E+03 -0.18530806963E+03  0.35055945171E+03  0.41186684374E+03  0.17770000000E+01 0.  1.
         15    1    3    3    0    0  0.61296557825E+01 -0.79449518732E+02  0.45521684316E+02  0.91788780244E+02  0.17770000000E+01 0.  1.
</event>
<event>
 8    1  0.2370702E-007  0.5036530E+03  0.7546771E-02  0.9391673E-01
        -11   -1    0    0    0    0  0.00000000000E+00  0.00000000000E+00  0.50000000000E+03  0.50000000000E+03  0.00000000000E+00 0.  1.
         11   -1    0    0    0    0 -0.00000000000E+00 -0.00000000000E+00 -0.50000000000E+03  0.50000000000E+03  0.00000000000E+00 0. -1.
         25    2    1    2    0    0  0.18512995701E+03  0.10970841921E+03  0.43787266259E+03  0.50365296659E+03  0.12499921552E+03 0.  0.
         23    2    1    2    0    0 -0.18512995701E+03 -0.10970841921E+03 -0.43787266259E+03  0.49634703341E+03  0.91207843451E+02 0.  0.
        -11    1    4    4    0    0 -0.14428335588E+03 -0.79750973714E+02 -0.23377323756E+03  0.28605564352E+03  0.00000000000E+00 0.  1.
         11    1    4    4    0    0 -0.40846601128E+02 -0.29957445496E+02 -0.20409942503E+03  0.21029138989E+03  0.00000000000E+00 0. -1.
        -15    1    3    3    0    0  0.12830241180E+03  0.92174542660E+02  0.18224692851E+03  0.24119443581E+03  0.17770000000E+01 0.  1.
         15    1    3    3    0    0  0.56827545206E+02  0.17533876549E+02  0.25562573408E+03  0.26245853077E+03  0.17770000000E+01 0.  1.
</event>
<event>
 8    1  0.2370702E-007  0.5035666E+03  0.7546771E-02  0.9391864E-01
        -11   -1    0    0    0    0  0.00000000000E+00  0.00000000000E+00  0.50000000000E+03  0.50000000000E+03  0.00000000000E+00 0. -1.
         11   -1    0    0    0    0 -0.00000000000E+00 -0.00000000000E+00 -0.50000000000E+03  0.50000000000E+03  0.00000000000E+00 0.  1.
         25    2    1    2    0    0 -0.24024255323E+03 -0.34948373591E+03  0.24103664760E+03  0.50356656317E+03  0.12500100802E+03 0.  0.
         23    2    1    2    0    0  0.24024255323E+03  0.34948373591E+03 -0.24103664760E+03  0.49643343683E+03  0.92152730125E+02 0.  0.
        -11    1    4    4    0    0  0.12745183698E+03  0.26146121057E+03 -0.16498483222E+03  0.33440384305E+03  0.00000000000E+00 0.  1.
         11    1    4    4    0    0  0.11279071624E+03  0.88022525339E+02 -0.76051815382E+02  0.16202959378E+03  0.00000000000E+00 0. -1.
        -15    1    3    3    0    0 -0.26473194881E+02 -0.98408815451E+02  0.13239937687E+02  0.10277927167E+03  0.17770000000E+01 0. -1.
         15    1    3    3    0    0 -0.21376935834E+03 -0.25107492046E+03  0.22779670991E+03  0.40078729150E+03  0.17770000000E+01 0. -1.
</event>
<event>
 8    1  0.2370702E-007  0.5036834E+03  0.7546771E-02  0.9391605E-01
        -11   -1    0    0    0    0  0.00000000000E+00  0.00000000000E+00  0.50000000000E+03  0.50000000000E+03  0.00000000000E+00 0.  1.
         11   -1    0    0    0    0 -0.00000000000E+00 -0.00000000000E+00 -0.50000000000E+03  0.50000000000E+03  0.00000000000E+00 0. -1.
         25    2    1    2    0    0  0.44926344530E+03 -0.18314829160E+03  0.51857555355E+02  0.50368343296E+03  0.12500741814E+03 0.  0.
         23    2    1    2    0    0 -0.44926344530E+03  0.18314829160E+03 -0.51857555355E+02  0.49631656704E+03  0.90884479771E+02 0.  0.
        -11    1    4    4    0    0 -0.11779758983E+03  0.26245899692E+02  0.20791354000E+02  0.12246387150E+03  0.00000000000E+00 0.  1.
         11    1    4    4    0    0 -0.33146585547E+03  0.15690239191E+03 -0.72648909354E+02  0.37385269554E+03  0.00000000000E+00 0. -1.
        -15    1    3    3    0    0  0.22627282409E+02  0.76183560942E+01  0.26405992887E+02  0.35643617215E+02  0.17770000000E+01 0.  1.
         15    1    3    3    0    0  0.42663616290E+03 -0.19076664770E+03  0.25451562467E+02  0.46803981575E+03  0.17770000000E+01 0.  1.
</event>
<event>
 8    1  0.2370702E-007  0.5038405E+03  0.7546771E-02  0.9391257E-01
        -11   -1    0    0    0    0  0.00000000000E+00  0.00000000000E+00  0.50000000000E+03  0.50000000000E+03  0.00000000000E+00 0.  1.
         11   -1    0    0    0    0 -0.00000000000E+00 -0.00000000000E+00 -0.50000000000E+03  0.50000000000E+03  0.00000000000E+00 0. -1.
         25    2    1    2    0    0  0.27938691292E+03 -0.35366044025E+03 -0.18733188620E+03  0.50384053232E+03  0.12501716810E+03 0.  0.
         23    2    1    2    0    0 -0.27938691292E+03  0.35366044025E+03  0.18733188620E+03  0.49615946768E+03  0.89152833228E+02 0.  0.
        -11    1    4    4    0    0 -0.21914014185E+03  0.22881565496E+03  0.99620688643E+02  0.33211938717E+03  0.00000000000E+00 0.  1.
         11    1    4    4    0    0 -0.60246771065E+02  0.12484478529E+03  0.87711197554E+02  0.16404008051E+03  0.00000000000E+00 0. -1.
        -15    1    3    3    0    0  0.26214941345E+03 -0.26778891335E+03 -0.18055414699E+03  0.41597617096E+03  0.17770000000E+01 0.  1.
         15    1    3    3    0    0  0.17237499470E+02 -0.85871526897E+02 -0.67777392098E+01  0.87864361361E+02  0.17770000000E+01 0.  1.
</event>
<event>
 8    1  0.2370702E-007  0.5025377E+03  0.7546771E-02  0.9394149E-01
        -11   -1    0    0    0    0  0.00000000000E+00  0.00000000000E+00  0.50000000000E+03  0.50000000000E+03  0.00000000000E+00 0.  1.
         11   -1    0    0    0    0 -0.00000000000E+00 -0.00000000000E+00 -0.50000000000E+03  0.50000000000E+03  0.00000000000E+00 0. -1.
         25    2    1    2    0    0 -0.42999094353E+03 -0.11057629797E+03 -0.19949987344E+03  0.50253771438E+03  0.12499850271E+03 0.  0.
         23    2    1    2    0    0  0.42999094353E+03  0.11057629797E+03  0.19949987344E+03  0.49746228562E+03  0.10270928353E+03 0.  0.
        -11    1    4    4    0    0  0.13328177335E+03  0.33686431136E+02  0.11644126529E+02  0.13796518558E+03  0.00000000000E+00 0. -1.
         11    1    4    4    0    0  0.29670917018E+03  0.76889866837E+02  0.18785574691E+03  0.35949710004E+03  0.00000000000E+00 0.  1.
        -15    1    3    3    0    0  0.24189474692E+01  0.11690155710E+01 -0.21523603665E+02  0.21763298187E+02  0.17770000000E+01 0. -1.
         15    1    3    3    0    0 -0.43240989100E+03 -0.11174531354E+03 -0.17797626977E+03  0.48077441619E+03  0.17770000000E+01 0. -1.
</event>
<event>
 8    1  0.2370702E-007  0.5029433E+03  0.7546771E-02  0.9393248E-01
        -11   -1    0    0    0    0  0.00000000000E+00  0.00000000000E+00  0.50000000000E+03  0.50000000000E+03  0.00000000000E+00 0.  1.
         11   -1    0    0    0    0 -0.00000000000E+00 -0.00000000000E+00 -0.50000000000E+03  0.50000000000E+03  0.00000000000E+00 0. -1.
         25    2    1    2    0    0  0.35205722788E+03  0.20642151346E+03 -0.26604652655E+03  0.50294333727E+03  0.12496844921E+03 0.  0.
         23    2    1    2    0    0 -0.35205722788E+03 -0.20642151346E+03  0.26604652655E+03  0.49705666273E+03  0.98642986308E+02 0.  0.
        -11    1    4    4    0    0 -0.30417378675E+03 -0.21154633549E+03  0.22282180789E+03  0.43234604505E+03  0.00000000000E+00 0. -1.
         11    1    4    4    0    0 -0.47883441137E+02  0.51248220345E+01  0.43224718663E+02  0.64710617672E+02  0.00000000000E+00 0.  1.
        -15    1    3    3    0    0  0.48388359827E+02 -0.12964958886E+02 -0.16353791677E+02  0.52726916816E+02  0.17770000000E+01 0. -1.
         15    1    3    3    0    0  0.30366886806E+03  0.21938647234E+03 -0.24969273487E+03  0.45021642046E+03  0.17770000000E+01 0. -1.
</event>
<event>
 8    1  0.2370702E-007  0.5037054E+03  0.7546771E-02  0.9391556E-01
        -11   -1    0    0    0    0  0.00000000000E+00  0.00000000000E+00  0.50000000000E+03  0.50000000000E+03  0.00000000000E+00 0.  1.
         11   -1    0    0    0    0 -0.00000000000E+00 -0.00000000000E+00 -0.50000000000E+03  0.50000000000E+03  0.00000000000E+00 0. -1.
         25    2    1    2    0    0 -0.31243562398E+03 -0.17006071546E+02 -0.37441708311E+03  0.50370543315E+03  0.12500314260E+03 0.  0.
         23    2    1    2    0    0  0.31243562398E+03  0.17006071546E+02  0.37441708311E+03  0.49629456685E+03  0.90636192368E+02 0.  0.
        -11    1    4    4    0    0  0.21593364495E+03  0.34915703620E+02  0.30805576817E+03  0.37781583037E+03  0.00000000000E+00 0.  1.
         11    1    4    4    0    0  0.96501979027E+02 -0.17909632074E+02  0.66361314941E+02  0.11847873648E+03  0.00000000000E+00 0. -1.
        -15    1    3    3    0    0 -0.10844307242E+03  0.43129687364E+02 -0.84278978769E+02  0.14396587748E+03  0.17770000000E+01 0.  1.
         15    1    3    3    0    0 -0.20399255155E+03 -0.60135758910E+02 -0.29013810434E+03  0.35973955566E+03  0.17770000000E+01 0.  1.
</event>
<event>
 8    1  0.2370702E-007  0.5028703E+03  0.7546771E-02  0.9393410E-01
        -11   -1    0    0    0    0  0.00000000000E+00  0.00000000000E+00  0.50000000000E+03  0.50000000000E+03  0.00000000000E+00 0. -1.
         11   -1    0    0    0    0 -0.00000000000E+00 -0.00000000000E+00 -0.50000000000E+03  0.50000000000E+03  0.00000000000E+00 0.  1.
         25    2    1    2    0    0  0.43535754234E+02 -0.48064933913E+03  0.65836271277E+02  0.50287030363E+03  0.12499991419E+03 0.  0.
         23    2    1    2    0    0 -0.43535754234E+02  0.48064933913E+03 -0.65836271277E+02  0.49712969637E+03  0.99420175479E+02 0.  0.
        -11    1    4    4    0    0  0.88459156542E+01  0.36557476324E+03 -0.59895266659E+02  0.37055445040E+03  0.00000000000E+00 0.  1.
         11    1    4    4    0    0 -0.52381669888E+02  0.11507457590E+03 -0.59410046182E+01  0.12657524598E+03  0.00000000000E+00 0. -1.
        -15    1    3    3    0    0  0.58193679550E+02 -0.95966278470E+02  0.30320437678E+02  0.11626916020E+03  0.17770000000E+01 0. -1.
         15    1    3    3    0    0 -0.14657925316E+02 -0.38468306066E+03  0.35515833600E+02  0.38660114343E+03  0.17770000000E+01 0. -1.
</event>
<event>
 8    1  0.2370702E-007  0.5032919E+03  0.7546771E-02  0.9392474E-01
        -11   -1    0    0    0    0  0.00000000000E+00  0.00000000000E+00  0.50000000000E+03  0.50000000000E+03  0.00000000000E+00 0.  1.
         11   -1    0    0    0    0 -0.00000000000E+00 -0.00000000000E+00 -0.50000000000E+03  0.50000000000E+03  0.00000000000E+00 0. -1.
         25    2    1    2    0    0 -0.28510146180E+03  0.28361663839E+03  0.27560294829E+03  0.50329188953E+03  0.12499799947E+03 0.  0.
         23    2    1    2    0    0  0.28510146180E+03 -0.28361663839E+03 -0.27560294829E+03  0.49670811047E+03  0.95082705118E+02 0.  0.
        -11    1    4    4    0    0  0.14999995342E+03 -0.21178537565E+03 -0.18720850719E+03  0.32000008833E+03  0.00000000000E+00 0. -1.
         11    1    4    4    0    0  0.13510150838E+03 -0.71831262738E+02 -0.88394441096E+02  0.17670802214E+03  0.00000000000E+00 0.  1.
        -15    1    3    3    0    0 -0.20301516708E+03  0.13866983756E+03  0.21312017326E+03  0.32537339764E+03  0.17770000000E+01 0.  1.
         15    1    3    3    0    0 -0.82086294715E+02  0.14494680083E+03  0.62482775031E+02  0.17791849189E+03  0.17770000000E+01 0.  1.
</event>
<event>
 8    1  0.2370702E-007  0.5034143E+03  0.7546771E-02  0.9392202E-01
        -11   -1    0    0    0    0  0.00000000000E+00  0.00000000000E+00  0.50000000000E+03  0.50000000000E+03  0.00000000000E+00 0. -1.
         11   -1    0    0    0    0 -0.00000000000E+00 -0.00000000000E+00 -0.50000000000E+03  0.50000000000E+03  0.00000000000E+00 0.  1.
         25    2    1    2    0    0  0.12458039437E+03  0.29523239179E+03  0.36758505042E+03  0.50341433960E+03  0.12499915277E+03 0.  0.
         23    2    1    2    0    0 -0.12458039437E+03 -0.29523239179E+03 -0.36758505042E+03  0.49658566040E+03  0.93787573813E+02 0.  0.
        -11    1    4    4    0    0 -0.73540512570E+02 -0.77839332145E+02 -0.15407719239E+03  0.18763515084E+03  0.00000000000E+00 0.  1.
         11    1    4    4    0    0 -0.51039881804E+02 -0.21739305964E+03 -0.21350785803E+03  0.30895050956E+03  0.00000000000E+00 0. -1.
        -15    1    3    3    0    0  0.33176880352E+02 -0.16435974574E+01  0.38381086790E+02  0.50790475039E+02  0.17770000000E+01 0. -1.
         15    1    3    3    0    0  0.91403514021E+02  0.29687598925E+03  0.32920396363E+03  0.45262386456E+03  0.17770000000E+01 0. -1.
</event>
<event>
 8    1  0.2370702E-007  0.5035107E+03  0.7546771E-02  0.9391988E-01
        -11   -1    0    0    0    0  0.00000000000E+00  0.00000000000E+00  0.50000000000E+03  0.50000000000E+03  0.00000000000E+00 0.  1.
         11   -1    0    0    0    0 -0.00000000000E+00 -0.00000000000E+00 -0.50000000000E+03  0.50000000000E+03  0.00000000000E+00 0. -1.
         25    2    1    2    0    0 -0.33184353657E+03 -0.13745806712E+02 -0.35719862449E+03  0.50351067001E+03  0.12499222982E+03 0.  0.
         23    2    1    2    0    0  0.33184353657E+03  0.13745806712E+02  0.35719862449E+03  0.49648932999E+03  0.92745444605E+02 0.  0.
        -11    1    4    4    0    0  0.10814911016E+03  0.32602994443E+02  0.73701686861E+02  0.13487447468E+03  0.00000000000E+00 0.  1.
         11    1    4    4    0    0  0.22369442641E+03 -0.18857187731E+02  0.28349693763E+03  0.36161485531E+03  0.00000000000E+00 0. -1.
        -15    1    3    3    0    0 -0.16734226937E+03 -0.61323458889E+02 -0.22573501809E+03  0.28761685947E+03  0.17770000000E+01 0. -1.
         15    1    3    3    0    0 -0.16450126719E+03  0.47577652177E+02 -0.13146360640E+03  0.21589381054E+03  0.17770000000E+01 0. -1.
</event>
<event>
 8    1  0.2370702E-007  0.5035639E+03  0.7546771E-02  0.9391870E-01
        -11   -1    0    0    0    0  0.00000000000E+00  0.00000000000E+00  0.50000000000E+03  0.50000000000E+03  0.00000000000E+00 0.  1.
         11   -1    0    0    0    0 -0.00000000000E+00 -0.00000000000E+00 -0.50000000000E+03  0.50000000000E+03  0.00000000000E+00 0. -1.
         25    2    1    2    0    0 -0.45274529855E+03  0.14020650650E+03 -0.11538819972E+03  0.50356389302E+03  0.12500395150E+03 0.  0.
         23    2    1    2    0    0  0.45274529855E+03 -0.14020650650E+03  0.11538819972E+03  0.49643610698E+03  0.92185692247E+02 0.  0.
        -11    1    4    4    0    0  0.11442167550E+03 -0.27121261898E+02 -0.10717484010E+02  0.11807941029E+03  0.00000000000E+00 0.  1.
         11    1    4    4    0    0  0.33832362305E+03 -0.11308524460E+03  0.12610568373E+03  0.37835669669E+03  0.00000000000E+00 0. -1.
        -15    1    3    3    0    0 -0.21200296712E+03  0.12570802240E+03 -0.32901209984E+02  0.24866325083E+03  0.17770000000E+01 0. -1.
         15    1    3    3    0    0 -0.24074233143E+03  0.14498484096E+02 -0.82486989737E+02  0.25490064219E+03  0.17770000000E+01 0. -1.
</event>
<event>
 8    1  0.2370702E-007  0.5036633E+03  0.7546771E-02  0.9391650E-01
        -11   -1    0    0    0    0  0.00000000000E+00  0.00000000000E+00  0.50000000000E+03  0.50000000000E+03  0.00000000000E+00 0.  1.
         11   -1    0    0    0    0 -0.00000000000E+00 -0.00000000000E+00 -0.50000000000E+03  0.50000000000E+03  0.00000000000E+00 0. -1.
         25    2    1    2    0    0  0.17048520801E+03  0.32794294977E+03  0.31849674254E+03  0.50366333566E+03  0.12499918494E+03 0.  0.
         23    2    1    2    0    0 -0.17048520801E+03 -0.32794294977E+03 -0.31849674254E+03  0.49633666434E+03  0.91094044296E+02 0.  0.
        -11    1    4    4    0    0 -0.14266309841E+03 -0.24315023301E+03 -0.19027516256E+03  0.34011679310E+03  0.00000000000E+00 0.  1.
         11    1    4    4    0    0 -0.27822109597E+02 -0.84792716754E+02 -0.12822157997E+03  0.15621987123E+03  0.00000000000E+00 0. -1.
        -15    1    3    3    0    0  0.52634246490E+02  0.24722845026E+02  0.18275387058E+02  0.60981394465E+02  0.17770000000E+01 0.  1.
         15    1    3    3    0    0  0.11785096152E+03  0.30322010474E+03  0.30022135548E+03  0.44268194120E+03  0.17770000000E+01 0.  1.
</event>
<event>
 8    1  0.2370702E-007  0.5038098E+03  0.7546771E-02  0.9391325E-01
        -11   -1    0    0    0    0  0.00000000000E+00  0.00000000000E+00  0.50000000000E+03  0.50000000000E+03  0.00000000000E+00 0. -1.
         11   -1    0    0    0    0 -0.00000000000E+00 -0.00000000000E+00 -0.50000000000E+03  0.50000000000E+03  0.00000000000E+00 0.  1.
         25    2    1    2    0    0  0.30766404510E+03 -0.93516100150E+01 -0.37875377396E+03  0.50380982756E+03  0.12500121517E+03 0.  0.
         23    2    1    2    0    0 -0.30766404510E+03  0.93516100150E+01  0.37875377396E+03  0.49619017244E+03  0.89474290611E+02 0.  0.
        -11    1    4    4    0    0 -0.74459069949E+02 -0.35334992527E+02  0.11212920139E+03  0.13916060003E+03  0.00000000000E+00 0.  1.
         11    1    4    4    0    0 -0.23320497515E+03  0.44686602542E+02  0.26662457257E+03  0.35702957242E+03  0.00000000000E+00 0. -1.
        -15    1    3    3    0    0  0.25236407528E+03  0.42748613846E+02 -0.28356610151E+03  0.38200518600E+03  0.17770000000E+01 0. -1.
         15    1    3    3    0    0  0.55299969821E+02 -0.52100223861E+02 -0.95187672451E+02  0.12180464155E+03  0.17770000000E+01 0. -1.
</event>
<event>
 8    1  0.2370702E-007  0.5034052E+03  0.7546771E-02  0.9392222E-01
        -11   -1    0    0    0    0  0.00000000000E+00  0.00000000000E+00  0.50000000000E+03  0.50000000000E+03  0.00000000000E+00 0.  1.
         11   -1    0    0    0    0 -0.00000000000E+00 -0.00000000000E+00 -0.50000000000E+03  0.50000000000E+03  0.00000000000E+00 0. -1.
         25    2    1    2    0    0  0.28850791757E+03 -0.68162240320E+02  0.38717947775E+03  0.50340522357E+03  0.12500384642E+03 0.  0.
         23    2    1    2    0    0 -0.28850791757E+03  0.68162240320E+02 -0.38717947775E+03  0.49659477643E+03  0.93890971212E+02 0.  0.
        -11    1    4    4    0    0 -0.11420846750E+03  0.12080356493E+02 -0.22223529694E+03  0.25015602385E+03  0.00000000000E+00 0.  1.
         11    1    4    4    0    0 -0.17429945007E+03  0.56081883827E+02 -0.16494418081E+03  0.24643875258E+03  0.00000000000E+00 0. -1.
        -15    1    3    3    0    0  0.30116836211E+03 -0.61827411581E+02  0.36938808480E+03  0.48059934049E+03  0.17770000000E+01 0.  1.
         15    1    3    3    0    0 -0.12660444536E+02 -0.63348287395E+01  0.17791392955E+02  0.22805883085E+02  0.17770000000E+01 0.  1.
</event>
<event>
 8    1  0.2370702E-007  0.5037032E+03  0.7546771E-02  0.9391562E-01
        -11   -1    0    0    0    0  0.00000000000E+00  0.00000000000E+00  0.50000000000E+03  0.50000000000E+03  0.00000000000E+00 0.  1.
         11   -1    0    0    0    0 -0.00000000000E+00 -0.00000000000E+00 -0.50000000000E+03  0.50000000000E+03  0.00000000000E+00 0. -1.
         25    2    1    2    0    0 -0.43394368240E+03  0.15563083139E+03 -0.15988373082E+03  0.50370317125E+03  0.12500400861E+03 0.  0.
         23    2    1    2    0    0  0.43394368240E+03 -0.15563083139E+03  0.15988373082E+03  0.49629682875E+03  0.90662338791E+02 0.  0.
        -11    1    4    4    0    0  0.41967011622E+03 -0.16682212352E+03  0.15181882908E+03  0.47644683250E+03  0.00000000000E+00 0.  1.
         11    1    4    4    0    0  0.14273566182E+02  0.11191292125E+02  0.80649017400E+01  0.19849996248E+02  0.00000000000E+00 0. -1.
        -15    1    3    3    0    0 -0.21210624091E+03  0.70226827388E+02 -0.14323303866E+03  0.26540483381E+03  0.17770000000E+01 0. -1.
         15    1    3    3    0    0 -0.22183744149E+03  0.85404004004E+02 -0.16650692163E+02  0.23829833744E+03  0.17770000000E+01 0. -1.
</event>
<event>
 8    1  0.2370702E-007  0.5045719E+03  0.7546771E-02  0.9389637E-01
        -11   -1    0    0    0    0  0.00000000000E+00  0.00000000000E+00  0.50000000000E+03  0.50000000000E+03  0.00000000000E+00 0. -1.
         11   -1    0    0    0    0 -0.00000000000E+00 -0.00000000000E+00 -0.50000000000E+03  0.50000000000E+03  0.00000000000E+00 0.  1.
         25    2    1    2    0    0 -0.33485310028E+03 -0.22496188529E+03  0.27610305815E+03  0.50457190946E+03  0.12500185795E+03 0.  0.
         23    2    1    2    0    0  0.33485310028E+03  0.22496188529E+03 -0.27610305815E+03  0.49542809054E+03  0.80508667706E+02 0.  0.
        -11    1    4    4    0    0  0.26244352372E+03  0.13861628332E+03 -0.22065046665E+03  0.36983470035E+03  0.00000000000E+00 0.  1.
         11    1    4    4    0    0  0.72409576559E+02  0.86345601970E+02 -0.55452591494E+02  0.12559339019E+03  0.00000000000E+00 0. -1.
        -15    1    3    3    0    0 -0.37169979791E+02 -0.83910687902E+02  0.45400803998E+02  0.10240606268E+03  0.17770000000E+01 0. -1.
         15    1    3    3    0    0 -0.29768312049E+03 -0.14105119739E+03  0.23070225415E+03  0.40216584677E+03  0.17770000000E+01 0. -1.
</event>
<event>
 8    1  0.2370702E-007  0.5032190E+03  0.7546771E-02  0.9392636E-01
        -11   -1    0    0    0    0  0.00000000000E+00  0.00000000000E+00  0.50000000000E+03  0.50000000000E+03  0.00000000000E+00 0.  1.
         11   -1    0    0    0    0 -0.00000000000E+00 -0.00000000000E+00 -0.50000000000E+03  0.50000000000E+03  0.00000000000E+00 0. -1.
         25    2    1    2    0    0  0.46884441725E+03 -0.12803323943E+03 -0.37374600863E+02  0.50321899715E+03  0.12499960127E+03 0.  0.
         23    2    1    2    0    0 -0.46884441725E+03  0.12803323943E+03  0.37374600863E+02  0.49678100285E+03  0.95848349078E+02 0.  0.
        -11    1    4    4    0    0 -0.34951952847E+03  0.54047313025E+02  0.10487573193E+02  0.35382905762E+03  0.00000000000E+00 0.  1.
         11    1    4    4    0    0 -0.11932488878E+03  0.73985926403E+02  0.26887027670E+02  0.14295194523E+03  0.00000000000E+00 0. -1.
        -15    1    3    3    0    0  0.86264310344E+02  0.23050118311E+02 -0.19978779310E+02  0.91515837673E+02  0.17770000000E+01 0. -1.
         15    1    3    3    0    0  0.38258010691E+03 -0.15108335774E+03 -0.17395821553E+02  0.41170315947E+03  0.17770000000E+01 0. -1.
</event>
<event>
 8    1  0.2370702E-007  0.5035550E+03  0.7546771E-02  0.9391890E-01
        -11   -1    0    0    0    0  0.00000000000E+00  0.00000000000E+00  0.50000000000E+03  0.50000000000E+03  0.00000000000E+00 0. -1.
         11   -1    0    0    0    0 -0.00000000000E+00 -0.00000000000E+00 -0.50000000000E+03  0.50000000000E+03  0.00000000000E+00 0.  1.
         25    2    1    2    0    0 -0.39135100730E+03  0.25724340894E+03  0.13643037609E+03  0.50355496517E+03  0.12499829227E+03 0.  0.
         23    2    1    2    0    0  0.39135100730E+03 -0.25724340894E+03 -0.13643037609E+03  0.49644503483E+03  0.92274821726E+02 0.  0.
        -11    1    4    4    0    0  0.35780939133E+03 -0.26073612418E+03 -0.11880819022E+03  0.45839532397E+03  0.00000000000E+00 0. -1.
         11    1    4    4    0    0  0.33541615971E+02  0.34927152312E+01 -0.17622185864E+02  0.38049710857E+02  0.00000000000E+00 0.  1.
        -15    1    3    3    0    0 -0.23440886123E+01  0.38054856693E+02  0.12502971050E+02  0.40164024741E+02  0.17770000000E+01 0. -1.
         15    1    3    3    0    0 -0.38900691869E+03  0.21918855225E+03  0.12392740504E+03  0.46339094043E+03  0.17770000000E+01 0. -1.
</event>
<event>
 8    1  0.2370702E-007  0.5042029E+03  0.7546771E-02  0.9390454E-01
        -11   -1    0    0    0    0  0.00000000000E+00  0.00000000000E+00  0.50000000000E+03  0.50000000000E+03  0.00000000000E+00 0.  1.
         11   -1    0    0    0    0 -0.00000000000E+00 -0.00000000000E+00 -0.50000000000E+03  0.50000000000E+03  0.00000000000E+00 0. -1.
         25    2    1    2    0    0 -0.25601184322E+03  0.29764842246E+03 -0.29061893224E+03  0.50420285156E+03  0.12499801793E+03 0.  0.
         23    2    1    2    0    0  0.25601184322E+03 -0.29764842246E+03  0.29061893224E+03  0.49579714844E+03  0.84963529609E+02 0.  0.
        -11    1    4    4    0    0  0.13341038989E+03 -0.21028269685E+03  0.15613077387E+03  0.29392850028E+03  0.00000000000E+00 0.  1.
         11    1    4    4    0    0  0.12260145333E+03 -0.87365725605E+02  0.13448815837E+03  0.20186864816E+03  0.00000000000E+00 0. -1.
        -15    1    3    3    0    0 -0.15495206591E+02  0.61646656750E+02 -0.73971516968E+01  0.64017867021E+02  0.17770000000E+01 0.  1.
         15    1    3    3    0    0 -0.24051663663E+03  0.23600176571E+03 -0.28322178054E+03  0.44018498454E+03  0.17770000000E+01 0.  1.
</event>
<event>
 8    1  0.2370702E-007  0.5039554E+03  0.7546771E-02  0.9391002E-01
        -11   -1    0    0    0    0  0.00000000000E+00  0.00000000000E+00  0.50000000000E+03  0.50000000000E+03  0.00000000000E+00 0.  1.
         11   -1    0    0    0    0 -0.00000000000E+00 -0.00000000000E+00 -0.50000000000E+03  0.50000000000E+03  0.00000000000E+00 0. -1.
         25    2    1    2    0    0 -0.28059238564E+03 -0.38989210919E+03 -0.87169175129E+02  0.50395543625E+03  0.12499869178E+03 0.  0.
         23    2    1    2    0    0  0.28059238564E+03  0.38989210919E+03  0.87169175129E+02  0.49604456375E+03  0.87828244042E+02 0.  0.
        -11    1    4    4    0    0  0.34677250935E+02  0.16389422243E+02  0.21756635324E+02  0.44096213834E+02  0.00000000000E+00 0. -1.
         11    1    4    4    0    0  0.24591513470E+03  0.37350268694E+03  0.65412539805E+02  0.45194834992E+03  0.00000000000E+00 0.  1.
        -15    1    3    3    0    0 -0.28155546677E+03 -0.39617304885E+03 -0.93345879155E+02  0.49491734298E+03  0.17770000000E+01 0.  1.
         15    1    3    3    0    0  0.96308112976E+00  0.62809396600E+01  0.61767040260E+01  0.90380932669E+01  0.17770000000E+01 0.  1.
</event>
<event>
 8    1  0.2370702E-007  0.5036490E+03  0.7546771E-02  0.9391682E-01
        -11   -1    0    0    0    0  0.00000000000E+00  0.00000000000E+00  0.50000000000E+03  0.50000000000E+03  0.00000000000E+00 0. -1.
         11   -1    0    0    0    0 -0.00000000000E+00 -0.00000000000E+00 -0.50000000000E+03  0.50000000000E+03  0.00000000000E+00 0.  1.
         25    2    1    2    0    0  0.10489437851E+03  0.57456700255E+02 -0.47300435014E+03  0.50364899234E+03  0.12500035674E+03 0.  0.
         23    2    1    2    0    0 -0.10489437851E+03 -0.57456700255E+02  0.47300435014E+03  0.49635100766E+03  0.91252969881E+02 0.  0.
        -11    1    4    4    0    0 -0.70158758655E+02 -0.56791428907E+02  0.18070872845E+03  0.20199792660E+03  0.00000000000E+00 0.  1.
         11    1    4    4    0    0 -0.34735619854E+02 -0.66527134773E+00  0.29229562169E+03  0.29435308106E+03  0.00000000000E+00 0. -1.
        -15    1    3    3    0    0 -0.98945206205E+01  0.57232457423E+02 -0.15140495036E+03  0.16217297076E+03  0.17770000000E+01 0. -1.
         15    1    3    3    0    0  0.11478889913E+03  0.22424283246E+00 -0.32159939978E+03  0.34147602158E+03  0.17770000000E+01 0. -1.
</event>
<event>
 8    1  0.2370702E-007  0.5028045E+03  0.7546771E-02  0.9393556E-01
        -11   -1    0    0    0    0  0.00000000000E+00  0.00000000000E+00  0.50000000000E+03  0.50000000000E+03  0.00000000000E+00 0. -1.
         11   -1    0    0    0    0 -0.00000000000E+00 -0.00000000000E+00 -0.50000000000E+03  0.50000000000E+03  0.00000000000E+00 0.  1.
         25    2    1    2    0    0 -0.79823980709E+02 -0.47713521847E+03 -0.56196637110E+02  0.50280451719E+03  0.12499774351E+03 0.  0.
         23    2    1    2    0    0  0.79823980709E+02  0.47713521847E+03  0.56196637110E+02  0.49719548281E+03  0.10007697789E+03 0.  0.
        -11    1    4    4    0    0 -0.56974949750E+01  0.51307495496E+02  0.34958245647E+02  0.62345805647E+02  0.00000000000E+00 0. -1.
         11    1    4    4    0    0  0.85521475684E+02  0.42582772297E+03  0.21238391463E+02  0.43484967716E+03  0.00000000000E+00 0.  1.
        -15    1    3    3    0    0 -0.57904309976E+02 -0.32284859545E+03  0.21413103021E+02  0.32870321478E+03  0.17770000000E+01 0. -1.
         15    1    3    3    0    0 -0.21919670732E+02 -0.15428662302E+03 -0.77609740131E+02  0.17410130241E+03  0.17770000000E+01 0. -1.
</event>
<event>
 8    1  0.2370702E-007  0.5038842E+03  0.7546771E-02  0.9391160E-01
        -11   -1    0    0    0    0  0.00000000000E+00  0.00000000000E+00  0.50000000000E+03  0.50000000000E+03  0.00000000000E+00 0. -1.
         11   -1    0    0    0    0 -0.00000000000E+00 -0.00000000000E+00 -0.50000000000E+03  0.50000000000E+03  0.00000000000E+00 0.  1.
         25    2    1    2    0    0 -0.20425294043E+03 -0.31015731715E+03 -0.31678931140E+03  0.50388422741E+03  0.12500808676E+03 0.  0.
         23    2    1    2    0    0  0.20425294043E+03  0.31015731715E+03  0.31678931140E+03  0.49611577259E+03  0.88648558566E+02 0.  0.
        -11    1    4    4    0    0  0.52331357898E+02  0.15908500708E+03  0.14416673598E+03  0.22097660116E+03  0.00000000000E+00 0.  1.
         11    1    4    4    0    0  0.15192158253E+03  0.15107231008E+03  0.17262257542E+03  0.27513917143E+03  0.00000000000E+00 0. -1.
        -15    1    3    3    0    0 -0.10549260805E+03 -0.12496885113E+03 -0.64762218403E+02  0.17590681274E+03  0.17770000000E+01 0. -1.
         15    1    3    3    0    0 -0.98760332378E+02 -0.18518846602E+03 -0.25202709300E+03  0.32797741467E+03  0.17770000000E+01 0. -1.
</event>
<event>
 8    1  0.2370702E-007  0.5038703E+03  0.7546771E-02  0.9391191E-01
        -11   -1    0    0    0    0  0.00000000000E+00  0.00000000000E+00  0.50000000000E+03  0.50000000000E+03  0.00000000000E+00 0. -1.
         11   -1    0    0    0    0 -0.00000000000E+00 -0.00000000000E+00 -0.50000000000E+03  0.50000000000E+03  0.00000000000E+00 0.  1.
         25    2    1    2    0    0  0.42418779056E+03  0.41785610566E+02  0.23785577493E+03  0.50387033642E+03  0.12501450856E+03 0.  0.
         23    2    1    2    0    0 -0.42418779056E+03 -0.41785610566E+02 -0.23785577493E+03  0.49612966358E+03  0.88814157164E+02 0.  0.
        -11    1    4    4    0    0 -0.62033410944E+02 -0.52379187206E+01 -0.74704934413E+02  0.97244059415E+02  0.00000000000E+00 0. -1.
         11    1    4    4    0    0 -0.36215437961E+03 -0.36547691845E+02 -0.16315084051E+03  0.39888560417E+03  0.00000000000E+00 0.  1.
        -15    1    3    3    0    0  0.14613975781E+03  0.52590038686E+02  0.34207034151E+02  0.15904659662E+03  0.17770000000E+01 0. -1.
         15    1    3    3    0    0  0.27804803274E+03 -0.10804428120E+02  0.20364874078E+03  0.34482373980E+03  0.17770000000E+01 0. -1.
</event>
<event>
 8    1  0.2370702E-007  0.5037147E+03  0.7546771E-02  0.9391536E-01
        -11   -1    0    0    0    0  0.00000000000E+00  0.00000000000E+00  0.50000000000E+03  0.50000000000E+03  0.00000000000E+00 0.  1.
         11   -1    0    0    0    0 -0.00000000000E+00 -0.00000000000E+00 -0.50000000000E+03  0.50000000000E+03  0.00000000000E+00 0. -1.
         25    2    1    2    0    0  0.30266922862E+03 -0.33142328794E+03 -0.19144344606E+03  0.50371469852E+03  0.12501138641E+03 0.  0.
         23    2    1    2    0    0 -0.30266922862E+03  0.33142328794E+03  0.19144344606E+03  0.49628530148E+03  0.90545290787E+02 0.  0.
        -11    1    4    4    0    0 -0.20376817075E+02  0.34998600372E+02 -0.74634116891E+01  0.41180325596E+02  0.00000000000E+00 0. -1.
         11    1    4    4    0    0 -0.28229241154E+03  0.29642468757E+03  0.19890685775E+03  0.45510497588E+03  0.00000000000E+00 0.  1.
        -15    1    3    3    0    0  0.27232666561E+03 -0.25943780893E+03 -0.19843391893E+03  0.42526340944E+03  0.17770000000E+01 0.  1.
         15    1    3    3    0    0  0.30342563007E+02 -0.71985479011E+02  0.69904728676E+01  0.78451289079E+02  0.17770000000E+01 0.  1.
</event>
<event>
 8    1  0.2370702E-007  0.5034338E+03  0.7546771E-02  0.9392159E-01
        -11   -1    0    0    0    0  0.00000000000E+00  0.00000000000E+00  0.50000000000E+03  0.50000000000E+03  0.00000000000E+00 0. -1.
         11   -1    0    0    0    0 -0.00000000000E+00 -0.00000000000E+00 -0.50000000000E+03  0.50000000000E+03  0.00000000000E+00 0.  1.
         25    2    1    2    0    0 -0.63252715005E+02  0.39312790879E+03 -0.28154857369E+03  0.50343381166E+03  0.12500217896E+03 0.  0.
         23    2    1    2    0    0  0.63252715005E+02 -0.39312790879E+03  0.28154857369E+03  0.49656618834E+03  0.93583766918E+02 0.  0.
        -11    1    4    4    0    0  0.48490206373E+01 -0.29092719729E+03  0.20971217144E+03  0.35866605914E+03  0.00000000000E+00 0. -1.
         11    1    4    4    0    0  0.58403694368E+02 -0.10220071150E+03  0.71836402249E+02  0.13790012921E+03  0.00000000000E+00 0.  1.
        -15    1    3    3    0    0  0.28955698556E+02  0.79511606466E+02 -0.26114647781E+02  0.88575733694E+02  0.17770000000E+01 0. -1.
         15    1    3    3    0    0 -0.92208413562E+02  0.31361630233E+03 -0.25543392591E+03  0.41485807796E+03  0.17770000000E+01 0. -1.
</event>
<event>
 8    1  0.2370702E-007  0.5036735E+03  0.7546771E-02  0.9391627E-01
        -11   -1    0    0    0    0  0.00000000000E+00  0.00000000000E+00  0.50000000000E+03  0.50000000000E+03  0.00000000000E+00 0.  1.
         11   -1    0    0    0    0 -0.00000000000E+00 -0.00000000000E+00 -0.50000000000E+03  0.50000000000E+03  0.00000000000E+00 0. -1.
         25    2    1    2    0    0 -0.89792600011E+02 -0.37167732375E+03  0.30307683007E+03  0.50367348542E+03  0.12499868390E+03 0.  0.
         23    2    1    2    0    0  0.89792600011E+02  0.37167732375E+03 -0.30307683007E+03  0.49632651458E+03  0.90981867133E+02 0.  0.
        -11    1    4    4    0    0  0.35987249278E+02  0.29246841855E+03 -0.20306937075E+03  0.35786872914E+03  0.00000000000E+00 0.  1.
         11    1    4    4    0    0  0.53805350733E+02  0.79208905202E+02 -0.10000745932E+03  0.13845778545E+03  0.00000000000E+00 0. -1.
        -15    1    3    3    0    0 -0.11414627571E+03 -0.27869857525E+03  0.19384224380E+03  0.35816231141E+03  0.17770000000E+01 0. -1.
         15    1    3    3    0    0  0.24353675701E+02 -0.92978748495E+02  0.10923458628E+03  0.14551117400E+03  0.17770000000E+01 0. -1.
</event>
<event>
 8    1  0.2370702E-007  0.5037610E+03  0.7546771E-02  0.9391433E-01
        -11   -1    0    0    0    0  0.00000000000E+00  0.00000000000E+00  0.50000000000E+03  0.50000000000E+03  0.00000000000E+00 0. -1.
         11   -1    0    0    0    0 -0.00000000000E+00 -0.00000000000E+00 -0.50000000000E+03  0.50000000000E+03  0.00000000000E+00 0.  1.
         25    2    1    2    0    0 -0.34847785926E+03  0.24543352075E+03 -0.23764598640E+03  0.50376096381E+03  0.12500024919E+03 0.  0.
         23    2    1    2    0    0  0.34847785926E+03 -0.24543352075E+03  0.23764598640E+03  0.49623903619E+03  0.90017413196E+02 0.  0.
        -11    1    4    4    0    0  0.17707121320E+03 -0.16241734503E+03  0.95377147335E+02  0.25851578046E+03  0.00000000000E+00 0.  1.
         11    1    4    4    0    0  0.17140664606E+03 -0.83016175719E+02  0.14226883907E+03  0.23772325573E+03  0.00000000000E+00 0. -1.
        -15    1    3    3    0    0 -0.29409772145E+03  0.15128033435E+03 -0.20926496049E+03  0.39137474464E+03  0.17770000000E+01 0. -1.
         15    1    3    3    0    0 -0.54380137813E+02  0.94153186405E+02 -0.28381025919E+02  0.11238621917E+03  0.17770000000E+01 0. -1.
</event>
<event>
 8    1  0.2370702E-007  0.5028747E+03  0.7546771E-02  0.9393400E-01
        -11   -1    0    0    0    0  0.00000000000E+00  0.00000000000E+00  0.50000000000E+03  0.50000000000E+03  0.00000000000E+00 0. -1.
         11   -1    0    0    0    0 -0.00000000000E+00 -0.00000000000E+00 -0.50000000000E+03  0.50000000000E+03  0.00000000000E+00 0.  1.
         25    2    1    2    0    0  0.11742747176E+03  0.47187615930E+03 -0.28309120591E+02  0.50287467351E+03  0.12500084046E+03 0.  0.
         23    2    1    2    0    0 -0.11742747176E+03 -0.47187615930E+03  0.28309120591E+02  0.49712532649E+03  0.99377377165E+02 0.  0.
        -11    1    4    4    0    0 -0.10780821079E+03 -0.30339139675E+03 -0.16886141304E+02  0.32241912428E+03  0.00000000000E+00 0.  1.
         11    1    4    4    0    0 -0.96192609760E+01 -0.16848476255E+03  0.45195261895E+02  0.17470620221E+03  0.00000000000E+00 0. -1.
        -15    1    3    3    0    0  0.25553613851E+02  0.96176595098E+02 -0.57596836235E+02  0.11499338198E+03  0.17770000000E+01 0.  1.
         15    1    3    3    0    0  0.91873857911E+02  0.37569956420E+03  0.29287715644E+02  0.38788129153E+03  0.17770000000E+01 0.  1.
</event>
<event>
 8    1  0.2370702E-007  0.5038196E+03  0.7546771E-02  0.9391303E-01
        -11   -1    0    0    0    0  0.00000000000E+00  0.00000000000E+00  0.50000000000E+03  0.50000000000E+03  0.00000000000E+00 0.  1.
         11   -1    0    0    0    0 -0.00000000000E+00 -0.00000000000E+00 -0.50000000000E+03  0.50000000000E+03  0.00000000000E+00 0. -1.
         25    2    1    2    0    0  0.35889632493E+03 -0.13391981260E+03  0.30243721883E+03  0.50381963687E+03  0.12499946760E+03 0.  0.
         23    2    1    2    0    0 -0.35889632493E+03  0.13391981260E+03 -0.30243721883E+03  0.49618036313E+03  0.89362146152E+02 0.  0.
        -11    1    4    4    0    0 -0.11687731645E+03  0.41695594258E+02 -0.15360482770E+03  0.19746714353E+03  0.00000000000E+00 0. -1.
         11    1    4    4    0    0 -0.24201900848E+03  0.92224218338E+02 -0.14883239114E+03  0.29871321960E+03  0.00000000000E+00 0.  1.
        -15    1    3    3    0    0  0.26875751990E+03 -0.13848644420E+03  0.18057533458E+03  0.35216432090E+03  0.17770000000E+01 0. -1.
         15    1    3    3    0    0  0.90138805033E+02  0.45666316014E+01  0.12186188426E+03  0.15165531597E+03  0.17770000000E+01 0. -1.
</event>
<event>
 8    1  0.2370702E-007  0.5034049E+03  0.7546771E-02  0.9392223E-01
        -11   -1    0    0    0    0  0.00000000000E+00  0.00000000000E+00  0.50000000000E+03  0.50000000000E+03  0.00000000000E+00 0. -1.
         11   -1    0    0    0    0 -0.00000000000E+00 -0.00000000000E+00 -0.50000000000E+03  0.50000000000E+03  0.00000000000E+00 0.  1.
         25    2    1    2    0    0  0.35865098436E+02  0.46918716823E+03  0.12794249398E+03  0.50340485417E+03  0.12499704526E+03 0.  0.
         23    2    1    2    0    0 -0.35865098436E+02 -0.46918716823E+03 -0.12794249398E+03  0.49659514583E+03  0.93885850780E+02 0.  0.
        -11    1    4    4    0    0  0.30219751550E+02 -0.15137426870E+03 -0.55194218306E+02  0.16393231634E+03  0.00000000000E+00 0.  1.
         11    1    4    4    0    0 -0.66084849986E+02 -0.31781289953E+03 -0.72748275674E+02  0.33266282948E+03  0.00000000000E+00 0. -1.
        -15    1    3    3    0    0  0.50369210359E+02  0.67052888620E+02  0.12782750946E+02  0.84851067614E+02  0.17770000000E+01 0.  1.
         15    1    3    3    0    0 -0.14504111923E+02  0.40213427961E+03  0.11515974303E+03  0.41855378656E+03  0.17770000000E+01 0.  1.
</event>
<event>
 8    1  0.2370702E-007  0.5039588E+03  0.7546771E-02  0.9390995E-01
        -11   -1    0    0    0    0  0.00000000000E+00  0.00000000000E+00  0.50000000000E+03  0.50000000000E+03  0.00000000000E+00 0. -1.
         11   -1    0    0    0    0 -0.00000000000E+00 -0.00000000000E+00 -0.50000000000E+03  0.50000000000E+03  0.00000000000E+00 0.  1.
         25    2    1    2    0    0 -0.15789579746E+03  0.36723360470E+03  0.28028857652E+03  0.50395876411E+03  0.12498458514E+03 0.  0.
         23    2    1    2    0    0  0.15789579746E+03 -0.36723360470E+03 -0.28028857652E+03  0.49604123589E+03  0.87770258600E+02 0.  0.
        -11    1    4    4    0    0  0.31346738096E+02 -0.15955194440E+03 -0.14432829173E+03  0.21741687319E+03  0.00000000000E+00 0.  1.
         11    1    4    4    0    0  0.12654905936E+03 -0.20768166030E+03 -0.13596028479E+03  0.27862436270E+03  0.00000000000E+00 0. -1.
        -15    1    3    3    0    0 -0.10486106959E+03  0.14594330446E+03  0.66213065779E+02  0.19152707339E+03  0.17770000000E+01 0.  1.
         15    1    3    3    0    0 -0.53034727867E+02  0.22129030024E+03  0.21407551074E+03  0.31243169072E+03  0.17770000000E+01 0.  1.
</event>
<event>
 8    1  0.2370702E-007  0.5027669E+03  0.7546771E-02  0.9393640E-01
        -11   -1    0    0    0    0  0.00000000000E+00  0.00000000000E+00  0.50000000000E+03  0.50000000000E+03  0.00000000000E+00 0.  1.
         11   -1    0    0    0    0 -0.00000000000E+00 -0.00000000000E+00 -0.50000000000E+03  0.50000000000E+03  0.00000000000E+00 0. -1.
         25    2    1    2    0    0  0.15876014225E+03 -0.42976526948E+03 -0.16506276785E+03  0.50276691720E+03  0.12500354425E+03 0.  0.
         23    2    1    2    0    0 -0.15876014225E+03  0.42976526948E+03  0.16506276785E+03  0.49723308280E+03  0.10045920408E+03 0.  0.
        -11    1    4    4    0    0 -0.15976748140E+03  0.37667422300E+03  0.17169292786E+03  0.44372015940E+03  0.00000000000E+00 0.  1.
         11    1    4    4    0    0  0.10073391485E+01  0.53091046488E+02 -0.66301600119E+01  0.53512923403E+02  0.00000000000E+00 0. -1.
        -15    1    3    3    0    0  0.29978722747E+02 -0.22138643945E+02 -0.45562056347E+02  0.58888896074E+02  0.17770000000E+01 0.  1.
         15    1    3    3    0    0  0.12878141950E+03 -0.40762662554E+03 -0.11950071150E+03  0.44387802112E+03  0.17770000000E+01 0.  1.
</event>
<event>
 8    1  0.2370702E-007  0.5036488E+03  0.7546771E-02  0.9391682E-01
        -11   -1    0    0    0    0  0.00000000000E+00  0.00000000000E+00  0.50000000000E+03  0.50000000000E+03  0.00000000000E+00 0. -1.
         11   -1    0    0    0    0 -0.00000000000E+00 -0.00000000000E+00 -0.50000000000E+03  0.50000000000E+03  0.00000000000E+00 0.  1.
         25    2    1    2    0    0 -0.10636303221E+03  0.42085837289E+03 -0.22271429578E+03  0.50364877811E+03  0.12500227796E+03 0.  0.
         23    2    1    2    0    0  0.10636303221E+03 -0.42085837289E+03  0.22271429578E+03  0.49635122189E+03  0.91257949085E+02 0.  0.
        -11    1    4    4    0    0  0.82604713435E+02 -0.16386357183E+03  0.69616410508E+02  0.19626832008E+03  0.00000000000E+00 0.  1.
         11    1    4    4    0    0  0.23758318776E+02 -0.25699480106E+03  0.15309788527E+03  0.30008290181E+03  0.00000000000E+00 0. -1.
        -15    1    3    3    0    0  0.54741258014E+01  0.18612250130E+03 -0.13202177519E+03  0.22826401030E+03  0.17770000000E+01 0.  1.
         15    1    3    3    0    0 -0.11183715801E+03  0.23473587159E+03 -0.90692520586E+02  0.27538476782E+03  0.17770000000E+01 0.  1.
</event>
<event>
 8    1  0.2370702E-007  0.5030795E+03  0.7546771E-02  0.9392945E-01
        -11   -1    0    0    0    0  0.00000000000E+00  0.00000000000E+00  0.50000000000E+03  0.50000000000E+03  0.00000000000E+00 0.  1.
         11   -1    0    0    0    0 -0.00000000000E+00 -0.00000000000E+00 -0.50000000000E+03  0.50000000000E+03  0.00000000000E+00 0. -1.
         25    2    1    2    0    0 -0.34200048775E+03 -0.30053450589E+03 -0.17371789597E+03  0.50307954235E+03  0.12500318277E+03 0.  0.
         23    2    1    2    0    0  0.34200048775E+03  0.30053450589E+03  0.17371789597E+03  0.49692045765E+03  0.97297024607E+02 0.  0.
        -11    1    4    4    0    0  0.31217207039E+03  0.24560989681E+03  0.17582200840E+03  0.43438347296E+03  0.00000000000E+00 0. -1.
         11    1    4    4    0    0  0.29828417358E+02  0.54924609083E+02 -0.21041124274E+01  0.62536984690E+02  0.00000000000E+00 0.  1.
        -15    1    3    3    0    0 -0.20419622155E+03 -0.12336333158E+03 -0.40281722127E+02  0.24195120033E+03  0.17770000000E+01 0. -1.
         15    1    3    3    0    0 -0.13780426620E+03 -0.17717117431E+03 -0.13343617384E+03  0.26112834202E+03  0.17770000000E+01 0. -1.
</event>
<event>
 8    1  0.2370702E-007  0.5038235E+03  0.7546771E-02  0.9391295E-01
        -11   -1    0    0    0    0  0.00000000000E+00  0.00000000000E+00  0.50000000000E+03  0.50000000000E+03  0.00000000000E+00 0. -1.
         11   -1    0    0    0    0 -0.00000000000E+00 -0.00000000000E+00 -0.50000000000E+03  0.50000000000E+03  0.00000000000E+00 0.  1.
         25    2    1    2    0    0  0.41802086230E+03 -0.46298398709E+02 -0.24764487110E+03  0.50382347990E+03  0.12500053472E+03 0.  0.
         23    2    1    2    0    0 -0.41802086230E+03  0.46298398709E+02  0.24764487110E+03  0.49617652010E+03  0.89320624028E+02 0.  0.
        -11    1    4    4    0    0 -0.32256943508E+03  0.48346943105E+02  0.14801244575E+03  0.35818452152E+03  0.00000000000E+00 0.  1.
         11    1    4    4    0    0 -0.95451427212E+02 -0.20485443961E+01  0.99632425351E+02  0.13799199858E+03  0.00000000000E+00 0. -1.
        -15    1    3    3    0    0  0.31353570327E+03  0.61781226026E+01 -0.13489340474E+03  0.34138276874E+03  0.17770000000E+01 0.  1.
         15    1    3    3    0    0  0.10448515903E+03 -0.52476521312E+02 -0.11275146636E+03  0.16244071116E+03  0.17770000000E+01 0.  1.
</event>
<event>
 8    1  0.2370702E-007  0.5031546E+03  0.7546771E-02  0.9392779E-01
        -11   -1    0    0    0    0  0.00000000000E+00  0.00000000000E+00  0.50000000000E+03  0.50000000000E+03  0.00000000000E+00 0. -1.
         11   -1    0    0    0    0 -0.00000000000E+00 -0.00000000000E+00 -0.50000000000E+03  0.50000000000E+03  0.00000000000E+00 0.  1.
         25    2    1    2    0    0  0.11323846824E+03  0.42095644020E+03  0.21797409005E+03  0.50315455350E+03  0.12499810214E+03 0.  0.
         23    2    1    2    0    0 -0.11323846824E+03 -0.42095644020E+03 -0.21797409005E+03  0.49684544650E+03  0.96516415874E+02 0.  0.
        -11    1    4    4    0    0 -0.30330522934E+02 -0.28021444874E+03 -0.11970426065E+03  0.30621754999E+03  0.00000000000E+00 0.  1.
         11    1    4    4    0    0 -0.82907945306E+02 -0.14074199146E+03 -0.98269829407E+02  0.19062789651E+03  0.00000000000E+00 0. -1.
        -15    1    3    3    0    0  0.23625379549E+02  0.30262512762E+03  0.16530321606E+03  0.34564206543E+03  0.17770000000E+01 0.  1.
         15    1    3    3    0    0  0.89613088692E+02  0.11833131259E+03  0.52670873988E+02  0.15751248807E+03  0.17770000000E+01 0.  1.
</event>
<event>
 8    1  0.2370702E-007  0.5036746E+03  0.7546771E-02  0.9391625E-01
        -11   -1    0    0    0    0  0.00000000000E+00  0.00000000000E+00  0.50000000000E+03  0.50000000000E+03  0.00000000000E+00 0.  1.
         11   -1    0    0    0    0 -0.00000000000E+00 -0.00000000000E+00 -0.50000000000E+03  0.50000000000E+03  0.00000000000E+00 0. -1.
         25    2    1    2    0    0  0.24713510069E+03 -0.35537018710E+03  0.22517376139E+03  0.50367457116E+03  0.12498449081E+03 0.  0.
         23    2    1    2    0    0 -0.24713510069E+03  0.35537018710E+03 -0.22517376139E+03  0.49632542884E+03  0.90950429450E+02 0.  0.
        -11    1    4    4    0    0 -0.20166688531E+03  0.33720197207E+03 -0.19310562431E+03  0.43779502594E+03  0.00000000000E+00 0. -1.
         11    1    4    4    0    0 -0.45468215377E+02  0.18168215030E+02 -0.32068137086E+02  0.58530402895E+02  0.00000000000E+00 0.  1.
        -15    1    3    3    0    0  0.12808985345E+03 -0.27964457065E+03  0.17519806728E+03  0.35398533438E+03  0.17770000000E+01 0. -1.
         15    1    3    3    0    0  0.11904524724E+03 -0.75725616453E+02  0.49975694119E+02  0.14968923678E+03  0.17770000000E+01 0. -1.
</event>
<event>
 8    1  0.2370702E-007  0.5036591E+03  0.7546771E-02  0.9391659E-01
        -11   -1    0    0    0    0  0.00000000000E+00  0.00000000000E+00  0.50000000000E+03  0.50000000000E+03  0.00000000000E+00 0.  1.
         11   -1    0    0    0    0 -0.00000000000E+00 -0.00000000000E+00 -0.50000000000E+03  0.50000000000E+03  0.00000000000E+00 0. -1.
         25    2    1    2    0    0 -0.42597031768E+03  0.23439096350E+03  0.40713589770E+02  0.50365911532E+03  0.12500029095E+03 0.  0.
         23    2    1    2    0    0  0.42597031768E+03 -0.23439096350E+03 -0.40713589770E+02  0.49634088468E+03  0.91141878974E+02 0.  0.
        -11    1    4    4    0    0  0.13268102456E+03 -0.60723986458E+02 -0.53067508108E+02  0.15526692251E+03  0.00000000000E+00 0. -1.
         11    1    4    4    0    0  0.29328929311E+03 -0.17366697704E+03  0.12353918338E+02  0.34107396217E+03  0.00000000000E+00 0.  1.
        -15    1    3    3    0    0 -0.12724441708E+02  0.16450460305E+02  0.29738702032E+02  0.36332866507E+02  0.17770000000E+01 0.  1.
         15    1    3    3    0    0 -0.41324587597E+03  0.21794050320E+03  0.10974887737E+02  0.46732624881E+03  0.17770000000E+01 0.  1.
</event>
<event>
 8    1  0.2370702E-007  0.5036191E+03  0.7546771E-02  0.9391748E-01
        -11   -1    0    0    0    0  0.00000000000E+00  0.00000000000E+00  0.50000000000E+03  0.50000000000E+03  0.00000000000E+00 0.  1.
         11   -1    0    0    0    0 -0.00000000000E+00 -0.00000000000E+00 -0.50000000000E+03  0.50000000000E+03  0.00000000000E+00 0. -1.
         25    2    1    2    0    0 -0.53069889764E+02 -0.34381179743E+03 -0.34202813080E+03  0.50361909619E+03  0.12500394611E+03 0.  0.
         23    2    1    2    0    0  0.53069889764E+02  0.34381179743E+03  0.34202813080E+03  0.49638090381E+03  0.91584901352E+02 0.  0.
        -11    1    4    4    0    0  0.25590742959E+02  0.31459785233E+03  0.32425325025E+03  0.45251172926E+03  0.00000000000E+00 0.  1.
         11    1    4    4    0    0  0.27479146805E+02  0.29213945092E+02  0.17774880552E+02  0.43869174549E+02  0.00000000000E+00 0. -1.
        -15    1    3    3    0    0 -0.86930205537E+02 -0.25890823158E+03 -0.21753892356E+03  0.34916568274E+03  0.17770000000E+01 0.  1.
         15    1    3    3    0    0  0.33860315772E+02 -0.84903565847E+02 -0.12448920724E+03  0.15445341345E+03  0.17770000000E+01 0.  1.
</event>
<event>
 8    1  0.2370702E-007  0.5026445E+03  0.7546771E-02  0.9393912E-01
        -11   -1    0    0    0    0  0.00000000000E+00  0.00000000000E+00  0.50000000000E+03  0.50000000000E+03  0.00000000000E+00 0. -1.
         11   -1    0    0    0    0 -0.00000000000E+00 -0.00000000000E+00 -0.50000000000E+03  0.50000000000E+03  0.00000000000E+00 0.  1.
         25    2    1    2    0    0 -0.29152533608E+03  0.26781459447E+03  0.28339957779E+03  0.50264446553E+03  0.12499783779E+03 0.  0.
         23    2    1    2    0    0  0.29152533608E+03 -0.26781459447E+03 -0.28339957779E+03  0.49735553447E+03  0.10166380078E+03 0.  0.
        -11    1    4    4    0    0  0.13808771776E+03 -0.15030056059E+03 -0.20350818195E+03  0.28822570397E+03  0.00000000000E+00 0.  1.
         11    1    4    4    0    0  0.15343761832E+03 -0.11751403388E+03 -0.79891395839E+02  0.20912983050E+03  0.00000000000E+00 0. -1.
        -15    1    3    3    0    0 -0.14555247688E+02  0.76363001649E+02  0.42281432194E+02  0.88510115204E+02  0.17770000000E+01 0.  1.
         15    1    3    3    0    0 -0.27697008839E+03  0.19145159282E+03  0.24111814560E+03  0.41413435033E+03  0.17770000000E+01 0.  1.
</event>
<event>
 8    1  0.2370702E-007  0.5042919E+03  0.7546771E-02  0.9390257E-01
        -11   -1    0    0    0    0  0.00000000000E+00  0.00000000000E+00  0.50000000000E+03  0.50000000000E+03  0.00000000000E+00 0. -1.
         11   -1    0    0    0    0 -0.00000000000E+00 -0.00000000000E+00 -0.50000000000E+03  0.50000000000E+03  0.00000000000E+00 0.  1.
         25    2    1    2    0    0  0.24883852991E+03 -0.35778267105E+03  0.22080954404E+03  0.50429188619E+03  0.12499759225E+03 0.  0.
         23    2    1    2    0    0 -0.24883852991E+03  0.35778267105E+03 -0.22080954404E+03  0.49570811381E+03  0.83908436310E+02 0.  0.
        -11    1    4    4    0    0 -0.25112445789E+03  0.33506909743E+03 -0.21966673996E+03  0.47285121344E+03  0.00000000000E+00 0. -1.
         11    1    4    4    0    0  0.22859279877E+01  0.22713573619E+02 -0.11428040846E+01  0.22856900369E+02  0.00000000000E+00 0.  1.
        -15    1    3    3    0    0  0.20512996480E+03 -0.19786163106E+03  0.11338436099E+03  0.30673555150E+03  0.17770000000E+01 0. -1.
         15    1    3    3    0    0  0.43708565103E+02 -0.15992104000E+03  0.10742518305E+03  0.19755633470E+03  0.17770000000E+01 0. -1.
</event>
<event>
 8    1  0.2370702E-007  0.5035587E+03  0.7546771E-02  0.9391882E-01
        -11   -1    0    0    0    0  0.00000000000E+00  0.00000000000E+00  0.50000000000E+03  0.50000000000E+03  0.00000000000E+00 0.  1.
         11   -1    0    0    0    0 -0.00000000000E+00 -0.00000000000E+00 -0.50000000000E+03  0.50000000000E+03  0.00000000000E+00 0. -1.
         25    2    1    2    0    0  0.20490408627E+03 -0.31646150376E+02 -0.44154160047E+03  0.50355874865E+03  0.12500105996E+03 0.  0.
         23    2    1    2    0    0 -0.20490408627E+03  0.31646150376E+02  0.44154160047E+03  0.49644125135E+03  0.92237561146E+02 0.  0.
        -11    1    4    4    0    0 -0.16943552808E+03  0.23521872964E+02  0.42152459686E+03  0.45491170840E+03  0.00000000000E+00 0.  1.
         11    1    4    4    0    0 -0.35468558189E+02  0.81242774121E+01  0.20017003614E+02  0.41529542944E+02  0.00000000000E+00 0. -1.
        -15    1    3    3    0    0  0.10888402699E+03  0.30714933689E+02 -0.13393615932E+03  0.17533165997E+03  0.17770000000E+01 0. -1.
         15    1    3    3    0    0  0.96020059282E+02 -0.62361084065E+02 -0.30760544115E+03  0.32822708868E+03  0.17770000000E+01 0. -1.
</event>
<event>
 8    1  0.2370702E-007  0.5036353E+03  0.7546771E-02  0.9391712E-01
        -11   -1    0    0    0    0  0.00000000000E+00  0.00000000000E+00  0.50000000000E+03  0.50000000000E+03  0.00000000000E+00 0. -1.
         11   -1    0    0    0    0 -0.00000000000E+00 -0.00000000000E+00 -0.50000000000E+03  0.50000000000E+03  0.00000000000E+00 0.  1.
         25    2    1    2    0    0 -0.46163911865E+03  0.33633747374E+02 -0.15420969801E+03  0.50363525253E+03  0.12500372714E+03 0.  0.
         23    2    1    2    0    0  0.46163911865E+03 -0.33633747374E+02  0.15420969801E+03  0.49636474747E+03  0.91408023380E+02 0.  0.
        -11    1    4    4    0    0  0.20249320254E+02  0.72414821989E+01 -0.99114638256E+01  0.23679340158E+02  0.00000000000E+00 0.  1.
         11    1    4    4    0    0  0.44138979840E+03 -0.40875229573E+02  0.16412116184E+03  0.47268540731E+03  0.00000000000E+00 0. -1.
        -15    1    3    3    0    0 -0.36257890983E+02  0.28960596299E+02 -0.44473129133E+02  0.64299049296E+02  0.17770000000E+01 0.  1.
         15    1    3    3    0    0 -0.42538122767E+03  0.46731510753E+01 -0.10973656888E+03  0.43933620323E+03  0.17770000000E+01 0.  1.
</event>
<event>
 8    1  0.2370702E-007  0.5036827E+03  0.7546771E-02  0.9391607E-01
        -11   -1    0    0    0    0  0.00000000000E+00  0.00000000000E+00  0.50000000000E+03  0.50000000000E+03  0.00000000000E+00 0.  1.
         11   -1    0    0    0    0 -0.00000000000E+00 -0.00000000000E+00 -0.50000000000E+03  0.50000000000E+03  0.00000000000E+00 0. -1.
         25    2    1    2    0    0 -0.23426632629E+03  0.24552138603E+03  0.35058481855E+03  0.50368265302E+03  0.12500014933E+03 0.  0.
         23    2    1    2    0    0  0.23426632629E+03 -0.24552138603E+03 -0.35058481855E+03  0.49631734698E+03  0.90883063811E+02 0.  0.
        -11    1    4    4    0    0  0.20030564801E+02 -0.66431219536E+02 -0.46778595677E+02  0.83681344808E+02  0.00000000000E+00 0.  1.
         11    1    4    4    0    0  0.21423576148E+03 -0.17909016649E+03 -0.30380622287E+03  0.41263600217E+03  0.00000000000E+00 0. -1.
        -15    1    3    3    0    0 -0.75858343233E+02  0.16230720041E+03  0.21051253016E+03  0.27643588520E+03  0.17770000000E+01 0.  1.
         15    1    3    3    0    0 -0.15840798305E+03  0.83214185616E+02  0.14007228838E+03  0.22724676782E+03  0.17770000000E+01 0.  1.
</event>
<event>
 8    1  0.2370702E-007  0.5028652E+03  0.7546771E-02  0.9393421E-01
        -11   -1    0    0    0    0  0.00000000000E+00  0.00000000000E+00  0.50000000000E+03  0.50000000000E+03  0.00000000000E+00 0.  1.
         11   -1    0    0    0    0 -0.00000000000E+00 -0.00000000000E+00 -0.50000000000E+03  0.50000000000E+03  0.00000000000E+00 0. -1.
         25    2    1    2    0    0  0.28415310805E+03 -0.38786138807E+03  0.77900691063E+02  0.50286522421E+03  0.12500188351E+03 0.  0.
         23    2    1    2    0    0 -0.28415310805E+03  0.38786138807E+03 -0.77900691063E+02  0.49713477579E+03  0.99473727452E+02 0.  0.
        -11    1    4    4    0    0 -0.49275887171E+02  0.21279153511E+02  0.51160162930E+01  0.53917428104E+02  0.00000000000E+00 0.  1.
         11    1    4    4    0    0 -0.23487722088E+03  0.36658223456E+03 -0.83016707356E+02  0.44321734768E+03  0.00000000000E+00 0. -1.
        -15    1    3    3    0    0  0.29576696183E+03 -0.35604039665E+03  0.71919140032E+02  0.46842115685E+03  0.17770000000E+01 0. -1.
         15    1    3    3    0    0 -0.11613853775E+02 -0.31820991422E+02  0.59815510311E+01  0.34444067361E+02  0.17770000000E+01 0. -1.
</event>
<event>
 8    1  0.2370702E-007  0.5034758E+03  0.7546771E-02  0.9392066E-01
        -11   -1    0    0    0    0  0.00000000000E+00  0.00000000000E+00  0.50000000000E+03  0.50000000000E+03  0.00000000000E+00 0.  1.
         11   -1    0    0    0    0 -0.00000000000E+00 -0.00000000000E+00 -0.50000000000E+03  0.50000000000E+03  0.00000000000E+00 0. -1.
         25    2    1    2    0    0 -0.46153612775E+03  0.15744303561E+03  0.77877263934E+01  0.50347578485E+03  0.12499324210E+03 0.  0.
         23    2    1    2    0    0  0.46153612775E+03 -0.15744303561E+03 -0.77877263934E+01  0.49652421515E+03  0.93122182474E+02 0.  0.
        -11    1    4    4    0    0  0.33989407112E+03 -0.71164719347E+02 -0.91505547305E+01  0.34738469960E+03  0.00000000000E+00 0.  1.
         11    1    4    4    0    0  0.12164205663E+03 -0.86278316267E+02  0.13628283372E+01  0.14913951555E+03  0.00000000000E+00 0. -1.
        -15    1    3    3    0    0 -0.17364565996E+01 -0.10710978918E+02  0.84857573345E+01  0.13889066112E+02  0.17770000000E+01 0. -1.
         15    1    3    3    0    0 -0.45979967115E+03  0.16815401453E+03 -0.69803094118E+00  0.48958671874E+03  0.17770000000E+01 0. -1.
</event>
<event>
 8    1  0.2370702E-007  0.5037339E+03  0.7546771E-02  0.9391493E-01
        -11   -1    0    0    0    0  0.00000000000E+00  0.00000000000E+00  0.50000000000E+03  0.50000000000E+03  0.00000000000E+00 0.  1.
         11   -1    0    0    0    0 -0.00000000000E+00 -0.00000000000E+00 -0.50000000000E+03  0.50000000000E+03  0.00000000000E+00 0. -1.
         25    2    1    2    0    0  0.17145349807E+03  0.48468319986E+02  0.45428747489E+03  0.50373388227E+03  0.12500093706E+03 0.  0.
         23    2    1    2    0    0 -0.17145349807E+03 -0.48468319986E+02 -0.45428747489E+03  0.49626611773E+03  0.90318711919E+02 0.  0.
        -11    1    4    4    0    0 -0.93754455365E+02  0.19640435975E+02 -0.23848526335E+03  0.25700362928E+03  0.00000000000E+00 0. -1.
         11    1    4    4    0    0 -0.77699042704E+02 -0.68108755960E+02 -0.21580221153E+03  0.23926248845E+03  0.00000000000E+00 0.  1.
        -15    1    3    3    0    0 -0.95664774496E+01  0.32747666398E+02  0.98017436927E+02  0.10380030258E+03  0.17770000000E+01 0.  1.
         15    1    3    3    0    0  0.18101997552E+03  0.15720653588E+02  0.35627003796E+03  0.39993357969E+03  0.17770000000E+01 0.  1.
</event>
<event>
 8    1  0.2370702E-007  0.5036260E+03  0.7546771E-02  0.9391733E-01
        -11   -1    0    0    0    0  0.00000000000E+00  0.00000000000E+00  0.50000000000E+03  0.50000000000E+03  0.00000000000E+00 0. -1.
         11   -1    0    0    0    0 -0.00000000000E+00 -0.00000000000E+00 -0.50000000000E+03  0.50000000000E+03  0.00000000000E+00 0.  1.
         25    2    1    2    0    0 -0.27664348800E+03 -0.33416889951E+03  0.22318948160E+03  0.50362597328E+03  0.12500041362E+03 0.  0.
         23    2    1    2    0    0  0.27664348800E+03  0.33416889951E+03 -0.22318948160E+03  0.49637402672E+03  0.91504955338E+02 0.  0.
        -11    1    4    4    0    0  0.10897190201E+03  0.71775396455E+02 -0.47655345344E+02  0.13891585548E+03  0.00000000000E+00 0. -1.
         11    1    4    4    0    0  0.16767158599E+03  0.26239350306E+03 -0.17553413626E+03  0.35745817124E+03  0.00000000000E+00 0.  1.
        -15    1    3    3    0    0 -0.10766588624E+03 -0.50620201468E+02  0.82611387872E+02  0.14485215563E+03  0.17770000000E+01 0. -1.
         15    1    3    3    0    0 -0.16897760176E+03 -0.28354869804E+03  0.14057809373E+03  0.35877381764E+03  0.17770000000E+01 0. -1.
</event>
<event>
 8    1  0.2370702E-007  0.5037298E+03  0.7546771E-02  0.9391503E-01
        -11   -1    0    0    0    0  0.00000000000E+00  0.00000000000E+00  0.50000000000E+03  0.50000000000E+03  0.00000000000E+00 0.  1.
         11   -1    0    0    0    0 -0.00000000000E+00 -0.00000000000E+00 -0.50000000000E+03  0.50000000000E+03  0.00000000000E+00 0. -1.
         25    2    1    2    0    0 -0.61934684449E+02 -0.15353475115E+03 -0.45903317437E+03  0.50372976426E+03  0.12499358093E+03 0.  0.
         23    2    1    2    0    0  0.61934684449E+02  0.15353475115E+03  0.45903317437E+03  0.49627023574E+03  0.90354118660E+02 0.  0.
        -11    1    4    4    0    0  0.62564723694E+02  0.12378338737E+03  0.25681585597E+03  0.29187506834E+03  0.00000000000E+00 0. -1.
         11    1    4    4    0    0 -0.63003924513E+00  0.29751363787E+02  0.20221731840E+03  0.20439516740E+03  0.00000000000E+00 0.  1.
        -15    1    3    3    0    0 -0.71678849054E+02 -0.51775497552E+02 -0.11651932061E+03  0.14628215664E+03  0.17770000000E+01 0.  1.
         15    1    3    3    0    0  0.97441646058E+01 -0.10175925360E+03 -0.34251385377E+03  0.35744760761E+03  0.17770000000E+01 0.  1.
</event>
<event>
 8    1  0.2370702E-007  0.5038756E+03  0.7546771E-02  0.9391179E-01
        -11   -1    0    0    0    0  0.00000000000E+00  0.00000000000E+00  0.50000000000E+03  0.50000000000E+03  0.00000000000E+00 0.  1.
         11   -1    0    0    0    0 -0.00000000000E+00 -0.00000000000E+00 -0.50000000000E+03  0.50000000000E+03  0.00000000000E+00 0. -1.
         25    2    1    2    0    0 -0.18776825166E+03  0.35791381306E+03 -0.27369054541E+03  0.50387556784E+03  0.12499943725E+03 0.  0.
         23    2    1    2    0    0  0.18776825166E+03 -0.35791381306E+03  0.27369054541E+03  0.49612443216E+03  0.88734004943E+02 0.  0.
        -11    1    4    4    0    0  0.14349670980E+03 -0.30757712800E+03  0.19024098854E+03  0.38908434703E+03  0.00000000000E+00 0. -1.
         11    1    4    4    0    0  0.44271541861E+02 -0.50336685063E+02  0.83449556870E+02  0.10704008513E+03  0.00000000000E+00 0.  1.
        -15    1    3    3    0    0 -0.10551493825E+03  0.30910950677E+03 -0.22422137247E+03  0.39618237085E+03  0.17770000000E+01 0. -1.
         15    1    3    3    0    0 -0.82253313406E+02  0.48804306293E+02 -0.49469172935E+02  0.10769319699E+03  0.17770000000E+01 0. -1.
</event>
<event>
 8    1  0.2370702E-007  0.5035904E+03  0.7546771E-02  0.9391812E-01
        -11   -1    0    0    0    0  0.00000000000E+00  0.00000000000E+00  0.50000000000E+03  0.50000000000E+03  0.00000000000E+00 0.  1.
         11   -1    0    0    0    0 -0.00000000000E+00 -0.00000000000E+00 -0.50000000000E+03  0.50000000000E+03  0.00000000000E+00 0. -1.
         25    2    1    2    0    0 -0.29817563335E+03  0.35369914116E+03  0.15481502865E+03  0.50359042381E+03  0.12499532425E+03 0.  0.
         23    2    1    2    0    0  0.29817563335E+03 -0.35369914116E+03 -0.15481502865E+03  0.49640957619E+03  0.91885708688E+02 0.  0.
        -11    1    4    4    0    0  0.27015407824E+03 -0.28582781839E+03 -0.15565437253E+03  0.42297641949E+03  0.00000000000E+00 0.  1.
         11    1    4    4    0    0  0.28021555106E+02 -0.67871322768E+02  0.83934388694E+00  0.73433156700E+02  0.00000000000E+00 0. -1.
        -15    1    3    3    0    0 -0.10994741291E+02  0.44413469135E+01 -0.16206283664E+02  0.20159644284E+02  0.17770000000E+01 0. -1.
         15    1    3    3    0    0 -0.28718089206E+03  0.34925779424E+03  0.17102131231E+03  0.48343077953E+03  0.17770000000E+01 0. -1.
</event>
<event>
 8    1  0.2370702E-007  0.5036848E+03  0.7546771E-02  0.9391602E-01
        -11   -1    0    0    0    0  0.00000000000E+00  0.00000000000E+00  0.50000000000E+03  0.50000000000E+03  0.00000000000E+00 0.  1.
         11   -1    0    0    0    0 -0.00000000000E+00 -0.00000000000E+00 -0.50000000000E+03  0.50000000000E+03  0.00000000000E+00 0. -1.
         25    2    1    2    0    0 -0.39202149328E+03 -0.28468208944E+03 -0.57870061516E+02  0.50368475633E+03  0.12499858599E+03 0.  0.
         23    2    1    2    0    0  0.39202149328E+03  0.28468208944E+03  0.57870061516E+02  0.49631524367E+03  0.90857767052E+02 0.  0.
        -11    1    4    4    0    0  0.24831515216E+03  0.23200004352E+03  0.42872627284E+02  0.34252371765E+03  0.00000000000E+00 0.  1.
         11    1    4    4    0    0  0.14370634112E+03  0.52682045929E+02  0.14997434232E+02  0.15379152601E+03  0.00000000000E+00 0. -1.
        -15    1    3    3    0    0 -0.89352127172E+02 -0.13484665709E+03 -0.50846148741E+01  0.16185312662E+03  0.17770000000E+01 0. -1.
         15    1    3    3    0    0 -0.30266936611E+03 -0.14983543235E+03 -0.52785446642E+02  0.34183162971E+03  0.17770000000E+01 0. -1.
</event>
<event>
 8    1  0.2370702E-007  0.5038134E+03  0.7546771E-02  0.9391317E-01
        -11   -1    0    0    0    0  0.00000000000E+00  0.00000000000E+00  0.50000000000E+03  0.50000000000E+03  0.00000000000E+00 0.  1.
         11   -1    0    0    0    0 -0.00000000000E+00 -0.00000000000E+00 -0.50000000000E+03  0.50000000000E+03  0.00000000000E+00 0. -1.
         25    2    1    2    0    0  0.39185334067E+03 -0.18336523547E+03  0.22590065402E+03  0.50381336566E+03  0.12499980704E+03 0.  0.
         23    2    1    2    0    0 -0.39185334067E+03  0.18336523547E+03 -0.22590065402E+03  0.49618663434E+03  0.89432770459E+02 0.  0.
        -11    1    4    4    0    0 -0.33628855219E+03  0.16931953389E+03 -0.16067879579E+03  0.40936141771E+03  0.00000000000E+00 0.  1.
         11    1    4    4    0    0 -0.55564788483E+02  0.14045701582E+02 -0.65221858227E+02  0.86825216629E+02  0.00000000000E+00 0. -1.
        -15    1    3    3    0    0  0.29177127346E+03 -0.18779008333E+03  0.14954218924E+03  0.37783808107E+03  0.17770000000E+01 0.  1.
         15    1    3    3    0    0  0.10008206721E+03  0.44248478611E+01  0.76358464782E+02  0.12597528460E+03  0.17770000000E+01 0.  1.
</event>
<event>
 8    1  0.2370702E-007  0.5029970E+03  0.7546771E-02  0.9393129E-01
        -11   -1    0    0    0    0  0.00000000000E+00  0.00000000000E+00  0.50000000000E+03  0.50000000000E+03  0.00000000000E+00 0.  1.
         11   -1    0    0    0    0 -0.00000000000E+00 -0.00000000000E+00 -0.50000000000E+03  0.50000000000E+03  0.00000000000E+00 0. -1.
         25    2    1    2    0    0  0.23223821773E+03  0.41936831731E+03 -0.87039443993E+02  0.50299695803E+03  0.12500279854E+03 0.  0.
         23    2    1    2    0    0 -0.23223821773E+03 -0.41936831731E+03  0.87039443993E+02  0.49700304197E+03  0.98141650578E+02 0.  0.
        -11    1    4    4    0    0 -0.17023366062E+03 -0.25264559286E+03  0.94503030566E+02  0.31896726727E+03  0.00000000000E+00 0.  1.
         11    1    4    4    0    0 -0.62004557108E+02 -0.16672272444E+03 -0.74635865728E+01  0.17803577470E+03  0.00000000000E+00 0. -1.
        -15    1    3    3    0    0 -0.38805109539E+01  0.68547923800E+02  0.92193899631E+01  0.69296688975E+02  0.17770000000E+01 0. -1.
         15    1    3    3    0    0  0.23611872869E+03  0.35082039351E+03 -0.96258833956E+02  0.43370026906E+03  0.17770000000E+01 0. -1.
</event>
<event>
 8    1  0.2370702E-007  0.5036694E+03  0.7546771E-02  0.9391636E-01
        -11   -1    0    0    0    0  0.00000000000E+00  0.00000000000E+00  0.50000000000E+03  0.50000000000E+03  0.00000000000E+00 0.  1.
         11   -1    0    0    0    0 -0.00000000000E+00 -0.00000000000E+00 -0.50000000000E+03  0.50000000000E+03  0.00000000000E+00 0. -1.
         25    2    1    2    0    0  0.45391085628E+03 -0.88124210980E+02 -0.15574974191E+03  0.50366935570E+03  0.12499558296E+03 0.  0.
         23    2    1    2    0    0 -0.45391085628E+03  0.88124210980E+02  0.15574974191E+03  0.49633064430E+03  0.91022988051E+02 0.  0.
        -11    1    4    4    0    0 -0.11549237500E+03  0.56076113873E+02  0.67873010692E+02  0.14522315521E+03  0.00000000000E+00 0. -1.
         11    1    4    4    0    0 -0.33841848128E+03  0.32048097107E+02  0.87876731222E+02  0.35110748908E+03  0.00000000000E+00 0.  1.
        -15    1    3    3    0    0  0.15507765586E+03 -0.21339485901E+02 -0.11610169702E+03  0.19490309075E+03  0.17770000000E+01 0. -1.
         15    1    3    3    0    0  0.29883320042E+03 -0.66784725079E+02 -0.39648044893E+02  0.30876626495E+03  0.17770000000E+01 0. -1.
</event>
<event>
 8    1  0.2370702E-007  0.5035969E+03  0.7546771E-02  0.9391797E-01
        -11   -1    0    0    0    0  0.00000000000E+00  0.00000000000E+00  0.50000000000E+03  0.50000000000E+03  0.00000000000E+00 0.  1.
         11   -1    0    0    0    0 -0.00000000000E+00 -0.00000000000E+00 -0.50000000000E+03  0.50000000000E+03  0.00000000000E+00 0. -1.
         25    2    1    2    0    0 -0.39470198027E+03 -0.56497202140E+02 -0.28107504938E+03  0.50359692322E+03  0.12500036248E+03 0.  0.
         23    2    1    2    0    0  0.39470198027E+03  0.56497202140E+02  0.28107504938E+03  0.49640307678E+03  0.91821806621E+02 0.  0.
        -11    1    4    4    0    0  0.13813777223E+03  0.47209303191E+02  0.60848875226E+02  0.15815608759E+03  0.00000000000E+00 0. -1.
         11    1    4    4    0    0  0.25656420804E+03  0.92878989490E+01  0.22022617415E+03  0.33824698919E+03  0.00000000000E+00 0.  1.
        -15    1    3    3    0    0 -0.10728269975E+03  0.37065588660E+02 -0.99707190345E+02  0.15108976492E+03  0.17770000000E+01 0. -1.
         15    1    3    3    0    0 -0.28741928051E+03 -0.93562790800E+02 -0.18136785903E+03  0.35250715830E+03  0.17770000000E+01 0. -1.
</event>
<event>
 8    1  0.2370702E-007  0.5036241E+03  0.7546771E-02  0.9391737E-01
        -11   -1    0    0    0    0  0.00000000000E+00  0.00000000000E+00  0.50000000000E+03  0.50000000000E+03  0.00000000000E+00 0. -1.
         11   -1    0    0    0    0 -0.00000000000E+00 -0.00000000000E+00 -0.50000000000E+03  0.50000000000E+03  0.00000000000E+00 0.  1.
         25    2    1    2    0    0 -0.28776886297E+03  0.89485220856E+01 -0.39385316121E+03  0.50362414055E+03  0.12500387119E+03 0.  0.
         23    2    1    2    0    0  0.28776886297E+03 -0.89485220856E+01  0.39385316121E+03  0.49637585945E+03  0.91529703946E+02 0.  0.
        -11    1    4    4    0    0  0.23347307852E+03 -0.30363853407E+02  0.26236344333E+03  0.35251413927E+03  0.00000000000E+00 0. -1.
         11    1    4    4    0    0  0.54295784446E+02  0.21415331322E+02  0.13148971788E+03  0.14386172018E+03  0.00000000000E+00 0.  1.
        -15    1    3    3    0    0 -0.86889213263E+02  0.42036355649E+02 -0.63430025086E+02  0.11551327365E+03  0.17770000000E+01 0.  1.
         15    1    3    3    0    0 -0.20087964970E+03 -0.33087833563E+02 -0.33042313612E+03  0.38811086691E+03  0.17770000000E+01 0.  1.
</event>
<event>
 8    1  0.2370702E-007  0.5034077E+03  0.7546771E-02  0.9392217E-01
        -11   -1    0    0    0    0  0.00000000000E+00  0.00000000000E+00  0.50000000000E+03  0.50000000000E+03  0.00000000000E+00 0. -1.
         11   -1    0    0    0    0 -0.00000000000E+00 -0.00000000000E+00 -0.50000000000E+03  0.50000000000E+03  0.00000000000E+00 0.  1.
         25    2    1    2    0    0  0.13186205215E+03 -0.21947718168E+03  0.41501434277E+03  0.50340766987E+03  0.12499817317E+03 0.  0.
         23    2    1    2    0    0 -0.13186205215E+03  0.21947718168E+03 -0.41501434277E+03  0.49659233013E+03  0.93857357536E+02 0.  0.
        -11    1    4    4    0    0 -0.10840531685E+02  0.18088041717E+02 -0.10773379947E+03  0.10977825799E+03  0.00000000000E+00 0.  1.
         11    1    4    4    0    0 -0.12102152047E+03  0.20138913996E+03 -0.30728054331E+03  0.38681407214E+03  0.00000000000E+00 0. -1.
        -15    1    3    3    0    0  0.32748971373E+02 -0.16020742991E+03  0.19154319845E+03  0.25185485965E+03  0.17770000000E+01 0. -1.
         15    1    3    3    0    0  0.99113080779E+02 -0.59269751768E+02  0.22347114432E+03  0.25155281022E+03  0.17770000000E+01 0. -1.
</event>
<event>
 8    1  0.2370702E-007  0.5030074E+03  0.7546771E-02  0.9393105E-01
        -11   -1    0    0    0    0  0.00000000000E+00  0.00000000000E+00  0.50000000000E+03  0.50000000000E+03  0.00000000000E+00 0.  1.
         11   -1    0    0    0    0 -0.00000000000E+00 -0.00000000000E+00 -0.50000000000E+03  0.50000000000E+03  0.00000000000E+00 0. -1.
         25    2    1    2    0    0 -0.20032864738E+03 -0.43981497662E+03 -0.61834834391E+02  0.50300740392E+03  0.12499648405E+03 0.  0.
         23    2    1    2    0    0  0.20032864738E+03  0.43981497662E+03  0.61834834391E+02  0.49699259608E+03  0.98027104386E+02 0.  0.
        -11    1    4    4    0    0  0.44062177001E+02  0.19730810992E+03  0.10816393270E+01  0.20217105536E+03  0.00000000000E+00 0.  1.
         11    1    4    4    0    0  0.15626647038E+03  0.24250686670E+03  0.60753195064E+02  0.29482154072E+03  0.00000000000E+00 0. -1.
        -15    1    3    3    0    0 -0.64651984835E+02 -0.26206508082E+03 -0.71300621646E+02  0.27918617821E+03  0.17770000000E+01 0.  1.
         15    1    3    3    0    0 -0.13567666255E+03 -0.17774989580E+03  0.94657872554E+01  0.22382122570E+03  0.17770000000E+01 0.  1.
</event>
<event>
 8    1  0.2370702E-007  0.5035314E+03  0.7546771E-02  0.9391943E-01
        -11   -1    0    0    0    0  0.00000000000E+00  0.00000000000E+00  0.50000000000E+03  0.50000000000E+03  0.00000000000E+00 0. -1.
         11   -1    0    0    0    0 -0.00000000000E+00 -0.00000000000E+00 -0.50000000000E+03  0.50000000000E+03  0.00000000000E+00 0.  1.
         25    2    1    2    0    0 -0.28406333593E+03 -0.35089350621E+03 -0.18467062319E+03  0.50353136546E+03  0.12498946118E+03 0.  0.
         23    2    1    2    0    0  0.28406333593E+03  0.35089350621E+03  0.18467062319E+03  0.49646863454E+03  0.92518292739E+02 0.  0.
        -11    1    4    4    0    0  0.14336731266E+03  0.24667060949E+03  0.12496535207E+03  0.31147538449E+03  0.00000000000E+00 0. -1.
         11    1    4    4    0    0  0.14069602327E+03  0.10422289673E+03  0.59705271119E+02  0.18499325005E+03  0.00000000000E+00 0.  1.
        -15    1    3    3    0    0 -0.23424669991E+03 -0.34520729350E+03 -0.15384734368E+03  0.44464789980E+03  0.17770000000E+01 0.  1.
         15    1    3    3    0    0 -0.49816636022E+02 -0.56862127101E+01 -0.30823279507E+02  0.58883465660E+02  0.17770000000E+01 0.  1.
</event>
<event>
 8    1  0.2370702E-007  0.5026326E+03  0.7546771E-02  0.9393938E-01
        -11   -1    0    0    0    0  0.00000000000E+00  0.00000000000E+00  0.50000000000E+03  0.50000000000E+03  0.00000000000E+00 0.  1.
         11   -1    0    0    0    0 -0.00000000000E+00 -0.00000000000E+00 -0.50000000000E+03  0.50000000000E+03  0.00000000000E+00 0. -1.
         25    2    1    2    0    0  0.56300668543E+02 -0.20850510917E+03 -0.43631350170E+03  0.50263258156E+03  0.12500357773E+03 0.  0.
         23    2    1    2    0    0 -0.56300668543E+02  0.20850510917E+03  0.43631350170E+03  0.49736741844E+03  0.10178767769E+03 0.  0.
        -11    1    4    4    0    0 -0.14511179342E+02  0.15002277889E+03  0.37020155824E+03  0.39970814632E+03  0.00000000000E+00 0.  1.
         11    1    4    4    0    0 -0.41789489201E+02  0.58482330281E+02  0.66111943467E+02  0.97659272124E+02  0.00000000000E+00 0. -1.
        -15    1    3    3    0    0  0.44557505807E+02 -0.30583999379E+02 -0.37600048881E+02  0.65861018414E+02  0.17770000000E+01 0.  1.
         15    1    3    3    0    0  0.11743162737E+02 -0.17792110980E+03 -0.39871345282E+03  0.43677156314E+03  0.17770000000E+01 0.  1.
</event>
<event>
 8    1  0.2370702E-007  0.5038370E+03  0.7546771E-02  0.9391265E-01
        -11   -1    0    0    0    0  0.00000000000E+00  0.00000000000E+00  0.50000000000E+03  0.50000000000E+03  0.00000000000E+00 0.  1.
         11   -1    0    0    0    0 -0.00000000000E+00 -0.00000000000E+00 -0.50000000000E+03  0.50000000000E+03  0.00000000000E+00 0. -1.
         25    2    1    2    0    0 -0.32349626096E+03 -0.31654790307E+03 -0.18268786646E+03  0.50383698466E+03  0.12499777904E+03 0.  0.
         23    2    1    2    0    0  0.32349626096E+03  0.31654790307E+03  0.18268786646E+03  0.49616301534E+03  0.89165438619E+02 0.  0.
        -11    1    4    4    0    0  0.24550170110E+03  0.19981420589E+03  0.94389881860E+02  0.33031235507E+03  0.00000000000E+00 0.  1.
         11    1    4    4    0    0  0.77994559866E+02  0.11673369718E+03  0.88297984602E+02  0.16585066027E+03  0.00000000000E+00 0. -1.
        -15    1    3    3    0    0 -0.12736061791E+03 -0.10570422407E+03 -0.52810397680E+01  0.16560542591E+03  0.17770000000E+01 0. -1.
         15    1    3    3    0    0 -0.19613564306E+03 -0.21084367900E+03 -0.17740682669E+03  0.33823155875E+03  0.17770000000E+01 0. -1.
</event>
<event>
 8    1  0.2370702E-007  0.5035207E+03  0.7546771E-02  0.9391966E-01
        -11   -1    0    0    0    0  0.00000000000E+00  0.00000000000E+00  0.50000000000E+03  0.50000000000E+03  0.00000000000E+00 0.  1.
         11   -1    0    0    0    0 -0.00000000000E+00 -0.00000000000E+00 -0.50000000000E+03  0.50000000000E+03  0.00000000000E+00 0. -1.
         25    2    1    2    0    0 -0.43808107038E+03 -0.17562828869E+03 -0.12307638672E+03  0.50352072191E+03  0.12500000163E+03 0.  0.
         23    2    1    2    0    0  0.43808107038E+03  0.17562828869E+03  0.12307638672E+03  0.49647927809E+03  0.92647485618E+02 0.  0.
        -11    1    4    4    0    0  0.15040390376E+03  0.76596257518E+02  0.87625595216E+02  0.19017509266E+03  0.00000000000E+00 0.  1.
         11    1    4    4    0    0  0.28767716662E+03  0.99032031176E+02  0.35450791505E+02  0.30630418543E+03  0.00000000000E+00 0. -1.
        -15    1    3    3    0    0 -0.33333565842E+03 -0.17824571319E+03 -0.12667674906E+03  0.39866571451E+03  0.17770000000E+01 0.  1.
         15    1    3    3    0    0 -0.10474541196E+03  0.26174245000E+01  0.36003623373E+01  0.10485500740E+03  0.17770000000E+01 0.  1.
</event>
<event>
 8    1  0.2370702E-007  0.5030561E+03  0.7546771E-02  0.9392997E-01
        -11   -1    0    0    0    0  0.00000000000E+00  0.00000000000E+00  0.50000000000E+03  0.50000000000E+03  0.00000000000E+00 0.  1.
         11   -1    0    0    0    0 -0.00000000000E+00 -0.00000000000E+00 -0.50000000000E+03  0.50000000000E+03  0.00000000000E+00 0. -1.
         25    2    1    2    0    0  0.79461644087E+02 -0.47315257082E+03  0.85165693123E+02  0.50305607725E+03  0.12499885368E+03 0.  0.
         23    2    1    2    0    0 -0.79461644087E+02  0.47315257082E+03 -0.85165693123E+02  0.49694392275E+03  0.97532348046E+02 0.  0.
        -11    1    4    4    0    0  0.19566571328E+02  0.15110597588E+03 -0.18538376827E+02  0.15349116612E+03  0.00000000000E+00 0.  1.
         11    1    4    4    0    0 -0.99028215415E+02  0.32204659494E+03 -0.66627316296E+02  0.34345275663E+03  0.00000000000E+00 0. -1.
        -15    1    3    3    0    0  0.10789212330E+03 -0.43448351739E+03  0.74174913760E+02  0.45378597677E+03  0.17770000000E+01 0.  1.
         15    1    3    3    0    0 -0.28430479214E+02 -0.38669053434E+02  0.10990779364E+02  0.49270100485E+02  0.17770000000E+01 0.  1.
</event>
<event>
 8    1  0.2370702E-007  0.5038287E+03  0.7546771E-02  0.9391283E-01
        -11   -1    0    0    0    0  0.00000000000E+00  0.00000000000E+00  0.50000000000E+03  0.50000000000E+03  0.00000000000E+00 0.  1.
         11   -1    0    0    0    0 -0.00000000000E+00 -0.00000000000E+00 -0.50000000000E+03  0.50000000000E+03  0.00000000000E+00 0. -1.
         25    2    1    2    0    0  0.40277435170E+03  0.27208085616E+03  0.44337572643E+02  0.50382870930E+03  0.12498950869E+03 0.  0.
         23    2    1    2    0    0 -0.40277435170E+03 -0.27208085616E+03 -0.44337572643E+02  0.49617129070E+03  0.89246617258E+02 0.  0.
        -11    1    4    4    0    0 -0.14492103341E+02 -0.27011729315E+02  0.13299085782E+02  0.33414372095E+02  0.00000000000E+00 0.  1.
         11    1    4    4    0    0 -0.38828224836E+03 -0.24506912684E+03 -0.57636658425E+02  0.46275691861E+03  0.00000000000E+00 0. -1.
        -15    1    3    3    0    0  0.12266501596E+03  0.22879554499E+02 -0.90727845997E+01  0.12512255314E+03  0.17770000000E+01 0. -1.
         15    1    3    3    0    0  0.28010933574E+03  0.24920130166E+03  0.53410357243E+02  0.37870615615E+03  0.17770000000E+01 0. -1.
</event>
<event>
 8    1  0.2370702E-007  0.5036963E+03  0.7546771E-02  0.9391577E-01
        -11   -1    0    0    0    0  0.00000000000E+00  0.00000000000E+00  0.50000000000E+03  0.50000000000E+03  0.00000000000E+00 0. -1.
         11   -1    0    0    0    0 -0.00000000000E+00 -0.00000000000E+00 -0.50000000000E+03  0.50000000000E+03  0.00000000000E+00 0.  1.
         25    2    1    2    0    0 -0.27887140737E+03 -0.36813743764E+03 -0.15743664917E+03  0.50369633327E+03  0.12501705003E+03 0.  0.
         23    2    1    2    0    0  0.27887140737E+03  0.36813743764E+03  0.15743664917E+03  0.49630366673E+03  0.90755695507E+02 0.  0.
        -11    1    4    4    0    0  0.25079611816E+03  0.28284579529E+03  0.10505402986E+03  0.39234778703E+03  0.00000000000E+00 0.  1.
         11    1    4    4    0    0  0.28075289217E+02  0.85291642351E+02  0.52382619309E+02  0.10395587971E+03  0.00000000000E+00 0. -1.
        -15    1    3    3    0    0 -0.19085821786E+03 -0.28231428466E+03 -0.58232981050E+02  0.34572019389E+03  0.17770000000E+01 0. -1.
         15    1    3    3    0    0 -0.88013189510E+02 -0.85823152982E+02 -0.99203668119E+02  0.15797613938E+03  0.17770000000E+01 0. -1.
</event>
<event>
 8    1  0.2370702E-007  0.5035268E+03  0.7546771E-02  0.9391953E-01
        -11   -1    0    0    0    0  0.00000000000E+00  0.00000000000E+00  0.50000000000E+03  0.50000000000E+03  0.00000000000E+00 0.  1.
         11   -1    0    0    0    0 -0.00000000000E+00 -0.00000000000E+00 -0.50000000000E+03  0.50000000000E+03  0.00000000000E+00 0. -1.
         25    2    1    2    0    0 -0.77370273039E+02 -0.44551262386E+03  0.18288030685E+03  0.50352682208E+03  0.12500558691E+03 0.  0.
         23    2    1    2    0    0  0.77370273039E+02  0.44551262386E+03 -0.18288030685E+03  0.49647317792E+03  0.92589160217E+02 0.  0.
        -11    1    4    4    0    0 -0.11532383369E+02  0.19919623162E+03 -0.85652325363E+02  0.21713695079E+03  0.00000000000E+00 0. -1.
         11    1    4    4    0    0  0.88902656408E+02  0.24631639223E+03 -0.97227981482E+02  0.27933622712E+03  0.00000000000E+00 0.  1.
        -15    1    3    3    0    0 -0.76050098072E+02 -0.15427822229E+03  0.10694244430E+03  0.20254686226E+03  0.17770000000E+01 0. -1.
         15    1    3    3    0    0 -0.13201749674E+01 -0.29123440157E+03  0.75937862547E+02  0.30097995982E+03  0.17770000000E+01 0. -1.
</event>
<event>
 8    1  0.2370702E-007  0.5037156E+03  0.7546771E-02  0.9391534E-01
        -11   -1    0    0    0    0  0.00000000000E+00  0.00000000000E+00  0.50000000000E+03  0.50000000000E+03  0.00000000000E+00 0.  1.
         11   -1    0    0    0    0 -0.00000000000E+00 -0.00000000000E+00 -0.50000000000E+03  0.50000000000E+03  0.00000000000E+00 0. -1.
         25    2    1    2    0    0 -0.41317363056E+03  0.25810757502E+03 -0.27782072428E+02  0.50371555629E+03  0.12500219528E+03 0.  0.
         23    2    1    2    0    0  0.41317363056E+03 -0.25810757502E+03  0.27782072428E+02  0.49628444371E+03  0.90523125502E+02 0.  0.
        -11    1    4    4    0    0  0.33966262696E+03 -0.17450032536E+03  0.13785833206E+01  0.38186773129E+03  0.00000000000E+00 0. -1.
         11    1    4    4    0    0  0.73511003600E+02 -0.83607249660E+02  0.26403489107E+02  0.11441671243E+03  0.00000000000E+00 0.  1.
        -15    1    3    3    0    0 -0.18853411310E+03  0.17758939664E+03 -0.50878723977E+02  0.26396004979E+03  0.17770000000E+01 0.  1.
         15    1    3    3    0    0 -0.22463951746E+03  0.80518178375E+02  0.23096651549E+02  0.23975550650E+03  0.17770000000E+01 0.  1.
</event>
<event>
 8    1  0.2370702E-007  0.5031832E+03  0.7546771E-02  0.9392715E-01
        -11   -1    0    0    0    0  0.00000000000E+00  0.00000000000E+00  0.50000000000E+03  0.50000000000E+03  0.00000000000E+00 0.  1.
         11   -1    0    0    0    0 -0.00000000000E+00 -0.00000000000E+00 -0.50000000000E+03  0.50000000000E+03  0.00000000000E+00 0. -1.
         25    2    1    2    0    0 -0.31327177789E+03 -0.14200503076E+03 -0.34534471261E+03  0.50318318540E+03  0.12500284779E+03 0.  0.
         23    2    1    2    0    0  0.31327177789E+03  0.14200503076E+03  0.34534471261E+03  0.49681681460E+03  0.96225470406E+02 0.  0.
        -11    1    4    4    0    0  0.12911367973E+03  0.11112134639E+03  0.17012446627E+03  0.24075014006E+03  0.00000000000E+00 0. -1.
         11    1    4    4    0    0  0.18415809816E+03  0.30883684367E+02  0.17522024634E+03  0.25606667453E+03  0.00000000000E+00 0.  1.
        -15    1    3    3    0    0 -0.75283286778E+02 -0.96286288895E+02 -0.13684746660E+03  0.18349117020E+03  0.17770000000E+01 0. -1.
         15    1    3    3    0    0 -0.23798849111E+03 -0.45718741867E+02 -0.20849724601E+03  0.31969201520E+03  0.17770000000E+01 0. -1.
</event>
<event>
 8    1  0.2370702E-007  0.5036307E+03  0.7546771E-02  0.9391722E-01
        -11   -1    0    0    0    0  0.00000000000E+00  0.00000000000E+00  0.50000000000E+03  0.50000000000E+03  0.00000000000E+00 0. -1.
         11   -1    0    0    0    0 -0.00000000000E+00 -0.00000000000E+00 -0.50000000000E+03  0.50000000000E+03  0.00000000000E+00 0.  1.
         25    2    1    2    0    0 -0.21616238296E+03  0.14631834963E+03 -0.41217171374E+03  0.50363065454E+03  0.12499231712E+03 0.  0.
         23    2    1    2    0    0  0.21616238296E+03 -0.14631834963E+03  0.41217171374E+03  0.49636934546E+03  0.91442715722E+02 0.  0.
        -11    1    4    4    0    0  0.52167030382E+02 -0.59258785715E+02  0.19660712769E+03  0.21186638573E+03  0.00000000000E+00 0. -1.
         11    1    4    4    0    0  0.16399535257E+03 -0.87059563914E+02  0.21556458605E+03  0.28450295973E+03  0.00000000000E+00 0.  1.
        -15    1    3    3    0    0 -0.53444639598E+02  0.43390838502E+02 -0.28842291045E+02  0.74660095428E+02  0.17770000000E+01 0. -1.
         15    1    3    3    0    0 -0.16271774336E+03  0.10292751113E+03 -0.38332942270E+03  0.42897055911E+03  0.17770000000E+01 0. -1.
</event>
<event>
 8    1  0.2370702E-007  0.5034734E+03  0.7546771E-02  0.9392071E-01
        -11   -1    0    0    0    0  0.00000000000E+00  0.00000000000E+00  0.50000000000E+03  0.50000000000E+03  0.00000000000E+00 0.  1.
         11   -1    0    0    0    0 -0.00000000000E+00 -0.00000000000E+00 -0.50000000000E+03  0.50000000000E+03  0.00000000000E+00 0. -1.
         25    2    1    2    0    0 -0.34199558707E+03  0.31489190606E+03 -0.14745570526E+03  0.50347342111E+03  0.12499762666E+03 0.  0.
         23    2    1    2    0    0  0.34199558707E+03 -0.31489190606E+03  0.14745570526E+03  0.49652657889E+03  0.93153445760E+02 0.  0.
        -11    1    4    4    0    0  0.11153550571E+03 -0.10564252783E+03  0.37429244281E+01  0.15367017343E+03  0.00000000000E+00 0. -1.
         11    1    4    4    0    0  0.23046008136E+03 -0.20924937823E+03  0.14371278083E+03  0.34285640546E+03  0.00000000000E+00 0.  1.
        -15    1    3    3    0    0 -0.30292825832E+03  0.27326835628E+03 -0.17012479321E+03  0.44202570878E+03  0.17770000000E+01 0. -1.
         15    1    3    3    0    0 -0.39067328748E+02  0.41623549783E+02  0.22669087952E+02  0.61447712322E+02  0.17770000000E+01 0. -1.
</event>
<event>
 8    1  0.2370702E-007  0.5034275E+03  0.7546771E-02  0.9392173E-01
        -11   -1    0    0    0    0  0.00000000000E+00  0.00000000000E+00  0.50000000000E+03  0.50000000000E+03  0.00000000000E+00 0.  1.
         11   -1    0    0    0    0 -0.00000000000E+00 -0.00000000000E+00 -0.50000000000E+03  0.50000000000E+03  0.00000000000E+00 0. -1.
         25    2    1    2    0    0 -0.44320057470E+03 -0.13080042488E+03  0.15580427363E+03  0.50342748242E+03  0.12501503035E+03 0.  0.
         23    2    1    2    0    0  0.44320057470E+03  0.13080042488E+03 -0.15580427363E+03  0.49657251758E+03  0.93668527072E+02 0.  0.
        -11    1    4    4    0    0  0.23830620176E+02 -0.13289937689E+02 -0.15958889252E+02  0.31610236441E+02  0.00000000000E+00 0. -1.
         11    1    4    4    0    0  0.41936995453E+03  0.14409036257E+03 -0.13984538438E+03  0.46496228113E+03  0.00000000000E+00 0.  1.
        -15    1    3    3    0    0 -0.24508623775E+03 -0.30789495300E+02  0.31406293132E+02  0.24900757003E+03  0.17770000000E+01 0.  1.
         15    1    3    3    0    0 -0.19811433695E+03 -0.10001092958E+03  0.12439798050E+03  0.25441991240E+03  0.17770000000E+01 0.  1.
</event>
<event>
 8    1  0.2370702E-007  0.5035970E+03  0.7546771E-02  0.9391797E-01
        -11   -1    0    0    0    0  0.00000000000E+00  0.00000000000E+00  0.50000000000E+03  0.50000000000E+03  0.00000000000E+00 0.  1.
         11   -1    0    0    0    0 -0.00000000000E+00 -0.00000000000E+00 -0.50000000000E+03  0.50000000000E+03  0.00000000000E+00 0. -1.
         25    2    1    2    0    0  0.16687609050E+02  0.47451509879E+03  0.11200227167E+03  0.50359704747E+03  0.12498968792E+03 0.  0.
         23    2    1    2    0    0 -0.16687609050E+02 -0.47451509879E+03 -0.11200227167E+03  0.49640295253E+03  0.91805921133E+02 0.  0.
        -11    1    4    4    0    0  0.12364247536E+02 -0.14305086425E+03 -0.73922690001E+02  0.16149609431E+03  0.00000000000E+00 0. -1.
         11    1    4    4    0    0 -0.29051856586E+02 -0.33146423454E+03 -0.38079581668E+02  0.33490685823E+03  0.00000000000E+00 0.  1.
        -15    1    3    3    0    0 -0.27030248367E+02  0.28380688999E+03  0.15725796537E+02  0.28553010968E+03  0.17770000000E+01 0. -1.
         15    1    3    3    0    0  0.43717857416E+02  0.19070820880E+03  0.96276475132E+02  0.21806693778E+03  0.17770000000E+01 0. -1.
</event>
<event>
 8    1  0.2370702E-007  0.5035061E+03  0.7546771E-02  0.9391998E-01
        -11   -1    0    0    0    0  0.00000000000E+00  0.00000000000E+00  0.50000000000E+03  0.50000000000E+03  0.00000000000E+00 0.  1.
         11   -1    0    0    0    0 -0.00000000000E+00 -0.00000000000E+00 -0.50000000000E+03  0.50000000000E+03  0.00000000000E+00 0. -1.
         25    2    1    2    0    0 -0.56015547098E+02 -0.40054001709E+03 -0.27262086267E+03  0.50350614796E+03  0.12500503771E+03 0.  0.
         23    2    1    2    0    0  0.56015547098E+02  0.40054001709E+03  0.27262086267E+03  0.49649385204E+03  0.92811440788E+02 0.  0.
        -11    1    4    4    0    0  0.52344886227E+02  0.13336201830E+03  0.13075853519E+03  0.19396703215E+03  0.00000000000E+00 0.  1.
         11    1    4    4    0    0  0.36706608716E+01  0.26717799880E+03  0.14186232749E+03  0.30252681989E+03  0.00000000000E+00 0. -1.
        -15    1    3    3    0    0 -0.95717217580E+02 -0.28581827411E+03 -0.18335645467E+03  0.35281244132E+03  0.17770000000E+01 0. -1.
         15    1    3    3    0    0  0.39701670482E+02 -0.11472174299E+03 -0.89264408009E+02  0.15069370664E+03  0.17770000000E+01 0. -1.
</event>
<event>
 8    1  0.2370702E-007  0.5037910E+03  0.7546771E-02  0.9391367E-01
        -11   -1    0    0    0    0  0.00000000000E+00  0.00000000000E+00  0.50000000000E+03  0.50000000000E+03  0.00000000000E+00 0. -1.
         11   -1    0    0    0    0 -0.00000000000E+00 -0.00000000000E+00 -0.50000000000E+03  0.50000000000E+03  0.00000000000E+00 0.  1.
         25    2    1    2    0    0  0.41392798671E+03  0.11801860012E+03 -0.23003361911E+03  0.50379098230E+03  0.12500047905E+03 0.  0.
         23    2    1    2    0    0 -0.41392798671E+03 -0.11801860012E+03  0.23003361911E+03  0.49620901770E+03  0.89683639378E+02 0.  0.
        -11    1    4    4    0    0 -0.11984720243E+03 -0.68621102329E+02  0.10199015270E+03  0.17168051393E+03  0.00000000000E+00 0.  1.
         11    1    4    4    0    0 -0.29408078428E+03 -0.49397497792E+02  0.12804346641E+03  0.32452850378E+03  0.00000000000E+00 0. -1.
        -15    1    3    3    0    0  0.11025413007E+03  0.47116284289E+02 -0.64705127525E+01  0.12008722958E+03  0.17770000000E+01 0. -1.
         15    1    3    3    0    0  0.30367385664E+03  0.70902315832E+02 -0.22356310636E+03  0.38370375272E+03  0.17770000000E+01 0. -1.
</event>
<event>
 8    1  0.2370702E-007  0.5037293E+03  0.7546771E-02  0.9391504E-01
        -11   -1    0    0    0    0  0.00000000000E+00  0.00000000000E+00  0.50000000000E+03  0.50000000000E+03  0.00000000000E+00 0. -1.
         11   -1    0    0    0    0 -0.00000000000E+00 -0.00000000000E+00 -0.50000000000E+03  0.50000000000E+03  0.00000000000E+00 0.  1.
         25    2    1    2    0    0  0.12728121574E+03  0.28220100926E+03 -0.37720298253E+03  0.50372930951E+03  0.12499283868E+03 0.  0.
         23    2    1    2    0    0 -0.12728121574E+03 -0.28220100926E+03  0.37720298253E+03  0.49627069049E+03  0.90358124745E+02 0.  0.
        -11    1    4    4    0    0 -0.68394065105E+02 -0.17459237844E+03  0.15854293207E+03  0.24555265842E+03  0.00000000000E+00 0. -1.
         11    1    4    4    0    0 -0.58887150638E+02 -0.10760863082E+03  0.21866005046E+03  0.25071803207E+03  0.00000000000E+00 0.  1.
        -15    1    3    3    0    0  0.10570041553E+03  0.23664895894E+03 -0.22444957519E+03  0.34286451718E+03  0.17770000000E+01 0. -1.
         15    1    3    3    0    0  0.21580800214E+02  0.45552050313E+02 -0.15275340734E+03  0.16086479233E+03  0.17770000000E+01 0. -1.
</event>
<event>
 8    1  0.2370702E-007  0.5036829E+03  0.7546771E-02  0.9391606E-01
        -11   -1    0    0    0    0  0.00000000000E+00  0.00000000000E+00  0.50000000000E+03  0.50000000000E+03  0.00000000000E+00 0.  1.
         11   -1    0    0    0    0 -0.00000000000E+00 -0.00000000000E+00 -0.50000000000E+03  0.50000000000E+03  0.00000000000E+00 0. -1.
         25    2    1    2    0    0  0.39324344786E+03  0.49956700803E+02 -0.28448984763E+03  0.50368290551E+03  0.12500365854E+03 0.  0.
         23    2    1    2    0    0 -0.39324344786E+03 -0.49956700803E+02  0.28448984763E+03  0.49631709449E+03  0.90885112297E+02 0.  0.
        -11    1    4    4    0    0 -0.21444049210E+03 -0.70624724240E+02  0.17483867524E+03  0.28555409065E+03  0.00000000000E+00 0. -1.
         11    1    4    4    0    0 -0.17880295576E+03  0.20668023438E+02  0.10965117239E+03  0.21076300384E+03  0.00000000000E+00 0.  1.
        -15    1    3    3    0    0  0.12285942827E+03 -0.41863929947E+02 -0.97597522256E+02  0.16240523953E+03  0.17770000000E+01 0. -1.
         15    1    3    3    0    0  0.27038401959E+03  0.91820630750E+02 -0.18689232538E+03  0.34127766598E+03  0.17770000000E+01 0. -1.
</event>
<event>
 8    1  0.2370702E-007  0.5037068E+03  0.7546771E-02  0.9391553E-01
        -11   -1    0    0    0    0  0.00000000000E+00  0.00000000000E+00  0.50000000000E+03  0.50000000000E+03  0.00000000000E+00 0. -1.
         11   -1    0    0    0    0 -0.00000000000E+00 -0.00000000000E+00 -0.50000000000E+03  0.50000000000E+03  0.00000000000E+00 0.  1.
         25    2    1    2    0    0  0.19573445283E+03  0.40035177544E+03  0.19875610650E+03  0.50370680459E+03  0.12499213977E+03 0.  0.
         23    2    1    2    0    0 -0.19573445283E+03 -0.40035177544E+03 -0.19875610650E+03  0.49629319541E+03  0.90605881814E+02 0.  0.
        -11    1    4    4    0    0 -0.16345455264E+03 -0.25042794377E+03 -0.10720911903E+03  0.31768748953E+03  0.00000000000E+00 0.  1.
         11    1    4    4    0    0 -0.32279900181E+02 -0.14992383167E+03 -0.91546987465E+02  0.17860570588E+03  0.00000000000E+00 0. -1.
        -15    1    3    3    0    0  0.13820973163E+03  0.16858368293E+03  0.13543351528E+03  0.25664719531E+03  0.17770000000E+01 0.  1.
         15    1    3    3    0    0  0.57524721191E+02  0.23176809251E+03  0.63322591213E+02  0.24705960928E+03  0.17770000000E+01 0.  1.
</event>
<event>
 8    1  0.2370702E-007  0.5037702E+03  0.7546771E-02  0.9391413E-01
        -11   -1    0    0    0    0  0.00000000000E+00  0.00000000000E+00  0.50000000000E+03  0.50000000000E+03  0.00000000000E+00 0.  1.
         11   -1    0    0    0    0 -0.00000000000E+00 -0.00000000000E+00 -0.50000000000E+03  0.50000000000E+03  0.00000000000E+00 0. -1.
         25    2    1    2    0    0  0.35375359023E+03 -0.34987827422E+02 -0.33434910449E+03  0.50377023144E+03  0.12501748576E+03 0.  0.
         23    2    1    2    0    0 -0.35375359023E+03  0.34987827422E+02  0.33434910449E+03  0.49622976856E+03  0.89938361453E+02 0.  0.
        -11    1    4    4    0    0 -0.27462272613E+03  0.26203213961E+02  0.30530768918E+03  0.41148151259E+03  0.00000000000E+00 0.  1.
         11    1    4    4    0    0 -0.79130864096E+02  0.87846134612E+01  0.29041415310E+02  0.84748255967E+02  0.00000000000E+00 0. -1.
        -15    1    3    3    0    0  0.78700819228E+02  0.28991096945E+02 -0.13183094909E+03  0.15625895019E+03  0.17770000000E+01 0. -1.
         15    1    3    3    0    0  0.27505277100E+03 -0.63978924367E+02 -0.20251815540E+03  0.34751128125E+03  0.17770000000E+01 0. -1.
</event>
<event>
 8    1  0.2370702E-007  0.5037177E+03  0.7546771E-02  0.9391529E-01
        -11   -1    0    0    0    0  0.00000000000E+00  0.00000000000E+00  0.50000000000E+03  0.50000000000E+03  0.00000000000E+00 0. -1.
         11   -1    0    0    0    0 -0.00000000000E+00 -0.00000000000E+00 -0.50000000000E+03  0.50000000000E+03  0.00000000000E+00 0.  1.
         25    2    1    2    0    0 -0.31233107534E+02 -0.36084214510E+03 -0.32699118845E+03  0.50371767336E+03  0.12500278573E+03 0.  0.
         23    2    1    2    0    0  0.31233107534E+02  0.36084214510E+03  0.32699118845E+03  0.49628232664E+03  0.90500550937E+02 0.  0.
        -11    1    4    4    0    0  0.15465769787E+01  0.33503466736E+02  0.74872271400E+02  0.82041033686E+02  0.00000000000E+00 0. -1.
         11    1    4    4    0    0  0.29686530555E+02  0.32733867837E+03  0.25211891705E+03  0.41424129295E+03  0.00000000000E+00 0.  1.
        -15    1    3    3    0    0 -0.63900642314E+02 -0.28262322707E+03 -0.29384697679E+03  0.41268436373E+03  0.17770000000E+01 0.  1.
         15    1    3    3    0    0  0.32667534780E+02 -0.78218918030E+02 -0.33144211661E+02  0.91033309629E+02  0.17770000000E+01 0.  1.
</event>
<event>
 8    1  0.2370702E-007  0.5038658E+03  0.7546771E-02  0.9391201E-01
        -11   -1    0    0    0    0  0.00000000000E+00  0.00000000000E+00  0.50000000000E+03  0.50000000000E+03  0.00000000000E+00 0.  1.
         11   -1    0    0    0    0 -0.00000000000E+00 -0.00000000000E+00 -0.50000000000E+03  0.50000000000E+03  0.00000000000E+00 0. -1.
         25    2    1    2    0    0 -0.80405786661E+02  0.39221338128E+03 -0.27921329324E+03  0.50386582388E+03  0.12499711344E+03 0.  0.
         23    2    1    2    0    0  0.80405786661E+02 -0.39221338128E+03  0.27921329324E+03  0.49613417612E+03  0.88840478440E+02 0.  0.
        -11    1    4    4    0    0  0.99000042793E+02 -0.29641161750E+03  0.21435825859E+03  0.37895952091E+03  0.00000000000E+00 0.  1.
         11    1    4    4    0    0 -0.18594256132E+02 -0.95801763782E+02  0.64855034652E+02  0.11717465521E+03  0.00000000000E+00 0. -1.
        -15    1    3    3    0    0 -0.52334583122E+02  0.30358579521E+03 -0.14474201859E+03  0.34037722209E+03  0.17770000000E+01 0.  1.
         15    1    3    3    0    0 -0.28071203538E+02  0.88627586074E+02 -0.13447127465E+03  0.16348860179E+03  0.17770000000E+01 0.  1.
</event>
<event>
 8    1  0.2370702E-007  0.5034467E+03  0.7546771E-02  0.9392130E-01
        -11   -1    0    0    0    0  0.00000000000E+00  0.00000000000E+00  0.50000000000E+03  0.50000000000E+03  0.00000000000E+00 0. -1.
         11   -1    0    0    0    0 -0.00000000000E+00 -0.00000000000E+00 -0.50000000000E+03  0.50000000000E+03  0.00000000000E+00 0.  1.
         25    2    1    2    0    0  0.22755554674E+03  0.31759702788E+03 -0.29186090886E+03  0.50344668472E+03  0.12500550093E+03 0.  0.
         23    2    1    2    0    0 -0.22755554674E+03 -0.31759702788E+03  0.29186090886E+03  0.49655331528E+03  0.93450552846E+02 0.  0.
        -11    1    4    4    0    0 -0.53984525872E+02 -0.21191205537E+02  0.48353374279E+02  0.75507913690E+02  0.00000000000E+00 0. -1.
         11    1    4    4    0    0 -0.17357102087E+03 -0.29640582234E+03  0.24350753458E+03  0.42104540159E+03  0.00000000000E+00 0.  1.
        -15    1    3    3    0    0  0.23579289290E+03  0.31738960075E+03 -0.29613320699E+03  0.49399643826E+03  0.17770000000E+01 0.  1.
         15    1    3    3    0    0 -0.82373461559E+01  0.20742713393E+00  0.42722981344E+01  0.94502464548E+01  0.17770000000E+01 0.  1.
</event>
<event>
 8    1  0.2370702E-007  0.5035970E+03  0.7546771E-02  0.9391797E-01
        -11   -1    0    0    0    0  0.00000000000E+00  0.00000000000E+00  0.50000000000E+03  0.50000000000E+03  0.00000000000E+00 0.  1.
         11   -1    0    0    0    0 -0.00000000000E+00 -0.00000000000E+00 -0.50000000000E+03  0.50000000000E+03  0.00000000000E+00 0. -1.
         25    2    1    2    0    0  0.15661883219E+02 -0.39139659943E+03 -0.29077278850E+03  0.50359701977E+03  0.12499820461E+03 0.  0.
         23    2    1    2    0    0 -0.15661883219E+02  0.39139659943E+03  0.29077278850E+03  0.49640298023E+03  0.91817817556E+02 0.  0.
        -11    1    4    4    0    0 -0.43925216758E+02  0.20991971280E+03  0.19205070794E+03  0.28788745181E+03  0.00000000000E+00 0. -1.
         11    1    4    4    0    0  0.28263333539E+02  0.18147688663E+03  0.98722080562E+02  0.20851552842E+03  0.00000000000E+00 0.  1.
        -15    1    3    3    0    0  0.35866312386E+02 -0.19553342152E+03 -0.77641730247E+02  0.21342705382E+03  0.17770000000E+01 0. -1.
         15    1    3    3    0    0 -0.20204429167E+02 -0.19586317791E+03 -0.21313105825E+03  0.29016996595E+03  0.17770000000E+01 0. -1.
</event>
<event>
 8    1  0.2370702E-007  0.5036349E+03  0.7546771E-02  0.9391713E-01
        -11   -1    0    0    0    0  0.00000000000E+00  0.00000000000E+00  0.50000000000E+03  0.50000000000E+03  0.00000000000E+00 0. -1.
         11   -1    0    0    0    0 -0.00000000000E+00 -0.00000000000E+00 -0.50000000000E+03  0.50000000000E+03  0.00000000000E+00 0.  1.
         25    2    1    2    0    0 -0.25928974971E+03 -0.22952322250E+03  0.34367303531E+03  0.50363494901E+03  0.12499969078E+03 0.  0.
         23    2    1    2    0    0  0.25928974971E+03  0.22952322250E+03 -0.34367303531E+03  0.49636505099E+03  0.91405824051E+02 0.  0.
        -11    1    4    4    0    0  0.76313690949E+02  0.18880094386E+02 -0.86815706811E+02  0.11712046934E+03  0.00000000000E+00 0.  1.
         11    1    4    4    0    0  0.18297605876E+03  0.21064312812E+03 -0.25685732850E+03  0.37924458164E+03  0.00000000000E+00 0. -1.
        -15    1    3    3    0    0 -0.10888385702E+03 -0.22252441893E+02  0.12058344345E+03  0.16399509155E+03  0.17770000000E+01 0.  1.
         15    1    3    3    0    0 -0.15040589269E+03 -0.20727078061E+03  0.22308959186E+03  0.33963985746E+03  0.17770000000E+01 0.  1.
</event>
<event>
 8    1  0.2370702E-007  0.5037045E+03  0.7546771E-02  0.9391558E-01
        -11   -1    0    0    0    0  0.00000000000E+00  0.00000000000E+00  0.50000000000E+03  0.50000000000E+03  0.00000000000E+00 0.  1.
         11   -1    0    0    0    0 -0.00000000000E+00 -0.00000000000E+00 -0.50000000000E+03  0.50000000000E+03  0.00000000000E+00 0. -1.
         25    2    1    2    0    0 -0.35534877438E+03 -0.27418511169E+03 -0.19142760451E+03  0.50370454818E+03  0.12499406850E+03 0.  0.
         23    2    1    2    0    0  0.35534877438E+03  0.27418511169E+03  0.19142760451E+03  0.49629545182E+03  0.90633441937E+02 0.  0.
        -11    1    4    4    0    0  0.20987066269E+02  0.51681327392E+02  0.30961820603E+02  0.63796950450E+02  0.00000000000E+00 0. -1.
         11    1    4    4    0    0  0.33436170812E+03  0.22250378430E+03  0.16046578390E+03  0.43249850137E+03  0.00000000000E+00 0.  1.
        -15    1    3    3    0    0 -0.20396659761E+03 -0.82271486772E+02 -0.11107159196E+03  0.24639607697E+03  0.17770000000E+01 0.  1.
         15    1    3    3    0    0 -0.15138217677E+03 -0.19191362492E+03 -0.80356012542E+02  0.25730847121E+03  0.17770000000E+01 0.  1.
</event>
<event>
 8    1  0.2370702E-007  0.5037750E+03  0.7546771E-02  0.9391402E-01
        -11   -1    0    0    0    0  0.00000000000E+00  0.00000000000E+00  0.50000000000E+03  0.50000000000E+03  0.00000000000E+00 0. -1.
         11   -1    0    0    0    0 -0.00000000000E+00 -0.00000000000E+00 -0.50000000000E+03  0.50000000000E+03  0.00000000000E+00 0.  1.
         25    2    1    2    0    0 -0.12080679872E+03 -0.32865587356E+03 -0.33993313513E+03  0.50377503662E+03  0.12500314124E+03 0.  0.
         23    2    1    2    0    0  0.12080679872E+03  0.32865587356E+03  0.33993313513E+03  0.49622496338E+03  0.89864965816E+02 0.  0.
        -11    1    4    4    0    0  0.53692356610E+02  0.51056628806E+02  0.91156099615E+02  0.11746949817E+03  0.00000000000E+00 0.  1.
         11    1    4    4    0    0  0.67114442106E+02  0.27759924475E+03  0.24877703552E+03  0.37875546521E+03  0.00000000000E+00 0. -1.
        -15    1    3    3    0    0 -0.94980873269E+02 -0.97670941517E+02 -0.15781201392E+03  0.20849165108E+03  0.17770000000E+01 0.  1.
         15    1    3    3    0    0 -0.25825925447E+02 -0.23098493204E+03 -0.18212112122E+03  0.29528338554E+03  0.17770000000E+01 0.  1.
</event>
<event>
 8    1  0.2370702E-007  0.5030114E+03  0.7546771E-02  0.9393097E-01
        -11   -1    0    0    0    0  0.00000000000E+00  0.00000000000E+00  0.50000000000E+03  0.50000000000E+03  0.00000000000E+00 0.  1.
         11   -1    0    0    0    0 -0.00000000000E+00 -0.00000000000E+00 -0.50000000000E+03  0.50000000000E+03  0.00000000000E+00 0. -1.
         25    2    1    2    0    0 -0.35896084955E+03 -0.29129393468E+03 -0.15391925183E+03  0.50301137047E+03  0.12499701933E+03 0.  0.
         23    2    1    2    0    0  0.35896084955E+03  0.29129393468E+03  0.15391925183E+03  0.49698862953E+03  0.97987315029E+02 0.  0.
        -11    1    4    4    0    0  0.30430572905E+03  0.24517413740E+03  0.16578677241E+03  0.42449686487E+03  0.00000000000E+00 0.  1.
         11    1    4    4    0    0  0.54655120505E+02  0.46119797283E+02 -0.11867520579E+02  0.72491764660E+02  0.00000000000E+00 0. -1.
        -15    1    3    3    0    0 -0.13008135989E+03 -0.18282928456E+03 -0.54508222523E+02  0.23091559397E+03  0.17770000000E+01 0.  1.
         15    1    3    3    0    0 -0.22887948966E+03 -0.10846465012E+03 -0.99411029310E+02  0.27209577650E+03  0.17770000000E+01 0.  1.
</event>
<event>
 8    1  0.2370702E-007  0.5036667E+03  0.7546771E-02  0.9391642E-01
        -11   -1    0    0    0    0  0.00000000000E+00  0.00000000000E+00  0.50000000000E+03  0.50000000000E+03  0.00000000000E+00 0. -1.
         11   -1    0    0    0    0 -0.00000000000E+00 -0.00000000000E+00 -0.50000000000E+03  0.50000000000E+03  0.00000000000E+00 0.  1.
         25    2    1    2    0    0  0.96789822361E+02  0.47790388765E+03 -0.17151782524E+02  0.50366669211E+03  0.12500223022E+03 0.  0.
         23    2    1    2    0    0 -0.96789822361E+02 -0.47790388765E+03  0.17151782524E+02  0.49633330789E+03  0.91061371257E+02 0.  0.
        -11    1    4    4    0    0 -0.34567618610E+02 -0.36830830672E+03  0.88394058982E+01  0.37003251769E+03  0.00000000000E+00 0.  1.
         11    1    4    4    0    0 -0.62222203751E+02 -0.10959558093E+03  0.83123766253E+01  0.12630079019E+03  0.00000000000E+00 0. -1.
        -15    1    3    3    0    0  0.91594377023E+02  0.15275558910E+03 -0.97666307428E+01  0.17838818545E+03  0.17770000000E+01 0. -1.
         15    1    3    3    0    0  0.51954453379E+01  0.32514829855E+03 -0.73851517807E+01  0.32527850666E+03  0.17770000000E+01 0. -1.
</event>
<event>
 8    1  0.2370702E-007  0.5045465E+03  0.7546771E-02  0.9389694E-01
        -11   -1    0    0    0    0  0.00000000000E+00  0.00000000000E+00  0.50000000000E+03  0.50000000000E+03  0.00000000000E+00 0.  1.
         11   -1    0    0    0    0 -0.00000000000E+00 -0.00000000000E+00 -0.50000000000E+03  0.50000000000E+03  0.00000000000E+00 0. -1.
         25    2    1    2    0    0 -0.26872018029E+03  0.86692695808E+02 -0.39901846326E+03  0.50454653872E+03  0.12500126763E+03 0.  0.
         23    2    1    2    0    0  0.26872018029E+03 -0.86692695808E+02  0.39901846326E+03  0.49545346128E+03  0.80822270909E+02 0.  0.
        -11    1    4    4    0    0  0.51936752217E+02 -0.50655176488E+02  0.79150275280E+02  0.10736917254E+03  0.00000000000E+00 0.  1.
         11    1    4    4    0    0  0.21678342807E+03 -0.36037519320E+02  0.31986818798E+03  0.38808428874E+03  0.00000000000E+00 0. -1.
        -15    1    3    3    0    0 -0.26717521503E+03  0.92650876419E+02 -0.32731071954E+03  0.43255317047E+03  0.17770000000E+01 0. -1.
         15    1    3    3    0    0 -0.15449652609E+01 -0.59581806105E+01 -0.71707743717E+02  0.71993368249E+02  0.17770000000E+01 0. -1.
</event>
<event>
 8    1  0.2370702E-007  0.5034890E+03  0.7546771E-02  0.9392036E-01
        -11   -1    0    0    0    0  0.00000000000E+00  0.00000000000E+00  0.50000000000E+03  0.50000000000E+03  0.00000000000E+00 0.  1.
         11   -1    0    0    0    0 -0.00000000000E+00 -0.00000000000E+00 -0.50000000000E+03  0.50000000000E+03  0.00000000000E+00 0. -1.
         25    2    1    2    0    0  0.34246357598E+03 -0.30564753896E+03  0.16484474269E+03  0.50348903742E+03  0.12500281065E+03 0.  0.
         23    2    1    2    0    0 -0.34246357598E+03  0.30564753896E+03 -0.16484474269E+03  0.49651096258E+03  0.92992622395E+02 0.  0.
        -11    1    4    4    0    0 -0.14825026046E+03  0.15129837313E+03 -0.29363849069E+02  0.21384941681E+03  0.00000000000E+00 0. -1.
         11    1    4    4    0    0 -0.19421331552E+03  0.15434916583E+03 -0.13548089362E+03  0.28266154576E+03  0.00000000000E+00 0.  1.
        -15    1    3    3    0    0 -0.97460025580E+01 -0.17482809951E+02  0.12135501441E+02  0.23474695608E+02  0.17770000000E+01 0. -1.
         15    1    3    3    0    0  0.35220957854E+03 -0.28816472901E+03  0.15270924125E+03  0.48001434182E+03  0.17770000000E+01 0. -1.
</event>
<event>
 8    1  0.2370702E-007  0.5036780E+03  0.7546771E-02  0.9391617E-01
        -11   -1    0    0    0    0  0.00000000000E+00  0.00000000000E+00  0.50000000000E+03  0.50000000000E+03  0.00000000000E+00 0.  1.
         11   -1    0    0    0    0 -0.00000000000E+00 -0.00000000000E+00 -0.50000000000E+03  0.50000000000E+03  0.00000000000E+00 0. -1.
         25    2    1    2    0    0 -0.33297010138E+03  0.12199947753E+03 -0.33513086958E+03  0.50367801352E+03  0.12500352247E+03 0.  0.
         23    2    1    2    0    0  0.33297010138E+03 -0.12199947753E+03  0.33513086958E+03  0.49632198648E+03  0.90938735331E+02 0.  0.
        -11    1    4    4    0    0  0.59300716883E+02 -0.45788565340E+02  0.11356445246E+03  0.13605165416E+03  0.00000000000E+00 0.  1.
         11    1    4    4    0    0  0.27366938450E+03 -0.76210912186E+02  0.22156641712E+03  0.36027033231E+03  0.00000000000E+00 0. -1.
        -15    1    3    3    0    0 -0.10985987093E+03  0.55484238294E+02 -0.19896669554E+03  0.23396280816E+03  0.17770000000E+01 0.  1.
         15    1    3    3    0    0 -0.22311023045E+03  0.66515239232E+02 -0.13616417404E+03  0.26971520536E+03  0.17770000000E+01 0.  1.
</event>
<event>
 8    1  0.2370702E-007  0.5043415E+03  0.7546771E-02  0.9390147E-01
        -11   -1    0    0    0    0  0.00000000000E+00  0.00000000000E+00  0.50000000000E+03  0.50000000000E+03  0.00000000000E+00 0.  1.
         11   -1    0    0    0    0 -0.00000000000E+00 -0.00000000000E+00 -0.50000000000E+03  0.50000000000E+03  0.00000000000E+00 0. -1.
         25    2    1    2    0    0  0.33994739138E+03  0.85105198504E+02 -0.34048221244E+03  0.50434146356E+03  0.12500020465E+03 0.  0.
         23    2    1    2    0    0 -0.33994739138E+03 -0.85105198504E+02  0.34048221244E+03  0.49565853644E+03  0.83319409704E+02 0.  0.
        -11    1    4    4    0    0 -0.20214286503E+03 -0.67307323963E+02  0.25593393521E+03  0.33300779711E+03  0.00000000000E+00 0. -1.
         11    1    4    4    0    0 -0.13780452635E+03 -0.17797874541E+02  0.84548277227E+02  0.16265073933E+03  0.00000000000E+00 0.  1.
        -15    1    3    3    0    0 -0.23370928043E+01  0.23170183685E+02 -0.30504541561E+02  0.38418800080E+02  0.17770000000E+01 0.  1.
         15    1    3    3    0    0  0.34228448419E+03  0.61935014819E+02 -0.30997767088E+03  0.46592266348E+03  0.17770000000E+01 0.  1.
</event>
<event>
 8    1  0.2370702E-007  0.5036753E+03  0.7546771E-02  0.9391623E-01
        -11   -1    0    0    0    0  0.00000000000E+00  0.00000000000E+00  0.50000000000E+03  0.50000000000E+03  0.00000000000E+00 0. -1.
         11   -1    0    0    0    0 -0.00000000000E+00 -0.00000000000E+00 -0.50000000000E+03  0.50000000000E+03  0.00000000000E+00 0.  1.
         25    2    1    2    0    0  0.47667439982E+03  0.72109314752E+02 -0.75130275650E+02  0.50367525491E+03  0.12500386940E+03 0.  0.
         23    2    1    2    0    0 -0.47667439982E+03 -0.72109314752E+02  0.75130275650E+02  0.49632474509E+03  0.90969541909E+02 0.  0.
        -11    1    4    4    0    0 -0.13779921682E+03 -0.62820644619E+02  0.17357644473E+02  0.15243472494E+03  0.00000000000E+00 0.  1.
         11    1    4    4    0    0 -0.33887518301E+03 -0.92886701323E+01  0.57772631177E+02  0.34389002016E+03  0.00000000000E+00 0. -1.
        -15    1    3    3    0    0  0.72653554242E+02  0.43657355483E+02  0.21118696625E+02  0.87370822978E+02  0.17770000000E+01 0.  1.
         15    1    3    3    0    0  0.40402084558E+03  0.28451959269E+02 -0.96248972274E+02  0.41630443193E+03  0.17770000000E+01 0.  1.
</event>
<event>
 8    1  0.2370702E-007  0.5036978E+03  0.7546771E-02  0.9391573E-01
        -11   -1    0    0    0    0  0.00000000000E+00  0.00000000000E+00  0.50000000000E+03  0.50000000000E+03  0.00000000000E+00 0.  1.
         11   -1    0    0    0    0 -0.00000000000E+00 -0.00000000000E+00 -0.50000000000E+03  0.50000000000E+03  0.00000000000E+00 0. -1.
         25    2    1    2    0    0  0.36592869904E+03 -0.21685524650E+03  0.23907416662E+03  0.50369778797E+03  0.12499997499E+03 0.  0.
         23    2    1    2    0    0 -0.36592869904E+03  0.21685524650E+03 -0.23907416662E+03  0.49630221203E+03  0.90716138578E+02 0.  0.
        -11    1    4    4    0    0 -0.22160083015E+03  0.14952930210E+03 -0.19550306271E+03  0.33119086285E+03  0.00000000000E+00 0. -1.
         11    1    4    4    0    0 -0.14432786889E+03  0.67325944403E+02 -0.43571103907E+02  0.16511134917E+03  0.00000000000E+00 0.  1.
        -15    1    3    3    0    0  0.72488269381E+02 -0.36140832208E+02  0.10794399139E+03  0.13496581773E+03  0.17770000000E+01 0.  1.
         15    1    3    3    0    0  0.29344042966E+03 -0.18071441430E+03  0.13113017523E+03  0.36873197024E+03  0.17770000000E+01 0.  1.
</event>
<event>
 8    1  0.2370702E-007  0.5037196E+03  0.7546771E-02  0.9391525E-01
        -11   -1    0    0    0    0  0.00000000000E+00  0.00000000000E+00  0.50000000000E+03  0.50000000000E+03  0.00000000000E+00 0. -1.
         11   -1    0    0    0    0 -0.00000000000E+00 -0.00000000000E+00 -0.50000000000E+03  0.50000000000E+03  0.00000000000E+00 0.  1.
         25    2    1    2    0    0  0.85604547905E+02  0.40123440125E+03  0.26418129984E+03  0.50371960983E+03  0.12499801109E+03 0.  0.
         23    2    1    2    0    0 -0.85604547905E+02 -0.40123440125E+03 -0.26418129984E+03  0.49628039017E+03  0.90472554458E+02 0.  0.
        -11    1    4    4    0    0  0.54809607438E+01 -0.66129527879E+02 -0.77475087714E+02  0.10200757131E+03  0.00000000000E+00 0.  1.
         11    1    4    4    0    0 -0.91085508649E+02 -0.33510487337E+03 -0.18670621212E+03  0.39427281886E+03  0.00000000000E+00 0. -1.
        -15    1    3    3    0    0  0.89799892262E+02  0.15670783493E+03  0.14517571947E+03  0.23173371233E+03  0.17770000000E+01 0. -1.
         15    1    3    3    0    0 -0.41953443562E+01  0.24452656633E+03  0.11900558037E+03  0.27198589750E+03  0.17770000000E+01 0. -1.
</event>
<event>
 8    1  0.2370702E-007  0.5031275E+03  0.7546771E-02  0.9392839E-01
        -11   -1    0    0    0    0  0.00000000000E+00  0.00000000000E+00  0.50000000000E+03  0.50000000000E+03  0.00000000000E+00 0.  1.
         11   -1    0    0    0    0 -0.00000000000E+00 -0.00000000000E+00 -0.50000000000E+03  0.50000000000E+03  0.00000000000E+00 0. -1.
         25    2    1    2    0    0 -0.47123457208E+03  0.11255029996E+03  0.52777639684E+02  0.50312748628E+03  0.12498878453E+03 0.  0.
         23    2    1    2    0    0  0.47123457208E+03 -0.11255029996E+03 -0.52777639684E+02  0.49687251372E+03  0.96784418688E+02 0.  0.
        -11    1    4    4    0    0  0.32401265807E+03 -0.10533854818E+03 -0.11917518134E+01  0.34070784052E+03  0.00000000000E+00 0.  1.
         11    1    4    4    0    0  0.14722191401E+03 -0.72117517776E+01 -0.51585887870E+02  0.15616467320E+03  0.00000000000E+00 0. -1.
        -15    1    3    3    0    0 -0.44213749425E+03  0.10737929565E+03  0.81089490642E+02  0.46216289355E+03  0.17770000000E+01 0. -1.
         15    1    3    3    0    0 -0.29097077826E+02  0.51710043126E+01 -0.28311850958E+02  0.40964592727E+02  0.17770000000E+01 0. -1.
</event>
<event>
 8    1  0.2370702E-007  0.5029129E+03  0.7546771E-02  0.9393315E-01
        -11   -1    0    0    0    0  0.00000000000E+00  0.00000000000E+00  0.50000000000E+03  0.50000000000E+03  0.00000000000E+00 0.  1.
         11   -1    0    0    0    0 -0.00000000000E+00 -0.00000000000E+00 -0.50000000000E+03  0.50000000000E+03  0.00000000000E+00 0. -1.
         25    2    1    2    0    0 -0.35712966940E+00 -0.40268549724E+03 -0.27411938066E+03  0.50291294294E+03  0.12499702436E+03 0.  0.
         23    2    1    2    0    0  0.35712966940E+00  0.40268549724E+03  0.27411938066E+03  0.49708705706E+03  0.98986717370E+02 0.  0.
        -11    1    4    4    0    0 -0.40065619962E+02  0.26224171520E+03  0.14641274425E+03  0.30300604412E+03  0.00000000000E+00 0. -1.
         11    1    4    4    0    0  0.40422749631E+02  0.14044378204E+03  0.12770663641E+03  0.19408101294E+03  0.00000000000E+00 0.  1.
        -15    1    3    3    0    0  0.12093483703E+02 -0.26375196624E+03 -0.24544140656E+03  0.36049409680E+03  0.17770000000E+01 0.  1.
         15    1    3    3    0    0 -0.12450613372E+02 -0.13893353100E+03 -0.28677974099E+02  0.14241884615E+03  0.17770000000E+01 0.  1.
</event>
<event>
 8    1  0.2370702E-007  0.5038565E+03  0.7546771E-02  0.9391222E-01
        -11   -1    0    0    0    0  0.00000000000E+00  0.00000000000E+00  0.50000000000E+03  0.50000000000E+03  0.00000000000E+00 0.  1.
         11   -1    0    0    0    0 -0.00000000000E+00 -0.00000000000E+00 -0.50000000000E+03  0.50000000000E+03  0.00000000000E+00 0. -1.
         25    2    1    2    0    0 -0.29354116814E+03 -0.17532597044E+03 -0.34834194903E+03  0.50385652927E+03  0.12499470123E+03 0.  0.
         23    2    1    2    0    0  0.29354116814E+03  0.17532597044E+03  0.34834194903E+03  0.49614347073E+03  0.88941648209E+02 0.  0.
        -11    1    4    4    0    0  0.68179906378E+02  0.17961972083E+02  0.11829345003E+03  0.13771155505E+03  0.00000000000E+00 0.  1.
         11    1    4    4    0    0  0.22536126176E+03  0.15736399835E+03  0.23004849900E+03  0.35843191567E+03  0.00000000000E+00 0. -1.
        -15    1    3    3    0    0 -0.20587686898E+03 -0.13434916020E+03 -0.31896461340E+03  0.40271151505E+03  0.17770000000E+01 0. -1.
         15    1    3    3    0    0 -0.87664299153E+02 -0.40976810240E+02 -0.29377335636E+02  0.10114501422E+03  0.17770000000E+01 0. -1.
</event>
<event>
 8    1  0.2370702E-007  0.5036434E+03  0.7546771E-02  0.9391694E-01
        -11   -1    0    0    0    0  0.00000000000E+00  0.00000000000E+00  0.50000000000E+03  0.50000000000E+03  0.00000000000E+00 0.  1.
         11   -1    0    0    0    0 -0.00000000000E+00 -0.00000000000E+00 -0.50000000000E+03  0.50000000000E+03  0.00000000000E+00 0. -1.
         25    2    1    2    0    0  0.44264853236E+03  0.18145517778E+03 -0.95748463949E+02  0.50364337736E+03  0.12500071386E+03 0.  0.
         23    2    1    2    0    0 -0.44264853236E+03 -0.18145517778E+03  0.95748463949E+02  0.49635662264E+03  0.91314970003E+02 0.  0.
        -11    1    4    4    0    0 -0.10171947866E+03 -0.24243801752E+01  0.25937235906E+02  0.10500223885E+03  0.00000000000E+00 0. -1.
         11    1    4    4    0    0 -0.34092905371E+03 -0.17903079760E+03  0.69811228043E+02  0.39135438379E+03  0.00000000000E+00 0.  1.
        -15    1    3    3    0    0  0.10785154061E+03  0.43236731437E+02 -0.80013684958E+02  0.14109116651E+03  0.17770000000E+01 0. -1.
         15    1    3    3    0    0  0.33479699175E+03  0.13821844634E+03 -0.15734778992E+02  0.36255221085E+03  0.17770000000E+01 0. -1.
</event>
<event>
 8    1  0.2370702E-007  0.5031770E+03  0.7546771E-02  0.9392729E-01
        -11   -1    0    0    0    0  0.00000000000E+00  0.00000000000E+00  0.50000000000E+03  0.50000000000E+03  0.00000000000E+00 0.  1.
         11   -1    0    0    0    0 -0.00000000000E+00 -0.00000000000E+00 -0.50000000000E+03  0.50000000000E+03  0.00000000000E+00 0. -1.
         25    2    1    2    0    0  0.27341892260E+03 -0.26349430730E+03  0.30558250284E+03  0.50317697635E+03  0.12497698297E+03 0.  0.
         23    2    1    2    0    0 -0.27341892260E+03  0.26349430730E+03 -0.30558250284E+03  0.49682302365E+03  0.96256394986E+02 0.  0.
        -11    1    4    4    0    0 -0.37794472577E+02  0.46399449701E+02 -0.95390569727E+01  0.60599708728E+02  0.00000000000E+00 0.  1.
         11    1    4    4    0    0 -0.23562445002E+03  0.21709485760E+03 -0.29604344587E+03  0.43622331492E+03  0.00000000000E+00 0. -1.
        -15    1    3    3    0    0  0.72001986810E+02 -0.68663750767E+02  0.15729323245E+03  0.18612714869E+03  0.17770000000E+01 0.  1.
         15    1    3    3    0    0  0.20141693579E+03 -0.19483055653E+03  0.14828927039E+03  0.31704982766E+03  0.17770000000E+01 0.  1.
</event>
<event>
 8    1  0.2370702E-007  0.5036668E+03  0.7546771E-02  0.9391642E-01
        -11   -1    0    0    0    0  0.00000000000E+00  0.00000000000E+00  0.50000000000E+03  0.50000000000E+03  0.00000000000E+00 0.  1.
         11   -1    0    0    0    0 -0.00000000000E+00 -0.00000000000E+00 -0.50000000000E+03  0.50000000000E+03  0.00000000000E+00 0. -1.
         25    2    1    2    0    0 -0.21284518795E+03  0.42259066513E+03 -0.11903565132E+03  0.50366679541E+03  0.12499924090E+03 0.  0.
         23    2    1    2    0    0  0.21284518795E+03 -0.42259066513E+03  0.11903565132E+03  0.49633320459E+03  0.91056133287E+02 0.  0.
        -11    1    4    4    0    0  0.31725616046E+02 -0.92906500440E+02  0.61374980982E+02  0.11578005367E+03  0.00000000000E+00 0.  1.
         11    1    4    4    0    0  0.18111957191E+03 -0.32968416469E+03  0.57660670341E+02  0.38055315092E+03  0.00000000000E+00 0. -1.
        -15    1    3    3    0    0 -0.77569379414E+02  0.18163616266E+03  0.11914449484E+02  0.19787323225E+03  0.17770000000E+01 0. -1.
         15    1    3    3    0    0 -0.13527580854E+03  0.24095450247E+03 -0.13095010081E+03  0.30579356315E+03  0.17770000000E+01 0. -1.
</event>
<event>
 8    1  0.2370702E-007  0.5035712E+03  0.7546771E-02  0.9391854E-01
        -11   -1    0    0    0    0  0.00000000000E+00  0.00000000000E+00  0.50000000000E+03  0.50000000000E+03  0.00000000000E+00 0.  1.
         11   -1    0    0    0    0 -0.00000000000E+00 -0.00000000000E+00 -0.50000000000E+03  0.50000000000E+03  0.00000000000E+00 0. -1.
         25    2    1    2    0    0 -0.19552855704E+03  0.37244528227E+03  0.24700484384E+03  0.50357124093E+03  0.12500278759E+03 0.  0.
         23    2    1    2    0    0  0.19552855704E+03 -0.37244528227E+03 -0.24700484384E+03  0.49642875907E+03  0.92104370381E+02 0.  0.
        -11    1    4    4    0    0  0.12669741530E+02 -0.10990792699E+03 -0.66347698784E+02  0.12900500727E+03  0.00000000000E+00 0.  1.
         11    1    4    4    0    0  0.18285881551E+03 -0.26253735528E+03 -0.18065714506E+03  0.36742375180E+03  0.00000000000E+00 0. -1.
        -15    1    3    3    0    0 -0.36023804684E+02  0.10668278204E+03  0.93751507916E+01  0.11300434358E+03  0.17770000000E+01 0. -1.
         15    1    3    3    0    0 -0.15950475235E+03  0.26576250024E+03  0.23762969305E+03  0.39056689735E+03  0.17770000000E+01 0. -1.
</event>
<event>
 8    1  0.2370702E-007  0.5037819E+03  0.7546771E-02  0.9391387E-01
        -11   -1    0    0    0    0  0.00000000000E+00  0.00000000000E+00  0.50000000000E+03  0.50000000000E+03  0.00000000000E+00 0.  1.
         11   -1    0    0    0    0 -0.00000000000E+00 -0.00000000000E+00 -0.50000000000E+03  0.50000000000E+03  0.00000000000E+00 0. -1.
         25    2    1    2    0    0 -0.44556869677E+03  0.10746281920E+03 -0.16760471801E+03  0.50378187068E+03  0.12500044267E+03 0.  0.
         23    2    1    2    0    0  0.44556869677E+03 -0.10746281920E+03  0.16760471801E+03  0.49621812932E+03  0.89785128593E+02 0.  0.
        -11    1    4    4    0    0  0.14389248582E+03 -0.20476162968E+01  0.80956515397E+02  0.16511570971E+03  0.00000000000E+00 0. -1.
         11    1    4    4    0    0  0.30167621095E+03 -0.10541520290E+03  0.86648202611E+02  0.33110241961E+03  0.00000000000E+00 0.  1.
        -15    1    3    3    0    0 -0.86414206856E+02  0.63018106503E+02 -0.51428059966E+01  0.10709016330E+03  0.17770000000E+01 0. -1.
         15    1    3    3    0    0 -0.35915448992E+03  0.44444712695E+02 -0.16246191201E+03  0.39669170737E+03  0.17770000000E+01 0. -1.
</event>
<event>
 8    1  0.2370702E-007  0.5036890E+03  0.7546771E-02  0.9391593E-01
        -11   -1    0    0    0    0  0.00000000000E+00  0.00000000000E+00  0.50000000000E+03  0.50000000000E+03  0.00000000000E+00 0.  1.
         11   -1    0    0    0    0 -0.00000000000E+00 -0.00000000000E+00 -0.50000000000E+03  0.50000000000E+03  0.00000000000E+00 0. -1.
         25    2    1    2    0    0 -0.22066464870E+03  0.14161814669E+03  0.41149704309E+03  0.50368902678E+03  0.12499693024E+03 0.  0.
         23    2    1    2    0    0  0.22066464870E+03 -0.14161814669E+03 -0.41149704309E+03  0.49631097322E+03  0.90808474309E+02 0.  0.
        -11    1    4    4    0    0  0.81032539840E+02 -0.28683434085E+02 -0.20708006568E+03  0.22421232237E+03  0.00000000000E+00 0.  1.
         11    1    4    4    0    0  0.13963210886E+03 -0.11293471260E+03 -0.20441697741E+03  0.27209865084E+03  0.00000000000E+00 0. -1.
        -15    1    3    3    0    0 -0.10601927860E+03  0.10701643781E+03  0.13468586953E+03  0.20207930764E+03  0.17770000000E+01 0.  1.
         15    1    3    3    0    0 -0.11464537010E+03  0.34601708878E+02  0.27681117356E+03  0.30160971914E+03  0.17770000000E+01 0.  1.
</event>
<event>
 8    1  0.2370702E-007  0.5037339E+03  0.7546771E-02  0.9391493E-01
        -11   -1    0    0    0    0  0.00000000000E+00  0.00000000000E+00  0.50000000000E+03  0.50000000000E+03  0.00000000000E+00 0.  1.
         11   -1    0    0    0    0 -0.00000000000E+00 -0.00000000000E+00 -0.50000000000E+03  0.50000000000E+03  0.00000000000E+00 0. -1.
         25    2    1    2    0    0 -0.48314290398E+03 -0.22858303449E+02 -0.64605097777E+02  0.50373394690E+03  0.12499801155E+03 0.  0.
         23    2    1    2    0    0  0.48314290398E+03  0.22858303449E+02  0.64605097777E+02  0.49626605310E+03  0.90313947411E+02 0.  0.
        -11    1    4    4    0    0  0.14589764950E+03  0.24791144814E+02  0.58005133372E+02  0.15895068571E+03  0.00000000000E+00 0.  1.
         11    1    4    4    0    0  0.33724525449E+03 -0.19328413649E+01  0.65999644046E+01  0.33731536739E+03  0.00000000000E+00 0. -1.
        -15    1    3    3    0    0 -0.40677330459E+03  0.17589543263E+02 -0.23005447244E+02  0.40780672100E+03  0.17770000000E+01 0.  1.
         15    1    3    3    0    0 -0.76369599394E+02 -0.40447846712E+02 -0.41599650533E+02  0.95927225899E+02  0.17770000000E+01 0.  1.
</event>
<event>
 8    1  0.2370702E-007  0.5038189E+03  0.7546771E-02  0.9391305E-01
        -11   -1    0    0    0    0  0.00000000000E+00  0.00000000000E+00  0.50000000000E+03  0.50000000000E+03  0.00000000000E+00 0.  1.
         11   -1    0    0    0    0 -0.00000000000E+00 -0.00000000000E+00 -0.50000000000E+03  0.50000000000E+03  0.00000000000E+00 0. -1.
         25    2    1    2    0    0  0.29059012026E+03  0.26886247470E+03 -0.28544569387E+03  0.50381888072E+03  0.12499828850E+03 0.  0.
         23    2    1    2    0    0 -0.29059012026E+03 -0.26886247470E+03  0.28544569387E+03  0.49618111928E+03  0.89368958149E+02 0.  0.
        -11    1    4    4    0    0 -0.16510361900E+03 -0.14768724322E+03  0.10480475336E+03  0.24506073358E+03  0.00000000000E+00 0. -1.
         11    1    4    4    0    0 -0.12548650127E+03 -0.12117523148E+03  0.18064094051E+03  0.25112038569E+03  0.00000000000E+00 0.  1.
        -15    1    3    3    0    0  0.27494747807E+03  0.23858354720E+03 -0.29480116408E+03  0.46843260856E+03  0.17770000000E+01 0. -1.
         15    1    3    3    0    0  0.15642642196E+02  0.30278927502E+02  0.93554702152E+01  0.35386272162E+02  0.17770000000E+01 0. -1.
</event>
<event>
 8    1  0.2370702E-007  0.5036611E+03  0.7546771E-02  0.9391655E-01
        -11   -1    0    0    0    0  0.00000000000E+00  0.00000000000E+00  0.50000000000E+03  0.50000000000E+03  0.00000000000E+00 0.  1.
         11   -1    0    0    0    0 -0.00000000000E+00 -0.00000000000E+00 -0.50000000000E+03  0.50000000000E+03  0.00000000000E+00 0. -1.
         25    2    1    2    0    0 -0.33382477513E+03  0.51816437985E+01  0.35578221375E+03  0.50366105791E+03  0.12501059039E+03 0.  0.
         23    2    1    2    0    0  0.33382477513E+03 -0.51816437985E+01 -0.35578221375E+03  0.49633894209E+03  0.91134690935E+02 0.  0.
        -11    1    4    4    0    0  0.11103190425E+02 -0.17969666356E+02 -0.10649826501E+02  0.23656046818E+02  0.00000000000E+00 0.  1.
         11    1    4    4    0    0  0.32272158471E+03  0.12788022557E+02 -0.34513238725E+03  0.47268289527E+03  0.00000000000E+00 0. -1.
        -15    1    3    3    0    0 -0.13065969268E+03  0.25121547924E+02  0.64269332997E+02  0.14777263736E+03  0.17770000000E+01 0. -1.
         15    1    3    3    0    0 -0.20316508246E+03 -0.19939904126E+02  0.29151288075E+03  0.35588842054E+03  0.17770000000E+01 0. -1.
</event>
<event>
 8    1  0.2370702E-007  0.5035233E+03  0.7546771E-02  0.9391960E-01
        -11   -1    0    0    0    0  0.00000000000E+00  0.00000000000E+00  0.50000000000E+03  0.50000000000E+03  0.00000000000E+00 0. -1.
         11   -1    0    0    0    0 -0.00000000000E+00 -0.00000000000E+00 -0.50000000000E+03  0.50000000000E+03  0.00000000000E+00 0.  1.
         25    2    1    2    0    0 -0.25503511154E+03  0.19880830745E+03  0.36516190548E+03  0.50352333907E+03  0.12499953815E+03 0.  0.
         23    2    1    2    0    0  0.25503511154E+03 -0.19880830745E+03 -0.36516190548E+03  0.49647666093E+03  0.92618607237E+02 0.  0.
        -11    1    4    4    0    0  0.10497684846E+03 -0.55169052310E+02 -0.19373566867E+03  0.22715032987E+03  0.00000000000E+00 0. -1.
         11    1    4    4    0    0  0.15005826308E+03 -0.14363925514E+03 -0.17142623681E+03  0.26932633107E+03  0.00000000000E+00 0.  1.
        -15    1    3    3    0    0 -0.13291667033E+03  0.97824745464E+02  0.27628829801E+03  0.32183055079E+03  0.17770000000E+01 0.  1.
         15    1    3    3    0    0 -0.12211844122E+03  0.10098356199E+03  0.88873607467E+02  0.18169278827E+03  0.17770000000E+01 0.  1.
</event>
<event>
 8    1  0.2370702E-007  0.5028354E+03  0.7546771E-02  0.9393488E-01
        -11   -1    0    0    0    0  0.00000000000E+00  0.00000000000E+00  0.50000000000E+03  0.50000000000E+03  0.00000000000E+00 0.  1.
         11   -1    0    0    0    0 -0.00000000000E+00 -0.00000000000E+00 -0.50000000000E+03  0.50000000000E+03  0.00000000000E+00 0. -1.
         25    2    1    2    0    0 -0.38280210820E+03  0.29979240055E+03  0.28387772472E+02  0.50283539170E+03  0.12499851219E+03 0.  0.
         23    2    1    2    0    0  0.38280210820E+03 -0.29979240055E+03 -0.28387772472E+02  0.49716460830E+03  0.99768956357E+02 0.  0.
        -11    1    4    4    0    0  0.11648514908E+03 -0.66625489263E+02 -0.48347927895E+02  0.14263683924E+03  0.00000000000E+00 0. -1.
         11    1    4    4    0    0  0.26631695912E+03 -0.23316691128E+03  0.19960155423E+02  0.35452776906E+03  0.00000000000E+00 0.  1.
        -15    1    3    3    0    0 -0.25896716417E+03  0.26970210122E+03  0.97908500224E+01  0.37403507054E+03  0.17770000000E+01 0. -1.
         15    1    3    3    0    0 -0.12383494403E+03  0.30090299327E+02  0.18596922450E+02  0.12880032116E+03  0.17770000000E+01 0. -1.
</event>
<event>
 8    1  0.2370702E-007  0.5037022E+03  0.7546771E-02  0.9391564E-01
        -11   -1    0    0    0    0  0.00000000000E+00  0.00000000000E+00  0.50000000000E+03  0.50000000000E+03  0.00000000000E+00 0.  1.
         11   -1    0    0    0    0 -0.00000000000E+00 -0.00000000000E+00 -0.50000000000E+03  0.50000000000E+03  0.00000000000E+00 0. -1.
         25    2    1    2    0    0 -0.41297997404E+03  0.25119105501E+03 -0.66641297677E+02  0.50370221743E+03  0.12500182486E+03 0.  0.
         23    2    1    2    0    0  0.41297997404E+03 -0.25119105501E+03  0.66641297677E+02  0.49629778257E+03  0.90669848090E+02 0.  0.
        -11    1    4    4    0    0  0.72988512017E+02 -0.57384946756E+02  0.47961583008E+02  0.10450200211E+03  0.00000000000E+00 0. -1.
         11    1    4    4    0    0  0.33999146202E+03 -0.19380610826E+03  0.18679714669E+02  0.39179578046E+03  0.00000000000E+00 0.  1.
        -15    1    3    3    0    0 -0.50427380206E+00  0.16911455136E+02  0.14610134936E+02  0.22424660059E+02  0.17770000000E+01 0.  1.
         15    1    3    3    0    0 -0.41247570023E+03  0.23427959987E+03 -0.81251432613E+02  0.48127755737E+03  0.17770000000E+01 0.  1.
</event>
<event>
 8    1  0.2370702E-007  0.5036012E+03  0.7546771E-02  0.9391788E-01
        -11   -1    0    0    0    0  0.00000000000E+00  0.00000000000E+00  0.50000000000E+03  0.50000000000E+03  0.00000000000E+00 0. -1.
         11   -1    0    0    0    0 -0.00000000000E+00 -0.00000000000E+00 -0.50000000000E+03  0.50000000000E+03  0.00000000000E+00 0.  1.
         25    2    1    2    0    0  0.18322832427E+03  0.28812686239E+03  0.34842549807E+03  0.50360122326E+03  0.12499662681E+03 0.  0.
         23    2    1    2    0    0 -0.18322832427E+03 -0.28812686239E+03 -0.34842549807E+03  0.49639877674E+03  0.91769876336E+02 0.  0.
        -11    1    4    4    0    0 -0.70388378141E+02 -0.19027845245E+03 -0.17919906609E+03  0.27068933952E+03  0.00000000000E+00 0. -1.
         11    1    4    4    0    0 -0.11283994613E+03 -0.97848409940E+02 -0.16922643198E+03  0.22570943722E+03  0.00000000000E+00 0.  1.
        -15    1    3    3    0    0  0.15991333721E+03  0.23645823199E+03  0.34356212418E+03  0.44667982022E+03  0.17770000000E+01 0. -1.
         15    1    3    3    0    0  0.23314987064E+02  0.51668630396E+02  0.48633738927E+01  0.56921403034E+02  0.17770000000E+01 0. -1.
</event>
<event>
 8    1  0.2370702E-007  0.5036496E+03  0.7546771E-02  0.9391680E-01
        -11   -1    0    0    0    0  0.00000000000E+00  0.00000000000E+00  0.50000000000E+03  0.50000000000E+03  0.00000000000E+00 0. -1.
         11   -1    0    0    0    0 -0.00000000000E+00 -0.00000000000E+00 -0.50000000000E+03  0.50000000000E+03  0.00000000000E+00 0.  1.
         25    2    1    2    0    0  0.20242142069E+03 -0.36712245435E+03 -0.24956889095E+03  0.50364955877E+03  0.12499967472E+03 0.  0.
         23    2    1    2    0    0 -0.20242142069E+03  0.36712245435E+03  0.24956889095E+03  0.49635044123E+03  0.91245828067E+02 0.  0.
        -11    1    4    4    0    0 -0.16116839298E+03  0.34812409628E+03  0.22389885815E+03  0.44418052184E+03  0.00000000000E+00 0. -1.
         11    1    4    4    0    0 -0.41253027715E+02  0.18998358069E+02  0.25670032800E+02  0.52169919388E+02  0.00000000000E+00 0.  1.
        -15    1    3    3    0    0  0.14626322995E+03 -0.13660219086E+03 -0.11008833567E+03  0.22841998679E+03  0.17770000000E+01 0.  1.
         15    1    3    3    0    0  0.56158190738E+02 -0.23052026348E+03 -0.13948055528E+03  0.27522957198E+03  0.17770000000E+01 0.  1.
</event>
<event>
 8    1  0.2370702E-007  0.5033762E+03  0.7546771E-02  0.9392287E-01
        -11   -1    0    0    0    0  0.00000000000E+00  0.00000000000E+00  0.50000000000E+03  0.50000000000E+03  0.00000000000E+00 0. -1.
         11   -1    0    0    0    0 -0.00000000000E+00 -0.00000000000E+00 -0.50000000000E+03  0.50000000000E+03  0.00000000000E+00 0.  1.
         25    2    1    2    0    0 -0.47129032850E+03  0.62684235807E+00  0.12509297720E+03  0.50337622427E+03  0.12499761416E+03 0.  0.
         23    2    1    2    0    0  0.47129032850E+03 -0.62684235807E+00 -0.12509297720E+03  0.49662377573E+03  0.94191055913E+02 0.  0.
        -11    1    4    4    0    0  0.30564566662E+03 -0.24262111661E+02 -0.11991102914E+03  0.32922116957E+03  0.00000000000E+00 0.  1.
         11    1    4    4    0    0  0.16564466188E+03  0.23635269303E+02 -0.51819480554E+01  0.16740260616E+03  0.00000000000E+00 0. -1.
        -15    1    3    3    0    0 -0.21683785456E+03 -0.11834753668E+02  0.12095296930E+03  0.24857895140E+03  0.17770000000E+01 0. -1.
         15    1    3    3    0    0 -0.25445247393E+03  0.12461596026E+02  0.41400078964E+01  0.25479727287E+03  0.17770000000E+01 0. -1.
</event>
<event>
 8    1  0.2370702E-007  0.5037719E+03  0.7546771E-02  0.9391409E-01
        -11   -1    0    0    0    0  0.00000000000E+00  0.00000000000E+00  0.50000000000E+03  0.50000000000E+03  0.00000000000E+00 0.  1.
         11   -1    0    0    0    0 -0.00000000000E+00 -0.00000000000E+00 -0.50000000000E+03  0.50000000000E+03  0.00000000000E+00 0. -1.
         25    2    1    2    0    0  0.41608597203E+03 -0.11933591899E+03 -0.22537614744E+03  0.50377188862E+03  0.12499244075E+03 0.  0.
         23    2    1    2    0    0 -0.41608597203E+03  0.11933591899E+03  0.22537614744E+03  0.49622811138E+03  0.89885110028E+02 0.  0.
        -11    1    4    4    0    0 -0.16393718574E+03  0.75216975931E+01  0.10803347550E+03  0.19647699263E+03  0.00000000000E+00 0.  1.
         11    1    4    4    0    0 -0.25214878629E+03  0.11181422140E+03  0.11734267194E+03  0.29975111875E+03  0.00000000000E+00 0. -1.
        -15    1    3    3    0    0  0.21211415261E+03 -0.10931946967E+03 -0.16734084897E+03  0.29146059365E+03  0.17770000000E+01 0. -1.
         15    1    3    3    0    0  0.20397181942E+03 -0.10016449322E+02 -0.58035298469E+02  0.21231129497E+03  0.17770000000E+01 0. -1.
</event>
<event>
 8    1  0.2370702E-007  0.5033509E+03  0.7546771E-02  0.9392343E-01
        -11   -1    0    0    0    0  0.00000000000E+00  0.00000000000E+00  0.50000000000E+03  0.50000000000E+03  0.00000000000E+00 0.  1.
         11   -1    0    0    0    0 -0.00000000000E+00 -0.00000000000E+00 -0.50000000000E+03  0.50000000000E+03  0.00000000000E+00 0. -1.
         25    2    1    2    0    0  0.18788541621E+03 -0.40118238818E+03  0.20368519484E+03  0.50335093170E+03  0.12500505445E+03 0.  0.
         23    2    1    2    0    0 -0.18788541621E+03  0.40118238818E+03 -0.20368519484E+03  0.49664906830E+03  0.94469043825E+02 0.  0.
        -11    1    4    4    0    0 -0.87244473185E+02  0.21823879636E+03 -0.58099414098E+02  0.24210599384E+03  0.00000000000E+00 0.  1.
         11    1    4    4    0    0 -0.10064094302E+03  0.18294359182E+03 -0.14558578074E+03  0.25454307446E+03  0.00000000000E+00 0. -1.
        -15    1    3    3    0    0  0.14799490863E+03 -0.37929327238E+03  0.15231956217E+03  0.43470712692E+03  0.17770000000E+01 0. -1.
         15    1    3    3    0    0  0.39890507581E+02 -0.21889115800E+02  0.51365632668E+02  0.68643804775E+02  0.17770000000E+01 0. -1.
</event>
<event>
 8    1  0.2370702E-007  0.5037107E+03  0.7546771E-02  0.9391545E-01
        -11   -1    0    0    0    0  0.00000000000E+00  0.00000000000E+00  0.50000000000E+03  0.50000000000E+03  0.00000000000E+00 0.  1.
         11   -1    0    0    0    0 -0.00000000000E+00 -0.00000000000E+00 -0.50000000000E+03  0.50000000000E+03  0.00000000000E+00 0. -1.
         25    2    1    2    0    0  0.43758856026E+03  0.71814969553E+02  0.20361465740E+03  0.50371071693E+03  0.12499767885E+03 0.  0.
         23    2    1    2    0    0 -0.43758856026E+03 -0.71814969553E+02 -0.20361465740E+03  0.49628928307E+03  0.90570336483E+02 0.  0.
        -11    1    4    4    0    0 -0.11353042603E+03 -0.14050931108E+02 -0.97885846932E+02  0.15055970685E+03  0.00000000000E+00 0.  1.
         11    1    4    4    0    0 -0.32405813424E+03 -0.57764038445E+02 -0.10572881047E+03  0.34572957621E+03  0.00000000000E+00 0. -1.
        -15    1    3    3    0    0  0.25596122808E+03 -0.17005313575E+02  0.90476589099E+02  0.27201930423E+03  0.17770000000E+01 0. -1.
         15    1    3    3    0    0  0.18162733218E+03  0.88820283128E+02  0.11313806830E+03  0.23169141270E+03  0.17770000000E+01 0. -1.
</event>
<event>
 8    1  0.2370702E-007  0.5036599E+03  0.7546771E-02  0.9391657E-01
        -11   -1    0    0    0    0  0.00000000000E+00  0.00000000000E+00  0.50000000000E+03  0.50000000000E+03  0.00000000000E+00 0. -1.
         11   -1    0    0    0    0 -0.00000000000E+00 -0.00000000000E+00 -0.50000000000E+03  0.50000000000E+03  0.00000000000E+00 0.  1.
         25    2    1    2    0    0  0.25192144539E+03  0.19367529267E+03  0.37023467227E+03  0.50365989392E+03  0.12500017024E+03 0.  0.
         23    2    1    2    0    0 -0.25192144539E+03 -0.19367529267E+03 -0.37023467227E+03  0.49634010608E+03  0.91133170209E+02 0.  0.
        -11    1    4    4    0    0 -0.91239647466E+02 -0.10997507641E+03 -0.21276074118E+03  0.25629343278E+03  0.00000000000E+00 0.  1.
         11    1    4    4    0    0 -0.16068179793E+03 -0.83700216257E+02 -0.15747393109E+03  0.24004667329E+03  0.00000000000E+00 0. -1.
        -15    1    3    3    0    0  0.95671013084E+01  0.63066869658E+02  0.48135463260E+02  0.79932096358E+02  0.17770000000E+01 0.  1.
         15    1    3    3    0    0  0.24235434408E+03  0.13060842301E+03  0.32209920901E+03  0.42372779757E+03  0.17770000000E+01 0.  1.
</event>
<event>
 8    1  0.2370702E-007  0.5035415E+03  0.7546771E-02  0.9391920E-01
        -11   -1    0    0    0    0  0.00000000000E+00  0.00000000000E+00  0.50000000000E+03  0.50000000000E+03  0.00000000000E+00 0. -1.
         11   -1    0    0    0    0 -0.00000000000E+00 -0.00000000000E+00 -0.50000000000E+03  0.50000000000E+03  0.00000000000E+00 0.  1.
         25    2    1    2    0    0  0.18481395175E+03  0.19241060545E+03 -0.40835045055E+03  0.50354147327E+03  0.12500354790E+03 0.  0.
         23    2    1    2    0    0 -0.18481395175E+03 -0.19241060545E+03  0.40835045055E+03  0.49645852673E+03  0.92428028483E+02 0.  0.
        -11    1    4    4    0    0 -0.42673122518E+02 -0.14132683703E+02  0.27871073910E+02  0.52891633507E+02  0.00000000000E+00 0.  1.
         11    1    4    4    0    0 -0.14214082923E+03 -0.17827792175E+03  0.38047937664E+03  0.44356689322E+03  0.00000000000E+00 0. -1.
        -15    1    3    3    0    0  0.69649153747E+02  0.50438873394E+01 -0.62789815011E+02  0.93926375503E+02  0.17770000000E+01 0.  1.
         15    1    3    3    0    0  0.11516479801E+03  0.18736671811E+03 -0.34556063554E+03  0.40961509777E+03  0.17770000000E+01 0.  1.
</event>
<event>
 8    1  0.2370702E-007  0.5036003E+03  0.7546771E-02  0.9391790E-01
        -11   -1    0    0    0    0  0.00000000000E+00  0.00000000000E+00  0.50000000000E+03  0.50000000000E+03  0.00000000000E+00 0. -1.
         11   -1    0    0    0    0 -0.00000000000E+00 -0.00000000000E+00 -0.50000000000E+03  0.50000000000E+03  0.00000000000E+00 0.  1.
         25    2    1    2    0    0  0.34071737746E+03 -0.91645162468E+02  0.33689967191E+03  0.50360031449E+03  0.12499888288E+03 0.  0.
         23    2    1    2    0    0 -0.34071737746E+03  0.91645162468E+02 -0.33689967191E+03  0.49639968551E+03  0.91782850978E+02 0.  0.
        -11    1    4    4    0    0 -0.14354486611E+03  0.73923495517E+02 -0.11049333409E+03  0.19564914683E+03  0.00000000000E+00 0.  1.
         11    1    4    4    0    0 -0.19717251134E+03  0.17721666950E+02 -0.22640633782E+03  0.30075053868E+03  0.00000000000E+00 0. -1.
        -15    1    3    3    0    0  0.74542739540E+02 -0.29483038384E+02  0.15469155311E+02  0.81659794670E+02  0.17770000000E+01 0.  1.
         15    1    3    3    0    0  0.26617463792E+03 -0.62162124083E+02  0.32143051660E+03  0.42194051982E+03  0.17770000000E+01 0.  1.
</event>
<event>
 8    1  0.2370702E-007  0.5037209E+03  0.7546771E-02  0.9391522E-01
        -11   -1    0    0    0    0  0.00000000000E+00  0.00000000000E+00  0.50000000000E+03  0.50000000000E+03  0.00000000000E+00 0. -1.
         11   -1    0    0    0    0 -0.00000000000E+00 -0.00000000000E+00 -0.50000000000E+03  0.50000000000E+03  0.00000000000E+00 0.  1.
         25    2    1    2    0    0 -0.27093040671E+03  0.38994285113E+03 -0.11247025570E+03  0.50372088612E+03  0.12500584090E+03 0.  0.
         23    2    1    2    0    0  0.27093040671E+03 -0.38994285113E+03  0.11247025570E+03  0.49627911388E+03  0.90469265663E+02 0.  0.
        -11    1    4    4    0    0  0.88903277894E+02 -0.62462039747E+02  0.22474648542E+02  0.11095228279E+03  0.00000000000E+00 0.  1.
         11    1    4    4    0    0  0.18202712882E+03 -0.32748081139E+03  0.89995607157E+02  0.38532683109E+03  0.00000000000E+00 0. -1.
        -15    1    3    3    0    0 -0.22177806846E+03  0.35908978182E+03 -0.61606641754E+02  0.42653196725E+03  0.17770000000E+01 0. -1.
         15    1    3    3    0    0 -0.49152338255E+02  0.30853069319E+02 -0.50863613945E+02  0.77188918860E+02  0.17770000000E+01 0. -1.
</event>
<event>
 8    1  0.2370702E-007  0.5040839E+03  0.7546771E-02  0.9390718E-01
        -11   -1    0    0    0    0  0.00000000000E+00  0.00000000000E+00  0.50000000000E+03  0.50000000000E+03  0.00000000000E+00 0. -1.
         11   -1    0    0    0    0 -0.00000000000E+00 -0.00000000000E+00 -0.50000000000E+03  0.50000000000E+03  0.00000000000E+00 0.  1.
         25    2    1    2    0    0 -0.25047595994E+03  0.37835797458E+03 -0.18050219488E+03  0.50408388657E+03  0.12500623546E+03 0.  0.
         23    2    1    2    0    0  0.25047595994E+03 -0.37835797458E+03  0.18050219488E+03  0.49591611343E+03  0.86364262082E+02 0.  0.
        -11    1    4    4    0    0  0.25135326881E+02 -0.21847282806E+02 -0.75290009304E+01  0.34143436828E+02  0.00000000000E+00 0.  1.
         11    1    4    4    0    0  0.22534063306E+03 -0.35651069178E+03  0.18803119581E+03  0.46177267660E+03  0.00000000000E+00 0. -1.
        -15    1    3    3    0    0 -0.15310940110E+03  0.27907028803E+03 -0.17859777021E+03  0.36499730906E+03  0.17770000000E+01 0.  1.
         15    1    3    3    0    0 -0.97366558837E+02  0.99287686557E+02 -0.19044246636E+01  0.13908657751E+03  0.17770000000E+01 0.  1.
</event>
<event>
 8    1  0.2370702E-007  0.5029375E+03  0.7546771E-02  0.9393261E-01
        -11   -1    0    0    0    0  0.00000000000E+00  0.00000000000E+00  0.50000000000E+03  0.50000000000E+03  0.00000000000E+00 0.  1.
         11   -1    0    0    0    0 -0.00000000000E+00 -0.00000000000E+00 -0.50000000000E+03  0.50000000000E+03  0.00000000000E+00 0. -1.
         25    2    1    2    0    0  0.42654725341E+03  0.22948480416E+03  0.52116596412E+02  0.50293750226E+03  0.12499662724E+03 0.  0.
         23    2    1    2    0    0 -0.42654725341E+03 -0.22948480416E+03 -0.52116596412E+02  0.49706249774E+03  0.98737795720E+02 0.  0.
        -11    1    4    4    0    0 -0.37454937609E+03 -0.18124096637E+03 -0.13531288255E+02  0.41631552791E+03  0.00000000000E+00 0. -1.
         11    1    4    4    0    0 -0.51997877326E+02 -0.48243837790E+02 -0.38585308156E+02  0.80746969829E+02  0.00000000000E+00 0.  1.
        -15    1    3    3    0    0  0.36687852863E+03  0.23898690508E+03  0.60117252857E+02  0.44196361546E+03  0.17770000000E+01 0.  1.
         15    1    3    3    0    0  0.59668724782E+02 -0.95021009156E+01 -0.80006564458E+01  0.60973886800E+02  0.17770000000E+01 0.  1.
</event>
<event>
 8    1  0.2370702E-007  0.5037354E+03  0.7546771E-02  0.9391490E-01
        -11   -1    0    0    0    0  0.00000000000E+00  0.00000000000E+00  0.50000000000E+03  0.50000000000E+03  0.00000000000E+00 0.  1.
         11   -1    0    0    0    0 -0.00000000000E+00 -0.00000000000E+00 -0.50000000000E+03  0.50000000000E+03  0.00000000000E+00 0. -1.
         25    2    1    2    0    0 -0.41994527906E+03 -0.21914659693E+02 -0.24756839606E+03  0.50373540856E+03  0.12499984558E+03 0.  0.
         23    2    1    2    0    0  0.41994527906E+03  0.21914659693E+02  0.24756839606E+03  0.49626459144E+03  0.90300300574E+02 0.  0.
        -11    1    4    4    0    0  0.22723353541E+03  0.37310563821E+02  0.91438587713E+02  0.24776636799E+03  0.00000000000E+00 0.  1.
         11    1    4    4    0    0  0.19271174365E+03 -0.15395904128E+02  0.15612980834E+03  0.24849822345E+03  0.00000000000E+00 0. -1.
        -15    1    3    3    0    0  0.42360125890E+01  0.51322220261E+01  0.57111911794E+01  0.89475661086E+01  0.17770000000E+01 0.  1.
         15    1    3    3    0    0 -0.42418129165E+03 -0.27046881719E+02 -0.25327958724E+03  0.49478784245E+03  0.17770000000E+01 0.  1.
</event>
<event>
 8    1  0.2370702E-007  0.5035422E+03  0.7546771E-02  0.9391918E-01
        -11   -1    0    0    0    0  0.00000000000E+00  0.00000000000E+00  0.50000000000E+03  0.50000000000E+03  0.00000000000E+00 0.  1.
         11   -1    0    0    0    0 -0.00000000000E+00 -0.00000000000E+00 -0.50000000000E+03  0.50000000000E+03  0.00000000000E+00 0. -1.
         25    2    1    2    0    0 -0.46648854942E+03 -0.14253803444E+03 -0.10451653491E+01  0.50354220139E+03  0.12499999284E+03 0.  0.
         23    2    1    2    0    0  0.46648854942E+03  0.14253803444E+03  0.10451653491E+01  0.49645779861E+03  0.92415341929E+02 0.  0.
        -11    1    4    4    0    0  0.87519825400E+02  0.33506716875E+02  0.36398341257E+02  0.10053486539E+03  0.00000000000E+00 0.  1.
         11    1    4    4    0    0  0.37896872402E+03  0.10903131757E+03 -0.35353175908E+02  0.39592293321E+03  0.00000000000E+00 0. -1.
        -15    1    3    3    0    0 -0.47720047918E+02 -0.48961615824E+02 -0.27298884299E+02  0.73639864274E+02  0.17770000000E+01 0.  1.
         15    1    3    3    0    0 -0.41876850150E+03 -0.93576418618E+02  0.26253718950E+02  0.42990233712E+03  0.17770000000E+01 0.  1.
</event>
<event>
 8    1  0.2370702E-007  0.5033303E+03  0.7546771E-02  0.9392389E-01
        -11   -1    0    0    0    0  0.00000000000E+00  0.00000000000E+00  0.50000000000E+03  0.50000000000E+03  0.00000000000E+00 0.  1.
         11   -1    0    0    0    0 -0.00000000000E+00 -0.00000000000E+00 -0.50000000000E+03  0.50000000000E+03  0.00000000000E+00 0. -1.
         25    2    1    2    0    0 -0.15327115655E+03 -0.34605038367E+03  0.30736679715E+03  0.50333029033E+03  0.12499647079E+03 0.  0.
         23    2    1    2    0    0  0.15327115655E+03  0.34605038367E+03 -0.30736679715E+03  0.49666970967E+03  0.94675958105E+02 0.  0.
        -11    1    4    4    0    0 -0.73187833571E+01  0.17568270155E+02 -0.42346859747E-01  0.19031828586E+02  0.00000000000E+00 0.  1.
         11    1    4    4    0    0  0.16058993990E+03  0.32848211352E+03 -0.30732445029E+03  0.47763788108E+03  0.00000000000E+00 0. -1.
        -15    1    3    3    0    0 -0.15174515280E+03 -0.20028751576E+03  0.17308171603E+03  0.30512639761E+03  0.17770000000E+01 0. -1.
         15    1    3    3    0    0 -0.15260037451E+01 -0.14576286791E+03  0.13428508112E+03  0.19820389272E+03  0.17770000000E+01 0. -1.
</event>
<event>
 8    1  0.2370702E-007  0.5035893E+03  0.7546771E-02  0.9391814E-01
        -11   -1    0    0    0    0  0.00000000000E+00  0.00000000000E+00  0.50000000000E+03  0.50000000000E+03  0.00000000000E+00 0.  1.
         11   -1    0    0    0    0 -0.00000000000E+00 -0.00000000000E+00 -0.50000000000E+03  0.50000000000E+03  0.00000000000E+00 0. -1.
         25    2    1    2    0    0 -0.38324958728E+03  0.28191003208E+03  0.10780844573E+03  0.50358932147E+03  0.12500412552E+03 0.  0.
         23    2    1    2    0    0  0.38324958728E+03 -0.28191003208E+03 -0.10780844573E+03  0.49641067853E+03  0.91909675501E+02 0.  0.
        -11    1    4    4    0    0  0.27713409748E+03 -0.22715627977E+03 -0.11620945879E+03  0.37670667865E+03  0.00000000000E+00 0. -1.
         11    1    4    4    0    0  0.10611548979E+03 -0.54753752315E+02  0.84010130658E+01  0.11970399988E+03  0.00000000000E+00 0.  1.
        -15    1    3    3    0    0 -0.26620463948E+03  0.21732497277E+03  0.21227547667E+02  0.34430919299E+03  0.17770000000E+01 0.  1.
         15    1    3    3    0    0 -0.11704494780E+03  0.64585059307E+02  0.86580898059E+02  0.15928012848E+03  0.17770000000E+01 0.  1.
</event>
<event>
 8    1  0.2370702E-007  0.5037863E+03  0.7546771E-02  0.9391377E-01
        -11   -1    0    0    0    0  0.00000000000E+00  0.00000000000E+00  0.50000000000E+03  0.50000000000E+03  0.00000000000E+00 0.  1.
         11   -1    0    0    0    0 -0.00000000000E+00 -0.00000000000E+00 -0.50000000000E+03  0.50000000000E+03  0.00000000000E+00 0. -1.
         25    2    1    2    0    0  0.46750644192E+03  0.80239479167E+01  0.13981482907E+03  0.50378627110E+03  0.12500305414E+03 0.  0.
         23    2    1    2    0    0 -0.46750644192E+03 -0.80239479167E+01 -0.13981482907E+03  0.49621372890E+03  0.89739742306E+02 0.  0.
        -11    1    4    4    0    0 -0.15055856532E+03 -0.39264622452E+02 -0.67603100059E+02  0.16964601766E+03  0.00000000000E+00 0. -1.
         11    1    4    4    0    0 -0.31694787659E+03  0.31240674535E+02 -0.72211729009E+02  0.32656771125E+03  0.00000000000E+00 0.  1.
        -15    1    3    3    0    0  0.25631522004E+03 -0.41805784364E+02  0.11936987388E+03  0.28582781556E+03  0.17770000000E+01 0. -1.
         15    1    3    3    0    0  0.21119122188E+03  0.49829732281E+02  0.20444955192E+02  0.21795845554E+03  0.17770000000E+01 0. -1.
</event>
<event>
 8    1  0.2370702E-007  0.5034190E+03  0.7546771E-02  0.9392192E-01
        -11   -1    0    0    0    0  0.00000000000E+00  0.00000000000E+00  0.50000000000E+03  0.50000000000E+03  0.00000000000E+00 0.  1.
         11   -1    0    0    0    0 -0.00000000000E+00 -0.00000000000E+00 -0.50000000000E+03  0.50000000000E+03  0.00000000000E+00 0. -1.
         25    2    1    2    0    0  0.35831915775E+03 -0.27895687315E+03  0.17775318883E+03  0.50341904340E+03  0.12499992492E+03 0.  0.
         23    2    1    2    0    0 -0.35831915775E+03  0.27895687315E+03 -0.17775318883E+03  0.49658095660E+03  0.93738436292E+02 0.  0.
        -11    1    4    4    0    0 -0.10701480247E+03  0.13738797059E+03 -0.50514625682E+02  0.18132663847E+03  0.00000000000E+00 0.  1.
         11    1    4    4    0    0 -0.25130435528E+03  0.14156890256E+03 -0.12723856314E+03  0.31525431814E+03  0.00000000000E+00 0. -1.
        -15    1    3    3    0    0  0.29983299111E+03 -0.28116352886E+03  0.16803793887E+03  0.44406380076E+03  0.17770000000E+01 0. -1.
         15    1    3    3    0    0  0.58486166640E+02  0.22066557089E+01  0.97152499575E+01  0.59355242636E+02  0.17770000000E+01 0. -1.
</event>
<event>
 8    1  0.2370702E-007  0.5035489E+03  0.7546771E-02  0.9391904E-01
        -11   -1    0    0    0    0  0.00000000000E+00  0.00000000000E+00  0.50000000000E+03  0.50000000000E+03  0.00000000000E+00 0.  1.
         11   -1    0    0    0    0 -0.00000000000E+00 -0.00000000000E+00 -0.50000000000E+03  0.50000000000E+03  0.00000000000E+00 0. -1.
         25    2    1    2    0    0 -0.10755152651E+03  0.47311820975E+03  0.50285841754E+02  0.50354891911E+03  0.12499870721E+03 0.  0.
         23    2    1    2    0    0  0.10755152651E+03 -0.47311820975E+03 -0.50285841754E+02  0.49645108089E+03  0.92340882523E+02 0.  0.
        -11    1    4    4    0    0  0.26558738545E+02 -0.10956535922E+03  0.27286530939E+02  0.11599348820E+03  0.00000000000E+00 0.  1.
         11    1    4    4    0    0  0.80992787965E+02 -0.36355285053E+03 -0.77572372693E+02  0.38045759269E+03  0.00000000000E+00 0. -1.
        -15    1    3    3    0    0  0.23068152612E+02  0.12772216030E+03  0.32701392786E+02  0.13385674700E+03  0.17770000000E+01 0.  1.
         15    1    3    3    0    0 -0.13061967912E+03  0.34539604945E+03  0.17584448967E+02  0.36969217211E+03  0.17770000000E+01 0.  1.
</event>
<event>
 8    1  0.2370702E-007  0.5033117E+03  0.7546771E-02  0.9392430E-01
        -11   -1    0    0    0    0  0.00000000000E+00  0.00000000000E+00  0.50000000000E+03  0.50000000000E+03  0.00000000000E+00 0.  1.
         11   -1    0    0    0    0 -0.00000000000E+00 -0.00000000000E+00 -0.50000000000E+03  0.50000000000E+03  0.00000000000E+00 0. -1.
         25    2    1    2    0    0  0.18553262135E+03 -0.44259732706E+03 -0.85922480486E+02  0.50331167338E+03  0.12500088160E+03 0.  0.
         23    2    1    2    0    0 -0.18553262135E+03  0.44259732706E+03  0.85922480486E+02  0.49668832662E+03  0.94878204251E+02 0.  0.
        -11    1    4    4    0    0 -0.23139503100E+02  0.88709025273E+02 -0.18575756828E+02  0.93540293512E+02  0.00000000000E+00 0. -1.
         11    1    4    4    0    0 -0.16239311825E+03  0.35388830179E+03  0.10449823731E+03  0.40314803311E+03  0.00000000000E+00 0.  1.
        -15    1    3    3    0    0  0.15587019076E+03 -0.21166268300E+03 -0.38142033918E+02  0.26562112157E+03  0.17770000000E+01 0. -1.
         15    1    3    3    0    0  0.29662430586E+02 -0.23093464406E+03 -0.47780446568E+02  0.23769055181E+03  0.17770000000E+01 0. -1.
</event>
<event>
 8    1  0.2370702E-007  0.5033861E+03  0.7546771E-02  0.9392265E-01
        -11   -1    0    0    0    0  0.00000000000E+00  0.00000000000E+00  0.50000000000E+03  0.50000000000E+03  0.00000000000E+00 0. -1.
         11   -1    0    0    0    0 -0.00000000000E+00 -0.00000000000E+00 -0.50000000000E+03  0.50000000000E+03  0.00000000000E+00 0.  1.
         25    2    1    2    0    0  0.43049992088E+03 -0.15100701020E+03 -0.17216330605E+03  0.50338609152E+03  0.12499621666E+03 0.  0.
         23    2    1    2    0    0 -0.43049992088E+03  0.15100701020E+03  0.17216330605E+03  0.49661390848E+03  0.94084383084E+02 0.  0.
        -11    1    4    4    0    0 -0.42755275927E+03  0.13682786716E+03  0.15682246200E+03  0.47551709936E+03  0.00000000000E+00 0.  1.
         11    1    4    4    0    0 -0.29471616030E+01  0.14179143043E+02  0.15340844050E+02  0.21096809122E+02  0.00000000000E+00 0. -1.
        -15    1    3    3    0    0  0.77739582345E+02  0.18688404062E+01 -0.72223807470E+02  0.10614316427E+03  0.17770000000E+01 0.  1.
         15    1    3    3    0    0  0.35276033853E+03 -0.15287585061E+03 -0.99939498581E+02  0.39724292725E+03  0.17770000000E+01 0.  1.
</event>
<event>
 8    1  0.2370702E-007  0.5034992E+03  0.7546771E-02  0.9392014E-01
        -11   -1    0    0    0    0  0.00000000000E+00  0.00000000000E+00  0.50000000000E+03  0.50000000000E+03  0.00000000000E+00 0. -1.
         11   -1    0    0    0    0 -0.00000000000E+00 -0.00000000000E+00 -0.50000000000E+03  0.50000000000E+03  0.00000000000E+00 0.  1.
         25    2    1    2    0    0 -0.44169380671E+03 -0.19781661813E+03  0.60506374894E+02  0.50349916000E+03  0.12500219769E+03 0.  0.
         23    2    1    2    0    0  0.44169380671E+03  0.19781661813E+03 -0.60506374894E+02  0.49650084000E+03  0.92882880125E+02 0.  0.
        -11    1    4    4    0    0  0.82269343537E+02  0.48401111651E+02  0.23485476609E+02  0.98297915067E+02  0.00000000000E+00 0.  1.
         11    1    4    4    0    0  0.35942446317E+03  0.14941550648E+03 -0.83991851503E+02  0.39820292493E+03  0.00000000000E+00 0. -1.
        -15    1    3    3    0    0 -0.31575680656E+03 -0.13728066655E+03 -0.15043896276E+02  0.34464158026E+03  0.17770000000E+01 0. -1.
         15    1    3    3    0    0 -0.12593700015E+03 -0.60535951579E+02  0.75550271169E+02  0.15885757975E+03  0.17770000000E+01 0. -1.
</event>
<event>
 8    1  0.2370702E-007  0.5036536E+03  0.7546771E-02  0.9391671E-01
        -11   -1    0    0    0    0  0.00000000000E+00  0.00000000000E+00  0.50000000000E+03  0.50000000000E+03  0.00000000000E+00 0.  1.
         11   -1    0    0    0    0 -0.00000000000E+00 -0.00000000000E+00 -0.50000000000E+03  0.50000000000E+03  0.00000000000E+00 0. -1.
         25    2    1    2    0    0  0.15154493146E+03  0.34722463670E+03 -0.30742640834E+03  0.50365364405E+03  0.12500072815E+03 0.  0.
         23    2    1    2    0    0 -0.15154493146E+03 -0.34722463670E+03  0.30742640834E+03  0.49634635595E+03  0.91202488687E+02 0.  0.
        -11    1    4    4    0    0 -0.62148792171E+02 -0.51473993528E+02  0.61952304304E+02  0.10173560039E+03  0.00000000000E+00 0.  1.
         11    1    4    4    0    0 -0.89396139292E+02 -0.29575064317E+03  0.24547410403E+03  0.39461075556E+03  0.00000000000E+00 0. -1.
        -15    1    3    3    0    0  0.91057823607E+01 -0.10133958032E+02 -0.63218130005E+01  0.15124001666E+02  0.17770000000E+01 0.  1.
         15    1    3    3    0    0  0.14243914910E+03  0.35735859473E+03 -0.30110459534E+03  0.48852964238E+03  0.17770000000E+01 0.  1.
</event>
<event>
 8    1  0.2370702E-007  0.5036012E+03  0.7546771E-02  0.9391788E-01
        -11   -1    0    0    0    0  0.00000000000E+00  0.00000000000E+00  0.50000000000E+03  0.50000000000E+03  0.00000000000E+00 0.  1.
         11   -1    0    0    0    0 -0.00000000000E+00 -0.00000000000E+00 -0.50000000000E+03  0.50000000000E+03  0.00000000000E+00 0. -1.
         25    2    1    2    0    0  0.86440587697E+02 -0.30756958956E+03  0.36866939437E+03  0.50360115555E+03  0.12500389553E+03 0.  0.
         23    2    1    2    0    0 -0.86440587697E+02  0.30756958956E+03 -0.36866939437E+03  0.49639884445E+03  0.91780514288E+02 0.  0.
        -11    1    4    4    0    0  0.11398194117E+02  0.59338048302E+02 -0.10583192159E+03  0.12186598555E+03  0.00000000000E+00 0.  1.
         11    1    4    4    0    0 -0.97838781814E+02  0.24823154126E+03 -0.26283747278E+03  0.37453285891E+03  0.00000000000E+00 0. -1.
        -15    1    3    3    0    0  0.11138056622E+03 -0.20395245601E+03  0.28717978564E+03  0.36942877778E+03  0.17770000000E+01 0.  1.
         15    1    3    3    0    0 -0.24939978525E+02 -0.10361713356E+03  0.81489608727E+02  0.13417237776E+03  0.17770000000E+01 0.  1.
</event>
<event>
 8    1  0.2370702E-007  0.5036529E+03  0.7546771E-02  0.9391673E-01
        -11   -1    0    0    0    0  0.00000000000E+00  0.00000000000E+00  0.50000000000E+03  0.50000000000E+03  0.00000000000E+00 0.  1.
         11   -1    0    0    0    0 -0.00000000000E+00 -0.00000000000E+00 -0.50000000000E+03  0.50000000000E+03  0.00000000000E+00 0. -1.
         25    2    1    2    0    0 -0.13720825945E+03  0.39401970890E+03  0.25291206172E+03  0.50365288214E+03  0.12499630899E+03 0.  0.
         23    2    1    2    0    0  0.13720825945E+03 -0.39401970890E+03 -0.25291206172E+03  0.49634711786E+03  0.91204785970E+02 0.  0.
        -11    1    4    4    0    0  0.83968562528E+02 -0.11713146575E+03 -0.10178968991E+03  0.17644160715E+03  0.00000000000E+00 0.  1.
         11    1    4    4    0    0  0.53239696921E+02 -0.27688824314E+03 -0.15112237182E+03  0.31990551071E+03  0.00000000000E+00 0. -1.
        -15    1    3    3    0    0 -0.54796513703E+01  0.19968705654E+03  0.13330946209E+03  0.24016560441E+03  0.17770000000E+01 0.  1.
         15    1    3    3    0    0 -0.13172860808E+03  0.19433265236E+03  0.11960259963E+03  0.26348727773E+03  0.17770000000E+01 0.  1.
</event>
<event>
 8    1  0.2370702E-007  0.5035550E+03  0.7546771E-02  0.9391890E-01
        -11   -1    0    0    0    0  0.00000000000E+00  0.00000000000E+00  0.50000000000E+03  0.50000000000E+03  0.00000000000E+00 0.  1.
         11   -1    0    0    0    0 -0.00000000000E+00 -0.00000000000E+00 -0.50000000000E+03  0.50000000000E+03  0.00000000000E+00 0. -1.
         25    2    1    2    0    0  0.18238860427E+03 -0.45233272496E+03 -0.85833239663E+01  0.50355499043E+03  0.12499383144E+03 0.  0.
         23    2    1    2    0    0 -0.18238860427E+03  0.45233272496E+03  0.85833239663E+01  0.49644500957E+03  0.92268505098E+02 0.  0.
        -11    1    4    4    0    0 -0.15998793376E+03  0.41056357047E+03 -0.20015187788E+02  0.44108864425E+03  0.00000000000E+00 0.  1.
         11    1    4    4    0    0 -0.22400670514E+02  0.41769154498E+02  0.28598511754E+02  0.55356365321E+02  0.00000000000E+00 0. -1.
        -15    1    3    3    0    0  0.23846353396E+02 -0.63309254978E-01  0.33759121536E+01  0.24149680954E+02  0.17770000000E+01 0. -1.
         15    1    3    3    0    0  0.15854225087E+03 -0.45226941571E+03 -0.11959236120E+02  0.47940530948E+03  0.17770000000E+01 0. -1.
</event>
<event>
 8    1  0.2370702E-007  0.5036551E+03  0.7546771E-02  0.9391668E-01
        -11   -1    0    0    0    0  0.00000000000E+00  0.00000000000E+00  0.50000000000E+03  0.50000000000E+03  0.00000000000E+00 0. -1.
         11   -1    0    0    0    0 -0.00000000000E+00 -0.00000000000E+00 -0.50000000000E+03  0.50000000000E+03  0.00000000000E+00 0.  1.
         25    2    1    2    0    0  0.14581338174E+03 -0.45643841348E+03  0.91908744195E+02  0.50365507961E+03  0.12499461735E+03 0.  0.
         23    2    1    2    0    0 -0.14581338174E+03  0.45643841348E+03 -0.91908744195E+02  0.49634492039E+03  0.91178369900E+02 0.  0.
        -11    1    4    4    0    0 -0.10043111024E+03  0.35103740241E+03 -0.10730016912E+03  0.38056141697E+03  0.00000000000E+00 0.  1.
         11    1    4    4    0    0 -0.45382271502E+02  0.10540101107E+03  0.15391424926E+02  0.11578350342E+03  0.00000000000E+00 0. -1.
        -15    1    3    3    0    0  0.84441158396E+01 -0.23117040285E+03  0.44711424968E+02  0.23561266413E+03  0.17770000000E+01 0.  1.
         15    1    3    3    0    0  0.13736926590E+03 -0.22526801063E+03  0.47197319227E+02  0.26804241548E+03  0.17770000000E+01 0.  1.
</event>
<event>
 8    1  0.2370702E-007  0.5036607E+03  0.7546771E-02  0.9391656E-01
        -11   -1    0    0    0    0  0.00000000000E+00  0.00000000000E+00  0.50000000000E+03  0.50000000000E+03  0.00000000000E+00 0. -1.
         11   -1    0    0    0    0 -0.00000000000E+00 -0.00000000000E+00 -0.50000000000E+03  0.50000000000E+03  0.00000000000E+00 0.  1.
         25    2    1    2    0    0 -0.33894788424E+03 -0.77324225467E+02  0.34231881453E+03  0.50366068044E+03  0.12500882435E+03 0.  0.
         23    2    1    2    0    0  0.33894788424E+03  0.77324225467E+02 -0.34231881453E+03  0.49633931956E+03  0.91136410298E+02 0.  0.
        -11    1    4    4    0    0  0.21281900817E+03  0.33187233319E+02 -0.15130310566E+03  0.26322224920E+03  0.00000000000E+00 0. -1.
         11    1    4    4    0    0  0.12612887607E+03  0.44136992148E+02 -0.19101570887E+03  0.23311707036E+03  0.00000000000E+00 0.  1.
        -15    1    3    3    0    0 -0.28175752745E+02 -0.37122622442E+02  0.11601823013E+02  0.48059568932E+02  0.17770000000E+01 0.  1.
         15    1    3    3    0    0 -0.31077213150E+03 -0.40201603026E+02  0.33071699152E+03  0.45560111151E+03  0.17770000000E+01 0.  1.
</event>
<event>
 8    1  0.2370702E-007  0.5037992E+03  0.7546771E-02  0.9391349E-01
        -11   -1    0    0    0    0  0.00000000000E+00  0.00000000000E+00  0.50000000000E+03  0.50000000000E+03  0.00000000000E+00 0.  1.
         11   -1    0    0    0    0 -0.00000000000E+00 -0.00000000000E+00 -0.50000000000E+03  0.50000000000E+03  0.00000000000E+00 0. -1.
         25    2    1    2    0    0  0.40459988001E+03 -0.72199760815E+02  0.26320192181E+03  0.50379917860E+03  0.12499796939E+03 0.  0.
         23    2    1    2    0    0 -0.40459988001E+03  0.72199760815E+02 -0.26320192181E+03  0.49620082140E+03  0.89588699912E+02 0.  0.
        -11    1    4    4    0    0 -0.29649419248E+03  0.89486279394E+02 -0.17586675353E+03  0.35615406129E+03  0.00000000000E+00 0.  1.
         11    1    4    4    0    0 -0.10810568753E+03 -0.17286518578E+02 -0.87335168277E+02  0.14004676011E+03  0.00000000000E+00 0. -1.
        -15    1    3    3    0    0  0.32286443243E+03 -0.10678313106E+03  0.22045076250E+03  0.40527247035E+03  0.17770000000E+01 0.  1.
         15    1    3    3    0    0  0.81735447579E+02  0.34583370242E+02  0.42751159304E+02  0.98526708252E+02  0.17770000000E+01 0.  1.
</event>
<event>
 8    1  0.2370702E-007  0.5036684E+03  0.7546771E-02  0.9391639E-01
        -11   -1    0    0    0    0  0.00000000000E+00  0.00000000000E+00  0.50000000000E+03  0.50000000000E+03  0.00000000000E+00 0. -1.
         11   -1    0    0    0    0 -0.00000000000E+00 -0.00000000000E+00 -0.50000000000E+03  0.50000000000E+03  0.00000000000E+00 0.  1.
         25    2    1    2    0    0 -0.34735013298E+03  0.10308579480E+03 -0.32676838657E+03  0.50366842661E+03  0.12500203812E+03 0.  0.
         23    2    1    2    0    0  0.34735013298E+03 -0.10308579480E+03  0.32676838657E+03  0.49633157339E+03  0.91042057919E+02 0.  0.
        -11    1    4    4    0    0  0.30082382857E+03 -0.75043489987E+02  0.31240690112E+03  0.44014153757E+03  0.00000000000E+00 0. -1.
         11    1    4    4    0    0  0.46526304415E+02 -0.28042304809E+02  0.14361485449E+02  0.56190035823E+02  0.00000000000E+00 0.  1.
        -15    1    3    3    0    0 -0.16817977907E+03  0.41634886054E+02 -0.23822697523E+03  0.29457282848E+03  0.17770000000E+01 0. -1.
         15    1    3    3    0    0 -0.17917035391E+03  0.61450908742E+02 -0.88541411341E+02  0.20909559813E+03  0.17770000000E+01 0. -1.
</event>
<event>
 8    1  0.2370702E-007  0.5036844E+03  0.7546771E-02  0.9391603E-01
        -11   -1    0    0    0    0  0.00000000000E+00  0.00000000000E+00  0.50000000000E+03  0.50000000000E+03  0.00000000000E+00 0. -1.
         11   -1    0    0    0    0 -0.00000000000E+00 -0.00000000000E+00 -0.50000000000E+03  0.50000000000E+03  0.00000000000E+00 0.  1.
         25    2    1    2    0    0  0.35267219566E+03 -0.30006657234E+03 -0.15378038485E+03  0.50368440309E+03  0.12502777981E+03 0.  0.
         23    2    1    2    0    0 -0.35267219566E+03  0.30006657234E+03  0.15378038485E+03  0.49631559691E+03  0.90901812653E+02 0.  0.
        -11    1    4    4    0    0 -0.26853063337E+03  0.25021154256E+03  0.15520910011E+03  0.39850267483E+03  0.00000000000E+00 0.  1.
         11    1    4    4    0    0 -0.84141562291E+02  0.49855029782E+02 -0.14287152584E+01  0.97812922084E+02  0.00000000000E+00 0. -1.
        -15    1    3    3    0    0  0.74706487844E+02 -0.11438485871E+03 -0.89335592497E+02  0.16324509500E+03  0.17770000000E+01 0. -1.
         15    1    3    3    0    0  0.27796570782E+03 -0.18568171363E+03 -0.64444792351E+02  0.34043930809E+03  0.17770000000E+01 0. -1.
</event>
<event>
 8    1  0.2370702E-007  0.5038987E+03  0.7546771E-02  0.9391128E-01
        -11   -1    0    0    0    0  0.00000000000E+00  0.00000000000E+00  0.50000000000E+03  0.50000000000E+03  0.00000000000E+00 0. -1.
         11   -1    0    0    0    0 -0.00000000000E+00 -0.00000000000E+00 -0.50000000000E+03  0.50000000000E+03  0.00000000000E+00 0.  1.
         25    2    1    2    0    0 -0.13303896916E+03 -0.44870127676E+03  0.13877007104E+03  0.50389869600E+03  0.12499824052E+03 0.  0.
         23    2    1    2    0    0  0.13303896916E+03  0.44870127676E+03 -0.13877007104E+03  0.49610130400E+03  0.88471284207E+02 0.  0.
        -11    1    4    4    0    0  0.68267276860E+02  0.35136431097E+03 -0.12103962577E+03  0.37784638561E+03  0.00000000000E+00 0.  1.
         11    1    4    4    0    0  0.64771692300E+02  0.97336965788E+02 -0.17730445270E+02  0.11825491838E+03  0.00000000000E+00 0. -1.
        -15    1    3    3    0    0 -0.58785792046E+02 -0.19028498418E+03 -0.45290881041E+01  0.19921800852E+03  0.17770000000E+01 0. -1.
         15    1    3    3    0    0 -0.74253177114E+02 -0.25841629258E+03  0.14329915915E+03  0.30468068748E+03  0.17770000000E+01 0. -1.
</event>
<event>
 8    1  0.2370702E-007  0.5035542E+03  0.7546771E-02  0.9391892E-01
        -11   -1    0    0    0    0  0.00000000000E+00  0.00000000000E+00  0.50000000000E+03  0.50000000000E+03  0.00000000000E+00 0.  1.
         11   -1    0    0    0    0 -0.00000000000E+00 -0.00000000000E+00 -0.50000000000E+03  0.50000000000E+03  0.00000000000E+00 0. -1.
         25    2    1    2    0    0  0.32696553472E+03 -0.28164908586E+02 -0.36088985043E+03  0.50355421001E+03  0.12500254123E+03 0.  0.
         23    2    1    2    0    0 -0.32696553472E+03  0.28164908586E+02  0.36088985043E+03  0.49644578999E+03  0.92288760355E+02 0.  0.
        -11    1    4    4    0    0 -0.22038254828E+03  0.16339829979E+02  0.17518504254E+03  0.28200222829E+03  0.00000000000E+00 0.  1.
         11    1    4    4    0    0 -0.10658298643E+03  0.11825078607E+02  0.18570480788E+03  0.21444356169E+03  0.00000000000E+00 0. -1.
        -15    1    3    3    0    0  0.22078712248E+03  0.30032684046E+02 -0.18290870248E+03  0.28828400361E+03  0.17770000000E+01 0.  1.
         15    1    3    3    0    0  0.10617841223E+03 -0.58197592633E+02 -0.17798114794E+03  0.21527020640E+03  0.17770000000E+01 0.  1.
</event>
<event>
 8    1  0.2370702E-007  0.5038212E+03  0.7546771E-02  0.9391300E-01
        -11   -1    0    0    0    0  0.00000000000E+00  0.00000000000E+00  0.50000000000E+03  0.50000000000E+03  0.00000000000E+00 0.  1.
         11   -1    0    0    0    0 -0.00000000000E+00 -0.00000000000E+00 -0.50000000000E+03  0.50000000000E+03  0.00000000000E+00 0. -1.
         25    2    1    2    0    0  0.41307281636E+03  0.18051687548E+03 -0.18706518384E+03  0.50382123545E+03  0.12500784110E+03 0.  0.
         23    2    1    2    0    0 -0.41307281636E+03 -0.18051687548E+03  0.18706518384E+03  0.49617876455E+03  0.89355970351E+02 0.  0.
        -11    1    4    4    0    0 -0.38410391214E+03 -0.15298725013E+03  0.14495542823E+03  0.43812440037E+03  0.00000000000E+00 0. -1.
         11    1    4    4    0    0 -0.28968904225E+02 -0.27529625342E+02  0.42109755609E+02  0.58054364185E+02  0.00000000000E+00 0.  1.
        -15    1    3    3    0    0  0.18342732341E+03  0.13975254838E+03 -0.60315218679E+02  0.23836409353E+03  0.17770000000E+01 0.  1.
         15    1    3    3    0    0  0.22964549295E+03  0.40764327092E+02 -0.12674996516E+03  0.26545714192E+03  0.17770000000E+01 0.  1.
</event>
<event>
 8    1  0.2370702E-007  0.5036617E+03  0.7546771E-02  0.9391653E-01
        -11   -1    0    0    0    0  0.00000000000E+00  0.00000000000E+00  0.50000000000E+03  0.50000000000E+03  0.00000000000E+00 0. -1.
         11   -1    0    0    0    0 -0.00000000000E+00 -0.00000000000E+00 -0.50000000000E+03  0.50000000000E+03  0.00000000000E+00 0.  1.
         25    2    1    2    0    0  0.23304406267E+03 -0.40109946915E+03  0.15119127933E+03  0.50366173465E+03  0.12500408276E+03 0.  0.
         23    2    1    2    0    0 -0.23304406267E+03  0.40109946915E+03 -0.15119127933E+03  0.49633826535E+03  0.91118337393E+02 0.  0.
        -11    1    4    4    0    0 -0.78138780304E+02  0.11111611435E+03 -0.87155554345E+02  0.16139563349E+03  0.00000000000E+00 0.  1.
         11    1    4    4    0    0 -0.15490528237E+03  0.28998335480E+03 -0.64035724981E+02  0.33494263186E+03  0.00000000000E+00 0. -1.
        -15    1    3    3    0    0  0.80700941790E+02 -0.79315758138E+02 -0.84458984034E+01  0.11348181539E+03  0.17770000000E+01 0. -1.
         15    1    3    3    0    0  0.15234312088E+03 -0.32178371101E+03  0.15963717773E+03  0.39017991926E+03  0.17770000000E+01 0. -1.
</event>
<event>
 8    1  0.2370702E-007  0.5037433E+03  0.7546771E-02  0.9391472E-01
        -11   -1    0    0    0    0  0.00000000000E+00  0.00000000000E+00  0.50000000000E+03  0.50000000000E+03  0.00000000000E+00 0.  1.
         11   -1    0    0    0    0 -0.00000000000E+00 -0.00000000000E+00 -0.50000000000E+03  0.50000000000E+03  0.00000000000E+00 0. -1.
         25    2    1    2    0    0  0.22803682544E+03 -0.32431866230E+03 -0.28451624656E+03  0.50374334824E+03  0.12499791147E+03 0.  0.
         23    2    1    2    0    0 -0.22803682544E+03  0.32431866230E+03  0.28451624656E+03  0.49625665176E+03  0.90209652373E+02 0.  0.
        -11    1    4    4    0    0 -0.20481631892E+03  0.22475681372E+03  0.22085244923E+03  0.37582064092E+03  0.00000000000E+00 0.  1.
         11    1    4    4    0    0 -0.23220506522E+02  0.99561848581E+02  0.63663797326E+02  0.12043601084E+03  0.00000000000E+00 0. -1.
        -15    1    3    3    0    0  0.25974111687E+01  0.44315315200E+01 -0.30683626557E+02  0.31161317110E+02  0.17770000000E+01 0. -1.
         15    1    3    3    0    0  0.22543941427E+03 -0.32875019382E+03 -0.25383262000E+03  0.47258203113E+03  0.17770000000E+01 0. -1.
</event>
<event>
 8    1  0.2370702E-007  0.5037107E+03  0.7546771E-02  0.9391545E-01
        -11   -1    0    0    0    0  0.00000000000E+00  0.00000000000E+00  0.50000000000E+03  0.50000000000E+03  0.00000000000E+00 0.  1.
         11   -1    0    0    0    0 -0.00000000000E+00 -0.00000000000E+00 -0.50000000000E+03  0.50000000000E+03  0.00000000000E+00 0. -1.
         25    2    1    2    0    0 -0.16177463639E+03  0.44074404115E+03  0.13293636191E+03  0.50371065451E+03  0.12500401735E+03 0.  0.
         23    2    1    2    0    0  0.16177463639E+03 -0.44074404115E+03 -0.13293636191E+03  0.49628934549E+03  0.90579773355E+02 0.  0.
        -11    1    4    4    0    0  0.68312431511E+02 -0.14579421973E+03 -0.38871772420E+01  0.16105170894E+03  0.00000000000E+00 0.  1.
         11    1    4    4    0    0  0.93462204881E+02 -0.29494982142E+03 -0.12904918467E+03  0.33523763655E+03  0.00000000000E+00 0. -1.
        -15    1    3    3    0    0 -0.24536754120E+02  0.23002278044E+03  0.35622596978E+02  0.23406122910E+03  0.17770000000E+01 0. -1.
         15    1    3    3    0    0 -0.13723788227E+03  0.21072126072E+03  0.97313764930E+02  0.26964942541E+03  0.17770000000E+01 0. -1.
</event>
<event>
 8    1  0.2370702E-007  0.5036893E+03  0.7546771E-02  0.9391592E-01
        -11   -1    0    0    0    0  0.00000000000E+00  0.00000000000E+00  0.50000000000E+03  0.50000000000E+03  0.00000000000E+00 0.  1.
         11   -1    0    0    0    0 -0.00000000000E+00 -0.00000000000E+00 -0.50000000000E+03  0.50000000000E+03  0.00000000000E+00 0. -1.
         25    2    1    2    0    0  0.37443481243E+03  0.58960628555E+02 -0.30724134168E+03  0.50368926962E+03  0.12501141473E+03 0.  0.
         23    2    1    2    0    0 -0.37443481243E+03 -0.58960628555E+02  0.30724134168E+03  0.49631073038E+03  0.90825737416E+02 0.  0.
        -11    1    4    4    0    0 -0.26018104898E+03  0.20600246108E+01  0.20096309084E+03  0.32876220256E+03  0.00000000000E+00 0.  1.
         11    1    4    4    0    0 -0.11425376345E+03 -0.61020653166E+02  0.10627825083E+03  0.16754852782E+03  0.00000000000E+00 0. -1.
        -15    1    3    3    0    0  0.33527545738E+03  0.77450162555E+02 -0.22623610626E+03  0.41181803446E+03  0.17770000000E+01 0.  1.
         15    1    3    3    0    0  0.39159355052E+02 -0.18489533999E+02 -0.81005235419E+02  0.91871235160E+02  0.17770000000E+01 0.  1.
</event>
<event>
 8    1  0.2370702E-007  0.5045208E+03  0.7546771E-02  0.9389751E-01
        -11   -1    0    0    0    0  0.00000000000E+00  0.00000000000E+00  0.50000000000E+03  0.50000000000E+03  0.00000000000E+00 0. -1.
         11   -1    0    0    0    0 -0.00000000000E+00 -0.00000000000E+00 -0.50000000000E+03  0.50000000000E+03  0.00000000000E+00 0.  1.
         25    2    1    2    0    0  0.26755369823E+03 -0.35307398172E+03  0.20656733715E+03  0.50452076673E+03  0.12499968509E+03 0.  0.
         23    2    1    2    0    0 -0.26755369823E+03  0.35307398172E+03 -0.20656733715E+03  0.49547923327E+03  0.81138078723E+02 0.  0.
        -11    1    4    4    0    0 -0.25927834286E+03  0.31077027055E+03 -0.17010554485E+03  0.43902086115E+03  0.00000000000E+00 0. -1.
         11    1    4    4    0    0 -0.82753553787E+01  0.42303711169E+02 -0.36461792300E+02  0.56458372126E+02  0.00000000000E+00 0.  1.
        -15    1    3    3    0    0  0.25984489630E+03 -0.27156409599E+03  0.14850349412E+03  0.40413224798E+03  0.17770000000E+01 0. -1.
         15    1    3    3    0    0  0.77088019376E+01 -0.81509885735E+02  0.58063843038E+02  0.10038851875E+03  0.17770000000E+01 0. -1.
</event>
<event>
 8    1  0.2370702E-007  0.5036520E+03  0.7546771E-02  0.9391675E-01
        -11   -1    0    0    0    0  0.00000000000E+00  0.00000000000E+00  0.50000000000E+03  0.50000000000E+03  0.00000000000E+00 0. -1.
         11   -1    0    0    0    0 -0.00000000000E+00 -0.00000000000E+00 -0.50000000000E+03  0.50000000000E+03  0.00000000000E+00 0.  1.
         25    2    1    2    0    0  0.43156547422E+03  0.34991038545E+02 -0.22485820895E+03  0.50365199236E+03  0.12502393354E+03 0.  0.
         23    2    1    2    0    0 -0.43156547422E+03 -0.34991038545E+02  0.22485820895E+03  0.49634800764E+03  0.91252393059E+02 0.  0.
        -11    1    4    4    0    0 -0.34244516342E+03  0.72438776958E+01  0.15804938502E+03  0.37722774529E+03  0.00000000000E+00 0.  1.
         11    1    4    4    0    0 -0.89120310802E+02 -0.42234916241E+02  0.66808823924E+02  0.11912026235E+03  0.00000000000E+00 0. -1.
        -15    1    3    3    0    0  0.40257942862E+03  0.50652586610E+02 -0.17062908454E+03  0.44017419631E+03  0.17770000000E+01 0.  1.
         15    1    3    3    0    0  0.28986045597E+02 -0.15661548065E+02 -0.54229124413E+02  0.63477796046E+02  0.17770000000E+01 0.  1.
</event>
<event>
 8    1  0.2370702E-007  0.5038005E+03  0.7546771E-02  0.9391346E-01
        -11   -1    0    0    0    0  0.00000000000E+00  0.00000000000E+00  0.50000000000E+03  0.50000000000E+03  0.00000000000E+00 0. -1.
         11   -1    0    0    0    0 -0.00000000000E+00 -0.00000000000E+00 -0.50000000000E+03  0.50000000000E+03  0.00000000000E+00 0.  1.
         25    2    1    2    0    0 -0.88406848529E+02 -0.20546739610E+03  0.43377043947E+03  0.50380049784E+03  0.12500210293E+03 0.  0.
         23    2    1    2    0    0  0.88406848529E+02  0.20546739610E+03 -0.43377043947E+03  0.49619950216E+03  0.89579741309E+02 0.  0.
        -11    1    4    4    0    0  0.47570235125E+02  0.15391723547E+03 -0.22092203870E+03  0.27342273100E+03  0.00000000000E+00 0. -1.
         11    1    4    4    0    0  0.40836613404E+02  0.51550160634E+02 -0.21284840077E+03  0.22277677116E+03  0.00000000000E+00 0.  1.
        -15    1    3    3    0    0 -0.24921008388E+02 -0.15942510150E+03  0.19862080816E+03  0.25591170902E+03  0.17770000000E+01 0.  1.
         15    1    3    3    0    0 -0.63485840141E+02 -0.46042294604E+02  0.23514963131E+03  0.24788878882E+03  0.17770000000E+01 0.  1.
</event>
<event>
 8    1  0.2370702E-007  0.5037385E+03  0.7546771E-02  0.9391483E-01
        -11   -1    0    0    0    0  0.00000000000E+00  0.00000000000E+00  0.50000000000E+03  0.50000000000E+03  0.00000000000E+00 0.  1.
         11   -1    0    0    0    0 -0.00000000000E+00 -0.00000000000E+00 -0.50000000000E+03  0.50000000000E+03  0.00000000000E+00 0. -1.
         25    2    1    2    0    0  0.11656908563E+03  0.35136153022E+03 -0.31793895454E+03  0.50373851371E+03  0.12499613891E+03 0.  0.
         23    2    1    2    0    0 -0.11656908563E+03 -0.35136153022E+03  0.31793895454E+03  0.49626148629E+03  0.90260773975E+02 0.  0.
        -11    1    4    4    0    0 -0.92152936866E+02 -0.26364008339E+03  0.18452252896E+03  0.33473395561E+03  0.00000000000E+00 0. -1.
         11    1    4    4    0    0 -0.24416148767E+02 -0.87721446827E+02  0.13341642558E+03  0.16152753068E+03  0.00000000000E+00 0.  1.
        -15    1    3    3    0    0 -0.15919149446E+02  0.51642619861E+02 -0.88467709126E+02  0.10368255780E+03  0.17770000000E+01 0.  1.
         15    1    3    3    0    0  0.13248823508E+03  0.29971891036E+03 -0.22947124541E+03  0.40005595591E+03  0.17770000000E+01 0.  1.
</event>
<event>
 8    1  0.2370702E-007  0.5035795E+03  0.7546771E-02  0.9391836E-01
        -11   -1    0    0    0    0  0.00000000000E+00  0.00000000000E+00  0.50000000000E+03  0.50000000000E+03  0.00000000000E+00 0.  1.
         11   -1    0    0    0    0 -0.00000000000E+00 -0.00000000000E+00 -0.50000000000E+03  0.50000000000E+03  0.00000000000E+00 0. -1.
         25    2    1    2    0    0  0.11472362030E+03 -0.14898121404E+03 -0.45012086032E+03  0.50357950873E+03  0.12500648595E+03 0.  0.
         23    2    1    2    0    0 -0.11472362030E+03  0.14898121404E+03  0.45012086032E+03  0.49642049127E+03  0.92019585243E+02 0.  0.
        -11    1    4    4    0    0 -0.11381142408E+02  0.59318532656E+02  0.70162568131E+02  0.92579720704E+02  0.00000000000E+00 0.  1.
         11    1    4    4    0    0 -0.10334247789E+03  0.89662681382E+02  0.37995829219E+03  0.40384077056E+03  0.00000000000E+00 0. -1.
        -15    1    3    3    0    0  0.10264923289E+03 -0.10898005180E+03 -0.19917888122E+03  0.24917644583E+03  0.17770000000E+01 0.  1.
         15    1    3    3    0    0  0.12074387410E+02 -0.40001162243E+02 -0.25094197910E+03  0.25440306290E+03  0.17770000000E+01 0.  1.
</event>
<event>
 8    1  0.2370702E-007  0.5035149E+03  0.7546771E-02  0.9391979E-01
        -11   -1    0    0    0    0  0.00000000000E+00  0.00000000000E+00  0.50000000000E+03  0.50000000000E+03  0.00000000000E+00 0.  1.
         11   -1    0    0    0    0 -0.00000000000E+00 -0.00000000000E+00 -0.50000000000E+03  0.50000000000E+03  0.00000000000E+00 0. -1.
         25    2    1    2    0    0  0.21618379773E+03 -0.24792813730E+03 -0.36013708999E+03  0.50351486017E+03  0.12499878061E+03 0.  0.
         23    2    1    2    0    0 -0.21618379773E+03  0.24792813730E+03  0.36013708999E+03  0.49648513983E+03  0.92709087060E+02 0.  0.
        -11    1    4    4    0    0 -0.80033250946E+02  0.56176715327E+02  0.58278986433E+02  0.11383138786E+03  0.00000000000E+00 0. -1.
         11    1    4    4    0    0 -0.13615054678E+03  0.19175142197E+03  0.30185810356E+03  0.38265375198E+03  0.00000000000E+00 0.  1.
        -15    1    3    3    0    0  0.10330468815E+03 -0.20537364892E+03 -0.21484057121E+03  0.31465826389E+03  0.17770000000E+01 0. -1.
         15    1    3    3    0    0  0.11287910957E+03 -0.42554488382E+02 -0.14529651878E+03  0.18885659628E+03  0.17770000000E+01 0. -1.
</event>
<event>
 8    1  0.2370702E-007  0.5038151E+03  0.7546771E-02  0.9391313E-01
        -11   -1    0    0    0    0  0.00000000000E+00  0.00000000000E+00  0.50000000000E+03  0.50000000000E+03  0.00000000000E+00 0.  1.
         11   -1    0    0    0    0 -0.00000000000E+00 -0.00000000000E+00 -0.50000000000E+03  0.50000000000E+03  0.00000000000E+00 0. -1.
         25    2    1    2    0    0 -0.19179290321E+03  0.15383755933E+03  0.42160886946E+03  0.50381513098E+03  0.12500054006E+03 0.  0.
         23    2    1    2    0    0  0.19179290321E+03 -0.15383755933E+03 -0.42160886946E+03  0.49618486902E+03  0.89414054026E+02 0.  0.
        -11    1    4    4    0    0  0.59923711141E+02 -0.30533839966E+02 -0.52604626941E+02  0.85383917195E+02  0.00000000000E+00 0.  1.
         11    1    4    4    0    0  0.13186919207E+03 -0.12330371936E+03 -0.36900424251E+03  0.41080095183E+03  0.00000000000E+00 0. -1.
        -15    1    3    3    0    0 -0.14625946929E+03  0.16356635250E+03  0.39005982871E+03  0.44754397742E+03  0.17770000000E+01 0.  1.
         15    1    3    3    0    0 -0.45533433921E+02 -0.97287931718E+01  0.31549040751E+02  0.56271153556E+02  0.17770000000E+01 0.  1.
</event>
<event>
 8    1  0.2370702E-007  0.5037206E+03  0.7546771E-02  0.9391523E-01
        -11   -1    0    0    0    0  0.00000000000E+00  0.00000000000E+00  0.50000000000E+03  0.50000000000E+03  0.00000000000E+00 0. -1.
         11   -1    0    0    0    0 -0.00000000000E+00 -0.00000000000E+00 -0.50000000000E+03  0.50000000000E+03  0.00000000000E+00 0.  1.
         25    2    1    2    0    0  0.32911442692E+03  0.35256666119E+03  0.74083602538E+02  0.50372064731E+03  0.12500621493E+03 0.  0.
         23    2    1    2    0    0 -0.32911442692E+03 -0.35256666119E+03 -0.74083602538E+02  0.49627935269E+03  0.90472422072E+02 0.  0.
        -11    1    4    4    0    0 -0.64648314832E+02 -0.12857288746E+03 -0.28680131835E+02  0.14674107115E+03  0.00000000000E+00 0. -1.
         11    1    4    4    0    0 -0.26446611209E+03 -0.22399377373E+03 -0.45403470704E+02  0.34953828154E+03  0.00000000000E+00 0.  1.
        -15    1    3    3    0    0  0.28375942014E+03  0.27333596727E+03  0.13675671572E+02  0.39423614908E+03  0.17770000000E+01 0.  1.
         15    1    3    3    0    0  0.45355006779E+02  0.79230693923E+02  0.60407930967E+02  0.10948449823E+03  0.17770000000E+01 0.  1.
</event>
<event>
 8    1  0.2370702E-007  0.5036902E+03  0.7546771E-02  0.9391590E-01
        -11   -1    0    0    0    0  0.00000000000E+00  0.00000000000E+00  0.50000000000E+03  0.50000000000E+03  0.00000000000E+00 0. -1.
         11   -1    0    0    0    0 -0.00000000000E+00 -0.00000000000E+00 -0.50000000000E+03  0.50000000000E+03  0.00000000000E+00 0.  1.
         25    2    1    2    0    0 -0.39053980889E+03  0.18676070214E+03  0.22512536532E+03  0.50369018647E+03  0.12498588580E+03 0.  0.
         23    2    1    2    0    0  0.39053980889E+03 -0.18676070214E+03 -0.22512536532E+03  0.49630981353E+03  0.90780497363E+02 0.  0.
        -11    1    4    4    0    0  0.27093442374E+03 -0.87081672396E+02 -0.16794559280E+03  0.33044576223E+03  0.00000000000E+00 0. -1.
         11    1    4    4    0    0  0.11960538515E+03 -0.99679029742E+02 -0.57179772522E+02  0.16586405130E+03  0.00000000000E+00 0.  1.
        -15    1    3    3    0    0 -0.22994827783E+03  0.14480256196E+03  0.80203636168E+02  0.28333685502E+03  0.17770000000E+01 0.  1.
         15    1    3    3    0    0 -0.16059153106E+03  0.41958140182E+02  0.14492172915E+03  0.22035333146E+03  0.17770000000E+01 0.  1.
</event>
<event>
 8    1  0.2370702E-007  0.5036516E+03  0.7546771E-02  0.9391676E-01
        -11   -1    0    0    0    0  0.00000000000E+00  0.00000000000E+00  0.50000000000E+03  0.50000000000E+03  0.00000000000E+00 0. -1.
         11   -1    0    0    0    0 -0.00000000000E+00 -0.00000000000E+00 -0.50000000000E+03  0.50000000000E+03  0.00000000000E+00 0.  1.
         25    2    1    2    0    0 -0.16303660226E+02 -0.26052126479E+03  0.41219144103E+03  0.50365157321E+03  0.12500393750E+03 0.  0.
         23    2    1    2    0    0  0.16303660226E+02  0.26052126479E+03 -0.41219144103E+03  0.49634842679E+03  0.91229589384E+02 0.  0.
        -11    1    4    4    0    0  0.10697425768E+02  0.35154768006E+02 -0.15101690239E+02  0.39728499590E+02  0.00000000000E+00 0. -1.
         11    1    4    4    0    0  0.56062344582E+01  0.22536649678E+03 -0.39708975079E+03  0.45661992720E+03  0.00000000000E+00 0.  1.
        -15    1    3    3    0    0 -0.29677294157E+02 -0.18363824677E+03  0.18066073587E+03  0.25931680755E+03  0.17770000000E+01 0. -1.
         15    1    3    3    0    0  0.13373633931E+02 -0.76883018012E+02  0.23153070516E+03  0.24433476565E+03  0.17770000000E+01 0. -1.
</event>
<event>
 8    1  0.2370702E-007  0.5036344E+03  0.7546771E-02  0.9391714E-01
        -11   -1    0    0    0    0  0.00000000000E+00  0.00000000000E+00  0.50000000000E+03  0.50000000000E+03  0.00000000000E+00 0.  1.
         11   -1    0    0    0    0 -0.00000000000E+00 -0.00000000000E+00 -0.50000000000E+03  0.50000000000E+03  0.00000000000E+00 0. -1.
         25    2    1    2    0    0 -0.48055160670E+03 -0.25726902665E+02  0.80194912632E+02  0.50363436732E+03  0.12499852683E+03 0.  0.
         23    2    1    2    0    0  0.48055160670E+03  0.25726902665E+02 -0.80194912632E+02  0.49636563268E+03  0.91410596079E+02 0.  0.
        -11    1    4    4    0    0  0.11985501893E+03 -0.32833138736E+02 -0.25785417181E+02  0.12691780136E+03  0.00000000000E+00 0.  1.
         11    1    4    4    0    0  0.36069658777E+03  0.58560041401E+02 -0.54409495451E+02  0.36944783132E+03  0.00000000000E+00 0. -1.
        -15    1    3    3    0    0 -0.12043749540E+03 -0.57657535222E+02  0.10598103026E+01  0.13354348577E+03  0.17770000000E+01 0. -1.
         15    1    3    3    0    0 -0.36011411130E+03  0.31930632557E+02  0.79135102329E+02  0.37009088154E+03  0.17770000000E+01 0. -1.
</event>
<event>
 8    1  0.2370702E-007  0.5037501E+03  0.7546771E-02  0.9391457E-01
        -11   -1    0    0    0    0  0.00000000000E+00  0.00000000000E+00  0.50000000000E+03  0.50000000000E+03  0.00000000000E+00 0.  1.
         11   -1    0    0    0    0 -0.00000000000E+00 -0.00000000000E+00 -0.50000000000E+03  0.50000000000E+03  0.00000000000E+00 0. -1.
         25    2    1    2    0    0  0.43005639161E+03 -0.23016466800E+03  0.14707853463E+02  0.50375014978E+03  0.12499447224E+03 0.  0.
         23    2    1    2    0    0 -0.43005639161E+03  0.23016466800E+03 -0.14707853463E+02  0.49624985022E+03  0.90129454317E+02 0.  0.
        -11    1    4    4    0    0 -0.10340386293E+03  0.42001990162E+02 -0.39680179695E+02  0.11845270240E+03  0.00000000000E+00 0. -1.
         11    1    4    4    0    0 -0.32665252868E+03  0.18816267784E+03  0.24972326231E+02  0.37779714782E+03  0.00000000000E+00 0.  1.
        -15    1    3    3    0    0  0.21144327456E+03 -0.44882116221E+02 -0.77270909106E+01  0.21629962639E+03  0.17770000000E+01 0. -1.
         15    1    3    3    0    0  0.21861311705E+03 -0.18528255178E+03  0.22434944374E+02  0.28745052339E+03  0.17770000000E+01 0. -1.
</event>
<event>
 8    1  0.2370702E-007  0.5034682E+03  0.7546771E-02  0.9392083E-01
        -11   -1    0    0    0    0  0.00000000000E+00  0.00000000000E+00  0.50000000000E+03  0.50000000000E+03  0.00000000000E+00 0.  1.
         11   -1    0    0    0    0 -0.00000000000E+00 -0.00000000000E+00 -0.50000000000E+03  0.50000000000E+03  0.00000000000E+00 0. -1.
         25    2    1    2    0    0 -0.35941699722E+03  0.21216723421E+03 -0.25230640528E+03  0.50346821962E+03  0.12500485135E+03 0.  0.
         23    2    1    2    0    0  0.35941699722E+03 -0.21216723421E+03  0.25230640528E+03  0.49653178038E+03  0.93218955219E+02 0.  0.
        -11    1    4    4    0    0  0.60703769780E+02 -0.39349322671E+02  0.60850477127E+01  0.72597139516E+02  0.00000000000E+00 0. -1.
         11    1    4    4    0    0  0.29871322744E+03 -0.17281791154E+03  0.24622135757E+03  0.42393464086E+03  0.00000000000E+00 0.  1.
        -15    1    3    3    0    0 -0.76164875967E+02  0.60796178845E+02 -0.12375368921E+03  0.15752903546E+03  0.17770000000E+01 0. -1.
         15    1    3    3    0    0 -0.28325212125E+03  0.15137105537E+03 -0.12855271608E+03  0.34593918416E+03  0.17770000000E+01 0. -1.
</event>
<event>
 8    1  0.2370702E-007  0.5036737E+03  0.7546771E-02  0.9391627E-01
        -11   -1    0    0    0    0  0.00000000000E+00  0.00000000000E+00  0.50000000000E+03  0.50000000000E+03  0.00000000000E+00 0. -1.
         11   -1    0    0    0    0 -0.00000000000E+00 -0.00000000000E+00 -0.50000000000E+03  0.50000000000E+03  0.00000000000E+00 0.  1.
         25    2    1    2    0    0 -0.87846803550E+02 -0.41010431766E+03  0.24931897930E+03  0.50367371323E+03  0.12499857479E+03 0.  0.
         23    2    1    2    0    0  0.87846803550E+02  0.41010431766E+03 -0.24931897930E+03  0.49632628677E+03  0.90979213275E+02 0.  0.
        -11    1    4    4    0    0  0.51322656038E+02  0.82142440785E+02 -0.35695491393E+02  0.10322578993E+03  0.00000000000E+00 0.  1.
         11    1    4    4    0    0  0.36524147512E+02  0.32796187687E+03 -0.21362348790E+03  0.39310049684E+03  0.00000000000E+00 0. -1.
        -15    1    3    3    0    0 -0.36515862159E+02 -0.23279667813E+03  0.68814793656E+02  0.24549202653E+03  0.17770000000E+01 0.  1.
         15    1    3    3    0    0 -0.51330941391E+02 -0.17730763953E+03  0.18050418564E+03  0.25818168669E+03  0.17770000000E+01 0.  1.
</event>
<event>
 8    1  0.2370702E-007  0.5036432E+03  0.7546771E-02  0.9391694E-01
        -11   -1    0    0    0    0  0.00000000000E+00  0.00000000000E+00  0.50000000000E+03  0.50000000000E+03  0.00000000000E+00 0. -1.
         11   -1    0    0    0    0 -0.00000000000E+00 -0.00000000000E+00 -0.50000000000E+03  0.50000000000E+03  0.00000000000E+00 0.  1.
         25    2    1    2    0    0  0.89162267628E+02  0.47145800396E+03  0.88371354986E+02  0.50364324452E+03  0.12499784759E+03 0.  0.
         23    2    1    2    0    0 -0.89162267628E+02 -0.47145800396E+03 -0.88371354986E+02  0.49635675548E+03  0.91312501086E+02 0.  0.
        -11    1    4    4    0    0 -0.38452383673E+02 -0.15516878366E+03 -0.72777754610E+02  0.17564890776E+03  0.00000000000E+00 0.  1.
         11    1    4    4    0    0 -0.50709883955E+02 -0.31628922031E+03 -0.15593600376E+02  0.32070784771E+03  0.00000000000E+00 0. -1.
        -15    1    3    3    0    0 -0.12625126190E+02  0.13485746546E+03  0.67553619879E+02  0.15136901628E+03  0.17770000000E+01 0. -1.
         15    1    3    3    0    0  0.10178739382E+03  0.33660053850E+03  0.20817735108E+02  0.35227422824E+03  0.17770000000E+01 0. -1.
</event>
<event>
 8    1  0.2370702E-007  0.5039501E+03  0.7546771E-02  0.9391014E-01
        -11   -1    0    0    0    0  0.00000000000E+00  0.00000000000E+00  0.50000000000E+03  0.50000000000E+03  0.00000000000E+00 0.  1.
         11   -1    0    0    0    0 -0.00000000000E+00 -0.00000000000E+00 -0.50000000000E+03  0.50000000000E+03  0.00000000000E+00 0. -1.
         25    2    1    2    0    0  0.40648250760E+03  0.90522279883E+02 -0.25479013602E+03  0.50395006941E+03  0.12500138762E+03 0.  0.
         23    2    1    2    0    0 -0.40648250760E+03 -0.90522279883E+02  0.25479013602E+03  0.49604993059E+03  0.87893162945E+02 0.  0.
        -11    1    4    4    0    0 -0.27878108798E+03 -0.50093802419E+02  0.21717061531E+03  0.35691926287E+03  0.00000000000E+00 0. -1.
         11    1    4    4    0    0 -0.12770141961E+03 -0.40428477463E+02  0.37619520710E+02  0.13913066772E+03  0.00000000000E+00 0.  1.
        -15    1    3    3    0    0  0.97179790183E+02 -0.23509550383E+02 -0.93698482992E+02  0.13703712644E+03  0.17770000000E+01 0. -1.
         15    1    3    3    0    0  0.30930271741E+03  0.11403183027E+03 -0.16109165303E+03  0.36691294297E+03  0.17770000000E+01 0. -1.
</event>
<event>
 8    1  0.2370702E-007  0.5036551E+03  0.7546771E-02  0.9391668E-01
        -11   -1    0    0    0    0  0.00000000000E+00  0.00000000000E+00  0.50000000000E+03  0.50000000000E+03  0.00000000000E+00 0.  1.
         11   -1    0    0    0    0 -0.00000000000E+00 -0.00000000000E+00 -0.50000000000E+03  0.50000000000E+03  0.00000000000E+00 0. -1.
         25    2    1    2    0    0 -0.28559431200E+03  0.33886888895E+03 -0.20407740981E+03  0.50365505260E+03  0.12499835148E+03 0.  0.
         23    2    1    2    0    0  0.28559431200E+03 -0.33886888895E+03  0.20407740981E+03  0.49634494740E+03  0.91183785173E+02 0.  0.
        -11    1    4    4    0    0  0.76634992961E+02 -0.15993099148E+03  0.79531636861E+02  0.19436081252E+03  0.00000000000E+00 0.  1.
         11    1    4    4    0    0  0.20895931904E+03 -0.17893789746E+03  0.12454577295E+03  0.30198413488E+03  0.00000000000E+00 0. -1.
        -15    1    3    3    0    0 -0.10660310706E+03  0.90146625680E+02 -0.12446830009E+03  0.18704585537E+03  0.17770000000E+01 0.  1.
         15    1    3    3    0    0 -0.17899120493E+03  0.24872226327E+03 -0.79609109720E+02  0.31660919722E+03  0.17770000000E+01 0.  1.
</event>
<event>
 8    1  0.2370702E-007  0.5034320E+03  0.7546771E-02  0.9392163E-01
        -11   -1    0    0    0    0  0.00000000000E+00  0.00000000000E+00  0.50000000000E+03  0.50000000000E+03  0.00000000000E+00 0.  1.
         11   -1    0    0    0    0 -0.00000000000E+00 -0.00000000000E+00 -0.50000000000E+03  0.50000000000E+03  0.00000000000E+00 0. -1.
         25    2    1    2    0    0 -0.18185262614E+03 -0.28596317211E+03 -0.35067450176E+03  0.50343199864E+03  0.12500343052E+03 0.  0.
         23    2    1    2    0    0  0.18185262614E+03  0.28596317211E+03  0.35067450176E+03  0.49656800136E+03  0.93604809478E+02 0.  0.
        -11    1    4    4    0    0  0.11007815551E+03  0.12056433376E+03  0.11436422126E+03  0.19932921010E+03  0.00000000000E+00 0.  1.
         11    1    4    4    0    0  0.71774470626E+02  0.16539883835E+03  0.23631028049E+03  0.29723879126E+03  0.00000000000E+00 0. -1.
        -15    1    3    3    0    0 -0.12880517681E+03 -0.13956002451E+03 -0.11847280978E+03  0.22384534482E+03  0.17770000000E+01 0. -1.
         15    1    3    3    0    0 -0.53047449325E+02 -0.14640314760E+03 -0.23220169198E+03  0.27958665382E+03  0.17770000000E+01 0. -1.
</event>
<event>
 8    1  0.2370702E-007  0.5037515E+03  0.7546771E-02  0.9391454E-01
        -11   -1    0    0    0    0  0.00000000000E+00  0.00000000000E+00  0.50000000000E+03  0.50000000000E+03  0.00000000000E+00 0.  1.
         11   -1    0    0    0    0 -0.00000000000E+00 -0.00000000000E+00 -0.50000000000E+03  0.50000000000E+03  0.00000000000E+00 0. -1.
         25    2    1    2    0    0  0.17580858389E+03 -0.26702498125E+03  0.36868727535E+03  0.50375152535E+03  0.12499717399E+03 0.  0.
         23    2    1    2    0    0 -0.17580858389E+03  0.26702498125E+03 -0.36868727535E+03  0.49624847465E+03  0.90117938345E+02 0.  0.
        -11    1    4    4    0    0 -0.10820033107E+03  0.17668797983E+03 -0.17105562182E+03  0.26867448635E+03  0.00000000000E+00 0.  1.
         11    1    4    4    0    0 -0.67608252820E+02  0.90337001417E+02 -0.19763165353E+03  0.22757398830E+03  0.00000000000E+00 0. -1.
        -15    1    3    3    0    0  0.79601846454E+02 -0.28400433910E+02  0.11188395872E+03  0.14022915729E+03  0.17770000000E+01 0.  1.
         15    1    3    3    0    0  0.96206737440E+02 -0.23862454734E+03  0.25680331662E+03  0.36352236806E+03  0.17770000000E+01 0.  1.
</event>
<event>
 8    1  0.2370702E-007  0.5036410E+03  0.7546771E-02  0.9391699E-01
        -11   -1    0    0    0    0  0.00000000000E+00  0.00000000000E+00  0.50000000000E+03  0.50000000000E+03  0.00000000000E+00 0.  1.
         11   -1    0    0    0    0 -0.00000000000E+00 -0.00000000000E+00 -0.50000000000E+03  0.50000000000E+03  0.00000000000E+00 0. -1.
         25    2    1    2    0    0 -0.19884510801E+03 -0.41222407892E+03  0.16900123770E+03  0.50364101006E+03  0.12499912179E+03 0.  0.
         23    2    1    2    0    0  0.19884510801E+03  0.41222407892E+03 -0.16900123770E+03  0.49635898994E+03  0.91338712117E+02 0.  0.
        -11    1    4    4    0    0  0.14210048194E+03  0.22496344544E+03 -0.13274510739E+03  0.29735897882E+03  0.00000000000E+00 0. -1.
         11    1    4    4    0    0  0.56744626072E+02  0.18726063348E+03 -0.36256130306E+02  0.19900001112E+03  0.00000000000E+00 0.  1.
        -15    1    3    3    0    0 -0.14585492337E+03 -0.35566179137E+03  0.93923268171E+02  0.39571922691E+03  0.17770000000E+01 0.  1.
         15    1    3    3    0    0 -0.52990184643E+02 -0.56562287551E+02  0.75077969526E+02  0.10792178315E+03  0.17770000000E+01 0.  1.
</event>
<event>
 8    1  0.2370702E-007  0.5036970E+03  0.7546771E-02  0.9391575E-01
        -11   -1    0    0    0    0  0.00000000000E+00  0.00000000000E+00  0.50000000000E+03  0.50000000000E+03  0.00000000000E+00 0.  1.
         11   -1    0    0    0    0 -0.00000000000E+00 -0.00000000000E+00 -0.50000000000E+03  0.50000000000E+03  0.00000000000E+00 0. -1.
         25    2    1    2    0    0 -0.44024094476E+03 -0.95323150894E+01 -0.21019464368E+03  0.50369696914E+03  0.12500357600E+03 0.  0.
         23    2    1    2    0    0  0.44024094476E+03  0.95323150894E+01  0.21019464368E+03  0.49630303086E+03  0.90730125859E+02 0.  0.
        -11    1    4    4    0    0  0.10922757192E+03 -0.25908508232E+02  0.84306402766E+02  0.14039046554E+03  0.00000000000E+00 0.  1.
         11    1    4    4    0    0  0.33101337284E+03  0.35440823321E+02  0.12588824091E+03  0.35591256533E+03  0.00000000000E+00 0. -1.
        -15    1    3    3    0    0 -0.27585061451E+03 -0.13172327053E+02 -0.19598310929E+03  0.33864377830E+03  0.17770000000E+01 0.  1.
         15    1    3    3    0    0 -0.16439033025E+03  0.36400119633E+01 -0.14211534390E+02  0.16505319084E+03  0.17770000000E+01 0.  1.
</event>
<event>
 8    1  0.2370702E-007  0.5033548E+03  0.7546771E-02  0.9392334E-01
        -11   -1    0    0    0    0  0.00000000000E+00  0.00000000000E+00  0.50000000000E+03  0.50000000000E+03  0.00000000000E+00 0.  1.
         11   -1    0    0    0    0 -0.00000000000E+00 -0.00000000000E+00 -0.50000000000E+03  0.50000000000E+03  0.00000000000E+00 0. -1.
         25    2    1    2    0    0 -0.40116558458E+03  0.27389106458E+03 -0.42311507808E+02  0.50335482301E+03  0.12500269055E+03 0.  0.
         23    2    1    2    0    0  0.40116558458E+03 -0.27389106458E+03  0.42311507808E+02  0.49664517699E+03  0.94424714047E+02 0.  0.
        -11    1    4    4    0    0  0.45309727251E+02 -0.71039852524E+02 -0.44252947094E+01  0.84375442301E+02  0.00000000000E+00 0. -1.
         11    1    4    4    0    0  0.35585585733E+03 -0.20285121205E+03  0.46736802517E+02  0.41226973469E+03  0.00000000000E+00 0.  1.
        -15    1    3    3    0    0 -0.50210962601E+02 -0.86638350884E+01 -0.57775568961E+01  0.51310239684E+02  0.17770000000E+01 0. -1.
         15    1    3    3    0    0 -0.35095462198E+03  0.28255489967E+03 -0.36533950912E+02  0.45204458333E+03  0.17770000000E+01 0. -1.
</event>
<event>
 8    1  0.2370702E-007  0.5035863E+03  0.7546771E-02  0.9391821E-01
        -11   -1    0    0    0    0  0.00000000000E+00  0.00000000000E+00  0.50000000000E+03  0.50000000000E+03  0.00000000000E+00 0. -1.
         11   -1    0    0    0    0 -0.00000000000E+00 -0.00000000000E+00 -0.50000000000E+03  0.50000000000E+03  0.00000000000E+00 0.  1.
         25    2    1    2    0    0  0.55177418333E+02  0.36134175793E+03  0.32305021925E+03  0.50358625413E+03  0.12500103068E+03 0.  0.
         23    2    1    2    0    0 -0.55177418333E+02 -0.36134175793E+03 -0.32305021925E+03  0.49641374587E+03  0.91938835190E+02 0.  0.
        -11    1    4    4    0    0 -0.50066365510E+01 -0.25019841400E+03 -0.17898489155E+03  0.30766849722E+03  0.00000000000E+00 0.  1.
         11    1    4    4    0    0 -0.50170781782E+02 -0.11114334393E+03 -0.14406532770E+03  0.18874524865E+03  0.00000000000E+00 0. -1.
        -15    1    3    3    0    0 -0.15831295798E+02  0.15589889360E+02  0.58126848440E+02  0.62254018469E+02  0.17770000000E+01 0. -1.
         15    1    3    3    0    0  0.71008714130E+02  0.34575186857E+03  0.26492337081E+03  0.44133223566E+03  0.17770000000E+01 0. -1.
</event>
<event>
 8    1  0.2370702E-007  0.5037011E+03  0.7546771E-02  0.9391566E-01
        -11   -1    0    0    0    0  0.00000000000E+00  0.00000000000E+00  0.50000000000E+03  0.50000000000E+03  0.00000000000E+00 0.  1.
         11   -1    0    0    0    0 -0.00000000000E+00 -0.00000000000E+00 -0.50000000000E+03  0.50000000000E+03  0.00000000000E+00 0. -1.
         25    2    1    2    0    0 -0.10829090223E+03 -0.41588435939E+03 -0.23109267754E+03  0.50370114717E+03  0.12499720057E+03 0.  0.
         23    2    1    2    0    0  0.10829090223E+03  0.41588435939E+03  0.23109267754E+03  0.49629885283E+03  0.90675276733E+02 0.  0.
        -11    1    4    4    0    0  0.96242475299E+00  0.16529577274E+03  0.68835365750E+02  0.17905844388E+03  0.00000000000E+00 0. -1.
         11    1    4    4    0    0  0.10732847748E+03  0.25058858665E+03  0.16225731179E+03  0.31724040895E+03  0.00000000000E+00 0.  1.
        -15    1    3    3    0    0 -0.11728369963E+03 -0.41846120841E+03 -0.21467098141E+03  0.48471851329E+03  0.17770000000E+01 0.  1.
         15    1    3    3    0    0  0.89927973977E+01  0.25768490151E+01 -0.16421696138E+02  0.18982633878E+02  0.17770000000E+01 0.  1.
</event>
<event>
 8    1  0.2370702E-007  0.5037750E+03  0.7546771E-02  0.9391402E-01
        -11   -1    0    0    0    0  0.00000000000E+00  0.00000000000E+00  0.50000000000E+03  0.50000000000E+03  0.00000000000E+00 0.  1.
         11   -1    0    0    0    0 -0.00000000000E+00 -0.00000000000E+00 -0.50000000000E+03  0.50000000000E+03  0.00000000000E+00 0. -1.
         25    2    1    2    0    0  0.37283339811E+03 -0.30468550972E+02 -0.31341879416E+03  0.50377497225E+03  0.12499922711E+03 0.  0.
         23    2    1    2    0    0 -0.37283339811E+03  0.30468550972E+02  0.31341879416E+03  0.49622502775E+03  0.89860237514E+02 0.  0.
        -11    1    4    4    0    0 -0.30465777295E+03  0.20931193285E+02  0.29583813899E+03  0.42517605525E+03  0.00000000000E+00 0. -1.
         11    1    4    4    0    0 -0.68175625165E+02  0.95373576863E+01  0.17580655171E+02  0.71048972509E+02  0.00000000000E+00 0.  1.
        -15    1    3    3    0    0  0.26253633164E+03 -0.76682099568E+02 -0.19887584658E+03  0.33817189402E+03  0.17770000000E+01 0.  1.
         15    1    3    3    0    0  0.11029706648E+03  0.46213548596E+02 -0.11454294759E+03  0.16560307823E+03  0.17770000000E+01 0.  1.
</event>
<event>
 8    1  0.2370702E-007  0.5036674E+03  0.7546771E-02  0.9391641E-01
        -11   -1    0    0    0    0  0.00000000000E+00  0.00000000000E+00  0.50000000000E+03  0.50000000000E+03  0.00000000000E+00 0. -1.
         11   -1    0    0    0    0 -0.00000000000E+00 -0.00000000000E+00 -0.50000000000E+03  0.50000000000E+03  0.00000000000E+00 0.  1.
         25    2    1    2    0    0 -0.42471981918E+02  0.46915612193E+03  0.12706020551E+03  0.50366741814E+03  0.12500094513E+03 0.  0.
         23    2    1    2    0    0  0.42471981918E+02 -0.46915612193E+03 -0.12706020551E+03  0.49633258186E+03  0.91051633724E+02 0.  0.
        -11    1    4    4    0    0  0.15938751575E+02 -0.32510178784E+03 -0.45437078473E+02  0.32864835974E+03  0.00000000000E+00 0. -1.
         11    1    4    4    0    0  0.26533230343E+02 -0.14405433408E+03 -0.81623127036E+02  0.16768422212E+03  0.00000000000E+00 0.  1.
        -15    1    3    3    0    0  0.19219347899E+02  0.62926126325E+01  0.31222539746E+01  0.20539876005E+02  0.17770000000E+01 0.  1.
         15    1    3    3    0    0 -0.61691329817E+02  0.46286350929E+03  0.12393795153E+03  0.48312754213E+03  0.17770000000E+01 0.  1.
</event>
<event>
 8    1  0.2370702E-007  0.5036785E+03  0.7546771E-02  0.9391616E-01
        -11   -1    0    0    0    0  0.00000000000E+00  0.00000000000E+00  0.50000000000E+03  0.50000000000E+03  0.00000000000E+00 0.  1.
         11   -1    0    0    0    0 -0.00000000000E+00 -0.00000000000E+00 -0.50000000000E+03  0.50000000000E+03  0.00000000000E+00 0. -1.
         25    2    1    2    0    0  0.83546120597E+02 -0.38246934546E+03  0.29120843075E+03  0.50367846509E+03  0.12500756605E+03 0.  0.
         23    2    1    2    0    0 -0.83546120597E+02  0.38246934546E+03 -0.29120843075E+03  0.49632153491E+03  0.90939328111E+02 0.  0.
        -11    1    4    4    0    0 -0.74403740063E+02  0.23790053661E+03 -0.13574326547E+03  0.28382884980E+03  0.00000000000E+00 0.  1.
         11    1    4    4    0    0 -0.91423805342E+01  0.14456880884E+03 -0.15546516528E+03  0.21249268512E+03  0.00000000000E+00 0. -1.
        -15    1    3    3    0    0  0.30036718775E+02 -0.31425460143E+03  0.26748808311E+03  0.41377674092E+03  0.17770000000E+01 0.  1.
         15    1    3    3    0    0  0.53509401823E+02 -0.68214744030E+02  0.23720347640E+02  0.89901724164E+02  0.17770000000E+01 0.  1.
</event>
<event>
 8    1  0.2370702E-007  0.5037788E+03  0.7546771E-02  0.9391394E-01
        -11   -1    0    0    0    0  0.00000000000E+00  0.00000000000E+00  0.50000000000E+03  0.50000000000E+03  0.00000000000E+00 0.  1.
         11   -1    0    0    0    0 -0.00000000000E+00 -0.00000000000E+00 -0.50000000000E+03  0.50000000000E+03  0.00000000000E+00 0. -1.
         25    2    1    2    0    0 -0.88135197569E+02 -0.35559342610E+03  0.32241850722E+03  0.50377881070E+03  0.12499959431E+03 0.  0.
         23    2    1    2    0    0  0.88135197569E+02  0.35559342610E+03 -0.32241850722E+03  0.49622118930E+03  0.89818022573E+02 0.  0.
        -11    1    4    4    0    0  0.10351176937E+03  0.28608584662E+03 -0.24141991281E+03  0.38838559749E+03  0.00000000000E+00 0. -1.
         11    1    4    4    0    0 -0.15376571804E+02  0.69507579476E+02 -0.80998594406E+02  0.10783559181E+03  0.00000000000E+00 0.  1.
        -15    1    3    3    0    0  0.25097760569E+02 -0.14533356949E+03  0.13875910596E+03  0.20250676834E+03  0.17770000000E+01 0. -1.
         15    1    3    3    0    0 -0.11323295814E+03 -0.21025985661E+03  0.18365940125E+03  0.30127204236E+03  0.17770000000E+01 0. -1.
</event>
<event>
 8    1  0.2370702E-007  0.5037968E+03  0.7546771E-02  0.9391354E-01
        -11   -1    0    0    0    0  0.00000000000E+00  0.00000000000E+00  0.50000000000E+03  0.50000000000E+03  0.00000000000E+00 0. -1.
         11   -1    0    0    0    0 -0.00000000000E+00 -0.00000000000E+00 -0.50000000000E+03  0.50000000000E+03  0.00000000000E+00 0.  1.
         25    2    1    2    0    0  0.39581039174E+02 -0.48599149033E+03 -0.20848145788E+02  0.50379682819E+03  0.12498884579E+03 0.  0.
         23    2    1    2    0    0 -0.39581039174E+02  0.48599149033E+03  0.20848145788E+02  0.49620317181E+03  0.89602205282E+02 0.  0.
        -11    1    4    4    0    0 -0.32453479189E+02  0.46035490807E+03 -0.14296228299E+01  0.46149963544E+03  0.00000000000E+00 0.  1.
         11    1    4    4    0    0 -0.71275599843E+01  0.25636582266E+02  0.22277768618E+02  0.34703536365E+02  0.00000000000E+00 0. -1.
        -15    1    3    3    0    0  0.78648312960E+02 -0.22219491195E+03 -0.25428416692E+02  0.23707783138E+03  0.17770000000E+01 0. -1.
         15    1    3    3    0    0 -0.39067273786E+02 -0.26379657838E+03  0.45802709031E+01  0.26671899681E+03  0.17770000000E+01 0. -1.
</event>
<event>
 8    1  0.2370702E-007  0.5035896E+03  0.7546771E-02  0.9391813E-01
        -11   -1    0    0    0    0  0.00000000000E+00  0.00000000000E+00  0.50000000000E+03  0.50000000000E+03  0.00000000000E+00 0.  1.
         11   -1    0    0    0    0 -0.00000000000E+00 -0.00000000000E+00 -0.50000000000E+03  0.50000000000E+03  0.00000000000E+00 0. -1.
         25    2    1    2    0    0 -0.43089846521E+03 -0.22564831383E+03 -0.37270960685E+02  0.50358959273E+03  0.12499081780E+03 0.  0.
         23    2    1    2    0    0  0.43089846521E+03  0.22564831383E+03  0.37270960685E+02  0.49641040727E+03  0.91888623220E+02 0.  0.
        -11    1    4    4    0    0  0.73499186785E+02  0.22667064371E+01  0.44647998138E+01  0.73669551739E+02  0.00000000000E+00 0. -1.
         11    1    4    4    0    0  0.35739927843E+03  0.22338160740E+03  0.32806160871E+02  0.42274085553E+03  0.00000000000E+00 0.  1.
        -15    1    3    3    0    0 -0.35494934636E+03 -0.15748397692E+03 -0.73628397752E+02  0.39523985142E+03  0.17770000000E+01 0. -1.
         15    1    3    3    0    0 -0.75949118851E+02 -0.68164336919E+02  0.36357437067E+02  0.10834974131E+03  0.17770000000E+01 0. -1.
</event>
<event>
 8    1  0.2370702E-007  0.5039158E+03  0.7546771E-02  0.9391090E-01
        -11   -1    0    0    0    0  0.00000000000E+00  0.00000000000E+00  0.50000000000E+03  0.50000000000E+03  0.00000000000E+00 0. -1.
         11   -1    0    0    0    0 -0.00000000000E+00 -0.00000000000E+00 -0.50000000000E+03  0.50000000000E+03  0.00000000000E+00 0.  1.
         25    2    1    2    0    0 -0.34880232746E+03 -0.28042624597E+03  0.19494622932E+03  0.50391583593E+03  0.12500077723E+03 0.  0.
         23    2    1    2    0    0  0.34880232746E+03  0.28042624597E+03 -0.19494622932E+03  0.49608416407E+03  0.88280929082E+02 0.  0.
        -11    1    4    4    0    0  0.28826103806E+03  0.20577378277E+03 -0.18465788414E+03  0.39941934094E+03  0.00000000000E+00 0. -1.
         11    1    4    4    0    0  0.60541289403E+02  0.74652463197E+02 -0.10288345178E+02  0.96664823128E+02  0.00000000000E+00 0.  1.
        -15    1    3    3    0    0 -0.71505609545E+02 -0.21739751108E+02  0.75669388603E+02  0.10637049908E+03  0.17770000000E+01 0.  1.
         15    1    3    3    0    0 -0.27729671792E+03 -0.25868649486E+03  0.11927684071E+03  0.39754533685E+03  0.17770000000E+01 0.  1.
</event>
<event>
 8    1  0.2370702E-007  0.5036286E+03  0.7546771E-02  0.9391727E-01
        -11   -1    0    0    0    0  0.00000000000E+00  0.00000000000E+00  0.50000000000E+03  0.50000000000E+03  0.00000000000E+00 0.  1.
         11   -1    0    0    0    0 -0.00000000000E+00 -0.00000000000E+00 -0.50000000000E+03  0.50000000000E+03  0.00000000000E+00 0. -1.
         25    2    1    2    0    0  0.38497263604E+03 -0.13282591796E+03 -0.26864508568E+03  0.50362857088E+03  0.12499960146E+03 0.  0.
         23    2    1    2    0    0 -0.38497263604E+03  0.13282591796E+03  0.26864508568E+03  0.49637142912E+03  0.91475453530E+02 0.  0.
        -11    1    4    4    0    0 -0.33876960447E+03  0.83672097116E+02  0.21214362663E+03  0.40837578658E+03  0.00000000000E+00 0.  1.
         11    1    4    4    0    0 -0.46203031578E+02  0.49153820844E+02  0.56501459046E+02  0.87995642534E+02  0.00000000000E+00 0. -1.
        -15    1    3    3    0    0  0.34495523153E+03 -0.13201398858E+03 -0.18998873983E+03  0.41535609293E+03  0.17770000000E+01 0. -1.
         15    1    3    3    0    0  0.40017404513E+02 -0.81192938515E+00 -0.78656345849E+02  0.88272477957E+02  0.17770000000E+01 0. -1.
</event>
<event>
 8    1  0.2370702E-007  0.5034602E+03  0.7546771E-02  0.9392100E-01
        -11   -1    0    0    0    0  0.00000000000E+00  0.00000000000E+00  0.50000000000E+03  0.50000000000E+03  0.00000000000E+00 0. -1.
         11   -1    0    0    0    0 -0.00000000000E+00 -0.00000000000E+00 -0.50000000000E+03  0.50000000000E+03  0.00000000000E+00 0.  1.
         25    2    1    2    0    0  0.24195846115E+03 -0.38522538434E+03  0.17579721170E+03  0.50346021631E+03  0.12500014440E+03 0.  0.
         23    2    1    2    0    0 -0.24195846115E+03  0.38522538434E+03 -0.17579721170E+03  0.49653978369E+03  0.93298464495E+02 0.  0.
        -11    1    4    4    0    0 -0.17608388093E+03  0.19341181935E+03 -0.97563833405E+02  0.27916369137E+03  0.00000000000E+00 0.  1.
         11    1    4    4    0    0 -0.65874580225E+02  0.19181356499E+03 -0.78233378298E+02  0.21737609232E+03  0.00000000000E+00 0. -1.
        -15    1    3    3    0    0  0.50149952468E+02 -0.13972091365E+02  0.61263749411E+01  0.52449282822E+02  0.17770000000E+01 0. -1.
         15    1    3    3    0    0  0.19180850868E+03 -0.37125329298E+03  0.16967083676E+03  0.45101093349E+03  0.17770000000E+01 0. -1.
</event>
<event>
 8    1  0.2370702E-007  0.5037498E+03  0.7546771E-02  0.9391458E-01
        -11   -1    0    0    0    0  0.00000000000E+00  0.00000000000E+00  0.50000000000E+03  0.50000000000E+03  0.00000000000E+00 0.  1.
         11   -1    0    0    0    0 -0.00000000000E+00 -0.00000000000E+00 -0.50000000000E+03  0.50000000000E+03  0.00000000000E+00 0. -1.
         25    2    1    2    0    0  0.40313196101E+03  0.70496569405E+02 -0.26580788704E+03  0.50374976745E+03  0.12499940444E+03 0.  0.
         23    2    1    2    0    0 -0.40313196101E+03 -0.70496569405E+02  0.26580788704E+03  0.49625023255E+03  0.90140535835E+02 0.  0.
        -11    1    4    4    0    0 -0.13986483274E+03 -0.39759440783E+02  0.14365699373E+03  0.20440233955E+03  0.00000000000E+00 0.  1.
         11    1    4    4    0    0 -0.26326712828E+03 -0.30737128621E+02  0.12215089331E+03  0.29184789299E+03  0.00000000000E+00 0. -1.
        -15    1    3    3    0    0  0.28856716742E+03 -0.77551166193E+01 -0.19066406422E+03  0.34595822733E+03  0.17770000000E+01 0. -1.
         15    1    3    3    0    0  0.11456479359E+03  0.78251686024E+02 -0.75143822822E+02  0.15779154012E+03  0.17770000000E+01 0. -1.
</event>
<event>
 8    1  0.2370702E-007  0.5035249E+03  0.7546771E-02  0.9391957E-01
        -11   -1    0    0    0    0  0.00000000000E+00  0.00000000000E+00  0.50000000000E+03  0.50000000000E+03  0.00000000000E+00 0.  1.
         11   -1    0    0    0    0 -0.00000000000E+00 -0.00000000000E+00 -0.50000000000E+03  0.50000000000E+03  0.00000000000E+00 0. -1.
         25    2    1    2    0    0 -0.33581268921E+03  0.21192699775E+03 -0.28324808586E+03  0.50352488400E+03  0.12499846420E+03 0.  0.
         23    2    1    2    0    0  0.33581268921E+03 -0.21192699775E+03  0.28324808586E+03  0.49647511600E+03  0.92600475482E+02 0.  0.
        -11    1    4    4    0    0  0.44188756894E+02 -0.77555623673E+01  0.64758968692E+02  0.78781463616E+02  0.00000000000E+00 0.  1.
         11    1    4    4    0    0  0.29162393231E+03 -0.20417143538E+03  0.21848911717E+03  0.41769365239E+03  0.00000000000E+00 0. -1.
        -15    1    3    3    0    0 -0.25522753427E+03  0.12199507180E+03 -0.25181865220E+03  0.37873431732E+03  0.17770000000E+01 0.  1.
         15    1    3    3    0    0 -0.80585154941E+02  0.89931925951E+02 -0.31429433657E+02  0.12479056667E+03  0.17770000000E+01 0.  1.
</event>
<event>
 8    1  0.2370702E-007  0.5036946E+03  0.7546771E-02  0.9391581E-01
        -11   -1    0    0    0    0  0.00000000000E+00  0.00000000000E+00  0.50000000000E+03  0.50000000000E+03  0.00000000000E+00 0.  1.
         11   -1    0    0    0    0 -0.00000000000E+00 -0.00000000000E+00 -0.50000000000E+03  0.50000000000E+03  0.00000000000E+00 0. -1.
         25    2    1    2    0    0  0.14207065357E+03  0.11054274810E+03  0.45352038590E+03  0.50369457301E+03  0.12499485064E+03 0.  0.
         23    2    1    2    0    0 -0.14207065357E+03 -0.11054274810E+03 -0.45352038590E+03  0.49630542699E+03  0.90744513137E+02 0.  0.
        -11    1    4    4    0    0 -0.80949099107E+02 -0.36767073872E+02 -0.31898508188E+03  0.33114355924E+03  0.00000000000E+00 0. -1.
         11    1    4    4    0    0 -0.61121554463E+02 -0.73775674229E+02 -0.13453530403E+03  0.16516186775E+03  0.00000000000E+00 0.  1.
        -15    1    3    3    0    0  0.14514931715E+01  0.60632064428E+01 -0.78501719737E+01  0.10180974109E+02  0.17770000000E+01 0.  1.
         15    1    3    3    0    0  0.14061916040E+03  0.10447954166E+03  0.46137055788E+03  0.49351359890E+03  0.17770000000E+01 0.  1.
</event>
<event>
 8    1  0.2370702E-007  0.5036694E+03  0.7546771E-02  0.9391636E-01
        -11   -1    0    0    0    0  0.00000000000E+00  0.00000000000E+00  0.50000000000E+03  0.50000000000E+03  0.00000000000E+00 0. -1.
         11   -1    0    0    0    0 -0.00000000000E+00 -0.00000000000E+00 -0.50000000000E+03  0.50000000000E+03  0.00000000000E+00 0.  1.
         25    2    1    2    0    0 -0.45229063270E+03 -0.42746744649E+02 -0.17795181025E+03  0.50366936551E+03  0.12498752889E+03 0.  0.
         23    2    1    2    0    0  0.45229063270E+03  0.42746744649E+02  0.17795181025E+03  0.49633063449E+03  0.91011819841E+02 0.  0.
        -11    1    4    4    0    0  0.39322994778E+03  0.34491550921E+02  0.11854604340E+03  0.41215606671E+03  0.00000000000E+00 0.  1.
         11    1    4    4    0    0  0.59060684925E+02  0.82551937279E+01  0.59405766840E+02  0.84174567781E+02  0.00000000000E+00 0. -1.
        -15    1    3    3    0    0 -0.46258930730E+02  0.24762992669E+02  0.59676386564E+01  0.52838101010E+02  0.17770000000E+01 0. -1.
         15    1    3    3    0    0 -0.40603170197E+03 -0.67509737318E+02 -0.18391944890E+03  0.45083126450E+03  0.17770000000E+01 0. -1.
</event>
<event>
 8    1  0.2370702E-007  0.5035562E+03  0.7546771E-02  0.9391887E-01
        -11   -1    0    0    0    0  0.00000000000E+00  0.00000000000E+00  0.50000000000E+03  0.50000000000E+03  0.00000000000E+00 0.  1.
         11   -1    0    0    0    0 -0.00000000000E+00 -0.00000000000E+00 -0.50000000000E+03  0.50000000000E+03  0.00000000000E+00 0. -1.
         25    2    1    2    0    0  0.24010539174E+03 -0.39729576818E+03  0.14983604226E+03  0.50355624731E+03  0.12499411222E+03 0.  0.
         23    2    1    2    0    0 -0.24010539174E+03  0.39729576818E+03 -0.14983604226E+03  0.49644375269E+03  0.92255262579E+02 0.  0.
        -11    1    4    4    0    0 -0.10611372887E+03  0.26139574584E+03 -0.98476358226E+02  0.29880671433E+03  0.00000000000E+00 0. -1.
         11    1    4    4    0    0 -0.13399166286E+03  0.13590002233E+03 -0.51359684031E+02  0.19763703836E+03  0.00000000000E+00 0.  1.
        -15    1    3    3    0    0  0.42284142331E+02 -0.18758083722E+03  0.53762219362E+02  0.19966986038E+03  0.17770000000E+01 0.  1.
         15    1    3    3    0    0  0.19782124941E+03 -0.20971493096E+03  0.96073822895E+02  0.30388638692E+03  0.17770000000E+01 0.  1.
</event>
<event>
 8    1  0.2370702E-007  0.5036330E+03  0.7546771E-02  0.9391717E-01
        -11   -1    0    0    0    0  0.00000000000E+00  0.00000000000E+00  0.50000000000E+03  0.50000000000E+03  0.00000000000E+00 0. -1.
         11   -1    0    0    0    0 -0.00000000000E+00 -0.00000000000E+00 -0.50000000000E+03  0.50000000000E+03  0.00000000000E+00 0.  1.
         25    2    1    2    0    0  0.30499579016E+02  0.46589671253E+03 -0.14153017857E+03  0.50363297447E+03  0.12500164183E+03 0.  0.
         23    2    1    2    0    0 -0.30499579016E+02 -0.46589671253E+03  0.14153017857E+03  0.49636702553E+03  0.91430090901E+02 0.  0.
        -11    1    4    4    0    0 -0.50575010303E+02 -0.30572563446E+03  0.12483948347E+03  0.33408216335E+03  0.00000000000E+00 0.  1.
         11    1    4    4    0    0  0.20075431287E+02 -0.16017107807E+03  0.16690695101E+02  0.16228486219E+03  0.00000000000E+00 0. -1.
        -15    1    3    3    0    0  0.28333081500E+02  0.31304038512E+03 -0.32805192358E+02  0.31603225246E+03  0.17770000000E+01 0.  1.
         15    1    3    3    0    0  0.21664975164E+01  0.15285632741E+03 -0.10872498621E+03  0.18760072201E+03  0.17770000000E+01 0.  1.
</event>
<event>
 8    1  0.2370702E-007  0.5036670E+03  0.7546771E-02  0.9391642E-01
        -11   -1    0    0    0    0  0.00000000000E+00  0.00000000000E+00  0.50000000000E+03  0.50000000000E+03  0.00000000000E+00 0. -1.
         11   -1    0    0    0    0 -0.00000000000E+00 -0.00000000000E+00 -0.50000000000E+03  0.50000000000E+03  0.00000000000E+00 0.  1.
         25    2    1    2    0    0  0.90969213320E+02  0.44503120603E+03 -0.17812184013E+03  0.50366701878E+03  0.12499961505E+03 0.  0.
         23    2    1    2    0    0 -0.90969213320E+02 -0.44503120603E+03  0.17812184013E+03  0.49633298122E+03  0.91054193807E+02 0.  0.
        -11    1    4    4    0    0  0.14925998039E+02 -0.19863687779E+02  0.13454082151E+02  0.28255332880E+02  0.00000000000E+00 0.  1.
         11    1    4    4    0    0 -0.10589521136E+03 -0.42516751825E+03  0.16466775798E+03  0.46807764834E+03  0.00000000000E+00 0. -1.
        -15    1    3    3    0    0  0.66503962026E+02  0.12290528800E+03 -0.98387064353E+02  0.17091418591E+03  0.17770000000E+01 0. -1.
         15    1    3    3    0    0  0.24465251294E+02  0.32212591803E+03 -0.79734775780E+02  0.33275283287E+03  0.17770000000E+01 0. -1.
</event>
<event>
 8    1  0.2370702E-007  0.5036429E+03  0.7546771E-02  0.9391695E-01
        -11   -1    0    0    0    0  0.00000000000E+00  0.00000000000E+00  0.50000000000E+03  0.50000000000E+03  0.00000000000E+00 0.  1.
         11   -1    0    0    0    0 -0.00000000000E+00 -0.00000000000E+00 -0.50000000000E+03  0.50000000000E+03  0.00000000000E+00 0. -1.
         25    2    1    2    0    0  0.13315997346E+03  0.26993500989E+03  0.38397765350E+03  0.50364287449E+03  0.12498327306E+03 0.  0.
         23    2    1    2    0    0 -0.13315997346E+03 -0.26993500989E+03 -0.38397765350E+03  0.49635712551E+03  0.91296602166E+02 0.  0.
        -11    1    4    4    0    0 -0.75376706819E+02 -0.58707266066E+02 -0.11555062089E+03  0.14993377541E+03  0.00000000000E+00 0. -1.
         11    1    4    4    0    0 -0.57783266637E+02 -0.21122774382E+03 -0.26842703261E+03  0.34642335010E+03  0.00000000000E+00 0.  1.
        -15    1    3    3    0    0  0.10074472843E+03  0.13802100729E+03  0.29601913684E+03  0.34180372418E+03  0.17770000000E+01 0.  1.
         15    1    3    3    0    0  0.32415245022E+02  0.13191400259E+03  0.87958516662E+02  0.16183915031E+03  0.17770000000E+01 0.  1.
</event>
<event>
 8    1  0.2370702E-007  0.5036318E+03  0.7546771E-02  0.9391720E-01
        -11   -1    0    0    0    0  0.00000000000E+00  0.00000000000E+00  0.50000000000E+03  0.50000000000E+03  0.00000000000E+00 0. -1.
         11   -1    0    0    0    0 -0.00000000000E+00 -0.00000000000E+00 -0.50000000000E+03  0.50000000000E+03  0.00000000000E+00 0.  1.
         25    2    1    2    0    0  0.11795851918E+03 -0.38645229030E+03 -0.27342379088E+03  0.50363178213E+03  0.12499927052E+03 0.  0.
         23    2    1    2    0    0 -0.11795851918E+03  0.38645229030E+03  0.27342379088E+03  0.49636821787E+03  0.91439889352E+02 0.  0.
        -11    1    4    4    0    0 -0.97858310437E+02  0.31147265865E+03  0.26049674387E+03  0.41767214364E+03  0.00000000000E+00 0.  1.
         11    1    4    4    0    0 -0.20100208739E+02  0.74979631650E+02  0.12927047007E+02  0.78696074223E+02  0.00000000000E+00 0. -1.
        -15    1    3    3    0    0  0.13220590448E+03 -0.23194682444E+03 -0.15793753010E+03  0.31020179188E+03  0.17770000000E+01 0. -1.
         15    1    3    3    0    0 -0.14247385299E+02 -0.15450546586E+03 -0.11548626078E+03  0.19342999025E+03  0.17770000000E+01 0. -1.
</event>
<event>
 8    1  0.2370702E-007  0.5036162E+03  0.7546771E-02  0.9391754E-01
        -11   -1    0    0    0    0  0.00000000000E+00  0.00000000000E+00  0.50000000000E+03  0.50000000000E+03  0.00000000000E+00 0. -1.
         11   -1    0    0    0    0 -0.00000000000E+00 -0.00000000000E+00 -0.50000000000E+03  0.50000000000E+03  0.00000000000E+00 0.  1.
         25    2    1    2    0    0  0.44890658502E+02  0.45661428355E+03  0.16582553688E+03  0.50361616270E+03  0.12497741991E+03 0.  0.
         23    2    1    2    0    0 -0.44890658502E+02 -0.45661428355E+03 -0.16582553688E+03  0.49638383730E+03  0.91580729884E+02 0.  0.
        -11    1    4    4    0    0 -0.35366350407E+02 -0.12663176320E+03 -0.11521003663E+02  0.13198149763E+03  0.00000000000E+00 0.  1.
         11    1    4    4    0    0 -0.95243080943E+01 -0.32998252035E+03 -0.15430453322E+03  0.36440233967E+03  0.00000000000E+00 0. -1.
        -15    1    3    3    0    0 -0.10166070679E+02  0.38429962709E+03  0.12849027112E+03  0.40534239832E+03  0.17770000000E+01 0. -1.
         15    1    3    3    0    0  0.55056729180E+02  0.72314656467E+02  0.37335265757E+02  0.98273764384E+02  0.17770000000E+01 0. -1.
</event>
<event>
 8    1  0.2370702E-007  0.5043064E+03  0.7546771E-02  0.9390225E-01
        -11   -1    0    0    0    0  0.00000000000E+00  0.00000000000E+00  0.50000000000E+03  0.50000000000E+03  0.00000000000E+00 0.  1.
         11   -1    0    0    0    0 -0.00000000000E+00 -0.00000000000E+00 -0.50000000000E+03  0.50000000000E+03  0.00000000000E+00 0. -1.
         25    2    1    2    0    0 -0.15354242600E+03 -0.46096958969E+03  0.51300217052E+02  0.50430640416E+03  0.12499999121E+03 0.  0.
         23    2    1    2    0    0  0.15354242600E+03  0.46096958969E+03 -0.51300217052E+02  0.49569359584E+03  0.83738817071E+02 0.  0.
        -11    1    4    4    0    0  0.17920054848E+02  0.74429778851E+02 -0.38879508872E+02  0.85863476261E+02  0.00000000000E+00 0.  1.
         11    1    4    4    0    0  0.13562237116E+03  0.38653981084E+03 -0.12420708180E+02  0.40983011958E+03  0.00000000000E+00 0. -1.
        -15    1    3    3    0    0 -0.14963728297E+03 -0.42725755403E+03  0.80126792322E+02  0.45974318321E+03  0.17770000000E+01 0. -1.
         15    1    3    3    0    0 -0.39051430334E+01 -0.33712035659E+02 -0.28826575270E+02  0.44563220947E+02  0.17770000000E+01 0. -1.
</event>
<event>
 8    1  0.2370702E-007  0.5035065E+03  0.7546771E-02  0.9391998E-01
        -11   -1    0    0    0    0  0.00000000000E+00  0.00000000000E+00  0.50000000000E+03  0.50000000000E+03  0.00000000000E+00 0.  1.
         11   -1    0    0    0    0 -0.00000000000E+00 -0.00000000000E+00 -0.50000000000E+03  0.50000000000E+03  0.00000000000E+00 0. -1.
         25    2    1    2    0    0  0.15783720965E+03  0.34880275463E+03 -0.30218475027E+03  0.50350654959E+03  0.12500910288E+03 0.  0.
         23    2    1    2    0    0 -0.15783720965E+03 -0.34880275463E+03  0.30218475027E+03  0.49649345041E+03  0.92812588663E+02 0.  0.
        -11    1    4    4    0    0 -0.61323095789E+02 -0.64520450922E+02  0.38750017988E+02  0.97082308163E+02  0.00000000000E+00 0. -1.
         11    1    4    4    0    0 -0.96514113857E+02 -0.28428230371E+03  0.26343473228E+03  0.39941114224E+03  0.00000000000E+00 0.  1.
        -15    1    3    3    0    0  0.10322784047E+02  0.70926192049E+02 -0.68947068650E+01  0.72026240363E+02  0.17770000000E+01 0. -1.
         15    1    3    3    0    0  0.14751442560E+03  0.27787656258E+03 -0.29529004340E+03  0.43148030923E+03  0.17770000000E+01 0. -1.
</event>
<event>
 8    1  0.2370702E-007  0.5036803E+03  0.7546771E-02  0.9391612E-01
        -11   -1    0    0    0    0  0.00000000000E+00  0.00000000000E+00  0.50000000000E+03  0.50000000000E+03  0.00000000000E+00 0.  1.
         11   -1    0    0    0    0 -0.00000000000E+00 -0.00000000000E+00 -0.50000000000E+03  0.50000000000E+03  0.00000000000E+00 0. -1.
         25    2    1    2    0    0 -0.26564179562E+03  0.36855743439E+03 -0.17795161289E+03  0.50368031297E+03  0.12500774026E+03 0.  0.
         23    2    1    2    0    0  0.26564179562E+03 -0.36855743439E+03  0.17795161289E+03  0.49631968703E+03  0.90919245394E+02 0.  0.
        -11    1    4    4    0    0  0.26923275675E+03 -0.33956780653E+03  0.17340514360E+03  0.46675680645E+03  0.00000000000E+00 0.  1.
         11    1    4    4    0    0 -0.35909611337E+01 -0.28989627861E+02  0.45464692845E+01  0.29562880582E+02  0.00000000000E+00 0. -1.
        -15    1    3    3    0    0 -0.18790860783E+03  0.15624669567E+03 -0.10621650441E+03  0.26647284729E+03  0.17770000000E+01 0.  1.
         15    1    3    3    0    0 -0.77733187788E+02  0.21231073871E+03 -0.71735108478E+02  0.23720746568E+03  0.17770000000E+01 0.  1.
</event>
<event>
 8    1  0.2370702E-007  0.5036508E+03  0.7546771E-02  0.9391678E-01
        -11   -1    0    0    0    0  0.00000000000E+00  0.00000000000E+00  0.50000000000E+03  0.50000000000E+03  0.00000000000E+00 0. -1.
         11   -1    0    0    0    0 -0.00000000000E+00 -0.00000000000E+00 -0.50000000000E+03  0.50000000000E+03  0.00000000000E+00 0.  1.
         25    2    1    2    0    0  0.19006426060E+03 -0.37659264242E+02 -0.44776899656E+03  0.50365076181E+03  0.12499748897E+03 0.  0.
         23    2    1    2    0    0 -0.19006426060E+03  0.37659264242E+02  0.44776899656E+03  0.49634923819E+03  0.91229647749E+02 0.  0.
        -11    1    4    4    0    0 -0.28362731312E+02 -0.61843578525E+01  0.15850130734E+02  0.33074422955E+02  0.00000000000E+00 0.  1.
         11    1    4    4    0    0 -0.16170152929E+03  0.43843622095E+02  0.43191886583E+03  0.46327481523E+03  0.00000000000E+00 0. -1.
        -15    1    3    3    0    0  0.10387048560E+03  0.38676310212E+02 -0.26971375113E+03  0.29160521262E+03  0.17770000000E+01 0.  1.
         15    1    3    3    0    0  0.86193775009E+02 -0.76335574454E+02 -0.17805524543E+03  0.21204554919E+03  0.17770000000E+01 0.  1.
</event>
<event>
 8    1  0.2370702E-007  0.5036614E+03  0.7546771E-02  0.9391654E-01
        -11   -1    0    0    0    0  0.00000000000E+00  0.00000000000E+00  0.50000000000E+03  0.50000000000E+03  0.00000000000E+00 0. -1.
         11   -1    0    0    0    0 -0.00000000000E+00 -0.00000000000E+00 -0.50000000000E+03  0.50000000000E+03  0.00000000000E+00 0.  1.
         25    2    1    2    0    0 -0.17727492088E+03  0.90628929162E+02 -0.44543158527E+03  0.50366142648E+03  0.12500213994E+03 0.  0.
         23    2    1    2    0    0  0.17727492088E+03 -0.90628929162E+02  0.44543158527E+03  0.49633857352E+03  0.91119054134E+02 0.  0.
        -11    1    4    4    0    0  0.15117327775E+03 -0.73942740499E+02  0.42993811072E+03  0.46170084235E+03  0.00000000000E+00 0. -1.
         11    1    4    4    0    0  0.26101643137E+02 -0.16686188663E+02  0.15493474551E+02  0.34637731164E+02  0.00000000000E+00 0.  1.
        -15    1    3    3    0    0 -0.75435671263E+02 -0.24672824755E+02 -0.18264887481E+03  0.19915586353E+03  0.17770000000E+01 0.  1.
         15    1    3    3    0    0 -0.10183924962E+03  0.11530175392E+03 -0.26278271046E+03  0.30450556295E+03  0.17770000000E+01 0.  1.
</event>
<event>
 8    1  0.2370702E-007  0.5040267E+03  0.7546771E-02  0.9390844E-01
        -11   -1    0    0    0    0  0.00000000000E+00  0.00000000000E+00  0.50000000000E+03  0.50000000000E+03  0.00000000000E+00 0.  1.
         11   -1    0    0    0    0 -0.00000000000E+00 -0.00000000000E+00 -0.50000000000E+03  0.50000000000E+03  0.00000000000E+00 0. -1.
         25    2    1    2    0    0  0.27428520406E+03 -0.30274578149E+03 -0.26745930873E+03  0.50402674320E+03  0.12498437763E+03 0.  0.
         23    2    1    2    0    0 -0.27428520406E+03  0.30274578149E+03  0.26745930873E+03  0.49597325680E+03  0.86992001097E+02 0.  0.
        -11    1    4    4    0    0 -0.83349248430E+02  0.39223084457E+02  0.64325298083E+02  0.11235342247E+03  0.00000000000E+00 0.  1.
         11    1    4    4    0    0 -0.19093595563E+03  0.26352269704E+03  0.20313401065E+03  0.38361983433E+03  0.00000000000E+00 0. -1.
        -15    1    3    3    0    0  0.27926649608E+01  0.99431535164E+01  0.97716297382E+00  0.10525105981E+02  0.17770000000E+01 0.  1.
         15    1    3    3    0    0  0.27149253910E+03 -0.31268893501E+03 -0.26843647171E+03  0.49350163722E+03  0.17770000000E+01 0.  1.
</event>
<event>
 8    1  0.2370702E-007  0.5035721E+03  0.7546771E-02  0.9391852E-01
        -11   -1    0    0    0    0  0.00000000000E+00  0.00000000000E+00  0.50000000000E+03  0.50000000000E+03  0.00000000000E+00 0.  1.
         11   -1    0    0    0    0 -0.00000000000E+00 -0.00000000000E+00 -0.50000000000E+03  0.50000000000E+03  0.00000000000E+00 0. -1.
         25    2    1    2    0    0 -0.34333287315E+03  0.20643203587E+03  0.27833933646E+03  0.50357205517E+03  0.12498152385E+03 0.  0.
         23    2    1    2    0    0  0.34333287315E+03 -0.20643203587E+03 -0.27833933646E+03  0.49642794483E+03  0.92066665905E+02 0.  0.
        -11    1    4    4    0    0  0.20501028240E+03 -0.10100957860E+03 -0.10722734544E+03  0.25244772621E+03  0.00000000000E+00 0.  1.
         11    1    4    4    0    0  0.13832259075E+03 -0.10542245727E+03 -0.17111199102E+03  0.24398021862E+03  0.00000000000E+00 0. -1.
        -15    1    3    3    0    0 -0.32985693919E+03  0.15721835556E+03  0.22210499073E+03  0.42761781569E+03  0.17770000000E+01 0. -1.
         15    1    3    3    0    0 -0.13475933956E+02  0.49213680311E+02  0.56234345733E+02  0.75954239479E+02  0.17770000000E+01 0. -1.
</event>
<event>
 8    1  0.2370702E-007  0.5038138E+03  0.7546771E-02  0.9391316E-01
        -11   -1    0    0    0    0  0.00000000000E+00  0.00000000000E+00  0.50000000000E+03  0.50000000000E+03  0.00000000000E+00 0.  1.
         11   -1    0    0    0    0 -0.00000000000E+00 -0.00000000000E+00 -0.50000000000E+03  0.50000000000E+03  0.00000000000E+00 0. -1.
         25    2    1    2    0    0 -0.33423790369E+02  0.42112869980E+03  0.24440990064E+03  0.50381382044E+03  0.12500253831E+03 0.  0.
         23    2    1    2    0    0  0.33423790369E+02 -0.42112869980E+03 -0.24440990064E+03  0.49618617956E+03  0.89431502841E+02 0.  0.
        -11    1    4    4    0    0  0.35820471357E+02 -0.19946940273E+03 -0.70976133433E+02  0.21472950499E+03  0.00000000000E+00 0.  1.
         11    1    4    4    0    0 -0.23966809876E+01 -0.22165929707E+03 -0.17343376720E+03  0.28145667457E+03  0.00000000000E+00 0. -1.
        -15    1    3    3    0    0  0.43819741378E+02  0.86215691700E+02  0.48841344348E+02  0.10836027813E+03  0.17770000000E+01 0.  1.
         15    1    3    3    0    0 -0.77243531747E+02  0.33491300810E+03  0.19556855629E+03  0.39545354231E+03  0.17770000000E+01 0.  1.
</event>
<event>
 8    1  0.2370702E-007  0.5036940E+03  0.7546771E-02  0.9391582E-01
        -11   -1    0    0    0    0  0.00000000000E+00  0.00000000000E+00  0.50000000000E+03  0.50000000000E+03  0.00000000000E+00 0. -1.
         11   -1    0    0    0    0 -0.00000000000E+00 -0.00000000000E+00 -0.50000000000E+03  0.50000000000E+03  0.00000000000E+00 0.  1.
         25    2    1    2    0    0  0.40881145153E+03 -0.25102147976E+03 -0.89116294673E+02  0.50369402273E+03  0.12500947309E+03 0.  0.
         23    2    1    2    0    0 -0.40881145153E+03  0.25102147976E+03  0.89116294673E+02  0.49630597727E+03  0.90770716050E+02 0.  0.
        -11    1    4    4    0    0 -0.29286213876E+03  0.20882385859E+03  0.97389724256E+02  0.37263976522E+03  0.00000000000E+00 0. -1.
         11    1    4    4    0    0 -0.11594931277E+03  0.42197621170E+02 -0.82734295838E+01  0.12366621204E+03  0.00000000000E+00 0.  1.
        -15    1    3    3    0    0  0.23329070919E+03 -0.21093226050E+03 -0.73348972803E+02  0.32295541961E+03  0.17770000000E+01 0.  1.
         15    1    3    3    0    0  0.17552074234E+03 -0.40089219253E+02 -0.15767321870E+02  0.18073860312E+03  0.17770000000E+01 0.  1.
</event>
<event>
 8    1  0.2370702E-007  0.5035548E+03  0.7546771E-02  0.9391891E-01
        -11   -1    0    0    0    0  0.00000000000E+00  0.00000000000E+00  0.50000000000E+03  0.50000000000E+03  0.00000000000E+00 0.  1.
         11   -1    0    0    0    0 -0.00000000000E+00 -0.00000000000E+00 -0.50000000000E+03  0.50000000000E+03  0.00000000000E+00 0. -1.
         25    2    1    2    0    0 -0.17792026258E+03 -0.39709575849E+03 -0.22045933238E+03  0.50355478104E+03  0.12499775608E+03 0.  0.
         23    2    1    2    0    0  0.17792026258E+03  0.39709575849E+03  0.22045933238E+03  0.49644521896E+03  0.92276090896E+02 0.  0.
        -11    1    4    4    0    0  0.13121100513E+03  0.22447263236E+03  0.16992869038E+03  0.31061237960E+03  0.00000000000E+00 0.  1.
         11    1    4    4    0    0  0.46709257453E+02  0.17262312612E+03  0.50530642006E+02  0.18583283936E+03  0.00000000000E+00 0. -1.
        -15    1    3    3    0    0 -0.15679388223E+03 -0.20393818447E+03 -0.10766268785E+03  0.27887186426E+03  0.17770000000E+01 0. -1.
         15    1    3    3    0    0 -0.21126380354E+02 -0.19315757401E+03 -0.11279664453E+03  0.22468291678E+03  0.17770000000E+01 0. -1.
</event>
<event>
 8    1  0.2370702E-007  0.5036481E+03  0.7546771E-02  0.9391684E-01
        -11   -1    0    0    0    0  0.00000000000E+00  0.00000000000E+00  0.50000000000E+03  0.50000000000E+03  0.00000000000E+00 0. -1.
         11   -1    0    0    0    0 -0.00000000000E+00 -0.00000000000E+00 -0.50000000000E+03  0.50000000000E+03  0.00000000000E+00 0.  1.
         25    2    1    2    0    0 -0.48382605384E+03 -0.55332497791E+02 -0.29759749586E+02  0.50364813541E+03  0.12500586357E+03 0.  0.
         23    2    1    2    0    0  0.48382605384E+03  0.55332497791E+02  0.29759749586E+02  0.49635186459E+03  0.91269902480E+02 0.  0.
        -11    1    4    4    0    0  0.14238340528E+03  0.14327874083E+02 -0.32796387823E+02  0.14681255099E+03  0.00000000000E+00 0.  1.
         11    1    4    4    0    0  0.34144264856E+03  0.41004623708E+02  0.62556137409E+02  0.34953931359E+03  0.00000000000E+00 0. -1.
        -15    1    3    3    0    0 -0.34619776352E+03 -0.35030685169E+02 -0.77611090579E+02  0.35652023713E+03  0.17770000000E+01 0.  1.
         15    1    3    3    0    0 -0.13762829031E+03 -0.20301812622E+02  0.47851340993E+02  0.14712789829E+03  0.17770000000E+01 0.  1.
</event>
<event>
 8    1  0.2370702E-007  0.5037527E+03  0.7546771E-02  0.9391452E-01
        -11   -1    0    0    0    0  0.00000000000E+00  0.00000000000E+00  0.50000000000E+03  0.50000000000E+03  0.00000000000E+00 0.  1.
         11   -1    0    0    0    0 -0.00000000000E+00 -0.00000000000E+00 -0.50000000000E+03  0.50000000000E+03  0.00000000000E+00 0. -1.
         25    2    1    2    0    0 -0.24654231009E+03 -0.20740627013E+03 -0.36652594517E+03  0.50375271949E+03  0.12500024942E+03 0.  0.
         23    2    1    2    0    0  0.24654231009E+03  0.20740627013E+03  0.36652594517E+03  0.49624728051E+03  0.90108952829E+02 0.  0.
        -11    1    4    4    0    0  0.14561705938E+03  0.78916406045E+02  0.13954050284E+03  0.21657257226E+03  0.00000000000E+00 0. -1.
         11    1    4    4    0    0  0.10092525072E+03  0.12848986408E+03  0.22698544233E+03  0.27967470825E+03  0.00000000000E+00 0.  1.
        -15    1    3    3    0    0 -0.17971157586E+03 -0.19238919787E+03 -0.34060467987E+03  0.43049339093E+03  0.17770000000E+01 0. -1.
         15    1    3    3    0    0 -0.66830734231E+02 -0.15017072256E+02 -0.25921265301E+02  0.73259328558E+02  0.17770000000E+01 0. -1.
</event>
<event>
 8    1  0.2370702E-007  0.5036688E+03  0.7546771E-02  0.9391638E-01
        -11   -1    0    0    0    0  0.00000000000E+00  0.00000000000E+00  0.50000000000E+03  0.50000000000E+03  0.00000000000E+00 0.  1.
         11   -1    0    0    0    0 -0.00000000000E+00 -0.00000000000E+00 -0.50000000000E+03  0.50000000000E+03  0.00000000000E+00 0. -1.
         25    2    1    2    0    0 -0.47385421169E+03 -0.11610108816E+03  0.63628475886E+01  0.50366876790E+03  0.12499786125E+03 0.  0.
         23    2    1    2    0    0  0.47385421169E+03  0.11610108816E+03 -0.63628475886E+01  0.49633123210E+03  0.91032573991E+02 0.  0.
        -11    1    4    4    0    0  0.40619405418E+03  0.12868009548E+03 -0.18308815169E+02  0.42648257800E+03  0.00000000000E+00 0.  1.
         11    1    4    4    0    0  0.67660157504E+02 -0.12579007317E+02  0.11945967581E+02  0.69848654103E+02  0.00000000000E+00 0. -1.
        -15    1    3    3    0    0 -0.16280707859E+03 -0.62452818960E+02  0.58109035554E+02  0.18381054697E+03  0.17770000000E+01 0. -1.
         15    1    3    3    0    0 -0.31104713310E+03 -0.53648269204E+02 -0.51746187965E+02  0.31985822093E+03  0.17770000000E+01 0. -1.
</event>
<event>
 8    1  0.2370702E-007  0.5036605E+03  0.7546771E-02  0.9391656E-01
        -11   -1    0    0    0    0  0.00000000000E+00  0.00000000000E+00  0.50000000000E+03  0.50000000000E+03  0.00000000000E+00 0. -1.
         11   -1    0    0    0    0 -0.00000000000E+00 -0.00000000000E+00 -0.50000000000E+03  0.50000000000E+03  0.00000000000E+00 0.  1.
         25    2    1    2    0    0 -0.42822415676E+03 -0.25975884516E+01 -0.23381221399E+03  0.50366053387E+03  0.12499242403E+03 0.  0.
         23    2    1    2    0    0  0.42822415676E+03  0.25975884516E+01  0.23381221399E+03  0.49633946613E+03  0.91115521854E+02 0.  0.
        -11    1    4    4    0    0  0.29265006611E+03 -0.28395278164E+02  0.19183335900E+03  0.35107034998E+03  0.00000000000E+00 0. -1.
         11    1    4    4    0    0  0.13557409066E+03  0.30992866616E+02  0.41978854997E+02  0.14526911615E+03  0.00000000000E+00 0.  1.
        -15    1    3    3    0    0 -0.15207362935E+03 -0.89962028687E+00 -0.15343804503E+03  0.21604071249E+03  0.17770000000E+01 0. -1.
         15    1    3    3    0    0 -0.27615052741E+03 -0.16979681647E+01 -0.80374168959E+02  0.28761982138E+03  0.17770000000E+01 0. -1.
</event>
<event>
 8    1  0.2370702E-007  0.5034554E+03  0.7546771E-02  0.9392111E-01
        -11   -1    0    0    0    0  0.00000000000E+00  0.00000000000E+00  0.50000000000E+03  0.50000000000E+03  0.00000000000E+00 0.  1.
         11   -1    0    0    0    0 -0.00000000000E+00 -0.00000000000E+00 -0.50000000000E+03  0.50000000000E+03  0.00000000000E+00 0. -1.
         25    2    1    2    0    0 -0.92250565900E+02  0.47865059995E+03 -0.15012987947E+02  0.50345541967E+03  0.12500162416E+03 0.  0.
         23    2    1    2    0    0  0.92250565900E+02 -0.47865059995E+03  0.15012987947E+02  0.49654458033E+03  0.93351843627E+02 0.  0.
        -11    1    4    4    0    0 -0.17501441052E+02 -0.63471490494E+02  0.12936183716E+02  0.67098996964E+02  0.00000000000E+00 0.  1.
         11    1    4    4    0    0  0.10975200695E+03 -0.41517910946E+03  0.20768042311E+01  0.42944558337E+03  0.00000000000E+00 0. -1.
        -15    1    3    3    0    0 -0.10869177404E+02  0.21355582545E+03  0.47806327076E+02  0.21911830649E+03  0.17770000000E+01 0. -1.
         15    1    3    3    0    0 -0.81381388497E+02  0.26509477450E+03 -0.62819315023E+02  0.28433711318E+03  0.17770000000E+01 0. -1.
</event>
<event>
 8    1  0.2370702E-007  0.5036139E+03  0.7546771E-02  0.9391759E-01
        -11   -1    0    0    0    0  0.00000000000E+00  0.00000000000E+00  0.50000000000E+03  0.50000000000E+03  0.00000000000E+00 0. -1.
         11   -1    0    0    0    0 -0.00000000000E+00 -0.00000000000E+00 -0.50000000000E+03  0.50000000000E+03  0.00000000000E+00 0.  1.
         25    2    1    2    0    0  0.61203083291E+02 -0.42508507571E+03  0.23143837232E+03  0.50361394354E+03  0.12498057829E+03 0.  0.
         23    2    1    2    0    0 -0.61203083291E+02  0.42508507571E+03 -0.23143837232E+03  0.49638605646E+03  0.91609267419E+02 0.  0.
        -11    1    4    4    0    0 -0.81443450036E+02  0.25572967545E+03 -0.13447789432E+03  0.30019161634E+03  0.00000000000E+00 0.  1.
         11    1    4    4    0    0  0.20240366744E+02  0.16935540025E+03 -0.96960478001E+02  0.19619444012E+03  0.00000000000E+00 0. -1.
        -15    1    3    3    0    0  0.99331007553E+02 -0.27411896520E+03  0.15029830124E+03  0.32802529358E+03  0.17770000000E+01 0. -1.
         15    1    3    3    0    0 -0.38127924262E+02 -0.15096611051E+03  0.81140071078E+02  0.17558864996E+03  0.17770000000E+01 0. -1.
</event>
<event>
 8    1  0.2370702E-007  0.5033545E+03  0.7546771E-02  0.9392335E-01
        -11   -1    0    0    0    0  0.00000000000E+00  0.00000000000E+00  0.50000000000E+03  0.50000000000E+03  0.00000000000E+00 0.  1.
         11   -1    0    0    0    0 -0.00000000000E+00 -0.00000000000E+00 -0.50000000000E+03  0.50000000000E+03  0.00000000000E+00 0. -1.
         25    2    1    2    0    0 -0.83796821500E+02  0.23943615131E+03 -0.41640123207E+03  0.50335454561E+03  0.12499693864E+03 0.  0.
         23    2    1    2    0    0  0.83796821500E+02 -0.23943615131E+03  0.41640123207E+03  0.49664545439E+03  0.94420037295E+02 0.  0.
        -11    1    4    4    0    0  0.44059764221E+02 -0.40596261843E+02  0.50674394281E+02  0.78467914045E+02  0.00000000000E+00 0.  1.
         11    1    4    4    0    0  0.39737057279E+02 -0.19883988947E+03  0.36572683779E+03  0.41817754034E+03  0.00000000000E+00 0. -1.
        -15    1    3    3    0    0 -0.42920501471E+02  0.18284491658E+02 -0.27724859868E+02  0.54298413102E+02  0.17770000000E+01 0. -1.
         15    1    3    3    0    0 -0.40876320029E+02  0.22115165965E+03 -0.38867637221E+03  0.44905613251E+03  0.17770000000E+01 0. -1.
</event>
<event>
 8    1  0.2370702E-007  0.5036911E+03  0.7546771E-02  0.9391588E-01
        -11   -1    0    0    0    0  0.00000000000E+00  0.00000000000E+00  0.50000000000E+03  0.50000000000E+03  0.00000000000E+00 0.  1.
         11   -1    0    0    0    0 -0.00000000000E+00 -0.00000000000E+00 -0.50000000000E+03  0.50000000000E+03  0.00000000000E+00 0. -1.
         25    2    1    2    0    0  0.17010999337E+03  0.44370133779E+03 -0.11077674861E+03  0.50369105152E+03  0.12499960138E+03 0.  0.
         23    2    1    2    0    0 -0.17010999337E+03 -0.44370133779E+03  0.11077674861E+03  0.49630894848E+03  0.90789852457E+02 0.  0.
        -11    1    4    4    0    0 -0.15386748114E+03 -0.29471108726E+03  0.58420379999E+02  0.33755409567E+03  0.00000000000E+00 0. -1.
         11    1    4    4    0    0 -0.16242512234E+02 -0.14899025053E+03  0.52356368608E+02  0.15875485281E+03  0.00000000000E+00 0.  1.
        -15    1    3    3    0    0  0.11854446428E+03  0.19832143677E+03 -0.38253524766E+01  0.23108866987E+03  0.17770000000E+01 0.  1.
         15    1    3    3    0    0  0.51565529099E+02  0.24537990102E+03 -0.10695139613E+03  0.27260238165E+03  0.17770000000E+01 0.  1.
</event>
<event>
 8    1  0.2370702E-007  0.5038780E+03  0.7546771E-02  0.9391174E-01
        -11   -1    0    0    0    0  0.00000000000E+00  0.00000000000E+00  0.50000000000E+03  0.50000000000E+03  0.00000000000E+00 0.  1.
         11   -1    0    0    0    0 -0.00000000000E+00 -0.00000000000E+00 -0.50000000000E+03  0.50000000000E+03  0.00000000000E+00 0. -1.
         25    2    1    2    0    0 -0.17412076262E+03  0.33449769320E+03  0.30993790899E+03  0.50387800302E+03  0.12499915108E+03 0.  0.
         23    2    1    2    0    0  0.17412076262E+03 -0.33449769320E+03 -0.30993790899E+03  0.49612199698E+03  0.88706153834E+02 0.  0.
        -11    1    4    4    0    0  0.10600477667E+03 -0.11045133197E+03 -0.11616838798E+03  0.19217597086E+03  0.00000000000E+00 0.  1.
         11    1    4    4    0    0  0.68115985954E+02 -0.22404636122E+03 -0.19376952101E+03  0.30394602612E+03  0.00000000000E+00 0. -1.
        -15    1    3    3    0    0 -0.13672304050E+03  0.31170727592E+03  0.22418926688E+03  0.40757649685E+03  0.17770000000E+01 0. -1.
         15    1    3    3    0    0 -0.37397722119E+02  0.22790417272E+02  0.85748642106E+02  0.96301506173E+02  0.17770000000E+01 0. -1.
</event>
<event>
 8    1  0.2370702E-007  0.5037337E+03  0.7546771E-02  0.9391494E-01
        -11   -1    0    0    0    0  0.00000000000E+00  0.00000000000E+00  0.50000000000E+03  0.50000000000E+03  0.00000000000E+00 0. -1.
         11   -1    0    0    0    0 -0.00000000000E+00 -0.00000000000E+00 -0.50000000000E+03  0.50000000000E+03  0.00000000000E+00 0.  1.
         25    2    1    2    0    0 -0.38027802165E+03  0.82961270233E+02  0.29432947150E+03  0.50373372531E+03  0.12499552836E+03 0.  0.
         23    2    1    2    0    0  0.38027802165E+03 -0.82961270233E+02 -0.29432947150E+03  0.49626627469E+03  0.90312964175E+02 0.  0.
        -11    1    4    4    0    0  0.17874626382E+03  0.48306965694E+01 -0.14890189567E+03  0.23269150606E+03  0.00000000000E+00 0.  1.
         11    1    4    4    0    0  0.20153175783E+03 -0.87791966802E+02 -0.14542757584E+03  0.26357476863E+03  0.00000000000E+00 0. -1.
        -15    1    3    3    0    0  0.22534030783E+01  0.16475253877E+02  0.28959082323E+02  0.33440962812E+02  0.17770000000E+01 0. -1.
         15    1    3    3    0    0 -0.38253142472E+03  0.66486016356E+02  0.26537038918E+03  0.47029276249E+03  0.17770000000E+01 0. -1.
</event>
<event>
 8    1  0.2370702E-007  0.5032657E+03  0.7546771E-02  0.9392532E-01
        -11   -1    0    0    0    0  0.00000000000E+00  0.00000000000E+00  0.50000000000E+03  0.50000000000E+03  0.00000000000E+00 0. -1.
         11   -1    0    0    0    0 -0.00000000000E+00 -0.00000000000E+00 -0.50000000000E+03  0.50000000000E+03  0.00000000000E+00 0.  1.
         25    2    1    2    0    0  0.13878002602E+03  0.46479771280E+03 -0.48505438073E+02  0.50326568241E+03  0.12500704030E+03 0.  0.
         23    2    1    2    0    0 -0.13878002602E+03 -0.46479771280E+03  0.48505438073E+02  0.49673431759E+03  0.95369781881E+02 0.  0.
        -11    1    4    4    0    0 -0.57706248148E+02 -0.83026318827E+02  0.32179763713E+02  0.10610804817E+03  0.00000000000E+00 0.  1.
         11    1    4    4    0    0 -0.81073777876E+02 -0.38177139397E+03  0.16325674360E+02  0.39062626942E+03  0.00000000000E+00 0. -1.
        -15    1    3    3    0    0  0.64811663342E+02  0.69272347949E+02  0.14480764820E+02  0.95979477881E+02  0.17770000000E+01 0.  1.
         15    1    3    3    0    0  0.73968362682E+02  0.39552536485E+03 -0.62986202893E+02  0.40728620453E+03  0.17770000000E+01 0.  1.
</event>
<event>
 8    1  0.2370702E-007  0.5035123E+03  0.7546771E-02  0.9391985E-01
        -11   -1    0    0    0    0  0.00000000000E+00  0.00000000000E+00  0.50000000000E+03  0.50000000000E+03  0.00000000000E+00 0.  1.
         11   -1    0    0    0    0 -0.00000000000E+00 -0.00000000000E+00 -0.50000000000E+03  0.50000000000E+03  0.00000000000E+00 0. -1.
         25    2    1    2    0    0 -0.13519234350E+03  0.41134067020E+03  0.22455268771E+03  0.50351234532E+03  0.12499062215E+03 0.  0.
         23    2    1    2    0    0  0.13519234350E+03 -0.41134067020E+03 -0.22455268771E+03  0.49648765468E+03  0.92725212248E+02 0.  0.
        -11    1    4    4    0    0  0.81188646088E+02 -0.33104938243E+03 -0.14185019460E+03  0.36919746419E+03  0.00000000000E+00 0.  1.
         11    1    4    4    0    0  0.54003697410E+02 -0.80291287775E+02 -0.82702493114E+02  0.12729019049E+03  0.00000000000E+00 0. -1.
        -15    1    3    3    0    0  0.13027160845E+02 -0.31701702362E-01  0.38075300257E+01  0.13688058247E+02  0.17770000000E+01 0.  1.
         15    1    3    3    0    0 -0.14821950434E+03  0.41137237191E+03  0.22074515769E+03  0.48982428707E+03  0.17770000000E+01 0.  1.
</event>
<event>
 8    1  0.2370702E-007  0.5033934E+03  0.7546771E-02  0.9392249E-01
        -11   -1    0    0    0    0  0.00000000000E+00  0.00000000000E+00  0.50000000000E+03  0.50000000000E+03  0.00000000000E+00 0. -1.
         11   -1    0    0    0    0 -0.00000000000E+00 -0.00000000000E+00 -0.50000000000E+03  0.50000000000E+03  0.00000000000E+00 0.  1.
         25    2    1    2    0    0  0.34195408124E+03 -0.30724747507E+03  0.16262322151E+03  0.50339338820E+03  0.12499994598E+03 0.  0.
         23    2    1    2    0    0 -0.34195408124E+03  0.30724747507E+03 -0.16262322151E+03  0.49660661180E+03  0.94011755118E+02 0.  0.
        -11    1    4    4    0    0 -0.30230369057E+03  0.22162399182E+03 -0.12779494938E+03  0.39602558524E+03  0.00000000000E+00 0.  1.
         11    1    4    4    0    0 -0.39650390671E+02  0.85623483251E+02 -0.34828272125E+02  0.10058102656E+03  0.00000000000E+00 0. -1.
        -15    1    3    3    0    0  0.24426085227E+03 -0.23758080635E+03  0.61053939292E+02  0.34617733134E+03  0.17770000000E+01 0.  1.
         15    1    3    3    0    0  0.97693228966E+02 -0.69666668720E+02  0.10156928222E+03  0.15721605686E+03  0.17770000000E+01 0.  1.
</event>
<event>
 8    1  0.2370702E-007  0.5044273E+03  0.7546771E-02  0.9389958E-01
        -11   -1    0    0    0    0  0.00000000000E+00  0.00000000000E+00  0.50000000000E+03  0.50000000000E+03  0.00000000000E+00 0.  1.
         11   -1    0    0    0    0 -0.00000000000E+00 -0.00000000000E+00 -0.50000000000E+03  0.50000000000E+03  0.00000000000E+00 0. -1.
         25    2    1    2    0    0 -0.16318448939E+03 -0.20335860785E+03  0.41332589024E+03  0.50442725110E+03  0.12499863658E+03 0.  0.
         23    2    1    2    0    0  0.16318448939E+03  0.20335860785E+03 -0.41332589024E+03  0.49557274890E+03  0.82280963451E+02 0.  0.
        -11    1    4    4    0    0  0.15148851138E+03  0.19791878361E+03 -0.34253576073E+03  0.42361699844E+03  0.00000000000E+00 0.  1.
         11    1    4    4    0    0  0.11695978016E+02  0.54398242453E+01 -0.70790129505E+02  0.71955750465E+02  0.00000000000E+00 0. -1.
        -15    1    3    3    0    0 -0.17576655191E+03 -0.20528370120E+03  0.41015840289E+03  0.49119074904E+03  0.17770000000E+01 0. -1.
         15    1    3    3    0    0  0.12582062520E+02  0.19250933525E+01  0.31674873439E+01  0.13236502058E+02  0.17770000000E+01 0. -1.
</event>
<event>
 8    1  0.2370702E-007  0.5038461E+03  0.7546771E-02  0.9391245E-01
        -11   -1    0    0    0    0  0.00000000000E+00  0.00000000000E+00  0.50000000000E+03  0.50000000000E+03  0.00000000000E+00 0. -1.
         11   -1    0    0    0    0 -0.00000000000E+00 -0.00000000000E+00 -0.50000000000E+03  0.50000000000E+03  0.00000000000E+00 0.  1.
         25    2    1    2    0    0 -0.24038950623E+03  0.88796305249E+02 -0.41540840447E+03  0.50384614156E+03  0.12499957331E+03 0.  0.
         23    2    1    2    0    0  0.24038950623E+03 -0.88796305249E+02  0.41540840447E+03  0.49615385844E+03  0.89065202030E+02 0.  0.
        -11    1    4    4    0    0  0.11344405946E+03 -0.89113865072E+02  0.21436737180E+03  0.25838770417E+03  0.00000000000E+00 0.  1.
         11    1    4    4    0    0  0.12694544677E+03  0.31755982344E+00  0.20104103267E+03  0.23776615427E+03  0.00000000000E+00 0. -1.
        -15    1    3    3    0    0 -0.27441940908E+02  0.53605308321E+02 -0.15067343109E+03  0.16227208560E+03  0.17770000000E+01 0.  1.
         15    1    3    3    0    0 -0.21294756532E+03  0.35190996927E+02 -0.26473497338E+03  0.34157405595E+03  0.17770000000E+01 0.  1.
</event>
<event>
 8    1  0.2370702E-007  0.5036480E+03  0.7546771E-02  0.9391684E-01
        -11   -1    0    0    0    0  0.00000000000E+00  0.00000000000E+00  0.50000000000E+03  0.50000000000E+03  0.00000000000E+00 0.  1.
         11   -1    0    0    0    0 -0.00000000000E+00 -0.00000000000E+00 -0.50000000000E+03  0.50000000000E+03  0.00000000000E+00 0. -1.
         25    2    1    2    0    0  0.43531697186E+03 -0.13029384739E+02  0.21992105002E+03  0.50364796133E+03  0.12500147941E+03 0.  0.
         23    2    1    2    0    0 -0.43531697186E+03  0.13029384739E+02 -0.21992105002E+03  0.49635203867E+03  0.91265805215E+02 0.  0.
        -11    1    4    4    0    0 -0.20981014112E+03 -0.11030298514E+02 -0.58849618708E+02  0.21818625168E+03  0.00000000000E+00 0.  1.
         11    1    4    4    0    0 -0.22550683074E+03  0.24059683253E+02 -0.16107143131E+03  0.27816578699E+03  0.00000000000E+00 0. -1.
        -15    1    3    3    0    0  0.16949090590E+03 -0.11248869304E+02  0.15508453935E+03  0.23001755654E+03  0.17770000000E+01 0.  1.
         15    1    3    3    0    0  0.26582606596E+03 -0.17805154345E+01  0.64836510668E+02  0.27363040479E+03  0.17770000000E+01 0.  1.
</event>
<event>
 8    1  0.2370702E-007  0.5038091E+03  0.7546771E-02  0.9391327E-01
        -11   -1    0    0    0    0  0.00000000000E+00  0.00000000000E+00  0.50000000000E+03  0.50000000000E+03  0.00000000000E+00 0. -1.
         11   -1    0    0    0    0 -0.00000000000E+00 -0.00000000000E+00 -0.50000000000E+03  0.50000000000E+03  0.00000000000E+00 0.  1.
         25    2    1    2    0    0  0.36485495934E+03  0.14659349825E+03 -0.28912116574E+03  0.50380914702E+03  0.12499525211E+03 0.  0.
         23    2    1    2    0    0 -0.36485495934E+03 -0.14659349825E+03  0.28912116574E+03  0.49619085298E+03  0.89473566036E+02 0.  0.
        -11    1    4    4    0    0 -0.26370988103E+03 -0.14483890912E+03  0.19913424377E+03  0.36079863912E+03  0.00000000000E+00 0.  1.
         11    1    4    4    0    0 -0.10114507831E+03 -0.17545891328E+01  0.89986921969E+02  0.13539221387E+03  0.00000000000E+00 0. -1.
        -15    1    3    3    0    0  0.48494059604E+02  0.19882361766E+02 -0.10280075337E+03  0.11540422327E+03  0.17770000000E+01 0.  1.
         15    1    3    3    0    0  0.31636089974E+03  0.12671113648E+03 -0.18632041237E+03  0.38840492374E+03  0.17770000000E+01 0.  1.
</event>
<event>
 8    1  0.2370702E-007  0.5037339E+03  0.7546771E-02  0.9391493E-01
        -11   -1    0    0    0    0  0.00000000000E+00  0.00000000000E+00  0.50000000000E+03  0.50000000000E+03  0.00000000000E+00 0. -1.
         11   -1    0    0    0    0 -0.00000000000E+00 -0.00000000000E+00 -0.50000000000E+03  0.50000000000E+03  0.00000000000E+00 0.  1.
         25    2    1    2    0    0 -0.37929528710E+03  0.23048652443E+03 -0.20281519319E+03  0.50373389269E+03  0.12499951718E+03 0.  0.
         23    2    1    2    0    0  0.37929528710E+03 -0.23048652443E+03  0.20281519319E+03  0.49626610731E+03  0.90316631463E+02 0.  0.
        -11    1    4    4    0    0  0.15280382074E+03 -0.90754398108E+02  0.13049890007E+03  0.22048884626E+03  0.00000000000E+00 0. -1.
         11    1    4    4    0    0  0.22649146636E+03 -0.13973212632E+03  0.72316293125E+02  0.27577726105E+03  0.00000000000E+00 0.  1.
        -15    1    3    3    0    0 -0.94410244787E+02  0.12035513561E+03 -0.93699586353E+02  0.17939181475E+03  0.17770000000E+01 0. -1.
         15    1    3    3    0    0 -0.28488504231E+03  0.11013138882E+03 -0.10911560684E+03  0.32434207794E+03  0.17770000000E+01 0. -1.
</event>
<event>
 8    1  0.2370702E-007  0.5035103E+03  0.7546771E-02  0.9391989E-01
        -11   -1    0    0    0    0  0.00000000000E+00  0.00000000000E+00  0.50000000000E+03  0.50000000000E+03  0.00000000000E+00 0. -1.
         11   -1    0    0    0    0 -0.00000000000E+00 -0.00000000000E+00 -0.50000000000E+03  0.50000000000E+03  0.00000000000E+00 0.  1.
         25    2    1    2    0    0  0.33691581396E+03  0.34681395227E+03 -0.64071016362E+02  0.50351027636E+03  0.12500128027E+03 0.  0.
         23    2    1    2    0    0 -0.33691581396E+03 -0.34681395227E+03  0.64071016362E+02  0.49648972364E+03  0.92761885258E+02 0.  0.
        -11    1    4    4    0    0 -0.10518437077E+02 -0.10520585061E+02 -0.15107487340E+02  0.21202745160E+02  0.00000000000E+00 0.  1.
         11    1    4    4    0    0 -0.32639737688E+03 -0.33629336721E+03  0.79178503701E+02  0.47528697848E+03  0.00000000000E+00 0. -1.
        -15    1    3    3    0    0  0.12573114904E+03  0.20000638674E+03 -0.69457296860E+02  0.24624855409E+03  0.17770000000E+01 0.  1.
         15    1    3    3    0    0  0.21118466492E+03  0.14680756553E+03  0.53862804984E+01  0.25726172226E+03  0.17770000000E+01 0.  1.
</event>
<event>
 8    1  0.2370702E-007  0.5037719E+03  0.7546771E-02  0.9391409E-01
        -11   -1    0    0    0    0  0.00000000000E+00  0.00000000000E+00  0.50000000000E+03  0.50000000000E+03  0.00000000000E+00 0. -1.
         11   -1    0    0    0    0 -0.00000000000E+00 -0.00000000000E+00 -0.50000000000E+03  0.50000000000E+03  0.00000000000E+00 0.  1.
         25    2    1    2    0    0 -0.63215219621E+02 -0.35595623148E+02 -0.48259525796E+03  0.50377194568E+03  0.12499911148E+03 0.  0.
         23    2    1    2    0    0  0.63215219621E+02  0.35595623148E+02  0.48259525796E+03  0.49622805432E+03  0.89893751219E+02 0.  0.
        -11    1    4    4    0    0  0.45684833915E+02  0.65911183643E+02  0.35190600464E+03  0.36092828136E+03  0.00000000000E+00 0. -1.
         11    1    4    4    0    0  0.17530385705E+02 -0.30315560494E+02  0.13068925332E+03  0.13529977296E+03  0.00000000000E+00 0.  1.
        -15    1    3    3    0    0 -0.86675897550E+02 -0.25517044076E+02 -0.19369319484E+03  0.21373825631E+03  0.17770000000E+01 0. -1.
         15    1    3    3    0    0  0.23460677929E+02 -0.10078579073E+02 -0.28890206312E+03  0.29003368937E+03  0.17770000000E+01 0. -1.
</event>
<event>
 8    1  0.2370702E-007  0.5037555E+03  0.7546771E-02  0.9391445E-01
        -11   -1    0    0    0    0  0.00000000000E+00  0.00000000000E+00  0.50000000000E+03  0.50000000000E+03  0.00000000000E+00 0. -1.
         11   -1    0    0    0    0 -0.00000000000E+00 -0.00000000000E+00 -0.50000000000E+03  0.50000000000E+03  0.00000000000E+00 0.  1.
         25    2    1    2    0    0  0.33523817531E+03  0.35450136540E+03 -0.96011649233E+01  0.50375551077E+03  0.12498631930E+03 0.  0.
         23    2    1    2    0    0 -0.33523817531E+03 -0.35450136540E+03  0.96011649233E+01  0.49624448923E+03  0.90058639024E+02 0.  0.
        -11    1    4    4    0    0 -0.23722867843E+03 -0.30438495821E+03  0.22220156345E+01  0.38591784878E+03  0.00000000000E+00 0.  1.
         11    1    4    4    0    0 -0.98009496874E+02 -0.50116407197E+02  0.73791492888E+01  0.11032664045E+03  0.00000000000E+00 0. -1.
        -15    1    3    3    0    0  0.59613340597E+02  0.12442773783E+02 -0.20642609468E+02  0.64326107073E+02  0.17770000000E+01 0. -1.
         15    1    3    3    0    0  0.27562483471E+03  0.34205859162E+03  0.11041444545E+02  0.43942940370E+03  0.17770000000E+01 0. -1.
</event>
<event>
 8    1  0.2370702E-007  0.5033161E+03  0.7546771E-02  0.9392420E-01
        -11   -1    0    0    0    0  0.00000000000E+00  0.00000000000E+00  0.50000000000E+03  0.50000000000E+03  0.00000000000E+00 0.  1.
         11   -1    0    0    0    0 -0.00000000000E+00 -0.00000000000E+00 -0.50000000000E+03  0.50000000000E+03  0.00000000000E+00 0. -1.
         25    2    1    2    0    0  0.41364294397E+03 -0.18037618965E+03 -0.18456694968E+03  0.50331609784E+03  0.12500432209E+03 0.  0.
         23    2    1    2    0    0 -0.41364294397E+03  0.18037618965E+03  0.18456694968E+03  0.49668390216E+03  0.94836094698E+02 0.  0.
        -11    1    4    4    0    0 -0.11611086372E+03  0.22595440987E+02  0.84440999666E+02  0.14533605558E+03  0.00000000000E+00 0.  1.
         11    1    4    4    0    0 -0.29753208025E+03  0.15778074867E+03  0.10012595001E+03  0.35134784658E+03  0.00000000000E+00 0. -1.
        -15    1    3    3    0    0  0.73784453404E+02  0.15568539348E+02 -0.21159125961E+02  0.78341504466E+02  0.17770000000E+01 0.  1.
         15    1    3    3    0    0  0.33985849057E+03 -0.19594472900E+03 -0.16340782372E+03  0.42497459338E+03  0.17770000000E+01 0.  1.
</event>
<event>
 8    1  0.2370702E-007  0.5036183E+03  0.7546771E-02  0.9391750E-01
        -11   -1    0    0    0    0  0.00000000000E+00  0.00000000000E+00  0.50000000000E+03  0.50000000000E+03  0.00000000000E+00 0. -1.
         11   -1    0    0    0    0 -0.00000000000E+00 -0.00000000000E+00 -0.50000000000E+03  0.50000000000E+03  0.00000000000E+00 0.  1.
         25    2    1    2    0    0 -0.43246764784E+03  0.22372051014E+03  0.30432746579E+02  0.50361830532E+03  0.12500444912E+03 0.  0.
         23    2    1    2    0    0  0.43246764784E+03 -0.22372051014E+03 -0.30432746579E+02  0.49638169468E+03  0.91594222864E+02 0.  0.
        -11    1    4    4    0    0  0.28450849344E+03 -0.17615229127E+03 -0.54742214831E+02  0.33907436153E+03  0.00000000000E+00 0.  1.
         11    1    4    4    0    0  0.14795915440E+03 -0.47568218872E+02  0.24309468252E+02  0.15730733315E+03  0.00000000000E+00 0. -1.
        -15    1    3    3    0    0 -0.94652587344E+02  0.75036203722E+01  0.38437389604E+02  0.10245002322E+03  0.17770000000E+01 0.  1.
         15    1    3    3    0    0 -0.33781506050E+03  0.21621688977E+03 -0.80046430254E+01  0.40116828210E+03  0.17770000000E+01 0.  1.
</event>
<event>
 8    1  0.2370702E-007  0.5036395E+03  0.7546771E-02  0.9391703E-01
        -11   -1    0    0    0    0  0.00000000000E+00  0.00000000000E+00  0.50000000000E+03  0.50000000000E+03  0.00000000000E+00 0. -1.
         11   -1    0    0    0    0 -0.00000000000E+00 -0.00000000000E+00 -0.50000000000E+03  0.50000000000E+03  0.00000000000E+00 0.  1.
         25    2    1    2    0    0  0.41908450457E+03  0.10588695672E+03 -0.22623756653E+03  0.50363950501E+03  0.12500177969E+03 0.  0.
         23    2    1    2    0    0 -0.41908450457E+03 -0.10588695672E+03  0.22623756653E+03  0.49636049499E+03  0.91358825020E+02 0.  0.
        -11    1    4    4    0    0 -0.36386113899E+03 -0.83635631384E+02  0.22676472330E+03  0.43682042883E+03  0.00000000000E+00 0. -1.
         11    1    4    4    0    0 -0.55223365575E+02 -0.22251325335E+02 -0.52715677753E+00  0.59540066164E+02  0.00000000000E+00 0.  1.
        -15    1    3    3    0    0  0.29676500136E+03  0.67681533530E+02 -0.91868064789E+02  0.31795149799E+03  0.17770000000E+01 0. -1.
         15    1    3    3    0    0  0.12231950320E+03  0.38205423188E+02 -0.13436950174E+03  0.18568800702E+03  0.17770000000E+01 0. -1.
</event>
<event>
 8    1  0.2370702E-007  0.5036756E+03  0.7546771E-02  0.9391623E-01
        -11   -1    0    0    0    0  0.00000000000E+00  0.00000000000E+00  0.50000000000E+03  0.50000000000E+03  0.00000000000E+00 0.  1.
         11   -1    0    0    0    0 -0.00000000000E+00 -0.00000000000E+00 -0.50000000000E+03  0.50000000000E+03  0.00000000000E+00 0. -1.
         25    2    1    2    0    0 -0.30052611503E+03 -0.16769816295E+03  0.34586764220E+03  0.50367562671E+03  0.12500436533E+03 0.  0.
         23    2    1    2    0    0  0.30052611503E+03  0.16769816295E+03 -0.34586764220E+03  0.49632437329E+03  0.90966136143E+02 0.  0.
        -11    1    4    4    0    0  0.12433842329E+03  0.45882810182E+02 -0.18895343210E+03  0.23080007643E+03  0.00000000000E+00 0. -1.
         11    1    4    4    0    0  0.17618769174E+03  0.12181535277E+03 -0.15691421010E+03  0.26552429686E+03  0.00000000000E+00 0.  1.
        -15    1    3    3    0    0 -0.14625345331E+03 -0.35869524861E+02  0.84200407818E+02  0.17253858068E+03  0.17770000000E+01 0. -1.
         15    1    3    3    0    0 -0.15427266172E+03 -0.13182863809E+03  0.26166723438E+03  0.33113704603E+03  0.17770000000E+01 0. -1.
</event>
<event>
 8    1  0.2370702E-007  0.5034803E+03  0.7546771E-02  0.9392056E-01
        -11   -1    0    0    0    0  0.00000000000E+00  0.00000000000E+00  0.50000000000E+03  0.50000000000E+03  0.00000000000E+00 0. -1.
         11   -1    0    0    0    0 -0.00000000000E+00 -0.00000000000E+00 -0.50000000000E+03  0.50000000000E+03  0.00000000000E+00 0.  1.
         25    2    1    2    0    0 -0.10429280856E+01 -0.48757643263E+03  0.11616026426E+02  0.50348028382E+03  0.12500239504E+03 0.  0.
         23    2    1    2    0    0  0.10429280856E+01  0.48757643263E+03 -0.11616026426E+02  0.49651971618E+03  0.93086148983E+02 0.  0.
        -11    1    4    4    0    0  0.28078616086E+02  0.37978018848E+03 -0.36725619866E+02  0.38258354826E+03  0.00000000000E+00 0.  1.
         11    1    4    4    0    0 -0.27035688001E+02  0.10779624415E+03  0.25109593440E+02  0.11393616793E+03  0.00000000000E+00 0. -1.
        -15    1    3    3    0    0  0.20254142195E+02 -0.32230444745E+02  0.28080096209E+02  0.47335836072E+02  0.17770000000E+01 0. -1.
         15    1    3    3    0    0 -0.21297070281E+02 -0.45534598789E+03 -0.16464069783E+02  0.45614444775E+03  0.17770000000E+01 0. -1.
</event>
<event>
 8    1  0.2370702E-007  0.5037518E+03  0.7546771E-02  0.9391454E-01
        -11   -1    0    0    0    0  0.00000000000E+00  0.00000000000E+00  0.50000000000E+03  0.50000000000E+03  0.00000000000E+00 0.  1.
         11   -1    0    0    0    0 -0.00000000000E+00 -0.00000000000E+00 -0.50000000000E+03  0.50000000000E+03  0.00000000000E+00 0. -1.
         25    2    1    2    0    0  0.64917706706E+02  0.46698587083E+03 -0.12589997072E+03  0.50375175538E+03  0.12499966490E+03 0.  0.
         23    2    1    2    0    0 -0.64917706706E+02 -0.46698587083E+03  0.12589997072E+03  0.49624824462E+03  0.90118840756E+02 0.  0.
        -11    1    4    4    0    0 -0.46099021357E+02 -0.43958995082E+03  0.13432440398E+03  0.46196048547E+03  0.00000000000E+00 0. -1.
         11    1    4    4    0    0 -0.18818685349E+02 -0.27395920007E+02 -0.84244332598E+01  0.34287759142E+02  0.00000000000E+00 0.  1.
        -15    1    3    3    0    0  0.33555952924E+02  0.39936799499E+03 -0.61977775678E+02  0.40554309242E+03  0.17770000000E+01 0.  1.
         15    1    3    3    0    0  0.31361753782E+02  0.67617875837E+02 -0.63922195044E+02  0.98208662964E+02  0.17770000000E+01 0.  1.
</event>
<event>
 8    1  0.2370702E-007  0.5037690E+03  0.7546771E-02  0.9391415E-01
        -11   -1    0    0    0    0  0.00000000000E+00  0.00000000000E+00  0.50000000000E+03  0.50000000000E+03  0.00000000000E+00 0.  1.
         11   -1    0    0    0    0 -0.00000000000E+00 -0.00000000000E+00 -0.50000000000E+03  0.50000000000E+03  0.00000000000E+00 0. -1.
         25    2    1    2    0    0 -0.17292173678E+03 -0.39329932927E+03 -0.23145433019E+03  0.50376904582E+03  0.12500342037E+03 0.  0.
         23    2    1    2    0    0  0.17292173678E+03  0.39329932927E+03  0.23145433019E+03  0.49623095418E+03  0.89931993586E+02 0.  0.
        -11    1    4    4    0    0  0.27550581407E+02  0.67438800082E+02  0.37422125928E+01  0.72945393600E+02  0.00000000000E+00 0.  1.
         11    1    4    4    0    0  0.14537115537E+03  0.32586052919E+03  0.22771211760E+03  0.42328556058E+03  0.00000000000E+00 0. -1.
        -15    1    3    3    0    0 -0.18929396904E+03 -0.32203852764E+03 -0.20413879331E+03  0.42569569491E+03  0.17770000000E+01 0.  1.
         15    1    3    3    0    0  0.16372232262E+02 -0.71260801624E+02 -0.27315536881E+02  0.78073350905E+02  0.17770000000E+01 0.  1.
</event>
<event>
 8    1  0.2370702E-007  0.5045457E+03  0.7546771E-02  0.9389696E-01
        -11   -1    0    0    0    0  0.00000000000E+00  0.00000000000E+00  0.50000000000E+03  0.50000000000E+03  0.00000000000E+00 0.  1.
         11   -1    0    0    0    0 -0.00000000000E+00 -0.00000000000E+00 -0.50000000000E+03  0.50000000000E+03  0.00000000000E+00 0. -1.
         25    2    1    2    0    0 -0.20798212817E+03 -0.23430971148E+03 -0.37520949125E+03  0.50454566271E+03  0.12500622748E+03 0.  0.
         23    2    1    2    0    0  0.20798212817E+03  0.23430971148E+03  0.37520949125E+03  0.49545433729E+03  0.80840778600E+02 0.  0.
        -11    1    4    4    0    0  0.81511493065E+02  0.93005936499E+02  0.89987975023E+02  0.15294464154E+03  0.00000000000E+00 0. -1.
         11    1    4    4    0    0  0.12647063510E+03  0.14130377498E+03  0.28522151622E+03  0.34250969575E+03  0.00000000000E+00 0.  1.
        -15    1    3    3    0    0 -0.20636164844E+03 -0.20584199693E+03 -0.27640999650E+03  0.40169852071E+03  0.17770000000E+01 0.  1.
         15    1    3    3    0    0 -0.16204797275E+01 -0.28467714550E+02 -0.98799494750E+02  0.10284714200E+03  0.17770000000E+01 0.  1.
</event>
<event>
 8    1  0.2370702E-007  0.5036983E+03  0.7546771E-02  0.9391572E-01
        -11   -1    0    0    0    0  0.00000000000E+00  0.00000000000E+00  0.50000000000E+03  0.50000000000E+03  0.00000000000E+00 0.  1.
         11   -1    0    0    0    0 -0.00000000000E+00 -0.00000000000E+00 -0.50000000000E+03  0.50000000000E+03  0.00000000000E+00 0. -1.
         25    2    1    2    0    0 -0.27878097070E+03  0.32029411078E+03 -0.24037533358E+03  0.50369829975E+03  0.12499811659E+03 0.  0.
         23    2    1    2    0    0  0.27878097070E+03 -0.32029411078E+03  0.24037533358E+03  0.49630170025E+03  0.90707935994E+02 0.  0.
        -11    1    4    4    0    0  0.25390303641E+03 -0.23871032952E+03  0.20162778699E+03  0.40262033953E+03  0.00000000000E+00 0.  1.
         11    1    4    4    0    0  0.24877934289E+02 -0.81583781262E+02  0.38747546588E+02  0.93681360718E+02  0.00000000000E+00 0. -1.
        -15    1    3    3    0    0 -0.14739859458E+03  0.24006286380E+03 -0.19698291218E+03  0.34374692679E+03  0.17770000000E+01 0.  1.
         15    1    3    3    0    0 -0.13138237612E+03  0.80231246986E+02 -0.43392421404E+02  0.15995137296E+03  0.17770000000E+01 0.  1.
</event>
<event>
 8    1  0.2370702E-007  0.5037388E+03  0.7546771E-02  0.9391483E-01
        -11   -1    0    0    0    0  0.00000000000E+00  0.00000000000E+00  0.50000000000E+03  0.50000000000E+03  0.00000000000E+00 0. -1.
         11   -1    0    0    0    0 -0.00000000000E+00 -0.00000000000E+00 -0.50000000000E+03  0.50000000000E+03  0.00000000000E+00 0.  1.
         25    2    1    2    0    0  0.19039987285E+03  0.39484245804E+03 -0.21441704932E+03  0.50373879093E+03  0.12500168077E+03 0.  0.
         23    2    1    2    0    0 -0.19039987285E+03 -0.39484245804E+03  0.21441704932E+03  0.49626120907E+03  0.90265377245E+02 0.  0.
        -11    1    4    4    0    0 -0.19456647957E+03 -0.35297290539E+03  0.17795187179E+03  0.44058240499E+03  0.00000000000E+00 0.  1.
         11    1    4    4    0    0  0.41666067230E+01 -0.41869552658E+02  0.36465177533E+02  0.55678804081E+02  0.00000000000E+00 0. -1.
        -15    1    3    3    0    0  0.20669775196E+02 -0.44753381189E+01 -0.16256095418E+02  0.26733623494E+02  0.17770000000E+01 0.  1.
         15    1    3    3    0    0  0.16973009765E+03  0.39931779616E+03 -0.19816095390E+03  0.47700516744E+03  0.17770000000E+01 0.  1.
</event>
<event>
 8    1  0.2370702E-007  0.5034375E+03  0.7546771E-02  0.9392151E-01
        -11   -1    0    0    0    0  0.00000000000E+00  0.00000000000E+00  0.50000000000E+03  0.50000000000E+03  0.00000000000E+00 0.  1.
         11   -1    0    0    0    0 -0.00000000000E+00 -0.00000000000E+00 -0.50000000000E+03  0.50000000000E+03  0.00000000000E+00 0. -1.
         25    2    1    2    0    0 -0.43581836193E+03  0.21416162823E+03 -0.44950320127E+02  0.50343750828E+03  0.12500378339E+03 0.  0.
         23    2    1    2    0    0  0.43581836193E+03 -0.21416162823E+03  0.44950320127E+02  0.49656249172E+03  0.93546401841E+02 0.  0.
        -11    1    4    4    0    0  0.28756913982E+03 -0.17844600073E+03  0.58561978850E+02  0.34346541415E+03  0.00000000000E+00 0.  1.
         11    1    4    4    0    0  0.14824922212E+03 -0.35715627496E+02 -0.13611658724E+02  0.15309707756E+03  0.00000000000E+00 0. -1.
        -15    1    3    3    0    0 -0.22165879251E+03  0.16339683096E+03 -0.63335420745E+02  0.28256977530E+03  0.17770000000E+01 0. -1.
         15    1    3    3    0    0 -0.21415956942E+03  0.50764797269E+02  0.18385100618E+02  0.22086773298E+03  0.17770000000E+01 0. -1.
</event>
<event>
 8    1  0.2370702E-007  0.5031920E+03  0.7546771E-02  0.9392696E-01
        -11   -1    0    0    0    0  0.00000000000E+00  0.00000000000E+00  0.50000000000E+03  0.50000000000E+03  0.00000000000E+00 0.  1.
         11   -1    0    0    0    0 -0.00000000000E+00 -0.00000000000E+00 -0.50000000000E+03  0.50000000000E+03  0.00000000000E+00 0. -1.
         25    2    1    2    0    0  0.27645405836E+03  0.28316298487E+03  0.28454796361E+03  0.50319196975E+03  0.12500596962E+03 0.  0.
         23    2    1    2    0    0 -0.27645405836E+03 -0.28316298487E+03 -0.28454796361E+03  0.49680803025E+03  0.96138197086E+02 0.  0.
        -11    1    4    4    0    0 -0.93634674433E+02 -0.16403096630E+03 -0.13905276233E+03  0.23454057404E+03  0.00000000000E+00 0. -1.
         11    1    4    4    0    0 -0.18281938393E+03 -0.11913201858E+03 -0.14549520128E+03  0.26226745621E+03  0.00000000000E+00 0.  1.
        -15    1    3    3    0    0 -0.11483284750E+02  0.27856722568E+02  0.20946392435E+02  0.36739242044E+02  0.17770000000E+01 0. -1.
         15    1    3    3    0    0  0.28793734311E+03  0.25530626231E+03  0.26360157117E+03  0.46645272771E+03  0.17770000000E+01 0. -1.
</event>
<event>
 8    1  0.2370702E-007  0.5035077E+03  0.7546771E-02  0.9391995E-01
        -11   -1    0    0    0    0  0.00000000000E+00  0.00000000000E+00  0.50000000000E+03  0.50000000000E+03  0.00000000000E+00 0. -1.
         11   -1    0    0    0    0 -0.00000000000E+00 -0.00000000000E+00 -0.50000000000E+03  0.50000000000E+03  0.00000000000E+00 0.  1.
         25    2    1    2    0    0  0.46791030761E+03  0.10003392525E+03  0.94590984906E+02  0.50350767380E+03  0.12500272390E+03 0.  0.
         23    2    1    2    0    0 -0.46791030761E+03 -0.10003392525E+03 -0.94590984906E+02  0.49649232620E+03  0.92791882065E+02 0.  0.
        -11    1    4    4    0    0 -0.87800410563E+02 -0.48108910278E+02  0.46477579821E+01  0.10022465264E+03  0.00000000000E+00 0. -1.
         11    1    4    4    0    0 -0.38010989705E+03 -0.51925014974E+02 -0.99238742889E+02  0.39626767355E+03  0.00000000000E+00 0.  1.
        -15    1    3    3    0    0  0.24502067614E+03  0.11129599652E+03  0.27824240571E+02  0.27055364842E+03  0.17770000000E+01 0.  1.
         15    1    3    3    0    0  0.22288963147E+03 -0.11262071272E+02  0.66766744335E+02  0.23295402539E+03  0.17770000000E+01 0.  1.
</event>
<event>
 8    1  0.2370702E-007  0.5036114E+03  0.7546771E-02  0.9391765E-01
        -11   -1    0    0    0    0  0.00000000000E+00  0.00000000000E+00  0.50000000000E+03  0.50000000000E+03  0.00000000000E+00 0.  1.
         11   -1    0    0    0    0 -0.00000000000E+00 -0.00000000000E+00 -0.50000000000E+03  0.50000000000E+03  0.00000000000E+00 0. -1.
         25    2    1    2    0    0 -0.38294422132E+03  0.30176271507E+03 -0.17091157338E+02  0.50361143988E+03  0.12500144747E+03 0.  0.
         23    2    1    2    0    0  0.38294422132E+03 -0.30176271507E+03  0.17091157338E+02  0.49638856012E+03  0.91665053935E+02 0.  0.
        -11    1    4    4    0    0  0.62191956047E+02 -0.56556690181E+02  0.37680911679E+02  0.92121385715E+02  0.00000000000E+00 0.  1.
         11    1    4    4    0    0  0.32075226527E+03 -0.24520602489E+03 -0.20589754341E+02  0.40426717441E+03  0.00000000000E+00 0. -1.
        -15    1    3    3    0    0 -0.13871618292E+03  0.13836453535E+03 -0.63821522405E+02  0.20606617504E+03  0.17770000000E+01 0. -1.
         15    1    3    3    0    0 -0.24422803840E+03  0.16339817972E+03  0.46730365067E+02  0.29754526483E+03  0.17770000000E+01 0. -1.
</event>
<event>
 8    1  0.2370702E-007  0.5035342E+03  0.7546771E-02  0.9391936E-01
        -11   -1    0    0    0    0  0.00000000000E+00  0.00000000000E+00  0.50000000000E+03  0.50000000000E+03  0.00000000000E+00 0.  1.
         11   -1    0    0    0    0 -0.00000000000E+00 -0.00000000000E+00 -0.50000000000E+03  0.50000000000E+03  0.00000000000E+00 0. -1.
         25    2    1    2    0    0 -0.18045575169E+03  0.33951334933E+03 -0.30014847069E+03  0.50353417934E+03  0.12499589037E+03 0.  0.
         23    2    1    2    0    0  0.18045575169E+03 -0.33951334933E+03  0.30014847069E+03  0.49646582066E+03  0.92496561752E+02 0.  0.
        -11    1    4    4    0    0  0.11991084561E+03 -0.27494861925E+03  0.18963162720E+03  0.35487393277E+03  0.00000000000E+00 0. -1.
         11    1    4    4    0    0  0.60544906082E+02 -0.64564730081E+02  0.11051684349E+03  0.14159188790E+03  0.00000000000E+00 0.  1.
        -15    1    3    3    0    0 -0.16136575096E+02  0.14880635045E+03 -0.83489213920E+02  0.17139814923E+03  0.17770000000E+01 0.  1.
         15    1    3    3    0    0 -0.16431917660E+03  0.19070699888E+03 -0.21665925677E+03  0.33213603010E+03  0.17770000000E+01 0.  1.
</event>
<event>
 8    1  0.2370702E-007  0.5035016E+03  0.7546771E-02  0.9392008E-01
        -11   -1    0    0    0    0  0.00000000000E+00  0.00000000000E+00  0.50000000000E+03  0.50000000000E+03  0.00000000000E+00 0.  1.
         11   -1    0    0    0    0 -0.00000000000E+00 -0.00000000000E+00 -0.50000000000E+03  0.50000000000E+03  0.00000000000E+00 0. -1.
         25    2    1    2    0    0 -0.45494315708E+03  0.46040287584E+02 -0.16969229879E+03  0.50350163527E+03  0.12500174481E+03 0.  0.
         23    2    1    2    0    0  0.45494315708E+03 -0.46040287584E+02  0.16969229879E+03  0.49649836473E+03  0.92855617261E+02 0.  0.
        -11    1    4    4    0    0  0.21968399344E+03 -0.12383777991E+02  0.33449047261E+02  0.22256067418E+03  0.00000000000E+00 0. -1.
         11    1    4    4    0    0  0.23525916364E+03 -0.33656509593E+02  0.13624325153E+03  0.27393769054E+03  0.00000000000E+00 0.  1.
        -15    1    3    3    0    0 -0.34081946484E+03  0.71887720385E+02 -0.16737853793E+03  0.38645114134E+03  0.17770000000E+01 0. -1.
         15    1    3    3    0    0 -0.11412369224E+03 -0.25847432801E+02 -0.23137608618E+01  0.11705049394E+03  0.17770000000E+01 0. -1.
</event>
<event>
 8    1  0.2370702E-007  0.5032597E+03  0.7546771E-02  0.9392545E-01
        -11   -1    0    0    0    0  0.00000000000E+00  0.00000000000E+00  0.50000000000E+03  0.50000000000E+03  0.00000000000E+00 0.  1.
         11   -1    0    0    0    0 -0.00000000000E+00 -0.00000000000E+00 -0.50000000000E+03  0.50000000000E+03  0.00000000000E+00 0. -1.
         25    2    1    2    0    0 -0.40164564179E+03  0.27272795685E+03  0.44125708888E+02  0.50325973439E+03  0.12499408809E+03 0.  0.
         23    2    1    2    0    0  0.40164564179E+03 -0.27272795685E+03 -0.44125708888E+02  0.49674026561E+03  0.95415162709E+02 0.  0.
        -11    1    4    4    0    0  0.28319631730E+03 -0.21460097632E+03 -0.70342125792E+02  0.36221781821E+03  0.00000000000E+00 0.  1.
         11    1    4    4    0    0  0.11844932449E+03 -0.58126980526E+02  0.26216416904E+02  0.13452244739E+03  0.00000000000E+00 0. -1.
        -15    1    3    3    0    0 -0.25495828641E+02  0.65485964171E+02  0.20138543248E+02  0.73124328610E+02  0.17770000000E+01 0.  1.
         15    1    3    3    0    0 -0.37614981315E+03  0.20724199268E+03  0.23987165640E+02  0.43013540578E+03  0.17770000000E+01 0.  1.
</event>
<event>
 8    1  0.2370702E-007  0.5035944E+03  0.7546771E-02  0.9391803E-01
        -11   -1    0    0    0    0  0.00000000000E+00  0.00000000000E+00  0.50000000000E+03  0.50000000000E+03  0.00000000000E+00 0.  1.
         11   -1    0    0    0    0 -0.00000000000E+00 -0.00000000000E+00 -0.50000000000E+03  0.50000000000E+03  0.00000000000E+00 0. -1.
         25    2    1    2    0    0  0.14597780496E+03 -0.44798391534E+03  0.12643120692E+03  0.50359443142E+03  0.12499357313E+03 0.  0.
         23    2    1    2    0    0 -0.14597780496E+03  0.44798391534E+03 -0.12643120692E+03  0.49640556858E+03  0.91839699989E+02 0.  0.
        -11    1    4    4    0    0 -0.52636820678E+02  0.67124315277E+02 -0.42879622413E+02  0.95472355218E+02  0.00000000000E+00 0. -1.
         11    1    4    4    0    0 -0.93340984277E+02  0.38085960006E+03 -0.83551584510E+02  0.40093321337E+03  0.00000000000E+00 0.  1.
        -15    1    3    3    0    0 -0.75617556545E+00 -0.19362047841E+03  0.43595109134E+02  0.19847708364E+03  0.17770000000E+01 0. -1.
         15    1    3    3    0    0  0.14673398052E+03 -0.25436343693E+03  0.82836097789E+02  0.30511734777E+03  0.17770000000E+01 0. -1.
</event>
<event>
 8    1  0.2370702E-007  0.5035339E+03  0.7546771E-02  0.9391937E-01
        -11   -1    0    0    0    0  0.00000000000E+00  0.00000000000E+00  0.50000000000E+03  0.50000000000E+03  0.00000000000E+00 0.  1.
         11   -1    0    0    0    0 -0.00000000000E+00 -0.00000000000E+00 -0.50000000000E+03  0.50000000000E+03  0.00000000000E+00 0. -1.
         25    2    1    2    0    0 -0.25468335700E+03 -0.12974924835E+02  0.41579976017E+03  0.50353386095E+03  0.12499979025E+03 0.  0.
         23    2    1    2    0    0  0.25468335700E+03  0.12974924835E+02 -0.41579976017E+03  0.49646613905E+03  0.92505273664E+02 0.  0.
        -11    1    4    4    0    0  0.10392496425E+03 -0.15158689061E+02 -0.24700829162E+03  0.26840879303E+03  0.00000000000E+00 0.  1.
         11    1    4    4    0    0  0.15075839275E+03  0.28133613896E+02 -0.16879146855E+03  0.22805734601E+03  0.00000000000E+00 0. -1.
        -15    1    3    3    0    0 -0.26367844730E+03 -0.77556447120E+01  0.41644188628E+03  0.49296397025E+03  0.17770000000E+01 0. -1.
         15    1    3    3    0    0  0.89950902966E+01 -0.52192801228E+01 -0.64212610880E+00  0.10569890699E+02  0.17770000000E+01 0. -1.
</event>
<event>
 8    1  0.2370702E-007  0.5036353E+03  0.7546771E-02  0.9391712E-01
        -11   -1    0    0    0    0  0.00000000000E+00  0.00000000000E+00  0.50000000000E+03  0.50000000000E+03  0.00000000000E+00 0.  1.
         11   -1    0    0    0    0 -0.00000000000E+00 -0.00000000000E+00 -0.50000000000E+03  0.50000000000E+03  0.00000000000E+00 0. -1.
         25    2    1    2    0    0  0.42109872724E+03 -0.13302657297E+03  0.20737247422E+03  0.50363530986E+03  0.12499990029E+03 0.  0.
         23    2    1    2    0    0 -0.42109872724E+03  0.13302657297E+03 -0.20737247422E+03  0.49636469014E+03  0.91402162787E+02 0.  0.
        -11    1    4    4    0    0 -0.16412682434E+03  0.28129243572E+02 -0.36649476554E+02  0.17050528714E+03  0.00000000000E+00 0.  1.
         11    1    4    4    0    0 -0.25697190290E+03  0.10489732940E+03 -0.17072299766E+03  0.32585940300E+03  0.00000000000E+00 0. -1.
        -15    1    3    3    0    0  0.38753186338E+03 -0.79782943197E+02  0.18538259173E+03  0.43693949948E+03  0.17770000000E+01 0. -1.
         15    1    3    3    0    0  0.33566863858E+02 -0.53243629777E+02  0.21989882489E+02  0.66695810378E+02  0.17770000000E+01 0. -1.
</event>
<event>
 8    1  0.2370702E-007  0.5036091E+03  0.7546771E-02  0.9391770E-01
        -11   -1    0    0    0    0  0.00000000000E+00  0.00000000000E+00  0.50000000000E+03  0.50000000000E+03  0.00000000000E+00 0. -1.
         11   -1    0    0    0    0 -0.00000000000E+00 -0.00000000000E+00 -0.50000000000E+03  0.50000000000E+03  0.00000000000E+00 0.  1.
         25    2    1    2    0    0  0.34295100393E+03 -0.96059421124E+02 -0.33339828016E+03  0.50360907423E+03  0.12499953182E+03 0.  0.
         23    2    1    2    0    0 -0.34295100393E+03  0.96059421124E+02  0.33339828016E+03  0.49639092577E+03  0.91688246169E+02 0.  0.
        -11    1    4    4    0    0 -0.19283706091E+03  0.13460396790E+02  0.14437726013E+03  0.24127185411E+03  0.00000000000E+00 0.  1.
         11    1    4    4    0    0 -0.15011394302E+03  0.82599024334E+02  0.18902102003E+03  0.25511907166E+03  0.00000000000E+00 0. -1.
        -15    1    3    3    0    0  0.23899207618E+03 -0.89801634606E+02 -0.15992276091E+03  0.30126399261E+03  0.17770000000E+01 0.  1.
         15    1    3    3    0    0  0.10395892775E+03 -0.62577865183E+01 -0.17347551925E+03  0.20234508163E+03  0.17770000000E+01 0.  1.
</event>
<event>
 8    1  0.2370702E-007  0.5037688E+03  0.7546771E-02  0.9391416E-01
        -11   -1    0    0    0    0  0.00000000000E+00  0.00000000000E+00  0.50000000000E+03  0.50000000000E+03  0.00000000000E+00 0.  1.
         11   -1    0    0    0    0 -0.00000000000E+00 -0.00000000000E+00 -0.50000000000E+03  0.50000000000E+03  0.00000000000E+00 0. -1.
         25    2    1    2    0    0 -0.39722675854E+03  0.79589377038E+02 -0.27208983104E+03  0.50376875217E+03  0.12500605135E+03 0.  0.
         23    2    1    2    0    0  0.39722675854E+03 -0.79589377038E+02  0.27208983104E+03  0.49623124783E+03  0.89938915567E+02 0.  0.
        -11    1    4    4    0    0  0.87043638961E+02  0.83409394582E+01  0.27890152849E+02  0.91782498226E+02  0.00000000000E+00 0.  1.
         11    1    4    4    0    0  0.31018311958E+03 -0.87930316497E+02  0.24419967819E+03  0.40444874960E+03  0.00000000000E+00 0. -1.
        -15    1    3    3    0    0 -0.23323438193E+03  0.10019976776E+03 -0.12708514867E+03  0.28388741274E+03  0.17770000000E+01 0. -1.
         15    1    3    3    0    0 -0.16399237661E+03 -0.20610390719E+02 -0.14500468237E+03  0.21988133943E+03  0.17770000000E+01 0. -1.
</event>
<event>
 8    1  0.2370702E-007  0.5035313E+03  0.7546771E-02  0.9391943E-01
        -11   -1    0    0    0    0  0.00000000000E+00  0.00000000000E+00  0.50000000000E+03  0.50000000000E+03  0.00000000000E+00 0.  1.
         11   -1    0    0    0    0 -0.00000000000E+00 -0.00000000000E+00 -0.50000000000E+03  0.50000000000E+03  0.00000000000E+00 0. -1.
         25    2    1    2    0    0  0.24124106346E+03 -0.21158990395E+03  0.36735658726E+03  0.50353129818E+03  0.12500147157E+03 0.  0.
         23    2    1    2    0    0 -0.24124106346E+03  0.21158990395E+03 -0.36735658726E+03  0.49646870182E+03  0.92535244817E+02 0.  0.
        -11    1    4    4    0    0 -0.83794911257E+02  0.46072842490E+02 -0.57763412680E+02  0.11171797444E+03  0.00000000000E+00 0.  1.
         11    1    4    4    0    0 -0.15744615220E+03  0.16551706146E+03 -0.30959317458E+03  0.38475072738E+03  0.00000000000E+00 0. -1.
        -15    1    3    3    0    0  0.19572216101E+03 -0.17900739526E+03  0.21574662158E+03  0.34190725983E+03  0.17770000000E+01 0.  1.
         15    1    3    3    0    0  0.45518902450E+02 -0.32582508684E+02  0.15160996568E+03  0.16162403835E+03  0.17770000000E+01 0.  1.
</event>
<event>
 8    1  0.2370702E-007  0.5037429E+03  0.7546771E-02  0.9391473E-01
        -11   -1    0    0    0    0  0.00000000000E+00  0.00000000000E+00  0.50000000000E+03  0.50000000000E+03  0.00000000000E+00 0. -1.
         11   -1    0    0    0    0 -0.00000000000E+00 -0.00000000000E+00 -0.50000000000E+03  0.50000000000E+03  0.00000000000E+00 0.  1.
         25    2    1    2    0    0 -0.16682968470E+03 -0.36159238253E+03  0.28204848456E+03  0.50374291355E+03  0.12499752197E+03 0.  0.
         23    2    1    2    0    0  0.16682968470E+03  0.36159238253E+03 -0.28204848456E+03  0.49625708645E+03  0.90213931339E+02 0.  0.
        -11    1    4    4    0    0  0.13622801024E+03  0.19044693166E+03 -0.15243597992E+03  0.27940084561E+03  0.00000000000E+00 0.  1.
         11    1    4    4    0    0  0.30601674467E+02  0.17114545087E+03 -0.12961250465E+03  0.21685624085E+03  0.00000000000E+00 0. -1.
        -15    1    3    3    0    0 -0.70196479892E+01 -0.15778831680E+03  0.95831447973E+02  0.18475186745E+03  0.17770000000E+01 0. -1.
         15    1    3    3    0    0 -0.15981003671E+03 -0.20380406573E+03  0.18621703659E+03  0.31899104609E+03  0.17770000000E+01 0. -1.
</event>
<event>
 8    1  0.2370702E-007  0.5035811E+03  0.7546771E-02  0.9391832E-01
        -11   -1    0    0    0    0  0.00000000000E+00  0.00000000000E+00  0.50000000000E+03  0.50000000000E+03  0.00000000000E+00 0.  1.
         11   -1    0    0    0    0 -0.00000000000E+00 -0.00000000000E+00 -0.50000000000E+03  0.50000000000E+03  0.00000000000E+00 0. -1.
         25    2    1    2    0    0 -0.23325250981E+03  0.40412739411E+03 -0.14227875153E+03  0.50358110756E+03  0.12500001900E+03 0.  0.
         23    2    1    2    0    0  0.23325250981E+03 -0.40412739411E+03  0.14227875153E+03  0.49641889244E+03  0.91993421706E+02 0.  0.
        -11    1    4    4    0    0  0.43061396780E+02 -0.65849710547E+02 -0.10447274752E+02  0.79370106599E+02  0.00000000000E+00 0. -1.
         11    1    4    4    0    0  0.19019111303E+03 -0.33827768356E+03  0.15272602628E+03  0.41704878585E+03  0.00000000000E+00 0.  1.
        -15    1    3    3    0    0 -0.15927998343E+03  0.30142952180E+03 -0.15849212400E+03  0.37596912218E+03  0.17770000000E+01 0.  1.
         15    1    3    3    0    0 -0.73972526374E+02  0.10269787231E+03  0.16213372471E+02  0.12761198537E+03  0.17770000000E+01 0.  1.
</event>
<event>
 8    1  0.2370702E-007  0.5035749E+03  0.7546771E-02  0.9391846E-01
        -11   -1    0    0    0    0  0.00000000000E+00  0.00000000000E+00  0.50000000000E+03  0.50000000000E+03  0.00000000000E+00 0.  1.
         11   -1    0    0    0    0 -0.00000000000E+00 -0.00000000000E+00 -0.50000000000E+03  0.50000000000E+03  0.00000000000E+00 0. -1.
         25    2    1    2    0    0 -0.43526001046E+03  0.16881028411E+03 -0.14147223861E+03  0.50357493139E+03  0.12500051403E+03 0.  0.
         23    2    1    2    0    0  0.43526001046E+03 -0.16881028411E+03  0.14147223861E+03  0.49642506861E+03  0.92061206377E+02 0.  0.
        -11    1    4    4    0    0  0.15893879145E+03 -0.16810113074E+02  0.59861164479E+02  0.17066774254E+03  0.00000000000E+00 0. -1.
         11    1    4    4    0    0  0.27632121900E+03 -0.15200017104E+03  0.81611074129E+02  0.32575732607E+03  0.00000000000E+00 0.  1.
        -15    1    3    3    0    0 -0.18761114554E+03  0.73140906021E+02  0.28491674215E+01  0.20139217847E+03  0.17770000000E+01 0.  1.
         15    1    3    3    0    0 -0.24764886491E+03  0.95669378090E+02 -0.14432140603E+03  0.30218275292E+03  0.17770000000E+01 0.  1.
</event>
<event>
 8    1  0.2370702E-007  0.5035270E+03  0.7546771E-02  0.9391952E-01
        -11   -1    0    0    0    0  0.00000000000E+00  0.00000000000E+00  0.50000000000E+03  0.50000000000E+03  0.00000000000E+00 0.  1.
         11   -1    0    0    0    0 -0.00000000000E+00 -0.00000000000E+00 -0.50000000000E+03  0.50000000000E+03  0.00000000000E+00 0. -1.
         25    2    1    2    0    0  0.17157672102E+03 -0.21169039457E+03 -0.40455250346E+03  0.50352702027E+03  0.12500135096E+03 0.  0.
         23    2    1    2    0    0 -0.17157672102E+03  0.21169039457E+03  0.40455250346E+03  0.49647297973E+03  0.92581300481E+02 0.  0.
        -11    1    4    4    0    0 -0.17698615151E+03  0.17891387360E+03  0.33135067759E+03  0.41608598093E+03  0.00000000000E+00 0. -1.
         11    1    4    4    0    0  0.54094304822E+01  0.32776520968E+02  0.73201825868E+02  0.80386998796E+02  0.00000000000E+00 0.  1.
        -15    1    3    3    0    0  0.18512031705E+03 -0.21684263809E+03 -0.38718908070E+03  0.48084176547E+03  0.17770000000E+01 0.  1.
         15    1    3    3    0    0 -0.13543596024E+02  0.51522435246E+01 -0.17363422755E+02  0.22685254801E+02  0.17770000000E+01 0.  1.
</event>
<event>
 8    1  0.2370702E-007  0.5038862E+03  0.7546771E-02  0.9391156E-01
        -11   -1    0    0    0    0  0.00000000000E+00  0.00000000000E+00  0.50000000000E+03  0.50000000000E+03  0.00000000000E+00 0. -1.
         11   -1    0    0    0    0 -0.00000000000E+00 -0.00000000000E+00 -0.50000000000E+03  0.50000000000E+03  0.00000000000E+00 0.  1.
         25    2    1    2    0    0  0.43261630315E+03  0.99457018289E+02  0.20304612662E+03  0.50388616678E+03  0.12499990120E+03 0.  0.
         23    2    1    2    0    0 -0.43261630315E+03 -0.99457018289E+02 -0.20304612662E+03  0.49611383322E+03  0.88615132656E+02 0.  0.
        -11    1    4    4    0    0 -0.39422756503E+03 -0.79302149836E+02 -0.20754107943E+03  0.45252348409E+03  0.00000000000E+00 0. -1.
         11    1    4    4    0    0 -0.38388738118E+02 -0.20154868453E+02  0.44949528059E+01  0.43590349131E+02  0.00000000000E+00 0.  1.
        -15    1    3    3    0    0  0.28157500056E+03  0.18122784850E+02  0.16925119858E+03  0.32903197750E+03  0.17770000000E+01 0. -1.
         15    1    3    3    0    0  0.15104130259E+03  0.81334233440E+02  0.33794928040E+02  0.17485418928E+03  0.17770000000E+01 0. -1.
</event>
<event>
 8    1  0.2370702E-007  0.5033996E+03  0.7546771E-02  0.9392235E-01
        -11   -1    0    0    0    0  0.00000000000E+00  0.00000000000E+00  0.50000000000E+03  0.50000000000E+03  0.00000000000E+00 0.  1.
         11   -1    0    0    0    0 -0.00000000000E+00 -0.00000000000E+00 -0.50000000000E+03  0.50000000000E+03  0.00000000000E+00 0. -1.
         25    2    1    2    0    0 -0.25681372776E+03 -0.27156499928E+03 -0.31318422692E+03  0.50339964955E+03  0.12500403026E+03 0.  0.
         23    2    1    2    0    0  0.25681372776E+03  0.27156499928E+03  0.31318422692E+03  0.49660035045E+03  0.93950563986E+02 0.  0.
        -11    1    4    4    0    0  0.26363707814E+02  0.84076008263E+02  0.78369542157E+02  0.11792203099E+03  0.00000000000E+00 0. -1.
         11    1    4    4    0    0  0.23045001995E+03  0.18748899101E+03  0.23481468476E+03  0.37867831946E+03  0.00000000000E+00 0.  1.
        -15    1    3    3    0    0 -0.67738195517E+02 -0.41469775570E+02 -0.12921547025E+02  0.80488070695E+02  0.17770000000E+01 0.  1.
         15    1    3    3    0    0 -0.18907553225E+03 -0.23009522371E+03 -0.30026267989E+03  0.42291157886E+03  0.17770000000E+01 0.  1.
</event>
<event>
 8    1  0.2370702E-007  0.5037940E+03  0.7546771E-02  0.9391360E-01
        -11   -1    0    0    0    0  0.00000000000E+00  0.00000000000E+00  0.50000000000E+03  0.50000000000E+03  0.00000000000E+00 0.  1.
         11   -1    0    0    0    0 -0.00000000000E+00 -0.00000000000E+00 -0.50000000000E+03  0.50000000000E+03  0.00000000000E+00 0. -1.
         25    2    1    2    0    0  0.19444276946E+03  0.27761985975E+03 -0.35114441092E+03  0.50379398013E+03  0.12500079987E+03 0.  0.
         23    2    1    2    0    0 -0.19444276946E+03 -0.27761985975E+03  0.35114441092E+03  0.49620601987E+03  0.89650653736E+02 0.  0.
        -11    1    4    4    0    0 -0.10646641562E+02 -0.78758091812E+02  0.70802224238E+02  0.10643844681E+03  0.00000000000E+00 0.  1.
         11    1    4    4    0    0 -0.18379612790E+03 -0.19886176794E+03  0.28034218668E+03  0.38976757306E+03  0.00000000000E+00 0. -1.
        -15    1    3    3    0    0 -0.24620512670E+01  0.45349317808E+01  0.91659085216E+01  0.10667657228E+02  0.17770000000E+01 0. -1.
         15    1    3    3    0    0  0.19690482073E+03  0.27308492797E+03 -0.36031031944E+03  0.49312632290E+03  0.17770000000E+01 0. -1.
</event>
<event>
 8    1  0.2370702E-007  0.5036832E+03  0.7546771E-02  0.9391606E-01
        -11   -1    0    0    0    0  0.00000000000E+00  0.00000000000E+00  0.50000000000E+03  0.50000000000E+03  0.00000000000E+00 0.  1.
         11   -1    0    0    0    0 -0.00000000000E+00 -0.00000000000E+00 -0.50000000000E+03  0.50000000000E+03  0.00000000000E+00 0. -1.
         25    2    1    2    0    0 -0.29587489074E+03  0.30412886680E+03  0.24089448443E+03  0.50368323831E+03  0.12502133154E+03 0.  0.
         23    2    1    2    0    0  0.29587489074E+03 -0.30412886680E+03 -0.24089448443E+03  0.49631676169E+03  0.90905757300E+02 0.  0.
        -11    1    4    4    0    0  0.14655843425E+03 -0.11138370520E+03 -0.63232284969E+02  0.19463819331E+03  0.00000000000E+00 0.  1.
         11    1    4    4    0    0  0.14931645649E+03 -0.19274516159E+03 -0.17766219946E+03  0.30167856837E+03  0.00000000000E+00 0. -1.
        -15    1    3    3    0    0 -0.11331581547E+03  0.14017928722E+03  0.17119207075E+03  0.24859724338E+03  0.17770000000E+01 0.  1.
         15    1    3    3    0    0 -0.18255907527E+03  0.16394957958E+03  0.69702413676E+02  0.25508599493E+03  0.17770000000E+01 0.  1.
</event>
<event>
 8    1  0.2370702E-007  0.5035680E+03  0.7546771E-02  0.9391861E-01
        -11   -1    0    0    0    0  0.00000000000E+00  0.00000000000E+00  0.50000000000E+03  0.50000000000E+03  0.00000000000E+00 0.  1.
         11   -1    0    0    0    0 -0.00000000000E+00 -0.00000000000E+00 -0.50000000000E+03  0.50000000000E+03  0.00000000000E+00 0. -1.
         25    2    1    2    0    0 -0.28503106169E+03 -0.33436882638E+02 -0.39445552421E+03  0.50356797327E+03  0.12499924749E+03 0.  0.
         23    2    1    2    0    0  0.28503106169E+03  0.33436882638E+02  0.39445552421E+03  0.49643202673E+03  0.92135038575E+02 0.  0.
        -11    1    4    4    0    0  0.13885587627E+03  0.25144343180E+02  0.26838845209E+03  0.30322525222E+03  0.00000000000E+00 0.  1.
         11    1    4    4    0    0  0.14617518542E+03  0.82925394580E+01  0.12606707212E+03  0.19320677451E+03  0.00000000000E+00 0. -1.
        -15    1    3    3    0    0 -0.16154801062E+03  0.13818360494E+02 -0.12973636963E+03  0.20766172049E+03  0.17770000000E+01 0. -1.
         15    1    3    3    0    0 -0.12348305107E+03 -0.47255243132E+02 -0.26471915458E+03  0.29590625278E+03  0.17770000000E+01 0. -1.
</event>
<event>
 8    1  0.2370702E-007  0.5036302E+03  0.7546771E-02  0.9391723E-01
        -11   -1    0    0    0    0  0.00000000000E+00  0.00000000000E+00  0.50000000000E+03  0.50000000000E+03  0.00000000000E+00 0.  1.
         11   -1    0    0    0    0 -0.00000000000E+00 -0.00000000000E+00 -0.50000000000E+03  0.50000000000E+03  0.00000000000E+00 0. -1.
         25    2    1    2    0    0 -0.52700666749E+02  0.40659228945E+03 -0.26443315165E+03  0.50363017199E+03  0.12499523326E+03 0.  0.
         23    2    1    2    0    0  0.52700666749E+02 -0.40659228945E+03  0.26443315165E+03  0.49636982801E+03  0.91451978410E+02 0.  0.
        -11    1    4    4    0    0  0.69697086016E+02 -0.23349627284E+03  0.18051183619E+03  0.30325355107E+03  0.00000000000E+00 0.  1.
         11    1    4    4    0    0 -0.16996419267E+02 -0.17309601660E+03  0.83921315459E+02  0.19311627694E+03  0.00000000000E+00 0. -1.
        -15    1    3    3    0    0 -0.75471712121E+02  0.24879461293E+03 -0.11216293427E+03  0.28315794233E+03  0.17770000000E+01 0.  1.
         15    1    3    3    0    0  0.22771045371E+02  0.15779767652E+03 -0.15227021738E+03  0.22047222966E+03  0.17770000000E+01 0.  1.
</event>
<event>
 8    1  0.2370702E-007  0.5035129E+03  0.7546771E-02  0.9391984E-01
        -11   -1    0    0    0    0  0.00000000000E+00  0.00000000000E+00  0.50000000000E+03  0.50000000000E+03  0.00000000000E+00 0.  1.
         11   -1    0    0    0    0 -0.00000000000E+00 -0.00000000000E+00 -0.50000000000E+03  0.50000000000E+03  0.00000000000E+00 0. -1.
         25    2    1    2    0    0  0.34766876724E+03 -0.27175214864E+03  0.20779471648E+03  0.50351287003E+03  0.12499505624E+03 0.  0.
         23    2    1    2    0    0 -0.34766876724E+03  0.27175214864E+03 -0.20779471648E+03  0.49648712997E+03  0.92725530631E+02 0.  0.
        -11    1    4    4    0    0 -0.25993675536E+03  0.24786814328E+03 -0.15362211617E+03  0.39064752376E+03  0.00000000000E+00 0.  1.
         11    1    4    4    0    0 -0.87732011870E+02  0.23884005357E+02 -0.54172600315E+02  0.10583960621E+03  0.00000000000E+00 0. -1.
        -15    1    3    3    0    0  0.20665698527E+03 -0.10967929308E+03  0.56331480877E+02  0.24065130450E+03  0.17770000000E+01 0. -1.
         15    1    3    3    0    0  0.14101178197E+03 -0.16207285555E+03  0.15146323561E+03  0.26286156552E+03  0.17770000000E+01 0. -1.
</event>
<event>
 8    1  0.2370702E-007  0.5033273E+03  0.7546771E-02  0.9392395E-01
        -11   -1    0    0    0    0  0.00000000000E+00  0.00000000000E+00  0.50000000000E+03  0.50000000000E+03  0.00000000000E+00 0. -1.
         11   -1    0    0    0    0 -0.00000000000E+00 -0.00000000000E+00 -0.50000000000E+03  0.50000000000E+03  0.00000000000E+00 0.  1.
         25    2    1    2    0    0  0.48400099010E+03 -0.36954591022E+02  0.45718553807E+02  0.50332725765E+03  0.12500216765E+03 0.  0.
         23    2    1    2    0    0 -0.48400099010E+03  0.36954591022E+02 -0.45718553807E+02  0.49667274235E+03  0.94715503553E+02 0.  0.
        -11    1    4    4    0    0 -0.35012789147E+03  0.18382117374E+02  0.93365017161E+01  0.35073439080E+03  0.00000000000E+00 0. -1.
         11    1    4    4    0    0 -0.13387309863E+03  0.18572473648E+02 -0.55055055524E+02  0.14593835155E+03  0.00000000000E+00 0.  1.
        -15    1    3    3    0    0  0.39054584922E+03  0.41517853705E+01  0.73670329572E+02  0.39745914614E+03  0.17770000000E+01 0. -1.
         15    1    3    3    0    0  0.93455140881E+02 -0.41106376393E+02 -0.27951775765E+02  0.10586811151E+03  0.17770000000E+01 0. -1.
</event>
<event>
 8    1  0.2370702E-007  0.5035228E+03  0.7546771E-02  0.9391962E-01
        -11   -1    0    0    0    0  0.00000000000E+00  0.00000000000E+00  0.50000000000E+03  0.50000000000E+03  0.00000000000E+00 0.  1.
         11   -1    0    0    0    0 -0.00000000000E+00 -0.00000000000E+00 -0.50000000000E+03  0.50000000000E+03  0.00000000000E+00 0. -1.
         25    2    1    2    0    0 -0.27908345553E+03  0.36910877989E+03  0.15421457233E+03  0.50352278667E+03  0.12499678330E+03 0.  0.
         23    2    1    2    0    0  0.27908345553E+03 -0.36910877989E+03 -0.15421457233E+03  0.49647721333E+03  0.92620853433E+02 0.  0.
        -11    1    4    4    0    0  0.71918441022E+02 -0.91153045160E+02 -0.82601216925E+02  0.14249245888E+03  0.00000000000E+00 0.  1.
         11    1    4    4    0    0  0.20716501451E+03 -0.27795573473E+03 -0.71613355400E+02  0.35398475444E+03  0.00000000000E+00 0. -1.
        -15    1    3    3    0    0 -0.99300427055E+02  0.46188389079E+02  0.29235529530E+02  0.11336585030E+03  0.17770000000E+01 0. -1.
         15    1    3    3    0    0 -0.17978302848E+03  0.32292039081E+03  0.12497904279E+03  0.39015693637E+03  0.17770000000E+01 0. -1.
</event>
<event>
 8    1  0.2370702E-007  0.5036681E+03  0.7546771E-02  0.9391639E-01
        -11   -1    0    0    0    0  0.00000000000E+00  0.00000000000E+00  0.50000000000E+03  0.50000000000E+03  0.00000000000E+00 0.  1.
         11   -1    0    0    0    0 -0.00000000000E+00 -0.00000000000E+00 -0.50000000000E+03  0.50000000000E+03  0.00000000000E+00 0. -1.
         25    2    1    2    0    0  0.28934492159E+03  0.23441649212E+03  0.31525390574E+03  0.50366807208E+03  0.12499970530E+03 0.  0.
         23    2    1    2    0    0 -0.28934492159E+03 -0.23441649212E+03 -0.31525390574E+03  0.49633192792E+03  0.91042749070E+02 0.  0.
        -11    1    4    4    0    0 -0.20508019166E+03 -0.12474499438E+03 -0.23746272553E+03  0.33765032896E+03  0.00000000000E+00 0. -1.
         11    1    4    4    0    0 -0.84264729925E+02 -0.10967149775E+03 -0.77791180210E+02  0.15868159895E+03  0.00000000000E+00 0.  1.
        -15    1    3    3    0    0  0.26191442975E+03  0.14560417070E+03  0.23431891697E+03  0.38040538327E+03  0.17770000000E+01 0.  1.
         15    1    3    3    0    0  0.27430491830E+02  0.88812321420E+02  0.80934988766E+02  0.12326268881E+03  0.17770000000E+01 0.  1.
</event>
<event>
 8    1  0.2370702E-007  0.5035502E+03  0.7546771E-02  0.9391901E-01
        -11   -1    0    0    0    0  0.00000000000E+00  0.00000000000E+00  0.50000000000E+03  0.50000000000E+03  0.00000000000E+00 0.  1.
         11   -1    0    0    0    0 -0.00000000000E+00 -0.00000000000E+00 -0.50000000000E+03  0.50000000000E+03  0.00000000000E+00 0. -1.
         25    2    1    2    0    0 -0.13072929700E+03 -0.38193621770E+03 -0.27381173985E+03  0.50355022636E+03  0.12499815242E+03 0.  0.
         23    2    1    2    0    0  0.13072929700E+03  0.38193621770E+03  0.27381173985E+03  0.49644977364E+03  0.92325973480E+02 0.  0.
        -11    1    4    4    0    0  0.11622673468E+03  0.35352439762E+03  0.27767382491E+03  0.46431767855E+03  0.00000000000E+00 0.  1.
         11    1    4    4    0    0  0.14502562320E+02  0.28411820075E+02 -0.38620850609E+01  0.32132095090E+02  0.00000000000E+00 0. -1.
        -15    1    3    3    0    0 -0.34129562764E+02 -0.26269777028E+03 -0.20688220093E+03  0.33612251985E+03  0.17770000000E+01 0.  1.
         15    1    3    3    0    0 -0.96599734237E+02 -0.11923844742E+03 -0.66929538924E+02  0.16742770651E+03  0.17770000000E+01 0.  1.
</event>
<event>
 8    1  0.2370702E-007  0.5035731E+03  0.7546771E-02  0.9391850E-01
        -11   -1    0    0    0    0  0.00000000000E+00  0.00000000000E+00  0.50000000000E+03  0.50000000000E+03  0.00000000000E+00 0.  1.
         11   -1    0    0    0    0 -0.00000000000E+00 -0.00000000000E+00 -0.50000000000E+03  0.50000000000E+03  0.00000000000E+00 0. -1.
         25    2    1    2    0    0 -0.47036876085E+03 -0.10868078844E+03 -0.70018351534E+02  0.50357313499E+03  0.12500019109E+03 0.  0.
         23    2    1    2    0    0  0.47036876085E+03  0.10868078844E+03  0.70018351534E+02  0.49642686501E+03  0.92080279055E+02 0.  0.
        -11    1    4    4    0    0  0.12826586048E+03 -0.11546440600E+02  0.14787870132E+02  0.12963075390E+03  0.00000000000E+00 0.  1.
         11    1    4    4    0    0  0.34210290038E+03  0.12022722904E+03  0.55230481402E+02  0.36679611111E+03  0.00000000000E+00 0. -1.
        -15    1    3    3    0    0 -0.22383023446E+03 -0.43102540510E+02 -0.95582574610E+02  0.24717805153E+03  0.17770000000E+01 0. -1.
         15    1    3    3    0    0 -0.24653852639E+03 -0.65578247929E+02  0.25564223075E+02  0.25639508347E+03  0.17770000000E+01 0. -1.
</event>
<event>
 8    1  0.2370702E-007  0.5036416E+03  0.7546771E-02  0.9391698E-01
        -11   -1    0    0    0    0  0.00000000000E+00  0.00000000000E+00  0.50000000000E+03  0.50000000000E+03  0.00000000000E+00 0. -1.
         11   -1    0    0    0    0 -0.00000000000E+00 -0.00000000000E+00 -0.50000000000E+03  0.50000000000E+03  0.00000000000E+00 0.  1.
         25    2    1    2    0    0 -0.30095557481E+03 -0.33834128299E+03  0.18160756679E+03  0.50364155871E+03  0.12499771824E+03 0.  0.
         23    2    1    2    0    0  0.30095557481E+03  0.33834128299E+03 -0.18160756679E+03  0.49635844129E+03  0.91330784171E+02 0.  0.
        -11    1    4    4    0    0  0.20315432415E+03  0.16932166649E+03 -0.12826661215E+03  0.29392827349E+03  0.00000000000E+00 0.  1.
         11    1    4    4    0    0  0.97801250658E+02  0.16901961650E+03 -0.53340954632E+02  0.20243016779E+03  0.00000000000E+00 0. -1.
        -15    1    3    3    0    0 -0.13658271969E+03 -0.77640131656E+02  0.94589616695E+02  0.18339351863E+03  0.17770000000E+01 0. -1.
         15    1    3    3    0    0 -0.16437285512E+03 -0.26070115134E+03  0.87017950091E+02  0.32024804008E+03  0.17770000000E+01 0. -1.
</event>
<event>
 8    1  0.2370702E-007  0.5038201E+03  0.7546771E-02  0.9391302E-01
        -11   -1    0    0    0    0  0.00000000000E+00  0.00000000000E+00  0.50000000000E+03  0.50000000000E+03  0.00000000000E+00 0.  1.
         11   -1    0    0    0    0 -0.00000000000E+00 -0.00000000000E+00 -0.50000000000E+03  0.50000000000E+03  0.00000000000E+00 0. -1.
         25    2    1    2    0    0  0.12758883537E+03 -0.39325415734E+03  0.25937618137E+03  0.50382012456E+03  0.12502388282E+03 0.  0.
         23    2    1    2    0    0 -0.12758883537E+03  0.39325415734E+03 -0.25937618137E+03  0.49617987544E+03  0.89390839288E+02 0.  0.
        -11    1    4    4    0    0 -0.83973340126E+02  0.29123453222E+03 -0.14216471123E+03  0.33478333251E+03  0.00000000000E+00 0.  1.
         11    1    4    4    0    0 -0.43615495245E+02  0.10201962513E+03 -0.11721147014E+03  0.16139654293E+03  0.00000000000E+00 0. -1.
        -15    1    3    3    0    0  0.30017780905E+02 -0.38138547819E+01  0.15089201582E+02  0.33859332423E+02  0.17770000000E+01 0. -1.
         15    1    3    3    0    0  0.97571054466E+02 -0.38944030256E+03  0.24428697979E+03  0.46996079214E+03  0.17770000000E+01 0. -1.
</event>
<event>
 8    1  0.2370702E-007  0.5037402E+03  0.7546771E-02  0.9391479E-01
        -11   -1    0    0    0    0  0.00000000000E+00  0.00000000000E+00  0.50000000000E+03  0.50000000000E+03  0.00000000000E+00 0.  1.
         11   -1    0    0    0    0 -0.00000000000E+00 -0.00000000000E+00 -0.50000000000E+03  0.50000000000E+03  0.00000000000E+00 0. -1.
         25    2    1    2    0    0  0.28273038234E+03 -0.32990191948E+03  0.22216736881E+03  0.50374018956E+03  0.12499637292E+03 0.  0.
         23    2    1    2    0    0 -0.28273038234E+03  0.32990191948E+03 -0.22216736881E+03  0.49625981044E+03  0.90242529436E+02 0.  0.
        -11    1    4    4    0    0 -0.23434261007E+03  0.28444133659E+03 -0.14917325177E+03  0.39758771598E+03  0.00000000000E+00 0.  1.
         11    1    4    4    0    0 -0.48387772271E+02  0.45460582886E+02 -0.72994117044E+02  0.98672094458E+02  0.00000000000E+00 0. -1.
        -15    1    3    3    0    0  0.26506893667E+03 -0.23306946616E+03  0.18500621889E+03  0.39851395960E+03  0.17770000000E+01 0. -1.
         15    1    3    3    0    0  0.17661445671E+02 -0.96832453318E+02  0.37161149921E+02  0.10522622996E+03  0.17770000000E+01 0. -1.
</event>
<event>
 8    1  0.2370702E-007  0.5039444E+03  0.7546771E-02  0.9391027E-01
        -11   -1    0    0    0    0  0.00000000000E+00  0.00000000000E+00  0.50000000000E+03  0.50000000000E+03  0.00000000000E+00 0.  1.
         11   -1    0    0    0    0 -0.00000000000E+00 -0.00000000000E+00 -0.50000000000E+03  0.50000000000E+03  0.00000000000E+00 0. -1.
         25    2    1    2    0    0  0.40728982523E+03  0.30690110481E+02 -0.26741028206E+03  0.50394435568E+03  0.12499908020E+03 0.  0.
         23    2    1    2    0    0 -0.40728982523E+03 -0.30690110481E+02  0.26741028206E+03  0.49605564432E+03  0.87954867380E+02 0.  0.
        -11    1    4    4    0    0 -0.34813814917E+03 -0.11993758071E+02  0.18979297887E+03  0.39669307527E+03  0.00000000000E+00 0. -1.
         11    1    4    4    0    0 -0.59151676064E+02 -0.18696352410E+02  0.77617303190E+02  0.99362569055E+02  0.00000000000E+00 0.  1.
        -15    1    3    3    0    0 -0.12013052715E+01  0.26579901606E+01  0.91986775612E+01  0.98123108351E+01  0.17770000000E+01 0.  1.
         15    1    3    3    0    0  0.40849113050E+03  0.28032120320E+02 -0.27660895962E+03  0.49413204484E+03  0.17770000000E+01 0.  1.
</event>
<event>
 8    1  0.2370702E-007  0.5032766E+03  0.7546771E-02  0.9392508E-01
        -11   -1    0    0    0    0  0.00000000000E+00  0.00000000000E+00  0.50000000000E+03  0.50000000000E+03  0.00000000000E+00 0.  1.
         11   -1    0    0    0    0 -0.00000000000E+00 -0.00000000000E+00 -0.50000000000E+03  0.50000000000E+03  0.00000000000E+00 0. -1.
         25    2    1    2    0    0 -0.27900092102E+03 -0.38601699116E+03 -0.10397816992E+03  0.50327657953E+03  0.12500089716E+03 0.  0.
         23    2    1    2    0    0  0.27900092102E+03  0.38601699116E+03  0.10397816992E+03  0.49672342047E+03  0.95247389633E+02 0.  0.
        -11    1    4    4    0    0  0.10499398011E+03  0.10603578964E+03  0.71534337673E+02  0.16548258522E+03  0.00000000000E+00 0.  1.
         11    1    4    4    0    0  0.17400694091E+03  0.27998120152E+03  0.32443832250E+02  0.33124083525E+03  0.00000000000E+00 0. -1.
        -15    1    3    3    0    0 -0.55188213868E+02 -0.68102238647E+02  0.29029660703E+02  0.92355469725E+02  0.17770000000E+01 0.  1.
         15    1    3    3    0    0 -0.22381270715E+03 -0.31791475251E+03 -0.13300783063E+03  0.41092110980E+03  0.17770000000E+01 0.  1.
</event>
<event>
 8    1  0.2370702E-007  0.5035943E+03  0.7546771E-02  0.9391803E-01
        -11   -1    0    0    0    0  0.00000000000E+00  0.00000000000E+00  0.50000000000E+03  0.50000000000E+03  0.00000000000E+00 0.  1.
         11   -1    0    0    0    0 -0.00000000000E+00 -0.00000000000E+00 -0.50000000000E+03  0.50000000000E+03  0.00000000000E+00 0. -1.
         25    2    1    2    0    0  0.48109084717E+02  0.18424300302E+03 -0.44913493557E+03  0.50359425305E+03  0.12500005264E+03 0.  0.
         23    2    1    2    0    0 -0.48109084717E+02 -0.18424300302E+03  0.44913493557E+03  0.49640574695E+03  0.91850460355E+02 0.  0.
        -11    1    4    4    0    0 -0.54382333262E+02 -0.12035788597E+03  0.37888273771E+03  0.40124255485E+03  0.00000000000E+00 0.  1.
         11    1    4    4    0    0  0.62732485451E+01 -0.63885117051E+02  0.70252197853E+02  0.95163192103E+02  0.00000000000E+00 0. -1.
        -15    1    3    3    0    0  0.23025470922E+02  0.13501419733E+02 -0.19235472256E+03  0.19420596712E+03  0.17770000000E+01 0. -1.
         15    1    3    3    0    0  0.25083613795E+02  0.17074158329E+03 -0.25678021301E+03  0.30938828592E+03  0.17770000000E+01 0. -1.
</event>
<event>
 8    1  0.2370702E-007  0.5036798E+03  0.7546771E-02  0.9391613E-01
        -11   -1    0    0    0    0  0.00000000000E+00  0.00000000000E+00  0.50000000000E+03  0.50000000000E+03  0.00000000000E+00 0.  1.
         11   -1    0    0    0    0 -0.00000000000E+00 -0.00000000000E+00 -0.50000000000E+03  0.50000000000E+03  0.00000000000E+00 0. -1.
         25    2    1    2    0    0 -0.24103882317E+03 -0.21546861158E+03  0.36543279405E+03  0.50367976928E+03  0.12500298460E+03 0.  0.
         23    2    1    2    0    0  0.24103882317E+03  0.21546861158E+03 -0.36543279405E+03  0.49632023072E+03  0.90918686787E+02 0.  0.
        -11    1    4    4    0    0  0.14502822546E+03  0.71420921388E+02 -0.19632123893E+03  0.25431508616E+03  0.00000000000E+00 0. -1.
         11    1    4    4    0    0  0.96010597716E+02  0.14404769019E+03 -0.16911155512E+03  0.24200514457E+03  0.00000000000E+00 0.  1.
        -15    1    3    3    0    0 -0.20269468646E+03 -0.21015739409E+03  0.25860106956E+03  0.39003709710E+03  0.17770000000E+01 0. -1.
         15    1    3    3    0    0 -0.38344136711E+02 -0.53112174820E+01  0.10683172449E+03  0.11364267217E+03  0.17770000000E+01 0. -1.
</event>
