<event>
 6    1  0.1551247E-006  0.4652735E+03  0.7546771E-02  0.9481052E-01
        -11   -1    0    0    0    0  0.00000000000E+00  0.00000000000E+00  0.50000000000E+03  0.50000000000E+03  0.00000000000E+00 0. -1.
         11   -1    0    0    0    0 -0.00000000000E+00 -0.00000000000E+00 -0.50000000000E+03  0.50000000000E+03  0.00000000000E+00 0. -1.
        -11    1    1    2    0    0  0.38988120886E+03  0.22866432091E+03  0.36754601490E+01  0.45200468768E+03  0.00000000000E+00 0. -1.
         11    1    1    2    0    0 -0.41392337379E+03 -0.23822935832E+03  0.55182355280E+02  0.48076072934E+03  0.00000000000E+00 0. -1.
        -15    1    1    2    0    0 -0.49605010268E+00  0.37458626418E+01 -0.22907544529E+02  0.23284992549E+02  0.17770000000E+01 0. -1.
         15    1    1    2    0    0  0.24538215032E+02  0.58191747738E+01 -0.35950270900E+02  0.43949590428E+02  0.17770000000E+01 0.  1.
</event>
<event>
 6    1  0.1551247E-006  0.4445751E+03  0.7546771E-02  0.9533154E-01
        -11   -1    0    0    0    0  0.00000000000E+00  0.00000000000E+00  0.50000000000E+03  0.50000000000E+03  0.00000000000E+00 0. -1.
         11   -1    0    0    0    0 -0.00000000000E+00 -0.00000000000E+00 -0.50000000000E+03  0.50000000000E+03  0.00000000000E+00 0. -1.
        -11    1    1    2    0    0 -0.13954593044E+03  0.40983589545E+03 -0.45797417017E+02  0.43535724561E+03  0.00000000000E+00 0. -1.
         11    1    1    2    0    0  0.15186845108E+03 -0.43052583018E+03 -0.44411579147E+02  0.45868170363E+03  0.00000000000E+00 0. -1.
        -15    1    1    2    0    0 -0.52252345546E+01 -0.12559594743E+02  0.57066687341E+01  0.14858340867E+02  0.17770000000E+01 0.  1.
         15    1    1    2    0    0 -0.70972860854E+01  0.33249529476E+02  0.84502327430E+02  0.91102709895E+02  0.17770000000E+01 0. -1.
</event>
<event>
 6    1  0.1551247E-006  0.4854162E+03  0.7546771E-02  0.9433047E-01
        -11   -1    0    0    0    0  0.00000000000E+00  0.00000000000E+00  0.50000000000E+03  0.50000000000E+03  0.00000000000E+00 0.  1.
         11   -1    0    0    0    0 -0.00000000000E+00 -0.00000000000E+00 -0.50000000000E+03  0.50000000000E+03  0.00000000000E+00 0. -1.
        -11    1    1    2    0    0  0.24445678157E+03 -0.15969980615E+03 -0.38537945074E+03  0.48350849754E+03  0.00000000000E+00 0. -1.
         11    1    1    2    0    0 -0.24932832535E+03  0.17992877685E+03  0.37840104269E+03  0.48757186923E+03  0.00000000000E+00 0.  1.
        -15    1    1    2    0    0  0.49865264116E+01 -0.70733786076E+01  0.11847766446E+02  0.14779222894E+02  0.17770000000E+01 0.  1.
         15    1    1    2    0    0 -0.11498263383E+00 -0.13155592091E+02 -0.48693583906E+01  0.14140410334E+02  0.17770000000E+01 0. -1.
</event>
<event>
 6    1  0.1551247E-006  0.5223728E+03  0.7546771E-02  0.9351095E-01
        -11   -1    0    0    0    0  0.00000000000E+00  0.00000000000E+00  0.50000000000E+03  0.50000000000E+03  0.00000000000E+00 0. -1.
         11   -1    0    0    0    0 -0.00000000000E+00 -0.00000000000E+00 -0.50000000000E+03  0.50000000000E+03  0.00000000000E+00 0.  1.
        -11    1    1    2    0    0  0.10545469872E+03  0.73995379734E+02 -0.45992575818E+03  0.47762716918E+03  0.00000000000E+00 0.  1.
         11    1    1    2    0    0 -0.10651062977E+03 -0.96750590925E+02  0.13747641921E+03  0.19900994181E+03  0.00000000000E+00 0. -1.
        -15    1    1    2    0    0 -0.17613798066E+01  0.18419411586E+02  0.26629757959E+03  0.26694556712E+03  0.17770000000E+01 0. -1.
         15    1    1    2    0    0  0.28173108572E+01  0.43357996060E+01  0.56151759378E+02  0.56417321887E+02  0.17770000000E+01 0.  1.
</event>
<event>
 6    1  0.1551247E-006  0.4349745E+03  0.7546771E-02  0.9558357E-01
        -11   -1    0    0    0    0  0.00000000000E+00  0.00000000000E+00  0.50000000000E+03  0.50000000000E+03  0.00000000000E+00 0.  1.
         11   -1    0    0    0    0 -0.00000000000E+00 -0.00000000000E+00 -0.50000000000E+03  0.50000000000E+03  0.00000000000E+00 0.  1.
        -11    1    1    2    0    0  0.47372132457E+02  0.13766601585E+03 -0.44247228418E+03  0.46580873019E+03  0.00000000000E+00 0.  1.
         11    1    1    2    0    0 -0.10840576711E+03 -0.18284678576E+03  0.35295770011E+03  0.41202414428E+03  0.00000000000E+00 0.  1.
        -15    1    1    2    0    0  0.64740253347E+02  0.41388391027E+02  0.78776932713E+02  0.11006026609E+03  0.17770000000E+01 0. -1.
         15    1    1    2    0    0 -0.37066186933E+01  0.37923788854E+01  0.10737651362E+02  0.12106859441E+02  0.17770000000E+01 0.  1.
</event>
<event>
 6    1  0.1551247E-006  0.4759275E+03  0.7546771E-02  0.9455346E-01
        -11   -1    0    0    0    0  0.00000000000E+00  0.00000000000E+00  0.50000000000E+03  0.50000000000E+03  0.00000000000E+00 0. -1.
         11   -1    0    0    0    0 -0.00000000000E+00 -0.00000000000E+00 -0.50000000000E+03  0.50000000000E+03  0.00000000000E+00 0.  1.
        -11    1    1    2    0    0  0.34345572131E+03 -0.21301485459E+03  0.27473709043E+03  0.48868970690E+03  0.00000000000E+00 0. -1.
         11    1    1    2    0    0 -0.34843245007E+03  0.20381840168E+03 -0.22940929061E+03  0.46430134152E+03  0.00000000000E+00 0.  1.
        -15    1    1    2    0    0  0.56818772549E+01  0.47474773266E+01 -0.28156025064E+02  0.29167477548E+02  0.17770000000E+01 0.  1.
         15    1    1    2    0    0 -0.70514849743E+00  0.44489755861E+01 -0.17171774754E+02  0.17841474024E+02  0.17770000000E+01 0.  1.
</event>
<event>
 6    1  0.1551247E-006  0.4465101E+03  0.7546771E-02  0.9528156E-01
        -11   -1    0    0    0    0  0.00000000000E+00  0.00000000000E+00  0.50000000000E+03  0.50000000000E+03  0.00000000000E+00 0.  1.
         11   -1    0    0    0    0 -0.00000000000E+00 -0.00000000000E+00 -0.50000000000E+03  0.50000000000E+03  0.00000000000E+00 0. -1.
        -11    1    1    2    0    0  0.20076393130E+03 -0.15274755378E+03 -0.39812799552E+03  0.47132141062E+03  0.00000000000E+00 0. -1.
         11    1    1    2    0    0 -0.10297189821E+03  0.14149386376E+03  0.38965564628E+03  0.42714780577E+03  0.00000000000E+00 0.  1.
        -15    1    1    2    0    0 -0.59062213310E+02  0.17660200941E+02  0.83498722854E+01  0.62234281827E+02  0.17770000000E+01 0. -1.
         15    1    1    2    0    0 -0.38729819775E+02 -0.64065109236E+01  0.12247696077E+00  0.39296501774E+02  0.17770000000E+01 0.  1.
</event>
<event>
 6    1  0.1551247E-006  0.5135584E+03  0.7546771E-02  0.9369973E-01
        -11   -1    0    0    0    0  0.00000000000E+00  0.00000000000E+00  0.50000000000E+03  0.50000000000E+03  0.00000000000E+00 0. -1.
         11   -1    0    0    0    0 -0.00000000000E+00 -0.00000000000E+00 -0.50000000000E+03  0.50000000000E+03  0.00000000000E+00 0. -1.
        -11    1    1    2    0    0  0.48193934013E+03  0.65865171052E+02 -0.46562789280E+01  0.48644159902E+03  0.00000000000E+00 0. -1.
         11    1    1    2    0    0 -0.44697065972E+03 -0.82708341438E+02 -0.49394328224E+01  0.45458534775E+03  0.00000000000E+00 0. -1.
        -15    1    1    2    0    0  0.59241160231E+01 -0.71662489541E+01  0.63704585081E+01  0.11410115921E+02  0.17770000000E+01 0. -1.
         15    1    1    2    0    0 -0.40892796437E+02  0.24009419340E+02  0.32252532423E+01  0.47562937304E+02  0.17770000000E+01 0.  1.
</event>
<event>
 6    1  0.1551247E-006  0.5133849E+03  0.7546771E-02  0.9370348E-01
        -11   -1    0    0    0    0  0.00000000000E+00  0.00000000000E+00  0.50000000000E+03  0.50000000000E+03  0.00000000000E+00 0. -1.
         11   -1    0    0    0    0 -0.00000000000E+00 -0.00000000000E+00 -0.50000000000E+03  0.50000000000E+03  0.00000000000E+00 0. -1.
        -11    1    1    2    0    0 -0.30106378437E+03 -0.37683760918E+03  0.64407045427E+02  0.48661509785E+03  0.00000000000E+00 0. -1.
         11    1    1    2    0    0  0.31094048755E+03  0.33069293234E+03 -0.76783325054E+02  0.46036668135E+03  0.00000000000E+00 0. -1.
        -15    1    1    2    0    0 -0.53872764287E+01  0.21946118593E+02  0.16451664886E+02  0.28008389370E+02  0.17770000000E+01 0.  1.
         15    1    1    2    0    0 -0.44894267499E+01  0.24198558255E+02 -0.40753852593E+01  0.25009831430E+02  0.17770000000E+01 0. -1.
</event>
<event>
 6    1  0.1551247E-006  0.4523839E+03  0.7546771E-02  0.9513149E-01
        -11   -1    0    0    0    0  0.00000000000E+00  0.00000000000E+00  0.50000000000E+03  0.50000000000E+03  0.00000000000E+00 0.  1.
         11   -1    0    0    0    0 -0.00000000000E+00 -0.00000000000E+00 -0.50000000000E+03  0.50000000000E+03  0.00000000000E+00 0.  1.
        -11    1    1    2    0    0  0.32064642775E+03  0.32471566616E+03  0.13202320188E+03  0.47506264988E+03  0.00000000000E+00 0.  1.
         11    1    1    2    0    0 -0.33999348438E+03 -0.25716947178E+03 -0.80734048104E+02  0.43387750939E+03  0.00000000000E+00 0.  1.
        -15    1    1    2    0    0 -0.55734648759E+01 -0.15981119258E+02 -0.18095426037E+02  0.24840729778E+02  0.17770000000E+01 0. -1.
         15    1    1    2    0    0  0.24920521501E+02 -0.51565075123E+02 -0.33193727740E+02  0.66219110947E+02  0.17770000000E+01 0.  1.
</event>
<event>
 6    1  0.1551247E-006  0.3621475E+03  0.7546771E-02  0.9775369E-01
        -11   -1    0    0    0    0  0.00000000000E+00  0.00000000000E+00  0.50000000000E+03  0.50000000000E+03  0.00000000000E+00 0. -1.
         11   -1    0    0    0    0 -0.00000000000E+00 -0.00000000000E+00 -0.50000000000E+03  0.50000000000E+03  0.00000000000E+00 0. -1.
        -11    1    1    2    0    0  0.21227624691E+03 -0.30327185352E+03 -0.10640778386E+03  0.38517221942E+03  0.00000000000E+00 0. -1.
         11    1    1    2    0    0 -0.26000953841E+03  0.24585396242E+03 -0.11596398594E+03  0.37616057335E+03  0.00000000000E+00 0. -1.
        -15    1    1    2    0    0  0.11395004187E+02  0.36592067048E+02  0.62032421824E+02  0.72938361495E+02  0.17770000000E+01 0.  1.
         15    1    1    2    0    0  0.36338287314E+02  0.20825824052E+02  0.16033934798E+03  0.16572884574E+03  0.17770000000E+01 0. -1.
</event>
<event>
 6    1  0.1551247E-006  0.5325007E+03  0.7546771E-02  0.9329886E-01
        -11   -1    0    0    0    0  0.00000000000E+00  0.00000000000E+00  0.50000000000E+03  0.50000000000E+03  0.00000000000E+00 0.  1.
         11   -1    0    0    0    0 -0.00000000000E+00 -0.00000000000E+00 -0.50000000000E+03  0.50000000000E+03  0.00000000000E+00 0. -1.
        -11    1    1    2    0    0 -0.55170852408E+02 -0.68861239103E+02  0.30447571714E+03  0.31700339988E+03  0.00000000000E+00 0.  1.
         11    1    1    2    0    0  0.60654337230E+02  0.85168767093E+02 -0.45565661700E+03  0.46749932634E+03  0.00000000000E+00 0. -1.
        -15    1    1    2    0    0 -0.77101053987E+01 -0.44752254762E+02 -0.14239516391E+02  0.47624905119E+02  0.17770000000E+01 0.  1.
         15    1    1    2    0    0  0.22266205769E+01  0.28444726773E+02  0.16542041625E+03  0.16787236867E+03  0.17770000000E+01 0. -1.
</event>
<event>
 6    1  0.1551247E-006  0.5288711E+03  0.7546771E-02  0.9337429E-01
        -11   -1    0    0    0    0  0.00000000000E+00  0.00000000000E+00  0.50000000000E+03  0.50000000000E+03  0.00000000000E+00 0.  1.
         11   -1    0    0    0    0 -0.00000000000E+00 -0.00000000000E+00 -0.50000000000E+03  0.50000000000E+03  0.00000000000E+00 0.  1.
        -11    1    1    2    0    0  0.80034393357E+02  0.34183392361E+03 -0.31417594009E+03  0.47112891737E+03  0.00000000000E+00 0.  1.
         11    1    1    2    0    0 -0.28439239295E+02 -0.25616761219E+03  0.31640560245E+03  0.40809697515E+03  0.00000000000E+00 0.  1.
        -15    1    1    2    0    0 -0.66848695689E+02 -0.71553596632E+02  0.65242282319E+01  0.98154921370E+02  0.17770000000E+01 0. -1.
         15    1    1    2    0    0  0.15253541627E+02 -0.14112714784E+02 -0.87538905910E+01  0.22619186109E+02  0.17770000000E+01 0.  1.
</event>
<event>
 6    1  0.1551247E-006  0.4151378E+03  0.7546771E-02  0.9612701E-01
        -11   -1    0    0    0    0  0.00000000000E+00  0.00000000000E+00  0.50000000000E+03  0.50000000000E+03  0.00000000000E+00 0. -1.
         11   -1    0    0    0    0 -0.00000000000E+00 -0.00000000000E+00 -0.50000000000E+03  0.50000000000E+03  0.00000000000E+00 0.  1.
        -11    1    1    2    0    0 -0.14423540363E+03  0.39838690886E+02  0.44146270389E+02  0.15601239099E+03  0.00000000000E+00 0. -1.
         11    1    1    2    0    0  0.69861535727E+02  0.28916077422E+02 -0.43389653102E+03  0.44043498197E+03  0.00000000000E+00 0.  1.
        -15    1    1    2    0    0  0.68013721618E+02 -0.55911598470E+02  0.30037012464E+03  0.31301332668E+03  0.17770000000E+01 0. -1.
         15    1    1    2    0    0  0.63601462862E+01 -0.12843169837E+02  0.89380135990E+02  0.90539300367E+02  0.17770000000E+01 0.  1.
</event>
<event>
 6    1  0.1551247E-006  0.4219514E+03  0.7546771E-02  0.9593676E-01
        -11   -1    0    0    0    0  0.00000000000E+00  0.00000000000E+00  0.50000000000E+03  0.50000000000E+03  0.00000000000E+00 0. -1.
         11   -1    0    0    0    0 -0.00000000000E+00 -0.00000000000E+00 -0.50000000000E+03  0.50000000000E+03  0.00000000000E+00 0. -1.
        -11    1    1    2    0    0  0.25493255057E+03  0.96120200204E+02 -0.37746292907E+03  0.46551902330E+03  0.00000000000E+00 0. -1.
         11    1    1    2    0    0 -0.20639585968E+03  0.25315315592E+02  0.32969280759E+03  0.38979156414E+03  0.00000000000E+00 0. -1.
        -15    1    1    2    0    0 -0.42504467503E+02 -0.10803735353E+03  0.27040666600E+02  0.11921851742E+03  0.17770000000E+01 0. -1.
         15    1    1    2    0    0 -0.60322233943E+01 -0.13398162264E+02  0.20729454878E+02  0.25470895148E+02  0.17770000000E+01 0.  1.
</event>
<event>
 6    1  0.1551247E-006  0.4449686E+03  0.7546771E-02  0.9532135E-01
        -11   -1    0    0    0    0  0.00000000000E+00  0.00000000000E+00  0.50000000000E+03  0.50000000000E+03  0.00000000000E+00 0. -1.
         11   -1    0    0    0    0 -0.00000000000E+00 -0.00000000000E+00 -0.50000000000E+03  0.50000000000E+03  0.00000000000E+00 0. -1.
        -11    1    1    2    0    0  0.26510172942E+02  0.32441197012E+03 -0.31349469987E+03  0.45191242788E+03  0.00000000000E+00 0. -1.
         11    1    1    2    0    0 -0.12141226484E+03 -0.28707911039E+03  0.31598995849E+03  0.44385246146E+03  0.00000000000E+00 0. -1.
        -15    1    1    2    0    0  0.67176439402E+02 -0.16943904491E+02  0.28501166144E+01  0.69361738760E+02  0.17770000000E+01 0.  1.
         15    1    1    2    0    0  0.27725652499E+02 -0.20388955239E+02 -0.53453752350E+01  0.34873371899E+02  0.17770000000E+01 0. -1.
</event>
<event>
 6    1  0.1551247E-006  0.5058175E+03  0.7546771E-02  0.9386886E-01
        -11   -1    0    0    0    0  0.00000000000E+00  0.00000000000E+00  0.50000000000E+03  0.50000000000E+03  0.00000000000E+00 0.  1.
         11   -1    0    0    0    0 -0.00000000000E+00 -0.00000000000E+00 -0.50000000000E+03  0.50000000000E+03  0.00000000000E+00 0. -1.
        -11    1    1    2    0    0 -0.12985010750E+03  0.23802111890E+03  0.36713252415E+03  0.45640047519E+03  0.00000000000E+00 0.  1.
         11    1    1    2    0    0  0.13196997202E+03 -0.24830501082E+03 -0.40638019146E+03  0.49418246825E+03  0.00000000000E+00 0. -1.
        -15    1    1    2    0    0 -0.75178738914E+00  0.12406465481E+02  0.42862111518E+02  0.44663227635E+02  0.17770000000E+01 0. -1.
         15    1    1    2    0    0 -0.13680771281E+01 -0.21225735681E+01 -0.36144442071E+01  0.47538289312E+01  0.17770000000E+01 0.  1.
</event>
<event>
 6    1  0.1551247E-006  0.3459016E+03  0.7546771E-02  0.9831308E-01
        -11   -1    0    0    0    0  0.00000000000E+00  0.00000000000E+00  0.50000000000E+03  0.50000000000E+03  0.00000000000E+00 0. -1.
         11   -1    0    0    0    0 -0.00000000000E+00 -0.00000000000E+00 -0.50000000000E+03  0.50000000000E+03  0.00000000000E+00 0.  1.
        -11    1    1    2    0    0 -0.14903288064E+03 -0.22610155726E+03  0.10418879467E+03  0.29015171660E+03  0.00000000000E+00 0. -1.
         11    1    1    2    0    0  0.10263798866E+03  0.24901112503E+03 -0.35921871363E+03  0.44897570238E+03  0.00000000000E+00 0.  1.
        -15    1    1    2    0    0  0.25931055089E+02 -0.61113313504E+01  0.95995299017E+02  0.99639465832E+02  0.17770000000E+01 0. -1.
         15    1    1    2    0    0  0.20463836891E+02 -0.16798236418E+02  0.15903461994E+03  0.16123311519E+03  0.17770000000E+01 0.  1.
</event>
<event>
 6    1  0.1551247E-006  0.4702309E+03  0.7546771E-02  0.9469000E-01
        -11   -1    0    0    0    0  0.00000000000E+00  0.00000000000E+00  0.50000000000E+03  0.50000000000E+03  0.00000000000E+00 0.  1.
         11   -1    0    0    0    0 -0.00000000000E+00 -0.00000000000E+00 -0.50000000000E+03  0.50000000000E+03  0.00000000000E+00 0. -1.
        -11    1    1    2    0    0 -0.20163794536E+03 -0.41799146852E+03  0.47421491519E+02  0.46650136830E+03  0.00000000000E+00 0.  1.
         11    1    1    2    0    0  0.19460167486E+03  0.42230815959E+03 -0.98997731472E+02  0.47540986985E+03  0.00000000000E+00 0. -1.
        -15    1    1    2    0    0  0.10656677535E+02  0.52108555148E+01  0.11209663048E+02  0.16417431770E+02  0.17770000000E+01 0. -1.
         15    1    1    2    0    0 -0.36204070376E+01 -0.95275465823E+01  0.40366576904E+02  0.41671330084E+02  0.17770000000E+01 0.  1.
</event>
<event>
 6    1  0.1551247E-006  0.5122442E+03  0.7546771E-02  0.9372822E-01
        -11   -1    0    0    0    0  0.00000000000E+00  0.00000000000E+00  0.50000000000E+03  0.50000000000E+03  0.00000000000E+00 0.  1.
         11   -1    0    0    0    0 -0.00000000000E+00 -0.00000000000E+00 -0.50000000000E+03  0.50000000000E+03  0.00000000000E+00 0.  1.
        -11    1    1    2    0    0  0.38782676195E+03  0.25135427424E+03 -0.15593958205E+03  0.48775580132E+03  0.00000000000E+00 0.  1.
         11    1    1    2    0    0 -0.35303714009E+03 -0.17054058044E+03  0.97287150621E+02  0.40396051977E+03  0.00000000000E+00 0.  1.
        -15    1    1    2    0    0 -0.29884485506E+02 -0.79184648646E+02  0.50835787062E+02  0.98745764620E+02  0.17770000000E+01 0.  1.
         15    1    1    2    0    0 -0.49051363596E+01 -0.16290451562E+01  0.78166443704E+01  0.95379142919E+01  0.17770000000E+01 0. -1.
</event>
<event>
 6    1  0.1551247E-006  0.4941546E+03  0.7546771E-02  0.9412985E-01
        -11   -1    0    0    0    0  0.00000000000E+00  0.00000000000E+00  0.50000000000E+03  0.50000000000E+03  0.00000000000E+00 0.  1.
         11   -1    0    0    0    0 -0.00000000000E+00 -0.00000000000E+00 -0.50000000000E+03  0.50000000000E+03  0.00000000000E+00 0. -1.
        -11    1    1    2    0    0 -0.48843063248E+02  0.30232251342E+03  0.38564062727E+03  0.49244618016E+03  0.00000000000E+00 0.  1.
         11    1    1    2    0    0  0.39930580655E+02 -0.30238499603E+03 -0.39102879021E+03  0.49591798906E+03  0.00000000000E+00 0. -1.
        -15    1    1    2    0    0  0.69889556571E+01 -0.91859688877E+00  0.49751374409E+01  0.88090318978E+01  0.17770000000E+01 0. -1.
         15    1    1    2    0    0  0.19235269357E+01  0.98107949788E+00  0.41302550043E+00  0.28267988817E+01  0.17770000000E+01 0. -1.
</event>
<event>
 6    1  0.1551247E-006  0.5014700E+03  0.7546771E-02  0.9396526E-01
        -11   -1    0    0    0    0  0.00000000000E+00  0.00000000000E+00  0.50000000000E+03  0.50000000000E+03  0.00000000000E+00 0.  1.
         11   -1    0    0    0    0 -0.00000000000E+00 -0.00000000000E+00 -0.50000000000E+03  0.50000000000E+03  0.00000000000E+00 0. -1.
        -11    1    1    2    0    0 -0.39303071697E+02  0.93744796284E+02 -0.48251430981E+03  0.49310534113E+03  0.00000000000E+00 0. -1.
         11    1    1    2    0    0  0.42468446923E+02 -0.93293108429E+02  0.48787805390E+03  0.49853000767E+03  0.00000000000E+00 0.  1.
        -15    1    1    2    0    0 -0.39847482575E+01 -0.20612299253E+00 -0.30656848202E+01  0.53363712184E+01  0.17770000000E+01 0. -1.
         15    1    1    2    0    0  0.81937303096E+00 -0.24556486219E+00 -0.22980592726E+01  0.30282799880E+01  0.17770000000E+01 0.  1.
</event>
<event>
 6    1  0.1551247E-006  0.5031047E+03  0.7546771E-02  0.9392889E-01
        -11   -1    0    0    0    0  0.00000000000E+00  0.00000000000E+00  0.50000000000E+03  0.50000000000E+03  0.00000000000E+00 0.  1.
         11   -1    0    0    0    0 -0.00000000000E+00 -0.00000000000E+00 -0.50000000000E+03  0.50000000000E+03  0.00000000000E+00 0.  1.
        -11    1    1    2    0    0  0.19296939418E+03 -0.16306700588E+03 -0.42787483564E+03  0.49689527113E+03  0.00000000000E+00 0.  1.
         11    1    1    2    0    0 -0.19581266421E+03  0.16172086576E+03  0.39476794472E+03  0.46940171289E+03  0.00000000000E+00 0.  1.
        -15    1    1    2    0    0  0.14134868011E+01 -0.14430988956E+01  0.12927374058E+02  0.13204363233E+02  0.17770000000E+01 0.  1.
         15    1    1    2    0    0  0.14297832328E+01  0.27892390186E+01  0.20179516862E+02  0.20498652740E+02  0.17770000000E+01 0. -1.
</event>
<event>
 6    1  0.1551247E-006  0.5129326E+03  0.7546771E-02  0.9371328E-01
        -11   -1    0    0    0    0  0.00000000000E+00  0.00000000000E+00  0.50000000000E+03  0.50000000000E+03  0.00000000000E+00 0. -1.
         11   -1    0    0    0    0 -0.00000000000E+00 -0.00000000000E+00 -0.50000000000E+03  0.50000000000E+03  0.00000000000E+00 0.  1.
        -11    1    1    2    0    0 -0.42620528972E+02  0.31748287846E+03  0.27340242134E+03  0.42114222253E+03  0.00000000000E+00 0. -1.
         11    1    1    2    0    0 -0.81995498933E+01 -0.34457354394E+03 -0.34414598030E+03  0.48706736244E+03  0.00000000000E+00 0.  1.
        -15    1    1    2    0    0  0.47173705662E+02  0.27069600250E+02  0.65314007208E+02  0.85012934487E+02  0.17770000000E+01 0.  1.
         15    1    1    2    0    0  0.36463732034E+01  0.21065236560E-01  0.54295517485E+01  0.67774805401E+01  0.17770000000E+01 0. -1.
</event>
<event>
 6    1  0.1551247E-006  0.4610762E+03  0.7546771E-02  0.9491381E-01
        -11   -1    0    0    0    0  0.00000000000E+00  0.00000000000E+00  0.50000000000E+03  0.50000000000E+03  0.00000000000E+00 0.  1.
         11   -1    0    0    0    0 -0.00000000000E+00 -0.00000000000E+00 -0.50000000000E+03  0.50000000000E+03  0.00000000000E+00 0. -1.
        -11    1    1    2    0    0 -0.56287382397E+02  0.65070126711E+02 -0.46749002826E+03  0.47534126407E+03  0.00000000000E+00 0. -1.
         11    1    1    2    0    0  0.62161496106E+02  0.32141751139E+01  0.44529163436E+03  0.44962097611E+03  0.00000000000E+00 0.  1.
        -15    1    1    2    0    0 -0.13154278588E+02 -0.35973144542E+02  0.14446674801E+02  0.40975191460E+02  0.17770000000E+01 0.  1.
         15    1    1    2    0    0  0.72801648790E+01 -0.32311157284E+02  0.77517190934E+01  0.34062568364E+02  0.17770000000E+01 0. -1.
</event>
<event>
 6    1  0.1551247E-006  0.3932517E+03  0.7546771E-02  0.9676553E-01
        -11   -1    0    0    0    0  0.00000000000E+00  0.00000000000E+00  0.50000000000E+03  0.50000000000E+03  0.00000000000E+00 0.  1.
         11   -1    0    0    0    0 -0.00000000000E+00 -0.00000000000E+00 -0.50000000000E+03  0.50000000000E+03  0.00000000000E+00 0. -1.
        -11    1    1    2    0    0  0.93188882307E+02 -0.27483477652E+03 -0.28622745104E+03  0.40760823826E+03  0.00000000000E+00 0. -1.
         11    1    1    2    0    0  0.85768448391E+02  0.30888796194E+03  0.24088169693E+03  0.40098876753E+03  0.00000000000E+00 0.  1.
        -15    1    1    2    0    0 -0.37566804435E+02 -0.20875825733E+02  0.25902995581E+01  0.43092137059E+02  0.17770000000E+01 0.  1.
         15    1    1    2    0    0 -0.14139052626E+03 -0.13177359683E+02  0.42755454550E+02  0.14831085715E+03  0.17770000000E+01 0. -1.
</event>
<event>
 6    1  0.1551247E-006  0.3924588E+03  0.7546771E-02  0.9678949E-01
        -11   -1    0    0    0    0  0.00000000000E+00  0.00000000000E+00  0.50000000000E+03  0.50000000000E+03  0.00000000000E+00 0.  1.
         11   -1    0    0    0    0 -0.00000000000E+00 -0.00000000000E+00 -0.50000000000E+03  0.50000000000E+03  0.00000000000E+00 0. -1.
        -11    1    1    2    0    0 -0.11089047168E+03 -0.33167916143E+03  0.18064168466E+03  0.39362314601E+03  0.00000000000E+00 0.  1.
         11    1    1    2    0    0  0.52982934335E+02  0.36070486318E+03 -0.15078912278E+03  0.39452826160E+03  0.00000000000E+00 0. -1.
        -15    1    1    2    0    0 -0.15000532560E+02 -0.18231563147E+02  0.77827182371E+02  0.81348840905E+02  0.17770000000E+01 0.  1.
         15    1    1    2    0    0  0.72908069905E+02 -0.10794138603E+02 -0.10767974425E+03  0.13049975148E+03  0.17770000000E+01 0. -1.
</event>
