<event>
 6    1  0.4347959E-006  0.1863800E+03  0.7546771E-02  0.1065408E+00
        -11   -1    0    0    0    0  0.00000000000E+00  0.00000000000E+00  0.18250000000E+03  0.18250000000E+03  0.00000000000E+00 0. -1.
         11   -1    0    0    0    0 -0.00000000000E+00 -0.00000000000E+00 -0.18250000000E+03  0.18250000000E+03  0.00000000000E+00 0.  1.
        -11    1    1    2    0    0  0.50052368567E+01  0.34233631186E+02 -0.68917627693E+01  0.35277334001E+02  0.00000000000E+00 0. -1.
         11    1    1    2    0    0  0.50260726866E+02  0.78849312925E+02 -0.11869564974E+03  0.15110265412E+03  0.00000000000E+00 0.  1.
        -15    1    1    2    0    0 -0.55207930964E+00 -0.28886106033E+01  0.66716824690E+01  0.75045278831E+01  0.17770000000E+01 0. -1.
         15    1    1    2    0    0 -0.54713884414E+02 -0.11019433351E+03  0.11891573004E+03  0.17111548400E+03  0.17770000000E+01 0. -1.
</event>
<event>
 6    1  0.4347959E-006  0.1839842E+03  0.7546771E-02  0.1067279E+00
        -11   -1    0    0    0    0  0.00000000000E+00  0.00000000000E+00  0.18250000000E+03  0.18250000000E+03  0.00000000000E+00 0. -1.
         11   -1    0    0    0    0 -0.00000000000E+00 -0.00000000000E+00 -0.18250000000E+03  0.18250000000E+03  0.00000000000E+00 0.  1.
        -11    1    1    2    0    0  0.39034950998E+02  0.52169096206E+02 -0.14784556614E+03  0.16156625089E+03  0.00000000000E+00 0.  1.
         11    1    1    2    0    0 -0.42629612696E+02 -0.52225904268E+02  0.16799369566E+03  0.18101577483E+03  0.00000000000E+00 0. -1.
        -15    1    1    2    0    0  0.15735652663E+01 -0.26631155605E+01 -0.17257970611E+02  0.17622813928E+02  0.17770000000E+01 0.  1.
         15    1    1    2    0    0  0.20210964319E+01  0.27199236218E+01 -0.28901589078E+01  0.47951603527E+01  0.17770000000E+01 0.  1.
</event>
<event>
 6    1  0.4932084E-006  0.1630748E+03  0.7546771E-02  0.1085063E+00
        -11   -1    0    0    0    0  0.00000000000E+00  0.00000000000E+00  0.18250000000E+03  0.18250000000E+03  0.00000000000E+00 0.  1.
         11   -1    0    0    0    0 -0.00000000000E+00 -0.00000000000E+00 -0.18250000000E+03  0.18250000000E+03  0.00000000000E+00 0.  1.
        -11    1    1    2    0    0 -0.13868424689E+03 -0.25682539055E+02 -0.74531286734E+02  0.15952374698E+03  0.00000000000E+00 0.  1.
         11    1    1    2    0    0  0.13030477086E+03  0.38119214766E+02  0.98723935787E+02  0.16786549181E+03  0.00000000000E+00 0.  1.
        -15    1    1    2    0    0 -0.40108987551E+01 -0.91575012616E+01  0.23812060369E-01  0.10154084606E+02  0.17770000000E+01 0. -1.
         15    1    1    2    0    0  0.12390374781E+02 -0.32791744492E+01 -0.24216461114E+02  0.27456676605E+02  0.17770000000E+01 0.  1.
</event>
<event>
 6    1  0.4347959E-006  0.1553184E+03  0.7546771E-02  0.1092419E+00
        -11   -1    0    0    0    0  0.00000000000E+00  0.00000000000E+00  0.18250000000E+03  0.18250000000E+03  0.00000000000E+00 0.  1.
         11   -1    0    0    0    0 -0.00000000000E+00 -0.00000000000E+00 -0.18250000000E+03  0.18250000000E+03  0.00000000000E+00 0.  1.
        -11    1    1    2    0    0  0.12647355633E+03  0.93285195974E+02  0.16483674737E+02  0.15801708696E+03  0.00000000000E+00 0.  1.
         11    1    1    2    0    0 -0.12244814191E+03 -0.91779911343E+02  0.33398158429E+02  0.15662865820E+03  0.00000000000E+00 0.  1.
        -15    1    1    2    0    0 -0.13847487528E+01  0.57019712917E+00 -0.89625671812E+01  0.92589412651E+01  0.17770000000E+01 0.  1.
         15    1    1    2    0    0 -0.26406656654E+01 -0.20754817601E+01 -0.40919265985E+02  0.41095313571E+02  0.17770000000E+01 0.  1.
</event>
<event>
 6    1  0.4347959E-006  0.1732597E+03  0.7546771E-02  0.1076058E+00
        -11   -1    0    0    0    0  0.00000000000E+00  0.00000000000E+00  0.18250000000E+03  0.18250000000E+03  0.00000000000E+00 0. -1.
         11   -1    0    0    0    0 -0.00000000000E+00 -0.00000000000E+00 -0.18250000000E+03  0.18250000000E+03  0.00000000000E+00 0.  1.
        -11    1    1    2    0    0 -0.11412133891E+03 -0.23569394630E+02 -0.13286394184E+03  0.17672584247E+03  0.00000000000E+00 0.  1.
         11    1    1    2    0    0  0.11970645277E+03  0.25305382677E+02  0.11824309093E+03  0.17015118507E+03  0.00000000000E+00 0. -1.
        -15    1    1    2    0    0 -0.44381442986E+01  0.18637027335E+01  0.34124380209E+01  0.61622215913E+01  0.17770000000E+01 0. -1.
         15    1    1    2    0    0 -0.11469695615E+01 -0.35996907811E+01  0.11208412885E+02  0.11960750867E+02  0.17770000000E+01 0.  1.
</event>
<event>
 6    1  0.4347959E-006  0.1212484E+03  0.7546771E-02  0.1131433E+00
        -11   -1    0    0    0    0  0.00000000000E+00  0.00000000000E+00  0.18250000000E+03  0.18250000000E+03  0.00000000000E+00 0.  1.
         11   -1    0    0    0    0 -0.00000000000E+00 -0.00000000000E+00 -0.18250000000E+03  0.18250000000E+03  0.00000000000E+00 0.  1.
        -11    1    1    2    0    0  0.60997536118E+02 -0.31731948694E+02 -0.11155861451E+03  0.13104556631E+03  0.00000000000E+00 0.  1.
         11    1    1    2    0    0 -0.18416382878E+02 -0.61989372462E+02  0.92186673494E+02  0.11260651947E+03  0.00000000000E+00 0.  1.
        -15    1    1    2    0    0 -0.58365449067E+02  0.74021283086E+02  0.18154877553E+02  0.96012672614E+02  0.17770000000E+01 0. -1.
         15    1    1    2    0    0  0.15784295827E+02  0.19700038070E+02  0.12170634583E+01  0.25335241605E+02  0.17770000000E+01 0.  1.
</event>
<event>
 6    1  0.4347959E-006  0.1650513E+03  0.7546771E-02  0.1083260E+00
        -11   -1    0    0    0    0  0.00000000000E+00  0.00000000000E+00  0.18250000000E+03  0.18250000000E+03  0.00000000000E+00 0. -1.
         11   -1    0    0    0    0 -0.00000000000E+00 -0.00000000000E+00 -0.18250000000E+03  0.18250000000E+03  0.00000000000E+00 0.  1.
        -11    1    1    2    0    0  0.45871037608E+02 -0.19756696036E+02 -0.16338342566E+03  0.17084678198E+03  0.00000000000E+00 0.  1.
         11    1    1    2    0    0 -0.59682307274E+02  0.30178152943E+02  0.14556045227E+03  0.16018908821E+03  0.00000000000E+00 0. -1.
        -15    1    1    2    0    0  0.16283790575E+02 -0.13382972467E+02  0.20070143092E+02  0.29158775013E+02  0.17770000000E+01 0. -1.
         15    1    1    2    0    0 -0.24725209089E+01  0.29615155599E+01 -0.22471697015E+01  0.48053547969E+01  0.17770000000E+01 0.  1.
</event>
<event>
 6    1  0.4347959E-006  0.1850339E+03  0.7546771E-02  0.1066456E+00
        -11   -1    0    0    0    0  0.00000000000E+00  0.00000000000E+00  0.18250000000E+03  0.18250000000E+03  0.00000000000E+00 0.  1.
         11   -1    0    0    0    0 -0.00000000000E+00 -0.00000000000E+00 -0.18250000000E+03  0.18250000000E+03  0.00000000000E+00 0. -1.
        -11    1    1    2    0    0 -0.92187689821E+02 -0.96181958583E+02  0.12098866030E+03  0.17996609467E+03  0.00000000000E+00 0.  1.
         11    1    1    2    0    0  0.94468972194E+02  0.86064276184E+02 -0.11562085834E+03  0.17233580367E+03  0.00000000000E+00 0. -1.
        -15    1    1    2    0    0 -0.12970428052E+01  0.24450379333E+01 -0.29035638143E+01  0.43873616625E+01  0.17770000000E+01 0.  1.
         15    1    1    2    0    0 -0.98423956858E+00  0.76726444653E+01 -0.24642381434E+01  0.83107399939E+01  0.17770000000E+01 0.  1.
</event>
<event>
 6    1  0.4347959E-006  0.1967924E+03  0.7546771E-02  0.1057615E+00
        -11   -1    0    0    0    0  0.00000000000E+00  0.00000000000E+00  0.18250000000E+03  0.18250000000E+03  0.00000000000E+00 0. -1.
         11   -1    0    0    0    0 -0.00000000000E+00 -0.00000000000E+00 -0.18250000000E+03  0.18250000000E+03  0.00000000000E+00 0.  1.
        -11    1    1    2    0    0 -0.10066933328E+02 -0.59565184363E+02 -0.15698553717E+03  0.16820764910E+03  0.00000000000E+00 0.  1.
         11    1    1    2    0    0  0.31074157233E+02  0.33704187972E+02  0.79140767479E+02  0.91459480710E+02  0.00000000000E+00 0. -1.
        -15    1    1    2    0    0  0.80814079006E+01 -0.14176221094E+02  0.39265437685E+02  0.42558274445E+02  0.17770000000E+01 0.  1.
         15    1    1    2    0    0 -0.29088631806E+02  0.40037217485E+02  0.38579332006E+02  0.62774595748E+02  0.17770000000E+01 0. -1.
</event>
<event>
 6    1  0.4347959E-006  0.1891169E+03  0.7546771E-02  0.1063306E+00
        -11   -1    0    0    0    0  0.00000000000E+00  0.00000000000E+00  0.18250000000E+03  0.18250000000E+03  0.00000000000E+00 0.  1.
         11   -1    0    0    0    0 -0.00000000000E+00 -0.00000000000E+00 -0.18250000000E+03  0.18250000000E+03  0.00000000000E+00 0.  1.
        -11    1    1    2    0    0 -0.27148983282E+02 -0.12829556693E+03 -0.11720938344E+03  0.17588308433E+03  0.00000000000E+00 0.  1.
         11    1    1    2    0    0  0.46691793333E+02  0.86834315967E+02  0.94006522620E+02  0.13622609254E+03  0.00000000000E+00 0.  1.
        -15    1    1    2    0    0 -0.90865503418E+01  0.12685592948E+02  0.13541604396E+02  0.20736982523E+02  0.17770000000E+01 0. -1.
         15    1    1    2    0    0 -0.10456259709E+02  0.28775658013E+02  0.96612564225E+01  0.32153840608E+02  0.17770000000E+01 0.  1.
</event>
<event>
 6    1  0.4347959E-006  0.1864645E+03  0.7546771E-02  0.1065342E+00
        -11   -1    0    0    0    0  0.00000000000E+00  0.00000000000E+00  0.18250000000E+03  0.18250000000E+03  0.00000000000E+00 0.  1.
         11   -1    0    0    0    0 -0.00000000000E+00 -0.00000000000E+00 -0.18250000000E+03  0.18250000000E+03  0.00000000000E+00 0.  1.
        -11    1    1    2    0    0  0.73801846302E+02  0.18120562585E+02 -0.11257940556E+03  0.13582779488E+03  0.00000000000E+00 0.  1.
         11    1    1    2    0    0 -0.76303719138E+02 -0.10437766393E+02  0.16107055807E+03  0.17853551243E+03  0.00000000000E+00 0.  1.
        -15    1    1    2    0    0  0.22822282433E+01 -0.10593043766E+02 -0.40105361683E+02  0.41581473119E+02  0.17770000000E+01 0.  1.
         15    1    1    2    0    0  0.21964459293E+00  0.29102475734E+01 -0.83857908235E+01  0.90552195678E+01  0.17770000000E+01 0. -1.
</event>
<event>
 6    1  0.4347959E-006  0.1580175E+03  0.7546771E-02  0.1089807E+00
        -11   -1    0    0    0    0  0.00000000000E+00  0.00000000000E+00  0.18250000000E+03  0.18250000000E+03  0.00000000000E+00 0. -1.
         11   -1    0    0    0    0 -0.00000000000E+00 -0.00000000000E+00 -0.18250000000E+03  0.18250000000E+03  0.00000000000E+00 0.  1.
        -11    1    1    2    0    0  0.25611471902E+02 -0.70028044053E+02 -0.12970612862E+03  0.14961134398E+03  0.00000000000E+00 0.  1.
         11    1    1    2    0    0  0.11560972801E+02  0.90095328928E+02  0.14312623580E+03  0.16951679493E+03  0.00000000000E+00 0. -1.
        -15    1    1    2    0    0 -0.17175208145E+02 -0.15584989808E+02 -0.80270628096E+01  0.24606323344E+02  0.17770000000E+01 0. -1.
         15    1    1    2    0    0 -0.19997236558E+02 -0.44822950666E+01 -0.53930443723E+01  0.21265537746E+02  0.17770000000E+01 0.  1.
</event>
<event>
 6    1  0.4347959E-006  0.1948880E+03  0.7546771E-02  0.1059000E+00
        -11   -1    0    0    0    0  0.00000000000E+00  0.00000000000E+00  0.18250000000E+03  0.18250000000E+03  0.00000000000E+00 0. -1.
         11   -1    0    0    0    0 -0.00000000000E+00 -0.00000000000E+00 -0.18250000000E+03  0.18250000000E+03  0.00000000000E+00 0. -1.
        -11    1    1    2    0    0  0.47759868508E+02 -0.35843001868E+02 -0.53164205015E+02  0.79950975715E+02  0.00000000000E+00 0. -1.
         11    1    1    2    0    0 -0.81774519512E+02 -0.45968381164E+01  0.14909696554E+03  0.17011204571E+03  0.00000000000E+00 0. -1.
        -15    1    1    2    0    0  0.40368084252E+02  0.33442305021E+02 -0.71468419448E+02  0.88650226727E+02  0.17770000000E+01 0.  1.
         15    1    1    2    0    0 -0.63534332484E+01  0.69975349643E+01 -0.24464341075E+02  0.26286751851E+02  0.17770000000E+01 0. -1.
</event>
<event>
 6    1  0.4347959E-006  0.1870396E+03  0.7546771E-02  0.1064898E+00
        -11   -1    0    0    0    0  0.00000000000E+00  0.00000000000E+00  0.18250000000E+03  0.18250000000E+03  0.00000000000E+00 0.  1.
         11   -1    0    0    0    0 -0.00000000000E+00 -0.00000000000E+00 -0.18250000000E+03  0.18250000000E+03  0.00000000000E+00 0.  1.
        -11    1    1    2    0    0 -0.14969161098E+02 -0.73916290368E+02 -0.92610076208E+02  0.11943332860E+03  0.00000000000E+00 0.  1.
         11    1    1    2    0    0  0.19724785696E+02  0.82259612425E+02  0.15657005856E+03  0.17796037268E+03  0.00000000000E+00 0.  1.
        -15    1    1    2    0    0 -0.11585618801E+02 -0.76993195780E+01 -0.50288480604E+02  0.52207232214E+02  0.17770000000E+01 0.  1.
         15    1    1    2    0    0  0.68299942031E+01 -0.64400247830E+00 -0.13671501750E+02  0.15399066501E+02  0.17770000000E+01 0. -1.
</event>
<event>
 6    1  0.4347959E-006  0.1679524E+03  0.7546771E-02  0.1080663E+00
        -11   -1    0    0    0    0  0.00000000000E+00  0.00000000000E+00  0.18250000000E+03  0.18250000000E+03  0.00000000000E+00 0.  1.
         11   -1    0    0    0    0 -0.00000000000E+00 -0.00000000000E+00 -0.18250000000E+03  0.18250000000E+03  0.00000000000E+00 0. -1.
        -11    1    1    2    0    0  0.41817226957E+02  0.76798711301E+02 -0.14204696337E+03  0.16680546253E+03  0.00000000000E+00 0. -1.
         11    1    1    2    0    0 -0.31166374727E+02 -0.97874060458E+02  0.13545086705E+03  0.16999297635E+03  0.00000000000E+00 0.  1.
        -15    1    1    2    0    0 -0.10507693655E+02  0.12852509119E+02 -0.11893333794E+01  0.16738305156E+02  0.17770000000E+01 0. -1.
         15    1    1    2    0    0 -0.14315857414E+00  0.82228400383E+01  0.77854296953E+01  0.11463255960E+02  0.17770000000E+01 0.  1.
</event>
<event>
 6    1  0.4347959E-006  0.1684453E+03  0.7546771E-02  0.1080227E+00
        -11   -1    0    0    0    0  0.00000000000E+00  0.00000000000E+00  0.18250000000E+03  0.18250000000E+03  0.00000000000E+00 0.  1.
         11   -1    0    0    0    0 -0.00000000000E+00 -0.00000000000E+00 -0.18250000000E+03  0.18250000000E+03  0.00000000000E+00 0. -1.
        -11    1    1    2    0    0  0.10951884306E+03 -0.10264847120E+03  0.68891868741E+02  0.16515803100E+03  0.00000000000E+00 0.  1.
         11    1    1    2    0    0 -0.10953804983E+03  0.11746240107E+03 -0.61910222819E+02  0.17213040323E+03  0.00000000000E+00 0. -1.
        -15    1    1    2    0    0 -0.28501963147E+00 -0.16973383032E+02 -0.12742624963E+02  0.21300450410E+02  0.17770000000E+01 0. -1.
         15    1    1    2    0    0  0.30422639677E+00  0.21594531565E+01  0.57609790409E+01  0.64111153589E+01  0.17770000000E+01 0.  1.
</event>
<event>
 6    1  0.4347959E-006  0.1272368E+03  0.7546771E-02  0.1123616E+00
        -11   -1    0    0    0    0  0.00000000000E+00  0.00000000000E+00  0.18250000000E+03  0.18250000000E+03  0.00000000000E+00 0.  1.
         11   -1    0    0    0    0 -0.00000000000E+00 -0.00000000000E+00 -0.18250000000E+03  0.18250000000E+03  0.00000000000E+00 0.  1.
        -11    1    1    2    0    0 -0.55250050117E+02  0.70386004596E+02 -0.71714824076E+02  0.11467246258E+03  0.00000000000E+00 0.  1.
         11    1    1    2    0    0 -0.45108384968E+02 -0.77735735626E+02 -0.37583801534E+02  0.97417416952E+02  0.00000000000E+00 0.  1.
        -15    1    1    2    0    0  0.23778328729E+02  0.17143133779E+02  0.35752720599E+02  0.46267815078E+02  0.17770000000E+01 0. -1.
         15    1    1    2    0    0  0.76580106356E+02 -0.97934027486E+01  0.73545905011E+02  0.10664230539E+03  0.17770000000E+01 0.  1.
</event>
<event>
 6    1  0.4347959E-006  0.1386697E+03  0.7546771E-02  0.1109936E+00
        -11   -1    0    0    0    0  0.00000000000E+00  0.00000000000E+00  0.18250000000E+03  0.18250000000E+03  0.00000000000E+00 0.  1.
         11   -1    0    0    0    0 -0.00000000000E+00 -0.00000000000E+00 -0.18250000000E+03  0.18250000000E+03  0.00000000000E+00 0. -1.
        -11    1    1    2    0    0  0.87611360433E+02 -0.43028697655E+02 -0.99532170240E+02  0.13940542390E+03  0.00000000000E+00 0. -1.
         11    1    1    2    0    0 -0.27254832592E+02  0.50074286563E+02  0.13522001481E+03  0.14674710382E+03  0.00000000000E+00 0.  1.
        -15    1    1    2    0    0 -0.49876895809E+02 -0.19391921238E+02 -0.23360282938E+02  0.58417564934E+02  0.17770000000E+01 0. -1.
         15    1    1    2    0    0 -0.10479632032E+02  0.12346332331E+02 -0.12327561632E+02  0.20429907351E+02  0.17770000000E+01 0.  1.
</event>
<event>
 6    1  0.4347959E-006  0.1852478E+03  0.7546771E-02  0.1066288E+00
        -11   -1    0    0    0    0  0.00000000000E+00  0.00000000000E+00  0.18250000000E+03  0.18250000000E+03  0.00000000000E+00 0. -1.
         11   -1    0    0    0    0 -0.00000000000E+00 -0.00000000000E+00 -0.18250000000E+03  0.18250000000E+03  0.00000000000E+00 0. -1.
        -11    1    1    2    0    0  0.59692252087E+02  0.11156855082E+03 -0.11749058088E+03  0.17266946194E+03  0.00000000000E+00 0. -1.
         11    1    1    2    0    0 -0.59618546678E+02 -0.11691331603E+03  0.12283220620E+03  0.17975217788E+03  0.00000000000E+00 0. -1.
        -15    1    1    2    0    0  0.46250398040E+01  0.24189758428E+01 -0.19524678998E+01  0.58491279022E+01  0.17770000000E+01 0. -1.
         15    1    1    2    0    0 -0.46987452129E+01  0.29257893719E+01 -0.33891574215E+01  0.67292322781E+01  0.17770000000E+01 0.  1.
</event>
<event>
 6    1  0.4347959E-006  0.1748691E+03  0.7546771E-02  0.1074697E+00
        -11   -1    0    0    0    0  0.00000000000E+00  0.00000000000E+00  0.18250000000E+03  0.18250000000E+03  0.00000000000E+00 0.  1.
         11   -1    0    0    0    0 -0.00000000000E+00 -0.00000000000E+00 -0.18250000000E+03  0.18250000000E+03  0.00000000000E+00 0. -1.
        -11    1    1    2    0    0 -0.15499688015E+03 -0.82171495884E+02 -0.10393322148E+02  0.17573903589E+03  0.00000000000E+00 0.  1.
         11    1    1    2    0    0  0.15817437322E+03  0.70994139525E+02  0.17590422196E+02  0.17426624213E+03  0.00000000000E+00 0. -1.
        -15    1    1    2    0    0 -0.40136770280E+01  0.84236512494E+01 -0.65837138045E+01  0.11557271309E+02  0.17770000000E+01 0.  1.
         15    1    1    2    0    0  0.83618395202E+00  0.27537051095E+01 -0.61338624356E+00  0.34374506710E+01  0.17770000000E+01 0.  1.
</event>
<event>
 6    1  0.4347959E-006  0.1938198E+03  0.7546771E-02  0.1059785E+00
        -11   -1    0    0    0    0  0.00000000000E+00  0.00000000000E+00  0.18250000000E+03  0.18250000000E+03  0.00000000000E+00 0. -1.
         11   -1    0    0    0    0 -0.00000000000E+00 -0.00000000000E+00 -0.18250000000E+03  0.18250000000E+03  0.00000000000E+00 0.  1.
        -11    1    1    2    0    0 -0.10446613814E+01 -0.70133781784E+02 -0.15614997041E+03  0.17118017386E+03  0.00000000000E+00 0.  1.
         11    1    1    2    0    0 -0.35118573176E+01  0.65726665024E+02  0.67681566567E+02  0.94409332642E+02  0.00000000000E+00 0. -1.
        -15    1    1    2    0    0 -0.42232264920E+01  0.90850621316E+01 -0.19116066669E+00  0.10176849578E+02  0.17770000000E+01 0. -1.
         15    1    1    2    0    0  0.87797451910E+01 -0.46779453722E+01  0.88659564510E+02  0.89233643916E+02  0.17770000000E+01 0.  1.
</event>
<event>
 6    1  0.4347959E-006  0.1891697E+03  0.7546771E-02  0.1063266E+00
        -11   -1    0    0    0    0  0.00000000000E+00  0.00000000000E+00  0.18250000000E+03  0.18250000000E+03  0.00000000000E+00 0. -1.
         11   -1    0    0    0    0 -0.00000000000E+00 -0.00000000000E+00 -0.18250000000E+03  0.18250000000E+03  0.00000000000E+00 0. -1.
        -11    1    1    2    0    0 -0.24449106795E+02 -0.17359468291E+03 -0.13543702667E+02  0.17583032912E+03  0.00000000000E+00 0. -1.
         11    1    1    2    0    0  0.62678965320E+01  0.76915600888E+02  0.34989364601E+02  0.84732236027E+02  0.00000000000E+00 0. -1.
        -15    1    1    2    0    0  0.28905968372E+01  0.80286884739E+00  0.26604605565E+01  0.43858782284E+01  0.17770000000E+01 0.  1.
         15    1    1    2    0    0  0.15290613426E+02  0.95876213175E+02 -0.24106122491E+02  0.10005155662E+03  0.17770000000E+01 0. -1.
</event>
<event>
 6    1  0.4347959E-006  0.1865595E+03  0.7546771E-02  0.1065269E+00
        -11   -1    0    0    0    0  0.00000000000E+00  0.00000000000E+00  0.18250000000E+03  0.18250000000E+03  0.00000000000E+00 0. -1.
         11   -1    0    0    0    0 -0.00000000000E+00 -0.00000000000E+00 -0.18250000000E+03  0.18250000000E+03  0.00000000000E+00 0. -1.
        -11    1    1    2    0    0 -0.31933266991E+02 -0.44480434471E+02  0.62591510640E+02  0.83162129577E+02  0.00000000000E+00 0. -1.
         11    1    1    2    0    0  0.36675152254E+02 -0.68905119233E+02  0.67808807844E+02  0.10339737265E+03  0.00000000000E+00 0. -1.
        -15    1    1    2    0    0  0.16788170079E+02  0.33589300046E+02 -0.28221321731E+02  0.47007280941E+02  0.17770000000E+01 0.  1.
         15    1    1    2    0    0 -0.21530055342E+02  0.79796253657E+02 -0.10217899675E+03  0.13143321683E+03  0.17770000000E+01 0. -1.
</event>
<event>
 6    1  0.4347959E-006  0.1322725E+03  0.7546771E-02  0.1117403E+00
        -11   -1    0    0    0    0  0.00000000000E+00  0.00000000000E+00  0.18250000000E+03  0.18250000000E+03  0.00000000000E+00 0. -1.
         11   -1    0    0    0    0 -0.00000000000E+00 -0.00000000000E+00 -0.18250000000E+03  0.18250000000E+03  0.00000000000E+00 0. -1.
        -11    1    1    2    0    0 -0.56360543216E+02 -0.48034247975E+00  0.65858744186E+02  0.86683999367E+02  0.00000000000E+00 0. -1.
         11    1    1    2    0    0  0.48781180318E+02  0.16117823021E+01  0.10049912855E+03  0.11172410767E+03  0.00000000000E+00 0. -1.
        -15    1    1    2    0    0  0.35380021017E+01  0.44080770589E+00 -0.92265761604E+02  0.92351720415E+02  0.17770000000E+01 0. -1.
         15    1    1    2    0    0  0.40413607959E+01 -0.15722475282E+01 -0.74092111130E+02  0.74240172549E+02  0.17770000000E+01 0. -1.
</event>
<event>
 6    1  0.4347959E-006  0.1464038E+03  0.7546771E-02  0.1101480E+00
        -11   -1    0    0    0    0  0.00000000000E+00  0.00000000000E+00  0.18250000000E+03  0.18250000000E+03  0.00000000000E+00 0. -1.
         11   -1    0    0    0    0 -0.00000000000E+00 -0.00000000000E+00 -0.18250000000E+03  0.18250000000E+03  0.00000000000E+00 0.  1.
        -11    1    1    2    0    0  0.62177866598E+02 -0.10275753965E+03 -0.75756902315E+02  0.14200108203E+03  0.00000000000E+00 0.  1.
         11    1    1    2    0    0 -0.47650266147E+02  0.14690082469E+03  0.31905001172E+02  0.15769695386E+03  0.00000000000E+00 0. -1.
        -15    1    1    2    0    0 -0.47543501100E+00 -0.21714354867E+02  0.21512074633E+02  0.30621337817E+02  0.17770000000E+01 0.  1.
         15    1    1    2    0    0 -0.14052165440E+02 -0.22428930172E+02  0.22339826510E+02  0.34680626288E+02  0.17770000000E+01 0. -1.
</event>
<event>
 6    1  0.4347959E-006  0.1837498E+03  0.7546771E-02  0.1067464E+00
        -11   -1    0    0    0    0  0.00000000000E+00  0.00000000000E+00  0.18250000000E+03  0.18250000000E+03  0.00000000000E+00 0.  1.
         11   -1    0    0    0    0 -0.00000000000E+00 -0.00000000000E+00 -0.18250000000E+03  0.18250000000E+03  0.00000000000E+00 0. -1.
        -11    1    1    2    0    0 -0.39364645721E+02 -0.69430526334E+02  0.16273129127E+03  0.18125023166E+03  0.00000000000E+00 0.  1.
         11    1    1    2    0    0  0.19623390699E+02  0.53668812905E+02 -0.94188548907E+02  0.11016760725E+03  0.00000000000E+00 0. -1.
        -15    1    1    2    0    0  0.14475783545E+02  0.10846811855E+02 -0.57288307232E+02  0.60102491722E+02  0.17770000000E+01 0.  1.
         15    1    1    2    0    0  0.52654714765E+01  0.49149015738E+01 -0.11254435127E+02  0.13479669372E+02  0.17770000000E+01 0.  1.
</event>
<event>
 6    1  0.4347959E-006  0.1929645E+03  0.7546771E-02  0.1060417E+00
        -11   -1    0    0    0    0  0.00000000000E+00  0.00000000000E+00  0.18250000000E+03  0.18250000000E+03  0.00000000000E+00 0. -1.
         11   -1    0    0    0    0 -0.00000000000E+00 -0.00000000000E+00 -0.18250000000E+03  0.18250000000E+03  0.00000000000E+00 0. -1.
        -11    1    1    2    0    0  0.34276496240E+02 -0.11837948018E+03 -0.46763989450E+02  0.13181597107E+03  0.00000000000E+00 0. -1.
         11    1    1    2    0    0 -0.51633366626E+01  0.16889243892E+03  0.32324626700E+02  0.17203545408E+03  0.00000000000E+00 0. -1.
        -15    1    1    2    0    0 -0.25664031200E+02 -0.40793048980E+02  0.15431390419E+02  0.50635964311E+02  0.17770000000E+01 0. -1.
         15    1    1    2    0    0 -0.34491283779E+01 -0.97199097624E+01 -0.99202766903E+00  0.10512610535E+02  0.17770000000E+01 0.  1.
</event>
<event>
 6    1  0.4347959E-006  0.1775499E+03  0.7546771E-02  0.1072465E+00
        -11   -1    0    0    0    0  0.00000000000E+00  0.00000000000E+00  0.18250000000E+03  0.18250000000E+03  0.00000000000E+00 0. -1.
         11   -1    0    0    0    0 -0.00000000000E+00 -0.00000000000E+00 -0.18250000000E+03  0.18250000000E+03  0.00000000000E+00 0. -1.
        -11    1    1    2    0    0  0.56578757679E+02 -0.49075774740E+02 -0.16038398002E+03  0.17701019331E+03  0.00000000000E+00 0. -1.
         11    1    1    2    0    0 -0.55054399279E+02  0.57208646794E+02  0.15952047431E+03  0.17818697448E+03  0.00000000000E+00 0. -1.
        -15    1    1    2    0    0  0.10998859766E+01 -0.41381869433E+01  0.30625968529E-01  0.46360551430E+01  0.17770000000E+01 0. -1.
         15    1    1    2    0    0 -0.26242443767E+01 -0.39946851108E+01  0.83287973993E+00  0.51667770751E+01  0.17770000000E+01 0. -1.
</event>
<event>
 6    1  0.4347959E-006  0.1634691E+03  0.7546771E-02  0.1084701E+00
        -11   -1    0    0    0    0  0.00000000000E+00  0.00000000000E+00  0.18250000000E+03  0.18250000000E+03  0.00000000000E+00 0. -1.
         11   -1    0    0    0    0 -0.00000000000E+00 -0.00000000000E+00 -0.18250000000E+03  0.18250000000E+03  0.00000000000E+00 0. -1.
        -11    1    1    2    0    0  0.57511222479E+02 -0.10242001869E+03 -0.11722871607E+03  0.16595171831E+03  0.00000000000E+00 0. -1.
         11    1    1    2    0    0 -0.75740714687E+02  0.11096473772E+03  0.91602905925E+02  0.16260664578E+03  0.00000000000E+00 0. -1.
        -15    1    1    2    0    0  0.12071384554E+02  0.23962488327E+01  0.82163834734E+01  0.14903926325E+02  0.17770000000E+01 0. -1.
         15    1    1    2    0    0  0.61581076534E+01 -0.10940967866E+02  0.17409426674E+02  0.21537709577E+02  0.17770000000E+01 0. -1.
</event>
<event>
 6    1  0.4347959E-006  0.1383172E+03  0.7546771E-02  0.1110335E+00
        -11   -1    0    0    0    0  0.00000000000E+00  0.00000000000E+00  0.18250000000E+03  0.18250000000E+03  0.00000000000E+00 0. -1.
         11   -1    0    0    0    0 -0.00000000000E+00 -0.00000000000E+00 -0.18250000000E+03  0.18250000000E+03  0.00000000000E+00 0.  1.
        -11    1    1    2    0    0  0.94889913380E+02 -0.68733076368E+02 -0.11571568961E+03  0.16467681157E+03  0.00000000000E+00 0.  1.
         11    1    1    2    0    0 -0.10094110499E+03  0.57540109860E+02  0.39204454363E+02  0.12262528353E+03  0.00000000000E+00 0. -1.
        -15    1    1    2    0    0  0.28676636520E+01  0.71489434047E+01  0.38949352570E+02  0.39743435700E+02  0.17770000000E+01 0. -1.
         15    1    1    2    0    0  0.31835279532E+01  0.40440231029E+01  0.37561882675E+02  0.37954469199E+02  0.17770000000E+01 0. -1.
</event>
<event>
 6    1  0.4347959E-006  0.1262900E+03  0.7546771E-02  0.1124820E+00
        -11   -1    0    0    0    0  0.00000000000E+00  0.00000000000E+00  0.18250000000E+03  0.18250000000E+03  0.00000000000E+00 0. -1.
         11   -1    0    0    0    0 -0.00000000000E+00 -0.00000000000E+00 -0.18250000000E+03  0.18250000000E+03  0.00000000000E+00 0. -1.
        -11    1    1    2    0    0 -0.10885215237E+03 -0.40023864292E+01  0.22526655169E+02  0.11123066288E+03  0.00000000000E+00 0. -1.
         11    1    1    2    0    0  0.10655152718E+03  0.36612950129E+02 -0.11160253915E+03  0.15858392985E+03  0.00000000000E+00 0. -1.
        -15    1    1    2    0    0  0.49111988418E+00 -0.37745460226E+01  0.17057458734E+02  0.17567100611E+02  0.17770000000E+01 0.  1.
         15    1    1    2    0    0  0.18095053050E+01 -0.28836017677E+02  0.72018425246E+02  0.77618306660E+02  0.17770000000E+01 0. -1.
</event>
<event>
 6    1  0.4347959E-006  0.1202618E+03  0.7546771E-02  0.1132769E+00
        -11   -1    0    0    0    0  0.00000000000E+00  0.00000000000E+00  0.18250000000E+03  0.18250000000E+03  0.00000000000E+00 0. -1.
         11   -1    0    0    0    0 -0.00000000000E+00 -0.00000000000E+00 -0.18250000000E+03  0.18250000000E+03  0.00000000000E+00 0. -1.
        -11    1    1    2    0    0 -0.47567050298E+02  0.61147375611E+02 -0.11221042382E+03  0.13635543639E+03  0.00000000000E+00 0. -1.
         11    1    1    2    0    0  0.10301865808E+03  0.10845244664E+02  0.68865393956E+02  0.12439013517E+03  0.00000000000E+00 0. -1.
        -15    1    1    2    0    0 -0.23530473585E+02 -0.15891348637E+02  0.22907814340E+02  0.36525933738E+02  0.17770000000E+01 0.  1.
         15    1    1    2    0    0 -0.31921134192E+02 -0.56101271638E+02  0.20437215523E+02  0.67728494704E+02  0.17770000000E+01 0. -1.
</event>
<event>
 6    1  0.4347959E-006  0.1185347E+03  0.7546771E-02  0.1135141E+00
        -11   -1    0    0    0    0  0.00000000000E+00  0.00000000000E+00  0.18250000000E+03  0.18250000000E+03  0.00000000000E+00 0. -1.
         11   -1    0    0    0    0 -0.00000000000E+00 -0.00000000000E+00 -0.18250000000E+03  0.18250000000E+03  0.00000000000E+00 0. -1.
        -11    1    1    2    0    0  0.10943094114E+03 -0.10440085790E+02 -0.77911028601E+01  0.11020357323E+03  0.00000000000E+00 0. -1.
         11    1    1    2    0    0 -0.10118201721E+03 -0.19919482255E+02  0.10729784121E+03  0.14882006957E+03  0.00000000000E+00 0. -1.
        -15    1    1    2    0    0  0.51988547227E+01  0.44760051062E+01 -0.23509661567E+02  0.24554523578E+02  0.17770000000E+01 0. -1.
         15    1    1    2    0    0 -0.13447778656E+02  0.25883562940E+02 -0.75997076781E+02  0.81421833616E+02  0.17770000000E+01 0. -1.
</event>
<event>
 6    1  0.4347959E-006  0.1852253E+03  0.7546771E-02  0.1066306E+00
        -11   -1    0    0    0    0  0.00000000000E+00  0.00000000000E+00  0.18250000000E+03  0.18250000000E+03  0.00000000000E+00 0. -1.
         11   -1    0    0    0    0 -0.00000000000E+00 -0.00000000000E+00 -0.18250000000E+03  0.18250000000E+03  0.00000000000E+00 0. -1.
        -11    1    1    2    0    0 -0.90044222235E+02 -0.12933793894E+03  0.86502477351E+02  0.17977470065E+03  0.00000000000E+00 0. -1.
         11    1    1    2    0    0  0.92512177388E+02  0.11388864218E+03 -0.81054895679E+02  0.16762762868E+03  0.00000000000E+00 0. -1.
        -15    1    1    2    0    0 -0.27986777950E+01  0.90952116244E+01 -0.51956007529E+01  0.10986695048E+02  0.17770000000E+01 0.  1.
         15    1    1    2    0    0  0.33072264129E+00  0.63540851282E+01 -0.25198091871E+00  0.66109756213E+01  0.17770000000E+01 0.  1.
</event>
<event>
 6    1  0.4347959E-006  0.1835345E+03  0.7546771E-02  0.1067634E+00
        -11   -1    0    0    0    0  0.00000000000E+00  0.00000000000E+00  0.18250000000E+03  0.18250000000E+03  0.00000000000E+00 0.  1.
         11   -1    0    0    0    0 -0.00000000000E+00 -0.00000000000E+00 -0.18250000000E+03  0.18250000000E+03  0.00000000000E+00 0.  1.
        -11    1    1    2    0    0  0.17801977591E+03  0.75807907181E+00  0.35186909901E+02  0.18146551718E+03  0.00000000000E+00 0.  1.
         11    1    1    2    0    0 -0.16643163901E+03 -0.51955585444E+01 -0.30385530862E+02  0.16926241395E+03  0.00000000000E+00 0.  1.
        -15    1    1    2    0    0 -0.36970106070E+01  0.12457734561E+01 -0.33841100391E+01  0.54616635459E+01  0.17770000000E+01 0. -1.
         15    1    1    2    0    0 -0.78911262951E+01  0.31917060166E+01 -0.14172690000E+01  0.88104053210E+01  0.17770000000E+01 0.  1.
</event>
<event>
 6    1  0.4347959E-006  0.1627033E+03  0.7546771E-02  0.1085405E+00
        -11   -1    0    0    0    0  0.00000000000E+00  0.00000000000E+00  0.18250000000E+03  0.18250000000E+03  0.00000000000E+00 0.  1.
         11   -1    0    0    0    0 -0.00000000000E+00 -0.00000000000E+00 -0.18250000000E+03  0.18250000000E+03  0.00000000000E+00 0. -1.
        -11    1    1    2    0    0 -0.14462250648E+03  0.18141605961E+02 -0.83212559538E+02  0.16783657918E+03  0.00000000000E+00 0. -1.
         11    1    1    2    0    0  0.13269279830E+03 -0.44129478971E+02  0.75493460932E+02  0.15891523614E+03  0.00000000000E+00 0.  1.
        -15    1    1    2    0    0 -0.34830992543E+01 -0.14997731478E+01  0.50659974360E+01  0.65729262077E+01  0.17770000000E+01 0.  1.
         15    1    1    2    0    0  0.15412807428E+02  0.27487646158E+02  0.26531011702E+01  0.31675258467E+02  0.17770000000E+01 0. -1.
</event>
<event>
 6    1  0.4347959E-006  0.1439784E+03  0.7546771E-02  0.1104068E+00
        -11   -1    0    0    0    0  0.00000000000E+00  0.00000000000E+00  0.18250000000E+03  0.18250000000E+03  0.00000000000E+00 0. -1.
         11   -1    0    0    0    0 -0.00000000000E+00 -0.00000000000E+00 -0.18250000000E+03  0.18250000000E+03  0.00000000000E+00 0.  1.
        -11    1    1    2    0    0  0.92110860063E+01  0.84872400079E+02 -0.11154241969E+03  0.14046309049E+03  0.00000000000E+00 0.  1.
         11    1    1    2    0    0 -0.51762565848E+01 -0.72900549838E+02  0.12904284513E+03  0.14830151610E+03  0.00000000000E+00 0. -1.
        -15    1    1    2    0    0 -0.12138763454E+02 -0.29187356057E+02 -0.37159579647E+02  0.48818474170E+02  0.17770000000E+01 0.  1.
         15    1    1    2    0    0  0.81039340324E+01  0.17215505816E+02  0.19659154209E+02  0.27416919238E+02  0.17770000000E+01 0. -1.
</event>
<event>
 6    1  0.4347959E-006  0.1232530E+03  0.7546771E-02  0.1128762E+00
        -11   -1    0    0    0    0  0.00000000000E+00  0.00000000000E+00  0.18250000000E+03  0.18250000000E+03  0.00000000000E+00 0. -1.
         11   -1    0    0    0    0 -0.00000000000E+00 -0.00000000000E+00 -0.18250000000E+03  0.18250000000E+03  0.00000000000E+00 0.  1.
        -11    1    1    2    0    0 -0.90617522815E+02  0.82557254840E+02 -0.24958432621E+02  0.12510059603E+03  0.00000000000E+00 0. -1.
         11    1    1    2    0    0  0.62979617895E+02 -0.10631366116E+03 -0.66601435059E+02  0.14037370826E+03  0.00000000000E+00 0.  1.
        -15    1    1    2    0    0  0.45389027050E+01 -0.83163340340E+00  0.81323397268E+01  0.95176641207E+01  0.17770000000E+01 0.  1.
         15    1    1    2    0    0  0.23099002215E+02  0.24588039725E+02  0.83427527952E+02  0.90008031587E+02  0.17770000000E+01 0. -1.
</event>
<event>
 6    1  0.4347959E-006  0.1870538E+03  0.7546771E-02  0.1064887E+00
        -11   -1    0    0    0    0  0.00000000000E+00  0.00000000000E+00  0.18250000000E+03  0.18250000000E+03  0.00000000000E+00 0.  1.
         11   -1    0    0    0    0 -0.00000000000E+00 -0.00000000000E+00 -0.18250000000E+03  0.18250000000E+03  0.00000000000E+00 0.  1.
        -11    1    1    2    0    0  0.86132038256E+02 -0.10814659627E+03  0.11202875447E+03  0.17794621695E+03  0.00000000000E+00 0.  1.
         11    1    1    2    0    0 -0.84986136882E+02  0.10758643707E+03 -0.11124488720E+03  0.17655851674E+03  0.00000000000E+00 0.  1.
        -15    1    1    2    0    0 -0.12570091471E+00 -0.43560866511E+01 -0.18617323205E+01  0.50611330614E+01  0.17770000000E+01 0.  1.
         15    1    1    2    0    0 -0.10202004595E+01  0.49162458431E+01  0.10778650550E+01  0.54341332561E+01  0.17770000000E+01 0. -1.
</event>
<event>
 6    1  0.4347959E-006  0.1929775E+03  0.7546771E-02  0.1060408E+00
        -11   -1    0    0    0    0  0.00000000000E+00  0.00000000000E+00  0.18250000000E+03  0.18250000000E+03  0.00000000000E+00 0.  1.
         11   -1    0    0    0    0 -0.00000000000E+00 -0.00000000000E+00 -0.18250000000E+03  0.18250000000E+03  0.00000000000E+00 0. -1.
        -11    1    1    2    0    0  0.59385868136E+02  0.11067020714E+03  0.49900980278E+02  0.13514689754E+03  0.00000000000E+00 0.  1.
         11    1    1    2    0    0 -0.55996887564E+02 -0.12440398846E+03 -0.10478429767E+03  0.17202253573E+03  0.00000000000E+00 0. -1.
        -15    1    1    2    0    0 -0.62906426151E+01  0.62395092876E+01  0.19344553282E+02  0.21351185713E+02  0.17770000000E+01 0. -1.
         15    1    1    2    0    0  0.29016620440E+01  0.74942720285E+01  0.35538764110E+02  0.36479381016E+02  0.17770000000E+01 0.  1.
</event>
<event>
 6    1  0.4844247E-006  0.1888154E+03  0.7546771E-02  0.1063536E+00
        -11   -1    0    0    0    0  0.00000000000E+00  0.00000000000E+00  0.18250000000E+03  0.18250000000E+03  0.00000000000E+00 0. -1.
         11   -1    0    0    0    0 -0.00000000000E+00 -0.00000000000E+00 -0.18250000000E+03  0.18250000000E+03  0.00000000000E+00 0. -1.
        -11    1    1    2    0    0  0.99306973838E+02  0.77191053703E+02 -0.12337218656E+03  0.17618464814E+03  0.00000000000E+00 0. -1.
         11    1    1    2    0    0 -0.99605310702E+02 -0.76756687016E+02  0.89222488798E+02  0.15418644373E+03  0.00000000000E+00 0. -1.
        -15    1    1    2    0    0 -0.41998802807E+00 -0.13453248726E+01  0.62531779964E+01  0.66517857009E+01  0.17770000000E+01 0.  1.
         15    1    1    2    0    0  0.71832489201E+00  0.91095818615E+00  0.27896519765E+02  0.27977122430E+02  0.17770000000E+01 0. -1.
</event>
<event>
 6    1  0.4347959E-006  0.1189153E+03  0.7546771E-02  0.1134615E+00
        -11   -1    0    0    0    0  0.00000000000E+00  0.00000000000E+00  0.18250000000E+03  0.18250000000E+03  0.00000000000E+00 0.  1.
         11   -1    0    0    0    0 -0.00000000000E+00 -0.00000000000E+00 -0.18250000000E+03  0.18250000000E+03  0.00000000000E+00 0.  1.
        -11    1    1    2    0    0 -0.27968631498E+02 -0.12518296381E+03  0.76313246361E+02  0.14925391233E+03  0.00000000000E+00 0.  1.
         11    1    1    2    0    0  0.80132006191E+01  0.10619312975E+03  0.17663648010E+02  0.10794997291E+03  0.00000000000E+00 0.  1.
        -15    1    1    2    0    0 -0.73138750394E+01  0.85640215121E+01 -0.67139899554E+02  0.68101094511E+02  0.17770000000E+01 0.  1.
         15    1    1    2    0    0  0.27269305918E+02  0.10425812549E+02 -0.26836994818E+02  0.39695020247E+02  0.17770000000E+01 0. -1.
</event>
<event>
 6    1  0.4347959E-006  0.1161178E+03  0.7546771E-02  0.1138538E+00
        -11   -1    0    0    0    0  0.00000000000E+00  0.00000000000E+00  0.18250000000E+03  0.18250000000E+03  0.00000000000E+00 0. -1.
         11   -1    0    0    0    0 -0.00000000000E+00 -0.00000000000E+00 -0.18250000000E+03  0.18250000000E+03  0.00000000000E+00 0.  1.
        -11    1    1    2    0    0 -0.65787007429E+02 -0.57240968993E+02  0.84252323705E+02  0.12125556864E+03  0.00000000000E+00 0. -1.
         11    1    1    2    0    0  0.10734384830E+03  0.79944625211E+02  0.11382237829E+02  0.13432572429E+03  0.00000000000E+00 0.  1.
        -15    1    1    2    0    0 -0.43198920188E+02 -0.24802339438E+02 -0.87930672391E+02  0.10107553425E+03  0.17770000000E+01 0. -1.
         15    1    1    2    0    0  0.16420793144E+01  0.20986832194E+01 -0.77038891429E+01  0.83431728171E+01  0.17770000000E+01 0.  1.
</event>
<event>
 6    1  0.4347959E-006  0.1516412E+03  0.7546771E-02  0.1096074E+00
        -11   -1    0    0    0    0  0.00000000000E+00  0.00000000000E+00  0.18250000000E+03  0.18250000000E+03  0.00000000000E+00 0.  1.
         11   -1    0    0    0    0 -0.00000000000E+00 -0.00000000000E+00 -0.18250000000E+03  0.18250000000E+03  0.00000000000E+00 0. -1.
        -11    1    1    2    0    0 -0.89594599255E+02  0.10930475198E+03 -0.27348082457E+02  0.14395359889E+03  0.00000000000E+00 0. -1.
         11    1    1    2    0    0  0.79153425221E+02 -0.13307777459E+03  0.43654144585E+02  0.16087461936E+03  0.00000000000E+00 0.  1.
        -15    1    1    2    0    0 -0.77445267490E+01  0.35247269546E+02 -0.77040134394E+01  0.36943974571E+02  0.17770000000E+01 0.  1.
         15    1    1    2    0    0  0.18185700783E+02 -0.11474246933E+02 -0.86020486883E+01  0.23227807178E+02  0.17770000000E+01 0. -1.
</event>
<event>
 6    1  0.4347959E-006  0.1888148E+03  0.7546771E-02  0.1063536E+00
        -11   -1    0    0    0    0  0.00000000000E+00  0.00000000000E+00  0.18250000000E+03  0.18250000000E+03  0.00000000000E+00 0.  1.
         11   -1    0    0    0    0 -0.00000000000E+00 -0.00000000000E+00 -0.18250000000E+03  0.18250000000E+03  0.00000000000E+00 0.  1.
        -11    1    1    2    0    0  0.41836578397E+02  0.69400426445E+01 -0.12774108337E+03  0.13459661163E+03  0.00000000000E+00 0.  1.
         11    1    1    2    0    0 -0.17767531617E+02 -0.48858229495E+01  0.17521888438E+03  0.17618516932E+03  0.00000000000E+00 0.  1.
        -15    1    1    2    0    0 -0.23382233156E+02 -0.13897518770E+01 -0.46202374316E+02  0.51831239220E+02  0.17770000000E+01 0. -1.
         15    1    1    2    0    0 -0.68681362478E+00 -0.66446781802E+00 -0.12754266964E+01  0.23869798270E+01  0.17770000000E+01 0. -1.
</event>
<event>
 6    1  0.4347959E-006  0.1292077E+03  0.7546771E-02  0.1121147E+00
        -11   -1    0    0    0    0  0.00000000000E+00  0.00000000000E+00  0.18250000000E+03  0.18250000000E+03  0.00000000000E+00 0. -1.
         11   -1    0    0    0    0 -0.00000000000E+00 -0.00000000000E+00 -0.18250000000E+03  0.18250000000E+03  0.00000000000E+00 0. -1.
        -11    1    1    2    0    0 -0.98310868768E+02 -0.12940730170E+03  0.39974386953E+01  0.16256462151E+03  0.00000000000E+00 0. -1.
         11    1    1    2    0    0  0.29911596681E+02  0.69192329092E+02  0.53445404835E+02  0.92405050291E+02  0.00000000000E+00 0. -1.
        -15    1    1    2    0    0  0.60451926522E+02  0.47960075078E+02 -0.55759938325E+02  0.95220442515E+02  0.17770000000E+01 0. -1.
         15    1    1    2    0    0  0.79473455651E+01  0.12254897530E+02 -0.16829052059E+01  0.14809885683E+02  0.17770000000E+01 0.  1.
</event>
<event>
 6    1  0.4347959E-006  0.1922474E+03  0.7546771E-02  0.1060950E+00
        -11   -1    0    0    0    0  0.00000000000E+00  0.00000000000E+00  0.18250000000E+03  0.18250000000E+03  0.00000000000E+00 0. -1.
         11   -1    0    0    0    0 -0.00000000000E+00 -0.00000000000E+00 -0.18250000000E+03  0.18250000000E+03  0.00000000000E+00 0.  1.
        -11    1    1    2    0    0  0.52935042067E+02  0.72130603455E+01 -0.16428425908E+03  0.17275261127E+03  0.00000000000E+00 0.  1.
         11    1    1    2    0    0 -0.66519004429E+02  0.13272571251E+02  0.84051497714E+02  0.10800737644E+03  0.00000000000E+00 0. -1.
        -15    1    1    2    0    0  0.55203391753E+01 -0.36869297381E+01  0.24652781157E+02  0.25592673625E+02  0.17770000000E+01 0.  1.
         15    1    1    2    0    0  0.80636231874E+01 -0.16798701858E+02  0.55579980211E+02  0.58647338664E+02  0.17770000000E+01 0. -1.
</event>
<event>
 6    1  0.4347959E-006  0.1689714E+03  0.7546771E-02  0.1079764E+00
        -11   -1    0    0    0    0  0.00000000000E+00  0.00000000000E+00  0.18250000000E+03  0.18250000000E+03  0.00000000000E+00 0.  1.
         11   -1    0    0    0    0 -0.00000000000E+00 -0.00000000000E+00 -0.18250000000E+03  0.18250000000E+03  0.00000000000E+00 0.  1.
        -11    1    1    2    0    0  0.94264216413E+02 -0.10775630624E+03 -0.85879355634E+02  0.16695037512E+03  0.00000000000E+00 0.  1.
         11    1    1    2    0    0 -0.10591952819E+03  0.11830797465E+03  0.65948491809E+02  0.17194454597E+03  0.00000000000E+00 0.  1.
        -15    1    1    2    0    0  0.91198321046E+00 -0.25557742968E+01  0.50943293948E+01  0.60393390876E+01  0.17770000000E+01 0. -1.
         15    1    1    2    0    0  0.10743328565E+02 -0.79958941223E+01  0.14836534430E+02  0.20065739816E+02  0.17770000000E+01 0.  1.
</event>
