<event>
 6    1  0.1108180E-002  0.1843241E+03  0.7546771E-02  0.1067012E+00
        -11   -1    0    0    0    0  0.00000000000E+00  0.00000000000E+00  0.18250000000E+03  0.18250000000E+03  0.00000000000E+00 0. -1.
         11   -1    0    0    0    0 -0.00000000000E+00 -0.00000000000E+00 -0.18250000000E+03  0.18250000000E+03  0.00000000000E+00 0. -1.
        -11    1    1    2    0    0  0.38829545763E+01  0.96561694160E-01  0.16267056170E+03  0.16271692692E+03  0.00000000000E+00 0. -1.
         11    1    1    2    0    0 -0.30511542398E+01 -0.16689059775E+01 -0.18064240192E+03  0.18067587598E+03  0.00000000000E+00 0. -1.
        -15    1    1    2    0    0  0.57938649520E+00  0.31399341447E+01  0.18449725964E+02  0.18808109747E+02  0.17770000000E+01 0.  1.
         15    1    1    2    0    0 -0.14111868317E+01 -0.15675898613E+01 -0.47788574521E+00  0.27990873571E+01  0.17770000000E+01 0. -1.
</event>
<event>
 6    1  0.1108180E-002  0.1843637E+03  0.7546771E-02  0.1066981E+00
        -11   -1    0    0    0    0  0.00000000000E+00  0.00000000000E+00  0.18250000000E+03  0.18250000000E+03  0.00000000000E+00 0. -1.
         11   -1    0    0    0    0 -0.00000000000E+00 -0.00000000000E+00 -0.18250000000E+03  0.18250000000E+03  0.00000000000E+00 0.  1.
        -11    1    1    2    0    0 -0.22368774414E+01  0.19146693478E+01  0.18061234767E+03  0.18063634659E+03  0.00000000000E+00 0. -1.
         11    1    1    2    0    0 -0.49837600689E+01 -0.65652992525E+01 -0.12094260249E+03  0.12122315834E+03  0.00000000000E+00 0.  1.
        -15    1    1    2    0    0  0.53411085361E+01 -0.21718068332E+01 -0.45933946418E+01  0.75829538209E+01  0.17770000000E+01 0. -1.
         15    1    1    2    0    0  0.18795289742E+01  0.68224367379E+01 -0.55076350537E+02  0.55557541249E+02  0.17770000000E+01 0.  1.
</event>
<event>
 6    1  0.1108180E-002  0.1731546E+03  0.7546771E-02  0.1076147E+00
        -11   -1    0    0    0    0  0.00000000000E+00  0.00000000000E+00  0.18250000000E+03  0.18250000000E+03  0.00000000000E+00 0. -1.
         11   -1    0    0    0    0 -0.00000000000E+00 -0.00000000000E+00 -0.18250000000E+03  0.18250000000E+03  0.00000000000E+00 0. -1.
        -11    1    1    2    0    0 -0.60770158379E+00  0.29146150217E+01  0.17260332627E+03  0.17262900255E+03  0.00000000000E+00 0. -1.
         11    1    1    2    0    0 -0.27757799093E+01  0.77706571075E+01 -0.17366731125E+03  0.17386323091E+03  0.00000000000E+00 0. -1.
        -15    1    1    2    0    0  0.49510530813E+01 -0.95989010684E+01  0.63210968869E+01  0.12639850600E+02  0.17770000000E+01 0. -1.
         15    1    1    2    0    0 -0.15675715882E+01 -0.10863710609E+01 -0.52571119098E+01  0.58679159331E+01  0.17770000000E+01 0.  1.
</event>
<event>
 6    1  0.1108180E-002  0.1873122E+03  0.7546771E-02  0.1064688E+00
        -11   -1    0    0    0    0  0.00000000000E+00  0.00000000000E+00  0.18250000000E+03  0.18250000000E+03  0.00000000000E+00 0. -1.
         11   -1    0    0    0    0 -0.00000000000E+00 -0.00000000000E+00 -0.18250000000E+03  0.18250000000E+03  0.00000000000E+00 0. -1.
        -11    1    1    2    0    0  0.22827405778E+01  0.95383736163E-01  0.11712355906E+03  0.11714584111E+03  0.00000000000E+00 0. -1.
         11    1    1    2    0    0 -0.71550667254E+01 -0.14951500597E+01 -0.17753740198E+03  0.17768781488E+03  0.00000000000E+00 0. -1.
        -15    1    1    2    0    0  0.66416085549E+01  0.15065531115E+01 -0.22982264870E+01  0.74040691826E+01  0.17770000000E+01 0. -1.
         15    1    1    2    0    0 -0.17692824073E+01 -0.10678678797E+00  0.62712069408E+02  0.62762274832E+02  0.17770000000E+01 0. -1.
</event>
<event>
 6    1  0.1108180E-002  0.1825453E+03  0.7546771E-02  0.1068419E+00
        -11   -1    0    0    0    0  0.00000000000E+00  0.00000000000E+00  0.18250000000E+03  0.18250000000E+03  0.00000000000E+00 0.  1.
         11   -1    0    0    0    0 -0.00000000000E+00 -0.00000000000E+00 -0.18250000000E+03  0.18250000000E+03  0.00000000000E+00 0.  1.
        -11    1    1    2    0    0 -0.60002482654E+00  0.13419021675E+01  0.34632747896E+02  0.34663928774E+02  0.00000000000E+00 0.  1.
         11    1    1    2    0    0  0.20224038129E+00 -0.26631456932E+01 -0.18243513340E+03  0.18245468244E+03  0.00000000000E+00 0.  1.
        -15    1    1    2    0    0  0.76633264215E+00  0.20270394974E+01  0.73282617201E+02  0.73336183891E+02  0.17770000000E+01 0.  1.
         15    1    1    2    0    0 -0.36854819690E+00 -0.70579597173E+00  0.74519768302E+02  0.74545204893E+02  0.17770000000E+01 0.  1.
</event>
<event>
 6    1  0.1108180E-002  0.1899012E+03  0.7546771E-02  0.1062711E+00
        -11   -1    0    0    0    0  0.00000000000E+00  0.00000000000E+00  0.18250000000E+03  0.18250000000E+03  0.00000000000E+00 0. -1.
         11   -1    0    0    0    0 -0.00000000000E+00 -0.00000000000E+00 -0.18250000000E+03  0.18250000000E+03  0.00000000000E+00 0. -1.
        -11    1    1    2    0    0 -0.23117670647E+01 -0.22214226315E+01  0.17506942554E+03  0.17509877996E+03  0.00000000000E+00 0. -1.
         11    1    1    2    0    0  0.38713767857E+01 -0.75004778485E+01 -0.16578219862E+03  0.16599693402E+03  0.00000000000E+00 0. -1.
        -15    1    1    2    0    0 -0.60770567017E+01  0.13270506492E+02 -0.26361775863E+01  0.14938009305E+02  0.17770000000E+01 0.  1.
         15    1    1    2    0    0  0.45174469806E+01 -0.35486060124E+01 -0.66510493354E+01  0.89662767142E+01  0.17770000000E+01 0. -1.
</event>
<event>
 6    1  0.1108180E-002  0.1974108E+03  0.7546771E-02  0.1057169E+00
        -11   -1    0    0    0    0  0.00000000000E+00  0.00000000000E+00  0.18250000000E+03  0.18250000000E+03  0.00000000000E+00 0. -1.
         11   -1    0    0    0    0 -0.00000000000E+00 -0.00000000000E+00 -0.18250000000E+03  0.18250000000E+03  0.00000000000E+00 0.  1.
        -11    1    1    2    0    0  0.85645232851E-01 -0.10199598083E+02  0.16727851434E+03  0.16758920161E+03  0.00000000000E+00 0. -1.
         11    1    1    2    0    0 -0.22170146672E+02 -0.10140549332E+02 -0.11470281480E+03  0.11726500700E+03  0.00000000000E+00 0.  1.
        -15    1    1    2    0    0  0.73619739174E+01  0.19336484443E+02  0.44302640472E+01  0.21234011847E+02  0.17770000000E+01 0. -1.
         15    1    1    2    0    0  0.14722527522E+02  0.10036629721E+01 -0.57005963583E+02  0.58911779544E+02  0.17770000000E+01 0.  1.
</event>
<event>
 6    1  0.1108180E-002  0.1859131E+03  0.7546771E-02  0.1065770E+00
        -11   -1    0    0    0    0  0.00000000000E+00  0.00000000000E+00  0.18250000000E+03  0.18250000000E+03  0.00000000000E+00 0.  1.
         11   -1    0    0    0    0 -0.00000000000E+00 -0.00000000000E+00 -0.18250000000E+03  0.18250000000E+03  0.00000000000E+00 0. -1.
        -11    1    1    2    0    0  0.67080870908E+01  0.51675352693E+01  0.16560429074E+03  0.16582063492E+03  0.00000000000E+00 0.  1.
         11    1    1    2    0    0  0.19260550591E+01 -0.50380452778E+01 -0.17900563552E+03  0.17908687595E+03  0.00000000000E+00 0. -1.
        -15    1    1    2    0    0  0.14609989151E+01  0.15028204046E+01 -0.44922172643E+00  0.27843340600E+01  0.17770000000E+01 0.  1.
         15    1    1    2    0    0 -0.10095141065E+02 -0.16323103961E+01  0.13850566511E+02  0.17308155073E+02  0.17770000000E+01 0. -1.
</event>
<event>
 6    1  0.1108180E-002  0.1016527E+03  0.7546771E-02  0.1160987E+00
        -11   -1    0    0    0    0  0.00000000000E+00  0.00000000000E+00  0.18250000000E+03  0.18250000000E+03  0.00000000000E+00 0. -1.
         11   -1    0    0    0    0 -0.00000000000E+00 -0.00000000000E+00 -0.18250000000E+03  0.18250000000E+03  0.00000000000E+00 0. -1.
        -11    1    1    2    0    0  0.80386094794E+02 -0.11109327990E+01  0.11120323927E+03  0.13721996513E+03  0.00000000000E+00 0. -1.
         11    1    1    2    0    0 -0.68392743853E+01  0.32161100984E+00 -0.42978344463E+02  0.43520307909E+02  0.00000000000E+00 0. -1.
        -15    1    1    2    0    0  0.24916414354E+02  0.19059669849E+02 -0.77543438725E+02  0.83667444908E+02  0.17770000000E+01 0.  1.
         15    1    1    2    0    0 -0.98463234762E+02 -0.18270348060E+02  0.93185439208E+01  0.10059228205E+03  0.17770000000E+01 0. -1.
</event>
<event>
 6    1  0.1108180E-002  0.1829093E+03  0.7546771E-02  0.1068129E+00
        -11   -1    0    0    0    0  0.00000000000E+00  0.00000000000E+00  0.18250000000E+03  0.18250000000E+03  0.00000000000E+00 0.  1.
         11   -1    0    0    0    0 -0.00000000000E+00 -0.00000000000E+00 -0.18250000000E+03  0.18250000000E+03  0.00000000000E+00 0. -1.
        -11    1    1    2    0    0  0.19862392055E+01  0.20414015115E+01  0.18206840810E+03  0.18209068536E+03  0.00000000000E+00 0.  1.
         11    1    1    2    0    0 -0.74348695511E+00 -0.33576910711E+01 -0.17071566850E+03  0.17075030405E+03  0.00000000000E+00 0. -1.
        -15    1    1    2    0    0 -0.18393122837E+00  0.70291322148E+00 -0.75151947422E+01  0.77565326471E+01  0.17770000000E+01 0.  1.
         15    1    1    2    0    0 -0.10588210220E+01  0.61337633812E+00 -0.38375448567E+01  0.44024779405E+01  0.17770000000E+01 0. -1.
</event>
<event>
 6    1  0.1108180E-002  0.1880036E+03  0.7546771E-02  0.1064156E+00
        -11   -1    0    0    0    0  0.00000000000E+00  0.00000000000E+00  0.18250000000E+03  0.18250000000E+03  0.00000000000E+00 0.  1.
         11   -1    0    0    0    0 -0.00000000000E+00 -0.00000000000E+00 -0.18250000000E+03  0.18250000000E+03  0.00000000000E+00 0.  1.
        -11    1    1    2    0    0 -0.66961465464E+01 -0.35422089194E+02  0.17328631657E+03  0.17699635672E+03  0.00000000000E+00 0.  1.
         11    1    1    2    0    0 -0.63996536914E-01 -0.40393946148E+01 -0.56117139538E+02  0.56262368901E+02  0.00000000000E+00 0.  1.
        -15    1    1    2    0    0 -0.13088332604E+02  0.37618764538E+02 -0.84415654157E+02  0.93357572224E+02  0.17770000000E+01 0.  1.
         15    1    1    2    0    0  0.19848475687E+02  0.18427192713E+01 -0.32753522875E+02  0.38383702156E+02  0.17770000000E+01 0. -1.
</event>
<event>
 6    1  0.1108180E-002  0.1841317E+03  0.7546771E-02  0.1067163E+00
        -11   -1    0    0    0    0  0.00000000000E+00  0.00000000000E+00  0.18250000000E+03  0.18250000000E+03  0.00000000000E+00 0.  1.
         11   -1    0    0    0    0 -0.00000000000E+00 -0.00000000000E+00 -0.18250000000E+03  0.18250000000E+03  0.00000000000E+00 0.  1.
        -11    1    1    2    0    0 -0.46956821833E+01 -0.34803346115E+00  0.17355233052E+03  0.17361619161E+03  0.00000000000E+00 0.  1.
         11    1    1    2    0    0  0.31945809028E+01 -0.28148202577E+01 -0.18081821933E+03  0.18086834162E+03  0.00000000000E+00 0.  1.
        -15    1    1    2    0    0  0.29582671924E+01  0.19241869307E+01  0.67985782734E+01  0.78633476119E+01  0.17770000000E+01 0. -1.
         15    1    1    2    0    0 -0.14571659119E+01  0.12386667881E+01  0.46731053360E+00  0.26521191606E+01  0.17770000000E+01 0.  1.
</event>
<event>
 6    1  0.1108180E-002  0.1855323E+03  0.7546771E-02  0.1066066E+00
        -11   -1    0    0    0    0  0.00000000000E+00  0.00000000000E+00  0.18250000000E+03  0.18250000000E+03  0.00000000000E+00 0.  1.
         11   -1    0    0    0    0 -0.00000000000E+00 -0.00000000000E+00 -0.18250000000E+03  0.18250000000E+03  0.00000000000E+00 0.  1.
        -11    1    1    2    0    0  0.36989829135E+01 -0.17928541624E+01  0.17942059658E+03  0.17946767753E+03  0.00000000000E+00 0.  1.
         11    1    1    2    0    0  0.32933874532E+01 -0.68308822995E+01 -0.15720986616E+03  0.15739265984E+03  0.00000000000E+00 0.  1.
        -15    1    1    2    0    0 -0.29949115284E+01 -0.25446227230E+01 -0.10609146964E+02  0.11452350334E+02  0.17770000000E+01 0.  1.
         15    1    1    2    0    0 -0.39974588382E+01  0.11168359185E+02 -0.11601583456E+02  0.16687312298E+02  0.17770000000E+01 0. -1.
</event>
<event>
 6    1  0.1108180E-002  0.1846782E+03  0.7546771E-02  0.1066734E+00
        -11   -1    0    0    0    0  0.00000000000E+00  0.00000000000E+00  0.18250000000E+03  0.18250000000E+03  0.00000000000E+00 0.  1.
         11   -1    0    0    0    0 -0.00000000000E+00 -0.00000000000E+00 -0.18250000000E+03  0.18250000000E+03  0.00000000000E+00 0.  1.
        -11    1    1    2    0    0 -0.44358837769E+00 -0.26027098113E+01  0.18030242437E+03  0.18032175438E+03  0.00000000000E+00 0.  1.
         11    1    1    2    0    0  0.27626354497E+01  0.62320617649E+01 -0.16079854067E+03  0.16094297571E+03  0.00000000000E+00 0.  1.
        -15    1    1    2    0    0 -0.62532277936E+00 -0.30979706066E+01  0.42331955008E+00  0.36503943484E+01  0.17770000000E+01 0.  1.
         15    1    1    2    0    0 -0.16937242927E+01 -0.53138134696E+00 -0.19927203248E+02  0.20084875564E+02  0.17770000000E+01 0. -1.
</event>
<event>
 6    1  0.1108180E-002  0.1843034E+03  0.7546771E-02  0.1067028E+00
        -11   -1    0    0    0    0  0.00000000000E+00  0.00000000000E+00  0.18250000000E+03  0.18250000000E+03  0.00000000000E+00 0.  1.
         11   -1    0    0    0    0 -0.00000000000E+00 -0.00000000000E+00 -0.18250000000E+03  0.18250000000E+03  0.00000000000E+00 0. -1.
        -11    1    1    2    0    0 -0.53342086828E+01  0.36891603608E+01  0.16610552771E+03  0.16623209685E+03  0.00000000000E+00 0.  1.
         11    1    1    2    0    0  0.35061111120E+00  0.27698545254E+01 -0.18067501406E+03  0.18069658471E+03  0.00000000000E+00 0. -1.
        -15    1    1    2    0    0  0.53746466992E+01 -0.53501284711E+01  0.13721306927E+02  0.15777917942E+02  0.17770000000E+01 0.  1.
         15    1    1    2    0    0 -0.39104912758E+00 -0.11088864151E+01  0.84817941657E+00  0.22934004937E+01  0.17770000000E+01 0. -1.
</event>
<event>
 6    1  0.1108180E-002  0.1857795E+03  0.7546771E-02  0.1065874E+00
        -11   -1    0    0    0    0  0.00000000000E+00  0.00000000000E+00  0.18250000000E+03  0.18250000000E+03  0.00000000000E+00 0.  1.
         11   -1    0    0    0    0 -0.00000000000E+00 -0.00000000000E+00 -0.18250000000E+03  0.18250000000E+03  0.00000000000E+00 0.  1.
        -11    1    1    2    0    0 -0.73265905549E+01  0.26976349427E+01  0.17905040282E+03  0.17922054266E+03  0.00000000000E+00 0.  1.
         11    1    1    2    0    0  0.91884879138E+01 -0.26553522695E+00 -0.17623517509E+03  0.17647474538E+03  0.00000000000E+00 0.  1.
        -15    1    1    2    0    0  0.27233410541E+01 -0.22359061051E+01 -0.11899803930E+01  0.41218496993E+01  0.17770000000E+01 0. -1.
         15    1    1    2    0    0 -0.45852384130E+01 -0.19619361062E+00 -0.16252473330E+01  0.51828622527E+01  0.17770000000E+01 0.  1.
</event>
<event>
 6    1  0.1108180E-002  0.1829822E+03  0.7546771E-02  0.1068072E+00
        -11   -1    0    0    0    0  0.00000000000E+00  0.00000000000E+00  0.18250000000E+03  0.18250000000E+03  0.00000000000E+00 0. -1.
         11   -1    0    0    0    0 -0.00000000000E+00 -0.00000000000E+00 -0.18250000000E+03  0.18250000000E+03  0.00000000000E+00 0.  1.
        -11    1    1    2    0    0 -0.26271342301E+00  0.24439617058E+01  0.18200121661E+03  0.18201781455E+03  0.00000000000E+00 0. -1.
         11    1    1    2    0    0  0.87828789105E-01 -0.15746166079E+01 -0.65886014694E+02  0.65904886492E+02  0.00000000000E+00 0.  1.
        -15    1    1    2    0    0  0.15721308348E+00  0.28842374490E+01 -0.10707615314E+03  0.10712984571E+03  0.17770000000E+01 0.  1.
         15    1    1    2    0    0  0.17671550430E-01 -0.37535825469E+01 -0.90390487796E+01  0.99474532449E+01  0.17770000000E+01 0.  1.
</event>
<event>
 6    1  0.1108180E-002  0.1853070E+03  0.7546771E-02  0.1066242E+00
        -11   -1    0    0    0    0  0.00000000000E+00  0.00000000000E+00  0.18250000000E+03  0.18250000000E+03  0.00000000000E+00 0.  1.
         11   -1    0    0    0    0 -0.00000000000E+00 -0.00000000000E+00 -0.18250000000E+03  0.18250000000E+03  0.00000000000E+00 0.  1.
        -11    1    1    2    0    0  0.49745617127E+01 -0.32608511432E+01  0.10215351448E+03  0.10232653583E+03  0.00000000000E+00 0.  1.
         11    1    1    2    0    0 -0.38812356604E+01  0.44900055602E+01 -0.17959500371E+03  0.17969304243E+03  0.00000000000E+00 0.  1.
        -15    1    1    2    0    0  0.56784467228E+01 -0.11622693943E+01  0.91121130929E+00  0.61305515559E+01  0.17770000000E+01 0. -1.
         15    1    1    2    0    0 -0.67717727751E+01 -0.66885022752E-01  0.76530277916E+02  0.76849870182E+02  0.17770000000E+01 0.  1.
</event>
<event>
 6    1  0.1108180E-002  0.1871846E+03  0.7546771E-02  0.1064786E+00
        -11   -1    0    0    0    0  0.00000000000E+00  0.00000000000E+00  0.18250000000E+03  0.18250000000E+03  0.00000000000E+00 0. -1.
         11   -1    0    0    0    0 -0.00000000000E+00 -0.00000000000E+00 -0.18250000000E+03  0.18250000000E+03  0.00000000000E+00 0. -1.
        -11    1    1    2    0    0 -0.74499437907E+00 -0.69826156703E+01  0.13026831418E+03  0.13045744754E+03  0.00000000000E+00 0. -1.
         11    1    1    2    0    0 -0.22680264933E+01 -0.13135185054E+01 -0.17779606037E+03  0.17781537717E+03  0.00000000000E+00 0. -1.
        -15    1    1    2    0    0  0.47865417564E+01  0.27612266721E+01 -0.25083156898E+01  0.63233481100E+01  0.17770000000E+01 0.  1.
         15    1    1    2    0    0 -0.17735208840E+01  0.55349075037E+01  0.50036061877E+02  0.50403827182E+02  0.17770000000E+01 0. -1.
</event>
<event>
 6    1  0.1108180E-002  0.1831787E+03  0.7546771E-02  0.1067916E+00
        -11   -1    0    0    0    0  0.00000000000E+00  0.00000000000E+00  0.18250000000E+03  0.18250000000E+03  0.00000000000E+00 0. -1.
         11   -1    0    0    0    0 -0.00000000000E+00 -0.00000000000E+00 -0.18250000000E+03  0.18250000000E+03  0.00000000000E+00 0.  1.
        -11    1    1    2    0    0 -0.16794511669E+02  0.32056840873E+01  0.18101565465E+03  0.18182133885E+03  0.00000000000E+00 0. -1.
         11    1    1    2    0    0  0.16193915596E+00  0.61326228783E+00 -0.18160341705E+02  0.18171415074E+02  0.00000000000E+00 0.  1.
        -15    1    1    2    0    0 -0.38933484860E+01 -0.29420352503E+01 -0.19644957547E+02  0.20319838087E+02  0.17770000000E+01 0. -1.
         15    1    1    2    0    0  0.20525920999E+02 -0.87691112487E+00 -0.14321035540E+03  0.14468740798E+03  0.17770000000E+01 0.  1.
</event>
<event>
 6    1  0.1108180E-002  0.1826396E+03  0.7546771E-02  0.1068344E+00
        -11   -1    0    0    0    0  0.00000000000E+00  0.00000000000E+00  0.18250000000E+03  0.18250000000E+03  0.00000000000E+00 0. -1.
         11   -1    0    0    0    0 -0.00000000000E+00 -0.00000000000E+00 -0.18250000000E+03  0.18250000000E+03  0.00000000000E+00 0. -1.
        -11    1    1    2    0    0  0.29689313916E+01  0.51834704358E+00  0.10343712101E+03  0.10348101875E+03  0.00000000000E+00 0. -1.
         11    1    1    2    0    0 -0.19529737894E+01 -0.20829877165E+01 -0.18233805078E+03  0.18236040608E+03  0.00000000000E+00 0. -1.
        -15    1    1    2    0    0 -0.77457810687E-01 -0.14222515243E+01  0.47002943503E+02  0.47058083536E+02  0.17770000000E+01 0. -1.
         15    1    1    2    0    0 -0.93849979149E+00  0.29868921973E+01  0.31897986261E+02  0.32100491638E+02  0.17770000000E+01 0.  1.
</event>
<event>
 6    1  0.1108180E-002  0.1826993E+03  0.7546771E-02  0.1068296E+00
        -11   -1    0    0    0    0  0.00000000000E+00  0.00000000000E+00  0.18250000000E+03  0.18250000000E+03  0.00000000000E+00 0. -1.
         11   -1    0    0    0    0 -0.00000000000E+00 -0.00000000000E+00 -0.18250000000E+03  0.18250000000E+03  0.00000000000E+00 0. -1.
        -11    1    1    2    0    0  0.34332375589E+00 -0.18410863227E+01  0.12991794800E+03  0.12993144609E+03  0.00000000000E+00 0. -1.
         11    1    1    2    0    0  0.65476201179E+00  0.34697731175E+01 -0.18226649520E+03  0.18230069476E+03  0.00000000000E+00 0. -1.
        -15    1    1    2    0    0 -0.33325651273E+00 -0.47514663971E+00  0.46075816295E+02  0.46113722475E+02  0.17770000000E+01 0. -1.
         15    1    1    2    0    0 -0.66482925495E+00 -0.11535401551E+01  0.62727309030E+01  0.66541366690E+01  0.17770000000E+01 0.  1.
</event>
<event>
 6    1  0.1108180E-002  0.1807360E+03  0.7546771E-02  0.1069868E+00
        -11   -1    0    0    0    0  0.00000000000E+00  0.00000000000E+00  0.18250000000E+03  0.18250000000E+03  0.00000000000E+00 0.  1.
         11   -1    0    0    0    0 -0.00000000000E+00 -0.00000000000E+00 -0.18250000000E+03  0.18250000000E+03  0.00000000000E+00 0. -1.
        -11    1    1    2    0    0 -0.70405651848E+00 -0.80706040670E+00  0.34792555128E+01  0.36403655042E+01  0.00000000000E+00 0.  1.
         11    1    1    2    0    0 -0.58429139413E+00  0.16532407996E+02 -0.18162887250E+03  0.18238067123E+03  0.00000000000E+00 0. -1.
        -15    1    1    2    0    0  0.25492587208E+01 -0.88154244008E+01  0.75982802134E+02  0.76555563981E+02  0.17770000000E+01 0.  1.
         15    1    1    2    0    0 -0.12609108081E+01 -0.69099231889E+01  0.10216681486E+03  0.10242339929E+03  0.17770000000E+01 0. -1.
</event>
<event>
 6    1  0.1108180E-002  0.1838412E+03  0.7546771E-02  0.1067392E+00
        -11   -1    0    0    0    0  0.00000000000E+00  0.00000000000E+00  0.18250000000E+03  0.18250000000E+03  0.00000000000E+00 0. -1.
         11   -1    0    0    0    0 -0.00000000000E+00 -0.00000000000E+00 -0.18250000000E+03  0.18250000000E+03  0.00000000000E+00 0. -1.
        -11    1    1    2    0    0 -0.29762175692E+00  0.30209398469E+01  0.18113338987E+03  0.18115882419E+03  0.00000000000E+00 0. -1.
         11    1    1    2    0    0  0.55642886925E+00  0.49492708505E+00 -0.15997625453E+02  0.16014948830E+02  0.00000000000E+00 0. -1.
        -15    1    1    2    0    0  0.19420598697E+01 -0.45697189732E+01 -0.38923123723E+01  0.65545215413E+01  0.17770000000E+01 0.  1.
         15    1    1    2    0    0 -0.22008669820E+01  0.10538520413E+01 -0.16124345204E+03  0.16127170544E+03  0.17770000000E+01 0. -1.
</event>
<event>
 6    1  0.1108180E-002  0.1851878E+03  0.7546771E-02  0.1066335E+00
        -11   -1    0    0    0    0  0.00000000000E+00  0.00000000000E+00  0.18250000000E+03  0.18250000000E+03  0.00000000000E+00 0. -1.
         11   -1    0    0    0    0 -0.00000000000E+00 -0.00000000000E+00 -0.18250000000E+03  0.18250000000E+03  0.00000000000E+00 0.  1.
        -11    1    1    2    0    0 -0.70840684602E+01 -0.11549596747E+01  0.17966892675E+03  0.17981223873E+03  0.00000000000E+00 0. -1.
         11    1    1    2    0    0 -0.77362180203E+01 -0.15132187809E+01 -0.14437702309E+03  0.14459205959E+03  0.00000000000E+00 0.  1.
        -15    1    1    2    0    0  0.10741326862E+02  0.45092033939E+01 -0.33407596455E+02  0.35425051135E+02  0.17770000000E+01 0.  1.
         15    1    1    2    0    0  0.40789596182E+01 -0.18410249384E+01 -0.18843072105E+01  0.51706505446E+01  0.17770000000E+01 0. -1.
</event>
<event>
 6    1  0.1108180E-002  0.1835121E+03  0.7546771E-02  0.1067652E+00
        -11   -1    0    0    0    0  0.00000000000E+00  0.00000000000E+00  0.18250000000E+03  0.18250000000E+03  0.00000000000E+00 0. -1.
         11   -1    0    0    0    0 -0.00000000000E+00 -0.00000000000E+00 -0.18250000000E+03  0.18250000000E+03  0.00000000000E+00 0. -1.
        -11    1    1    2    0    0 -0.18042874754E+01  0.15032247801E+01  0.16963507844E+03  0.16965133355E+03  0.00000000000E+00 0. -1.
         11    1    1    2    0    0 -0.37493420207E+01 -0.11653900517E+01 -0.18144537815E+03  0.18148785345E+03  0.00000000000E+00 0. -1.
        -15    1    1    2    0    0  0.43022294001E+01 -0.11356458998E+01  0.91914860236E+01  0.10365327479E+02  0.17770000000E+01 0. -1.
         15    1    1    2    0    0  0.12514000960E+01  0.79781117140E+00  0.26188136856E+01  0.34954855149E+01  0.17770000000E+01 0.  1.
</event>
<event>
 6    1  0.1108180E-002  0.1837171E+03  0.7546771E-02  0.1067490E+00
        -11   -1    0    0    0    0  0.00000000000E+00  0.00000000000E+00  0.18250000000E+03  0.18250000000E+03  0.00000000000E+00 0.  1.
         11   -1    0    0    0    0 -0.00000000000E+00 -0.00000000000E+00 -0.18250000000E+03  0.18250000000E+03  0.00000000000E+00 0. -1.
        -11    1    1    2    0    0  0.63221730400E+00 -0.48760445691E+00  0.67380731990E+01  0.67852109224E+01  0.00000000000E+00 0.  1.
         11    1    1    2    0    0 -0.35846150484E+01 -0.51203192748E+00 -0.18124674042E+03  0.18128290751E+03  0.00000000000E+00 0. -1.
        -15    1    1    2    0    0  0.30185121953E+00 -0.16469640418E+01  0.17213964386E+03  0.17215695839E+03  0.17770000000E+01 0.  1.
         15    1    1    2    0    0  0.26505465249E+01  0.26466004262E+01  0.23690233550E+01  0.47749231777E+01  0.17770000000E+01 0. -1.
</event>
<event>
 6    1  0.1108180E-002  0.1792812E+03  0.7546771E-02  0.1071046E+00
        -11   -1    0    0    0    0  0.00000000000E+00  0.00000000000E+00  0.18250000000E+03  0.18250000000E+03  0.00000000000E+00 0. -1.
         11   -1    0    0    0    0 -0.00000000000E+00 -0.00000000000E+00 -0.18250000000E+03  0.18250000000E+03  0.00000000000E+00 0. -1.
        -11    1    1    2    0    0 -0.20886083732E+01  0.13284089892E+01  0.17919397620E+03  0.17921107126E+03  0.00000000000E+00 0. -1.
         11    1    1    2    0    0  0.30868302734E+01 -0.44004718443E+00 -0.17932680339E+03  0.17935390873E+03  0.00000000000E+00 0. -1.
        -15    1    1    2    0    0 -0.93709721193E+00  0.16935261899E+01 -0.13647046640E+01  0.29607988720E+01  0.17770000000E+01 0. -1.
         15    1    1    2    0    0 -0.61124688266E-01 -0.25818879947E+01  0.14975318613E+01  0.34742211386E+01  0.17770000000E+01 0.  1.
</event>
<event>
 6    1  0.1108180E-002  0.1898512E+03  0.7546771E-02  0.1062749E+00
        -11   -1    0    0    0    0  0.00000000000E+00  0.00000000000E+00  0.18250000000E+03  0.18250000000E+03  0.00000000000E+00 0. -1.
         11   -1    0    0    0    0 -0.00000000000E+00 -0.00000000000E+00 -0.18250000000E+03  0.18250000000E+03  0.00000000000E+00 0. -1.
        -11    1    1    2    0    0 -0.10093228114E+02  0.30510204963E+01  0.17483116814E+03  0.17514884908E+03  0.00000000000E+00 0. -1.
         11    1    1    2    0    0  0.15517241873E+00  0.73330152014E+01 -0.16341128721E+03  0.16357581110E+03  0.00000000000E+00 0. -1.
        -15    1    1    2    0    0  0.57375016458E+01 -0.54184327850E+01  0.43067836322E+01  0.91643032051E+01  0.17770000000E+01 0. -1.
         15    1    1    2    0    0  0.42005540492E+01 -0.49656029126E+01 -0.15726664568E+02  0.17111036615E+02  0.17770000000E+01 0.  1.
</event>
<event>
 6    1  0.1108180E-002  0.1923265E+03  0.7546771E-02  0.1060891E+00
        -11   -1    0    0    0    0  0.00000000000E+00  0.00000000000E+00  0.18250000000E+03  0.18250000000E+03  0.00000000000E+00 0. -1.
         11   -1    0    0    0    0 -0.00000000000E+00 -0.00000000000E+00 -0.18250000000E+03  0.18250000000E+03  0.00000000000E+00 0. -1.
        -11    1    1    2    0    0  0.70163036176E+01 -0.14476422262E+01  0.15808759057E+03  0.15824983563E+03  0.00000000000E+00 0. -1.
         11    1    1    2    0    0 -0.21023827237E+01 -0.18875488695E+01 -0.17265037494E+03  0.17267349195E+03  0.00000000000E+00 0. -1.
        -15    1    1    2    0    0  0.74284088395E+01 -0.18166405751E+01  0.18437418879E+02  0.20039400809E+02  0.17770000000E+01 0. -1.
         15    1    1    2    0    0 -0.12342329733E+02  0.51518316708E+01 -0.38746345081E+01  0.14037271615E+02  0.17770000000E+01 0.  1.
</event>
<event>
 6    1  0.1108180E-002  0.1835137E+03  0.7546771E-02  0.1067651E+00
        -11   -1    0    0    0    0  0.00000000000E+00  0.00000000000E+00  0.18250000000E+03  0.18250000000E+03  0.00000000000E+00 0. -1.
         11   -1    0    0    0    0 -0.00000000000E+00 -0.00000000000E+00 -0.18250000000E+03  0.18250000000E+03  0.00000000000E+00 0. -1.
        -11    1    1    2    0    0  0.10121913095E+01 -0.58033622990E+01  0.18139070230E+03  0.18148633674E+03  0.00000000000E+00 0. -1.
         11    1    1    2    0    0  0.41539898610E+01  0.56876038020E+00 -0.11826400781E+03  0.11833830598E+03  0.00000000000E+00 0. -1.
        -15    1    1    2    0    0 -0.13686972766E+01  0.28530461832E+01 -0.58087783673E+02  0.58201044199E+02  0.17770000000E+01 0. -1.
         15    1    1    2    0    0 -0.37974838939E+01  0.23815557356E+01 -0.50389108178E+01  0.69743130755E+01  0.17770000000E+01 0.  1.
</event>
<event>
 6    1  0.1108180E-002  0.1829456E+03  0.7546771E-02  0.1068101E+00
        -11   -1    0    0    0    0  0.00000000000E+00  0.00000000000E+00  0.18250000000E+03  0.18250000000E+03  0.00000000000E+00 0.  1.
         11   -1    0    0    0    0 -0.00000000000E+00 -0.00000000000E+00 -0.18250000000E+03  0.18250000000E+03  0.00000000000E+00 0. -1.
        -11    1    1    2    0    0 -0.16792931640E+01 -0.39179098576E-01  0.44613237566E+02  0.44644848825E+02  0.00000000000E+00 0.  1.
         11    1    1    2    0    0 -0.28634673525E+01 -0.32954890474E+01 -0.18200209334E+03  0.18205444700E+03  0.00000000000E+00 0. -1.
        -15    1    1    2    0    0  0.20741334178E+01  0.33971206332E+01  0.10414507365E+02  0.11289913671E+02  0.17770000000E+01 0.  1.
         15    1    1    2    0    0  0.24686270987E+01 -0.62452487219E-01  0.12697434841E+03  0.12701079050E+03  0.17770000000E+01 0.  1.
</event>
<event>
 6    1  0.1108180E-002  0.1879499E+03  0.7546771E-02  0.1064198E+00
        -11   -1    0    0    0    0  0.00000000000E+00  0.00000000000E+00  0.18250000000E+03  0.18250000000E+03  0.00000000000E+00 0. -1.
         11   -1    0    0    0    0 -0.00000000000E+00 -0.00000000000E+00 -0.18250000000E+03  0.18250000000E+03  0.00000000000E+00 0. -1.
        -11    1    1    2    0    0 -0.55434675193E+01 -0.10342149094E+02  0.17666077844E+03  0.17705005146E+03  0.00000000000E+00 0. -1.
         11    1    1    2    0    0  0.27844185559E+01  0.50833013856E+01 -0.15800207667E+03  0.15810834631E+03  0.00000000000E+00 0. -1.
        -15    1    1    2    0    0  0.42162837893E+01  0.32128296608E+01  0.40638155114E+01  0.69117037648E+01  0.17770000000E+01 0. -1.
         15    1    1    2    0    0 -0.14572348260E+01  0.20460180479E+01 -0.22722517287E+02  0.22929898474E+02  0.17770000000E+01 0.  1.
</event>
<event>
 6    1  0.1108180E-002  0.1926961E+03  0.7546771E-02  0.1060617E+00
        -11   -1    0    0    0    0  0.00000000000E+00  0.00000000000E+00  0.18250000000E+03  0.18250000000E+03  0.00000000000E+00 0. -1.
         11   -1    0    0    0    0 -0.00000000000E+00 -0.00000000000E+00 -0.18250000000E+03  0.18250000000E+03  0.00000000000E+00 0. -1.
        -11    1    1    2    0    0  0.38178094786E+01 -0.25706381761E+01  0.17224246487E+03  0.17230394817E+03  0.00000000000E+00 0. -1.
         11    1    1    2    0    0  0.47175643098E+01  0.43597206188E+00 -0.15771470379E+03  0.15778584625E+03  0.00000000000E+00 0. -1.
        -15    1    1    2    0    0  0.24770827863E+01 -0.11056655516E+02 -0.13341944666E+02  0.17594055439E+02  0.17770000000E+01 0.  1.
         15    1    1    2    0    0 -0.11012456575E+02  0.13191321630E+02 -0.11858164080E+01  0.17316150141E+02  0.17770000000E+01 0. -1.
</event>
<event>
 6    1  0.1108180E-002  0.1708880E+03  0.7546771E-02  0.1078093E+00
        -11   -1    0    0    0    0  0.00000000000E+00  0.00000000000E+00  0.18250000000E+03  0.18250000000E+03  0.00000000000E+00 0. -1.
         11   -1    0    0    0    0 -0.00000000000E+00 -0.00000000000E+00 -0.18250000000E+03  0.18250000000E+03  0.00000000000E+00 0. -1.
        -11    1    1    2    0    0 -0.80940127334E+01  0.29511482719E+00  0.17404237572E+03  0.17423073403E+03  0.00000000000E+00 0. -1.
         11    1    1    2    0    0 -0.28552420851E+01  0.13643028802E+01 -0.16775261325E+03  0.16778245732E+03  0.00000000000E+00 0. -1.
        -15    1    1    2    0    0  0.45945461604E+01  0.53793252598E+01  0.44542689917E+01  0.85466505673E+01  0.17770000000E+01 0. -1.
         15    1    1    2    0    0  0.63547086582E+01 -0.70387429672E+01 -0.10744031454E+02  0.14440158087E+02  0.17770000000E+01 0.  1.
</event>
<event>
 6    1  0.1108180E-002  0.1825793E+03  0.7546771E-02  0.1068392E+00
        -11   -1    0    0    0    0  0.00000000000E+00  0.00000000000E+00  0.18250000000E+03  0.18250000000E+03  0.00000000000E+00 0.  1.
         11   -1    0    0    0    0 -0.00000000000E+00 -0.00000000000E+00 -0.18250000000E+03  0.18250000000E+03  0.00000000000E+00 0.  1.
        -11    1    1    2    0    0 -0.72305047416E+00 -0.17239626217E+00  0.24976351290E+02  0.24987409755E+02  0.00000000000E+00 0.  1.
         11    1    1    2    0    0 -0.26848827286E+01 -0.15377737905E+00 -0.18240090375E+03  0.18242072780E+03  0.00000000000E+00 0.  1.
        -15    1    1    2    0    0  0.33356841572E+01 -0.45547880980E+00  0.48221287347E+02  0.48371319313E+02  0.17770000000E+01 0. -1.
         15    1    1    2    0    0  0.72249045591E-01  0.78165245102E+00  0.10920326512E+03  0.10922054313E+03  0.17770000000E+01 0.  1.
</event>
<event>
 6    1  0.1108180E-002  0.1859006E+03  0.7546771E-02  0.1065780E+00
        -11   -1    0    0    0    0  0.00000000000E+00  0.00000000000E+00  0.18250000000E+03  0.18250000000E+03  0.00000000000E+00 0. -1.
         11   -1    0    0    0    0 -0.00000000000E+00 -0.00000000000E+00 -0.18250000000E+03  0.18250000000E+03  0.00000000000E+00 0. -1.
        -11    1    1    2    0    0 -0.54135443477E+01  0.17128672583E+00  0.17215254762E+03  0.17223772947E+03  0.00000000000E+00 0. -1.
         11    1    1    2    0    0  0.68978405531E+01 -0.79217226827E+01 -0.17879115344E+03  0.17909944288E+03  0.00000000000E+00 0. -1.
        -15    1    1    2    0    0  0.19264879442E+01 -0.64904859191E+00  0.13654524312E+01  0.30256915269E+01  0.17770000000E+01 0. -1.
         15    1    1    2    0    0 -0.34107841496E+01  0.83994845488E+01  0.52731533888E+01  0.10637136121E+02  0.17770000000E+01 0. -1.
</event>
<event>
 6    1  0.1108180E-002  0.1894807E+03  0.7546771E-02  0.1063030E+00
        -11   -1    0    0    0    0  0.00000000000E+00  0.00000000000E+00  0.18250000000E+03  0.18250000000E+03  0.00000000000E+00 0.  1.
         11   -1    0    0    0    0 -0.00000000000E+00 -0.00000000000E+00 -0.18250000000E+03  0.18250000000E+03  0.00000000000E+00 0.  1.
        -11    1    1    2    0    0 -0.64586319560E+01 -0.28359327863E+01  0.10060466394E+03  0.10085164772E+03  0.00000000000E+00 0.  1.
         11    1    1    2    0    0  0.20821899814E+02 -0.37957938877E+02 -0.17009600802E+03  0.17551925416E+03  0.00000000000E+00 0.  1.
        -15    1    1    2    0    0 -0.42272092347E+01  0.43757348529E+02  0.59358556779E+02  0.73886201960E+02  0.17770000000E+01 0.  1.
         15    1    1    2    0    0 -0.10136058623E+02 -0.29634768654E+01  0.10132787306E+02  0.14742896158E+02  0.17770000000E+01 0. -1.
</event>
<event>
 6    1  0.1108180E-002  0.1834433E+03  0.7546771E-02  0.1067706E+00
        -11   -1    0    0    0    0  0.00000000000E+00  0.00000000000E+00  0.18250000000E+03  0.18250000000E+03  0.00000000000E+00 0. -1.
         11   -1    0    0    0    0 -0.00000000000E+00 -0.00000000000E+00 -0.18250000000E+03  0.18250000000E+03  0.00000000000E+00 0.  1.
        -11    1    1    2    0    0  0.12641829322E+01 -0.23395579616E+01  0.11703513969E+03  0.11706534761E+03  0.00000000000E+00 0. -1.
         11    1    1    2    0    0 -0.81401451915E+00 -0.26098529625E+01 -0.18153613588E+03  0.18155672002E+03  0.00000000000E+00 0.  1.
        -15    1    1    2    0    0 -0.11643358366E+01  0.19360581676E+01  0.61884974487E+02  0.61951689206E+02  0.17770000000E+01 0.  1.
         15    1    1    2    0    0  0.71416742352E+00  0.30133527565E+01  0.26160217075E+01  0.44262431608E+01  0.17770000000E+01 0.  1.
</event>
<event>
 6    1  0.1108180E-002  0.1845522E+03  0.7546771E-02  0.1066833E+00
        -11   -1    0    0    0    0  0.00000000000E+00  0.00000000000E+00  0.18250000000E+03  0.18250000000E+03  0.00000000000E+00 0.  1.
         11   -1    0    0    0    0 -0.00000000000E+00 -0.00000000000E+00 -0.18250000000E+03  0.18250000000E+03  0.00000000000E+00 0. -1.
        -11    1    1    2    0    0  0.24872452006E+01 -0.61206408113E+00  0.18042960761E+03  0.18044778833E+03  0.00000000000E+00 0.  1.
         11    1    1    2    0    0 -0.24038522183E+01 -0.52098657078E+01 -0.16681552962E+03  0.16691417594E+03  0.00000000000E+00 0. -1.
        -15    1    1    2    0    0 -0.11009101886E+01 -0.20102430143E+01 -0.21793745496E+01  0.36277379519E+01  0.17770000000E+01 0. -1.
         15    1    1    2    0    0  0.10175172064E+01  0.78321728033E+01 -0.11434703440E+02  0.14010297779E+02  0.17770000000E+01 0.  1.
</event>
<event>
 6    1  0.1108180E-002  0.1775225E+03  0.7546771E-02  0.1072487E+00
        -11   -1    0    0    0    0  0.00000000000E+00  0.00000000000E+00  0.18250000000E+03  0.18250000000E+03  0.00000000000E+00 0. -1.
         11   -1    0    0    0    0 -0.00000000000E+00 -0.00000000000E+00 -0.18250000000E+03  0.18250000000E+03  0.00000000000E+00 0. -1.
        -11    1    1    2    0    0  0.30766802777E+01  0.40187371602E+01  0.17831931294E+03  0.17839112527E+03  0.00000000000E+00 0. -1.
         11    1    1    2    0    0 -0.32605677963E+01 -0.12899157494E+00 -0.17664910978E+03  0.17667924588E+03  0.00000000000E+00 0. -1.
        -15    1    1    2    0    0  0.17772478911E+01 -0.13398495852E+01 -0.45735398889E+01  0.53878384434E+01  0.17770000000E+01 0.  1.
         15    1    1    2    0    0 -0.15933603725E+01 -0.25498960001E+01  0.29033367268E+01  0.45417904000E+01  0.17770000000E+01 0.  1.
</event>
<event>
 6    1  0.1108180E-002  0.1845110E+03  0.7546771E-02  0.1066865E+00
        -11   -1    0    0    0    0  0.00000000000E+00  0.00000000000E+00  0.18250000000E+03  0.18250000000E+03  0.00000000000E+00 0. -1.
         11   -1    0    0    0    0 -0.00000000000E+00 -0.00000000000E+00 -0.18250000000E+03  0.18250000000E+03  0.00000000000E+00 0.  1.
        -11    1    1    2    0    0  0.36573938350E+01 -0.20400871987E+01  0.18044040809E+03  0.18048900066E+03  0.00000000000E+00 0. -1.
         11    1    1    2    0    0  0.33954097609E+01 -0.26504624451E+01 -0.17077036068E+03  0.17082467575E+03  0.00000000000E+00 0.  1.
        -15    1    1    2    0    0 -0.11033508689E+01  0.15691148667E+01 -0.36619949065E+01  0.44997155799E+01  0.17770000000E+01 0.  1.
         15    1    1    2    0    0 -0.59494527270E+01  0.31214347771E+01 -0.60080525132E+01  0.91866080150E+01  0.17770000000E+01 0. -1.
</event>
<event>
 6    1  0.1108180E-002  0.1830865E+03  0.7546771E-02  0.1067989E+00
        -11   -1    0    0    0    0  0.00000000000E+00  0.00000000000E+00  0.18250000000E+03  0.18250000000E+03  0.00000000000E+00 0. -1.
         11   -1    0    0    0    0 -0.00000000000E+00 -0.00000000000E+00 -0.18250000000E+03  0.18250000000E+03  0.00000000000E+00 0.  1.
        -11    1    1    2    0    0  0.24619397849E+01 -0.20235456021E+01  0.18188559134E+03  0.18191350753E+03  0.00000000000E+00 0. -1.
         11    1    1    2    0    0 -0.14678896335E+01 -0.17780148998E+01 -0.13071610527E+03  0.13073643798E+03  0.00000000000E+00 0.  1.
        -15    1    1    2    0    0 -0.19640759440E+01  0.47715310615E+01 -0.12798579180E+02  0.13913535173E+02  0.17770000000E+01 0. -1.
         15    1    1    2    0    0  0.97002579259E+00 -0.96997055960E+00 -0.38370906889E+02  0.38436519320E+02  0.17770000000E+01 0.  1.
</event>
<event>
 6    1  0.1108180E-002  0.1826792E+03  0.7546771E-02  0.1068312E+00
        -11   -1    0    0    0    0  0.00000000000E+00  0.00000000000E+00  0.18250000000E+03  0.18250000000E+03  0.00000000000E+00 0.  1.
         11   -1    0    0    0    0 -0.00000000000E+00 -0.00000000000E+00 -0.18250000000E+03  0.18250000000E+03  0.00000000000E+00 0. -1.
        -11    1    1    2    0    0 -0.18949251767E+01 -0.51493791338E+00  0.99103634135E+02  0.99123086117E+02  0.00000000000E+00 0.  1.
         11    1    1    2    0    0  0.11025417883E+01 -0.42144212176E+01 -0.18226874794E+03  0.18232079810E+03  0.00000000000E+00 0. -1.
        -15    1    1    2    0    0 -0.53785438180E+00  0.38209813226E+01  0.72512771020E+02  0.72637103987E+02  0.17770000000E+01 0.  1.
         15    1    1    2    0    0  0.13302377702E+01  0.90837780836E+00  0.10652342785E+02  0.10919011795E+02  0.17770000000E+01 0.  1.
</event>
<event>
 6    1  0.1108180E-002  0.1837801E+03  0.7546771E-02  0.1067440E+00
        -11   -1    0    0    0    0  0.00000000000E+00  0.00000000000E+00  0.18250000000E+03  0.18250000000E+03  0.00000000000E+00 0. -1.
         11   -1    0    0    0    0 -0.00000000000E+00 -0.00000000000E+00 -0.18250000000E+03  0.18250000000E+03  0.00000000000E+00 0.  1.
        -11    1    1    2    0    0 -0.41045563131E+01 -0.61335640677E+01  0.18106957376E+03  0.18121991759E+03  0.00000000000E+00 0. -1.
         11    1    1    2    0    0 -0.19405480579E+01  0.38181749698E+01 -0.10772881555E+03  0.10781392251E+03  0.00000000000E+00 0.  1.
        -15    1    1    2    0    0  0.37010713668E+01 -0.30475914013E+01 -0.66858080734E+02  0.67053310366E+02  0.17770000000E+01 0.  1.
         15    1    1    2    0    0  0.23440330043E+01  0.53629804992E+01 -0.64826774772E+01  0.89128495350E+01  0.17770000000E+01 0. -1.
</event>
<event>
 6    1  0.1108180E-002  0.1852418E+03  0.7546771E-02  0.1066293E+00
        -11   -1    0    0    0    0  0.00000000000E+00  0.00000000000E+00  0.18250000000E+03  0.18250000000E+03  0.00000000000E+00 0. -1.
         11   -1    0    0    0    0 -0.00000000000E+00 -0.00000000000E+00 -0.18250000000E+03  0.18250000000E+03  0.00000000000E+00 0.  1.
        -11    1    1    2    0    0 -0.48821675235E+01 -0.74261122948E+00  0.17969040146E+03  0.17975824712E+03  0.00000000000E+00 0. -1.
         11    1    1    2    0    0 -0.33229757143E+01  0.31375290339E+01 -0.16100120649E+03  0.16106605709E+03  0.00000000000E+00 0.  1.
        -15    1    1    2    0    0  0.43247318276E+01  0.12932906481E+01 -0.21102786381E+00  0.48557355613E+01  0.17770000000E+01 0.  1.
         15    1    1    2    0    0  0.38804114102E+01 -0.36882084525E+01 -0.18478167109E+02  0.19319960223E+02  0.17770000000E+01 0.  1.
</event>
<event>
 6    1  0.1108180E-002  0.1830268E+03  0.7546771E-02  0.1068036E+00
        -11   -1    0    0    0    0  0.00000000000E+00  0.00000000000E+00  0.18250000000E+03  0.18250000000E+03  0.00000000000E+00 0. -1.
         11   -1    0    0    0    0 -0.00000000000E+00 -0.00000000000E+00 -0.18250000000E+03  0.18250000000E+03  0.00000000000E+00 0.  1.
        -11    1    1    2    0    0  0.27446302629E+01 -0.16854777285E+01  0.18194467143E+03  0.18197317739E+03  0.00000000000E+00 0. -1.
         11    1    1    2    0    0 -0.30637602648E+00 -0.26445659954E+01 -0.15615078837E+03  0.15617348144E+03  0.00000000000E+00 0.  1.
        -15    1    1    2    0    0 -0.12709790191E+01 -0.35960581109E+00 -0.58350586030E+01  0.62410209026E+01  0.17770000000E+01 0. -1.
         15    1    1    2    0    0 -0.11672752173E+01  0.46896495350E+01 -0.19958824449E+02  0.20612320261E+02  0.17770000000E+01 0.  1.
</event>
<event>
 6    1  0.1108180E-002  0.1836529E+03  0.7546771E-02  0.1067541E+00
        -11   -1    0    0    0    0  0.00000000000E+00  0.00000000000E+00  0.18250000000E+03  0.18250000000E+03  0.00000000000E+00 0.  1.
         11   -1    0    0    0    0 -0.00000000000E+00 -0.00000000000E+00 -0.18250000000E+03  0.18250000000E+03  0.00000000000E+00 0.  1.
        -11    1    1    2    0    0 -0.17179098934E+01 -0.47774204160E+01  0.12379670472E+03  0.12390076295E+03  0.00000000000E+00 0.  1.
         11    1    1    2    0    0  0.81703138642E+01 -0.14349518531E+01 -0.18115723707E+03  0.18134706410E+03  0.00000000000E+00 0.  1.
        -15    1    1    2    0    0 -0.91678876763E+00 -0.38641116891E+01  0.87895183894E+01  0.98074065536E+01  0.17770000000E+01 0. -1.
         15    1    1    2    0    0 -0.55356152032E+01  0.10076483958E+02  0.48571013955E+02  0.49944766395E+02  0.17770000000E+01 0.  1.
</event>
<event>
 6    1  0.1108180E-002  0.1826442E+03  0.7546771E-02  0.1068340E+00
        -11   -1    0    0    0    0  0.00000000000E+00  0.00000000000E+00  0.18250000000E+03  0.18250000000E+03  0.00000000000E+00 0. -1.
         11   -1    0    0    0    0 -0.00000000000E+00 -0.00000000000E+00 -0.18250000000E+03  0.18250000000E+03  0.00000000000E+00 0.  1.
        -11    1    1    2    0    0 -0.15233218737E+01 -0.56028804661E+01  0.18226329037E+03  0.18235575065E+03  0.00000000000E+00 0. -1.
         11    1    1    2    0    0  0.64075848595E+00  0.15235329054E+01 -0.23408157965E+02  0.23466435249E+02  0.00000000000E+00 0.  1.
        -15    1    1    2    0    0 -0.29701449981E+00 -0.68849569756E+00 -0.11449446260E+03  0.11451070666E+03  0.17770000000E+01 0.  1.
         15    1    1    2    0    0  0.11795778875E+01  0.47678432583E+01 -0.44360669801E+02  0.44667107445E+02  0.17770000000E+01 0.  1.
</event>
<event>
 6    1  0.1108180E-002  0.1877907E+03  0.7546771E-02  0.1064320E+00
        -11   -1    0    0    0    0  0.00000000000E+00  0.00000000000E+00  0.18250000000E+03  0.18250000000E+03  0.00000000000E+00 0. -1.
         11   -1    0    0    0    0 -0.00000000000E+00 -0.00000000000E+00 -0.18250000000E+03  0.18250000000E+03  0.00000000000E+00 0. -1.
        -11    1    1    2    0    0 -0.56919258412E+01  0.18721490087E+01  0.17710792983E+03  0.17720925983E+03  0.00000000000E+00 0. -1.
         11    1    1    2    0    0  0.65924244010E+01 -0.47520539131E+01 -0.16496257051E+03  0.16516262212E+03  0.00000000000E+00 0. -1.
        -15    1    1    2    0    0  0.79330830924E+01  0.51695795355E+01 -0.47110470527E+01  0.10724274020E+02  0.17770000000E+01 0. -1.
         15    1    1    2    0    0 -0.88335816523E+01 -0.22896746312E+01 -0.74343122727E+01  0.11903844030E+02  0.17770000000E+01 0.  1.
</event>
<event>
 6    1  0.1108180E-002  0.1836489E+03  0.7546771E-02  0.1067544E+00
        -11   -1    0    0    0    0  0.00000000000E+00  0.00000000000E+00  0.18250000000E+03  0.18250000000E+03  0.00000000000E+00 0.  1.
         11   -1    0    0    0    0 -0.00000000000E+00 -0.00000000000E+00 -0.18250000000E+03  0.18250000000E+03  0.00000000000E+00 0. -1.
        -11    1    1    2    0    0  0.17775604535E+01  0.24412079982E-01  0.24696676154E+02  0.24760576128E+02  0.00000000000E+00 0.  1.
         11    1    1    2    0    0 -0.14320947680E+02  0.66374595742E+01 -0.18066290729E+03  0.18135112760E+03  0.00000000000E+00 0. -1.
        -15    1    1    2    0    0  0.94489303901E+01  0.64044763634E+01  0.11826279676E+03  0.11882569768E+03  0.17770000000E+01 0.  1.
         15    1    1    2    0    0  0.30944568365E+01 -0.13066348018E+02  0.37703434370E+02  0.40062598592E+02  0.17770000000E+01 0. -1.
</event>
<event>
 6    1  0.1108180E-002  0.1828112E+03  0.7546771E-02  0.1068207E+00
        -11   -1    0    0    0    0  0.00000000000E+00  0.00000000000E+00  0.18250000000E+03  0.18250000000E+03  0.00000000000E+00 0. -1.
         11   -1    0    0    0    0 -0.00000000000E+00 -0.00000000000E+00 -0.18250000000E+03  0.18250000000E+03  0.00000000000E+00 0. -1.
        -11    1    1    2    0    0 -0.13814817351E+01  0.39450172716E+00  0.10268183564E+03  0.10269188621E+03  0.00000000000E+00 0. -1.
         11    1    1    2    0    0 -0.28022910071E+01 -0.43356829062E+01 -0.18211563561E+03  0.18218879141E+03  0.00000000000E+00 0. -1.
        -15    1    1    2    0    0  0.29318448527E+01  0.39105832819E+01  0.20631912416E+02  0.21277262859E+02  0.17770000000E+01 0.  1.
         15    1    1    2    0    0  0.12519278895E+01  0.30597897109E-01  0.58801887554E+02  0.58842059520E+02  0.17770000000E+01 0.  1.
</event>
<event>
 6    1  0.1108180E-002  0.1834285E+03  0.7546771E-02  0.1067718E+00
        -11   -1    0    0    0    0  0.00000000000E+00  0.00000000000E+00  0.18250000000E+03  0.18250000000E+03  0.00000000000E+00 0.  1.
         11   -1    0    0    0    0 -0.00000000000E+00 -0.00000000000E+00 -0.18250000000E+03  0.18250000000E+03  0.00000000000E+00 0.  1.
        -11    1    1    2    0    0 -0.39144735756E+00 -0.28538764892E+01  0.18154861192E+03  0.18157146343E+03  0.00000000000E+00 0.  1.
         11    1    1    2    0    0 -0.24683290526E+01  0.42765497812E+01 -0.16307989302E+03  0.16315462921E+03  0.00000000000E+00 0.  1.
        -15    1    1    2    0    0  0.15413326412E+01 -0.38038006446E+01 -0.14327742759E+02  0.15009548535E+02  0.17770000000E+01 0.  1.
         15    1    1    2    0    0  0.13184437690E+01  0.23811273526E+01 -0.41409761372E+01  0.52643588223E+01  0.17770000000E+01 0.  1.
</event>
<event>
 6    1  0.1108180E-002  0.1857184E+03  0.7546771E-02  0.1065921E+00
        -11   -1    0    0    0    0  0.00000000000E+00  0.00000000000E+00  0.18250000000E+03  0.18250000000E+03  0.00000000000E+00 0.  1.
         11   -1    0    0    0    0 -0.00000000000E+00 -0.00000000000E+00 -0.18250000000E+03  0.18250000000E+03  0.00000000000E+00 0. -1.
        -11    1    1    2    0    0 -0.17261375382E+01 -0.51708761372E+01  0.16533165983E+03  0.16542150783E+03  0.00000000000E+00 0.  1.
         11    1    1    2    0    0 -0.12964285858E+01  0.22749379434E+01 -0.17926252380E+03  0.17928164577E+03  0.00000000000E+00 0. -1.
        -15    1    1    2    0    0  0.24224553939E+01 -0.32704694310E+01 -0.52240783031E+00  0.44715656515E+01  0.17770000000E+01 0.  1.
         15    1    1    2    0    0  0.60011073011E+00  0.61664076248E+01  0.14453271802E+02  0.15825280746E+02  0.17770000000E+01 0.  1.
</event>
<event>
 6    1  0.1108180E-002  0.1836284E+03  0.7546771E-02  0.1067560E+00
        -11   -1    0    0    0    0  0.00000000000E+00  0.00000000000E+00  0.18250000000E+03  0.18250000000E+03  0.00000000000E+00 0.  1.
         11   -1    0    0    0    0 -0.00000000000E+00 -0.00000000000E+00 -0.18250000000E+03  0.18250000000E+03  0.00000000000E+00 0.  1.
        -11    1    1    2    0    0  0.13128915742E+01  0.22306736350E+01  0.15535130749E+03  0.15537286870E+03  0.00000000000E+00 0.  1.
         11    1    1    2    0    0 -0.27989362582E+01 -0.21731027097E+01 -0.18133693268E+03  0.18137155117E+03  0.00000000000E+00 0.  1.
        -15    1    1    2    0    0 -0.16519057597E+01  0.19877960049E+01  0.22832466631E+02  0.23046895389E+02  0.17770000000E+01 0.  1.
         15    1    1    2    0    0  0.31379504438E+01 -0.20453669303E+01  0.31531585604E+01  0.52086847451E+01  0.17770000000E+01 0. -1.
</event>
<event>
 6    1  0.1108180E-002  0.1892769E+03  0.7546771E-02  0.1063185E+00
        -11   -1    0    0    0    0  0.00000000000E+00  0.00000000000E+00  0.18250000000E+03  0.18250000000E+03  0.00000000000E+00 0. -1.
         11   -1    0    0    0    0 -0.00000000000E+00 -0.00000000000E+00 -0.18250000000E+03  0.18250000000E+03  0.00000000000E+00 0. -1.
        -11    1    1    2    0    0 -0.17781237759E+01  0.24242428959E+01  0.17569737609E+03  0.17572309649E+03  0.00000000000E+00 0. -1.
         11    1    1    2    0    0 -0.74233531578E+01 -0.68900293148E+01 -0.16726342415E+03  0.16756978169E+03  0.00000000000E+00 0. -1.
        -15    1    1    2    0    0  0.19125087234E+01 -0.27384338056E+01  0.39936010324E+01  0.55012078247E+01  0.17770000000E+01 0. -1.
         15    1    1    2    0    0  0.72889682103E+01  0.72042202246E+01 -0.12427552966E+02  0.16205913993E+02  0.17770000000E+01 0. -1.
</event>
<event>
 6    1  0.1108180E-002  0.1768624E+03  0.7546771E-02  0.1073033E+00
        -11   -1    0    0    0    0  0.00000000000E+00  0.00000000000E+00  0.18250000000E+03  0.18250000000E+03  0.00000000000E+00 0. -1.
         11   -1    0    0    0    0 -0.00000000000E+00 -0.00000000000E+00 -0.18250000000E+03  0.18250000000E+03  0.00000000000E+00 0. -1.
        -11    1    1    2    0    0 -0.82765372614E+00 -0.55862123021E+01  0.17834430012E+03  0.17843368562E+03  0.00000000000E+00 0. -1.
         11    1    1    2    0    0  0.37041160937E+01 -0.36238835931E+00 -0.17532626208E+03  0.17536576056E+03  0.00000000000E+00 0. -1.
        -15    1    1    2    0    0 -0.13150125079E+01  0.75008865358E+01 -0.29871871656E+01  0.83709959313E+01  0.17770000000E+01 0.  1.
         15    1    1    2    0    0 -0.15614498596E+01 -0.15522858744E+01 -0.30850873014E-01  0.28295578942E+01  0.17770000000E+01 0.  1.
</event>
<event>
 6    1  0.1108180E-002  0.1832941E+03  0.7546771E-02  0.1067824E+00
        -11   -1    0    0    0    0  0.00000000000E+00  0.00000000000E+00  0.18250000000E+03  0.18250000000E+03  0.00000000000E+00 0.  1.
         11   -1    0    0    0    0 -0.00000000000E+00 -0.00000000000E+00 -0.18250000000E+03  0.18250000000E+03  0.00000000000E+00 0.  1.
        -11    1    1    2    0    0 -0.25975576475E+01  0.11858957753E+00  0.18168725693E+03  0.18170586314E+03  0.00000000000E+00 0.  1.
         11    1    1    2    0    0  0.71210561834E+00 -0.26322121984E+01 -0.15083555857E+03  0.15086020471E+03  0.00000000000E+00 0.  1.
        -15    1    1    2    0    0  0.41503312901E+01  0.38867933363E+01 -0.25645954839E+02  0.26328789203E+02  0.17770000000E+01 0.  1.
         15    1    1    2    0    0 -0.22648792609E+01 -0.13731707154E+01 -0.52057435143E+01  0.61051429481E+01  0.17770000000E+01 0. -1.
</event>
<event>
 6    1  0.1108180E-002  0.1895337E+03  0.7546771E-02  0.1062990E+00
        -11   -1    0    0    0    0  0.00000000000E+00  0.00000000000E+00  0.18250000000E+03  0.18250000000E+03  0.00000000000E+00 0.  1.
         11   -1    0    0    0    0 -0.00000000000E+00 -0.00000000000E+00 -0.18250000000E+03  0.18250000000E+03  0.00000000000E+00 0. -1.
        -11    1    1    2    0    0  0.36836013313E+01  0.18026373268E+01  0.17541840023E+03  0.17546633170E+03  0.00000000000E+00 0.  1.
         11    1    1    2    0    0 -0.80539644467E+01  0.30240376669E+01 -0.15093969710E+03  0.15118466624E+03  0.00000000000E+00 0. -1.
        -15    1    1    2    0    0  0.43491828839E+01 -0.11397523656E+01 -0.30603248322E+02  0.30982752688E+02  0.17770000000E+01 0.  1.
         15    1    1    2    0    0  0.21180231554E-01 -0.36869226281E+01  0.61245451851E+01  0.73662493708E+01  0.17770000000E+01 0. -1.
</event>
<event>
 6    1  0.1108180E-002  0.1836953E+03  0.7546771E-02  0.1067507E+00
        -11   -1    0    0    0    0  0.00000000000E+00  0.00000000000E+00  0.18250000000E+03  0.18250000000E+03  0.00000000000E+00 0.  1.
         11   -1    0    0    0    0 -0.00000000000E+00 -0.00000000000E+00 -0.18250000000E+03  0.18250000000E+03  0.00000000000E+00 0.  1.
        -11    1    1    2    0    0 -0.28823047927E+01  0.10030005749E+01  0.18127904403E+03  0.18130473103E+03  0.00000000000E+00 0.  1.
         11    1    1    2    0    0  0.52165856448E+00  0.33901205972E+01 -0.13309666598E+03  0.13314085601E+03  0.00000000000E+00 0.  1.
        -15    1    1    2    0    0  0.38331588908E+01 -0.27926020174E+01 -0.47357139329E+02  0.47627178244E+02  0.17770000000E+01 0. -1.
         15    1    1    2    0    0 -0.14725126625E+01 -0.16005191547E+01 -0.82523872337E+00  0.29272347115E+01  0.17770000000E+01 0.  1.
</event>
<event>
 6    1  0.1108180E-002  0.1828931E+03  0.7546771E-02  0.1068142E+00
        -11   -1    0    0    0    0  0.00000000000E+00  0.00000000000E+00  0.18250000000E+03  0.18250000000E+03  0.00000000000E+00 0.  1.
         11   -1    0    0    0    0 -0.00000000000E+00 -0.00000000000E+00 -0.18250000000E+03  0.18250000000E+03  0.00000000000E+00 0.  1.
        -11    1    1    2    0    0 -0.49259447720E+01  0.17956229028E+01  0.18203142793E+03  0.18210691900E+03  0.00000000000E+00 0.  1.
         11    1    1    2    0    0 -0.56334311972E+00 -0.16418439211E+01 -0.12055306905E+03  0.12056556500E+03  0.00000000000E+00 0.  1.
        -15    1    1    2    0    0  0.65733359489E+01 -0.17972639472E+01 -0.34014812322E+02  0.34736207183E+02  0.17770000000E+01 0. -1.
         15    1    1    2    0    0 -0.10840480572E+01  0.16434849655E+01 -0.27463546563E+02  0.27591308810E+02  0.17770000000E+01 0. -1.
</event>
<event>
 6    1  0.1108180E-002  0.1771541E+03  0.7546771E-02  0.1072792E+00
        -11   -1    0    0    0    0  0.00000000000E+00  0.00000000000E+00  0.18250000000E+03  0.18250000000E+03  0.00000000000E+00 0.  1.
         11   -1    0    0    0    0 -0.00000000000E+00 -0.00000000000E+00 -0.18250000000E+03  0.18250000000E+03  0.00000000000E+00 0. -1.
        -11    1    1    2    0    0 -0.11556913786E+01  0.22056402141E+01  0.17710314318E+03  0.17712064757E+03  0.00000000000E+00 0.  1.
         11    1    1    2    0    0 -0.47399295707E+01 -0.95980544603E+00 -0.17717274605E+03  0.17723873758E+03  0.00000000000E+00 0. -1.
        -15    1    1    2    0    0  0.12934461656E+01  0.30072012247E+01  0.14241073526E+01  0.39877403302E+01  0.17770000000E+01 0. -1.
         15    1    1    2    0    0  0.46021747837E+01 -0.42530359927E+01 -0.13545044894E+01  0.66528745146E+01  0.17770000000E+01 0.  1.
</event>
<event>
 6    1  0.1108180E-002  0.1829404E+03  0.7546771E-02  0.1068105E+00
        -11   -1    0    0    0    0  0.00000000000E+00  0.00000000000E+00  0.18250000000E+03  0.18250000000E+03  0.00000000000E+00 0.  1.
         11   -1    0    0    0    0 -0.00000000000E+00 -0.00000000000E+00 -0.18250000000E+03  0.18250000000E+03  0.00000000000E+00 0.  1.
        -11    1    1    2    0    0 -0.38684677949E-01 -0.41137771635E+01  0.53814422683E+02  0.53971443818E+02  0.00000000000E+00 0.  1.
         11    1    1    2    0    0 -0.30293210139E+01 -0.91518903198E-01 -0.18203438041E+03  0.18205960786E+03  0.00000000000E+00 0.  1.
        -15    1    1    2    0    0  0.25400583001E+01  0.48378425001E+01  0.22219422182E+02  0.22950317369E+02  0.17770000000E+01 0. -1.
         15    1    1    2    0    0  0.52794739173E+00 -0.63254643335E+00  0.10600053555E+03  0.10601863095E+03  0.17770000000E+01 0.  1.
</event>
<event>
 6    1  0.1108180E-002  0.1596769E+03  0.7546771E-02  0.1088229E+00
        -11   -1    0    0    0    0  0.00000000000E+00  0.00000000000E+00  0.18250000000E+03  0.18250000000E+03  0.00000000000E+00 0. -1.
         11   -1    0    0    0    0 -0.00000000000E+00 -0.00000000000E+00 -0.18250000000E+03  0.18250000000E+03  0.00000000000E+00 0. -1.
        -11    1    1    2    0    0  0.34934914973E+01  0.67621940601E+01  0.16000958412E+03  0.16019050772E+03  0.00000000000E+00 0. -1.
         11    1    1    2    0    0  0.38381607563E+01  0.11477629300E+02 -0.15930947366E+03  0.15976850707E+03  0.00000000000E+00 0. -1.
        -15    1    1    2    0    0 -0.21611127924E+02 -0.12773685064E+02 -0.99730785887E+01  0.27070794333E+02  0.17770000000E+01 0.  1.
         15    1    1    2    0    0  0.14279475671E+02 -0.54661382964E+01  0.92729681286E+01  0.17970190879E+02  0.17770000000E+01 0. -1.
</event>
<event>
 6    1  0.1108180E-002  0.1837408E+03  0.7546771E-02  0.1067471E+00
        -11   -1    0    0    0    0  0.00000000000E+00  0.00000000000E+00  0.18250000000E+03  0.18250000000E+03  0.00000000000E+00 0.  1.
         11   -1    0    0    0    0 -0.00000000000E+00 -0.00000000000E+00 -0.18250000000E+03  0.18250000000E+03  0.00000000000E+00 0.  1.
        -11    1    1    2    0    0 -0.46708717218E+01 -0.32063207827E+00  0.14450508049E+03  0.14458090516E+03  0.00000000000E+00 0.  1.
         11    1    1    2    0    0 -0.39745680510E+01 -0.21371160282E+01 -0.18120297885E+03  0.18125916253E+03  0.00000000000E+00 0.  1.
        -15    1    1    2    0    0  0.77001342837E+01  0.52512355919E+01  0.31709906294E+02  0.33098994387E+02  0.17770000000E+01 0. -1.
         15    1    1    2    0    0  0.94530548914E+00 -0.27934874854E+01  0.49879920590E+01  0.60609379291E+01  0.17770000000E+01 0.  1.
</event>
<event>
 6    1  0.1108180E-002  0.1852100E+03  0.7546771E-02  0.1066318E+00
        -11   -1    0    0    0    0  0.00000000000E+00  0.00000000000E+00  0.18250000000E+03  0.18250000000E+03  0.00000000000E+00 0.  1.
         11   -1    0    0    0    0 -0.00000000000E+00 -0.00000000000E+00 -0.18250000000E+03  0.18250000000E+03  0.00000000000E+00 0. -1.
        -11    1    1    2    0    0  0.32176334143E+01 -0.12527387981E+01  0.17975680229E+03  0.17978996214E+03  0.00000000000E+00 0.  1.
         11    1    1    2    0    0  0.38373890173E+01 -0.12367702871E+01 -0.17348899833E+03  0.17353583981E+03  0.00000000000E+00 0. -1.
        -15    1    1    2    0    0 -0.14476833943E+01 -0.39134657670E+00  0.36365801176E+00  0.23534900686E+01  0.17770000000E+01 0. -1.
         15    1    1    2    0    0 -0.56073390373E+01  0.28808556619E+01 -0.66314619691E+01  0.93207079812E+01  0.17770000000E+01 0.  1.
</event>
<event>
 6    1  0.1108180E-002  0.1851817E+03  0.7546771E-02  0.1066340E+00
        -11   -1    0    0    0    0  0.00000000000E+00  0.00000000000E+00  0.18250000000E+03  0.18250000000E+03  0.00000000000E+00 0. -1.
         11   -1    0    0    0    0 -0.00000000000E+00 -0.00000000000E+00 -0.18250000000E+03  0.18250000000E+03  0.00000000000E+00 0. -1.
        -11    1    1    2    0    0 -0.62202404020E+01 -0.15506472413E+01  0.17112596357E+03  0.17124599647E+03  0.00000000000E+00 0. -1.
         11    1    1    2    0    0  0.22543418513E+01  0.10826622513E+01 -0.17980095782E+03  0.17981834903E+03  0.00000000000E+00 0. -1.
        -15    1    1    2    0    0 -0.16065003289E+01  0.10660234076E+01 -0.83780461264E+00  0.27526159887E+01  0.17770000000E+01 0. -1.
         15    1    1    2    0    0  0.55723988796E+01 -0.59803841765E+00  0.95127988605E+01  0.11183038513E+02  0.17770000000E+01 0. -1.
</event>
<event>
 6    1  0.1108180E-002  0.1746830E+03  0.7546771E-02  0.1074853E+00
        -11   -1    0    0    0    0  0.00000000000E+00  0.00000000000E+00  0.18250000000E+03  0.18250000000E+03  0.00000000000E+00 0. -1.
         11   -1    0    0    0    0 -0.00000000000E+00 -0.00000000000E+00 -0.18250000000E+03  0.18250000000E+03  0.00000000000E+00 0.  1.
        -11    1    1    2    0    0 -0.75529464162E+01 -0.49121503001E+00  0.17731233450E+03  0.17747380724E+03  0.00000000000E+00 0. -1.
         11    1    1    2    0    0 -0.27556246376E+01 -0.23018151328E+01 -0.17205741939E+03  0.17209487903E+03  0.00000000000E+00 0.  1.
        -15    1    1    2    0    0  0.96640526348E+01  0.39105989738E+01 -0.97445969019E+00  0.10620451890E+02  0.17770000000E+01 0. -1.
         15    1    1    2    0    0  0.64451841895E+00 -0.11175688110E+01 -0.42804554187E+01  0.48108618387E+01  0.17770000000E+01 0.  1.
</event>
<event>
 6    1  0.1108180E-002  0.1834932E+03  0.7546771E-02  0.1067667E+00
        -11   -1    0    0    0    0  0.00000000000E+00  0.00000000000E+00  0.18250000000E+03  0.18250000000E+03  0.00000000000E+00 0. -1.
         11   -1    0    0    0    0 -0.00000000000E+00 -0.00000000000E+00 -0.18250000000E+03  0.18250000000E+03  0.00000000000E+00 0.  1.
        -11    1    1    2    0    0  0.35601322646E+01 -0.30225710916E+00  0.18147162540E+03  0.18150679526E+03  0.00000000000E+00 0. -1.
         11    1    1    2    0    0 -0.23733136443E+01  0.54155325690E+00 -0.42451164410E+02  0.42520903770E+02  0.00000000000E+00 0.  1.
        -15    1    1    2    0    0  0.47878068668E+01 -0.19282040213E+01 -0.12858064799E+03  0.12869647172E+03  0.17770000000E+01 0.  1.
         15    1    1    2    0    0 -0.59746254872E+01  0.16889078735E+01 -0.10439812995E+02  0.12275829254E+02  0.17770000000E+01 0.  1.
</event>
<event>
 6    1  0.1108180E-002  0.1829689E+03  0.7546771E-02  0.1068082E+00
        -11   -1    0    0    0    0  0.00000000000E+00  0.00000000000E+00  0.18250000000E+03  0.18250000000E+03  0.00000000000E+00 0.  1.
         11   -1    0    0    0    0 -0.00000000000E+00 -0.00000000000E+00 -0.18250000000E+03  0.18250000000E+03  0.00000000000E+00 0. -1.
        -11    1    1    2    0    0 -0.20400659669E+00  0.97463345870E+00  0.19929389667E+02  0.19954250213E+02  0.00000000000E+00 0.  1.
         11    1    1    2    0    0 -0.13081695566E+01  0.22369229027E+01 -0.18201261211E+03  0.18203105806E+03  0.00000000000E+00 0. -1.
        -15    1    1    2    0    0  0.57059683696E-01  0.34945985743E+01  0.96415515834E+01  0.10408300579E+02  0.17770000000E+01 0. -1.
         15    1    1    2    0    0  0.14551164695E+01 -0.67061549357E+01  0.15244167086E+03  0.15260639115E+03  0.17770000000E+01 0.  1.
</event>
<event>
 6    1  0.1108180E-002  0.1912943E+03  0.7546771E-02  0.1061662E+00
        -11   -1    0    0    0    0  0.00000000000E+00  0.00000000000E+00  0.18250000000E+03  0.18250000000E+03  0.00000000000E+00 0.  1.
         11   -1    0    0    0    0 -0.00000000000E+00 -0.00000000000E+00 -0.18250000000E+03  0.18250000000E+03  0.00000000000E+00 0.  1.
        -11    1    1    2    0    0 -0.98174633344E+01 -0.81052466173E+01  0.15469264990E+03  0.15521563562E+03  0.00000000000E+00 0.  1.
         11    1    1    2    0    0 -0.41908151222E+01 -0.50134594620E+01 -0.17358279329E+03  0.17370573921E+03  0.00000000000E+00 0.  1.
        -15    1    1    2    0    0  0.16966366178E+02  0.92839378039E+01  0.22544436961E+02  0.29756653867E+02  0.17770000000E+01 0.  1.
         15    1    1    2    0    0 -0.29580877217E+01  0.38347682754E+01 -0.36542935671E+01  0.63219713041E+01  0.17770000000E+01 0. -1.
</event>
<event>
 6    1  0.1108180E-002  0.1828793E+03  0.7546771E-02  0.1068153E+00
        -11   -1    0    0    0    0  0.00000000000E+00  0.00000000000E+00  0.18250000000E+03  0.18250000000E+03  0.00000000000E+00 0. -1.
         11   -1    0    0    0    0 -0.00000000000E+00 -0.00000000000E+00 -0.18250000000E+03  0.18250000000E+03  0.00000000000E+00 0. -1.
        -11    1    1    2    0    0 -0.95693874735E-01 -0.19665259464E+01  0.96241415396E+02  0.96261552133E+02  0.00000000000E+00 0. -1.
         11    1    1    2    0    0  0.11565091710E+01 -0.49431823631E+01 -0.18204988234E+03  0.18212065293E+03  0.00000000000E+00 0. -1.
        -15    1    1    2    0    0 -0.28992608970E+01 -0.56095740212E+00  0.16177054658E+02  0.16540109230E+02  0.17770000000E+01 0.  1.
         15    1    1    2    0    0  0.18384456007E+01  0.74706657116E+01  0.69631412283E+02  0.70077685706E+02  0.17770000000E+01 0. -1.
</event>
<event>
 6    1  0.1108180E-002  0.1832185E+03  0.7546771E-02  0.1067884E+00
        -11   -1    0    0    0    0  0.00000000000E+00  0.00000000000E+00  0.18250000000E+03  0.18250000000E+03  0.00000000000E+00 0.  1.
         11   -1    0    0    0    0 -0.00000000000E+00 -0.00000000000E+00 -0.18250000000E+03  0.18250000000E+03  0.00000000000E+00 0.  1.
        -11    1    1    2    0    0 -0.11356094722E+01  0.12614720108E+01  0.87059779705E+02  0.87076323779E+02  0.00000000000E+00 0.  1.
         11    1    1    2    0    0  0.38654756096E+01  0.47088282004E+00 -0.18173975526E+03  0.18178146846E+03  0.00000000000E+00 0.  1.
        -15    1    1    2    0    0 -0.15046961058E+00 -0.41996261486E+01  0.89446877924E+02  0.89563168770E+02  0.17770000000E+01 0.  1.
         15    1    1    2    0    0 -0.25793965269E+01  0.24672713178E+01  0.52330976339E+01  0.65790389909E+01  0.17770000000E+01 0. -1.
</event>
<event>
 6    1  0.1108180E-002  0.1912712E+03  0.7546771E-02  0.1061680E+00
        -11   -1    0    0    0    0  0.00000000000E+00  0.00000000000E+00  0.18250000000E+03  0.18250000000E+03  0.00000000000E+00 0. -1.
         11   -1    0    0    0    0 -0.00000000000E+00 -0.00000000000E+00 -0.18250000000E+03  0.18250000000E+03  0.00000000000E+00 0.  1.
        -11    1    1    2    0    0  0.10572256973E+02 -0.17437605659E+02  0.13206387866E+03  0.13362900417E+03  0.00000000000E+00 0. -1.
         11    1    1    2    0    0 -0.11457490576E+02 -0.99494727478E+01 -0.17306476654E+03  0.17372875270E+03  0.00000000000E+00 0.  1.
        -15    1    1    2    0    0 -0.90393483315E+01 -0.12303976594E+01  0.15187943886E+02  0.17806040131E+02  0.17770000000E+01 0. -1.
         15    1    1    2    0    0  0.99245819345E+01  0.28617476066E+02  0.25812943995E+02  0.39836203002E+02  0.17770000000E+01 0.  1.
</event>
<event>
 6    1  0.1108180E-002  0.1791603E+03  0.7546771E-02  0.1071145E+00
        -11   -1    0    0    0    0  0.00000000000E+00  0.00000000000E+00  0.18250000000E+03  0.18250000000E+03  0.00000000000E+00 0.  1.
         11   -1    0    0    0    0 -0.00000000000E+00 -0.00000000000E+00 -0.18250000000E+03  0.18250000000E+03  0.00000000000E+00 0.  1.
        -11    1    1    2    0    0 -0.12571173785E+01  0.21556487267E+00  0.77997524265E+01  0.79033505700E+01  0.00000000000E+00 0.  1.
         11    1    1    2    0    0 -0.40672902714E+01  0.11206048026E+00 -0.18171439132E+03  0.18175993899E+03  0.00000000000E+00 0.  1.
        -15    1    1    2    0    0  0.57929073632E+01 -0.46428683711E+01  0.20903778647E+02  0.22253981512E+02  0.17770000000E+01 0. -1.
         15    1    1    2    0    0 -0.46849971325E+00  0.43152430182E+01  0.15301086025E+03  0.15308272893E+03  0.17770000000E+01 0.  1.
</event>
<event>
 6    1  0.1108180E-002  0.1718203E+03  0.7546771E-02  0.1077289E+00
        -11   -1    0    0    0    0  0.00000000000E+00  0.00000000000E+00  0.18250000000E+03  0.18250000000E+03  0.00000000000E+00 0.  1.
         11   -1    0    0    0    0 -0.00000000000E+00 -0.00000000000E+00 -0.18250000000E+03  0.18250000000E+03  0.00000000000E+00 0.  1.
        -11    1    1    2    0    0  0.89297208579E+01 -0.23420413032E+01  0.16846512315E+03  0.16871787929E+03  0.00000000000E+00 0.  1.
         11    1    1    2    0    0  0.86413746829E+01  0.18130728956E+01 -0.17521593359E+03  0.17543826257E+03  0.00000000000E+00 0.  1.
        -15    1    1    2    0    0 -0.14498102353E+02 -0.27448565832E+01  0.55777309641E+01  0.15874445540E+02  0.17770000000E+01 0. -1.
         15    1    1    2    0    0 -0.30729931876E+01  0.32738249908E+01  0.11730794695E+01  0.49694126054E+01  0.17770000000E+01 0.  1.
</event>
<event>
 6    1  0.1108180E-002  0.1831309E+03  0.7546771E-02  0.1067954E+00
        -11   -1    0    0    0    0  0.00000000000E+00  0.00000000000E+00  0.18250000000E+03  0.18250000000E+03  0.00000000000E+00 0.  1.
         11   -1    0    0    0    0 -0.00000000000E+00 -0.00000000000E+00 -0.18250000000E+03  0.18250000000E+03  0.00000000000E+00 0. -1.
        -11    1    1    2    0    0  0.39132990420E+00 -0.30402987957E+01  0.14550095985E+03  0.14553324663E+03  0.00000000000E+00 0.  1.
         11    1    1    2    0    0 -0.49538420673E+01 -0.13197268286E+01 -0.18179686378E+03  0.18186913403E+03  0.00000000000E+00 0. -1.
        -15    1    1    2    0    0  0.36952234749E+01 -0.83942435466E+00  0.17661354960E+02  0.18150495800E+02  0.17770000000E+01 0. -1.
         15    1    1    2    0    0  0.86728868823E+00  0.51994499790E+01  0.18634548970E+02  0.19447123542E+02  0.17770000000E+01 0.  1.
</event>
<event>
 6    1  0.1108180E-002  0.2038587E+03  0.7546771E-02  0.1052620E+00
        -11   -1    0    0    0    0  0.00000000000E+00  0.00000000000E+00  0.18250000000E+03  0.18250000000E+03  0.00000000000E+00 0. -1.
         11   -1    0    0    0    0 -0.00000000000E+00 -0.00000000000E+00 -0.18250000000E+03  0.18250000000E+03  0.00000000000E+00 0. -1.
        -11    1    1    2    0    0  0.16982616284E+02  0.45339884496E+01  0.16017979574E+03  0.16114134562E+03  0.00000000000E+00 0. -1.
         11    1    1    2    0    0 -0.25188023853E+02  0.34917008156E+02 -0.10342044331E+03  0.11202420319E+03  0.00000000000E+00 0. -1.
        -15    1    1    2    0    0 -0.17474739800E+02  0.14052323099E+01 -0.41162232185E+00  0.17625787099E+02  0.17770000000E+01 0.  1.
         15    1    1    2    0    0  0.25680147369E+02 -0.40856228916E+02 -0.56347730099E+02  0.74208664093E+02  0.17770000000E+01 0. -1.
</event>
<event>
 6    1  0.1108180E-002  0.1770078E+03  0.7546771E-02  0.1072913E+00
        -11   -1    0    0    0    0  0.00000000000E+00  0.00000000000E+00  0.18250000000E+03  0.18250000000E+03  0.00000000000E+00 0. -1.
         11   -1    0    0    0    0 -0.00000000000E+00 -0.00000000000E+00 -0.18250000000E+03  0.18250000000E+03  0.00000000000E+00 0. -1.
        -11    1    1    2    0    0 -0.18060434168E+01  0.24966030226E+01  0.17606617753E+03  0.17609313925E+03  0.00000000000E+00 0. -1.
         11    1    1    2    0    0 -0.22318821588E+01 -0.23906501970E+01 -0.17792026375E+03  0.17795032105E+03  0.00000000000E+00 0. -1.
        -15    1    1    2    0    0  0.44645073893E+01 -0.36812467415E+01 -0.85435263293E+00  0.61131866667E+01  0.17770000000E+01 0.  1.
         15    1    1    2    0    0 -0.42658181368E+00  0.35752939160E+01  0.27084388536E+01  0.48433530382E+01  0.17770000000E+01 0. -1.
</event>
<event>
 6    1  0.1108180E-002  0.1960825E+03  0.7546771E-02  0.1058129E+00
        -11   -1    0    0    0    0  0.00000000000E+00  0.00000000000E+00  0.18250000000E+03  0.18250000000E+03  0.00000000000E+00 0. -1.
         11   -1    0    0    0    0 -0.00000000000E+00 -0.00000000000E+00 -0.18250000000E+03  0.18250000000E+03  0.00000000000E+00 0. -1.
        -11    1    1    2    0    0  0.57270217226E+00  0.18982225394E+01  0.12298473233E+03  0.12300071391E+03  0.00000000000E+00 0. -1.
         11    1    1    2    0    0 -0.32964977473E+01 -0.24357811712E+00 -0.16888514900E+03  0.16891749400E+03  0.00000000000E+00 0. -1.
        -15    1    1    2    0    0  0.16105695192E+02  0.73924320193E+00  0.54523769298E+02  0.56885314850E+02  0.17770000000E+01 0.  1.
         15    1    1    2    0    0 -0.13381899617E+02 -0.23938876242E+01 -0.86233526313E+01  0.16196477238E+02  0.17770000000E+01 0. -1.
</event>
<event>
 6    1  0.1108180E-002  0.1830571E+03  0.7546771E-02  0.1068012E+00
        -11   -1    0    0    0    0  0.00000000000E+00  0.00000000000E+00  0.18250000000E+03  0.18250000000E+03  0.00000000000E+00 0. -1.
         11   -1    0    0    0    0 -0.00000000000E+00 -0.00000000000E+00 -0.18250000000E+03  0.18250000000E+03  0.00000000000E+00 0.  1.
        -11    1    1    2    0    0  0.44619542535E+01  0.42890906354E+01  0.18183760818E+03  0.18194290611E+03  0.00000000000E+00 0. -1.
         11    1    1    2    0    0  0.44269176460E-01 -0.86514833655E+00 -0.37672946880E+02  0.37682905514E+02  0.00000000000E+00 0.  1.
        -15    1    1    2    0    0  0.28180700260E+01 -0.80166571274E+01 -0.45885258514E+02  0.46699282522E+02  0.17770000000E+01 0. -1.
         15    1    1    2    0    0 -0.73242934560E+01  0.45927148286E+01 -0.98279402788E+02  0.98674905855E+02  0.17770000000E+01 0.  1.
</event>
<event>
 6    1  0.1108180E-002  0.1837527E+03  0.7546771E-02  0.1067462E+00
        -11   -1    0    0    0    0  0.00000000000E+00  0.00000000000E+00  0.18250000000E+03  0.18250000000E+03  0.00000000000E+00 0. -1.
         11   -1    0    0    0    0 -0.00000000000E+00 -0.00000000000E+00 -0.18250000000E+03  0.18250000000E+03  0.00000000000E+00 0.  1.
        -11    1    1    2    0    0  0.41631154621E+01  0.23983023319E+00  0.13883540122E+03  0.13889801180E+03  0.00000000000E+00 0. -1.
         11    1    1    2    0    0 -0.57889445211E+01  0.32326091894E+00 -0.18115455761E+03  0.18124731755E+03  0.00000000000E+00 0.  1.
        -15    1    1    2    0    0 -0.35776058652E+01 -0.54426374381E+01  0.27442417738E+02  0.28260672079E+02  0.17770000000E+01 0. -1.
         15    1    1    2    0    0  0.52034349241E+01  0.48795462860E+01  0.14876738645E+02  0.16593998574E+02  0.17770000000E+01 0.  1.
</event>
<event>
 6    1  0.1108180E-002  0.1758087E+03  0.7546771E-02  0.1073909E+00
        -11   -1    0    0    0    0  0.00000000000E+00  0.00000000000E+00  0.18250000000E+03  0.18250000000E+03  0.00000000000E+00 0.  1.
         11   -1    0    0    0    0 -0.00000000000E+00 -0.00000000000E+00 -0.18250000000E+03  0.18250000000E+03  0.00000000000E+00 0.  1.
        -11    1    1    2    0    0 -0.96291849798E+00 -0.35102490736E+01  0.17691577926E+03  0.17695321984E+03  0.00000000000E+00 0.  1.
         11    1    1    2    0    0 -0.28720104763E+01  0.50806012016E+01 -0.17459863277E+03  0.17469614626E+03  0.00000000000E+00 0.  1.
        -15    1    1    2    0    0  0.32567685572E+01  0.18464337273E+01  0.41094172130E+01  0.58361714998E+01  0.17770000000E+01 0.  1.
         15    1    1    2    0    0  0.57816041703E+00 -0.34167858553E+01 -0.64265637043E+01  0.75144623955E+01  0.17770000000E+01 0. -1.
</event>
<event>
 6    1  0.1108180E-002  0.1897732E+03  0.7546771E-02  0.1062808E+00
        -11   -1    0    0    0    0  0.00000000000E+00  0.00000000000E+00  0.18250000000E+03  0.18250000000E+03  0.00000000000E+00 0.  1.
         11   -1    0    0    0    0 -0.00000000000E+00 -0.00000000000E+00 -0.18250000000E+03  0.18250000000E+03  0.00000000000E+00 0. -1.
        -11    1    1    2    0    0 -0.44788847188E+01  0.24262389292E+01  0.17515271642E+03  0.17522677053E+03  0.00000000000E+00 0.  1.
         11    1    1    2    0    0  0.41233421035E+01 -0.31996094382E+01 -0.16783230107E+03  0.16791343226E+03  0.00000000000E+00 0. -1.
        -15    1    1    2    0    0  0.59643933725E+01 -0.94923153291E-01  0.51274034651E+01  0.80641796855E+01  0.17770000000E+01 0.  1.
         15    1    1    2    0    0 -0.56088507572E+01  0.86829366224E+00 -0.12447818809E+02  0.13795617522E+02  0.17770000000E+01 0. -1.
</event>
<event>
 6    1  0.1108180E-002  0.1833963E+03  0.7546771E-02  0.1067744E+00
        -11   -1    0    0    0    0  0.00000000000E+00  0.00000000000E+00  0.18250000000E+03  0.18250000000E+03  0.00000000000E+00 0. -1.
         11   -1    0    0    0    0 -0.00000000000E+00 -0.00000000000E+00 -0.18250000000E+03  0.18250000000E+03  0.00000000000E+00 0.  1.
        -11    1    1    2    0    0 -0.54242033192E+00 -0.26649108461E+01  0.12873134161E+03  0.12876006479E+03  0.00000000000E+00 0. -1.
         11    1    1    2    0    0 -0.51068365393E+01  0.42463000903E+01 -0.18148219620E+03  0.18160368494E+03  0.00000000000E+00 0.  1.
        -15    1    1    2    0    0  0.18540332217E+01  0.38324478774E+01  0.39035126188E+02  0.39306792053E+02  0.17770000000E+01 0. -1.
         15    1    1    2    0    0  0.37952236495E+01 -0.54138371216E+01  0.13715728400E+02  0.15329458225E+02  0.17770000000E+01 0. -1.
</event>
<event>
 6    1  0.1108180E-002  0.1893215E+03  0.7546771E-02  0.1063151E+00
        -11   -1    0    0    0    0  0.00000000000E+00  0.00000000000E+00  0.18250000000E+03  0.18250000000E+03  0.00000000000E+00 0. -1.
         11   -1    0    0    0    0 -0.00000000000E+00 -0.00000000000E+00 -0.18250000000E+03  0.18250000000E+03  0.00000000000E+00 0. -1.
        -11    1    1    2    0    0 -0.26998208086E+01 -0.65566470145E+00  0.17565650120E+03  0.17567847148E+03  0.00000000000E+00 0. -1.
         11    1    1    2    0    0  0.33431983051E+01  0.15179291313E+00 -0.17502418591E+03  0.17505617861E+03  0.00000000000E+00 0. -1.
        -15    1    1    2    0    0 -0.69145464301E+01  0.11747601975E+01  0.14715459646E+01  0.73833725614E+01  0.17770000000E+01 0.  1.
         15    1    1    2    0    0  0.62711689335E+01 -0.67088840919E+00 -0.21038612558E+01  0.68819773492E+01  0.17770000000E+01 0.  1.
</event>
<event>
 6    1  0.1108180E-002  0.1841126E+03  0.7546771E-02  0.1067178E+00
        -11   -1    0    0    0    0  0.00000000000E+00  0.00000000000E+00  0.18250000000E+03  0.18250000000E+03  0.00000000000E+00 0. -1.
         11   -1    0    0    0    0 -0.00000000000E+00 -0.00000000000E+00 -0.18250000000E+03  0.18250000000E+03  0.00000000000E+00 0. -1.
        -11    1    1    2    0    0  0.10346909301E+01 -0.18656451907E+01  0.13823657531E+03  0.13825303603E+03  0.00000000000E+00 0. -1.
         11    1    1    2    0    0  0.27415641561E+01  0.21013875696E+01 -0.18085441765E+03  0.18088740251E+03  0.00000000000E+00 0. -1.
        -15    1    1    2    0    0 -0.46140990069E+00 -0.36338674557E+01  0.13614046454E+01  0.42929061707E+01  0.17770000000E+01 0. -1.
         15    1    1    2    0    0 -0.33148451855E+01  0.33981250769E+01  0.41256437688E+02  0.41566655294E+02  0.17770000000E+01 0.  1.
</event>
<event>
 6    1  0.1108180E-002  0.1848914E+03  0.7546771E-02  0.1066567E+00
        -11   -1    0    0    0    0  0.00000000000E+00  0.00000000000E+00  0.18250000000E+03  0.18250000000E+03  0.00000000000E+00 0. -1.
         11   -1    0    0    0    0 -0.00000000000E+00 -0.00000000000E+00 -0.18250000000E+03  0.18250000000E+03  0.00000000000E+00 0.  1.
        -11    1    1    2    0    0 -0.33109802389E+01  0.60897282356E+00  0.18007716414E+03  0.18010862968E+03  0.00000000000E+00 0. -1.
         11    1    1    2    0    0  0.31357376917E+01 -0.60872804033E+00 -0.15535484291E+03  0.15538767845E+03  0.00000000000E+00 0.  1.
        -15    1    1    2    0    0 -0.77131004798E+01  0.71515509655E-01 -0.10587783549E+02  0.13219528091E+02  0.17770000000E+01 0. -1.
         15    1    1    2    0    0  0.78883430271E+01 -0.71760292888E-01 -0.14134537688E+02  0.16284163777E+02  0.17770000000E+01 0.  1.
</event>
<event>
 6    1  0.1108180E-002  0.1865187E+03  0.7546771E-02  0.1065300E+00
        -11   -1    0    0    0    0  0.00000000000E+00  0.00000000000E+00  0.18250000000E+03  0.18250000000E+03  0.00000000000E+00 0. -1.
         11   -1    0    0    0    0 -0.00000000000E+00 -0.00000000000E+00 -0.18250000000E+03  0.18250000000E+03  0.00000000000E+00 0. -1.
        -11    1    1    2    0    0 -0.62882211623E+01 -0.53662873798E+01  0.15436354421E+03  0.15458474228E+03  0.00000000000E+00 0. -1.
         11    1    1    2    0    0 -0.16339027516E+01 -0.35860937022E+01 -0.17843774891E+03  0.17848125936E+03  0.00000000000E+00 0. -1.
        -15    1    1    2    0    0  0.96949415997E+01  0.95200823285E+01  0.25531504258E+02  0.28976530138E+02  0.17770000000E+01 0. -1.
         15    1    1    2    0    0 -0.17728176857E+01 -0.56770124653E+00 -0.14572995542E+01  0.29574682150E+01  0.17770000000E+01 0. -1.
</event>
<event>
 6    1  0.1108180E-002  0.1840038E+03  0.7546771E-02  0.1067264E+00
        -11   -1    0    0    0    0  0.00000000000E+00  0.00000000000E+00  0.18250000000E+03  0.18250000000E+03  0.00000000000E+00 0. -1.
         11   -1    0    0    0    0 -0.00000000000E+00 -0.00000000000E+00 -0.18250000000E+03  0.18250000000E+03  0.00000000000E+00 0.  1.
        -11    1    1    2    0    0 -0.73854188418E+01 -0.27506292897E+00  0.18084523911E+03  0.18099618940E+03  0.00000000000E+00 0. -1.
         11    1    1    2    0    0  0.73409455411E+00 -0.27337436554E+01 -0.13814661576E+03  0.13817561180E+03  0.00000000000E+00 0.  1.
        -15    1    1    2    0    0  0.43869172029E+01  0.84113476395E+01 -0.32791885064E+02  0.34182762713E+02  0.17770000000E+01 0. -1.
         15    1    1    2    0    0  0.22644070848E+01 -0.54025410552E+01 -0.99067382793E+01  0.11645436086E+02  0.17770000000E+01 0.  1.
</event>
<event>
 6    1  0.1108180E-002  0.1145429E+03  0.7546771E-02  0.1140802E+00
        -11   -1    0    0    0    0  0.00000000000E+00  0.00000000000E+00  0.18250000000E+03  0.18250000000E+03  0.00000000000E+00 0.  1.
         11   -1    0    0    0    0 -0.00000000000E+00 -0.00000000000E+00 -0.18250000000E+03  0.18250000000E+03  0.00000000000E+00 0. -1.
        -11    1    1    2    0    0 -0.38269123200E+00  0.35667842442E+01  0.45128781307E+02  0.45271131030E+02  0.00000000000E+00 0.  1.
         11    1    1    2    0    0  0.20555737202E+00  0.64282407753E+01 -0.15041459181E+03  0.15055203075E+03  0.00000000000E+00 0. -1.
        -15    1    1    2    0    0 -0.41838342932E+02 -0.51010404869E+02  0.27010333757E+02  0.71310757975E+02  0.17770000000E+01 0. -1.
         15    1    1    2    0    0  0.42015476792E+02  0.41015379850E+02  0.78275476745E+02  0.97866080247E+02  0.17770000000E+01 0.  1.
</event>
<event>
 6    1  0.1108180E-002  0.1846849E+03  0.7546771E-02  0.1066729E+00
        -11   -1    0    0    0    0  0.00000000000E+00  0.00000000000E+00  0.18250000000E+03  0.18250000000E+03  0.00000000000E+00 0.  1.
         11   -1    0    0    0    0 -0.00000000000E+00 -0.00000000000E+00 -0.18250000000E+03  0.18250000000E+03  0.00000000000E+00 0. -1.
        -11    1    1    2    0    0 -0.58392778619E+01 -0.10161772343E+02  0.12860992150E+03  0.12914283059E+03  0.00000000000E+00 0.  1.
         11    1    1    2    0    0 -0.82022744772E+01 -0.24668722171E+01 -0.18011151352E+03  0.18031505780E+03  0.00000000000E+00 0. -1.
        -15    1    1    2    0    0  0.12889958311E+02  0.12863442938E+02  0.48691014989E+02  0.52015304086E+02  0.17770000000E+01 0.  1.
         15    1    1    2    0    0  0.11515940284E+01 -0.23479837782E+00  0.28105770341E+01  0.35268075293E+01  0.17770000000E+01 0.  1.
</event>
<event>
 6    1  0.1108180E-002  0.1878893E+03  0.7546771E-02  0.1064244E+00
        -11   -1    0    0    0    0  0.00000000000E+00  0.00000000000E+00  0.18250000000E+03  0.18250000000E+03  0.00000000000E+00 0.  1.
         11   -1    0    0    0    0 -0.00000000000E+00 -0.00000000000E+00 -0.18250000000E+03  0.18250000000E+03  0.00000000000E+00 0.  1.
        -11    1    1    2    0    0  0.76933289757E+00 -0.40716738240E+01  0.17706221921E+03  0.17711069948E+03  0.00000000000E+00 0.  1.
         11    1    1    2    0    0  0.20570677676E+00  0.30413907427E+01 -0.13146614848E+03  0.13150148505E+03  0.00000000000E+00 0.  1.
        -15    1    1    2    0    0 -0.40910058508E+01  0.50415126077E+01  0.30889912840E+01  0.74062658876E+01  0.17770000000E+01 0. -1.
         15    1    1    2    0    0  0.31159661765E+01 -0.40112295264E+01 -0.48685062010E+02  0.48981549582E+02  0.17770000000E+01 0.  1.
</event>
<event>
 6    1  0.1108180E-002  0.1853620E+03  0.7546771E-02  0.1066199E+00
        -11   -1    0    0    0    0  0.00000000000E+00  0.00000000000E+00  0.18250000000E+03  0.18250000000E+03  0.00000000000E+00 0. -1.
         11   -1    0    0    0    0 -0.00000000000E+00 -0.00000000000E+00 -0.18250000000E+03  0.18250000000E+03  0.00000000000E+00 0. -1.
        -11    1    1    2    0    0 -0.62776114290E+01  0.27327317834E+01  0.57913501048E+02  0.58316805742E+02  0.00000000000E+00 0. -1.
         11    1    1    2    0    0 -0.51011325203E+01 -0.34380059490E+01 -0.17953262001E+03  0.17963797785E+03  0.00000000000E+00 0. -1.
        -15    1    1    2    0    0  0.12841544009E+02 -0.15470742415E+02  0.60405889759E+02  0.63688918737E+02  0.17770000000E+01 0. -1.
         15    1    1    2    0    0 -0.14628000600E+01  0.16176016580E+02  0.61213229203E+02  0.63356297673E+02  0.17770000000E+01 0.  1.
</event>
<event>
 6    1  0.1108180E-002  0.1827089E+03  0.7546771E-02  0.1068289E+00
        -11   -1    0    0    0    0  0.00000000000E+00  0.00000000000E+00  0.18250000000E+03  0.18250000000E+03  0.00000000000E+00 0.  1.
         11   -1    0    0    0    0 -0.00000000000E+00 -0.00000000000E+00 -0.18250000000E+03  0.18250000000E+03  0.00000000000E+00 0. -1.
        -11    1    1    2    0    0 -0.20569228671E+01 -0.27403667413E+01  0.10352520173E+03  0.10358188999E+03  0.00000000000E+00 0.  1.
         11    1    1    2    0    0 -0.19341920752E+01  0.28242510941E+01 -0.18225892749E+03  0.18229106984E+03  0.00000000000E+00 0. -1.
        -15    1    1    2    0    0  0.11759057849E+01  0.21693646810E+00  0.63265939023E+02  0.63302184680E+02  0.17770000000E+01 0. -1.
         15    1    1    2    0    0  0.28152091574E+01 -0.30082082088E+00  0.15467786739E+02  0.15824855493E+02  0.17770000000E+01 0.  1.
</event>
<event>
 6    1  0.1108180E-002  0.1952849E+03  0.7546771E-02  0.1058710E+00
        -11   -1    0    0    0    0  0.00000000000E+00  0.00000000000E+00  0.18250000000E+03  0.18250000000E+03  0.00000000000E+00 0. -1.
         11   -1    0    0    0    0 -0.00000000000E+00 -0.00000000000E+00 -0.18250000000E+03  0.18250000000E+03  0.00000000000E+00 0. -1.
        -11    1    1    2    0    0 -0.31316492808E+01 -0.11640134039E+01  0.15094653496E+03  0.15098350430E+03  0.00000000000E+00 0. -1.
         11    1    1    2    0    0 -0.61984617245E+01 -0.49038548481E-02 -0.16960191294E+03  0.16971514318E+03  0.00000000000E+00 0. -1.
        -15    1    1    2    0    0  0.27663498116E+01  0.23246976963E+01  0.30408372715E+02  0.30673828760E+02  0.17770000000E+01 0.  1.
         15    1    1    2    0    0  0.65637611937E+01 -0.11557804376E+01 -0.11752994741E+02  0.13627523759E+02  0.17770000000E+01 0. -1.
</event>
<event>
 6    1  0.1108180E-002  0.1847311E+03  0.7546771E-02  0.1066693E+00
        -11   -1    0    0    0    0  0.00000000000E+00  0.00000000000E+00  0.18250000000E+03  0.18250000000E+03  0.00000000000E+00 0.  1.
         11   -1    0    0    0    0 -0.00000000000E+00 -0.00000000000E+00 -0.18250000000E+03  0.18250000000E+03  0.00000000000E+00 0.  1.
        -11    1    1    2    0    0  0.15196847507E+01 -0.15400236670E+01  0.50482820766E+02  0.50529162938E+02  0.00000000000E+00 0.  1.
         11    1    1    2    0    0  0.74564482319E+00 -0.69467188878E+01 -0.18013350615E+03  0.18026894610E+03  0.00000000000E+00 0.  1.
        -15    1    1    2    0    0 -0.53965770469E+00  0.19805897946E+01  0.12655294851E+03  0.12658207011E+03  0.17770000000E+01 0.  1.
         15    1    1    2    0    0 -0.17256718692E+01  0.65061527601E+01  0.30977368711E+01  0.76198208549E+01  0.17770000000E+01 0.  1.
</event>
<event>
 6    1  0.1108180E-002  0.1868491E+03  0.7546771E-02  0.1065045E+00
        -11   -1    0    0    0    0  0.00000000000E+00  0.00000000000E+00  0.18250000000E+03  0.18250000000E+03  0.00000000000E+00 0.  1.
         11   -1    0    0    0    0 -0.00000000000E+00 -0.00000000000E+00 -0.18250000000E+03  0.18250000000E+03  0.00000000000E+00 0.  1.
        -11    1    1    2    0    0  0.20986636249E+02  0.87442160561E+01  0.17669419684E+03  0.17815088945E+03  0.00000000000E+00 0.  1.
         11    1    1    2    0    0  0.49620491531E+00 -0.81377542110E+00 -0.66398579382E+02  0.66405419912E+02  0.00000000000E+00 0.  1.
        -15    1    1    2    0    0 -0.24118935817E+01 -0.45980372292E+01 -0.96378198013E+02  0.96534314926E+02  0.17770000000E+01 0. -1.
         15    1    1    2    0    0 -0.19070947582E+02 -0.33324034058E+01 -0.13917419441E+02  0.23909375714E+02  0.17770000000E+01 0.  1.
</event>
<event>
 6    1  0.1108180E-002  0.1899732E+03  0.7546771E-02  0.1062657E+00
        -11   -1    0    0    0    0  0.00000000000E+00  0.00000000000E+00  0.18250000000E+03  0.18250000000E+03  0.00000000000E+00 0.  1.
         11   -1    0    0    0    0 -0.00000000000E+00 -0.00000000000E+00 -0.18250000000E+03  0.18250000000E+03  0.00000000000E+00 0.  1.
        -11    1    1    2    0    0 -0.25889628813E+01  0.15264772517E-01  0.17500762831E+03  0.17502677775E+03  0.00000000000E+00 0.  1.
         11    1    1    2    0    0  0.12918393911E+02 -0.26258909948E+01 -0.16415016546E+03  0.16467864775E+03  0.00000000000E+00 0.  1.
        -15    1    1    2    0    0 -0.15868207102E+02 -0.90953486006E+00 -0.84000102156E+01  0.18065025627E+02  0.17770000000E+01 0.  1.
         15    1    1    2    0    0  0.55387760721E+01  0.35201610824E+01 -0.24574526332E+01  0.72295488702E+01  0.17770000000E+01 0. -1.
</event>
<event>
 6    1  0.1108180E-002  0.1793044E+03  0.7546771E-02  0.1071027E+00
        -11   -1    0    0    0    0  0.00000000000E+00  0.00000000000E+00  0.18250000000E+03  0.18250000000E+03  0.00000000000E+00 0. -1.
         11   -1    0    0    0    0 -0.00000000000E+00 -0.00000000000E+00 -0.18250000000E+03  0.18250000000E+03  0.00000000000E+00 0. -1.
        -11    1    1    2    0    0 -0.20283368133E+01  0.16587512872E+01  0.17821114614E+03  0.17823040766E+03  0.00000000000E+00 0. -1.
         11    1    1    2    0    0 -0.17966617240E+01 -0.23521192751E+01 -0.18038174165E+03  0.18040602313E+03  0.00000000000E+00 0. -1.
        -15    1    1    2    0    0  0.12049667769E+01 -0.83530536401E+00  0.14990086666E+00  0.23086531256E+01  0.17770000000E+01 0. -1.
         15    1    1    2    0    0  0.26200317605E+01  0.15286733519E+01  0.20206946454E+01  0.40549160895E+01  0.17770000000E+01 0.  1.
</event>
<event>
 6    1  0.1108180E-002  0.1840537E+03  0.7546771E-02  0.1067225E+00
        -11   -1    0    0    0    0  0.00000000000E+00  0.00000000000E+00  0.18250000000E+03  0.18250000000E+03  0.00000000000E+00 0. -1.
         11   -1    0    0    0    0 -0.00000000000E+00 -0.00000000000E+00 -0.18250000000E+03  0.18250000000E+03  0.00000000000E+00 0.  1.
        -11    1    1    2    0    0 -0.26554561681E+01 -0.31670635505E+00  0.18092651198E+03  0.18094627514E+03  0.00000000000E+00 0. -1.
         11    1    1    2    0    0 -0.22606339965E+01 -0.40393329629E+01 -0.16429990559E+03  0.16436509864E+03  0.00000000000E+00 0.  1.
        -15    1    1    2    0    0  0.31010139527E+01 -0.16962066969E+01 -0.69217425610E+01  0.79725562885E+01  0.17770000000E+01 0.  1.
         15    1    1    2    0    0  0.18150762120E+01  0.60522460148E+01 -0.97048638336E+01  0.11716069926E+02  0.17770000000E+01 0. -1.
</event>
<event>
 6    1  0.1108180E-002  0.1986910E+03  0.7546771E-02  0.1056251E+00
        -11   -1    0    0    0    0  0.00000000000E+00  0.00000000000E+00  0.18250000000E+03  0.18250000000E+03  0.00000000000E+00 0.  1.
         11   -1    0    0    0    0 -0.00000000000E+00 -0.00000000000E+00 -0.18250000000E+03  0.18250000000E+03  0.00000000000E+00 0.  1.
        -11    1    1    2    0    0  0.10660737154E+02  0.92755851605E+01  0.16570752352E+03  0.16630896292E+03  0.00000000000E+00 0.  1.
         11    1    1    2    0    0 -0.67252106648E+01 -0.11298800433E+02 -0.14519843776E+03  0.14579258444E+03  0.00000000000E+00 0.  1.
        -15    1    1    2    0    0  0.11240947797E+01  0.25029374912E+02 -0.11334350976E+02  0.27556459108E+02  0.17770000000E+01 0. -1.
         15    1    1    2    0    0 -0.50596212687E+01 -0.23006159639E+02 -0.91747347798E+01  0.25341993528E+02  0.17770000000E+01 0.  1.
</event>
<event>
 6    1  0.1108180E-002  0.1847275E+03  0.7546771E-02  0.1066695E+00
        -11   -1    0    0    0    0  0.00000000000E+00  0.00000000000E+00  0.18250000000E+03  0.18250000000E+03  0.00000000000E+00 0. -1.
         11   -1    0    0    0    0 -0.00000000000E+00 -0.00000000000E+00 -0.18250000000E+03  0.18250000000E+03  0.00000000000E+00 0. -1.
        -11    1    1    2    0    0  0.45407796838E+01 -0.47359417749E+00  0.17203442603E+03  0.17209499328E+03  0.00000000000E+00 0. -1.
         11    1    1    2    0    0  0.16388818058E+01  0.24525722102E+01 -0.18024836098E+03  0.18027249563E+03  0.00000000000E+00 0. -1.
        -15    1    1    2    0    0 -0.35795656957E+01 -0.11461149625E+01  0.41204346155E+00  0.41778438089E+01  0.17770000000E+01 0.  1.
         15    1    1    2    0    0 -0.26000957939E+01 -0.83286307021E+00  0.78018914879E+01  0.84546672802E+01  0.17770000000E+01 0. -1.
</event>
<event>
 6    1  0.1108180E-002  0.1829564E+03  0.7546771E-02  0.1068092E+00
        -11   -1    0    0    0    0  0.00000000000E+00  0.00000000000E+00  0.18250000000E+03  0.18250000000E+03  0.00000000000E+00 0. -1.
         11   -1    0    0    0    0 -0.00000000000E+00 -0.00000000000E+00 -0.18250000000E+03  0.18250000000E+03  0.00000000000E+00 0.  1.
        -11    1    1    2    0    0 -0.15114871674E+01  0.14121797946E+01  0.10221068326E+03  0.10223161262E+03  0.00000000000E+00 0. -1.
         11    1    1    2    0    0  0.46336812811E+00  0.34083655665E+01 -0.18201112677E+03  0.18204362646E+03  0.00000000000E+00 0.  1.
        -15    1    1    2    0    0  0.36486630734E+01 -0.26476135483E+01  0.70521496945E+02  0.70687777303E+02  0.17770000000E+01 0. -1.
         15    1    1    2    0    0 -0.26005440341E+01 -0.21729318128E+01  0.92789465637E+01  0.10036983624E+02  0.17770000000E+01 0.  1.
</event>
<event>
 6    1  0.1108180E-002  0.1826220E+03  0.7546771E-02  0.1068358E+00
        -11   -1    0    0    0    0  0.00000000000E+00  0.00000000000E+00  0.18250000000E+03  0.18250000000E+03  0.00000000000E+00 0.  1.
         11   -1    0    0    0    0 -0.00000000000E+00 -0.00000000000E+00 -0.18250000000E+03  0.18250000000E+03  0.00000000000E+00 0.  1.
        -11    1    1    2    0    0 -0.30135474937E+01 -0.86420033184E+00  0.18235108954E+03  0.18237803642E+03  0.00000000000E+00 0.  1.
         11    1    1    2    0    0  0.82155297050E+00 -0.42324591268E+00 -0.22448608237E+02  0.22467623331E+02  0.00000000000E+00 0.  1.
        -15    1    1    2    0    0  0.37842975061E+01  0.22863757196E+01 -0.14042771561E+03  0.14050853875E+03  0.17770000000E+01 0.  1.
         15    1    1    2    0    0 -0.15923029829E+01 -0.99892947504E+00 -0.19474765692E+02  0.19645801502E+02  0.17770000000E+01 0. -1.
</event>
<event>
 6    1  0.1108180E-002  0.1831741E+03  0.7546771E-02  0.1067919E+00
        -11   -1    0    0    0    0  0.00000000000E+00  0.00000000000E+00  0.18250000000E+03  0.18250000000E+03  0.00000000000E+00 0.  1.
         11   -1    0    0    0    0 -0.00000000000E+00 -0.00000000000E+00 -0.18250000000E+03  0.18250000000E+03  0.00000000000E+00 0. -1.
        -11    1    1    2    0    0 -0.48188872786E+00 -0.34618530446E+01  0.11601789103E+03  0.11607052892E+03  0.00000000000E+00 0.  1.
         11    1    1    2    0    0 -0.35007145764E+01  0.72635422989E+00 -0.18179074915E+03  0.18182590318E+03  0.00000000000E+00 0. -1.
        -15    1    1    2    0    0  0.48059014069E+01  0.47724132254E+01  0.61977698261E+02  0.62371992329E+02  0.17770000000E+01 0.  1.
         15    1    1    2    0    0 -0.82329810269E+00 -0.20369144106E+01  0.37951598532E+01  0.47315755720E+01  0.17770000000E+01 0. -1.
</event>
<event>
 6    1  0.1108180E-002  0.1840255E+03  0.7546771E-02  0.1067247E+00
        -11   -1    0    0    0    0  0.00000000000E+00  0.00000000000E+00  0.18250000000E+03  0.18250000000E+03  0.00000000000E+00 0.  1.
         11   -1    0    0    0    0 -0.00000000000E+00 -0.00000000000E+00 -0.18250000000E+03  0.18250000000E+03  0.00000000000E+00 0. -1.
        -11    1    1    2    0    0  0.10708559304E+02  0.73608388682E+01  0.18050734179E+03  0.18097446127E+03  0.00000000000E+00 0.  1.
         11    1    1    2    0    0 -0.16865131327E+01  0.30694001478E+00 -0.11390678408E+03  0.11391968222E+03  0.00000000000E+00 0. -1.
        -15    1    1    2    0    0 -0.12141720888E+02 -0.11294571576E+02 -0.47846726092E+02  0.50670066705E+02  0.17770000000E+01 0. -1.
         15    1    1    2    0    0  0.31196747169E+01  0.36267926932E+01 -0.18753831626E+02  0.19435789803E+02  0.17770000000E+01 0.  1.
</event>
<event>
 6    1  0.1108180E-002  0.1839486E+03  0.7546771E-02  0.1067308E+00
        -11   -1    0    0    0    0  0.00000000000E+00  0.00000000000E+00  0.18250000000E+03  0.18250000000E+03  0.00000000000E+00 0. -1.
         11   -1    0    0    0    0 -0.00000000000E+00 -0.00000000000E+00 -0.18250000000E+03  0.18250000000E+03  0.00000000000E+00 0.  1.
        -11    1    1    2    0    0 -0.14039108202E+01 -0.40331985886E+01  0.89276238583E+02  0.89378321935E+02  0.00000000000E+00 0. -1.
         11    1    1    2    0    0 -0.28574140187E+01 -0.51185087987E+01 -0.18095644168E+03  0.18105136766E+03  0.00000000000E+00 0.  1.
        -15    1    1    2    0    0  0.20587802232E+01  0.11518353918E+02  0.23706273262E+02  0.26496342652E+02  0.17770000000E+01 0.  1.
         15    1    1    2    0    0  0.22025446157E+01 -0.23666465308E+01  0.67973929836E+02  0.68073967748E+02  0.17770000000E+01 0. -1.
</event>
<event>
 6    1  0.1108180E-002  0.1829774E+03  0.7546771E-02  0.1068075E+00
        -11   -1    0    0    0    0  0.00000000000E+00  0.00000000000E+00  0.18250000000E+03  0.18250000000E+03  0.00000000000E+00 0. -1.
         11   -1    0    0    0    0 -0.00000000000E+00 -0.00000000000E+00 -0.18250000000E+03  0.18250000000E+03  0.00000000000E+00 0.  1.
        -11    1    1    2    0    0 -0.10560916123E+01 -0.10551530407E+01  0.10812907861E+03  0.10813938376E+03  0.00000000000E+00 0. -1.
         11    1    1    2    0    0  0.26292738455E+01  0.13265824273E+01 -0.18199881882E+03  0.18202264407E+03  0.00000000000E+00 0.  1.
        -15    1    1    2    0    0 -0.27431618311E+01 -0.10635903644E+01  0.58840866077E+01  0.68144233433E+01  0.17770000000E+01 0. -1.
         15    1    1    2    0    0  0.11699795980E+01  0.79216097778E+00  0.67985653598E+02  0.68023548830E+02  0.17770000000E+01 0.  1.
</event>
<event>
 6    1  0.1108180E-002  0.1860935E+03  0.7546771E-02  0.1065630E+00
        -11   -1    0    0    0    0  0.00000000000E+00  0.00000000000E+00  0.18250000000E+03  0.18250000000E+03  0.00000000000E+00 0.  1.
         11   -1    0    0    0    0 -0.00000000000E+00 -0.00000000000E+00 -0.18250000000E+03  0.18250000000E+03  0.00000000000E+00 0.  1.
        -11    1    1    2    0    0 -0.13703238357E+01  0.27939881156E+01  0.17887938937E+03  0.17890645628E+03  0.00000000000E+00 0.  1.
         11    1    1    2    0    0  0.22700338060E+01 -0.38380354389E+01 -0.17590668616E+03  0.17596319446E+03  0.00000000000E+00 0.  1.
        -15    1    1    2    0    0 -0.18582351336E+01 -0.34826911884E+01  0.41583693741E-01  0.43291608805E+01  0.17770000000E+01 0. -1.
         15    1    1    2    0    0  0.95852516331E+00  0.45267385117E+01 -0.30142869089E+01  0.58011883792E+01  0.17770000000E+01 0.  1.
</event>
<event>
 6    1  0.1108180E-002  0.1846633E+03  0.7546771E-02  0.1066746E+00
        -11   -1    0    0    0    0  0.00000000000E+00  0.00000000000E+00  0.18250000000E+03  0.18250000000E+03  0.00000000000E+00 0. -1.
         11   -1    0    0    0    0 -0.00000000000E+00 -0.00000000000E+00 -0.18250000000E+03  0.18250000000E+03  0.00000000000E+00 0. -1.
        -11    1    1    2    0    0  0.23739477287E+01 -0.12300992150E+01  0.18031686381E+03  0.18033668552E+03  0.00000000000E+00 0. -1.
         11    1    1    2    0    0 -0.30982786845E+01 -0.21688454243E+01 -0.14784831869E+03  0.14789668204E+03  0.00000000000E+00 0. -1.
        -15    1    1    2    0    0  0.38153918143E+01  0.53381519775E+01 -0.31961478266E+02  0.32676396729E+02  0.17770000000E+01 0.  1.
         15    1    1    2    0    0 -0.30910608585E+01 -0.19392073382E+01 -0.50706685380E+00  0.40902357054E+01  0.17770000000E+01 0. -1.
</event>
<event>
 6    1  0.1108180E-002  0.1831449E+03  0.7546771E-02  0.1067943E+00
        -11   -1    0    0    0    0  0.00000000000E+00  0.00000000000E+00  0.18250000000E+03  0.18250000000E+03  0.00000000000E+00 0. -1.
         11   -1    0    0    0    0 -0.00000000000E+00 -0.00000000000E+00 -0.18250000000E+03  0.18250000000E+03  0.00000000000E+00 0.  1.
        -11    1    1    2    0    0 -0.44012383893E+01  0.46556080335E+01  0.18174217798E+03  0.18185506548E+03  0.00000000000E+00 0. -1.
         11    1    1    2    0    0 -0.14692353463E+01 -0.59049333431E+01 -0.78862857299E+02  0.79097263869E+02  0.00000000000E+00 0.  1.
        -15    1    1    2    0    0  0.21416006449E+01  0.53745478199E+01 -0.85502814412E+02  0.85716749932E+02  0.17770000000E+01 0.  1.
         15    1    1    2    0    0  0.37288730907E+01 -0.41252225103E+01 -0.17376506266E+02  0.18330920716E+02  0.17770000000E+01 0. -1.
</event>
<event>
 6    1  0.1108180E-002  0.1857075E+03  0.7546771E-02  0.1065930E+00
        -11   -1    0    0    0    0  0.00000000000E+00  0.00000000000E+00  0.18250000000E+03  0.18250000000E+03  0.00000000000E+00 0. -1.
         11   -1    0    0    0    0 -0.00000000000E+00 -0.00000000000E+00 -0.18250000000E+03  0.18250000000E+03  0.00000000000E+00 0.  1.
        -11    1    1    2    0    0 -0.12880335801E+01  0.60972342163E+01  0.17918415932E+03  0.17929249356E+03  0.00000000000E+00 0. -1.
         11    1    1    2    0    0  0.22755353238E+01 -0.12112162696E+01 -0.15766916472E+03  0.15769023625E+03  0.00000000000E+00 0.  1.
        -15    1    1    2    0    0  0.37445993087E+01 -0.62377668490E+01 -0.21518874374E+02  0.22784895053E+02  0.17770000000E+01 0. -1.
         15    1    1    2    0    0 -0.47321010525E+01  0.13517489023E+01  0.38797745547E-02  0.52323751316E+01  0.17770000000E+01 0. -1.
</event>
<event>
 6    1  0.1108180E-002  0.1647913E+03  0.7546771E-02  0.1083496E+00
        -11   -1    0    0    0    0  0.00000000000E+00  0.00000000000E+00  0.18250000000E+03  0.18250000000E+03  0.00000000000E+00 0.  1.
         11   -1    0    0    0    0 -0.00000000000E+00 -0.00000000000E+00 -0.18250000000E+03  0.18250000000E+03  0.00000000000E+00 0. -1.
        -11    1    1    2    0    0 -0.87626984120E+00  0.44245323984E+01  0.16204066228E+03  0.16210342553E+03  0.00000000000E+00 0.  1.
         11    1    1    2    0    0  0.59762009956E+01  0.34304716366E+01 -0.16751601854E+03  0.16765768572E+03  0.00000000000E+00 0. -1.
        -15    1    1    2    0    0 -0.80440171526E+01 -0.54397385154E+01 -0.12982055204E+02  0.16309152442E+02  0.17770000000E+01 0. -1.
         15    1    1    2    0    0  0.29440859982E+01 -0.24152655196E+01  0.18457411458E+02  0.18929736306E+02  0.17770000000E+01 0.  1.
</event>
<event>
 6    1  0.1108180E-002  0.1827120E+03  0.7546771E-02  0.1068286E+00
        -11   -1    0    0    0    0  0.00000000000E+00  0.00000000000E+00  0.18250000000E+03  0.18250000000E+03  0.00000000000E+00 0.  1.
         11   -1    0    0    0    0 -0.00000000000E+00 -0.00000000000E+00 -0.18250000000E+03  0.18250000000E+03  0.00000000000E+00 0. -1.
        -11    1    1    2    0    0  0.66514324826E-01  0.99550718581E+00  0.10348560446E+02  0.10396545677E+02  0.00000000000E+00 0.  1.
         11    1    1    2    0    0 -0.49168286334E+00  0.29234563630E+01 -0.18226387119E+03  0.18228797846E+03  0.00000000000E+00 0. -1.
        -15    1    1    2    0    0 -0.22612769236E+01 -0.19194992879E+00  0.12658903967E+02  0.12982904018E+02  0.17770000000E+01 0. -1.
         15    1    1    2    0    0  0.26864454622E+01 -0.37270136200E+01  0.15925640678E+03  0.15933257184E+03  0.17770000000E+01 0.  1.
</event>
<event>
 6    1  0.1108180E-002  0.1904166E+03  0.7546771E-02  0.1062322E+00
        -11   -1    0    0    0    0  0.00000000000E+00  0.00000000000E+00  0.18250000000E+03  0.18250000000E+03  0.00000000000E+00 0. -1.
         11   -1    0    0    0    0 -0.00000000000E+00 -0.00000000000E+00 -0.18250000000E+03  0.18250000000E+03  0.00000000000E+00 0.  1.
        -11    1    1    2    0    0  0.40482883324E+00  0.65206262262E+01  0.15809117445E+03  0.15822611002E+03  0.00000000000E+00 0. -1.
         11    1    1    2    0    0 -0.34434008274E+01 -0.91469907700E+00 -0.17454707160E+03  0.17458342959E+03  0.00000000000E+00 0.  1.
        -15    1    1    2    0    0  0.22059865900E+00  0.30373110445E+01 -0.65229212166E+01  0.74148602378E+01  0.17770000000E+01 0.  1.
         15    1    1    2    0    0  0.28179733351E+01 -0.86432381937E+01  0.22978818368E+02  0.24775600150E+02  0.17770000000E+01 0. -1.
</event>
<event>
 6    1  0.1108180E-002  0.1862660E+03  0.7546771E-02  0.1065496E+00
        -11   -1    0    0    0    0  0.00000000000E+00  0.00000000000E+00  0.18250000000E+03  0.18250000000E+03  0.00000000000E+00 0.  1.
         11   -1    0    0    0    0 -0.00000000000E+00 -0.00000000000E+00 -0.18250000000E+03  0.18250000000E+03  0.00000000000E+00 0. -1.
        -11    1    1    2    0    0  0.28798735738E+01  0.57610797720E+01  0.17861795425E+03  0.17873404066E+03  0.00000000000E+00 0.  1.
         11    1    1    2    0    0 -0.59605775832E+01  0.70502867674E+01 -0.16328040560E+03  0.16354120546E+03  0.00000000000E+00 0. -1.
        -15    1    1    2    0    0  0.50049085570E+01 -0.56921751385E+01 -0.12293155305E+02  0.14550923126E+02  0.17770000000E+01 0. -1.
         15    1    1    2    0    0 -0.19242045476E+01 -0.71191914010E+01 -0.30443933413E+01  0.81738307520E+01  0.17770000000E+01 0.  1.
</event>
<event>
 6    1  0.1108180E-002  0.1828137E+03  0.7546771E-02  0.1068205E+00
        -11   -1    0    0    0    0  0.00000000000E+00  0.00000000000E+00  0.18250000000E+03  0.18250000000E+03  0.00000000000E+00 0.  1.
         11   -1    0    0    0    0 -0.00000000000E+00 -0.00000000000E+00 -0.18250000000E+03  0.18250000000E+03  0.00000000000E+00 0.  1.
        -11    1    1    2    0    0 -0.28715912587E+01 -0.11747046691E+01  0.18215990190E+03  0.18218632173E+03  0.00000000000E+00 0.  1.
         11    1    1    2    0    0 -0.46756578194E+00  0.11363222037E+01 -0.67922611139E+02  0.67933724687E+02  0.00000000000E+00 0.  1.
        -15    1    1    2    0    0 -0.10839466525E+00  0.21658962129E+01 -0.68496656855E+01  0.74012502195E+01  0.17770000000E+01 0.  1.
         15    1    1    2    0    0  0.34475517059E+01 -0.21275137475E+01 -0.10738762507E+03  0.10747870336E+03  0.17770000000E+01 0. -1.
</event>
<event>
 6    1  0.1108180E-002  0.1873192E+03  0.7546771E-02  0.1064682E+00
        -11   -1    0    0    0    0  0.00000000000E+00  0.00000000000E+00  0.18250000000E+03  0.18250000000E+03  0.00000000000E+00 0.  1.
         11   -1    0    0    0    0 -0.00000000000E+00 -0.00000000000E+00 -0.18250000000E+03  0.18250000000E+03  0.00000000000E+00 0. -1.
        -11    1    1    2    0    0 -0.15230321528E+01 -0.48080493619E+01  0.17760924702E+03  0.17768084194E+03  0.00000000000E+00 0.  1.
         11    1    1    2    0    0 -0.67796546466E+01 -0.22331515967E+01 -0.17060214284E+03  0.17075140358E+03  0.00000000000E+00 0. -1.
        -15    1    1    2    0    0  0.53753954152E+01  0.46873738821E+01  0.11247871329E+01  0.74356724561E+01  0.17770000000E+01 0.  1.
         15    1    1    2    0    0  0.29272913842E+01  0.23538270765E+01 -0.81318913169E+01  0.91320820268E+01  0.17770000000E+01 0. -1.
</event>
<event>
 6    1  0.1108180E-002  0.1828104E+03  0.7546771E-02  0.1068208E+00
        -11   -1    0    0    0    0  0.00000000000E+00  0.00000000000E+00  0.18250000000E+03  0.18250000000E+03  0.00000000000E+00 0. -1.
         11   -1    0    0    0    0 -0.00000000000E+00 -0.00000000000E+00 -0.18250000000E+03  0.18250000000E+03  0.00000000000E+00 0. -1.
        -11    1    1    2    0    0 -0.81836301093E+01 -0.19441549124E+01  0.18199531575E+03  0.18218958942E+03  0.00000000000E+00 0. -1.
         11    1    1    2    0    0  0.25272935628E+00 -0.89796796087E+00 -0.15635133020E+02  0.15662937245E+02  0.00000000000E+00 0. -1.
        -15    1    1    2    0    0 -0.28245767611E+01 -0.23577821468E+01 -0.37149909713E+02  0.37373933312E+02  0.17770000000E+01 0.  1.
         15    1    1    2    0    0  0.10755477514E+02  0.51999050200E+01 -0.12921027301E+03  0.12977354002E+03  0.17770000000E+01 0. -1.
</event>
<event>
 6    1  0.1108180E-002  0.1839444E+03  0.7546771E-02  0.1067311E+00
        -11   -1    0    0    0    0  0.00000000000E+00  0.00000000000E+00  0.18250000000E+03  0.18250000000E+03  0.00000000000E+00 0. -1.
         11   -1    0    0    0    0 -0.00000000000E+00 -0.00000000000E+00 -0.18250000000E+03  0.18250000000E+03  0.00000000000E+00 0. -1.
        -11    1    1    2    0    0  0.81002318356E+01 -0.45673931252E+01  0.13106110583E+03  0.13139059440E+03  0.00000000000E+00 0. -1.
         11    1    1    2    0    0 -0.40501825873E+01  0.41214340015E+01 -0.18096338174E+03  0.18105561501E+03  0.00000000000E+00 0. -1.
        -15    1    1    2    0    0 -0.57667044443E+01  0.20028881450E+01  0.49120914676E+02  0.49530681690E+02  0.17770000000E+01 0. -1.
         15    1    1    2    0    0  0.17166551961E+01 -0.15569290212E+01  0.78136123540E+00  0.30231088997E+01  0.17770000000E+01 0.  1.
</event>
<event>
 6    1  0.1108180E-002  0.1836679E+03  0.7546771E-02  0.1067529E+00
        -11   -1    0    0    0    0  0.00000000000E+00  0.00000000000E+00  0.18250000000E+03  0.18250000000E+03  0.00000000000E+00 0.  1.
         11   -1    0    0    0    0 -0.00000000000E+00 -0.00000000000E+00 -0.18250000000E+03  0.18250000000E+03  0.00000000000E+00 0.  1.
        -11    1    1    2    0    0  0.79988595896E+00 -0.34221284826E+01  0.18129803296E+03  0.18133209186E+03  0.00000000000E+00 0.  1.
         11    1    1    2    0    0 -0.22958805284E+01 -0.23396496759E+00 -0.34108664990E+02  0.34186647019E+02  0.00000000000E+00 0.  1.
        -15    1    1    2    0    0  0.82059999222E+01  0.70629604803E+01 -0.13182588252E+03  0.13228168761E+03  0.17770000000E+01 0.  1.
         15    1    1    2    0    0 -0.67100053528E+01 -0.34068670301E+01 -0.15363485457E+02  0.17199573518E+02  0.17770000000E+01 0. -1.
</event>
<event>
 6    1  0.1108180E-002  0.1831853E+03  0.7546771E-02  0.1067911E+00
        -11   -1    0    0    0    0  0.00000000000E+00  0.00000000000E+00  0.18250000000E+03  0.18250000000E+03  0.00000000000E+00 0. -1.
         11   -1    0    0    0    0 -0.00000000000E+00 -0.00000000000E+00 -0.18250000000E+03  0.18250000000E+03  0.00000000000E+00 0.  1.
        -11    1    1    2    0    0 -0.14377432054E+01  0.72151906417E+00  0.11750238019E+03  0.11751339092E+03  0.00000000000E+00 0. -1.
         11    1    1    2    0    0  0.18064038948E+00 -0.39312007401E+01 -0.18177211270E+03  0.18181470768E+03  0.00000000000E+00 0.  1.
        -15    1    1    2    0    0  0.15738367361E+01  0.53545000918E+01  0.61332937466E+02  0.61611967835E+02  0.17770000000E+01 0. -1.
         15    1    1    2    0    0 -0.31673392017E+00 -0.21448184158E+01  0.29367950462E+01  0.40599335655E+01  0.17770000000E+01 0.  1.
</event>
<event>
 6    1  0.1108180E-002  0.1793042E+03  0.7546771E-02  0.1071028E+00
        -11   -1    0    0    0    0  0.00000000000E+00  0.00000000000E+00  0.18250000000E+03  0.18250000000E+03  0.00000000000E+00 0.  1.
         11   -1    0    0    0    0 -0.00000000000E+00 -0.00000000000E+00 -0.18250000000E+03  0.18250000000E+03  0.00000000000E+00 0.  1.
        -11    1    1    2    0    0  0.15164564439E+00 -0.33614934709E+01  0.17878455054E+03  0.17881621332E+03  0.00000000000E+00 0.  1.
         11    1    1    2    0    0  0.30334118826E+01  0.23630012636E+01 -0.17976785659E+03  0.17980897537E+03  0.00000000000E+00 0.  1.
        -15    1    1    2    0    0 -0.64230349144E-01  0.17530278944E+01 -0.23536558980E+00  0.25080586710E+01  0.17770000000E+01 0.  1.
         15    1    1    2    0    0 -0.31208271778E+01 -0.75453568703E+00  0.12186716339E+01  0.38667526334E+01  0.17770000000E+01 0. -1.
</event>
<event>
 6    1  0.1108180E-002  0.1768368E+03  0.7546771E-02  0.1073054E+00
        -11   -1    0    0    0    0  0.00000000000E+00  0.00000000000E+00  0.18250000000E+03  0.18250000000E+03  0.00000000000E+00 0.  1.
         11   -1    0    0    0    0 -0.00000000000E+00 -0.00000000000E+00 -0.18250000000E+03  0.18250000000E+03  0.00000000000E+00 0. -1.
        -11    1    1    2    0    0 -0.24714929191E+01  0.22368135783E+01  0.18048997567E+03  0.18052075484E+03  0.00000000000E+00 0.  1.
         11    1    1    2    0    0 -0.22574882520E+01 -0.12328960177E+01 -0.14337177187E+02  0.14566088544E+02  0.00000000000E+00 0. -1.
        -15    1    1    2    0    0  0.14277232095E+02 -0.76879926589E+01 -0.39825480557E+02  0.43036858830E+02  0.17770000000E+01 0.  1.
         15    1    1    2    0    0 -0.95482509235E+01  0.66840750984E+01 -0.12632731793E+03  0.12687629778E+03  0.17770000000E+01 0. -1.
</event>
<event>
 6    1  0.1108180E-002  0.1924287E+03  0.7546771E-02  0.1060815E+00
        -11   -1    0    0    0    0  0.00000000000E+00  0.00000000000E+00  0.18250000000E+03  0.18250000000E+03  0.00000000000E+00 0. -1.
         11   -1    0    0    0    0 -0.00000000000E+00 -0.00000000000E+00 -0.18250000000E+03  0.18250000000E+03  0.00000000000E+00 0. -1.
        -11    1    1    2    0    0  0.44782103441E+00 -0.20191641165E+02  0.13790811257E+03  0.13937916067E+03  0.00000000000E+00 0. -1.
         11    1    1    2    0    0  0.17554408634E+01  0.18400345894E+02 -0.17157854214E+03  0.17257129085E+03  0.00000000000E+00 0. -1.
        -15    1    1    2    0    0 -0.18125910425E+01 -0.11472779718E+02 -0.45129003098E+01  0.12587063159E+02  0.17770000000E+01 0.  1.
         15    1    1    2    0    0 -0.39067085532E+00  0.13264074990E+02  0.38183329879E+02  0.40462485326E+02  0.17770000000E+01 0. -1.
</event>
<event>
 6    1  0.1108180E-002  0.1842939E+03  0.7546771E-02  0.1067036E+00
        -11   -1    0    0    0    0  0.00000000000E+00  0.00000000000E+00  0.18250000000E+03  0.18250000000E+03  0.00000000000E+00 0. -1.
         11   -1    0    0    0    0 -0.00000000000E+00 -0.00000000000E+00 -0.18250000000E+03  0.18250000000E+03  0.00000000000E+00 0. -1.
        -11    1    1    2    0    0  0.31368054450E+01  0.12963898508E+01  0.18067423454E+03  0.18070611279E+03  0.00000000000E+00 0. -1.
         11    1    1    2    0    0  0.65505777746E+01  0.32081559694E+01 -0.90012346736E+02  0.90307391164E+02  0.00000000000E+00 0. -1.
        -15    1    1    2    0    0  0.33977846384E+00 -0.10927780085E+01  0.51810733569E+00  0.21761841355E+01  0.17770000000E+01 0.  1.
         15    1    1    2    0    0 -0.10027161683E+02 -0.34117678117E+01 -0.91179995135E+02  0.91810311909E+02  0.17770000000E+01 0. -1.
</event>
<event>
 6    1  0.1108180E-002  0.1833032E+03  0.7546771E-02  0.1067817E+00
        -11   -1    0    0    0    0  0.00000000000E+00  0.00000000000E+00  0.18250000000E+03  0.18250000000E+03  0.00000000000E+00 0.  1.
         11   -1    0    0    0    0 -0.00000000000E+00 -0.00000000000E+00 -0.18250000000E+03  0.18250000000E+03  0.00000000000E+00 0.  1.
        -11    1    1    2    0    0  0.31396555597E+01  0.14051316971E-01  0.18166962500E+03  0.18169675363E+03  0.00000000000E+00 0.  1.
         11    1    1    2    0    0  0.41512062877E+01  0.21964629862E+00 -0.13934061184E+03  0.13940260710E+03  0.00000000000E+00 0.  1.
        -15    1    1    2    0    0 -0.28129379996E+01 -0.12346122312E+00 -0.37213512564E+01  0.49934003481E+01  0.17770000000E+01 0. -1.
         15    1    1    2    0    0 -0.44779238478E+01 -0.11023639248E+00 -0.38607661897E+02  0.38907238918E+02  0.17770000000E+01 0.  1.
</event>
<event>
 6    1  0.1108180E-002  0.1666590E+03  0.7546771E-02  0.1081814E+00
        -11   -1    0    0    0    0  0.00000000000E+00  0.00000000000E+00  0.18250000000E+03  0.18250000000E+03  0.00000000000E+00 0. -1.
         11   -1    0    0    0    0 -0.00000000000E+00 -0.00000000000E+00 -0.18250000000E+03  0.18250000000E+03  0.00000000000E+00 0. -1.
        -11    1    1    2    0    0 -0.12242503952E+02  0.66812056707E+01  0.17118188219E+03  0.17174910248E+03  0.00000000000E+00 0. -1.
         11    1    1    2    0    0 -0.32172450337E+01  0.10012535600E+00 -0.16208810863E+03  0.16212006554E+03  0.00000000000E+00 0. -1.
        -15    1    1    2    0    0  0.31146977888E+01 -0.17237203358E+01 -0.15658740398E+02  0.16156312511E+02  0.17770000000E+01 0.  1.
         15    1    1    2    0    0  0.12345051197E+02 -0.50576106910E+01  0.65649668368E+01  0.14974519475E+02  0.17770000000E+01 0. -1.
</event>
<event>
 6    1  0.1108180E-002  0.1828574E+03  0.7546771E-02  0.1068171E+00
        -11   -1    0    0    0    0  0.00000000000E+00  0.00000000000E+00  0.18250000000E+03  0.18250000000E+03  0.00000000000E+00 0.  1.
         11   -1    0    0    0    0 -0.00000000000E+00 -0.00000000000E+00 -0.18250000000E+03  0.18250000000E+03  0.00000000000E+00 0. -1.
        -11    1    1    2    0    0  0.12822870226E+01 -0.26279353910E+01  0.11510515028E+03  0.11514228557E+03  0.00000000000E+00 0.  1.
         11    1    1    2    0    0  0.29152747689E+01  0.29424230279E+01 -0.18209552317E+03  0.18214262609E+03  0.00000000000E+00 0. -1.
        -15    1    1    2    0    0 -0.14460582665E+01 -0.41967827416E+01  0.34617390969E+02  0.34946037778E+02  0.17770000000E+01 0.  1.
         15    1    1    2    0    0 -0.27515035249E+01  0.38822951048E+01  0.32372981921E+02  0.32769050557E+02  0.17770000000E+01 0. -1.
</event>
<event>
 6    1  0.1108180E-002  0.1825411E+03  0.7546771E-02  0.1068422E+00
        -11   -1    0    0    0    0  0.00000000000E+00  0.00000000000E+00  0.18250000000E+03  0.18250000000E+03  0.00000000000E+00 0.  1.
         11   -1    0    0    0    0 -0.00000000000E+00 -0.00000000000E+00 -0.18250000000E+03  0.18250000000E+03  0.00000000000E+00 0. -1.
        -11    1    1    2    0    0  0.35651621238E+01 -0.32424913588E+01  0.18239523543E+03  0.18245888862E+03  0.00000000000E+00 0.  1.
         11    1    1    2    0    0  0.19837613085E+00  0.57543387742E+00 -0.34295236269E+02  0.34300637136E+02  0.00000000000E+00 0. -1.
        -15    1    1    2    0    0 -0.28891027173E+01  0.56092846513E+00 -0.94561467892E+02  0.94623942499E+02  0.17770000000E+01 0. -1.
         15    1    1    2    0    0 -0.87443553741E+00  0.21061290163E+01 -0.53538531266E+02  0.53616531742E+02  0.17770000000E+01 0.  1.
</event>
<event>
 6    1  0.1108180E-002  0.1875653E+03  0.7546771E-02  0.1064493E+00
        -11   -1    0    0    0    0  0.00000000000E+00  0.00000000000E+00  0.18250000000E+03  0.18250000000E+03  0.00000000000E+00 0. -1.
         11   -1    0    0    0    0 -0.00000000000E+00 -0.00000000000E+00 -0.18250000000E+03  0.18250000000E+03  0.00000000000E+00 0.  1.
        -11    1    1    2    0    0 -0.15258758008E+01 -0.13466237489E+01  0.13990682588E+03  0.13992162671E+03  0.00000000000E+00 0. -1.
         11    1    1    2    0    0  0.26211614181E+01 -0.83406412267E+01 -0.17721917251E+03  0.17743469753E+03  0.00000000000E+00 0.  1.
        -15    1    1    2    0    0 -0.10839387230E+01  0.70959843076E+01 -0.24248976968E+01  0.77824015759E+01  0.17770000000E+01 0. -1.
         15    1    1    2    0    0 -0.11346894255E-01  0.25912806680E+01  0.39737244321E+02  0.39861274183E+02  0.17770000000E+01 0.  1.
</event>
<event>
 6    1  0.1108180E-002  0.1852030E+03  0.7546771E-02  0.1066323E+00
        -11   -1    0    0    0    0  0.00000000000E+00  0.00000000000E+00  0.18250000000E+03  0.18250000000E+03  0.00000000000E+00 0.  1.
         11   -1    0    0    0    0 -0.00000000000E+00 -0.00000000000E+00 -0.18250000000E+03  0.18250000000E+03  0.00000000000E+00 0.  1.
        -11    1    1    2    0    0  0.60003363722E+00 -0.10721454123E+01  0.87989122775E+02  0.87997700327E+02  0.00000000000E+00 0.  1.
         11    1    1    2    0    0  0.12760051447E+01  0.56148896112E+01 -0.17970480220E+03  0.17979702753E+03  0.00000000000E+00 0.  1.
        -15    1    1    2    0    0  0.64150970583E+01  0.34298940296E+00  0.85172890234E+02  0.85433307742E+02  0.17770000000E+01 0.  1.
         15    1    1    2    0    0 -0.82911358402E+01 -0.48857336019E+01  0.65427891952E+01  0.11771964399E+02  0.17770000000E+01 0. -1.
</event>
<event>
 6    1  0.1108180E-002  0.1828228E+03  0.7546771E-02  0.1068198E+00
        -11   -1    0    0    0    0  0.00000000000E+00  0.00000000000E+00  0.18250000000E+03  0.18250000000E+03  0.00000000000E+00 0.  1.
         11   -1    0    0    0    0 -0.00000000000E+00 -0.00000000000E+00 -0.18250000000E+03  0.18250000000E+03  0.00000000000E+00 0. -1.
        -11    1    1    2    0    0 -0.44602655785E+01  0.17393712671E+01  0.18211427043E+03  0.18217718538E+03  0.00000000000E+00 0.  1.
         11    1    1    2    0    0 -0.20319550412E+01  0.50247612344E+00 -0.12776704525E+03  0.12778418985E+03  0.00000000000E+00 0. -1.
        -15    1    1    2    0    0  0.43952171065E+01 -0.31708371774E+00 -0.21409289428E+02  0.21930204703E+02  0.17770000000E+01 0. -1.
         15    1    1    2    0    0  0.20970035132E+01 -0.19247636728E+01 -0.32937935750E+02  0.33108420068E+02  0.17770000000E+01 0.  1.
</event>
<event>
 6    1  0.1108180E-002  0.1830490E+03  0.7546771E-02  0.1068019E+00
        -11   -1    0    0    0    0  0.00000000000E+00  0.00000000000E+00  0.18250000000E+03  0.18250000000E+03  0.00000000000E+00 0. -1.
         11   -1    0    0    0    0 -0.00000000000E+00 -0.00000000000E+00 -0.18250000000E+03  0.18250000000E+03  0.00000000000E+00 0. -1.
        -11    1    1    2    0    0 -0.14916353973E+01  0.27872330261E+01  0.16126542927E+03  0.16129641137E+03  0.00000000000E+00 0. -1.
         11    1    1    2    0    0 -0.28161104792E+01 -0.44225699424E+01 -0.18187545280E+03  0.18195100971E+03  0.00000000000E+00 0. -1.
        -15    1    1    2    0    0  0.37738288792E+01  0.24480325778E+01  0.16049522759E+02  0.16762444860E+02  0.17770000000E+01 0.  1.
         15    1    1    2    0    0  0.53391699733E+00 -0.81269566141E+00  0.45605007718E+01  0.49901340551E+01  0.17770000000E+01 0. -1.
</event>
<event>
 6    1  0.1108180E-002  0.1857367E+03  0.7546771E-02  0.1065907E+00
        -11   -1    0    0    0    0  0.00000000000E+00  0.00000000000E+00  0.18250000000E+03  0.18250000000E+03  0.00000000000E+00 0.  1.
         11   -1    0    0    0    0 -0.00000000000E+00 -0.00000000000E+00 -0.18250000000E+03  0.18250000000E+03  0.00000000000E+00 0. -1.
        -11    1    1    2    0    0  0.23269639529E+01  0.17775366947E+01  0.17005019337E+03  0.17007540287E+03  0.00000000000E+00 0.  1.
         11    1    1    2    0    0 -0.18528930202E+01  0.16160548404E+01 -0.17924643215E+03  0.17926329319E+03  0.00000000000E+00 0. -1.
        -15    1    1    2    0    0  0.17766902902E+01 -0.13984349321E+01  0.11248054056E+02  0.11609853474E+02  0.17770000000E+01 0.  1.
         15    1    1    2    0    0 -0.22507612230E+01 -0.19951566029E+01 -0.20518152701E+01  0.40514504632E+01  0.17770000000E+01 0. -1.
</event>
<event>
 6    1  0.1108180E-002  0.2034932E+03  0.7546771E-02  0.1052873E+00
        -11   -1    0    0    0    0  0.00000000000E+00  0.00000000000E+00  0.18250000000E+03  0.18250000000E+03  0.00000000000E+00 0. -1.
         11   -1    0    0    0    0 -0.00000000000E+00 -0.00000000000E+00 -0.18250000000E+03  0.18250000000E+03  0.00000000000E+00 0.  1.
        -11    1    1    2    0    0 -0.35028192322E+01  0.23916968390E+01  0.15487397526E+03  0.15493204372E+03  0.00000000000E+00 0. -1.
         11    1    1    2    0    0  0.29001179283E+01 -0.14872551779E+01 -0.16147393628E+03  0.16150682558E+03  0.00000000000E+00 0.  1.
        -15    1    1    2    0    0 -0.16805980627E+01 -0.12244063722E+01 -0.20814053192E+02  0.20993001693E+02  0.17770000000E+01 0.  1.
         15    1    1    2    0    0  0.22832993666E+01  0.31996471105E+00  0.27414014204E+02  0.27568129012E+02  0.17770000000E+01 0. -1.
</event>
<event>
 6    1  0.1108180E-002  0.1839997E+03  0.7546771E-02  0.1067267E+00
        -11   -1    0    0    0    0  0.00000000000E+00  0.00000000000E+00  0.18250000000E+03  0.18250000000E+03  0.00000000000E+00 0.  1.
         11   -1    0    0    0    0 -0.00000000000E+00 -0.00000000000E+00 -0.18250000000E+03  0.18250000000E+03  0.00000000000E+00 0.  1.
        -11    1    1    2    0    0 -0.21399003352E+01  0.34861911512E+01  0.18095405557E+03  0.18100028434E+03  0.00000000000E+00 0.  1.
         11    1    1    2    0    0  0.48858835829E+00  0.41254319564E+01 -0.70701430974E+02  0.70823373608E+02  0.00000000000E+00 0.  1.
        -15    1    1    2    0    0  0.10114264241E+02 -0.24353913560E+01 -0.22561878551E+02  0.24908343280E+02  0.17770000000E+01 0. -1.
         15    1    1    2    0    0 -0.84629522640E+01 -0.51762317516E+01 -0.87690746047E+02  0.88267998774E+02  0.17770000000E+01 0.  1.
</event>
<event>
 6    1  0.1108180E-002  0.1889070E+03  0.7546771E-02  0.1063466E+00
        -11   -1    0    0    0    0  0.00000000000E+00  0.00000000000E+00  0.18250000000E+03  0.18250000000E+03  0.00000000000E+00 0. -1.
         11   -1    0    0    0    0 -0.00000000000E+00 -0.00000000000E+00 -0.18250000000E+03  0.18250000000E+03  0.00000000000E+00 0. -1.
        -11    1    1    2    0    0  0.18252396434E+00  0.10163990595E+01  0.57260489270E+01  0.58184206070E+01  0.00000000000E+00 0. -1.
         11    1    1    2    0    0  0.33524745949E+02 -0.15614902178E+02 -0.16892422732E+03  0.17292521024E+03  0.00000000000E+00 0. -1.
        -15    1    1    2    0    0 -0.56643077309E+02  0.18053326447E+02  0.78894874379E+02  0.98802427779E+02  0.17770000000E+01 0.  1.
         15    1    1    2    0    0  0.22935807395E+02 -0.34548233283E+01  0.84303304014E+02  0.87453941373E+02  0.17770000000E+01 0. -1.
</event>
<event>
 6    1  0.1108180E-002  0.1868476E+03  0.7546771E-02  0.1065046E+00
        -11   -1    0    0    0    0  0.00000000000E+00  0.00000000000E+00  0.18250000000E+03  0.18250000000E+03  0.00000000000E+00 0. -1.
         11   -1    0    0    0    0 -0.00000000000E+00 -0.00000000000E+00 -0.18250000000E+03  0.18250000000E+03  0.00000000000E+00 0.  1.
        -11    1    1    2    0    0  0.27027802756E+01 -0.10413441824E+00  0.17813181927E+03  0.17815235306E+03  0.00000000000E+00 0. -1.
         11    1    1    2    0    0 -0.94122495500E+00  0.47523705609E+01 -0.17291636957E+03  0.17298422413E+03  0.00000000000E+00 0.  1.
        -15    1    1    2    0    0 -0.22550613215E+01  0.48143489173E+00 -0.74297489426E+01  0.79797230196E+01  0.17770000000E+01 0. -1.
         15    1    1    2    0    0  0.49350600095E+00 -0.51296710344E+01  0.22142992444E+01  0.58836997916E+01  0.17770000000E+01 0.  1.
</event>
<event>
 6    1  0.1108180E-002  0.1835629E+03  0.7546771E-02  0.1067612E+00
        -11   -1    0    0    0    0  0.00000000000E+00  0.00000000000E+00  0.18250000000E+03  0.18250000000E+03  0.00000000000E+00 0. -1.
         11   -1    0    0    0    0 -0.00000000000E+00 -0.00000000000E+00 -0.18250000000E+03  0.18250000000E+03  0.00000000000E+00 0. -1.
        -11    1    1    2    0    0 -0.39440467789E+01 -0.35879608577E+01  0.18135878921E+03  0.18143714998E+03  0.00000000000E+00 0. -1.
         11    1    1    2    0    0 -0.19790387213E+01  0.19539963880E+01 -0.11315640427E+03  0.11319057613E+03  0.00000000000E+00 0. -1.
        -15    1    1    2    0    0  0.12490898362E+01 -0.25227182070E+01 -0.59057617310E+02  0.59151367050E+02  0.17770000000E+01 0. -1.
         15    1    1    2    0    0  0.46739956641E+01  0.41566826767E+01 -0.91447676305E+01  0.11220906842E+02  0.17770000000E+01 0. -1.
</event>
<event>
 6    1  0.1108180E-002  0.1838049E+03  0.7546771E-02  0.1067421E+00
        -11   -1    0    0    0    0  0.00000000000E+00  0.00000000000E+00  0.18250000000E+03  0.18250000000E+03  0.00000000000E+00 0. -1.
         11   -1    0    0    0    0 -0.00000000000E+00 -0.00000000000E+00 -0.18250000000E+03  0.18250000000E+03  0.00000000000E+00 0. -1.
        -11    1    1    2    0    0 -0.12633376377E+01  0.65741369216E+01  0.18107136352E+03  0.18119507164E+03  0.00000000000E+00 0. -1.
         11    1    1    2    0    0  0.23113392246E+01 -0.13730264336E+00 -0.16990678154E+03  0.16992255752E+03  0.00000000000E+00 0. -1.
        -15    1    1    2    0    0  0.54024100441E+00 -0.41488103813E+01 -0.84953866672E+01  0.96350304384E+01  0.17770000000E+01 0. -1.
         15    1    1    2    0    0 -0.15882425913E+01 -0.22880238969E+01 -0.26691953151E+01  0.42473404045E+01  0.17770000000E+01 0.  1.
</event>
<event>
 6    1  0.1108180E-002  0.1849546E+03  0.7546771E-02  0.1066518E+00
        -11   -1    0    0    0    0  0.00000000000E+00  0.00000000000E+00  0.18250000000E+03  0.18250000000E+03  0.00000000000E+00 0. -1.
         11   -1    0    0    0    0 -0.00000000000E+00 -0.00000000000E+00 -0.18250000000E+03  0.18250000000E+03  0.00000000000E+00 0. -1.
        -11    1    1    2    0    0  0.66990812715E+01 -0.18717976251E+01  0.17991100500E+03  0.18004541382E+03  0.00000000000E+00 0. -1.
         11    1    1    2    0    0 -0.26612523313E+01  0.23833352920E+01 -0.17481528417E+03  0.17485178333E+03  0.00000000000E+00 0. -1.
        -15    1    1    2    0    0 -0.45185021602E+00  0.78124211471E+00  0.13493650276E+01  0.24068699253E+01  0.17770000000E+01 0. -1.
         15    1    1    2    0    0 -0.35859787242E+01 -0.12927797816E+01 -0.64450858553E+01  0.76959329296E+01  0.17770000000E+01 0.  1.
</event>
<event>
 6    1  0.1108180E-002  0.1832555E+03  0.7546771E-02  0.1067855E+00
        -11   -1    0    0    0    0  0.00000000000E+00  0.00000000000E+00  0.18250000000E+03  0.18250000000E+03  0.00000000000E+00 0.  1.
         11   -1    0    0    0    0 -0.00000000000E+00 -0.00000000000E+00 -0.18250000000E+03  0.18250000000E+03  0.00000000000E+00 0.  1.
        -11    1    1    2    0    0 -0.99752473563E+00  0.39142176101E+01  0.18169956674E+03  0.18174445991E+03  0.00000000000E+00 0.  1.
         11    1    1    2    0    0 -0.23687581123E+01  0.35739930957E+01 -0.12572376824E+03  0.12579686142E+03  0.00000000000E+00 0.  1.
        -15    1    1    2    0    0  0.17114823585E+01 -0.91897842335E+01 -0.48336508897E+02  0.49264156619E+02  0.17770000000E+01 0.  1.
         15    1    1    2    0    0  0.16548004894E+01  0.17015735277E+01 -0.76392895985E+01  0.81945220544E+01  0.17770000000E+01 0. -1.
</event>
<event>
 6    1  0.1108180E-002  0.1884766E+03  0.7546771E-02  0.1063795E+00
        -11   -1    0    0    0    0  0.00000000000E+00  0.00000000000E+00  0.18250000000E+03  0.18250000000E+03  0.00000000000E+00 0. -1.
         11   -1    0    0    0    0 -0.00000000000E+00 -0.00000000000E+00 -0.18250000000E+03  0.18250000000E+03  0.00000000000E+00 0.  1.
        -11    1    1    2    0    0  0.76508986009E+00 -0.50268474291E+01  0.17645013557E+03  0.17652338343E+03  0.00000000000E+00 0. -1.
         11    1    1    2    0    0  0.32639105851E+01  0.42700297407E+01 -0.16526409894E+03  0.16535147010E+03  0.00000000000E+00 0.  1.
        -15    1    1    2    0    0  0.75431042339E+00 -0.24891702154E+01  0.49644515311E+01  0.58794949257E+01  0.17770000000E+01 0. -1.
         15    1    1    2    0    0 -0.47833108686E+01  0.32459879039E+01 -0.16150488158E+02  0.17245651541E+02  0.17770000000E+01 0.  1.
</event>
<event>
 6    1  0.1108180E-002  0.1837256E+03  0.7546771E-02  0.1067483E+00
        -11   -1    0    0    0    0  0.00000000000E+00  0.00000000000E+00  0.18250000000E+03  0.18250000000E+03  0.00000000000E+00 0.  1.
         11   -1    0    0    0    0 -0.00000000000E+00 -0.00000000000E+00 -0.18250000000E+03  0.18250000000E+03  0.00000000000E+00 0.  1.
        -11    1    1    2    0    0 -0.24542635977E+01  0.11845518440E+01  0.18125396166E+03  0.18127444716E+03  0.00000000000E+00 0.  1.
         11    1    1    2    0    0 -0.28912405390E+01  0.65272592627E-01 -0.13471395061E+03  0.13474498886E+03  0.00000000000E+00 0.  1.
        -15    1    1    2    0    0 -0.26068127268E+00 -0.81661569895E+00 -0.40468776867E+02  0.40516841511E+02  0.17770000000E+01 0.  1.
         15    1    1    2    0    0  0.56061854094E+01 -0.43320873769E+00 -0.60712341819E+01  0.84637224757E+01  0.17770000000E+01 0. -1.
</event>
<event>
 6    1  0.1108180E-002  0.1885190E+03  0.7546771E-02  0.1063762E+00
        -11   -1    0    0    0    0  0.00000000000E+00  0.00000000000E+00  0.18250000000E+03  0.18250000000E+03  0.00000000000E+00 0. -1.
         11   -1    0    0    0    0 -0.00000000000E+00 -0.00000000000E+00 -0.18250000000E+03  0.18250000000E+03  0.00000000000E+00 0.  1.
        -11    1    1    2    0    0 -0.15135089273E+01  0.16185571836E+02  0.17573069944E+03  0.17648099663E+03  0.00000000000E+00 0. -1.
         11    1    1    2    0    0  0.59818508133E+01 -0.43883431860E+01 -0.14364547237E+03  0.14383692790E+03  0.00000000000E+00 0.  1.
        -15    1    1    2    0    0 -0.32945370541E+01 -0.16709405432E+02 -0.61413880721E+01  0.18191552455E+02  0.17770000000E+01 0.  1.
         15    1    1    2    0    0 -0.11738048319E+01  0.49121767815E+01 -0.25943838999E+02  0.26490523014E+02  0.17770000000E+01 0.  1.
</event>
<event>
 6    1  0.1108180E-002  0.1750460E+03  0.7546771E-02  0.1074548E+00
        -11   -1    0    0    0    0  0.00000000000E+00  0.00000000000E+00  0.18250000000E+03  0.18250000000E+03  0.00000000000E+00 0.  1.
         11   -1    0    0    0    0 -0.00000000000E+00 -0.00000000000E+00 -0.18250000000E+03  0.18250000000E+03  0.00000000000E+00 0.  1.
        -11    1    1    2    0    0 -0.17443938081E+01 -0.30913455895E+01  0.17748825277E+03  0.17752374263E+03  0.00000000000E+00 0.  1.
         11    1    1    2    0    0  0.50470542529E+01 -0.67071902150E+01 -0.17255168393E+03  0.17275573156E+03  0.00000000000E+00 0.  1.
        -15    1    1    2    0    0 -0.28668740891E+01  0.11105660689E+02 -0.38977842595E+01  0.12243574540E+02  0.17770000000E+01 0.  1.
         15    1    1    2    0    0 -0.43578635575E+00 -0.13071248843E+01 -0.10387845746E+01  0.24769512719E+01  0.17770000000E+01 0. -1.
</event>
<event>
 6    1  0.1108180E-002  0.1877257E+03  0.7546771E-02  0.1064370E+00
        -11   -1    0    0    0    0  0.00000000000E+00  0.00000000000E+00  0.18250000000E+03  0.18250000000E+03  0.00000000000E+00 0. -1.
         11   -1    0    0    0    0 -0.00000000000E+00 -0.00000000000E+00 -0.18250000000E+03  0.18250000000E+03  0.00000000000E+00 0. -1.
        -11    1    1    2    0    0  0.24367954578E+01  0.33683092839E+00  0.16078762053E+03  0.16080643750E+03  0.00000000000E+00 0. -1.
         11    1    1    2    0    0  0.19625515057E+01 -0.66037352467E+01 -0.17714040540E+03  0.17727431893E+03  0.00000000000E+00 0. -1.
        -15    1    1    2    0    0 -0.91920816899E+00  0.42301329813E+01 -0.39623876769E+01  0.61316566929E+01  0.17770000000E+01 0.  1.
         15    1    1    2    0    0 -0.34801387945E+01  0.20367713370E+01  0.20315172547E+02  0.20787586876E+02  0.17770000000E+01 0. -1.
</event>
<event>
 6    1  0.1108180E-002  0.1731777E+03  0.7546771E-02  0.1076127E+00
        -11   -1    0    0    0    0  0.00000000000E+00  0.00000000000E+00  0.18250000000E+03  0.18250000000E+03  0.00000000000E+00 0.  1.
         11   -1    0    0    0    0 -0.00000000000E+00 -0.00000000000E+00 -0.18250000000E+03  0.18250000000E+03  0.00000000000E+00 0.  1.
        -11    1    1    2    0    0 -0.10247290890E+01 -0.32428319096E+01  0.17205422321E+03  0.17208783150E+03  0.00000000000E+00 0.  1.
         11    1    1    2    0    0  0.83338149792E+01  0.54005450480E+01 -0.17407435340E+03  0.17435738834E+03  0.00000000000E+00 0.  1.
        -15    1    1    2    0    0 -0.47945404832E+01 -0.42304841172E+01 -0.64826006482E+01  0.92772007888E+01  0.17770000000E+01 0.  1.
         15    1    1    2    0    0 -0.25145454069E+01  0.20727709788E+01  0.85027308406E+01  0.92775793654E+01  0.17770000000E+01 0. -1.
</event>
<event>
 6    1  0.1108180E-002  0.1852058E+03  0.7546771E-02  0.1066321E+00
        -11   -1    0    0    0    0  0.00000000000E+00  0.00000000000E+00  0.18250000000E+03  0.18250000000E+03  0.00000000000E+00 0. -1.
         11   -1    0    0    0    0 -0.00000000000E+00 -0.00000000000E+00 -0.18250000000E+03  0.18250000000E+03  0.00000000000E+00 0. -1.
        -11    1    1    2    0    0 -0.36944172054E+01 -0.67682271404E+00  0.17975491617E+03  0.17979415089E+03  0.00000000000E+00 0. -1.
         11    1    1    2    0    0 -0.23912959135E+01  0.55250339291E-01 -0.89264672700E+02  0.89296714055E+02  0.00000000000E+00 0. -1.
        -15    1    1    2    0    0  0.13179891164E+02  0.11790927058E+02 -0.61022061393E+02  0.63557731218E+02  0.17770000000E+01 0. -1.
         15    1    1    2    0    0 -0.70941780451E+01 -0.11169354683E+02 -0.29468182077E+02  0.32351403835E+02  0.17770000000E+01 0. -1.
</event>
<event>
 6    1  0.1108180E-002  0.1858140E+03  0.7546771E-02  0.1065847E+00
        -11   -1    0    0    0    0  0.00000000000E+00  0.00000000000E+00  0.18250000000E+03  0.18250000000E+03  0.00000000000E+00 0. -1.
         11   -1    0    0    0    0 -0.00000000000E+00 -0.00000000000E+00 -0.18250000000E+03  0.18250000000E+03  0.00000000000E+00 0. -1.
        -11    1    1    2    0    0  0.23621874181E+01  0.18292443628E+01  0.17916110287E+03  0.17918601186E+03  0.00000000000E+00 0. -1.
         11    1    1    2    0    0  0.98277678568E+00 -0.24221719616E+01 -0.17688551485E+03  0.17690482789E+03  0.00000000000E+00 0. -1.
        -15    1    1    2    0    0  0.77874953366E+00  0.13017649365E+01  0.16844518712E+01  0.28803037848E+01  0.17770000000E+01 0. -1.
         15    1    1    2    0    0 -0.41237137374E+01 -0.70883733766E+00 -0.39600398869E+01  0.60288564642E+01  0.17770000000E+01 0.  1.
</event>
<event>
 6    1  0.1108180E-002  0.1891731E+03  0.7546771E-02  0.1063264E+00
        -11   -1    0    0    0    0  0.00000000000E+00  0.00000000000E+00  0.18250000000E+03  0.18250000000E+03  0.00000000000E+00 0. -1.
         11   -1    0    0    0    0 -0.00000000000E+00 -0.00000000000E+00 -0.18250000000E+03  0.18250000000E+03  0.00000000000E+00 0.  1.
        -11    1    1    2    0    0  0.92357083261E+01  0.81676003967E+01  0.16369632795E+03  0.16415997012E+03  0.00000000000E+00 0. -1.
         11    1    1    2    0    0  0.22291554563E+01 -0.41623349623E+01 -0.17576353522E+03  0.17582694469E+03  0.00000000000E+00 0.  1.
        -15    1    1    2    0    0 -0.10527124798E+02 -0.29044478131E+00  0.16003390118E+02  0.19239826895E+02  0.17770000000E+01 0. -1.
         15    1    1    2    0    0 -0.93773898445E+00 -0.37148206531E+01 -0.39361828568E+01  0.57732582975E+01  0.17770000000E+01 0.  1.
</event>
<event>
 6    1  0.1108180E-002  0.1833306E+03  0.7546771E-02  0.1067796E+00
        -11   -1    0    0    0    0  0.00000000000E+00  0.00000000000E+00  0.18250000000E+03  0.18250000000E+03  0.00000000000E+00 0. -1.
         11   -1    0    0    0    0 -0.00000000000E+00 -0.00000000000E+00 -0.18250000000E+03  0.18250000000E+03  0.00000000000E+00 0.  1.
        -11    1    1    2    0    0 -0.28088734207E+01  0.21330857513E+01  0.15202599933E+03  0.15206690730E+03  0.00000000000E+00 0. -1.
         11    1    1    2    0    0  0.36064376917E+01  0.25024007157E+01 -0.18161635899E+03  0.18166939824E+03  0.00000000000E+00 0.  1.
        -15    1    1    2    0    0 -0.27054311901E+01 -0.21298747216E+01  0.25547356889E+02  0.25839522001E+02  0.17770000000E+01 0.  1.
         15    1    1    2    0    0  0.19078669192E+01 -0.25056117454E+01  0.40430027758E+01  0.54241724572E+01  0.17770000000E+01 0. -1.
</event>
<event>
 6    1  0.1108180E-002  0.1830263E+03  0.7546771E-02  0.1068037E+00
        -11   -1    0    0    0    0  0.00000000000E+00  0.00000000000E+00  0.18250000000E+03  0.18250000000E+03  0.00000000000E+00 0.  1.
         11   -1    0    0    0    0 -0.00000000000E+00 -0.00000000000E+00 -0.18250000000E+03  0.18250000000E+03  0.00000000000E+00 0.  1.
        -11    1    1    2    0    0 -0.71619566735E+00 -0.27423397351E+01  0.15366191083E+03  0.15368804834E+03  0.00000000000E+00 0.  1.
         11    1    1    2    0    0  0.34917831594E+01 -0.10875012803E+01 -0.18193690699E+03  0.18197366110E+03  0.00000000000E+00 0.  1.
        -15    1    1    2    0    0 -0.26803970647E+01 -0.44705129342E-01  0.80491943716E+01  0.86679747349E+01  0.17770000000E+01 0.  1.
         15    1    1    2    0    0 -0.95190427353E-01  0.38745461447E+01  0.20225801792E+02  0.20670315822E+02  0.17770000000E+01 0. -1.
</event>
<event>
 6    1  0.1108180E-002  0.1499792E+03  0.7546771E-02  0.1097763E+00
        -11   -1    0    0    0    0  0.00000000000E+00  0.00000000000E+00  0.18250000000E+03  0.18250000000E+03  0.00000000000E+00 0. -1.
         11   -1    0    0    0    0 -0.00000000000E+00 -0.00000000000E+00 -0.18250000000E+03  0.18250000000E+03  0.00000000000E+00 0.  1.
        -11    1    1    2    0    0 -0.97356711892E+01 -0.77237738285E+01  0.15126267936E+03  0.15177232337E+03  0.00000000000E+00 0. -1.
         11    1    1    2    0    0  0.61413425470E+01 -0.43822438839E+01 -0.14827491511E+03  0.14846673231E+03  0.00000000000E+00 0.  1.
        -15    1    1    2    0    0  0.87963350922E+01 -0.19479054585E+01  0.28446498452E+02  0.29891986383E+02  0.17770000000E+01 0. -1.
         15    1    1    2    0    0 -0.52020064500E+01  0.14053923171E+02 -0.31434262695E+02  0.34868957940E+02  0.17770000000E+01 0.  1.
</event>
<event>
 6    1  0.1108180E-002  0.1859125E+03  0.7546771E-02  0.1065770E+00
        -11   -1    0    0    0    0  0.00000000000E+00  0.00000000000E+00  0.18250000000E+03  0.18250000000E+03  0.00000000000E+00 0. -1.
         11   -1    0    0    0    0 -0.00000000000E+00 -0.00000000000E+00 -0.18250000000E+03  0.18250000000E+03  0.00000000000E+00 0. -1.
        -11    1    1    2    0    0  0.82661817461E+00 -0.28247087148E+01  0.17906334258E+03  0.17908752869E+03  0.00000000000E+00 0. -1.
         11    1    1    2    0    0  0.10722620130E+02 -0.15806295303E+01 -0.16061625853E+03  0.16098153769E+03  0.00000000000E+00 0. -1.
        -15    1    1    2    0    0 -0.34462195658E+01  0.65960041500E+01 -0.55976430467E+01  0.94802445496E+01  0.17770000000E+01 0.  1.
         15    1    1    2    0    0 -0.81030187388E+01 -0.21906659048E+01 -0.12849441004E+02  0.15450689075E+02  0.17770000000E+01 0. -1.
</event>
<event>
 6    1  0.1108180E-002  0.1842328E+03  0.7546771E-02  0.1067084E+00
        -11   -1    0    0    0    0  0.00000000000E+00  0.00000000000E+00  0.18250000000E+03  0.18250000000E+03  0.00000000000E+00 0. -1.
         11   -1    0    0    0    0 -0.00000000000E+00 -0.00000000000E+00 -0.18250000000E+03  0.18250000000E+03  0.00000000000E+00 0.  1.
        -11    1    1    2    0    0  0.62695148232E+01 -0.24541001134E+01  0.18064178428E+03  0.18076720845E+03  0.00000000000E+00 0. -1.
         11    1    1    2    0    0  0.26431003942E+01  0.94900360719E+00 -0.14918829701E+03  0.14921472633E+03  0.00000000000E+00 0.  1.
        -15    1    1    2    0    0 -0.73896793197E+01  0.21890718412E+01 -0.31600641560E+02  0.32575415146E+02  0.17770000000E+01 0. -1.
         15    1    1    2    0    0 -0.15229358977E+01 -0.68397533502E+00  0.14715429195E+00  0.24426500759E+01  0.17770000000E+01 0.  1.
</event>
<event>
 6    1  0.1108180E-002  0.1848502E+03  0.7546771E-02  0.1066599E+00
        -11   -1    0    0    0    0  0.00000000000E+00  0.00000000000E+00  0.18250000000E+03  0.18250000000E+03  0.00000000000E+00 0. -1.
         11   -1    0    0    0    0 -0.00000000000E+00 -0.00000000000E+00 -0.18250000000E+03  0.18250000000E+03  0.00000000000E+00 0.  1.
        -11    1    1    2    0    0 -0.10482333082E+02  0.84310496355E+01  0.17964684254E+03  0.18014979862E+03  0.00000000000E+00 0. -1.
         11    1    1    2    0    0  0.45280362525E+01 -0.15385296555E+01 -0.16315649351E+03  0.16322656512E+03  0.00000000000E+00 0.  1.
        -15    1    1    2    0    0  0.75830912258E+01 -0.38627879341E+01 -0.63401470294E+01  0.10760092775E+02  0.17770000000E+01 0.  1.
         15    1    1    2    0    0 -0.16287943967E+01 -0.30297320458E+01 -0.10150202004E+02  0.10863543491E+02  0.17770000000E+01 0.  1.
</event>
<event>
 6    1  0.1108180E-002  0.1853948E+03  0.7546771E-02  0.1066174E+00
        -11   -1    0    0    0    0  0.00000000000E+00  0.00000000000E+00  0.18250000000E+03  0.18250000000E+03  0.00000000000E+00 0.  1.
         11   -1    0    0    0    0 -0.00000000000E+00 -0.00000000000E+00 -0.18250000000E+03  0.18250000000E+03  0.00000000000E+00 0.  1.
        -11    1    1    2    0    0  0.21265194356E+01  0.10527806388E+00  0.15677034373E+03  0.15678480105E+03  0.00000000000E+00 0.  1.
         11    1    1    2    0    0 -0.36547553804E+01 -0.89468130320E+00 -0.17956575524E+03  0.17960517294E+03  0.00000000000E+00 0.  1.
        -15    1    1    2    0    0 -0.45166797613E+00  0.72373235961E+01  0.38060826761E+01  0.83801462477E+01  0.17770000000E+01 0. -1.
         15    1    1    2    0    0  0.19799039209E+01 -0.64479203568E+01  0.18989328836E+02  0.20229879760E+02  0.17770000000E+01 0.  1.
</event>
<event>
 6    1  0.1108180E-002  0.1867023E+03  0.7546771E-02  0.1065158E+00
        -11   -1    0    0    0    0  0.00000000000E+00  0.00000000000E+00  0.18250000000E+03  0.18250000000E+03  0.00000000000E+00 0. -1.
         11   -1    0    0    0    0 -0.00000000000E+00 -0.00000000000E+00 -0.18250000000E+03  0.18250000000E+03  0.00000000000E+00 0.  1.
        -11    1    1    2    0    0  0.73493613790E+01 -0.64853764912E-01  0.17814618052E+03  0.17829772560E+03  0.00000000000E+00 0. -1.
         11    1    1    2    0    0 -0.10995244122E+02  0.84041979753E+01 -0.15883146862E+03  0.15943325049E+03  0.00000000000E+00 0.  1.
        -15    1    1    2    0    0 -0.10481196762E+01 -0.11136503493E+01 -0.18258045358E+02  0.18407952663E+02  0.17770000000E+01 0.  1.
         15    1    1    2    0    0  0.46940024196E+01 -0.72256938611E+01 -0.10566665457E+01  0.88610712489E+01  0.17770000000E+01 0. -1.
</event>
<event>
 6    1  0.1108180E-002  0.1829736E+03  0.7546771E-02  0.1068078E+00
        -11   -1    0    0    0    0  0.00000000000E+00  0.00000000000E+00  0.18250000000E+03  0.18250000000E+03  0.00000000000E+00 0.  1.
         11   -1    0    0    0    0 -0.00000000000E+00 -0.00000000000E+00 -0.18250000000E+03  0.18250000000E+03  0.00000000000E+00 0. -1.
        -11    1    1    2    0    0 -0.19185656839E+01 -0.42181824613E+01  0.18196739647E+03  0.18202639187E+03  0.00000000000E+00 0.  1.
         11    1    1    2    0    0 -0.52080334013E+00 -0.27366652951E+01 -0.42254259043E+02  0.42345991314E+02  0.00000000000E+00 0. -1.
        -15    1    1    2    0    0  0.13062071304E+01  0.11571102887E+01 -0.36157797170E+01  0.43905208403E+01  0.17770000000E+01 0.  1.
         15    1    1    2    0    0  0.11331618937E+01  0.57977374677E+01 -0.13609735771E+03  0.13623709598E+03  0.17770000000E+01 0. -1.
</event>
<event>
 6    1  0.1108180E-002  0.1846974E+03  0.7546771E-02  0.1066719E+00
        -11   -1    0    0    0    0  0.00000000000E+00  0.00000000000E+00  0.18250000000E+03  0.18250000000E+03  0.00000000000E+00 0. -1.
         11   -1    0    0    0    0 -0.00000000000E+00 -0.00000000000E+00 -0.18250000000E+03  0.18250000000E+03  0.00000000000E+00 0. -1.
        -11    1    1    2    0    0 -0.50756399622E+01 -0.28982248403E+01  0.18020784770E+03  0.18030260730E+03  0.00000000000E+00 0. -1.
         11    1    1    2    0    0 -0.20445479115E+01  0.46601664673E+01 -0.16623431341E+03  0.16631218922E+03  0.00000000000E+00 0. -1.
        -15    1    1    2    0    0  0.55685504504E+01 -0.78554657310E-01 -0.14319255180E+02  0.15466535581E+02  0.17770000000E+01 0.  1.
         15    1    1    2    0    0  0.15516374233E+01 -0.16833869698E+01  0.34572089337E+00  0.29186679016E+01  0.17770000000E+01 0. -1.
</event>
<event>
 6    1  0.1108180E-002  0.1827825E+03  0.7546771E-02  0.1068230E+00
        -11   -1    0    0    0    0  0.00000000000E+00  0.00000000000E+00  0.18250000000E+03  0.18250000000E+03  0.00000000000E+00 0.  1.
         11   -1    0    0    0    0 -0.00000000000E+00 -0.00000000000E+00 -0.18250000000E+03  0.18250000000E+03  0.00000000000E+00 0. -1.
        -11    1    1    2    0    0 -0.10595828078E+01 -0.13357494277E+01  0.94715079532E+02  0.94730424009E+02  0.00000000000E+00 0.  1.
         11    1    1    2    0    0 -0.26161225704E+01  0.13641937358E+01 -0.18219362297E+03  0.18221751116E+03  0.00000000000E+00 0. -1.
        -15    1    1    2    0    0  0.63716742547E+00  0.13723384544E+01  0.74381160818E+02  0.74417767427E+02  0.17770000000E+01 0.  1.
         15    1    1    2    0    0  0.30385379528E+01 -0.14007827625E+01  0.13097382620E+02  0.13634297405E+02  0.17770000000E+01 0.  1.
</event>
<event>
 6    1  0.1108180E-002  0.1834330E+03  0.7546771E-02  0.1067715E+00
        -11   -1    0    0    0    0  0.00000000000E+00  0.00000000000E+00  0.18250000000E+03  0.18250000000E+03  0.00000000000E+00 0. -1.
         11   -1    0    0    0    0 -0.00000000000E+00 -0.00000000000E+00 -0.18250000000E+03  0.18250000000E+03  0.00000000000E+00 0.  1.
        -11    1    1    2    0    0  0.20722603217E+01  0.41268972934E+01  0.18150823808E+03  0.18156697397E+03  0.00000000000E+00 0. -1.
         11    1    1    2    0    0 -0.12176926594E+01  0.24611621812E+01 -0.82681689755E+02  0.82727274314E+02  0.00000000000E+00 0.  1.
        -15    1    1    2    0    0  0.50160068048E+00 -0.47229958329E+01 -0.60960052580E+01  0.79295209178E+01  0.17770000000E+01 0. -1.
         15    1    1    2    0    0 -0.13561683428E+01 -0.18650636417E+01 -0.92730543068E+02  0.92776230801E+02  0.17770000000E+01 0.  1.
</event>
<event>
 6    1  0.1108180E-002  0.1856524E+03  0.7546771E-02  0.1065973E+00
        -11   -1    0    0    0    0  0.00000000000E+00  0.00000000000E+00  0.18250000000E+03  0.18250000000E+03  0.00000000000E+00 0.  1.
         11   -1    0    0    0    0 -0.00000000000E+00 -0.00000000000E+00 -0.18250000000E+03  0.18250000000E+03  0.00000000000E+00 0. -1.
        -11    1    1    2    0    0  0.14488538804E+01 -0.63757676122E+01  0.17922841998E+03  0.17934764040E+03  0.00000000000E+00 0.  1.
         11    1    1    2    0    0 -0.88074852770E+01 -0.10493254854E+01 -0.14701036981E+03  0.14727770270E+03  0.00000000000E+00 0. -1.
        -15    1    1    2    0    0 -0.27891709029E+01  0.66587751650E+00  0.50274985789E+00  0.34107702374E+01  0.17770000000E+01 0.  1.
         15    1    1    2    0    0  0.10147802300E+02  0.67592155811E+01 -0.32720800025E+02  0.34963886656E+02  0.17770000000E+01 0. -1.
</event>
<event>
 6    1  0.1108180E-002  0.1840914E+03  0.7546771E-02  0.1067195E+00
        -11   -1    0    0    0    0  0.00000000000E+00  0.00000000000E+00  0.18250000000E+03  0.18250000000E+03  0.00000000000E+00 0. -1.
         11   -1    0    0    0    0 -0.00000000000E+00 -0.00000000000E+00 -0.18250000000E+03  0.18250000000E+03  0.00000000000E+00 0.  1.
        -11    1    1    2    0    0 -0.18366643156E+01 -0.52775237481E+01  0.18082225348E+03  0.18090857621E+03  0.00000000000E+00 0. -1.
         11    1    1    2    0    0 -0.10104325052E+01 -0.11815476763E+01 -0.75041129006E+02  0.75057231972E+02  0.00000000000E+00 0.  1.
        -15    1    1    2    0    0  0.20993478445E+00  0.46584779604E+01 -0.23108180618E+01  0.54993725675E+01  0.17770000000E+01 0. -1.
         15    1    1    2    0    0  0.26371620364E+01  0.18005934640E+01 -0.10347030641E+03  0.10353481925E+03  0.17770000000E+01 0.  1.
</event>
<event>
 6    1  0.1108180E-002  0.1766379E+03  0.7546771E-02  0.1073219E+00
        -11   -1    0    0    0    0  0.00000000000E+00  0.00000000000E+00  0.18250000000E+03  0.18250000000E+03  0.00000000000E+00 0. -1.
         11   -1    0    0    0    0 -0.00000000000E+00 -0.00000000000E+00 -0.18250000000E+03  0.18250000000E+03  0.00000000000E+00 0. -1.
        -11    1    1    2    0    0 -0.14293254525E+01 -0.21474517952E+01  0.17533533059E+03  0.17535430611E+03  0.00000000000E+00 0. -1.
         11    1    1    2    0    0 -0.29445239839E+01  0.33482094175E+01 -0.17790415233E+03  0.17796001839E+03  0.00000000000E+00 0. -1.
        -15    1    1    2    0    0  0.21329216480E+01 -0.83020660527E+00 -0.37504639266E+01  0.47394415735E+01  0.17770000000E+01 0. -1.
         15    1    1    2    0    0  0.22409277883E+01 -0.37055101707E+00  0.63192856686E+01  0.69462339271E+01  0.17770000000E+01 0.  1.
</event>
<event>
 6    1  0.1108180E-002  0.1876930E+03  0.7546771E-02  0.1064395E+00
        -11   -1    0    0    0    0  0.00000000000E+00  0.00000000000E+00  0.18250000000E+03  0.18250000000E+03  0.00000000000E+00 0.  1.
         11   -1    0    0    0    0 -0.00000000000E+00 -0.00000000000E+00 -0.18250000000E+03  0.18250000000E+03  0.00000000000E+00 0.  1.
        -11    1    1    2    0    0  0.30915296646E+01  0.26368323071E+01  0.17726039550E+03  0.17730696053E+03  0.00000000000E+00 0.  1.
         11    1    1    2    0    0  0.21180508314E+01 -0.27674298971E+01 -0.16556717347E+03  0.16560384578E+03  0.00000000000E+00 0.  1.
        -15    1    1    2    0    0 -0.79898756757E+01  0.55853414414E+01 -0.12172716005E+02  0.15696079009E+02  0.17770000000E+01 0. -1.
         15    1    1    2    0    0  0.27802951797E+01 -0.54547438514E+01  0.47949397107E+00  0.63931146743E+01  0.17770000000E+01 0.  1.
</event>
<event>
 6    1  0.1108180E-002  0.1862471E+03  0.7546771E-02  0.1065511E+00
        -11   -1    0    0    0    0  0.00000000000E+00  0.00000000000E+00  0.18250000000E+03  0.18250000000E+03  0.00000000000E+00 0. -1.
         11   -1    0    0    0    0 -0.00000000000E+00 -0.00000000000E+00 -0.18250000000E+03  0.18250000000E+03  0.00000000000E+00 0. -1.
        -11    1    1    2    0    0  0.66684927371E-01  0.37133928860E+01  0.17871432273E+03  0.17875291013E+03  0.00000000000E+00 0. -1.
         11    1    1    2    0    0  0.28236921457E+01  0.19986968179E+00 -0.16435268741E+03  0.16437706362E+03  0.00000000000E+00 0. -1.
        -15    1    1    2    0    0  0.80543687214E+00 -0.24477599154E+01  0.27784184738E+01  0.41854026537E+01  0.17770000000E+01 0. -1.
         15    1    1    2    0    0 -0.36958139452E+01 -0.14655026524E+01 -0.17140053791E+02  0.17684623595E+02  0.17770000000E+01 0. -1.
</event>
<event>
 6    1  0.1108180E-002  0.1852174E+03  0.7546771E-02  0.1066312E+00
        -11   -1    0    0    0    0  0.00000000000E+00  0.00000000000E+00  0.18250000000E+03  0.18250000000E+03  0.00000000000E+00 0.  1.
         11   -1    0    0    0    0 -0.00000000000E+00 -0.00000000000E+00 -0.18250000000E+03  0.18250000000E+03  0.00000000000E+00 0.  1.
        -11    1    1    2    0    0  0.18837892617E+01 -0.10691864516E+02  0.11794503275E+03  0.11844363799E+03  0.00000000000E+00 0.  1.
         11    1    1    2    0    0  0.27217461130E+01 -0.26998882287E+01 -0.17974170197E+03  0.17978258182E+03  0.00000000000E+00 0.  1.
        -15    1    1    2    0    0 -0.14315397366E+01 -0.28491160697E+01  0.10643806641E+01  0.38022892570E+01  0.17770000000E+01 0. -1.
         15    1    1    2    0    0 -0.31739956381E+01  0.16240868814E+02  0.60732288558E+02  0.62971490935E+02  0.17770000000E+01 0.  1.
</event>
<event>
 6    1  0.1108180E-002  0.1689657E+03  0.7546771E-02  0.1079769E+00
        -11   -1    0    0    0    0  0.00000000000E+00  0.00000000000E+00  0.18250000000E+03  0.18250000000E+03  0.00000000000E+00 0. -1.
         11   -1    0    0    0    0 -0.00000000000E+00 -0.00000000000E+00 -0.18250000000E+03  0.18250000000E+03  0.00000000000E+00 0.  1.
        -11    1    1    2    0    0  0.22750497871E+01 -0.44225243771E+01  0.16701796249E+03  0.16709199373E+03  0.00000000000E+00 0. -1.
         11    1    1    2    0    0 -0.49687688459E+01 -0.84847794614E+01 -0.17083532682E+03  0.17111805584E+03  0.00000000000E+00 0.  1.
        -15    1    1    2    0    0 -0.70463587230E+01  0.42596249509E+01 -0.60348391261E+01  0.10362074515E+02  0.17770000000E+01 0. -1.
         15    1    1    2    0    0  0.97400777818E+01  0.86476788876E+01  0.98522034523E+01  0.16427875919E+02  0.17770000000E+01 0.  1.
</event>
<event>
 6    1  0.1108180E-002  0.1834057E+03  0.7546771E-02  0.1067736E+00
        -11   -1    0    0    0    0  0.00000000000E+00  0.00000000000E+00  0.18250000000E+03  0.18250000000E+03  0.00000000000E+00 0. -1.
         11   -1    0    0    0    0 -0.00000000000E+00 -0.00000000000E+00 -0.18250000000E+03  0.18250000000E+03  0.00000000000E+00 0.  1.
        -11    1    1    2    0    0  0.18113617811E+01 -0.46659296588E-01  0.67594363282E+02  0.67618645033E+02  0.00000000000E+00 0. -1.
         11    1    1    2    0    0  0.35783739001E+00 -0.28132127415E+01 -0.18157213914E+03  0.18159428385E+03  0.00000000000E+00 0.  1.
        -15    1    1    2    0    0 -0.20607026436E+01  0.37816507989E+01  0.11366214836E+03  0.11375758909E+03  0.17770000000E+01 0. -1.
         15    1    1    2    0    0 -0.10849652754E+00 -0.92177876083E+00  0.31562750354E+00  0.20294820279E+01  0.17770000000E+01 0. -1.
</event>
<event>
 6    1  0.1108180E-002  0.1846048E+03  0.7546771E-02  0.1066792E+00
        -11   -1    0    0    0    0  0.00000000000E+00  0.00000000000E+00  0.18250000000E+03  0.18250000000E+03  0.00000000000E+00 0. -1.
         11   -1    0    0    0    0 -0.00000000000E+00 -0.00000000000E+00 -0.18250000000E+03  0.18250000000E+03  0.00000000000E+00 0.  1.
        -11    1    1    2    0    0  0.53701233775E+00  0.42963587939E+01  0.18034322865E+03  0.18039519728E+03  0.00000000000E+00 0. -1.
         11    1    1    2    0    0  0.24929457720E+01  0.24547029833E+00 -0.15931756907E+03  0.15933726133E+03  0.00000000000E+00 0.  1.
        -15    1    1    2    0    0  0.13093400359E+01 -0.25760062979E+01  0.24162102147E+00  0.34009247999E+01  0.17770000000E+01 0.  1.
         15    1    1    2    0    0 -0.43392981456E+01 -0.19658227944E+01 -0.21267280609E+02  0.21866616591E+02  0.17770000000E+01 0. -1.
</event>
<event>
 6    1  0.1108180E-002  0.1839843E+03  0.7546771E-02  0.1067279E+00
        -11   -1    0    0    0    0  0.00000000000E+00  0.00000000000E+00  0.18250000000E+03  0.18250000000E+03  0.00000000000E+00 0. -1.
         11   -1    0    0    0    0 -0.00000000000E+00 -0.00000000000E+00 -0.18250000000E+03  0.18250000000E+03  0.00000000000E+00 0. -1.
        -11    1    1    2    0    0 -0.16357964284E+01  0.34565594883E+01  0.17218682381E+03  0.17222928301E+03  0.00000000000E+00 0. -1.
         11    1    1    2    0    0 -0.28589539351E+01  0.13895925947E+01 -0.18098779275E+03  0.18101570570E+03  0.00000000000E+00 0. -1.
        -15    1    1    2    0    0  0.28322924068E+01 -0.17724705264E+01  0.52044030600E+01  0.64348327294E+01  0.17770000000E+01 0.  1.
         15    1    1    2    0    0  0.16624579567E+01 -0.30736815565E+01  0.35965658846E+01  0.53201785620E+01  0.17770000000E+01 0. -1.
</event>
<event>
 6    1  0.1108180E-002  0.1865313E+03  0.7546771E-02  0.1065290E+00
        -11   -1    0    0    0    0  0.00000000000E+00  0.00000000000E+00  0.18250000000E+03  0.18250000000E+03  0.00000000000E+00 0. -1.
         11   -1    0    0    0    0 -0.00000000000E+00 -0.00000000000E+00 -0.18250000000E+03  0.18250000000E+03  0.00000000000E+00 0.  1.
        -11    1    1    2    0    0  0.19086988630E+01  0.46843225656E+01  0.17839703702E+03  0.17846873347E+03  0.00000000000E+00 0. -1.
         11    1    1    2    0    0 -0.91525885193E+01 -0.38962517236E+01 -0.12826148369E+03  0.12864664338E+03  0.00000000000E+00 0.  1.
        -15    1    1    2    0    0  0.15881876200E+02  0.58636959256E+01 -0.23226991806E+02  0.28797010242E+02  0.17770000000E+01 0. -1.
         15    1    1    2    0    0 -0.86379865438E+01 -0.66517667676E+01 -0.26908561520E+02  0.29087612909E+02  0.17770000000E+01 0.  1.
</event>
<event>
 6    1  0.1108180E-002  0.1861278E+03  0.7546771E-02  0.1065603E+00
        -11   -1    0    0    0    0  0.00000000000E+00  0.00000000000E+00  0.18250000000E+03  0.18250000000E+03  0.00000000000E+00 0.  1.
         11   -1    0    0    0    0 -0.00000000000E+00 -0.00000000000E+00 -0.18250000000E+03  0.18250000000E+03  0.00000000000E+00 0.  1.
        -11    1    1    2    0    0 -0.39713300969E+01  0.20428274310E+01  0.13993473003E+03  0.14000597586E+03  0.00000000000E+00 0.  1.
         11    1    1    2    0    0 -0.62045819720E+00  0.32431432891E+01 -0.17884169445E+03  0.17887217397E+03  0.00000000000E+00 0.  1.
        -15    1    1    2    0    0 -0.13645922664E+01 -0.44992423438E+01 -0.14895840143E+01  0.52423165926E+01  0.17770000000E+01 0.  1.
         15    1    1    2    0    0  0.59563805605E+01 -0.78672837633E+00  0.40396548436E+02  0.40879533577E+02  0.17770000000E+01 0.  1.
</event>
<event>
 6    1  0.1108180E-002  0.1894385E+03  0.7546771E-02  0.1063062E+00
        -11   -1    0    0    0    0  0.00000000000E+00  0.00000000000E+00  0.18250000000E+03  0.18250000000E+03  0.00000000000E+00 0.  1.
         11   -1    0    0    0    0 -0.00000000000E+00 -0.00000000000E+00 -0.18250000000E+03  0.18250000000E+03  0.00000000000E+00 0.  1.
        -11    1    1    2    0    0  0.74779553469E+01  0.19795715562E+00  0.17187560569E+03  0.17203831793E+03  0.00000000000E+00 0.  1.
         11    1    1    2    0    0 -0.72948567552E+01  0.33885769881E+01 -0.17537716140E+03  0.17556151665E+03  0.00000000000E+00 0.  1.
        -15    1    1    2    0    0 -0.60317092041E+01 -0.20930289304E+01  0.74503424642E+01  0.99713398227E+01  0.17770000000E+01 0. -1.
         15    1    1    2    0    0  0.58486106124E+01 -0.14935052133E+01 -0.39487867597E+01  0.74288255997E+01  0.17770000000E+01 0. -1.
</event>
<event>
 6    1  0.1108180E-002  0.1853457E+03  0.7546771E-02  0.1066212E+00
        -11   -1    0    0    0    0  0.00000000000E+00  0.00000000000E+00  0.18250000000E+03  0.18250000000E+03  0.00000000000E+00 0.  1.
         11   -1    0    0    0    0 -0.00000000000E+00 -0.00000000000E+00 -0.18250000000E+03  0.18250000000E+03  0.00000000000E+00 0.  1.
        -11    1    1    2    0    0 -0.57235920646E+00  0.24259961841E+00  0.45200137025E+02  0.45204411695E+02  0.00000000000E+00 0.  1.
         11    1    1    2    0    0 -0.19477757700E+02 -0.64459776272E+01 -0.17847890885E+03  0.17965426401E+03  0.00000000000E+00 0.  1.
        -15    1    1    2    0    0 -0.19930887762E+01  0.11851346363E+02  0.93447952253E+02  0.94234305446E+02  0.17770000000E+01 0. -1.
         15    1    1    2    0    0  0.22043205683E+02 -0.56479683537E+01  0.39830819570E+02  0.45907018852E+02  0.17770000000E+01 0.  1.
</event>
<event>
 6    1  0.1108180E-002  0.1827786E+03  0.7546771E-02  0.1068233E+00
        -11   -1    0    0    0    0  0.00000000000E+00  0.00000000000E+00  0.18250000000E+03  0.18250000000E+03  0.00000000000E+00 0. -1.
         11   -1    0    0    0    0 -0.00000000000E+00 -0.00000000000E+00 -0.18250000000E+03  0.18250000000E+03  0.00000000000E+00 0. -1.
        -11    1    1    2    0    0  0.22523564938E+01  0.15595418279E+01  0.18220080478E+03  0.18222139979E+03  0.00000000000E+00 0. -1.
         11    1    1    2    0    0  0.23446949639E+01 -0.28048201000E+01 -0.11255903649E+03  0.11261838796E+03  0.00000000000E+00 0. -1.
        -15    1    1    2    0    0 -0.58831428596E+01  0.14204251899E+01 -0.52689430183E+02  0.53065645757E+02  0.17770000000E+01 0. -1.
         15    1    1    2    0    0  0.12860914019E+01 -0.17514691773E+00 -0.16952338104E+02  0.17094566497E+02  0.17770000000E+01 0. -1.
</event>
<event>
 6    1  0.1108180E-002  0.1827852E+03  0.7546771E-02  0.1068228E+00
        -11   -1    0    0    0    0  0.00000000000E+00  0.00000000000E+00  0.18250000000E+03  0.18250000000E+03  0.00000000000E+00 0.  1.
         11   -1    0    0    0    0 -0.00000000000E+00 -0.00000000000E+00 -0.18250000000E+03  0.18250000000E+03  0.00000000000E+00 0. -1.
        -11    1    1    2    0    0 -0.21655470438E+01 -0.33711966124E+00  0.58738848851E+02  0.58779721061E+02  0.00000000000E+00 0.  1.
         11    1    1    2    0    0 -0.18638927626E+01 -0.54509652468E+01 -0.18212372519E+03  0.18221481387E+03  0.00000000000E+00 0. -1.
        -15    1    1    2    0    0  0.30077413698E+01  0.61723244437E+01  0.42055024930E+02  0.42648879798E+02  0.17770000000E+01 0. -1.
         15    1    1    2    0    0  0.10216984367E+01 -0.38423953564E+00  0.81329851407E+02  0.81356585269E+02  0.17770000000E+01 0.  1.
</event>
<event>
 6    1  0.1108180E-002  0.1827189E+03  0.7546771E-02  0.1068281E+00
        -11   -1    0    0    0    0  0.00000000000E+00  0.00000000000E+00  0.18250000000E+03  0.18250000000E+03  0.00000000000E+00 0. -1.
         11   -1    0    0    0    0 -0.00000000000E+00 -0.00000000000E+00 -0.18250000000E+03  0.18250000000E+03  0.00000000000E+00 0. -1.
        -11    1    1    2    0    0  0.49480968888E+01  0.24819731424E+01  0.48690495764E+02  0.49004165448E+02  0.00000000000E+00 0. -1.
         11    1    1    2    0    0 -0.66021970193E+01 -0.13022204626E+01 -0.18215679908E+03  0.18228105836E+03  0.00000000000E+00 0. -1.
        -15    1    1    2    0    0  0.36099152591E+01  0.14632522829E+01  0.59293938717E+02  0.59448309421E+02  0.17770000000E+01 0. -1.
         15    1    1    2    0    0 -0.19558151286E+01 -0.26430049627E+01  0.74172364600E+02  0.74266466776E+02  0.17770000000E+01 0.  1.
</event>
<event>
 6    1  0.1108180E-002  0.1828143E+03  0.7546771E-02  0.1068205E+00
        -11   -1    0    0    0    0  0.00000000000E+00  0.00000000000E+00  0.18250000000E+03  0.18250000000E+03  0.00000000000E+00 0.  1.
         11   -1    0    0    0    0 -0.00000000000E+00 -0.00000000000E+00 -0.18250000000E+03  0.18250000000E+03  0.00000000000E+00 0. -1.
        -11    1    1    2    0    0  0.22061259542E+01  0.31070910932E+01  0.18214582239E+03  0.18218567897E+03  0.00000000000E+00 0.  1.
         11    1    1    2    0    0  0.16326416188E+00  0.20616120693E+01 -0.14113461395E+03  0.14114976498E+03  0.00000000000E+00 0. -1.
        -15    1    1    2    0    0 -0.14522722158E+01 -0.36181666241E+01 -0.32617947787E+02  0.32898153005E+02  0.17770000000E+01 0. -1.
         15    1    1    2    0    0 -0.91711790031E+00 -0.15505365384E+01 -0.83932606551E+01  0.87664030380E+01  0.17770000000E+01 0.  1.
</event>
<event>
 6    1  0.1108180E-002  0.1564042E+03  0.7546771E-02  0.1091361E+00
        -11   -1    0    0    0    0  0.00000000000E+00  0.00000000000E+00  0.18250000000E+03  0.18250000000E+03  0.00000000000E+00 0. -1.
         11   -1    0    0    0    0 -0.00000000000E+00 -0.00000000000E+00 -0.18250000000E+03  0.18250000000E+03  0.00000000000E+00 0.  1.
        -11    1    1    2    0    0  0.16017106784E+02  0.72239851109E+01  0.16083125257E+03  0.16178821179E+03  0.00000000000E+00 0. -1.
         11    1    1    2    0    0  0.11566270572E+01 -0.33917743878E+01 -0.15160818428E+03  0.15165053070E+03  0.00000000000E+00 0.  1.
        -15    1    1    2    0    0 -0.21396004087E+02 -0.11864109461E+02 -0.23878426458E+02  0.34232777617E+02  0.17770000000E+01 0. -1.
         15    1    1    2    0    0  0.42222702458E+01  0.80318987382E+01  0.14655358169E+02  0.17328479894E+02  0.17770000000E+01 0.  1.
</event>
<event>
 6    1  0.1108180E-002  0.1877386E+03  0.7546771E-02  0.1064360E+00
        -11   -1    0    0    0    0  0.00000000000E+00  0.00000000000E+00  0.18250000000E+03  0.18250000000E+03  0.00000000000E+00 0.  1.
         11   -1    0    0    0    0 -0.00000000000E+00 -0.00000000000E+00 -0.18250000000E+03  0.18250000000E+03  0.00000000000E+00 0. -1.
        -11    1    1    2    0    0 -0.24395938435E+01 -0.33462690718E+01  0.16783179253E+03  0.16788287500E+03  0.00000000000E+00 0.  1.
         11    1    1    2    0    0 -0.47007448188E+01  0.11417890263E+02 -0.17683082801E+03  0.17726140854E+03  0.00000000000E+00 0. -1.
        -15    1    1    2    0    0  0.37634062631E+01 -0.11334823823E+02  0.38738176469E+01  0.12680916763E+02  0.17770000000E+01 0.  1.
         15    1    1    2    0    0  0.33769323992E+01  0.32632026315E+01  0.51252178347E+01  0.71747996973E+01  0.17770000000E+01 0. -1.
</event>
<event>
 6    1  0.1108180E-002  0.1845763E+03  0.7546771E-02  0.1066814E+00
        -11   -1    0    0    0    0  0.00000000000E+00  0.00000000000E+00  0.18250000000E+03  0.18250000000E+03  0.00000000000E+00 0. -1.
         11   -1    0    0    0    0 -0.00000000000E+00 -0.00000000000E+00 -0.18250000000E+03  0.18250000000E+03  0.00000000000E+00 0.  1.
        -11    1    1    2    0    0 -0.98565102756E+00 -0.30936792560E+01  0.17560010456E+03  0.17563012008E+03  0.00000000000E+00 0. -1.
         11    1    1    2    0    0  0.15992929335E+01  0.27182301535E+01 -0.18039610015E+03  0.18042366658E+03  0.00000000000E+00 0.  1.
        -15    1    1    2    0    0 -0.28309241924E+00  0.33543790061E+01  0.13317912654E+01  0.40327902014E+01  0.17770000000E+01 0.  1.
         15    1    1    2    0    0 -0.33054948673E+00 -0.29789299036E+01  0.34642043238E+01  0.49134231378E+01  0.17770000000E+01 0. -1.
</event>
<event>
 6    1  0.1108180E-002  0.1832379E+03  0.7546771E-02  0.1067869E+00
        -11   -1    0    0    0    0  0.00000000000E+00  0.00000000000E+00  0.18250000000E+03  0.18250000000E+03  0.00000000000E+00 0.  1.
         11   -1    0    0    0    0 -0.00000000000E+00 -0.00000000000E+00 -0.18250000000E+03  0.18250000000E+03  0.00000000000E+00 0. -1.
        -11    1    1    2    0    0  0.38800610927E+01 -0.16594796642E+01  0.18171308145E+03  0.18176207723E+03  0.00000000000E+00 0.  1.
         11    1    1    2    0    0  0.18594442513E+01 -0.63560590084E+00 -0.13611191423E+03  0.13612609861E+03  0.00000000000E+00 0. -1.
        -15    1    1    2    0    0 -0.28930534507E+01  0.23323663626E+01 -0.55051223691E+01  0.68755939683E+01  0.17770000000E+01 0.  1.
         15    1    1    2    0    0 -0.28464518933E+01 -0.37280797590E-01 -0.40096044853E+02  0.40236230193E+02  0.17770000000E+01 0. -1.
</event>
<event>
 6    1  0.1108180E-002  0.1828816E+03  0.7546771E-02  0.1068151E+00
        -11   -1    0    0    0    0  0.00000000000E+00  0.00000000000E+00  0.18250000000E+03  0.18250000000E+03  0.00000000000E+00 0.  1.
         11   -1    0    0    0    0 -0.00000000000E+00 -0.00000000000E+00 -0.18250000000E+03  0.18250000000E+03  0.00000000000E+00 0.  1.
        -11    1    1    2    0    0  0.76000491464E+00 -0.17819807396E+01  0.12365525456E+03  0.12367042914E+03  0.00000000000E+00 0.  1.
         11    1    1    2    0    0 -0.48678494308E+01  0.19480060120E+01 -0.18204295566E+03  0.18211844604E+03  0.00000000000E+00 0.  1.
        -15    1    1    2    0    0  0.33432341841E+01  0.14296281389E+01  0.54045588194E+02  0.54196903820E+02  0.17770000000E+01 0.  1.
         15    1    1    2    0    0  0.76461033205E+00 -0.15956534113E+01  0.43421129026E+01  0.50142209991E+01  0.17770000000E+01 0. -1.
</event>
<event>
 6    1  0.1108180E-002  0.1849510E+03  0.7546771E-02  0.1066520E+00
        -11   -1    0    0    0    0  0.00000000000E+00  0.00000000000E+00  0.18250000000E+03  0.18250000000E+03  0.00000000000E+00 0. -1.
         11   -1    0    0    0    0 -0.00000000000E+00 -0.00000000000E+00 -0.18250000000E+03  0.18250000000E+03  0.00000000000E+00 0. -1.
        -11    1    1    2    0    0 -0.25083297181E+01 -0.16656240245E+01  0.17257493539E+03  0.17260120030E+03  0.00000000000E+00 0. -1.
         11    1    1    2    0    0 -0.25244481069E+01  0.19612181822E+01 -0.18002062938E+03  0.18004901059E+03  0.00000000000E+00 0. -1.
        -15    1    1    2    0    0  0.21684900024E+01 -0.15754604857E+01  0.80731082505E+01  0.86900650433E+01  0.17770000000E+01 0.  1.
         15    1    1    2    0    0  0.28642878226E+01  0.12798663280E+01 -0.62741426261E+00  0.36597240614E+01  0.17770000000E+01 0. -1.
</event>
<event>
 6    1  0.1108180E-002  0.1854749E+03  0.7546771E-02  0.1066111E+00
        -11   -1    0    0    0    0  0.00000000000E+00  0.00000000000E+00  0.18250000000E+03  0.18250000000E+03  0.00000000000E+00 0.  1.
         11   -1    0    0    0    0 -0.00000000000E+00 -0.00000000000E+00 -0.18250000000E+03  0.18250000000E+03  0.00000000000E+00 0.  1.
        -11    1    1    2    0    0 -0.12611772599E+01 -0.15267519241E+01  0.12802431418E+03  0.12803962887E+03  0.00000000000E+00 0.  1.
         11    1    1    2    0    0 -0.29922830699E+00  0.26864996029E+01 -0.17950471577E+03  0.17952506734E+03  0.00000000000E+00 0.  1.
        -15    1    1    2    0    0  0.42675099611E+01  0.27572111895E+01 -0.31445920012E+00  0.53917036640E+01  0.17770000000E+01 0. -1.
         15    1    1    2    0    0 -0.27071043943E+01 -0.39169588683E+01  0.51794860790E+02  0.52043600128E+02  0.17770000000E+01 0.  1.
</event>
<event>
 6    1  0.1108180E-002  0.1839163E+03  0.7546771E-02  0.1067333E+00
        -11   -1    0    0    0    0  0.00000000000E+00  0.00000000000E+00  0.18250000000E+03  0.18250000000E+03  0.00000000000E+00 0.  1.
         11   -1    0    0    0    0 -0.00000000000E+00 -0.00000000000E+00 -0.18250000000E+03  0.18250000000E+03  0.00000000000E+00 0.  1.
        -11    1    1    2    0    0  0.26754191727E+01 -0.18063228094E+01  0.18105488669E+03  0.18108366206E+03  0.00000000000E+00 0.  1.
         11    1    1    2    0    0  0.25457354975E+01  0.17155836933E+01 -0.16603106919E+03  0.16605944699E+03  0.00000000000E+00 0.  1.
        -15    1    1    2    0    0 -0.23699452700E+01  0.25580568934E+01 -0.24673717728E+01  0.46266562567E+01  0.17770000000E+01 0.  1.
         15    1    1    2    0    0 -0.28512094002E+01 -0.24673177773E+01 -0.12556445723E+02  0.13230234702E+02  0.17770000000E+01 0.  1.
</event>
<event>
 6    1  0.1108180E-002  0.1875390E+03  0.7546771E-02  0.1064513E+00
        -11   -1    0    0    0    0  0.00000000000E+00  0.00000000000E+00  0.18250000000E+03  0.18250000000E+03  0.00000000000E+00 0.  1.
         11   -1    0    0    0    0 -0.00000000000E+00 -0.00000000000E+00 -0.18250000000E+03  0.18250000000E+03  0.00000000000E+00 0. -1.
        -11    1    1    2    0    0  0.23957988489E+01 -0.47655364056E+00  0.17744417027E+03  0.17746098309E+03  0.00000000000E+00 0.  1.
         11    1    1    2    0    0 -0.43008653678E+01  0.28094989154E+01 -0.17281771695E+03  0.17289405432E+03  0.00000000000E+00 0. -1.
        -15    1    1    2    0    0 -0.34387350411E+01 -0.33975924286E+01 -0.67870241483E+01  0.85199741069E+01  0.17770000000E+01 0.  1.
         15    1    1    2    0    0  0.53438015600E+01  0.10646471537E+01  0.21605708268E+01  0.61249884875E+01  0.17770000000E+01 0. -1.
</event>
<event>
 6    1  0.1108180E-002  0.1832237E+03  0.7546771E-02  0.1067880E+00
        -11   -1    0    0    0    0  0.00000000000E+00  0.00000000000E+00  0.18250000000E+03  0.18250000000E+03  0.00000000000E+00 0.  1.
         11   -1    0    0    0    0 -0.00000000000E+00 -0.00000000000E+00 -0.18250000000E+03  0.18250000000E+03  0.00000000000E+00 0.  1.
        -11    1    1    2    0    0  0.51047886151E+01 -0.25505691122E+00  0.12768481561E+03  0.12778707313E+03  0.00000000000E+00 0.  1.
         11    1    1    2    0    0 -0.20208348626E+01  0.25025465514E+01 -0.18174781062E+03  0.18177627232E+03  0.00000000000E+00 0.  1.
        -15    1    1    2    0    0  0.43496234556E+00  0.56021369097E+00  0.10103218940E+01  0.21636799558E+01  0.17770000000E+01 0. -1.
         15    1    1    2    0    0 -0.35189160981E+01 -0.28077033312E+01  0.53052673117E+02  0.53272974596E+02  0.17770000000E+01 0.  1.
</event>
<event>
 6    1  0.1108180E-002  0.1846876E+03  0.7546771E-02  0.1066727E+00
        -11   -1    0    0    0    0  0.00000000000E+00  0.00000000000E+00  0.18250000000E+03  0.18250000000E+03  0.00000000000E+00 0. -1.
         11   -1    0    0    0    0 -0.00000000000E+00 -0.00000000000E+00 -0.18250000000E+03  0.18250000000E+03  0.00000000000E+00 0. -1.
        -11    1    1    2    0    0  0.30188767648E+01  0.12110665311E+01  0.17349103166E+03  0.17352152133E+03  0.00000000000E+00 0. -1.
         11    1    1    2    0    0 -0.24968306805E+01 -0.14194772673E-01 -0.18029507978E+03  0.18031236829E+03  0.00000000000E+00 0. -1.
        -15    1    1    2    0    0 -0.10548298450E+01 -0.44603265360E+01  0.49616173910E+01  0.69844509408E+01  0.17770000000E+01 0.  1.
         15    1    1    2    0    0  0.53278376070E+00  0.32634547776E+01  0.18424307317E+01  0.41816594340E+01  0.17770000000E+01 0. -1.
</event>
<event>
 6    1  0.1108180E-002  0.1882794E+03  0.7546771E-02  0.1063945E+00
        -11   -1    0    0    0    0  0.00000000000E+00  0.00000000000E+00  0.18250000000E+03  0.18250000000E+03  0.00000000000E+00 0. -1.
         11   -1    0    0    0    0 -0.00000000000E+00 -0.00000000000E+00 -0.18250000000E+03  0.18250000000E+03  0.00000000000E+00 0. -1.
        -11    1    1    2    0    0  0.52113242662E+01 -0.26768546455E+01  0.17662345326E+03  0.17672059216E+03  0.00000000000E+00 0. -1.
         11    1    1    2    0    0  0.55872806970E+00 -0.31488901829E+01 -0.16980273003E+03  0.16983284374E+03  0.00000000000E+00 0. -1.
        -15    1    1    2    0    0 -0.11678392200E+01 -0.32375897641E+01 -0.71395669283E+01  0.81226215502E+01  0.17770000000E+01 0. -1.
         15    1    1    2    0    0 -0.46022131159E+01  0.90633345924E+01  0.31884370423E+00  0.10323942551E+02  0.17770000000E+01 0.  1.
</event>
<event>
 6    1  0.1108180E-002  0.1958526E+03  0.7546771E-02  0.1058297E+00
        -11   -1    0    0    0    0  0.00000000000E+00  0.00000000000E+00  0.18250000000E+03  0.18250000000E+03  0.00000000000E+00 0.  1.
         11   -1    0    0    0    0 -0.00000000000E+00 -0.00000000000E+00 -0.18250000000E+03  0.18250000000E+03  0.00000000000E+00 0. -1.
        -11    1    1    2    0    0 -0.92312833499E+00  0.53012291975E+01  0.14765427878E+03  0.14775229690E+03  0.00000000000E+00 0.  1.
         11    1    1    2    0    0 -0.36909640600E+01  0.32229361506E+01 -0.16907638726E+03  0.16914737735E+03  0.00000000000E+00 0. -1.
        -15    1    1    2    0    0  0.26916077547E+01 -0.11470604999E+01  0.33518071453E+02  0.33692422635E+02  0.17770000000E+01 0.  1.
         15    1    1    2    0    0  0.19224846403E+01 -0.73771048481E+01 -0.12095962970E+02  0.14407903120E+02  0.17770000000E+01 0. -1.
</event>
<event>
 6    1  0.1108180E-002  0.1845238E+03  0.7546771E-02  0.1066855E+00
        -11   -1    0    0    0    0  0.00000000000E+00  0.00000000000E+00  0.18250000000E+03  0.18250000000E+03  0.00000000000E+00 0. -1.
         11   -1    0    0    0    0 -0.00000000000E+00 -0.00000000000E+00 -0.18250000000E+03  0.18250000000E+03  0.00000000000E+00 0. -1.
        -11    1    1    2    0    0 -0.39620463900E+01  0.32968795438E+01  0.15182713287E+03  0.15191459937E+03  0.00000000000E+00 0. -1.
         11    1    1    2    0    0  0.29027956240E+01  0.97820588435E+00 -0.18045023401E+03  0.18047623130E+03  0.00000000000E+00 0. -1.
        -15    1    1    2    0    0  0.53889364545E+01  0.19200633858E+01  0.20562596721E+02  0.21417408630E+02  0.17770000000E+01 0.  1.
         15    1    1    2    0    0 -0.43296856885E+01 -0.61951488140E+01  0.80605044273E+01  0.11191760702E+02  0.17770000000E+01 0. -1.
</event>
<event>
 6    1  0.1108180E-002  0.1859032E+03  0.7546771E-02  0.1065778E+00
        -11   -1    0    0    0    0  0.00000000000E+00  0.00000000000E+00  0.18250000000E+03  0.18250000000E+03  0.00000000000E+00 0. -1.
         11   -1    0    0    0    0 -0.00000000000E+00 -0.00000000000E+00 -0.18250000000E+03  0.18250000000E+03  0.00000000000E+00 0.  1.
        -11    1    1    2    0    0  0.17475355966E+00  0.63983674727E+01  0.12799261310E+03  0.12815256007E+03  0.00000000000E+00 0. -1.
         11    1    1    2    0    0  0.34061440527E+01  0.94504389384E+00 -0.17906191876E+03  0.17909680531E+03  0.00000000000E+00 0.  1.
        -15    1    1    2    0    0 -0.73504414894E+00  0.26817077292E+01 -0.18517585743E+01  0.37839906267E+01  0.17770000000E+01 0.  1.
         15    1    1    2    0    0 -0.28458534634E+01 -0.10025119096E+02  0.52921064234E+02  0.53966643989E+02  0.17770000000E+01 0. -1.
</event>
<event>
 6    1  0.1108180E-002  0.1970594E+03  0.7546771E-02  0.1057422E+00
        -11   -1    0    0    0    0  0.00000000000E+00  0.00000000000E+00  0.18250000000E+03  0.18250000000E+03  0.00000000000E+00 0. -1.
         11   -1    0    0    0    0 -0.00000000000E+00 -0.00000000000E+00 -0.18250000000E+03  0.18250000000E+03  0.00000000000E+00 0. -1.
        -11    1    1    2    0    0  0.75820246245E+00  0.39033991650E+01  0.16789352181E+03  0.16794060277E+03  0.00000000000E+00 0. -1.
         11    1    1    2    0    0  0.44618196720E+01 -0.19226493266E+01 -0.15828003808E+03  0.15835458588E+03  0.00000000000E+00 0. -1.
        -15    1    1    2    0    0 -0.64925697419E+01 -0.27653269639E+01  0.13573816262E+02  0.15401516548E+02  0.17770000000E+01 0.  1.
         15    1    1    2    0    0  0.12725476074E+01  0.78457712555E+00 -0.23187299986E+02  0.23303294795E+02  0.17770000000E+01 0. -1.
</event>
<event>
 6    1  0.1108180E-002  0.1839575E+03  0.7546771E-02  0.1067301E+00
        -11   -1    0    0    0    0  0.00000000000E+00  0.00000000000E+00  0.18250000000E+03  0.18250000000E+03  0.00000000000E+00 0. -1.
         11   -1    0    0    0    0 -0.00000000000E+00 -0.00000000000E+00 -0.18250000000E+03  0.18250000000E+03  0.00000000000E+00 0.  1.
        -11    1    1    2    0    0 -0.64625581492E+01 -0.54833383251E+01  0.18084400807E+03  0.18104250030E+03  0.00000000000E+00 0. -1.
         11    1    1    2    0    0 -0.73956182832E+00  0.42654409928E+01 -0.10413425658E+03  0.10422420224E+03  0.00000000000E+00 0.  1.
        -15    1    1    2    0    0 -0.38321473316E+01 -0.56489845524E+01 -0.14120584460E+02  0.15784328118E+02  0.17770000000E+01 0. -1.
         15    1    1    2    0    0  0.11034267309E+02  0.68668818847E+01 -0.62589167030E+02  0.63948969346E+02  0.17770000000E+01 0.  1.
</event>
<event>
 6    1  0.1108180E-002  0.1860154E+03  0.7546771E-02  0.1065690E+00
        -11   -1    0    0    0    0  0.00000000000E+00  0.00000000000E+00  0.18250000000E+03  0.18250000000E+03  0.00000000000E+00 0.  1.
         11   -1    0    0    0    0 -0.00000000000E+00 -0.00000000000E+00 -0.18250000000E+03  0.18250000000E+03  0.00000000000E+00 0. -1.
        -11    1    1    2    0    0  0.36085592038E+01 -0.76542886305E+01  0.17878445419E+03  0.17898461078E+03  0.00000000000E+00 0.  1.
         11    1    1    2    0    0 -0.53515125814E+01  0.80763868953E+01 -0.16705965024E+03  0.16734035213E+03  0.00000000000E+00 0. -1.
        -15    1    1    2    0    0 -0.35057548902E+01  0.27153160439E+01  0.58785073616E+00  0.48131648690E+01  0.17770000000E+01 0.  1.
         15    1    1    2    0    0  0.52487082678E+01 -0.31374143087E+01 -0.12312654690E+02  0.13861872224E+02  0.17770000000E+01 0. -1.
</event>
<event>
 6    1  0.1108180E-002  0.1794195E+03  0.7546771E-02  0.1070934E+00
        -11   -1    0    0    0    0  0.00000000000E+00  0.00000000000E+00  0.18250000000E+03  0.18250000000E+03  0.00000000000E+00 0.  1.
         11   -1    0    0    0    0 -0.00000000000E+00 -0.00000000000E+00 -0.18250000000E+03  0.18250000000E+03  0.00000000000E+00 0.  1.
        -11    1    1    2    0    0  0.22277056371E+01  0.18966250291E+01  0.17876621252E+03  0.17879015241E+03  0.00000000000E+00 0.  1.
         11    1    1    2    0    0  0.71691364718E+00 -0.24654435885E+01 -0.18004537953E+03  0.18006368614E+03  0.00000000000E+00 0.  1.
        -15    1    1    2    0    0 -0.25723797888E-01  0.14569124000E+01  0.12484181441E+01  0.26152499532E+01  0.17770000000E+01 0. -1.
         15    1    1    2    0    0 -0.29188954864E+01 -0.88809384067E+00  0.30748859292E-01  0.35309115002E+01  0.17770000000E+01 0.  1.
</event>
<event>
 6    1  0.1108180E-002  0.1825976E+03  0.7546771E-02  0.1068377E+00
        -11   -1    0    0    0    0  0.00000000000E+00  0.00000000000E+00  0.18250000000E+03  0.18250000000E+03  0.00000000000E+00 0. -1.
         11   -1    0    0    0    0 -0.00000000000E+00 -0.00000000000E+00 -0.18250000000E+03  0.18250000000E+03  0.00000000000E+00 0. -1.
        -11    1    1    2    0    0 -0.35700274212E+01 -0.97411602307E+00  0.18236485643E+03  0.18240239817E+03  0.00000000000E+00 0. -1.
         11    1    1    2    0    0 -0.10141767252E+01  0.42863536902E+00 -0.15784121218E+02  0.15822476587E+02  0.00000000000E+00 0. -1.
        -15    1    1    2    0    0  0.74381001827E+00  0.11142367249E+01 -0.18577714780E+02  0.18710531587E+02  0.17770000000E+01 0.  1.
         15    1    1    2    0    0  0.38403941281E+01 -0.56875607087E+00 -0.14800302043E+03  0.14806459366E+03  0.17770000000E+01 0. -1.
</event>
<event>
 6    1  0.1108180E-002  0.1633861E+03  0.7546771E-02  0.1084777E+00
        -11   -1    0    0    0    0  0.00000000000E+00  0.00000000000E+00  0.18250000000E+03  0.18250000000E+03  0.00000000000E+00 0.  1.
         11   -1    0    0    0    0 -0.00000000000E+00 -0.00000000000E+00 -0.18250000000E+03  0.18250000000E+03  0.00000000000E+00 0. -1.
        -11    1    1    2    0    0  0.39143863402E+00  0.19459782548E+01  0.50861060050E+01  0.54597188450E+01  0.00000000000E+00 0.  1.
         11    1    1    2    0    0  0.47857817815E+00  0.33311239128E+01 -0.16968450014E+03  0.16971786886E+03  0.00000000000E+00 0. -1.
        -15    1    1    2    0    0  0.28980698582E+02 -0.58188864987E+01  0.15588188835E+03  0.15866966053E+03  0.17770000000E+01 0.  1.
         15    1    1    2    0    0 -0.29850715394E+02  0.54178433108E+00  0.87165057892E+01  0.31152751756E+02  0.17770000000E+01 0. -1.
</event>
<event>
 6    1  0.1108180E-002  0.1706986E+03  0.7546771E-02  0.1078257E+00
        -11   -1    0    0    0    0  0.00000000000E+00  0.00000000000E+00  0.18250000000E+03  0.18250000000E+03  0.00000000000E+00 0.  1.
         11   -1    0    0    0    0 -0.00000000000E+00 -0.00000000000E+00 -0.18250000000E+03  0.18250000000E+03  0.00000000000E+00 0.  1.
        -11    1    1    2    0    0  0.14610798565E+01  0.40376388510E+01  0.17207647786E+03  0.17213004246E+03  0.00000000000E+00 0.  1.
         11    1    1    2    0    0  0.10907424632E+02 -0.64146255963E+01 -0.16904003524E+03  0.16951298725E+03  0.00000000000E+00 0.  1.
        -15    1    1    2    0    0 -0.51293213892E+01 -0.84093636515E+01 -0.19788367014E+01  0.10202982830E+02  0.17770000000E+01 0.  1.
         15    1    1    2    0    0 -0.72391830990E+01  0.10786350397E+02 -0.10576059215E+01  0.13153987460E+02  0.17770000000E+01 0. -1.
</event>
<event>
 6    1  0.1108180E-002  0.1833734E+03  0.7546771E-02  0.1067762E+00
        -11   -1    0    0    0    0  0.00000000000E+00  0.00000000000E+00  0.18250000000E+03  0.18250000000E+03  0.00000000000E+00 0.  1.
         11   -1    0    0    0    0 -0.00000000000E+00 -0.00000000000E+00 -0.18250000000E+03  0.18250000000E+03  0.00000000000E+00 0.  1.
        -11    1    1    2    0    0 -0.18443340702E+01  0.29987767810E+01  0.18159251027E+03  0.18162663355E+03  0.00000000000E+00 0.  1.
         11    1    1    2    0    0  0.36489333919E+01  0.25824530113E+01 -0.12861244496E+03  0.12869011142E+03  0.00000000000E+00 0.  1.
        -15    1    1    2    0    0 -0.13672201793E+01 -0.90905723255E+01 -0.32384528823E+02  0.33710877063E+02  0.17770000000E+01 0.  1.
         15    1    1    2    0    0 -0.43737914239E+00  0.35093425332E+01 -0.20595536485E+02  0.20972377968E+02  0.17770000000E+01 0. -1.
</event>
<event>
 6    1  0.1108180E-002  0.1834781E+03  0.7546771E-02  0.1067679E+00
        -11   -1    0    0    0    0  0.00000000000E+00  0.00000000000E+00  0.18250000000E+03  0.18250000000E+03  0.00000000000E+00 0.  1.
         11   -1    0    0    0    0 -0.00000000000E+00 -0.00000000000E+00 -0.18250000000E+03  0.18250000000E+03  0.00000000000E+00 0. -1.
        -11    1    1    2    0    0 -0.22150194837E+01 -0.78798181295E+00  0.15122847645E+03  0.15124674977E+03  0.00000000000E+00 0.  1.
         11    1    1    2    0    0 -0.55764156753E+00 -0.28163818434E+01 -0.18149923529E+03  0.18152194187E+03  0.00000000000E+00 0. -1.
        -15    1    1    2    0    0  0.30120705584E+01  0.66365193291E+01  0.21915220781E+02  0.23163561659E+02  0.17770000000E+01 0. -1.
         15    1    1    2    0    0 -0.23940950723E+00 -0.30321556727E+01  0.83555380616E+01  0.90677467010E+01  0.17770000000E+01 0.  1.
</event>
<event>
 6    1  0.1108180E-002  0.1834083E+03  0.7546771E-02  0.1067734E+00
        -11   -1    0    0    0    0  0.00000000000E+00  0.00000000000E+00  0.18250000000E+03  0.18250000000E+03  0.00000000000E+00 0.  1.
         11   -1    0    0    0    0 -0.00000000000E+00 -0.00000000000E+00 -0.18250000000E+03  0.18250000000E+03  0.00000000000E+00 0. -1.
        -11    1    1    2    0    0  0.88672831199E+00 -0.29739709747E+01  0.18156521864E+03  0.18159173827E+03  0.00000000000E+00 0.  1.
         11    1    1    2    0    0  0.23905660564E+01 -0.74420278800E+00 -0.17055137105E+03  0.17056974764E+03  0.00000000000E+00 0. -1.
        -15    1    1    2    0    0 -0.30787077202E+00  0.95893357562E+00 -0.47328239047E+01  0.51547734312E+01  0.17770000000E+01 0. -1.
         15    1    1    2    0    0 -0.29694235963E+01  0.27592401871E+01 -0.62810236851E+01  0.76837406540E+01  0.17770000000E+01 0. -1.
</event>
<event>
 6    1  0.1108180E-002  0.1967457E+03  0.7546771E-02  0.1057649E+00
        -11   -1    0    0    0    0  0.00000000000E+00  0.00000000000E+00  0.18250000000E+03  0.18250000000E+03  0.00000000000E+00 0. -1.
         11   -1    0    0    0    0 -0.00000000000E+00 -0.00000000000E+00 -0.18250000000E+03  0.18250000000E+03  0.00000000000E+00 0. -1.
        -11    1    1    2    0    0 -0.84765218876E+01  0.24554141443E+00  0.16804043300E+03  0.16825426841E+03  0.00000000000E+00 0. -1.
         11    1    1    2    0    0  0.14750309735E+02 -0.39841895658E+01 -0.11121845786E+03  0.11226304278E+03  0.00000000000E+00 0. -1.
        -15    1    1    2    0    0 -0.64100774265E+00  0.86434752057E+00 -0.69856075854E+02  0.69886959086E+02  0.17770000000E+01 0. -1.
         15    1    1    2    0    0 -0.56327801051E+01  0.28743006308E+01  0.13034100715E+02  0.14595729727E+02  0.17770000000E+01 0.  1.
</event>
<event>
 6    1  0.1108180E-002  0.1839616E+03  0.7546771E-02  0.1067297E+00
        -11   -1    0    0    0    0  0.00000000000E+00  0.00000000000E+00  0.18250000000E+03  0.18250000000E+03  0.00000000000E+00 0.  1.
         11   -1    0    0    0    0 -0.00000000000E+00 -0.00000000000E+00 -0.18250000000E+03  0.18250000000E+03  0.00000000000E+00 0.  1.
        -11    1    1    2    0    0 -0.20623314439E+00  0.25781825931E+01  0.17027231587E+03  0.17029195844E+03  0.00000000000E+00 0.  1.
         11    1    1    2    0    0 -0.47104873891E+01 -0.26680878338E+01 -0.18095742130E+03  0.18103838186E+03  0.00000000000E+00 0.  1.
        -15    1    1    2    0    0  0.43301922848E+01 -0.19424399794E+01  0.40661590176E+01  0.64973084007E+01  0.17770000000E+01 0.  1.
         15    1    1    2    0    0  0.58652824860E+00  0.20323452201E+01  0.66189464096E+01  0.71723512918E+01  0.17770000000E+01 0. -1.
</event>
<event>
 6    1  0.1108180E-002  0.1850032E+03  0.7546771E-02  0.1066480E+00
        -11   -1    0    0    0    0  0.00000000000E+00  0.00000000000E+00  0.18250000000E+03  0.18250000000E+03  0.00000000000E+00 0.  1.
         11   -1    0    0    0    0 -0.00000000000E+00 -0.00000000000E+00 -0.18250000000E+03  0.18250000000E+03  0.00000000000E+00 0.  1.
        -11    1    1    2    0    0 -0.31718803048E+01  0.74469845959E+01  0.17981471946E+03  0.17999681036E+03  0.00000000000E+00 0.  1.
         11    1    1    2    0    0  0.15426586541E+01 -0.20582178639E+01 -0.16344252717E+03  0.16346276562E+03  0.00000000000E+00 0.  1.
        -15    1    1    2    0    0 -0.80727886179E-01 -0.88988439379E+01 -0.78481195568E+01  0.11997776877E+02  0.17770000000E+01 0.  1.
         15    1    1    2    0    0  0.17099495369E+01  0.35100772060E+01 -0.85240727399E+01  0.95426471425E+01  0.17770000000E+01 0. -1.
</event>
<event>
 6    1  0.1108180E-002  0.1830666E+03  0.7546771E-02  0.1068005E+00
        -11   -1    0    0    0    0  0.00000000000E+00  0.00000000000E+00  0.18250000000E+03  0.18250000000E+03  0.00000000000E+00 0.  1.
         11   -1    0    0    0    0 -0.00000000000E+00 -0.00000000000E+00 -0.18250000000E+03  0.18250000000E+03  0.00000000000E+00 0. -1.
        -11    1    1    2    0    0 -0.21658707825E+01 -0.13500794650E+01  0.15165839077E+03  0.15167986420E+03  0.00000000000E+00 0.  1.
         11    1    1    2    0    0  0.11891245482E+01 -0.39018789555E+01 -0.18188771472E+03  0.18193344784E+03  0.00000000000E+00 0. -1.
        -15    1    1    2    0    0  0.62033322071E+00  0.41631455918E+01  0.27770540420E+02  0.28143866805E+02  0.17770000000E+01 0. -1.
         15    1    1    2    0    0  0.35641301358E+00  0.10888128287E+01  0.24587835278E+01  0.32428211558E+01  0.17770000000E+01 0. -1.
</event>
<event>
 6    1  0.1108180E-002  0.1833733E+03  0.7546771E-02  0.1067762E+00
        -11   -1    0    0    0    0  0.00000000000E+00  0.00000000000E+00  0.18250000000E+03  0.18250000000E+03  0.00000000000E+00 0. -1.
         11   -1    0    0    0    0 -0.00000000000E+00 -0.00000000000E+00 -0.18250000000E+03  0.18250000000E+03  0.00000000000E+00 0.  1.
        -11    1    1    2    0    0  0.56223936679E+01  0.64372937647E+01  0.18142546219E+03  0.18162667313E+03  0.00000000000E+00 0. -1.
         11    1    1    2    0    0  0.29079607239E+01  0.27214605028E-01 -0.10092364486E+03  0.10096553406E+03  0.00000000000E+00 0.  1.
        -15    1    1    2    0    0 -0.88912295706E+01  0.62730274717E+00 -0.29069747813E+02  0.30457436513E+02  0.17770000000E+01 0. -1.
         15    1    1    2    0    0  0.36087517885E+00 -0.70918111169E+01 -0.51432069520E+02  0.51950356302E+02  0.17770000000E+01 0.  1.
</event>
<event>
 6    1  0.1108180E-002  0.1743029E+03  0.7546771E-02  0.1075174E+00
        -11   -1    0    0    0    0  0.00000000000E+00  0.00000000000E+00  0.18250000000E+03  0.18250000000E+03  0.00000000000E+00 0. -1.
         11   -1    0    0    0    0 -0.00000000000E+00 -0.00000000000E+00 -0.18250000000E+03  0.18250000000E+03  0.00000000000E+00 0.  1.
        -11    1    1    2    0    0  0.45170981397E+01 -0.61243903112E+01  0.17167454557E+03  0.17184313175E+03  0.00000000000E+00 0. -1.
         11    1    1    2    0    0  0.53922547709E+00 -0.46868487072E+01 -0.17694390000E+03  0.17700678254E+03  0.00000000000E+00 0.  1.
        -15    1    1    2    0    0 -0.14998547431E+01  0.36248342877E+01 -0.23853799540E+01  0.49230838291E+01  0.17770000000E+01 0. -1.
         15    1    1    2    0    0 -0.35564688737E+01  0.71864047307E+01  0.76547343863E+01  0.11227001885E+02  0.17770000000E+01 0.  1.
</event>
<event>
 6    1  0.1108180E-002  0.1892032E+03  0.7546771E-02  0.1063241E+00
        -11   -1    0    0    0    0  0.00000000000E+00  0.00000000000E+00  0.18250000000E+03  0.18250000000E+03  0.00000000000E+00 0. -1.
         11   -1    0    0    0    0 -0.00000000000E+00 -0.00000000000E+00 -0.18250000000E+03  0.18250000000E+03  0.00000000000E+00 0. -1.
        -11    1    1    2    0    0 -0.66575038166E+00  0.13805686369E+02  0.17525260206E+03  0.17579679954E+03  0.00000000000E+00 0. -1.
         11    1    1    2    0    0 -0.12670869084E+02 -0.54423571305E+01 -0.16169136394E+03  0.16227836377E+03  0.00000000000E+00 0. -1.
        -15    1    1    2    0    0 -0.79295985089E+00 -0.86445751797E+01 -0.37090430761E+01  0.96058417071E+01  0.17770000000E+01 0.  1.
         15    1    1    2    0    0  0.14129579317E+02  0.28124594165E+00 -0.98521950451E+01  0.17318994981E+02  0.17770000000E+01 0. -1.
</event>
<event>
 6    1  0.1108180E-002  0.1870226E+03  0.7546771E-02  0.1064911E+00
        -11   -1    0    0    0    0  0.00000000000E+00  0.00000000000E+00  0.18250000000E+03  0.18250000000E+03  0.00000000000E+00 0.  1.
         11   -1    0    0    0    0 -0.00000000000E+00 -0.00000000000E+00 -0.18250000000E+03  0.18250000000E+03  0.00000000000E+00 0.  1.
        -11    1    1    2    0    0 -0.80361228846E+01 -0.19592437442E-01  0.11348524108E+03  0.11376941416E+03  0.00000000000E+00 0.  1.
         11    1    1    2    0    0 -0.47782060216E+01  0.59474423566E+01 -0.17781385936E+03  0.17797744774E+03  0.00000000000E+00 0.  1.
        -15    1    1    2    0    0 -0.37556886202E+01 -0.12977515435E+02  0.13017743727E+02  0.18845171388E+02  0.17770000000E+01 0. -1.
         15    1    1    2    0    0  0.16570017526E+02  0.70496655159E+01  0.51310874556E+02  0.54407966709E+02  0.17770000000E+01 0.  1.
</event>
<event>
 6    1  0.1108180E-002  0.1827000E+03  0.7546771E-02  0.1068296E+00
        -11   -1    0    0    0    0  0.00000000000E+00  0.00000000000E+00  0.18250000000E+03  0.18250000000E+03  0.00000000000E+00 0.  1.
         11   -1    0    0    0    0 -0.00000000000E+00 -0.00000000000E+00 -0.18250000000E+03  0.18250000000E+03  0.00000000000E+00 0.  1.
        -11    1    1    2    0    0  0.20942110186E+01 -0.24127104579E+01  0.18227204711E+03  0.18230004402E+03  0.00000000000E+00 0.  1.
         11    1    1    2    0    0 -0.15623692160E+01 -0.47066337612E+00 -0.11979235314E+03  0.11980346569E+03  0.00000000000E+00 0.  1.
        -15    1    1    2    0    0  0.79033447492E+00  0.26705375919E+01 -0.14771067038E+02  0.15136001785E+02  0.17770000000E+01 0. -1.
         15    1    1    2    0    0 -0.13221762775E+01  0.21283624214E+00 -0.47708626934E+02  0.47760488505E+02  0.17770000000E+01 0.  1.
</event>
<event>
 6    1  0.1108180E-002  0.1834809E+03  0.7546771E-02  0.1067677E+00
        -11   -1    0    0    0    0  0.00000000000E+00  0.00000000000E+00  0.18250000000E+03  0.18250000000E+03  0.00000000000E+00 0.  1.
         11   -1    0    0    0    0 -0.00000000000E+00 -0.00000000000E+00 -0.18250000000E+03  0.18250000000E+03  0.00000000000E+00 0.  1.
        -11    1    1    2    0    0  0.19884335446E+01 -0.27321041465E+00  0.13783145363E+03  0.13784606676E+03  0.00000000000E+00 0.  1.
         11    1    1    2    0    0 -0.45792132536E+01  0.27170729741E+01 -0.18144093998E+03  0.18151905239E+03  0.00000000000E+00 0.  1.
        -15    1    1    2    0    0 -0.32974886706E+01 -0.17754197802E+01  0.33690824260E+02  0.33944880545E+02  0.17770000000E+01 0. -1.
         15    1    1    2    0    0  0.58882683797E+01 -0.66844277926E+00  0.99186620913E+01  0.11690000297E+02  0.17770000000E+01 0.  1.
</event>
<event>
 6    1  0.1108180E-002  0.1825541E+03  0.7546771E-02  0.1068412E+00
        -11   -1    0    0    0    0  0.00000000000E+00  0.00000000000E+00  0.18250000000E+03  0.18250000000E+03  0.00000000000E+00 0. -1.
         11   -1    0    0    0    0 -0.00000000000E+00 -0.00000000000E+00 -0.18250000000E+03  0.18250000000E+03  0.00000000000E+00 0.  1.
        -11    1    1    2    0    0 -0.25831020007E+00 -0.20351441176E+01  0.43873730804E+02  0.43921666526E+02  0.00000000000E+00 0. -1.
         11    1    1    2    0    0  0.19502310822E+01  0.31702639376E+01 -0.18240796052E+03  0.18244593181E+03  0.00000000000E+00 0.  1.
        -15    1    1    2    0    0  0.16126461987E+00 -0.16302051391E+01  0.84998375729E+02  0.85032730056E+02  0.17770000000E+01 0. -1.
         15    1    1    2    0    0 -0.18531855020E+01  0.49508531903E+00  0.53535853982E+02  0.53599671609E+02  0.17770000000E+01 0. -1.
</event>
<event>
 6    1  0.1108180E-002  0.1854460E+03  0.7546771E-02  0.1066134E+00
        -11   -1    0    0    0    0  0.00000000000E+00  0.00000000000E+00  0.18250000000E+03  0.18250000000E+03  0.00000000000E+00 0. -1.
         11   -1    0    0    0    0 -0.00000000000E+00 -0.00000000000E+00 -0.18250000000E+03  0.18250000000E+03  0.00000000000E+00 0.  1.
        -11    1    1    2    0    0 -0.28788946836E+01  0.20072968735E+01  0.16592424660E+03  0.16596135961E+03  0.00000000000E+00 0. -1.
         11    1    1    2    0    0  0.31400633048E+01 -0.89336344391E-02 -0.17952649390E+03  0.17955395315E+03  0.00000000000E+00 0.  1.
        -15    1    1    2    0    0 -0.63504821401E+01  0.13187708200E+01  0.75497183434E+01  0.10110576440E+02  0.17770000000E+01 0. -1.
         15    1    1    2    0    0  0.60893135189E+01 -0.33171340591E+01  0.60525289634E+01  0.93741108031E+01  0.17770000000E+01 0.  1.
</event>
<event>
 6    1  0.1108180E-002  0.1830167E+03  0.7546771E-02  0.1068044E+00
        -11   -1    0    0    0    0  0.00000000000E+00  0.00000000000E+00  0.18250000000E+03  0.18250000000E+03  0.00000000000E+00 0. -1.
         11   -1    0    0    0    0 -0.00000000000E+00 -0.00000000000E+00 -0.18250000000E+03  0.18250000000E+03  0.00000000000E+00 0.  1.
        -11    1    1    2    0    0  0.27507843427E+01 -0.22674595332E+01  0.18194838751E+03  0.18198330666E+03  0.00000000000E+00 0. -1.
         11    1    1    2    0    0 -0.78131847381E+00 -0.11041457930E+01 -0.65363398633E+02  0.65377392708E+02  0.00000000000E+00 0.  1.
        -15    1    1    2    0    0 -0.64675282588E+01  0.44123250185E+01 -0.35193796931E+02  0.36097903059E+02  0.17770000000E+01 0.  1.
         15    1    1    2    0    0  0.44980623899E+01 -0.10407196924E+01 -0.81391191944E+02  0.81541397570E+02  0.17770000000E+01 0. -1.
</event>
<event>
 6    1  0.1108180E-002  0.1834118E+03  0.7546771E-02  0.1067731E+00
        -11   -1    0    0    0    0  0.00000000000E+00  0.00000000000E+00  0.18250000000E+03  0.18250000000E+03  0.00000000000E+00 0. -1.
         11   -1    0    0    0    0 -0.00000000000E+00 -0.00000000000E+00 -0.18250000000E+03  0.18250000000E+03  0.00000000000E+00 0. -1.
        -11    1    1    2    0    0  0.13454930851E+01 -0.29779801431E+01  0.18155879349E+03  0.18158819953E+03  0.00000000000E+00 0. -1.
         11    1    1    2    0    0 -0.29509622199E+01 -0.80354181747E+00 -0.16794831975E+03  0.16797616487E+03  0.00000000000E+00 0. -1.
        -15    1    1    2    0    0  0.25550472581E+01  0.32902300669E+00 -0.44431742572E+01  0.54347078220E+01  0.17770000000E+01 0.  1.
         15    1    1    2    0    0 -0.94957812325E+00  0.34524989539E+01 -0.91672994787E+01  0.10000927776E+02  0.17770000000E+01 0.  1.
</event>
<event>
 6    1  0.1108180E-002  0.1839417E+03  0.7546771E-02  0.1067313E+00
        -11   -1    0    0    0    0  0.00000000000E+00  0.00000000000E+00  0.18250000000E+03  0.18250000000E+03  0.00000000000E+00 0. -1.
         11   -1    0    0    0    0 -0.00000000000E+00 -0.00000000000E+00 -0.18250000000E+03  0.18250000000E+03  0.00000000000E+00 0.  1.
        -11    1    1    2    0    0 -0.17122989219E+01 -0.17912082350E+01  0.17397572124E+03  0.17399336762E+03  0.00000000000E+00 0. -1.
         11    1    1    2    0    0  0.22800373279E+01 -0.20094225646E+01 -0.18103282060E+03  0.18105832896E+03  0.00000000000E+00 0.  1.
        -15    1    1    2    0    0 -0.10531310994E+01  0.24176050265E+00  0.31257907476E+00  0.21030853362E+01  0.17770000000E+01 0. -1.
         15    1    1    2    0    0  0.48539269338E+00  0.35588702969E+01  0.67445202856E+01  0.78452180811E+01  0.17770000000E+01 0.  1.
</event>
<event>
 6    1  0.1108180E-002  0.1867042E+03  0.7546771E-02  0.1065157E+00
        -11   -1    0    0    0    0  0.00000000000E+00  0.00000000000E+00  0.18250000000E+03  0.18250000000E+03  0.00000000000E+00 0.  1.
         11   -1    0    0    0    0 -0.00000000000E+00 -0.00000000000E+00 -0.18250000000E+03  0.18250000000E+03  0.00000000000E+00 0.  1.
        -11    1    1    2    0    0  0.29089673907E+01  0.24422476521E+01  0.17825533617E+03  0.17829579787E+03  0.00000000000E+00 0.  1.
         11    1    1    2    0    0  0.14484381834E+01 -0.17703856913E+01 -0.15046172033E+03  0.15047910661E+03  0.00000000000E+00 0.  1.
        -15    1    1    2    0    0  0.24239528968E+01 -0.98635280260E+00  0.31687909225E+01  0.44774327921E+01  0.17770000000E+01 0.  1.
         15    1    1    2    0    0 -0.67813584709E+01  0.31449084176E+00 -0.30962406763E+02  0.31747662729E+02  0.17770000000E+01 0. -1.
</event>
<event>
 6    1  0.1108180E-002  0.1844911E+03  0.7546771E-02  0.1066881E+00
        -11   -1    0    0    0    0  0.00000000000E+00  0.00000000000E+00  0.18250000000E+03  0.18250000000E+03  0.00000000000E+00 0. -1.
         11   -1    0    0    0    0 -0.00000000000E+00 -0.00000000000E+00 -0.18250000000E+03  0.18250000000E+03  0.00000000000E+00 0.  1.
        -11    1    1    2    0    0  0.29602681420E+00  0.35073917212E+01  0.18047455074E+03  0.18050887207E+03  0.00000000000E+00 0. -1.
         11    1    1    2    0    0  0.20788487046E+01  0.27897207349E+01 -0.15733968583E+03  0.15737814617E+03  0.00000000000E+00 0.  1.
        -15    1    1    2    0    0  0.21544753765E+01 -0.93928707063E+00 -0.17998845299E+02  0.18238426068E+02  0.17770000000E+01 0. -1.
         15    1    1    2    0    0 -0.45293508952E+01 -0.53578253854E+01 -0.51360196130E+01  0.88745556992E+01  0.17770000000E+01 0.  1.
</event>
<event>
 6    1  0.1108180E-002  0.1847412E+03  0.7546771E-02  0.1066685E+00
        -11   -1    0    0    0    0  0.00000000000E+00  0.00000000000E+00  0.18250000000E+03  0.18250000000E+03  0.00000000000E+00 0.  1.
         11   -1    0    0    0    0 -0.00000000000E+00 -0.00000000000E+00 -0.18250000000E+03  0.18250000000E+03  0.00000000000E+00 0. -1.
        -11    1    1    2    0    0  0.12684738613E+01 -0.15797175476E+01  0.50692556128E+02  0.50733024552E+02  0.00000000000E+00 0.  1.
         11    1    1    2    0    0  0.29188749025E+02 -0.17036764726E+02 -0.17706211258E+03  0.18025877547E+03  0.00000000000E+00 0. -1.
        -15    1    1    2    0    0 -0.82042013189E+01 -0.31381002233E+01  0.95286137153E+01  0.13080856265E+02  0.17770000000E+01 0. -1.
         15    1    1    2    0    0 -0.22253021567E+02  0.21754582497E+02  0.11684094274E+03  0.12092734371E+03  0.17770000000E+01 0.  1.
</event>
<event>
 6    1  0.1108180E-002  0.1833117E+03  0.7546771E-02  0.1067811E+00
        -11   -1    0    0    0    0  0.00000000000E+00  0.00000000000E+00  0.18250000000E+03  0.18250000000E+03  0.00000000000E+00 0.  1.
         11   -1    0    0    0    0 -0.00000000000E+00 -0.00000000000E+00 -0.18250000000E+03  0.18250000000E+03  0.00000000000E+00 0. -1.
        -11    1    1    2    0    0  0.14811775656E+01  0.42869140199E+01  0.18163167086E+03  0.18168829180E+03  0.00000000000E+00 0.  1.
         11    1    1    2    0    0 -0.24919177499E+01  0.25712359898E+00 -0.38772482594E+02  0.38853328984E+02  0.00000000000E+00 0. -1.
        -15    1    1    2    0    0  0.11539368103E+01 -0.25128942944E+00 -0.13682419170E+03  0.13684082680E+03  0.17770000000E+01 0. -1.
         15    1    1    2    0    0 -0.14319662598E+00 -0.42927481894E+01 -0.60349965594E+01  0.76175524129E+01  0.17770000000E+01 0.  1.
</event>
<event>
 6    1  0.1108180E-002  0.1846844E+03  0.7546771E-02  0.1066729E+00
        -11   -1    0    0    0    0  0.00000000000E+00  0.00000000000E+00  0.18250000000E+03  0.18250000000E+03  0.00000000000E+00 0.  1.
         11   -1    0    0    0    0 -0.00000000000E+00 -0.00000000000E+00 -0.18250000000E+03  0.18250000000E+03  0.00000000000E+00 0.  1.
        -11    1    1    2    0    0  0.20878425922E-02 -0.32227441736E+01  0.18028684773E+03  0.18031564976E+03  0.00000000000E+00 0.  1.
         11    1    1    2    0    0 -0.30192599994E+00 -0.25099010822E+01 -0.17311491253E+03  0.17313336969E+03  0.00000000000E+00 0.  1.
        -15    1    1    2    0    0 -0.12016612038E+01  0.48248435586E+01 -0.17183118794E+01  0.55527857629E+01  0.17770000000E+01 0.  1.
         15    1    1    2    0    0  0.15014993611E+01  0.90780169715E+00 -0.54536233256E+01  0.59981947809E+01  0.17770000000E+01 0. -1.
</event>
<event>
 6    1  0.1108180E-002  0.1971999E+03  0.7546771E-02  0.1057321E+00
        -11   -1    0    0    0    0  0.00000000000E+00  0.00000000000E+00  0.18250000000E+03  0.18250000000E+03  0.00000000000E+00 0. -1.
         11   -1    0    0    0    0 -0.00000000000E+00 -0.00000000000E+00 -0.18250000000E+03  0.18250000000E+03  0.00000000000E+00 0. -1.
        -11    1    1    2    0    0 -0.14720361086E+01 -0.30506126646E+01  0.10325704461E+03  0.10331258582E+03  0.00000000000E+00 0. -1.
         11    1    1    2    0    0  0.36254444325E+02 -0.12151822420E+02 -0.16338546903E+03  0.16780006857E+03  0.00000000000E+00 0. -1.
        -15    1    1    2    0    0 -0.34737509898E+02  0.13643322826E+02  0.38517223415E+01  0.37560995004E+02  0.17770000000E+01 0. -1.
         15    1    1    2    0    0 -0.44898317990E-01  0.15591122577E+01  0.56276702081E+02  0.56326350609E+02  0.17770000000E+01 0.  1.
</event>
<event>
 6    1  0.1108180E-002  0.1847829E+03  0.7546771E-02  0.1066652E+00
        -11   -1    0    0    0    0  0.00000000000E+00  0.00000000000E+00  0.18250000000E+03  0.18250000000E+03  0.00000000000E+00 0. -1.
         11   -1    0    0    0    0 -0.00000000000E+00 -0.00000000000E+00 -0.18250000000E+03  0.18250000000E+03  0.00000000000E+00 0.  1.
        -11    1    1    2    0    0  0.38544879284E+00 -0.39976925704E+01  0.17250011454E+03  0.17254686213E+03  0.00000000000E+00 0. -1.
         11    1    1    2    0    0  0.29190263597E+01 -0.27458404408E+01 -0.18017253496E+03  0.18021709883E+03  0.00000000000E+00 0.  1.
        -15    1    1    2    0    0  0.66283470207E+00  0.22293569175E+01  0.10276001563E+01  0.31021078623E+01  0.17770000000E+01 0.  1.
         15    1    1    2    0    0 -0.39673098546E+01  0.45141760937E+01  0.66448202706E+01  0.91339311753E+01  0.17770000000E+01 0. -1.
</event>
<event>
 6    1  0.1108180E-002  0.1681938E+03  0.7546771E-02  0.1080450E+00
        -11   -1    0    0    0    0  0.00000000000E+00  0.00000000000E+00  0.18250000000E+03  0.18250000000E+03  0.00000000000E+00 0.  1.
         11   -1    0    0    0    0 -0.00000000000E+00 -0.00000000000E+00 -0.18250000000E+03  0.18250000000E+03  0.00000000000E+00 0.  1.
        -11    1    1    2    0    0 -0.49448384937E+01  0.92642910930E+01  0.16497475569E+03  0.16530864627E+03  0.00000000000E+00 0.  1.
         11    1    1    2    0    0  0.32512479325E+01  0.23707594705E+01 -0.17129650236E+03  0.17134375633E+03  0.00000000000E+00 0.  1.
        -15    1    1    2    0    0 -0.30525764472E+01 -0.44312564906E+00 -0.84293808899E+01  0.91502335760E+01  0.17770000000E+01 0. -1.
         15    1    1    2    0    0  0.47461670085E+01 -0.11191924914E+02  0.14751127558E+02  0.19197363824E+02  0.17770000000E+01 0.  1.
</event>
<event>
 6    1  0.1108180E-002  0.1848686E+03  0.7546771E-02  0.1066585E+00
        -11   -1    0    0    0    0  0.00000000000E+00  0.00000000000E+00  0.18250000000E+03  0.18250000000E+03  0.00000000000E+00 0. -1.
         11   -1    0    0    0    0 -0.00000000000E+00 -0.00000000000E+00 -0.18250000000E+03  0.18250000000E+03  0.00000000000E+00 0.  1.
        -11    1    1    2    0    0  0.52402584189E+00 -0.41629635128E+01  0.16796491687E+03  0.16801731508E+03  0.00000000000E+00 0. -1.
         11    1    1    2    0    0 -0.52889150812E+01  0.16699713278E+01 -0.18004601655E+03  0.18013142286E+03  0.00000000000E+00 0.  1.
        -15    1    1    2    0    0  0.16777177140E+01  0.51793956395E+01  0.10775115846E+02  0.12202529509E+02  0.17770000000E+01 0. -1.
         15    1    1    2    0    0  0.30871715253E+01 -0.26864034544E+01  0.13059838307E+01  0.46487325491E+01  0.17770000000E+01 0.  1.
</event>
<event>
 6    1  0.1108180E-002  0.1827611E+03  0.7546771E-02  0.1068247E+00
        -11   -1    0    0    0    0  0.00000000000E+00  0.00000000000E+00  0.18250000000E+03  0.18250000000E+03  0.00000000000E+00 0.  1.
         11   -1    0    0    0    0 -0.00000000000E+00 -0.00000000000E+00 -0.18250000000E+03  0.18250000000E+03  0.00000000000E+00 0. -1.
        -11    1    1    2    0    0 -0.40833576758E+00 -0.10895503932E+01  0.50668345773E+02  0.50681704012E+02  0.00000000000E+00 0.  1.
         11    1    1    2    0    0  0.40985508433E+01 -0.10409996785E+02 -0.18189512364E+03  0.18223886017E+03  0.00000000000E+00 0. -1.
        -15    1    1    2    0    0 -0.41942242110E+00  0.56168225758E+01  0.27893153971E+02  0.28511583233E+02  0.17770000000E+01 0. -1.
         15    1    1    2    0    0 -0.32707926546E+01  0.58827246020E+01  0.10333362389E+03  0.10356785259E+03  0.17770000000E+01 0.  1.
</event>
<event>
 6    1  0.1108180E-002  0.1871122E+03  0.7546771E-02  0.1064842E+00
        -11   -1    0    0    0    0  0.00000000000E+00  0.00000000000E+00  0.18250000000E+03  0.18250000000E+03  0.00000000000E+00 0. -1.
         11   -1    0    0    0    0 -0.00000000000E+00 -0.00000000000E+00 -0.18250000000E+03  0.18250000000E+03  0.00000000000E+00 0. -1.
        -11    1    1    2    0    0  0.20190870890E+01  0.84171340405E+01  0.17767704067E+03  0.17788776136E+03  0.00000000000E+00 0. -1.
         11    1    1    2    0    0  0.46150648136E+00 -0.27684379461E+01 -0.14712063399E+03  0.14714740291E+03  0.00000000000E+00 0. -1.
        -15    1    1    2    0    0 -0.58562998659E+01 -0.11887840042E+02 -0.65879421007E+01  0.14905559336E+02  0.17770000000E+01 0. -1.
         15    1    1    2    0    0  0.33757062956E+01  0.62391439477E+01 -0.23968464578E+02  0.25059276395E+02  0.17770000000E+01 0.  1.
</event>
<event>
 6    1  0.1108180E-002  0.1827296E+03  0.7546771E-02  0.1068272E+00
        -11   -1    0    0    0    0  0.00000000000E+00  0.00000000000E+00  0.18250000000E+03  0.18250000000E+03  0.00000000000E+00 0.  1.
         11   -1    0    0    0    0 -0.00000000000E+00 -0.00000000000E+00 -0.18250000000E+03  0.18250000000E+03  0.00000000000E+00 0.  1.
        -11    1    1    2    0    0 -0.26040636192E+01 -0.11250133430E+01  0.11118594674E+03  0.11122212709E+03  0.00000000000E+00 0.  1.
         11    1    1    2    0    0 -0.19268410107E+01  0.22075327531E+01 -0.18224683264E+03  0.18227038685E+03  0.00000000000E+00 0.  1.
        -15    1    1    2    0    0  0.35621045166E+01 -0.70075955494E+00  0.64598421935E+02  0.64724751819E+02  0.17770000000E+01 0. -1.
         15    1    1    2    0    0  0.96880011333E+00 -0.38175985520E+00  0.64624639608E+01  0.67827342341E+01  0.17770000000E+01 0.  1.
</event>
<event>
 6    1  0.1108180E-002  0.1919416E+03  0.7546771E-02  0.1061178E+00
        -11   -1    0    0    0    0  0.00000000000E+00  0.00000000000E+00  0.18250000000E+03  0.18250000000E+03  0.00000000000E+00 0.  1.
         11   -1    0    0    0    0 -0.00000000000E+00 -0.00000000000E+00 -0.18250000000E+03  0.18250000000E+03  0.00000000000E+00 0. -1.
        -11    1    1    2    0    0  0.53621787240E+01  0.71971906577E+01  0.17282554129E+03  0.17305843012E+03  0.00000000000E+00 0.  1.
         11    1    1    2    0    0 -0.54600957469E+01 -0.48425533483E+00 -0.16027393063E+03  0.16036764010E+03  0.00000000000E+00 0. -1.
        -15    1    1    2    0    0  0.66077147379E+01  0.23260143941E+01 -0.17741718590E+02  0.19157206073E+02  0.17770000000E+01 0.  1.
         15    1    1    2    0    0 -0.65097977150E+01 -0.90389497170E+01  0.51901079311E+01  0.12416723707E+02  0.17770000000E+01 0.  1.
</event>
<event>
 6    1  0.1108180E-002  0.1863599E+03  0.7546771E-02  0.1065423E+00
        -11   -1    0    0    0    0  0.00000000000E+00  0.00000000000E+00  0.18250000000E+03  0.18250000000E+03  0.00000000000E+00 0.  1.
         11   -1    0    0    0    0 -0.00000000000E+00 -0.00000000000E+00 -0.18250000000E+03  0.18250000000E+03  0.00000000000E+00 0. -1.
        -11    1    1    2    0    0  0.16296579855E+01 -0.31265592258E+01  0.12539942625E+03  0.12544898271E+03  0.00000000000E+00 0.  1.
         11    1    1    2    0    0 -0.50539767084E+01  0.91720623147E+01 -0.17833287776E+03  0.17864009823E+03  0.00000000000E+00 0. -1.
        -15    1    1    2    0    0  0.49963460646E+01 -0.80553135617E+01  0.19582051942E+01  0.98409271492E+01  0.17770000000E+01 0. -1.
         15    1    1    2    0    0 -0.15720273417E+01  0.20098104728E+01  0.50975246313E+02  0.51069991911E+02  0.17770000000E+01 0.  1.
</event>
<event>
 6    1  0.1108180E-002  0.1899338E+03  0.7546771E-02  0.1062687E+00
        -11   -1    0    0    0    0  0.00000000000E+00  0.00000000000E+00  0.18250000000E+03  0.18250000000E+03  0.00000000000E+00 0. -1.
         11   -1    0    0    0    0 -0.00000000000E+00 -0.00000000000E+00 -0.18250000000E+03  0.18250000000E+03  0.00000000000E+00 0.  1.
        -11    1    1    2    0    0 -0.11914763820E+02 -0.13938181522E+02  0.17410320188E+03  0.17506615723E+03  0.00000000000E+00 0. -1.
         11    1    1    2    0    0 -0.13619068638E+01 -0.62232959340E+00 -0.10698783676E+03  0.10699831447E+03  0.00000000000E+00 0.  1.
        -15    1    1    2    0    0  0.79988473997E+01 -0.12540923116E+02 -0.65501105294E+01  0.16349862057E+02  0.17770000000E+01 0. -1.
         15    1    1    2    0    0  0.52778232839E+01  0.27101434231E+02 -0.60565254594E+02  0.66585666243E+02  0.17770000000E+01 0.  1.
</event>
<event>
 6    1  0.1108180E-002  0.1827135E+03  0.7546771E-02  0.1068285E+00
        -11   -1    0    0    0    0  0.00000000000E+00  0.00000000000E+00  0.18250000000E+03  0.18250000000E+03  0.00000000000E+00 0.  1.
         11   -1    0    0    0    0 -0.00000000000E+00 -0.00000000000E+00 -0.18250000000E+03  0.18250000000E+03  0.00000000000E+00 0.  1.
        -11    1    1    2    0    0  0.22678948278E+01 -0.15864165855E+01  0.18226544047E+03  0.18228645275E+03  0.00000000000E+00 0.  1.
         11    1    1    2    0    0 -0.24006783066E+01  0.76005346346E+00 -0.14418341219E+03  0.14420539966E+03  0.00000000000E+00 0.  1.
        -15    1    1    2    0    0  0.14724527650E+01 -0.31776254136E+00 -0.28821815371E+02  0.28915806412E+02  0.17770000000E+01 0.  1.
         15    1    1    2    0    0 -0.13396692862E+01  0.11441256634E+01 -0.92602129065E+01  0.95923411847E+01  0.17770000000E+01 0. -1.
</event>
<event>
 6    1  0.1108180E-002  0.1833351E+03  0.7546771E-02  0.1067792E+00
        -11   -1    0    0    0    0  0.00000000000E+00  0.00000000000E+00  0.18250000000E+03  0.18250000000E+03  0.00000000000E+00 0. -1.
         11   -1    0    0    0    0 -0.00000000000E+00 -0.00000000000E+00 -0.18250000000E+03  0.18250000000E+03  0.00000000000E+00 0. -1.
        -11    1    1    2    0    0  0.36006816151E+01 -0.10587339341E+02  0.18132037797E+03  0.18166490066E+03  0.00000000000E+00 0. -1.
         11    1    1    2    0    0 -0.33515309177E+01 -0.47989830345E+01 -0.37400642579E+02  0.37855925071E+02  0.00000000000E+00 0. -1.
        -15    1    1    2    0    0  0.51396718950E+01  0.13261149645E+02 -0.80081538084E+02  0.81354070506E+02  0.17770000000E+01 0. -1.
         15    1    1    2    0    0 -0.53888225925E+01  0.21251727307E+01 -0.63838197310E+02  0.64125103765E+02  0.17770000000E+01 0.  1.
</event>
<event>
 6    1  0.1108180E-002  0.1826347E+03  0.7546771E-02  0.1068348E+00
        -11   -1    0    0    0    0  0.00000000000E+00  0.00000000000E+00  0.18250000000E+03  0.18250000000E+03  0.00000000000E+00 0.  1.
         11   -1    0    0    0    0 -0.00000000000E+00 -0.00000000000E+00 -0.18250000000E+03  0.18250000000E+03  0.00000000000E+00 0. -1.
        -11    1    1    2    0    0 -0.11306417344E+00  0.46537780674E+01  0.18230583334E+03  0.18236525794E+03  0.00000000000E+00 0.  1.
         11    1    1    2    0    0 -0.12114353224E+01 -0.37132968964E+00 -0.52831598007E+02  0.52846789961E+02  0.00000000000E+00 0. -1.
        -15    1    1    2    0    0  0.12809032800E+01 -0.52714347460E+01 -0.56990579688E+02  0.57275759616E+02  0.17770000000E+01 0. -1.
         15    1    1    2    0    0  0.43596215887E-01  0.98898636821E+00 -0.72483655643E+02  0.72512192485E+02  0.17770000000E+01 0. -1.
</event>
<event>
 6    1  0.1108180E-002  0.1861914E+03  0.7546771E-02  0.1065554E+00
        -11   -1    0    0    0    0  0.00000000000E+00  0.00000000000E+00  0.18250000000E+03  0.18250000000E+03  0.00000000000E+00 0. -1.
         11   -1    0    0    0    0 -0.00000000000E+00 -0.00000000000E+00 -0.18250000000E+03  0.18250000000E+03  0.00000000000E+00 0.  1.
        -11    1    1    2    0    0 -0.45243251925E+00  0.28686347610E+01  0.17206944250E+03  0.17209394761E+03  0.00000000000E+00 0. -1.
         11    1    1    2    0    0 -0.41379615935E+01 -0.46124543329E+01 -0.17870117393E+03  0.17880857648E+03  0.00000000000E+00 0.  1.
        -15    1    1    2    0    0  0.11832009272E+01  0.24588691109E+00  0.90599824677E+01  0.93113605946E+01  0.17770000000E+01 0.  1.
         15    1    1    2    0    0  0.34071931855E+01  0.14979326608E+01 -0.24282510445E+01  0.47861153136E+01  0.17770000000E+01 0. -1.
</event>
<event>
 6    1  0.1108180E-002  0.1827612E+03  0.7546771E-02  0.1068247E+00
        -11   -1    0    0    0    0  0.00000000000E+00  0.00000000000E+00  0.18250000000E+03  0.18250000000E+03  0.00000000000E+00 0. -1.
         11   -1    0    0    0    0 -0.00000000000E+00 -0.00000000000E+00 -0.18250000000E+03  0.18250000000E+03  0.00000000000E+00 0.  1.
        -11    1    1    2    0    0 -0.87562426539E+00 -0.22202641905E+01  0.40198749409E+02  0.40269538673E+02  0.00000000000E+00 0. -1.
         11    1    1    2    0    0 -0.46415892204E+01  0.74997513214E+01 -0.18202525879E+03  0.18223881435E+03  0.00000000000E+00 0.  1.
        -15    1    1    2    0    0  0.61201392316E+01 -0.58049577882E+01  0.57497254442E+02  0.58139879915E+02  0.17770000000E+01 0.  1.
         15    1    1    2    0    0 -0.60292574577E+00  0.52547065734E+00  0.84329254936E+02  0.84351767059E+02  0.17770000000E+01 0. -1.
</event>
<event>
 6    1  0.1108180E-002  0.1895034E+03  0.7546771E-02  0.1063013E+00
        -11   -1    0    0    0    0  0.00000000000E+00  0.00000000000E+00  0.18250000000E+03  0.18250000000E+03  0.00000000000E+00 0. -1.
         11   -1    0    0    0    0 -0.00000000000E+00 -0.00000000000E+00 -0.18250000000E+03  0.18250000000E+03  0.00000000000E+00 0.  1.
        -11    1    1    2    0    0  0.54638322213E+01  0.56647648019E+01  0.49920378815E+02  0.50536988868E+02  0.00000000000E+00 0. -1.
         11    1    1    2    0    0 -0.96113437232E+01  0.41933971719E+02 -0.17014179361E+03  0.17549662631E+03  0.00000000000E+00 0.  1.
        -15    1    1    2    0    0 -0.19597943832E+02 -0.29823710811E+02  0.88804213028E+02  0.95722928860E+02  0.17770000000E+01 0. -1.
         15    1    1    2    0    0  0.23745455334E+02 -0.17775025709E+02  0.31417201766E+02  0.43243455965E+02  0.17770000000E+01 0.  1.
</event>
<event>
 6    1  0.1108180E-002  0.1869243E+03  0.7546771E-02  0.1064987E+00
        -11   -1    0    0    0    0  0.00000000000E+00  0.00000000000E+00  0.18250000000E+03  0.18250000000E+03  0.00000000000E+00 0. -1.
         11   -1    0    0    0    0 -0.00000000000E+00 -0.00000000000E+00 -0.18250000000E+03  0.18250000000E+03  0.00000000000E+00 0. -1.
        -11    1    1    2    0    0  0.13817192491E+01  0.27734987727E+01  0.17804871152E+03  0.17807567245E+03  0.00000000000E+00 0. -1.
         11    1    1    2    0    0  0.27784288877E+01 -0.10947253331E+02 -0.15254042904E+03  0.15295798284E+03  0.00000000000E+00 0. -1.
        -15    1    1    2    0    0 -0.15360278030E+01  0.42526717600E+01 -0.27946778370E+02  0.28365908213E+02  0.17770000000E+01 0. -1.
         15    1    1    2    0    0 -0.26241203339E+01  0.39210827979E+01  0.24384958843E+01  0.56004365020E+01  0.17770000000E+01 0.  1.
</event>
<event>
 6    1  0.1108180E-002  0.1831982E+03  0.7546771E-02  0.1067900E+00
        -11   -1    0    0    0    0  0.00000000000E+00  0.00000000000E+00  0.18250000000E+03  0.18250000000E+03  0.00000000000E+00 0. -1.
         11   -1    0    0    0    0 -0.00000000000E+00 -0.00000000000E+00 -0.18250000000E+03  0.18250000000E+03  0.00000000000E+00 0.  1.
        -11    1    1    2    0    0 -0.23541729306E+01 -0.15472850928E+01  0.16165983708E+03  0.16168438127E+03  0.00000000000E+00 0. -1.
         11    1    1    2    0    0  0.28313545600E+01  0.10793641068E+01 -0.18177652161E+03  0.18180177503E+03  0.00000000000E+00 0.  1.
        -15    1    1    2    0    0  0.17918322521E+01  0.32099925342E+00  0.17283643496E+02  0.17469853028E+02  0.17770000000E+01 0.  1.
         15    1    1    2    0    0 -0.22690138816E+01  0.14692173260E+00  0.28330410351E+01  0.40439906648E+01  0.17770000000E+01 0.  1.
</event>
<event>
 6    1  0.1108180E-002  0.1832037E+03  0.7546771E-02  0.1067896E+00
        -11   -1    0    0    0    0  0.00000000000E+00  0.00000000000E+00  0.18250000000E+03  0.18250000000E+03  0.00000000000E+00 0.  1.
         11   -1    0    0    0    0 -0.00000000000E+00 -0.00000000000E+00 -0.18250000000E+03  0.18250000000E+03  0.00000000000E+00 0.  1.
        -11    1    1    2    0    0 -0.16154343736E+01  0.17196029618E+01  0.15894755336E+03  0.15896506340E+03  0.00000000000E+00 0.  1.
         11    1    1    2    0    0 -0.16127248523E+01  0.18943095719E+01 -0.18177931116E+03  0.18179633455E+03  0.00000000000E+00 0.  1.
        -15    1    1    2    0    0  0.72242595693E+00 -0.89641154348E+00  0.16869783577E+02  0.17002140449E+02  0.17770000000E+01 0.  1.
         15    1    1    2    0    0  0.25057332690E+01 -0.27175009902E+01  0.59619742212E+01  0.72364615981E+01  0.17770000000E+01 0.  1.
</event>
<event>
 6    1  0.1108180E-002  0.1835184E+03  0.7546771E-02  0.1067647E+00
        -11   -1    0    0    0    0  0.00000000000E+00  0.00000000000E+00  0.18250000000E+03  0.18250000000E+03  0.00000000000E+00 0. -1.
         11   -1    0    0    0    0 -0.00000000000E+00 -0.00000000000E+00 -0.18250000000E+03  0.18250000000E+03  0.00000000000E+00 0. -1.
        -11    1    1    2    0    0 -0.68173093138E+01 -0.19205371852E+01  0.18134338573E+03  0.18148164568E+03  0.00000000000E+00 0. -1.
         11    1    1    2    0    0  0.43843470034E+01 -0.27774640284E+01 -0.14849039586E+03  0.14858107036E+03  0.00000000000E+00 0. -1.
        -15    1    1    2    0    0  0.41785387025E+01  0.32189016346E+01 -0.31005999772E+02  0.31501607328E+02  0.17770000000E+01 0.  1.
         15    1    1    2    0    0 -0.17455763922E+01  0.14790995790E+01 -0.18469901019E+01  0.34356766352E+01  0.17770000000E+01 0. -1.
</event>
<event>
 6    1  0.1108180E-002  0.1888910E+03  0.7546771E-02  0.1063478E+00
        -11   -1    0    0    0    0  0.00000000000E+00  0.00000000000E+00  0.18250000000E+03  0.18250000000E+03  0.00000000000E+00 0.  1.
         11   -1    0    0    0    0 -0.00000000000E+00 -0.00000000000E+00 -0.18250000000E+03  0.18250000000E+03  0.00000000000E+00 0. -1.
        -11    1    1    2    0    0 -0.23171943683E+01  0.53370228553E+00  0.16151538703E+03  0.16153288977E+03  0.00000000000E+00 0.  1.
         11    1    1    2    0    0 -0.69184006862E+00  0.43706989933E+01 -0.17605342545E+03  0.17610902948E+03  0.00000000000E+00 0. -1.
        -15    1    1    2    0    0  0.68887602739E-01 -0.79226259238E+01 -0.34320285010E+01  0.88152876109E+01  0.17770000000E+01 0.  1.
         15    1    1    2    0    0  0.29401468342E+01  0.30182246450E+01  0.17970066919E+02  0.18542793141E+02  0.17770000000E+01 0. -1.
</event>
<event>
 6    1  0.1108180E-002  0.1827123E+03  0.7546771E-02  0.1068286E+00
        -11   -1    0    0    0    0  0.00000000000E+00  0.00000000000E+00  0.18250000000E+03  0.18250000000E+03  0.00000000000E+00 0.  1.
         11   -1    0    0    0    0 -0.00000000000E+00 -0.00000000000E+00 -0.18250000000E+03  0.18250000000E+03  0.00000000000E+00 0. -1.
        -11    1    1    2    0    0  0.35728493689E+01 -0.48523341137E+00  0.18225206051E+03  0.18228772385E+03  0.00000000000E+00 0.  1.
         11    1    1    2    0    0  0.13941592651E+01  0.16193849137E+01 -0.13141069382E+03  0.13142806602E+03  0.00000000000E+00 0. -1.
        -15    1    1    2    0    0 -0.98339588479E+00  0.38146729086E+00 -0.18442449481E+02  0.18557862394E+02  0.17770000000E+01 0. -1.
         15    1    1    2    0    0 -0.39836127492E+01 -0.15156187932E+01 -0.32398917213E+02  0.32726347740E+02  0.17770000000E+01 0. -1.
</event>
<event>
 6    1  0.1108180E-002  0.1836561E+03  0.7546771E-02  0.1067538E+00
        -11   -1    0    0    0    0  0.00000000000E+00  0.00000000000E+00  0.18250000000E+03  0.18250000000E+03  0.00000000000E+00 0. -1.
         11   -1    0    0    0    0 -0.00000000000E+00 -0.00000000000E+00 -0.18250000000E+03  0.18250000000E+03  0.00000000000E+00 0. -1.
        -11    1    1    2    0    0 -0.78264911553E+01 -0.15993167948E+01  0.11080441121E+03  0.11109198586E+03  0.00000000000E+00 0. -1.
         11    1    1    2    0    0 -0.18633791594E+01  0.93277577983E+01 -0.18109430828E+03  0.18134394872E+03  0.00000000000E+00 0. -1.
        -15    1    1    2    0    0  0.37386284332E+01  0.28014864625E+01  0.31476711177E+02  0.31871095753E+02  0.17770000000E+01 0.  1.
         15    1    1    2    0    0  0.59512418815E+01 -0.10529927466E+02  0.38813185889E+02  0.40692969666E+02  0.17770000000E+01 0. -1.
</event>
<event>
 6    1  0.1108180E-002  0.1839453E+03  0.7546771E-02  0.1067310E+00
        -11   -1    0    0    0    0  0.00000000000E+00  0.00000000000E+00  0.18250000000E+03  0.18250000000E+03  0.00000000000E+00 0.  1.
         11   -1    0    0    0    0 -0.00000000000E+00 -0.00000000000E+00 -0.18250000000E+03  0.18250000000E+03  0.00000000000E+00 0. -1.
        -11    1    1    2    0    0 -0.15372941815E+00 -0.25192355601E+01  0.16694931492E+03  0.16696839202E+03  0.00000000000E+00 0.  1.
         11    1    1    2    0    0 -0.28181339387E+01  0.54239709715E+01 -0.18095154062E+03  0.18105474695E+03  0.00000000000E+00 0. -1.
        -15    1    1    2    0    0  0.31289532864E+01 -0.51162090925E+01  0.68248488957E+01  0.92575501941E+01  0.17770000000E+01 0. -1.
         15    1    1    2    0    0 -0.15708992956E+00  0.22114736811E+01  0.71773768028E+01  0.77193108409E+01  0.17770000000E+01 0. -1.
</event>
<event>
 6    1  0.1108180E-002  0.2159538E+03  0.7546771E-02  0.1044562E+00
        -11   -1    0    0    0    0  0.00000000000E+00  0.00000000000E+00  0.18250000000E+03  0.18250000000E+03  0.00000000000E+00 0.  1.
         11   -1    0    0    0    0 -0.00000000000E+00 -0.00000000000E+00 -0.18250000000E+03  0.18250000000E+03  0.00000000000E+00 0. -1.
        -11    1    1    2    0    0 -0.59068836308E+01  0.57700708544E+01  0.10321972366E+03  0.10354948741E+03  0.00000000000E+00 0.  1.
         11    1    1    2    0    0  0.19604791774E+01  0.16994359609E+01 -0.14902356769E+03  0.14904615154E+03  0.00000000000E+00 0. -1.
        -15    1    1    2    0    0  0.72876900792E+01 -0.30379553462E+01  0.78639874545E+02  0.79055216127E+02  0.17770000000E+01 0.  1.
         15    1    1    2    0    0 -0.33412856258E+01 -0.44315514691E+01 -0.32836030516E+02  0.33349144923E+02  0.17770000000E+01 0. -1.
</event>
<event>
 6    1  0.1108180E-002  0.1864337E+03  0.7546771E-02  0.1065366E+00
        -11   -1    0    0    0    0  0.00000000000E+00  0.00000000000E+00  0.18250000000E+03  0.18250000000E+03  0.00000000000E+00 0. -1.
         11   -1    0    0    0    0 -0.00000000000E+00 -0.00000000000E+00 -0.18250000000E+03  0.18250000000E+03  0.00000000000E+00 0.  1.
        -11    1    1    2    0    0 -0.39043812138E+01 -0.33215146694E+01  0.17325300412E+03  0.17332882071E+03  0.00000000000E+00 0. -1.
         11    1    1    2    0    0  0.40626056000E+01  0.15636647471E+01 -0.17851323221E+03  0.17856630109E+03  0.00000000000E+00 0.  1.
        -15    1    1    2    0    0 -0.39387460150E+01 -0.22204864324E+01 -0.58399973794E+00  0.48931651169E+01  0.17770000000E+01 0. -1.
         15    1    1    2    0    0  0.37805216288E+01  0.39783363547E+01  0.58442278267E+01  0.82117130873E+01  0.17770000000E+01 0.  1.
</event>
<event>
 6    1  0.1108180E-002  0.1770317E+03  0.7546771E-02  0.1072893E+00
        -11   -1    0    0    0    0  0.00000000000E+00  0.00000000000E+00  0.18250000000E+03  0.18250000000E+03  0.00000000000E+00 0. -1.
         11   -1    0    0    0    0 -0.00000000000E+00 -0.00000000000E+00 -0.18250000000E+03  0.18250000000E+03  0.00000000000E+00 0.  1.
        -11    1    1    2    0    0  0.33427670695E+00 -0.33608960928E+01  0.17545329025E+03  0.17548579551E+03  0.00000000000E+00 0. -1.
         11    1    1    2    0    0  0.46964477661E+01 -0.18732481029E+01 -0.17859446572E+03  0.17866602606E+03  0.00000000000E+00 0.  1.
        -15    1    1    2    0    0 -0.34692339494E+01  0.29332930277E+01 -0.15446343581E+01  0.51169733713E+01  0.17770000000E+01 0. -1.
         15    1    1    2    0    0 -0.15614905236E+01  0.23008511679E+01  0.46858098286E+01  0.57312050655E+01  0.17770000000E+01 0. -1.
</event>
<event>
 6    1  0.1108180E-002  0.1829799E+03  0.7546771E-02  0.1068073E+00
        -11   -1    0    0    0    0  0.00000000000E+00  0.00000000000E+00  0.18250000000E+03  0.18250000000E+03  0.00000000000E+00 0. -1.
         11   -1    0    0    0    0 -0.00000000000E+00 -0.00000000000E+00 -0.18250000000E+03  0.18250000000E+03  0.00000000000E+00 0. -1.
        -11    1    1    2    0    0  0.57964430112E+01 -0.14359936635E+01  0.18192210477E+03  0.18202008964E+03  0.00000000000E+00 0. -1.
         11    1    1    2    0    0 -0.45704866926E+00 -0.22312459889E+01 -0.12317291344E+03  0.12319396883E+03  0.00000000000E+00 0. -1.
        -15    1    1    2    0    0 -0.21395089149E+01 -0.26014923881E+01 -0.21877167860E+02  0.22206158237E+02  0.17770000000E+01 0. -1.
         15    1    1    2    0    0 -0.31998854271E+01  0.62687320404E+01 -0.36872023470E+02  0.37579783287E+02  0.17770000000E+01 0.  1.
</event>
<event>
 6    1  0.1108180E-002  0.1836295E+03  0.7546771E-02  0.1067559E+00
        -11   -1    0    0    0    0  0.00000000000E+00  0.00000000000E+00  0.18250000000E+03  0.18250000000E+03  0.00000000000E+00 0. -1.
         11   -1    0    0    0    0 -0.00000000000E+00 -0.00000000000E+00 -0.18250000000E+03  0.18250000000E+03  0.00000000000E+00 0.  1.
        -11    1    1    2    0    0 -0.22846473303E+00  0.40855362840E+01  0.12200989321E+03  0.12207849051E+03  0.00000000000E+00 0. -1.
         11    1    1    2    0    0  0.68058749012E+01  0.12412374934E+01 -0.18123846089E+03  0.18137045049E+03  0.00000000000E+00 0.  1.
        -15    1    1    2    0    0  0.12246966992E+01 -0.37830105257E+01  0.46643325878E+01  0.63815968324E+01  0.17770000000E+01 0. -1.
         15    1    1    2    0    0 -0.78021068674E+01 -0.15437632517E+01  0.54564235089E+02  0.55169462173E+02  0.17770000000E+01 0.  1.
</event>
<event>
 6    1  0.1108180E-002  0.1908944E+03  0.7546771E-02  0.1061963E+00
        -11   -1    0    0    0    0  0.00000000000E+00  0.00000000000E+00  0.18250000000E+03  0.18250000000E+03  0.00000000000E+00 0.  1.
         11   -1    0    0    0    0 -0.00000000000E+00 -0.00000000000E+00 -0.18250000000E+03  0.18250000000E+03  0.00000000000E+00 0. -1.
        -11    1    1    2    0    0  0.90314210059E+00 -0.67759130676E+01  0.17397134985E+03  0.17410559794E+03  0.00000000000E+00 0.  1.
         11    1    1    2    0    0  0.25541471356E+01 -0.16329267549E+01 -0.14729990446E+03  0.14733109642E+03  0.00000000000E+00 0. -1.
        -15    1    1    2    0    0 -0.47739593704E+01 -0.32977900031E+01 -0.30462444140E+02  0.31060977752E+02  0.17770000000E+01 0. -1.
         15    1    1    2    0    0  0.13166701342E+01  0.11706629826E+02  0.37909987517E+01  0.12502327889E+02  0.17770000000E+01 0.  1.
</event>
<event>
 6    1  0.1108180E-002  0.1900304E+03  0.7546771E-02  0.1062614E+00
        -11   -1    0    0    0    0  0.00000000000E+00  0.00000000000E+00  0.18250000000E+03  0.18250000000E+03  0.00000000000E+00 0. -1.
         11   -1    0    0    0    0 -0.00000000000E+00 -0.00000000000E+00 -0.18250000000E+03  0.18250000000E+03  0.00000000000E+00 0.  1.
        -11    1    1    2    0    0 -0.80863177157E+00  0.57084123478E+01  0.15746803991E+03  0.15757354934E+03  0.00000000000E+00 0. -1.
         11    1    1    2    0    0  0.60734377109E+01 -0.21085866741E+00 -0.17486405393E+03  0.17496962155E+03  0.00000000000E+00 0.  1.
        -15    1    1    2    0    0  0.14700657807E+01 -0.18750415508E+01  0.22756843141E+02  0.22950131001E+02  0.17770000000E+01 0.  1.
         15    1    1    2    0    0 -0.67348717201E+01 -0.36225121296E+01 -0.53608291200E+01  0.95066981160E+01  0.17770000000E+01 0. -1.
</event>
<event>
 6    1  0.1108180E-002  0.1828446E+03  0.7546771E-02  0.1068181E+00
        -11   -1    0    0    0    0  0.00000000000E+00  0.00000000000E+00  0.18250000000E+03  0.18250000000E+03  0.00000000000E+00 0.  1.
         11   -1    0    0    0    0 -0.00000000000E+00 -0.00000000000E+00 -0.18250000000E+03  0.18250000000E+03  0.00000000000E+00 0. -1.
        -11    1    1    2    0    0  0.50190495833E+01 -0.24451244895E+01  0.18206986995E+03  0.18215544745E+03  0.00000000000E+00 0.  1.
         11    1    1    2    0    0  0.21096155956E+01 -0.15488518754E+01 -0.29535607551E+02  0.29651332744E+02  0.00000000000E+00 0. -1.
        -15    1    1    2    0    0 -0.54504470855E+01  0.50340752008E+00 -0.13590091321E+03  0.13602270668E+03  0.17770000000E+01 0. -1.
         15    1    1    2    0    0 -0.16782180934E+01  0.34905688447E+01 -0.16633349188E+02  0.17170513127E+02  0.17770000000E+01 0.  1.
</event>
<event>
 6    1  0.1108180E-002  0.1828603E+03  0.7546771E-02  0.1068168E+00
        -11   -1    0    0    0    0  0.00000000000E+00  0.00000000000E+00  0.18250000000E+03  0.18250000000E+03  0.00000000000E+00 0. -1.
         11   -1    0    0    0    0 -0.00000000000E+00 -0.00000000000E+00 -0.18250000000E+03  0.18250000000E+03  0.00000000000E+00 0.  1.
        -11    1    1    2    0    0 -0.85190982434E+00  0.18791329482E+01  0.14108565652E+03  0.14110074190E+03  0.00000000000E+00 0. -1.
         11    1    1    2    0    0 -0.33518481787E+01 -0.17662354994E+01 -0.18210033531E+03  0.18213974468E+03  0.00000000000E+00 0.  1.
        -15    1    1    2    0    0  0.14244322592E+00  0.15503351305E+01  0.63929661034E+01  0.68155391341E+01  0.17770000000E+01 0. -1.
         15    1    1    2    0    0  0.40613147771E+01 -0.16632325793E+01  0.34621712686E+02  0.34943974283E+02  0.17770000000E+01 0.  1.
</event>
<event>
 6    1  0.1108180E-002  0.2082990E+03  0.7546771E-02  0.1049593E+00
        -11   -1    0    0    0    0  0.00000000000E+00  0.00000000000E+00  0.18250000000E+03  0.18250000000E+03  0.00000000000E+00 0. -1.
         11   -1    0    0    0    0 -0.00000000000E+00 -0.00000000000E+00 -0.18250000000E+03  0.18250000000E+03  0.00000000000E+00 0.  1.
        -11    1    1    2    0    0  0.81963145940E+01  0.79591550004E+01  0.15628394223E+03  0.15670098379E+03  0.00000000000E+00 0. -1.
         11    1    1    2    0    0 -0.22241956327E+01 -0.25321265838E+01 -0.14099355416E+03  0.14103382937E+03  0.00000000000E+00 0.  1.
        -15    1    1    2    0    0 -0.98197851325E+01 -0.92438354547E+01  0.23987164861E+02  0.27575686411E+02  0.17770000000E+01 0. -1.
         15    1    1    2    0    0  0.38476661712E+01  0.38168070381E+01 -0.39277552932E+02  0.39689500428E+02  0.17770000000E+01 0.  1.
</event>
<event>
 6    1  0.1108180E-002  0.1830490E+03  0.7546771E-02  0.1068019E+00
        -11   -1    0    0    0    0  0.00000000000E+00  0.00000000000E+00  0.18250000000E+03  0.18250000000E+03  0.00000000000E+00 0.  1.
         11   -1    0    0    0    0 -0.00000000000E+00 -0.00000000000E+00 -0.18250000000E+03  0.18250000000E+03  0.00000000000E+00 0.  1.
        -11    1    1    2    0    0  0.28489129603E+01 -0.20752354798E+00  0.18192857579E+03  0.18195099906E+03  0.00000000000E+00 0.  1.
         11    1    1    2    0    0 -0.32586103085E+01  0.16419647127E+01 -0.16721102209E+03  0.16725083108E+03  0.00000000000E+00 0.  1.
        -15    1    1    2    0    0  0.12355011451E+01 -0.19104063542E+01 -0.12374954337E+02  0.12707216035E+02  0.17770000000E+01 0.  1.
         15    1    1    2    0    0 -0.82580379694E+00  0.47596518943E+00 -0.23425993633E+01  0.30909538252E+01  0.17770000000E+01 0. -1.
</event>
<event>
 6    1  0.1108180E-002  0.1834857E+03  0.7546771E-02  0.1067673E+00
        -11   -1    0    0    0    0  0.00000000000E+00  0.00000000000E+00  0.18250000000E+03  0.18250000000E+03  0.00000000000E+00 0. -1.
         11   -1    0    0    0    0 -0.00000000000E+00 -0.00000000000E+00 -0.18250000000E+03  0.18250000000E+03  0.00000000000E+00 0.  1.
        -11    1    1    2    0    0 -0.52485643613E+00  0.44809998345E+01  0.18145825855E+03  0.18151433671E+03  0.00000000000E+00 0. -1.
         11    1    1    2    0    0 -0.26441885288E+01 -0.41985593365E+00 -0.13251962952E+03  0.13254667185E+03  0.00000000000E+00 0.  1.
        -15    1    1    2    0    0 -0.29900190217E+01 -0.31227382203E+01 -0.64859254753E+01  0.79947899293E+01  0.17770000000E+01 0. -1.
         15    1    1    2    0    0  0.61590639866E+01 -0.93840568056E+00 -0.42452703560E+02  0.42944201506E+02  0.17770000000E+01 0.  1.
</event>
<event>
 6    1  0.1108180E-002  0.1846406E+03  0.7546771E-02  0.1066764E+00
        -11   -1    0    0    0    0  0.00000000000E+00  0.00000000000E+00  0.18250000000E+03  0.18250000000E+03  0.00000000000E+00 0.  1.
         11   -1    0    0    0    0 -0.00000000000E+00 -0.00000000000E+00 -0.18250000000E+03  0.18250000000E+03  0.00000000000E+00 0. -1.
        -11    1    1    2    0    0  0.87251301745E+00 -0.34520240162E+01  0.18032429376E+03  0.18035944297E+03  0.00000000000E+00 0.  1.
         11    1    1    2    0    0  0.31472089470E+01 -0.14980945284E+01 -0.11584034804E+03  0.11589277564E+03  0.00000000000E+00 0. -1.
        -15    1    1    2    0    0  0.31108232371E+01  0.53707655547E+01 -0.59521382362E+02  0.59870485476E+02  0.17770000000E+01 0.  1.
         15    1    1    2    0    0 -0.71305452015E+01 -0.42064701016E+00 -0.49625633548E+01  0.88772959187E+01  0.17770000000E+01 0. -1.
</event>
<event>
 6    1  0.1108180E-002  0.1850500E+03  0.7546771E-02  0.1066443E+00
        -11   -1    0    0    0    0  0.00000000000E+00  0.00000000000E+00  0.18250000000E+03  0.18250000000E+03  0.00000000000E+00 0.  1.
         11   -1    0    0    0    0 -0.00000000000E+00 -0.00000000000E+00 -0.18250000000E+03  0.18250000000E+03  0.00000000000E+00 0. -1.
        -11    1    1    2    0    0 -0.53634043736E+00 -0.28685061001E+01  0.17992633232E+03  0.17994999597E+03  0.00000000000E+00 0.  1.
         11    1    1    2    0    0  0.42866654240E+00 -0.22254928588E+01 -0.16541239551E+03  0.16542792135E+03  0.00000000000E+00 0. -1.
        -15    1    1    2    0    0  0.40175168457E+01  0.37240902805E+01 -0.13933717506E+02  0.15076985858E+02  0.17770000000E+01 0. -1.
         15    1    1    2    0    0 -0.39098429507E+01  0.13699086783E+01 -0.58021930173E+00  0.45450968223E+01  0.17770000000E+01 0.  1.
</event>
<event>
 6    1  0.1108180E-002  0.2026736E+03  0.7546771E-02  0.1053442E+00
        -11   -1    0    0    0    0  0.00000000000E+00  0.00000000000E+00  0.18250000000E+03  0.18250000000E+03  0.00000000000E+00 0.  1.
         11   -1    0    0    0    0 -0.00000000000E+00 -0.00000000000E+00 -0.18250000000E+03  0.18250000000E+03  0.00000000000E+00 0. -1.
        -11    1    1    2    0    0  0.28292289965E+01 -0.96713133364E+01  0.16201334823E+03  0.16232641142E+03  0.00000000000E+00 0.  1.
         11    1    1    2    0    0  0.39895473319E+01 -0.18847184314E+01 -0.14987390738E+03  0.14993884342E+03  0.00000000000E+00 0. -1.
        -15    1    1    2    0    0 -0.26543461824E+02  0.13649133703E+02 -0.13430874309E+02  0.32778046466E+02  0.17770000000E+01 0. -1.
         15    1    1    2    0    0  0.19724685496E+02 -0.20931019347E+01  0.12914334616E+01  0.19956698700E+02  0.17770000000E+01 0.  1.
</event>
<event>
 6    1  0.1108180E-002  0.1887042E+03  0.7546771E-02  0.1063621E+00
        -11   -1    0    0    0    0  0.00000000000E+00  0.00000000000E+00  0.18250000000E+03  0.18250000000E+03  0.00000000000E+00 0.  1.
         11   -1    0    0    0    0 -0.00000000000E+00 -0.00000000000E+00 -0.18250000000E+03  0.18250000000E+03  0.00000000000E+00 0.  1.
        -11    1    1    2    0    0  0.45695647164E+01 -0.72260383840E+01  0.14369801342E+03  0.14395212959E+03  0.00000000000E+00 0.  1.
         11    1    1    2    0    0 -0.14211062491E+01 -0.23394161790E+01 -0.17627450578E+03  0.17629575661E+03  0.00000000000E+00 0.  1.
        -15    1    1    2    0    0 -0.37457095114E+01  0.11563788335E+02  0.37311329302E+02  0.39281605921E+02  0.17770000000E+01 0.  1.
         15    1    1    2    0    0  0.59725104409E+00 -0.19983337716E+01 -0.47348369435E+01  0.54705078881E+01  0.17770000000E+01 0. -1.
</event>
<event>
 6    1  0.1108180E-002  0.1830361E+03  0.7546771E-02  0.1068029E+00
        -11   -1    0    0    0    0  0.00000000000E+00  0.00000000000E+00  0.18250000000E+03  0.18250000000E+03  0.00000000000E+00 0.  1.
         11   -1    0    0    0    0 -0.00000000000E+00 -0.00000000000E+00 -0.18250000000E+03  0.18250000000E+03  0.00000000000E+00 0. -1.
        -11    1    1    2    0    0  0.31191539934E+01  0.19694360624E+01  0.15351007208E+03  0.15355438786E+03  0.00000000000E+00 0.  1.
         11    1    1    2    0    0 -0.31009773289E+01 -0.99190006888E+00 -0.18193477497E+03  0.18196390375E+03  0.00000000000E+00 0. -1.
        -15    1    1    2    0    0 -0.30307659001E+01 -0.21640154643E+01  0.14537506505E+02  0.15111761289E+02  0.17770000000E+01 0.  1.
         15    1    1    2    0    0  0.30125892356E+01  0.11864794708E+01  0.13887196379E+02  0.14369947102E+02  0.17770000000E+01 0. -1.
</event>
<event>
 6    1  0.1108180E-002  0.1828536E+03  0.7546771E-02  0.1068174E+00
        -11   -1    0    0    0    0  0.00000000000E+00  0.00000000000E+00  0.18250000000E+03  0.18250000000E+03  0.00000000000E+00 0. -1.
         11   -1    0    0    0    0 -0.00000000000E+00 -0.00000000000E+00 -0.18250000000E+03  0.18250000000E+03  0.00000000000E+00 0.  1.
        -11    1    1    2    0    0 -0.15009819964E+01 -0.33202726207E+01  0.18210992092E+03  0.18214637096E+03  0.00000000000E+00 0. -1.
         11    1    1    2    0    0  0.71512342671E+00  0.16308364156E+00 -0.52044612833E+02  0.52049781198E+02  0.00000000000E+00 0.  1.
        -15    1    1    2    0    0  0.67053318216E+01  0.17773805459E+00 -0.58380613355E+02  0.58791553903E+02  0.17770000000E+01 0. -1.
         15    1    1    2    0    0 -0.59194732520E+01  0.29794509246E+01 -0.71684694728E+02  0.72012293941E+02  0.17770000000E+01 0.  1.
</event>
<event>
 6    1  0.1108180E-002  0.1845139E+03  0.7546771E-02  0.1066863E+00
        -11   -1    0    0    0    0  0.00000000000E+00  0.00000000000E+00  0.18250000000E+03  0.18250000000E+03  0.00000000000E+00 0.  1.
         11   -1    0    0    0    0 -0.00000000000E+00 -0.00000000000E+00 -0.18250000000E+03  0.18250000000E+03  0.00000000000E+00 0.  1.
        -11    1    1    2    0    0 -0.50313937301E+01 -0.79403297765E+00  0.18041421219E+03  0.18048610299E+03  0.00000000000E+00 0.  1.
         11    1    1    2    0    0  0.20914594300E+01 -0.66014054882E+01 -0.16450925249E+03  0.16465493285E+03  0.00000000000E+00 0.  1.
        -15    1    1    2    0    0  0.54765873609E+01  0.44551892654E+01 -0.76233437674E+01  0.10541101447E+02  0.17770000000E+01 0. -1.
         15    1    1    2    0    0 -0.25366530609E+01  0.29402492005E+01 -0.82816159336E+01  0.93178627154E+01  0.17770000000E+01 0.  1.
</event>
<event>
 6    1  0.1108180E-002  0.1860534E+03  0.7546771E-02  0.1065661E+00
        -11   -1    0    0    0    0  0.00000000000E+00  0.00000000000E+00  0.18250000000E+03  0.18250000000E+03  0.00000000000E+00 0. -1.
         11   -1    0    0    0    0 -0.00000000000E+00 -0.00000000000E+00 -0.18250000000E+03  0.18250000000E+03  0.00000000000E+00 0. -1.
        -11    1    1    2    0    0  0.16161318302E+00  0.34117262590E+01  0.17268390375E+03  0.17271767891E+03  0.00000000000E+00 0. -1.
         11    1    1    2    0    0  0.11019112021E+01  0.59510559730E+01 -0.17884418973E+03  0.17894656598E+03  0.00000000000E+00 0. -1.
        -15    1    1    2    0    0  0.10162631997E+01 -0.31978558779E+01 -0.47734203124E+00  0.38268338769E+01  0.17770000000E+01 0. -1.
         15    1    1    2    0    0 -0.22797875848E+01 -0.61649263541E+01  0.66376280089E+01  0.95089212305E+01  0.17770000000E+01 0.  1.
</event>
<event>
 6    1  0.1108180E-002  0.1826593E+03  0.7546771E-02  0.1068328E+00
        -11   -1    0    0    0    0  0.00000000000E+00  0.00000000000E+00  0.18250000000E+03  0.18250000000E+03  0.00000000000E+00 0. -1.
         11   -1    0    0    0    0 -0.00000000000E+00 -0.00000000000E+00 -0.18250000000E+03  0.18250000000E+03  0.00000000000E+00 0.  1.
        -11    1    1    2    0    0 -0.72154915207E+00 -0.29398194634E+01  0.47058488936E+02  0.47155747822E+02  0.00000000000E+00 0. -1.
         11    1    1    2    0    0 -0.32812377877E+01  0.92822237591E+00 -0.18230876924E+03  0.18234065773E+03  0.00000000000E+00 0.  1.
        -15    1    1    2    0    0  0.22952433869E+01  0.32781739328E+01  0.45414555512E+02  0.45625148195E+02  0.17770000000E+01 0.  1.
         15    1    1    2    0    0  0.17075435529E+01 -0.12665768453E+01  0.89835724797E+02  0.89878446252E+02  0.17770000000E+01 0. -1.
</event>
<event>
 6    1  0.1108180E-002  0.1749064E+03  0.7546771E-02  0.1074665E+00
        -11   -1    0    0    0    0  0.00000000000E+00  0.00000000000E+00  0.18250000000E+03  0.18250000000E+03  0.00000000000E+00 0.  1.
         11   -1    0    0    0    0 -0.00000000000E+00 -0.00000000000E+00 -0.18250000000E+03  0.18250000000E+03  0.00000000000E+00 0.  1.
        -11    1    1    2    0    0  0.20457483365E+01 -0.33221383122E+01  0.17712642877E+03  0.17716939199E+03  0.00000000000E+00 0.  1.
         11    1    1    2    0    0  0.13139598789E+01 -0.51540207471E+01 -0.17270814961E+03  0.17279003259E+03  0.00000000000E+00 0.  1.
        -15    1    1    2    0    0 -0.10256432149E+00  0.99737487867E+01 -0.43841754152E+01  0.11039243967E+02  0.17770000000E+01 0. -1.
         15    1    1    2    0    0 -0.32571438939E+01 -0.14975897274E+01 -0.34103740047E-01  0.40013314537E+01  0.17770000000E+01 0.  1.
</event>
<event>
 6    1  0.1108180E-002  0.1841778E+03  0.7546771E-02  0.1067127E+00
        -11   -1    0    0    0    0  0.00000000000E+00  0.00000000000E+00  0.18250000000E+03  0.18250000000E+03  0.00000000000E+00 0. -1.
         11   -1    0    0    0    0 -0.00000000000E+00 -0.00000000000E+00 -0.18250000000E+03  0.18250000000E+03  0.00000000000E+00 0.  1.
        -11    1    1    2    0    0 -0.89780383999E+00  0.22905512255E+01  0.18080546944E+03  0.18082220675E+03  0.00000000000E+00 0. -1.
         11    1    1    2    0    0 -0.11925897394E+01 -0.21576864734E+01 -0.16870755524E+03  0.16872556734E+03  0.00000000000E+00 0.  1.
        -15    1    1    2    0    0  0.28037810609E-01  0.22072457546E+01 -0.11461192328E+02  0.11806327902E+02  0.17770000000E+01 0. -1.
         15    1    1    2    0    0  0.20623557688E+01 -0.23401105068E+01 -0.63672187501E+00  0.36458980028E+01  0.17770000000E+01 0. -1.
</event>
<event>
 6    1  0.1108180E-002  0.1834366E+03  0.7546771E-02  0.1067712E+00
        -11   -1    0    0    0    0  0.00000000000E+00  0.00000000000E+00  0.18250000000E+03  0.18250000000E+03  0.00000000000E+00 0. -1.
         11   -1    0    0    0    0 -0.00000000000E+00 -0.00000000000E+00 -0.18250000000E+03  0.18250000000E+03  0.00000000000E+00 0.  1.
        -11    1    1    2    0    0 -0.25389228258E+01 -0.41192758147E+00  0.16737916435E+03  0.16739892614E+03  0.00000000000E+00 0. -1.
         11    1    1    2    0    0  0.19374974378E+01  0.22169242600E+01 -0.18153949427E+03  0.18156336809E+03  0.00000000000E+00 0.  1.
        -15    1    1    2    0    0  0.33897261575E+01 -0.10714879940E+01  0.59397727065E+01  0.71468145876E+01  0.17770000000E+01 0. -1.
         15    1    1    2    0    0 -0.27883007695E+01 -0.73350868455E+00  0.82205572160E+01  0.88908911878E+01  0.17770000000E+01 0.  1.
</event>
<event>
 6    1  0.1108180E-002  0.1850570E+03  0.7546771E-02  0.1066437E+00
        -11   -1    0    0    0    0  0.00000000000E+00  0.00000000000E+00  0.18250000000E+03  0.18250000000E+03  0.00000000000E+00 0.  1.
         11   -1    0    0    0    0 -0.00000000000E+00 -0.00000000000E+00 -0.18250000000E+03  0.18250000000E+03  0.00000000000E+00 0. -1.
        -11    1    1    2    0    0  0.18665459137E+01 -0.26020194907E+01  0.17441824067E+03  0.17444763449E+03  0.00000000000E+00 0.  1.
         11    1    1    2    0    0 -0.11263767337E+01 -0.23497567234E+01 -0.17992409892E+03  0.17994296722E+03  0.00000000000E+00 0. -1.
        -15    1    1    2    0    0  0.31720272941E+00 -0.12576135541E+01  0.24722507167E+00  0.22138334759E+01  0.17770000000E+01 0. -1.
         15    1    1    2    0    0 -0.10573719094E+01  0.62093897682E+01  0.52586331743E+01  0.83955648119E+01  0.17770000000E+01 0. -1.
</event>
<event>
 6    1  0.1108180E-002  0.1914500E+03  0.7546771E-02  0.1061546E+00
        -11   -1    0    0    0    0  0.00000000000E+00  0.00000000000E+00  0.18250000000E+03  0.18250000000E+03  0.00000000000E+00 0.  1.
         11   -1    0    0    0    0 -0.00000000000E+00 -0.00000000000E+00 -0.18250000000E+03  0.18250000000E+03  0.00000000000E+00 0. -1.
        -11    1    1    2    0    0  0.26753626299E+01 -0.22619843374E+01  0.14862100529E+03  0.14866229298E+03  0.00000000000E+00 0.  1.
         11    1    1    2    0    0 -0.17678458497E+02 -0.71062614472E+01 -0.17250098938E+03  0.17355004519E+03  0.00000000000E+00 0. -1.
        -15    1    1    2    0    0 -0.66081491904E+01 -0.41970472111E+00  0.16517177378E+02  0.17883474643E+02  0.17770000000E+01 0.  1.
         15    1    1    2    0    0  0.21611245058E+02  0.97879505057E+01  0.73628067108E+01  0.24904187192E+02  0.17770000000E+01 0. -1.
</event>
<event>
 6    1  0.1108180E-002  0.1833077E+03  0.7546771E-02  0.1067814E+00
        -11   -1    0    0    0    0  0.00000000000E+00  0.00000000000E+00  0.18250000000E+03  0.18250000000E+03  0.00000000000E+00 0.  1.
         11   -1    0    0    0    0 -0.00000000000E+00 -0.00000000000E+00 -0.18250000000E+03  0.18250000000E+03  0.00000000000E+00 0. -1.
        -11    1    1    2    0    0  0.28976425483E+01  0.19595314214E+01  0.16462834402E+03  0.16466550261E+03  0.00000000000E+00 0.  1.
         11    1    1    2    0    0 -0.15857983919E+00  0.30059757654E+01 -0.18166738898E+03  0.18169232581E+03  0.00000000000E+00 0. -1.
        -15    1    1    2    0    0 -0.96678875013E+00 -0.32149024843E+01  0.53634654411E+01  0.65722727431E+01  0.17770000000E+01 0.  1.
         15    1    1    2    0    0 -0.17722739590E+01 -0.17506047024E+01  0.11675579521E+02  0.12069898838E+02  0.17770000000E+01 0.  1.
</event>
<event>
 6    1  0.1108180E-002  0.1897212E+03  0.7546771E-02  0.1062848E+00
        -11   -1    0    0    0    0  0.00000000000E+00  0.00000000000E+00  0.18250000000E+03  0.18250000000E+03  0.00000000000E+00 0. -1.
         11   -1    0    0    0    0 -0.00000000000E+00 -0.00000000000E+00 -0.18250000000E+03  0.18250000000E+03  0.00000000000E+00 0.  1.
        -11    1    1    2    0    0 -0.46988172091E+01 -0.64306656665E+01  0.73915106344E+02  0.74342957231E+02  0.00000000000E+00 0. -1.
         11    1    1    2    0    0 -0.67610599067E+01 -0.11119274630E+02 -0.17479500685E+03  0.17527876260E+03  0.00000000000E+00 0.  1.
        -15    1    1    2    0    0  0.12094556528E+02  0.15107712484E+02  0.10687919861E+03  0.10863168092E+03  0.17770000000E+01 0. -1.
         15    1    1    2    0    0 -0.63467941192E+00  0.24422278124E+01 -0.59992981046E+01  0.67465992464E+01  0.17770000000E+01 0.  1.
</event>
<event>
 6    1  0.1108180E-002  0.1682340E+03  0.7546771E-02  0.1080414E+00
        -11   -1    0    0    0    0  0.00000000000E+00  0.00000000000E+00  0.18250000000E+03  0.18250000000E+03  0.00000000000E+00 0. -1.
         11   -1    0    0    0    0 -0.00000000000E+00 -0.00000000000E+00 -0.18250000000E+03  0.18250000000E+03  0.00000000000E+00 0. -1.
        -11    1    1    2    0    0 -0.74764428863E+01 -0.57263354296E+01  0.16903355442E+03  0.16929568995E+03  0.00000000000E+00 0. -1.
         11    1    1    2    0    0 -0.23089986387E+01 -0.13660181588E+01 -0.16737189587E+03  0.16739339595E+03  0.00000000000E+00 0. -1.
        -15    1    1    2    0    0  0.41516505959E+01 -0.93687456804E+01 -0.28434014141E+01  0.10782034080E+02  0.17770000000E+01 0.  1.
         15    1    1    2    0    0  0.56337909291E+01  0.16461099269E+02  0.11817428672E+01  0.17528880015E+02  0.17770000000E+01 0. -1.
</event>
<event>
 6    1  0.1108180E-002  0.1852320E+03  0.7546771E-02  0.1066301E+00
        -11   -1    0    0    0    0  0.00000000000E+00  0.00000000000E+00  0.18250000000E+03  0.18250000000E+03  0.00000000000E+00 0. -1.
         11   -1    0    0    0    0 -0.00000000000E+00 -0.00000000000E+00 -0.18250000000E+03  0.18250000000E+03  0.00000000000E+00 0. -1.
        -11    1    1    2    0    0 -0.33035383747E+01 -0.20271472666E+01  0.14947278995E+03  0.14952303377E+03  0.00000000000E+00 0. -1.
         11    1    1    2    0    0  0.17118683331E+01  0.25932408315E+01 -0.17974115637E+03  0.17976801352E+03  0.00000000000E+00 0. -1.
        -15    1    1    2    0    0 -0.61939331964E+01 -0.26112972981E+01  0.36690415986E+01  0.78615060436E+01  0.17770000000E+01 0.  1.
         15    1    1    2    0    0  0.77856032379E+01  0.20452037332E+01  0.26599324818E+02  0.27847446667E+02  0.17770000000E+01 0. -1.
</event>
<event>
 6    1  0.1108180E-002  0.1873863E+03  0.7546771E-02  0.1064630E+00
        -11   -1    0    0    0    0  0.00000000000E+00  0.00000000000E+00  0.18250000000E+03  0.18250000000E+03  0.00000000000E+00 0.  1.
         11   -1    0    0    0    0 -0.00000000000E+00 -0.00000000000E+00 -0.18250000000E+03  0.18250000000E+03  0.00000000000E+00 0.  1.
        -11    1    1    2    0    0 -0.58338937705E+01  0.46770706424E+01  0.17745622613E+03  0.17761368613E+03  0.00000000000E+00 0.  1.
         11    1    1    2    0    0 -0.17326318136E+01 -0.32978237583E+01 -0.16408104532E+03  0.16412332890E+03  0.00000000000E+00 0.  1.
        -15    1    1    2    0    0  0.77393055179E+01  0.52307494094E+01 -0.16007037127E+01  0.96424877838E+01  0.17770000000E+01 0.  1.
         15    1    1    2    0    0 -0.17277993379E+00 -0.66099962935E+01 -0.11774477097E+02  0.13620497194E+02  0.17770000000E+01 0. -1.
</event>
<event>
 6    1  0.1108180E-002  0.1833521E+03  0.7546771E-02  0.1067779E+00
        -11   -1    0    0    0    0  0.00000000000E+00  0.00000000000E+00  0.18250000000E+03  0.18250000000E+03  0.00000000000E+00 0.  1.
         11   -1    0    0    0    0 -0.00000000000E+00 -0.00000000000E+00 -0.18250000000E+03  0.18250000000E+03  0.00000000000E+00 0. -1.
        -11    1    1    2    0    0  0.18546831276E+01 -0.14833179189E+01  0.75374524885E+02  0.75411929317E+02  0.00000000000E+00 0.  1.
         11    1    1    2    0    0 -0.12150858586E+01  0.27885480340E+01 -0.18162242440E+03  0.18164789424E+03  0.00000000000E+00 0. -1.
        -15    1    1    2    0    0 -0.97609846088E+00  0.36667890018E+01  0.98318510284E+02  0.98407750220E+02  0.17770000000E+01 0.  1.
         15    1    1    2    0    0  0.33650119180E+00 -0.49720191169E+01  0.79293892350E+01  0.95324262279E+01  0.17770000000E+01 0. -1.
</event>
<event>
 6    1  0.1108180E-002  0.1974449E+03  0.7546771E-02  0.1057144E+00
        -11   -1    0    0    0    0  0.00000000000E+00  0.00000000000E+00  0.18250000000E+03  0.18250000000E+03  0.00000000000E+00 0. -1.
         11   -1    0    0    0    0 -0.00000000000E+00 -0.00000000000E+00 -0.18250000000E+03  0.18250000000E+03  0.00000000000E+00 0. -1.
        -11    1    1    2    0    0 -0.59312232077E+00 -0.72222775212E+01  0.16739829058E+03  0.16755506789E+03  0.00000000000E+00 0. -1.
         11    1    1    2    0    0  0.79030512062E+01  0.81556551548E+01 -0.86417088629E+02  0.87160117809E+02  0.00000000000E+00 0. -1.
        -15    1    1    2    0    0 -0.97887604319E+01 -0.11695391825E+02 -0.92770938565E+02  0.94033009055E+02  0.17770000000E+01 0. -1.
         15    1    1    2    0    0  0.24788315465E+01  0.10762014192E+02  0.11789736612E+02  0.16251805244E+02  0.17770000000E+01 0. -1.
</event>
<event>
 6    1  0.1108180E-002  0.1890857E+03  0.7546771E-02  0.1063330E+00
        -11   -1    0    0    0    0  0.00000000000E+00  0.00000000000E+00  0.18250000000E+03  0.18250000000E+03  0.00000000000E+00 0. -1.
         11   -1    0    0    0    0 -0.00000000000E+00 -0.00000000000E+00 -0.18250000000E+03  0.18250000000E+03  0.00000000000E+00 0.  1.
        -11    1    1    2    0    0 -0.42659686692E+01  0.63868612425E+01  0.17574654635E+03  0.17591429458E+03  0.00000000000E+00 0. -1.
         11    1    1    2    0    0 -0.57434287350E+01  0.12369911474E+02 -0.15745081009E+03  0.15804037232E+03  0.00000000000E+00 0.  1.
        -15    1    1    2    0    0  0.10926321346E+02 -0.15847075740E+02 -0.19359463559E+02  0.27358012829E+02  0.17770000000E+01 0.  1.
         15    1    1    2    0    0 -0.91692394146E+00 -0.29096969770E+01  0.10637273057E+01  0.36873202727E+01  0.17770000000E+01 0. -1.
</event>
<event>
 6    1  0.1108180E-002  0.1861037E+03  0.7546771E-02  0.1065622E+00
        -11   -1    0    0    0    0  0.00000000000E+00  0.00000000000E+00  0.18250000000E+03  0.18250000000E+03  0.00000000000E+00 0. -1.
         11   -1    0    0    0    0 -0.00000000000E+00 -0.00000000000E+00 -0.18250000000E+03  0.18250000000E+03  0.00000000000E+00 0. -1.
        -11    1    1    2    0    0 -0.46564925680E+00  0.45147670670E+01  0.17883873372E+03  0.17889631810E+03  0.00000000000E+00 0. -1.
         11    1    1    2    0    0 -0.76876002717E+00  0.14103607132E+01 -0.77452029376E+02  0.77468683762E+02  0.00000000000E+00 0. -1.
        -15    1    1    2    0    0 -0.78978719002E+01 -0.58362574891E+01 -0.39149566028E+01  0.10720209710E+02  0.17770000000E+01 0.  1.
         15    1    1    2    0    0  0.91322811842E+01 -0.88870291204E-01 -0.97471747738E+02  0.97914788432E+02  0.17770000000E+01 0. -1.
</event>
<event>
 6    1  0.1108180E-002  0.1890194E+03  0.7546771E-02  0.1063381E+00
        -11   -1    0    0    0    0  0.00000000000E+00  0.00000000000E+00  0.18250000000E+03  0.18250000000E+03  0.00000000000E+00 0. -1.
         11   -1    0    0    0    0 -0.00000000000E+00 -0.00000000000E+00 -0.18250000000E+03  0.18250000000E+03  0.00000000000E+00 0. -1.
        -11    1    1    2    0    0 -0.33798109069E+00 -0.72408989566E+01  0.16641003421E+03  0.16656783703E+03  0.00000000000E+00 0. -1.
         11    1    1    2    0    0 -0.59961593824E+01 -0.19502115570E+01 -0.17586757926E+03  0.17598057475E+03  0.00000000000E+00 0. -1.
        -15    1    1    2    0    0  0.41724647134E+01  0.37585237447E+01 -0.43697951451E+01  0.73340848873E+01  0.17770000000E+01 0.  1.
         15    1    1    2    0    0  0.21616757598E+01  0.54325867689E+01  0.13827340197E+02  0.15117503333E+02  0.17770000000E+01 0. -1.
</event>
<event>
 6    1  0.1134250E-002  0.1833445E+03  0.7546771E-02  0.1067785E+00
        -11   -1    0    0    0    0  0.00000000000E+00  0.00000000000E+00  0.18250000000E+03  0.18250000000E+03  0.00000000000E+00 0.  1.
         11   -1    0    0    0    0 -0.00000000000E+00 -0.00000000000E+00 -0.18250000000E+03  0.18250000000E+03  0.00000000000E+00 0. -1.
        -11    1    1    2    0    0 -0.90971999090E+01 -0.37437128428E+00  0.18142713318E+03  0.18165545369E+03  0.00000000000E+00 0.  1.
         11    1    1    2    0    0  0.58033578731E+01  0.42468545257E+01 -0.20249271362E+02  0.21488316050E+02  0.00000000000E+00 0. -1.
        -15    1    1    2    0    0  0.54147552770E+01 -0.83006426220E+00 -0.26633371445E+02  0.27248904289E+02  0.17770000000E+01 0.  1.
         15    1    1    2    0    0 -0.21209132411E+01 -0.30424189792E+01 -0.13454449037E+03  0.13460732597E+03  0.17770000000E+01 0. -1.
</event>
<event>
 6    1  0.1108180E-002  0.1686831E+03  0.7546771E-02  0.1080018E+00
        -11   -1    0    0    0    0  0.00000000000E+00  0.00000000000E+00  0.18250000000E+03  0.18250000000E+03  0.00000000000E+00 0.  1.
         11   -1    0    0    0    0 -0.00000000000E+00 -0.00000000000E+00 -0.18250000000E+03  0.18250000000E+03  0.00000000000E+00 0.  1.
        -11    1    1    2    0    0 -0.13229865801E+01 -0.48159755459E+01  0.17158199510E+03  0.17165466774E+03  0.00000000000E+00 0.  1.
         11    1    1    2    0    0  0.22058479131E+01 -0.71237972770E+01 -0.16580573848E+03  0.16597336281E+03  0.00000000000E+00 0.  1.
        -15    1    1    2    0    0  0.84114152935E+01 -0.11800019752E+01  0.27281859200E+01  0.90964300313E+01  0.17770000000E+01 0.  1.
         15    1    1    2    0    0 -0.92942766264E+01  0.13119774798E+02 -0.85044425480E+01  0.18275539412E+02  0.17770000000E+01 0. -1.
</event>
<event>
 6    1  0.1108180E-002  0.1994604E+03  0.7546771E-02  0.1055703E+00
        -11   -1    0    0    0    0  0.00000000000E+00  0.00000000000E+00  0.18250000000E+03  0.18250000000E+03  0.00000000000E+00 0. -1.
         11   -1    0    0    0    0 -0.00000000000E+00 -0.00000000000E+00 -0.18250000000E+03  0.18250000000E+03  0.00000000000E+00 0.  1.
        -11    1    1    2    0    0 -0.41559306614E+01  0.30409179476E+00  0.15190824919E+03  0.15196539212E+03  0.00000000000E+00 0. -1.
         11    1    1    2    0    0 -0.30867321875E+01 -0.21225797207E+00 -0.16551069902E+03  0.16553961598E+03  0.00000000000E+00 0.  1.
        -15    1    1    2    0    0  0.19993998855E+02  0.13678830262E+02  0.15071234249E+02  0.28586189294E+02  0.17770000000E+01 0.  1.
         15    1    1    2    0    0 -0.12751336006E+02 -0.13770664084E+02 -0.14687844236E+01  0.18908802605E+02  0.17770000000E+01 0. -1.
</event>
<event>
 6    1  0.1108180E-002  0.1826634E+03  0.7546771E-02  0.1068325E+00
        -11   -1    0    0    0    0  0.00000000000E+00  0.00000000000E+00  0.18250000000E+03  0.18250000000E+03  0.00000000000E+00 0.  1.
         11   -1    0    0    0    0 -0.00000000000E+00 -0.00000000000E+00 -0.18250000000E+03  0.18250000000E+03  0.00000000000E+00 0.  1.
        -11    1    1    2    0    0 -0.13487411773E+01  0.26060031644E+01  0.18231299880E+03  0.18233661148E+03  0.00000000000E+00 0.  1.
         11    1    1    2    0    0  0.16244511462E+01 -0.32197485622E+01 -0.34574325267E+02  0.34761898539E+02  0.00000000000E+00 0.  1.
        -15    1    1    2    0    0  0.62060711208E-01 -0.19313265538E+01 -0.28170525350E+02  0.28292580322E+02  0.17770000000E+01 0. -1.
         15    1    1    2    0    0 -0.33777068011E+00  0.25450719516E+01 -0.11956814818E+03  0.11960890966E+03  0.17770000000E+01 0.  1.
</event>
<event>
 6    1  0.1108180E-002  0.1838141E+03  0.7546771E-02  0.1067414E+00
        -11   -1    0    0    0    0  0.00000000000E+00  0.00000000000E+00  0.18250000000E+03  0.18250000000E+03  0.00000000000E+00 0. -1.
         11   -1    0    0    0    0 -0.00000000000E+00 -0.00000000000E+00 -0.18250000000E+03  0.18250000000E+03  0.00000000000E+00 0. -1.
        -11    1    1    2    0    0  0.13509607467E+01 -0.36187381867E+01  0.18114474145E+03  0.18118592030E+03  0.00000000000E+00 0. -1.
         11    1    1    2    0    0  0.14316013671E+01  0.44577229629E+01 -0.17644303063E+03  0.17650513827E+03  0.00000000000E+00 0. -1.
        -15    1    1    2    0    0 -0.18299271930E+01  0.71383021343E+00 -0.37516961210E+01  0.45925091061E+01  0.17770000000E+01 0. -1.
         15    1    1    2    0    0 -0.95263492081E+00 -0.15528149896E+01 -0.95001469426E+00  0.27164323300E+01  0.17770000000E+01 0.  1.
</event>
<event>
 6    1  0.1108180E-002  0.1844688E+03  0.7546771E-02  0.1066898E+00
        -11   -1    0    0    0    0  0.00000000000E+00  0.00000000000E+00  0.18250000000E+03  0.18250000000E+03  0.00000000000E+00 0. -1.
         11   -1    0    0    0    0 -0.00000000000E+00 -0.00000000000E+00 -0.18250000000E+03  0.18250000000E+03  0.00000000000E+00 0. -1.
        -11    1    1    2    0    0 -0.71418586641E+01 -0.89853972060E+00  0.18038763004E+03  0.18053119008E+03  0.00000000000E+00 0. -1.
         11    1    1    2    0    0  0.19469217079E+01 -0.44150159061E+01 -0.16493673438E+03  0.16500730050E+03  0.00000000000E+00 0. -1.
        -15    1    1    2    0    0  0.47966800539E+01  0.18972336211E+01 -0.26066058265E+01  0.60464665622E+01  0.17770000000E+01 0.  1.
         15    1    1    2    0    0  0.39825690234E+00  0.34163220055E+01 -0.12844289833E+02  0.13415042860E+02  0.17770000000E+01 0. -1.
</event>
<event>
 6    1  0.1108180E-002  0.1871910E+03  0.7546771E-02  0.1064781E+00
        -11   -1    0    0    0    0  0.00000000000E+00  0.00000000000E+00  0.18250000000E+03  0.18250000000E+03  0.00000000000E+00 0. -1.
         11   -1    0    0    0    0 -0.00000000000E+00 -0.00000000000E+00 -0.18250000000E+03  0.18250000000E+03  0.00000000000E+00 0. -1.
        -11    1    1    2    0    0 -0.10241842884E+02  0.12191615005E+02  0.15178039662E+03  0.15261330093E+03  0.00000000000E+00 0. -1.
         11    1    1    2    0    0 -0.30128904104E+01 -0.32511282295E+01 -0.17775374882E+03  0.17780900585E+03  0.00000000000E+00 0. -1.
        -15    1    1    2    0    0  0.99323402416E+01 -0.10906270276E+02  0.26413115810E+02  0.30305255812E+02  0.17770000000E+01 0.  1.
         15    1    1    2    0    0  0.33223930524E+01  0.19657835004E+01 -0.43976361203E+00  0.42724374073E+01  0.17770000000E+01 0. -1.
</event>
<event>
 6    1  0.1108180E-002  0.1861144E+03  0.7546771E-02  0.1065614E+00
        -11   -1    0    0    0    0  0.00000000000E+00  0.00000000000E+00  0.18250000000E+03  0.18250000000E+03  0.00000000000E+00 0.  1.
         11   -1    0    0    0    0 -0.00000000000E+00 -0.00000000000E+00 -0.18250000000E+03  0.18250000000E+03  0.00000000000E+00 0.  1.
        -11    1    1    2    0    0 -0.14898769935E+01 -0.57486576332E+01  0.17878703079E+03  0.17888563155E+03  0.00000000000E+00 0.  1.
         11    1    1    2    0    0 -0.31943032055E+01  0.16489478430E+01 -0.15583026572E+03  0.15587172392E+03  0.00000000000E+00 0.  1.
        -15    1    1    2    0    0  0.35959402144E+01  0.25263587684E+01 -0.25887258167E+02  0.26317696310E+02  0.17770000000E+01 0.  1.
         15    1    1    2    0    0  0.10882399845E+01  0.15733510219E+01  0.29304931035E+01  0.39249482202E+01  0.17770000000E+01 0. -1.
</event>
<event>
 6    1  0.1108180E-002  0.1835798E+03  0.7546771E-02  0.1067599E+00
        -11   -1    0    0    0    0  0.00000000000E+00  0.00000000000E+00  0.18250000000E+03  0.18250000000E+03  0.00000000000E+00 0. -1.
         11   -1    0    0    0    0 -0.00000000000E+00 -0.00000000000E+00 -0.18250000000E+03  0.18250000000E+03  0.00000000000E+00 0.  1.
        -11    1    1    2    0    0 -0.11411981555E+01 -0.20135799031E+01  0.11556276303E+03  0.11558593789E+03  0.00000000000E+00 0. -1.
         11    1    1    2    0    0 -0.47912007689E+01  0.30700157258E+01 -0.18133097084E+03  0.18142023478E+03  0.00000000000E+00 0.  1.
        -15    1    1    2    0    0  0.27275860619E+01  0.59274552565E+00  0.63062670344E+02  0.63149419577E+02  0.17770000000E+01 0. -1.
         15    1    1    2    0    0  0.32048128625E+01 -0.16491813484E+01  0.27055374608E+01  0.48444077611E+01  0.17770000000E+01 0.  1.
</event>
<event>
 6    1  0.1108180E-002  0.1861695E+03  0.7546771E-02  0.1065571E+00
        -11   -1    0    0    0    0  0.00000000000E+00  0.00000000000E+00  0.18250000000E+03  0.18250000000E+03  0.00000000000E+00 0.  1.
         11   -1    0    0    0    0 -0.00000000000E+00 -0.00000000000E+00 -0.18250000000E+03  0.18250000000E+03  0.00000000000E+00 0. -1.
        -11    1    1    2    0    0 -0.10809803406E+01 -0.26590401271E+01  0.12210940386E+03  0.12214313540E+03  0.00000000000E+00 0.  1.
         11    1    1    2    0    0  0.29678872116E+01  0.22170625949E+01 -0.17879208574E+03  0.17883046061E+03  0.00000000000E+00 0. -1.
        -15    1    1    2    0    0  0.88975558689E+00  0.13522257049E+02  0.15373155768E+02  0.20570239376E+02  0.17770000000E+01 0. -1.
         15    1    1    2    0    0 -0.27766624579E+01 -0.13080279517E+02  0.41309526107E+02  0.43456164613E+02  0.17770000000E+01 0.  1.
</event>
<event>
 6    1  0.1108180E-002  0.1866262E+03  0.7546771E-02  0.1065217E+00
        -11   -1    0    0    0    0  0.00000000000E+00  0.00000000000E+00  0.18250000000E+03  0.18250000000E+03  0.00000000000E+00 0. -1.
         11   -1    0    0    0    0 -0.00000000000E+00 -0.00000000000E+00 -0.18250000000E+03  0.18250000000E+03  0.00000000000E+00 0.  1.
        -11    1    1    2    0    0  0.32712973319E+01  0.22357463024E+01  0.17832979308E+03  0.17837380707E+03  0.00000000000E+00 0. -1.
         11    1    1    2    0    0  0.29479443590E+01  0.24910280431E+01 -0.14083522640E+03  0.14088809954E+03  0.00000000000E+00 0.  1.
        -15    1    1    2    0    0 -0.47952189400E+01 -0.77428526427E+01 -0.40092351601E+02  0.41152160060E+02  0.17770000000E+01 0.  1.
         15    1    1    2    0    0 -0.14240227509E+01  0.30160782972E+01  0.25977849147E+01  0.45859333350E+01  0.17770000000E+01 0. -1.
</event>
<event>
 6    1  0.1108180E-002  0.1828182E+03  0.7546771E-02  0.1068202E+00
        -11   -1    0    0    0    0  0.00000000000E+00  0.00000000000E+00  0.18250000000E+03  0.18250000000E+03  0.00000000000E+00 0.  1.
         11   -1    0    0    0    0 -0.00000000000E+00 -0.00000000000E+00 -0.18250000000E+03  0.18250000000E+03  0.00000000000E+00 0.  1.
        -11    1    1    2    0    0  0.26024202054E+01  0.51899245951E+00  0.18216246849E+03  0.18218179621E+03  0.00000000000E+00 0.  1.
         11    1    1    2    0    0  0.15061655568E+01 -0.20315302080E+01 -0.71989607469E+02  0.72034014418E+02  0.00000000000E+00 0.  1.
        -15    1    1    2    0    0 -0.70190362822E+00  0.55703424815E+01 -0.47771187240E+02  0.48132789691E+02  0.17770000000E+01 0.  1.
         15    1    1    2    0    0 -0.34066821340E+01 -0.40578047330E+01 -0.62401673781E+02  0.62651399682E+02  0.17770000000E+01 0. -1.
</event>
<event>
 6    1  0.1108180E-002  0.1826774E+03  0.7546771E-02  0.1068314E+00
        -11   -1    0    0    0    0  0.00000000000E+00  0.00000000000E+00  0.18250000000E+03  0.18250000000E+03  0.00000000000E+00 0.  1.
         11   -1    0    0    0    0 -0.00000000000E+00 -0.00000000000E+00 -0.18250000000E+03  0.18250000000E+03  0.00000000000E+00 0. -1.
        -11    1    1    2    0    0  0.16369168683E+01 -0.13029816766E+01  0.11681284746E+03  0.11683158216E+03  0.00000000000E+00 0.  1.
         11    1    1    2    0    0 -0.13421345902E+01  0.47087049630E+01 -0.18225683779E+03  0.18232259363E+03  0.00000000000E+00 0. -1.
        -15    1    1    2    0    0  0.33938986228E+00 -0.37474400799E+01  0.24042838059E+02  0.24400292694E+02  0.17770000000E+01 0.  1.
         15    1    1    2    0    0 -0.63417214036E+00  0.34171679361E+00  0.41401152266E+02  0.41445531516E+02  0.17770000000E+01 0.  1.
</event>
<event>
 6    1  0.1108180E-002  0.1839001E+03  0.7546771E-02  0.1067346E+00
        -11   -1    0    0    0    0  0.00000000000E+00  0.00000000000E+00  0.18250000000E+03  0.18250000000E+03  0.00000000000E+00 0. -1.
         11   -1    0    0    0    0 -0.00000000000E+00 -0.00000000000E+00 -0.18250000000E+03  0.18250000000E+03  0.00000000000E+00 0. -1.
        -11    1    1    2    0    0  0.65323789809E+01 -0.51397492046E+01  0.41730362102E+02  0.42550113022E+02  0.00000000000E+00 0. -1.
         11    1    1    2    0    0 -0.81373585496E+01  0.46462779539E+01 -0.18085735165E+03  0.18109993415E+03  0.00000000000E+00 0. -1.
        -15    1    1    2    0    0 -0.55512075080E+01 -0.10728473003E+01  0.12653779679E+03  0.12667651184E+03  0.17770000000E+01 0. -1.
         15    1    1    2    0    0  0.71561870767E+01  0.15663185511E+01  0.12589192754E+02  0.14673440990E+02  0.17770000000E+01 0.  1.
</event>
<event>
 6    1  0.1108180E-002  0.1830828E+03  0.7546771E-02  0.1067992E+00
        -11   -1    0    0    0    0  0.00000000000E+00  0.00000000000E+00  0.18250000000E+03  0.18250000000E+03  0.00000000000E+00 0. -1.
         11   -1    0    0    0    0 -0.00000000000E+00 -0.00000000000E+00 -0.18250000000E+03  0.18250000000E+03  0.00000000000E+00 0.  1.
        -11    1    1    2    0    0 -0.37683603176E-01  0.27963937785E+01  0.18189570965E+03  0.18191720762E+03  0.00000000000E+00 0. -1.
         11    1    1    2    0    0 -0.25900342412E+01  0.23967954668E+01 -0.53751111049E+02  0.53866825087E+02  0.00000000000E+00 0.  1.
        -15    1    1    2    0    0  0.20747642482E+01 -0.29004944563E+00 -0.11542396798E+03  0.11545665372E+03  0.17770000000E+01 0.  1.
         15    1    1    2    0    0  0.55295359618E+00 -0.49031397997E+01 -0.12720630626E+02  0.13759313577E+02  0.17770000000E+01 0.  1.
</event>
<event>
 6    1  0.1108180E-002  0.1978675E+03  0.7546771E-02  0.1056840E+00
        -11   -1    0    0    0    0  0.00000000000E+00  0.00000000000E+00  0.18250000000E+03  0.18250000000E+03  0.00000000000E+00 0. -1.
         11   -1    0    0    0    0 -0.00000000000E+00 -0.00000000000E+00 -0.18250000000E+03  0.18250000000E+03  0.00000000000E+00 0.  1.
        -11    1    1    2    0    0 -0.49847361731E+01  0.83477900025E+00  0.16705607975E+03  0.16713251698E+03  0.00000000000E+00 0. -1.
         11    1    1    2    0    0  0.77556322948E+01  0.95780002912E+01 -0.14122518951E+03  0.14176192040E+03  0.00000000000E+00 0.  1.
        -15    1    1    2    0    0  0.33939126343E+01  0.62250852411E+01  0.12131651764E+02  0.14163510608E+02  0.17770000000E+01 0. -1.
         15    1    1    2    0    0 -0.61648087559E+01 -0.16637864532E+02 -0.37962542000E+02  0.41942052016E+02  0.17770000000E+01 0.  1.
</event>
<event>
 6    1  0.1108180E-002  0.1857752E+03  0.7546771E-02  0.1065877E+00
        -11   -1    0    0    0    0  0.00000000000E+00  0.00000000000E+00  0.18250000000E+03  0.18250000000E+03  0.00000000000E+00 0.  1.
         11   -1    0    0    0    0 -0.00000000000E+00 -0.00000000000E+00 -0.18250000000E+03  0.18250000000E+03  0.00000000000E+00 0.  1.
        -11    1    1    2    0    0  0.85948429421E+00  0.61153277835E+01  0.17911838802E+03  0.17922481099E+03  0.00000000000E+00 0.  1.
         11    1    1    2    0    0  0.28153170812E+01 -0.17876714550E+01 -0.17493085266E+03  0.17496263884E+03  0.00000000000E+00 0.  1.
        -15    1    1    2    0    0 -0.36943298253E+01  0.93293815134E+00 -0.71831488412E+00  0.42652258704E+01  0.17770000000E+01 0.  1.
         15    1    1    2    0    0  0.19528449899E-01 -0.52605944799E+01 -0.34692204821E+01  0.65473242929E+01  0.17770000000E+01 0. -1.
</event>
<event>
 6    1  0.1108180E-002  0.1893750E+03  0.7546771E-02  0.1063110E+00
        -11   -1    0    0    0    0  0.00000000000E+00  0.00000000000E+00  0.18250000000E+03  0.18250000000E+03  0.00000000000E+00 0. -1.
         11   -1    0    0    0    0 -0.00000000000E+00 -0.00000000000E+00 -0.18250000000E+03  0.18250000000E+03  0.00000000000E+00 0. -1.
        -11    1    1    2    0    0  0.29077439226E+01 -0.72084401570E+01  0.17545288593E+03  0.17562497478E+03  0.00000000000E+00 0. -1.
         11    1    1    2    0    0  0.39610591823E+01  0.11734865221E+01 -0.14169385196E+03  0.14175406430E+03  0.00000000000E+00 0. -1.
        -15    1    1    2    0    0 -0.19185418890E+01 -0.10300127634E+01 -0.37818448563E+02  0.37922743967E+02  0.17770000000E+01 0.  1.
         15    1    1    2    0    0 -0.49502612159E+01  0.70649663983E+01  0.40594145914E+01  0.96982169567E+01  0.17770000000E+01 0. -1.
</event>
<event>
 6    1  0.1108180E-002  0.1850766E+03  0.7546771E-02  0.1066422E+00
        -11   -1    0    0    0    0  0.00000000000E+00  0.00000000000E+00  0.18250000000E+03  0.18250000000E+03  0.00000000000E+00 0.  1.
         11   -1    0    0    0    0 -0.00000000000E+00 -0.00000000000E+00 -0.18250000000E+03  0.18250000000E+03  0.00000000000E+00 0. -1.
        -11    1    1    2    0    0  0.25607626155E+01 -0.10476245158E+01  0.17990211271E+03  0.17992338697E+03  0.00000000000E+00 0.  1.
         11    1    1    2    0    0 -0.38044026438E+01  0.12568184182E+01 -0.17169516327E+03  0.17174190567E+03  0.00000000000E+00 0. -1.
        -15    1    1    2    0    0  0.50692831943E+01 -0.22485385433E+01 -0.46542442783E+01  0.74547485865E+01  0.17770000000E+01 0.  1.
         15    1    1    2    0    0 -0.38256431661E+01  0.20393446408E+01 -0.35527051642E+01  0.58799587738E+01  0.17770000000E+01 0.  1.
</event>
<event>
 6    1  0.1108180E-002  0.1834049E+03  0.7546771E-02  0.1067737E+00
        -11   -1    0    0    0    0  0.00000000000E+00  0.00000000000E+00  0.18250000000E+03  0.18250000000E+03  0.00000000000E+00 0.  1.
         11   -1    0    0    0    0 -0.00000000000E+00 -0.00000000000E+00 -0.18250000000E+03  0.18250000000E+03  0.00000000000E+00 0.  1.
        -11    1    1    2    0    0 -0.26433070336E+01 -0.48609507141E+01  0.18151074686E+03  0.18159506364E+03  0.00000000000E+00 0.  1.
         11    1    1    2    0    0  0.82223067567E+01  0.16318436668E+01 -0.15281906201E+03  0.15304879927E+03  0.00000000000E+00 0.  1.
        -15    1    1    2    0    0 -0.58723257111E+01  0.23034119184E+01 -0.26783910609E+02  0.27574000657E+02  0.17770000000E+01 0. -1.
         15    1    1    2    0    0  0.29332598799E+00  0.92569512888E+00 -0.19077742340E+01  0.27821364335E+01  0.17770000000E+01 0.  1.
</event>
<event>
 6    1  0.1108180E-002  0.1954361E+03  0.7546771E-02  0.1058600E+00
        -11   -1    0    0    0    0  0.00000000000E+00  0.00000000000E+00  0.18250000000E+03  0.18250000000E+03  0.00000000000E+00 0. -1.
         11   -1    0    0    0    0 -0.00000000000E+00 -0.00000000000E+00 -0.18250000000E+03  0.18250000000E+03  0.00000000000E+00 0.  1.
        -11    1    1    2    0    0  0.10040648471E+02 -0.23245820748E+02  0.13195914687E+03  0.13436665973E+03  0.00000000000E+00 0. -1.
         11    1    1    2    0    0 -0.51319702440E+01  0.27786031969E+02 -0.16719304315E+03  0.16956389465E+03  0.00000000000E+00 0.  1.
        -15    1    1    2    0    0  0.75776098336E+01 -0.11930739130E+01 -0.10718722031E+02  0.13300087486E+02  0.17770000000E+01 0.  1.
         15    1    1    2    0    0 -0.12486288060E+02 -0.33471373081E+01  0.45952618312E+02  0.47769358132E+02  0.17770000000E+01 0. -1.
</event>
<event>
 6    1  0.1108180E-002  0.8076062E+02  0.7546771E-02  0.1202021E+00
        -11   -1    0    0    0    0  0.00000000000E+00  0.00000000000E+00  0.18250000000E+03  0.18250000000E+03  0.00000000000E+00 0.  1.
         11   -1    0    0    0    0 -0.00000000000E+00 -0.00000000000E+00 -0.18250000000E+03  0.18250000000E+03  0.00000000000E+00 0. -1.
        -11    1    1    2    0    0 -0.19875845852E+02  0.35485480566E+02  0.10229406473E+03  0.11008335141E+03  0.00000000000E+00 0.  1.
         11    1    1    2    0    0  0.26679911730E+02 -0.36324118023E+02 -0.11333477877E+03  0.12196733710E+03  0.00000000000E+00 0. -1.
        -15    1    1    2    0    0 -0.19391213029E+02 -0.46587705463E+02  0.49401312096E+02  0.70640504025E+02  0.17770000000E+01 0.  1.
         15    1    1    2    0    0  0.12587147152E+02  0.47426342920E+02 -0.38360598056E+02  0.62308807470E+02  0.17770000000E+01 0. -1.
</event>
<event>
 6    1  0.1108180E-002  0.1850035E+03  0.7546771E-02  0.1066479E+00
        -11   -1    0    0    0    0  0.00000000000E+00  0.00000000000E+00  0.18250000000E+03  0.18250000000E+03  0.00000000000E+00 0.  1.
         11   -1    0    0    0    0 -0.00000000000E+00 -0.00000000000E+00 -0.18250000000E+03  0.18250000000E+03  0.00000000000E+00 0.  1.
        -11    1    1    2    0    0  0.70438286482E+01 -0.55567055545E+01  0.12029974138E+03  0.12063382724E+03  0.00000000000E+00 0.  1.
         11    1    1    2    0    0 -0.24898345947E+01  0.16071234962E+02 -0.17926025363E+03  0.17999645108E+03  0.00000000000E+00 0.  1.
        -15    1    1    2    0    0 -0.31435395476E+01 -0.10871693682E+02  0.95735091892E+01  0.14929345987E+02  0.17770000000E+01 0. -1.
         15    1    1    2    0    0 -0.14104545058E+01  0.35716427442E+00  0.49387003063E+02  0.49440375694E+02  0.17770000000E+01 0.  1.
</event>
<event>
 6    1  0.1108180E-002  0.1907232E+03  0.7546771E-02  0.1062091E+00
        -11   -1    0    0    0    0  0.00000000000E+00  0.00000000000E+00  0.18250000000E+03  0.18250000000E+03  0.00000000000E+00 0. -1.
         11   -1    0    0    0    0 -0.00000000000E+00 -0.00000000000E+00 -0.18250000000E+03  0.18250000000E+03  0.00000000000E+00 0.  1.
        -11    1    1    2    0    0 -0.16321706160E+01  0.59378954138E+01  0.16726032159E+03  0.16737364715E+03  0.00000000000E+00 0. -1.
         11    1    1    2    0    0 -0.34072382016E+01 -0.20328359689E+01 -0.17423162671E+03  0.17427679548E+03  0.00000000000E+00 0.  1.
        -15    1    1    2    0    0 -0.29394455080E+01 -0.14073263878E+01 -0.64475227011E+01  0.74397033165E+01  0.17770000000E+01 0.  1.
         15    1    1    2    0    0  0.79788543256E+01 -0.24977330570E+01  0.13418827825E+02  0.15909854052E+02  0.17770000000E+01 0. -1.
</event>
<event>
 6    1  0.1108180E-002  0.1828800E+03  0.7546771E-02  0.1068153E+00
        -11   -1    0    0    0    0  0.00000000000E+00  0.00000000000E+00  0.18250000000E+03  0.18250000000E+03  0.00000000000E+00 0. -1.
         11   -1    0    0    0    0 -0.00000000000E+00 -0.00000000000E+00 -0.18250000000E+03  0.18250000000E+03  0.00000000000E+00 0. -1.
        -11    1    1    2    0    0  0.20200318261E+00  0.25917285472E+01  0.18210147972E+03  0.18212003398E+03  0.00000000000E+00 0. -1.
         11    1    1    2    0    0 -0.72208285045E+00 -0.18970576015E+01 -0.35178075036E+02  0.35236588859E+02  0.00000000000E+00 0. -1.
        -15    1    1    2    0    0  0.36145083298E+01  0.52869025328E+01 -0.98199340567E+02  0.98424002284E+02  0.17770000000E+01 0.  1.
         15    1    1    2    0    0 -0.30944286619E+01 -0.59815734785E+01 -0.48724064116E+02  0.49219374874E+02  0.17770000000E+01 0. -1.
</event>
<event>
 6    1  0.1108180E-002  0.1827832E+03  0.7546771E-02  0.1068230E+00
        -11   -1    0    0    0    0  0.00000000000E+00  0.00000000000E+00  0.18250000000E+03  0.18250000000E+03  0.00000000000E+00 0.  1.
         11   -1    0    0    0    0 -0.00000000000E+00 -0.00000000000E+00 -0.18250000000E+03  0.18250000000E+03  0.00000000000E+00 0. -1.
        -11    1    1    2    0    0 -0.37330132364E+00 -0.81863264266E+00  0.58664605107E+02  0.58671504204E+02  0.00000000000E+00 0.  1.
         11    1    1    2    0    0  0.20035188593E+01 -0.35570576557E+01 -0.18217109106E+03  0.18221683009E+03  0.00000000000E+00 0. -1.
        -15    1    1    2    0    0 -0.32279825607E+00  0.41605711845E+01  0.17381751394E+02  0.17963784730E+02  0.17770000000E+01 0.  1.
         15    1    1    2    0    0 -0.13074192796E+01  0.21511911387E+00  0.10612473456E+03  0.10614788098E+03  0.17770000000E+01 0.  1.
</event>
<event>
 6    1  0.1108180E-002  0.1670542E+03  0.7546771E-02  0.1081461E+00
        -11   -1    0    0    0    0  0.00000000000E+00  0.00000000000E+00  0.18250000000E+03  0.18250000000E+03  0.00000000000E+00 0.  1.
         11   -1    0    0    0    0 -0.00000000000E+00 -0.00000000000E+00 -0.18250000000E+03  0.18250000000E+03  0.00000000000E+00 0. -1.
        -11    1    1    2    0    0  0.49062205531E+01  0.24933186272E+01  0.16498239115E+03  0.16507415615E+03  0.00000000000E+00 0.  1.
         11    1    1    2    0    0 -0.77723532645E+00 -0.80776969267E+01 -0.16893493340E+03  0.16912972833E+03  0.00000000000E+00 0. -1.
        -15    1    1    2    0    0 -0.60100179678E+01  0.68481051187E+00  0.16183744830E+02  0.17368379519E+02  0.17770000000E+01 0.  1.
         15    1    1    2    0    0  0.18810327412E+01  0.48995677876E+01 -0.12231202575E+02  0.13427736001E+02  0.17770000000E+01 0. -1.
</event>
<event>
 6    1  0.1108180E-002  0.1852464E+03  0.7546771E-02  0.1066289E+00
        -11   -1    0    0    0    0  0.00000000000E+00  0.00000000000E+00  0.18250000000E+03  0.18250000000E+03  0.00000000000E+00 0.  1.
         11   -1    0    0    0    0 -0.00000000000E+00 -0.00000000000E+00 -0.18250000000E+03  0.18250000000E+03  0.00000000000E+00 0.  1.
        -11    1    1    2    0    0 -0.39277103596E+01 -0.30938466835E+01  0.16766871697E+03  0.16774324858E+03  0.00000000000E+00 0.  1.
         11    1    1    2    0    0 -0.15090665958E+01  0.24137230278E+01 -0.17973105796E+03  0.17975359951E+03  0.00000000000E+00 0.  1.
        -15    1    1    2    0    0  0.33722036264E+01  0.43467441129E+00  0.13759498620E+02  0.14284335141E+02  0.17770000000E+01 0. -1.
         15    1    1    2    0    0  0.20645733291E+01  0.24544924441E+00 -0.16971576261E+01  0.32188167656E+01  0.17770000000E+01 0. -1.
</event>
<event>
 6    1  0.1108180E-002  0.1868100E+03  0.7546771E-02  0.1065075E+00
        -11   -1    0    0    0    0  0.00000000000E+00  0.00000000000E+00  0.18250000000E+03  0.18250000000E+03  0.00000000000E+00 0.  1.
         11   -1    0    0    0    0 -0.00000000000E+00 -0.00000000000E+00 -0.18250000000E+03  0.18250000000E+03  0.00000000000E+00 0. -1.
        -11    1    1    2    0    0 -0.25083435879E+02  0.38306360335E+01  0.17637409366E+03  0.17818999254E+03  0.00000000000E+00 0.  1.
         11    1    1    2    0    0 -0.54323024440E+01  0.15192109585E+01 -0.72187586571E+02  0.72407634727E+02  0.00000000000E+00 0. -1.
        -15    1    1    2    0    0 -0.75430434357E+01 -0.18859670380E+01 -0.28518506741E+02  0.29612790002E+02  0.17770000000E+01 0.  1.
         15    1    1    2    0    0  0.38058781758E+02 -0.34638799540E+01 -0.75668000349E+02  0.84789582727E+02  0.17770000000E+01 0. -1.
</event>
<event>
 6    1  0.1108180E-002  0.1841378E+03  0.7546771E-02  0.1067159E+00
        -11   -1    0    0    0    0  0.00000000000E+00  0.00000000000E+00  0.18250000000E+03  0.18250000000E+03  0.00000000000E+00 0.  1.
         11   -1    0    0    0    0 -0.00000000000E+00 -0.00000000000E+00 -0.18250000000E+03  0.18250000000E+03  0.00000000000E+00 0.  1.
        -11    1    1    2    0    0 -0.35203646642E+01 -0.29106045775E+01  0.18080446404E+03  0.18086215415E+03  0.00000000000E+00 0.  1.
         11    1    1    2    0    0  0.15762313602E+00  0.39193872926E+01 -0.17260010201E+03  0.17264466877E+03  0.00000000000E+00 0.  1.
        -15    1    1    2    0    0 -0.17194796110E+01  0.30883030902E+00 -0.22369361353E+01  0.33486711642E+01  0.17770000000E+01 0.  1.
         15    1    1    2    0    0  0.50822211392E+01 -0.13176130241E+01 -0.59674258945E+01  0.81445059148E+01  0.17770000000E+01 0.  1.
</event>
<event>
 6    1  0.1108180E-002  0.1865064E+03  0.7546771E-02  0.1065310E+00
        -11   -1    0    0    0    0  0.00000000000E+00  0.00000000000E+00  0.18250000000E+03  0.18250000000E+03  0.00000000000E+00 0. -1.
         11   -1    0    0    0    0 -0.00000000000E+00 -0.00000000000E+00 -0.18250000000E+03  0.18250000000E+03  0.00000000000E+00 0. -1.
        -11    1    1    2    0    0 -0.16148881357E+01  0.44774093455E+01  0.17843014954E+03  0.17849362264E+03  0.00000000000E+00 0. -1.
         11    1    1    2    0    0  0.27269114493E+01  0.60548258247E+01 -0.12975713301E+03  0.12992694304E+03  0.00000000000E+00 0. -1.
        -15    1    1    2    0    0 -0.22418472360E+00 -0.80926470160E+01 -0.49973470384E+00  0.83035328801E+01  0.17770000000E+01 0. -1.
         15    1    1    2    0    0 -0.88783859003E+00 -0.24395881541E+01 -0.48173281830E+02  0.48275901431E+02  0.17770000000E+01 0.  1.
</event>
<event>
 6    1  0.1108180E-002  0.1833657E+03  0.7546771E-02  0.1067768E+00
        -11   -1    0    0    0    0  0.00000000000E+00  0.00000000000E+00  0.18250000000E+03  0.18250000000E+03  0.00000000000E+00 0. -1.
         11   -1    0    0    0    0 -0.00000000000E+00 -0.00000000000E+00 -0.18250000000E+03  0.18250000000E+03  0.00000000000E+00 0.  1.
        -11    1    1    2    0    0 -0.11795688028E+00  0.26583695545E+01  0.16276694232E+03  0.16278869234E+03  0.00000000000E+00 0. -1.
         11    1    1    2    0    0  0.25501003662E+01  0.32685471014E+01 -0.18158701501E+03  0.18163433164E+03  0.00000000000E+00 0.  1.
        -15    1    1    2    0    0 -0.67795464411E+00 -0.54407352683E+01  0.12532722176E+02  0.13794494442E+02  0.17770000000E+01 0. -1.
         15    1    1    2    0    0 -0.17541888418E+01 -0.48618138757E+00  0.62873505139E+01  0.67824815752E+01  0.17770000000E+01 0.  1.
</event>
<event>
 6    1  0.1108180E-002  0.1835062E+03  0.7546771E-02  0.1067657E+00
        -11   -1    0    0    0    0  0.00000000000E+00  0.00000000000E+00  0.18250000000E+03  0.18250000000E+03  0.00000000000E+00 0.  1.
         11   -1    0    0    0    0 -0.00000000000E+00 -0.00000000000E+00 -0.18250000000E+03  0.18250000000E+03  0.00000000000E+00 0.  1.
        -11    1    1    2    0    0  0.27746568229E+01 -0.60832229136E+00  0.18147153014E+03  0.18149376030E+03  0.00000000000E+00 0.  1.
         11    1    1    2    0    0 -0.15524138890E+01  0.10101204957E+00 -0.11432774888E+03  0.11433833284E+03  0.00000000000E+00 0.  1.
        -15    1    1    2    0    0 -0.88473400804E+00 -0.37224251935E+01 -0.62461881172E+02  0.62604181427E+02  0.17770000000E+01 0. -1.
         15    1    1    2    0    0 -0.33750892595E+00  0.42297354353E+01 -0.46819000890E+01  0.65637254339E+01  0.17770000000E+01 0. -1.
</event>
<event>
 6    1  0.1108180E-002  0.1831211E+03  0.7546771E-02  0.1067962E+00
        -11   -1    0    0    0    0  0.00000000000E+00  0.00000000000E+00  0.18250000000E+03  0.18250000000E+03  0.00000000000E+00 0.  1.
         11   -1    0    0    0    0 -0.00000000000E+00 -0.00000000000E+00 -0.18250000000E+03  0.18250000000E+03  0.00000000000E+00 0. -1.
        -11    1    1    2    0    0 -0.23235180408E+01 -0.11685188660E+01  0.18186034387E+03  0.18187894009E+03  0.00000000000E+00 0.  1.
         11    1    1    2    0    0 -0.67235371418E+00  0.25619498992E+01 -0.13239408940E+03  0.13242058207E+03  0.00000000000E+00 0. -1.
        -15    1    1    2    0    0  0.52013229436E+00 -0.13161160277E+00 -0.97413482693E+00  0.20963126863E+01  0.17770000000E+01 0. -1.
         15    1    1    2    0    0  0.24757394606E+01 -0.12618194304E+01 -0.48492119649E+02  0.48604165163E+02  0.17770000000E+01 0. -1.
</event>
<event>
 6    1  0.1108180E-002  0.1836076E+03  0.7546771E-02  0.1067577E+00
        -11   -1    0    0    0    0  0.00000000000E+00  0.00000000000E+00  0.18250000000E+03  0.18250000000E+03  0.00000000000E+00 0.  1.
         11   -1    0    0    0    0 -0.00000000000E+00 -0.00000000000E+00 -0.18250000000E+03  0.18250000000E+03  0.00000000000E+00 0. -1.
        -11    1    1    2    0    0  0.36172765722E+01  0.20888373623E+01  0.18134433575E+03  0.18139243656E+03  0.00000000000E+00 0.  1.
         11    1    1    2    0    0 -0.26731850612E+01  0.12758815269E+01 -0.16826841643E+03  0.16829448524E+03  0.00000000000E+00 0. -1.
        -15    1    1    2    0    0 -0.21467489967E+01  0.65103058390E+00 -0.79890973471E+01  0.84862110213E+01  0.17770000000E+01 0.  1.
         15    1    1    2    0    0  0.12026574858E+01 -0.40157494731E+01 -0.50868219687E+01  0.68268671878E+01  0.17770000000E+01 0. -1.
</event>
<event>
 6    1  0.1108180E-002  0.1848557E+03  0.7546771E-02  0.1066595E+00
        -11   -1    0    0    0    0  0.00000000000E+00  0.00000000000E+00  0.18250000000E+03  0.18250000000E+03  0.00000000000E+00 0. -1.
         11   -1    0    0    0    0 -0.00000000000E+00 -0.00000000000E+00 -0.18250000000E+03  0.18250000000E+03  0.00000000000E+00 0. -1.
        -11    1    1    2    0    0  0.37005488714E+01 -0.71761258055E+01  0.17996322931E+03  0.18014426094E+03  0.00000000000E+00 0. -1.
         11    1    1    2    0    0 -0.76706017370E-03 -0.36258457791E+01 -0.15639597544E+03  0.15643800016E+03  0.00000000000E+00 0. -1.
        -15    1    1    2    0    0 -0.63473379266E+01  0.10096455824E+02 -0.21183024649E+02  0.24374277040E+02  0.17770000000E+01 0. -1.
         15    1    1    2    0    0  0.26475561154E+01  0.70551576036E+00 -0.23842292228E+01  0.40434618657E+01  0.17770000000E+01 0.  1.
</event>
<event>
 6    1  0.1108180E-002  0.1828512E+03  0.7546771E-02  0.1068176E+00
        -11   -1    0    0    0    0  0.00000000000E+00  0.00000000000E+00  0.18250000000E+03  0.18250000000E+03  0.00000000000E+00 0. -1.
         11   -1    0    0    0    0 -0.00000000000E+00 -0.00000000000E+00 -0.18250000000E+03  0.18250000000E+03  0.00000000000E+00 0. -1.
        -11    1    1    2    0    0 -0.18071386202E+01 -0.17122468148E+01  0.15551219367E+03  0.15553211861E+03  0.00000000000E+00 0. -1.
         11    1    1    2    0    0  0.41825155449E+01 -0.10464504803E+01 -0.18209775092E+03  0.18214878365E+03  0.00000000000E+00 0. -1.
        -15    1    1    2    0    0 -0.12013620470E+01 -0.67193792451E+00  0.91462895727E+01  0.94184453755E+01  0.17770000000E+01 0.  1.
         15    1    1    2    0    0 -0.11740148778E+01  0.34306352196E+01  0.17439267682E+02  0.17900652369E+02  0.17770000000E+01 0. -1.
</event>
<event>
 6    1  0.1108180E-002  0.1864502E+03  0.7546771E-02  0.1065353E+00
        -11   -1    0    0    0    0  0.00000000000E+00  0.00000000000E+00  0.18250000000E+03  0.18250000000E+03  0.00000000000E+00 0.  1.
         11   -1    0    0    0    0 -0.00000000000E+00 -0.00000000000E+00 -0.18250000000E+03  0.18250000000E+03  0.00000000000E+00 0.  1.
        -11    1    1    2    0    0 -0.48339471418E+01 -0.65620325204E+00  0.17848319442E+03  0.17854984833E+03  0.00000000000E+00 0.  1.
         11    1    1    2    0    0  0.42937580967E+00 -0.15226820265E+01 -0.86590745975E+02  0.86605197377E+02  0.00000000000E+00 0.  1.
        -15    1    1    2    0    0 -0.63778172242E+01  0.50472900008E+01 -0.11528151313E+01  0.84046654083E+01  0.17770000000E+01 0. -1.
         15    1    1    2    0    0  0.10782388556E+02 -0.28684047223E+01 -0.90739633314E+02  0.91440288886E+02  0.17770000000E+01 0.  1.
</event>
<event>
 6    1  0.1108180E-002  0.1837306E+03  0.7546771E-02  0.1067479E+00
        -11   -1    0    0    0    0  0.00000000000E+00  0.00000000000E+00  0.18250000000E+03  0.18250000000E+03  0.00000000000E+00 0.  1.
         11   -1    0    0    0    0 -0.00000000000E+00 -0.00000000000E+00 -0.18250000000E+03  0.18250000000E+03  0.00000000000E+00 0. -1.
        -11    1    1    2    0    0  0.36778509623E+01  0.18553870770E+00  0.13248340676E+03  0.13253457692E+03  0.00000000000E+00 0.  1.
         11    1    1    2    0    0  0.43814885303E+01  0.64855279818E+01 -0.18110039703E+03  0.18126944949E+03  0.00000000000E+00 0. -1.
        -15    1    1    2    0    0 -0.29588730039E+01 -0.27789545018E+01  0.40298903673E+02  0.40541791818E+02  0.17770000000E+01 0.  1.
         15    1    1    2    0    0 -0.51004664887E+01 -0.38921121877E+01  0.83180865964E+01  0.10654181776E+02  0.17770000000E+01 0. -1.
</event>
<event>
 6    1  0.1108180E-002  0.1870505E+03  0.7546771E-02  0.1064889E+00
        -11   -1    0    0    0    0  0.00000000000E+00  0.00000000000E+00  0.18250000000E+03  0.18250000000E+03  0.00000000000E+00 0.  1.
         11   -1    0    0    0    0 -0.00000000000E+00 -0.00000000000E+00 -0.18250000000E+03  0.18250000000E+03  0.00000000000E+00 0. -1.
        -11    1    1    2    0    0  0.15772707592E+01 -0.39508537421E+01  0.15803351814E+03  0.15809076470E+03  0.00000000000E+00 0.  1.
         11    1    1    2    0    0  0.71250579161E-01 -0.38088569087E+01 -0.17790870539E+03  0.17794948699E+03  0.00000000000E+00 0. -1.
        -15    1    1    2    0    0  0.21311090746E+01  0.12334117658E+01 -0.33232048090E+01  0.45015941259E+01  0.17770000000E+01 0. -1.
         15    1    1    2    0    0 -0.37796304130E+01  0.65262988850E+01  0.23198392058E+02  0.24458154188E+02  0.17770000000E+01 0.  1.
</event>
<event>
 6    1  0.1108180E-002  0.1859381E+03  0.7546771E-02  0.1065751E+00
        -11   -1    0    0    0    0  0.00000000000E+00  0.00000000000E+00  0.18250000000E+03  0.18250000000E+03  0.00000000000E+00 0.  1.
         11   -1    0    0    0    0 -0.00000000000E+00 -0.00000000000E+00 -0.18250000000E+03  0.18250000000E+03  0.00000000000E+00 0.  1.
        -11    1    1    2    0    0 -0.82508210478E+01 -0.13832577247E+02  0.17833602377E+03  0.17906187091E+03  0.00000000000E+00 0.  1.
         11    1    1    2    0    0 -0.38581648883E+01 -0.15556538963E+01 -0.92002076200E+02  0.92096077661E+02  0.00000000000E+00 0.  1.
        -15    1    1    2    0    0 -0.32360208642E+01  0.10540454446E+02 -0.69848827245E+02  0.70736054509E+02  0.17770000000E+01 0. -1.
         15    1    1    2    0    0  0.15345006800E+02  0.48477766966E+01 -0.16485120322E+02  0.23105996919E+02  0.17770000000E+01 0.  1.
</event>
<event>
 6    1  0.1108180E-002  0.1831472E+03  0.7546771E-02  0.1067941E+00
        -11   -1    0    0    0    0  0.00000000000E+00  0.00000000000E+00  0.18250000000E+03  0.18250000000E+03  0.00000000000E+00 0. -1.
         11   -1    0    0    0    0 -0.00000000000E+00 -0.00000000000E+00 -0.18250000000E+03  0.18250000000E+03  0.00000000000E+00 0.  1.
        -11    1    1    2    0    0 -0.48300693264E+00  0.53768766211E+01  0.18177265855E+03  0.18185280722E+03  0.00000000000E+00 0. -1.
         11    1    1    2    0    0 -0.28134263937E+01 -0.32567634550E+01 -0.74242734039E+02  0.74367368072E+02  0.00000000000E+00 0.  1.
        -15    1    1    2    0    0  0.54577757100E+01  0.22896882439E+00 -0.13404023480E+02  0.14583048957E+02  0.17770000000E+01 0.  1.
         15    1    1    2    0    0 -0.21613423837E+01 -0.23490819905E+01 -0.94125901033E+02  0.94196775748E+02  0.17770000000E+01 0. -1.
</event>
<event>
 6    1  0.1108180E-002  0.1834268E+03  0.7546771E-02  0.1067719E+00
        -11   -1    0    0    0    0  0.00000000000E+00  0.00000000000E+00  0.18250000000E+03  0.18250000000E+03  0.00000000000E+00 0.  1.
         11   -1    0    0    0    0 -0.00000000000E+00 -0.00000000000E+00 -0.18250000000E+03  0.18250000000E+03  0.00000000000E+00 0. -1.
        -11    1    1    2    0    0 -0.30987861572E+01  0.22402659577E+00  0.18154661537E+03  0.18157319795E+03  0.00000000000E+00 0.  1.
         11    1    1    2    0    0  0.21476401081E+01  0.16341922801E+01 -0.16652096876E+03  0.16654283527E+03  0.00000000000E+00 0. -1.
        -15    1    1    2    0    0 -0.16861698441E+01 -0.76249878588E+00 -0.15557227357E+01  0.30004291980E+01  0.17770000000E+01 0. -1.
         15    1    1    2    0    0  0.26373158932E+01 -0.10957200900E+01 -0.13469923868E+02  0.13883537577E+02  0.17770000000E+01 0. -1.
</event>
<event>
 6    1  0.1108180E-002  0.1731558E+03  0.7546771E-02  0.1076146E+00
        -11   -1    0    0    0    0  0.00000000000E+00  0.00000000000E+00  0.18250000000E+03  0.18250000000E+03  0.00000000000E+00 0.  1.
         11   -1    0    0    0    0 -0.00000000000E+00 -0.00000000000E+00 -0.18250000000E+03  0.18250000000E+03  0.00000000000E+00 0.  1.
        -11    1    1    2    0    0  0.17090097025E+00  0.35235563315E+01  0.17623932741E+03  0.17627463000E+03  0.00000000000E+00 0.  1.
         11    1    1    2    0    0  0.84424887197E+01  0.66984398742E+01 -0.17000952585E+03  0.17035076634E+03  0.00000000000E+00 0.  1.
        -15    1    1    2    0    0 -0.34045920187E+01 -0.11033790971E+02 -0.36300633659E+01  0.12234005028E+02  0.17770000000E+01 0. -1.
         15    1    1    2    0    0 -0.52087976713E+01  0.81179476484E+00 -0.25997381924E+01  0.61405986344E+01  0.17770000000E+01 0.  1.
</event>
<event>
 6    1  0.1108180E-002  0.1840589E+03  0.7546771E-02  0.1067221E+00
        -11   -1    0    0    0    0  0.00000000000E+00  0.00000000000E+00  0.18250000000E+03  0.18250000000E+03  0.00000000000E+00 0. -1.
         11   -1    0    0    0    0 -0.00000000000E+00 -0.00000000000E+00 -0.18250000000E+03  0.18250000000E+03  0.00000000000E+00 0. -1.
        -11    1    1    2    0    0  0.23307817510E+01 -0.30613359992E-01  0.15862696913E+03  0.15864409481E+03  0.00000000000E+00 0. -1.
         11    1    1    2    0    0  0.11811539375E+01  0.71621034457E+01 -0.18079545180E+03  0.18094111264E+03  0.00000000000E+00 0. -1.
        -15    1    1    2    0    0 -0.20616047217E+01 -0.10624330554E+01  0.16628740327E+02  0.16883474520E+02  0.17770000000E+01 0. -1.
         15    1    1    2    0    0 -0.14503309668E+01 -0.60690570304E+01  0.55397423417E+01  0.85313180320E+01  0.17770000000E+01 0.  1.
</event>
<event>
 6    1  0.1108180E-002  0.1937907E+03  0.7546771E-02  0.1059807E+00
        -11   -1    0    0    0    0  0.00000000000E+00  0.00000000000E+00  0.18250000000E+03  0.18250000000E+03  0.00000000000E+00 0.  1.
         11   -1    0    0    0    0 -0.00000000000E+00 -0.00000000000E+00 -0.18250000000E+03  0.18250000000E+03  0.00000000000E+00 0.  1.
        -11    1    1    2    0    0 -0.11334835874E+02 -0.38977203152E+01  0.11444133516E+03  0.11506732777E+03  0.00000000000E+00 0.  1.
         11    1    1    2    0    0  0.20047969721E+01  0.57949388908E+01 -0.17109942582E+03  0.17120926974E+03  0.00000000000E+00 0.  1.
        -15    1    1    2    0    0 -0.13271737637E+01 -0.68113616923E+01 -0.92813438314E+01  0.11724210448E+02  0.17770000000E+01 0.  1.
         15    1    1    2    0    0  0.10657212666E+02  0.49141431167E+01  0.65939434495E+02  0.66999192046E+02  0.17770000000E+01 0.  1.
</event>
<event>
 6    1  0.1108180E-002  0.1845676E+03  0.7546771E-02  0.1066821E+00
        -11   -1    0    0    0    0  0.00000000000E+00  0.00000000000E+00  0.18250000000E+03  0.18250000000E+03  0.00000000000E+00 0. -1.
         11   -1    0    0    0    0 -0.00000000000E+00 -0.00000000000E+00 -0.18250000000E+03  0.18250000000E+03  0.00000000000E+00 0. -1.
        -11    1    1    2    0    0 -0.15111786881E+02 -0.54686551111E+01  0.17971524302E+03  0.18043237200E+03  0.00000000000E+00 0. -1.
         11    1    1    2    0    0 -0.13866709125E+01  0.11648443520E-01 -0.91239939054E+02  0.91250476549E+02  0.00000000000E+00 0. -1.
        -15    1    1    2    0    0  0.26888742529E+01  0.85299519520E+01 -0.66494091621E+02  0.67116406896E+02  0.17770000000E+01 0. -1.
         15    1    1    2    0    0  0.13809583541E+02 -0.30729452844E+01 -0.21981212344E+02  0.26200744558E+02  0.17770000000E+01 0.  1.
</event>
<event>
 6    1  0.1108180E-002  0.1853694E+03  0.7546771E-02  0.1066193E+00
        -11   -1    0    0    0    0  0.00000000000E+00  0.00000000000E+00  0.18250000000E+03  0.18250000000E+03  0.00000000000E+00 0. -1.
         11   -1    0    0    0    0 -0.00000000000E+00 -0.00000000000E+00 -0.18250000000E+03  0.18250000000E+03  0.00000000000E+00 0.  1.
        -11    1    1    2    0    0  0.26476763340E+01  0.11295077320E+01  0.17960756875E+03  0.17963063416E+03  0.00000000000E+00 0. -1.
         11    1    1    2    0    0  0.35199418467E+01 -0.21498206657E+01 -0.17189705543E+03  0.17194653060E+03  0.00000000000E+00 0.  1.
        -15    1    1    2    0    0 -0.45841913894E+01 -0.29696765315E+01 -0.20473902063E+01  0.60978131369E+01  0.17770000000E+01 0. -1.
         15    1    1    2    0    0 -0.15834267913E+01  0.39899894652E+01 -0.56631231150E+01  0.73250220991E+01  0.17770000000E+01 0.  1.
</event>
<event>
 6    1  0.1108180E-002  0.1836680E+03  0.7546771E-02  0.1067529E+00
        -11   -1    0    0    0    0  0.00000000000E+00  0.00000000000E+00  0.18250000000E+03  0.18250000000E+03  0.00000000000E+00 0.  1.
         11   -1    0    0    0    0 -0.00000000000E+00 -0.00000000000E+00 -0.18250000000E+03  0.18250000000E+03  0.00000000000E+00 0.  1.
        -11    1    1    2    0    0 -0.23792189186E+01 -0.21284977036E+01  0.14263846450E+03  0.14267418386E+03  0.00000000000E+00 0.  1.
         11    1    1    2    0    0 -0.49041046323E+00 -0.32750070300E+01 -0.18130175502E+03  0.18133199537E+03  0.00000000000E+00 0.  1.
        -15    1    1    2    0    0  0.27439847915E+01  0.89372879034E+01  0.24350674503E+02  0.26144170389E+02  0.17770000000E+01 0. -1.
         15    1    1    2    0    0  0.12564459036E+00 -0.35337831698E+01  0.14312616014E+02  0.14849650373E+02  0.17770000000E+01 0. -1.
</event>
<event>
 6    1  0.1108180E-002  0.1849780E+03  0.7546771E-02  0.1066499E+00
        -11   -1    0    0    0    0  0.00000000000E+00  0.00000000000E+00  0.18250000000E+03  0.18250000000E+03  0.00000000000E+00 0. -1.
         11   -1    0    0    0    0 -0.00000000000E+00 -0.00000000000E+00 -0.18250000000E+03  0.18250000000E+03  0.00000000000E+00 0. -1.
        -11    1    1    2    0    0 -0.10696607836E+02 -0.11275199166E+01  0.13356401311E+03  0.13399639666E+03  0.00000000000E+00 0. -1.
         11    1    1    2    0    0 -0.57028977222E+01  0.69506887753E+01 -0.17979731860E+03  0.18002197336E+03  0.00000000000E+00 0. -1.
        -15    1    1    2    0    0  0.18249970154E+01 -0.44892922172E+01  0.22155245693E+02  0.22748560382E+02  0.17770000000E+01 0.  1.
         15    1    1    2    0    0  0.14574508543E+02 -0.13338766415E+01  0.24078059802E+02  0.28233069599E+02  0.17770000000E+01 0. -1.
</event>
<event>
 6    1  0.1108180E-002  0.1843809E+03  0.7546771E-02  0.1066967E+00
        -11   -1    0    0    0    0  0.00000000000E+00  0.00000000000E+00  0.18250000000E+03  0.18250000000E+03  0.00000000000E+00 0.  1.
         11   -1    0    0    0    0 -0.00000000000E+00 -0.00000000000E+00 -0.18250000000E+03  0.18250000000E+03  0.00000000000E+00 0.  1.
        -11    1    1    2    0    0  0.66749202629E+00 -0.27635039316E+01  0.18059669997E+03  0.18061907579E+03  0.00000000000E+00 0.  1.
         11    1    1    2    0    0 -0.14905801155E+01  0.18780851007E+01 -0.12026693219E+03  0.12029083095E+03  0.00000000000E+00 0.  1.
        -15    1    1    2    0    0 -0.41906758875E+01  0.59279169211E+01 -0.53666594929E+02  0.54184528269E+02  0.17770000000E+01 0. -1.
         15    1    1    2    0    0  0.50137639767E+01 -0.50424980902E+01 -0.66631728524E+01  0.99055649846E+01  0.17770000000E+01 0.  1.
</event>
<event>
 6    1  0.1108180E-002  0.1862709E+03  0.7546771E-02  0.1065492E+00
        -11   -1    0    0    0    0  0.00000000000E+00  0.00000000000E+00  0.18250000000E+03  0.18250000000E+03  0.00000000000E+00 0.  1.
         11   -1    0    0    0    0 -0.00000000000E+00 -0.00000000000E+00 -0.18250000000E+03  0.18250000000E+03  0.00000000000E+00 0.  1.
        -11    1    1    2    0    0 -0.36310282944E+01  0.49090470539E+01  0.17862473373E+03  0.17872906481E+03  0.00000000000E+00 0.  1.
         11    1    1    2    0    0 -0.24205317484E+01 -0.68655018354E+01 -0.14503132120E+03  0.14521390504E+03  0.00000000000E+00 0.  1.
        -15    1    1    2    0    0  0.55384330350E+01  0.68844081519E+01 -0.34550900397E+02  0.35707026806E+02  0.17770000000E+01 0. -1.
         15    1    1    2    0    0  0.51312700779E+00 -0.49279533704E+01  0.95748786628E+00  0.53500033421E+01  0.17770000000E+01 0.  1.
</event>
<event>
 6    1  0.1108180E-002  0.1870144E+03  0.7546771E-02  0.1064917E+00
        -11   -1    0    0    0    0  0.00000000000E+00  0.00000000000E+00  0.18250000000E+03  0.18250000000E+03  0.00000000000E+00 0.  1.
         11   -1    0    0    0    0 -0.00000000000E+00 -0.00000000000E+00 -0.18250000000E+03  0.18250000000E+03  0.00000000000E+00 0.  1.
        -11    1    1    2    0    0 -0.13994677875E+01  0.27031103758E+01  0.16255329433E+03  0.16258179115E+03  0.00000000000E+00 0.  1.
         11    1    1    2    0    0  0.53696744596E+00  0.45162778862E+01 -0.17792749938E+03  0.17798561778E+03  0.00000000000E+00 0.  1.
        -15    1    1    2    0    0  0.41456710992E+01 -0.10000951861E+02  0.16336605816E+02  0.19678618996E+02  0.17770000000E+01 0. -1.
         15    1    1    2    0    0 -0.32831707577E+01  0.27815635986E+01 -0.96240075933E+00  0.47539720759E+01  0.17770000000E+01 0.  1.
</event>
<event>
 6    1  0.1108180E-002  0.1843198E+03  0.7546771E-02  0.1067015E+00
        -11   -1    0    0    0    0  0.00000000000E+00  0.00000000000E+00  0.18250000000E+03  0.18250000000E+03  0.00000000000E+00 0.  1.
         11   -1    0    0    0    0 -0.00000000000E+00 -0.00000000000E+00 -0.18250000000E+03  0.18250000000E+03  0.00000000000E+00 0. -1.
        -11    1    1    2    0    0 -0.27145462755E+01  0.27350067577E+01  0.18063908833E+03  0.18068018501E+03  0.00000000000E+00 0.  1.
         11    1    1    2    0    0  0.16149032438E+01 -0.36335841131E+01 -0.53765021072E+02  0.53911857108E+02  0.00000000000E+00 0. -1.
        -15    1    1    2    0    0 -0.49153289778E+01 -0.23795036957E+01 -0.32841312276E+01  0.66155682838E+01  0.17770000000E+01 0.  1.
         15    1    1    2    0    0  0.60149720095E+01  0.32780810511E+01 -0.12358993603E+03  0.12379238959E+03  0.17770000000E+01 0. -1.
</event>
<event>
 6    1  0.1108180E-002  0.1831798E+03  0.7546771E-02  0.1067915E+00
        -11   -1    0    0    0    0  0.00000000000E+00  0.00000000000E+00  0.18250000000E+03  0.18250000000E+03  0.00000000000E+00 0. -1.
         11   -1    0    0    0    0 -0.00000000000E+00 -0.00000000000E+00 -0.18250000000E+03  0.18250000000E+03  0.00000000000E+00 0.  1.
        -11    1    1    2    0    0 -0.22129534303E+01  0.11032404916E+01  0.14598704601E+03  0.14600798576E+03  0.00000000000E+00 0. -1.
         11    1    1    2    0    0 -0.58067304659E+01 -0.14804948056E+01 -0.18172143214E+03  0.18182021033E+03  0.00000000000E+00 0.  1.
        -15    1    1    2    0    0  0.96962754975E+00  0.54892694125E+00  0.16058359584E+02  0.16194756556E+02  0.17770000000E+01 0. -1.
         15    1    1    2    0    0  0.70500563464E+01 -0.17167262727E+00  0.19676026548E+02  0.20977047354E+02  0.17770000000E+01 0. -1.
</event>
<event>
 6    1  0.1121508E-002  0.1827740E+03  0.7546771E-02  0.1068237E+00
        -11   -1    0    0    0    0  0.00000000000E+00  0.00000000000E+00  0.18250000000E+03  0.18250000000E+03  0.00000000000E+00 0.  1.
         11   -1    0    0    0    0 -0.00000000000E+00 -0.00000000000E+00 -0.18250000000E+03  0.18250000000E+03  0.00000000000E+00 0. -1.
        -11    1    1    2    0    0 -0.18058091225E+01 -0.18240536884E+01  0.18220791648E+03  0.18222599416E+03  0.00000000000E+00 0.  1.
         11    1    1    2    0    0 -0.24516505102E+01  0.35559746133E+00 -0.14953197238E+03  0.14955249180E+03  0.00000000000E+00 0. -1.
        -15    1    1    2    0    0  0.13110457613E+01  0.94361607784E+00 -0.16623349078E+02  0.16795913666E+02  0.17770000000E+01 0.  1.
         15    1    1    2    0    0  0.29464138714E+01  0.52484014921E+00 -0.16052595019E+02  0.16425600377E+02  0.17770000000E+01 0. -1.
</event>
<event>
 6    1  0.1108180E-002  0.1845360E+03  0.7546771E-02  0.1066846E+00
        -11   -1    0    0    0    0  0.00000000000E+00  0.00000000000E+00  0.18250000000E+03  0.18250000000E+03  0.00000000000E+00 0. -1.
         11   -1    0    0    0    0 -0.00000000000E+00 -0.00000000000E+00 -0.18250000000E+03  0.18250000000E+03  0.00000000000E+00 0. -1.
        -11    1    1    2    0    0  0.35136655596E+01 -0.18891910118E+01  0.18041993339E+03  0.18046403313E+03  0.00000000000E+00 0. -1.
         11    1    1    2    0    0 -0.71654506919E+00  0.20087858514E+01 -0.14730854707E+03  0.14732398548E+03  0.00000000000E+00 0. -1.
        -15    1    1    2    0    0  0.14951313487E+01 -0.68102517388E+01 -0.23685567953E+02  0.24754369408E+02  0.17770000000E+01 0.  1.
         15    1    1    2    0    0 -0.42922518391E+01  0.66906568992E+01 -0.94258183609E+01  0.12457611985E+02  0.17770000000E+01 0. -1.
</event>
<event>
 6    1  0.1108180E-002  0.1825411E+03  0.7546771E-02  0.1068422E+00
        -11   -1    0    0    0    0  0.00000000000E+00  0.00000000000E+00  0.18250000000E+03  0.18250000000E+03  0.00000000000E+00 0. -1.
         11   -1    0    0    0    0 -0.00000000000E+00 -0.00000000000E+00 -0.18250000000E+03  0.18250000000E+03  0.00000000000E+00 0. -1.
        -11    1    1    2    0    0 -0.17928466990E+01  0.25654051778E+01  0.18243200560E+03  0.18245885090E+03  0.00000000000E+00 0. -1.
         11    1    1    2    0    0  0.89334530649E+00  0.83087441634E-01 -0.27795467246E+02  0.27809943703E+02  0.00000000000E+00 0. -1.
        -15    1    1    2    0    0  0.10696565216E+01 -0.14869832488E+01 -0.43852531243E+02  0.43926728875E+02  0.17770000000E+01 0. -1.
         15    1    1    2    0    0 -0.17015512910E+00 -0.11615093706E+01 -0.11078400711E+03  0.11080447652E+03  0.17770000000E+01 0.  1.
</event>
<event>
 6    1  0.1108180E-002  0.1829925E+03  0.7546771E-02  0.1068063E+00
        -11   -1    0    0    0    0  0.00000000000E+00  0.00000000000E+00  0.18250000000E+03  0.18250000000E+03  0.00000000000E+00 0. -1.
         11   -1    0    0    0    0 -0.00000000000E+00 -0.00000000000E+00 -0.18250000000E+03  0.18250000000E+03  0.00000000000E+00 0.  1.
        -11    1    1    2    0    0  0.61212968041E+00  0.35992514036E+01  0.18197087418E+03  0.18200749535E+03  0.00000000000E+00 0. -1.
         11    1    1    2    0    0 -0.19665309333E+01 -0.31936997185E+00 -0.11747253671E+03  0.11748942983E+03  0.00000000000E+00 0.  1.
        -15    1    1    2    0    0  0.37507868812E+01 -0.21839653507E+01 -0.58731068780E+02  0.58918030143E+02  0.17770000000E+01 0.  1.
         15    1    1    2    0    0 -0.23963856283E+01 -0.10959160810E+01 -0.57672686957E+01  0.65850446730E+01  0.17770000000E+01 0. -1.
</event>
<event>
 6    1  0.1108180E-002  0.1830570E+03  0.7546771E-02  0.1068012E+00
        -11   -1    0    0    0    0  0.00000000000E+00  0.00000000000E+00  0.18250000000E+03  0.18250000000E+03  0.00000000000E+00 0. -1.
         11   -1    0    0    0    0 -0.00000000000E+00 -0.00000000000E+00 -0.18250000000E+03  0.18250000000E+03  0.00000000000E+00 0.  1.
        -11    1    1    2    0    0 -0.11959946022E+01  0.26568828764E+01  0.18191968963E+03  0.18194302104E+03  0.00000000000E+00 0. -1.
         11    1    1    2    0    0 -0.28264136721E+01 -0.79826131244E+00 -0.14231019057E+03  0.14234049380E+03  0.00000000000E+00 0.  1.
        -15    1    1    2    0    0  0.49097733336E+01 -0.11846375827E+01 -0.36917932254E+02  0.37304164531E+02  0.17770000000E+01 0.  1.
         15    1    1    2    0    0 -0.88736505931E+00 -0.67398398130E+00 -0.26915668070E+01  0.34123206227E+01  0.17770000000E+01 0. -1.
</event>
<event>
 6    1  0.1108180E-002  0.1852994E+03  0.7546771E-02  0.1066248E+00
        -11   -1    0    0    0    0  0.00000000000E+00  0.00000000000E+00  0.18250000000E+03  0.18250000000E+03  0.00000000000E+00 0.  1.
         11   -1    0    0    0    0 -0.00000000000E+00 -0.00000000000E+00 -0.18250000000E+03  0.18250000000E+03  0.00000000000E+00 0. -1.
        -11    1    1    2    0    0  0.17998310095E+01 -0.18949394969E+01  0.17968161310E+03  0.17970061846E+03  0.00000000000E+00 0.  1.
         11    1    1    2    0    0  0.69452000959E+00 -0.21965492435E+01 -0.13918760208E+03  0.13920666565E+03  0.00000000000E+00 0. -1.
        -15    1    1    2    0    0  0.16149578518E+01  0.79091772457E+01 -0.41008857261E+01  0.92270345348E+01  0.17770000000E+01 0.  1.
         15    1    1    2    0    0 -0.41093088710E+01 -0.38176885054E+01 -0.36393125291E+02  0.36865681363E+02  0.17770000000E+01 0. -1.
</event>
<event>
 6    1  0.1108180E-002  0.1828106E+03  0.7546771E-02  0.1068208E+00
        -11   -1    0    0    0    0  0.00000000000E+00  0.00000000000E+00  0.18250000000E+03  0.18250000000E+03  0.00000000000E+00 0. -1.
         11   -1    0    0    0    0 -0.00000000000E+00 -0.00000000000E+00 -0.18250000000E+03  0.18250000000E+03  0.00000000000E+00 0. -1.
        -11    1    1    2    0    0  0.24109770230E+01 -0.71888657117E+00  0.77849111163E+01  0.81813476394E+01  0.00000000000E+00 0. -1.
         11    1    1    2    0    0 -0.76998702317E+01  0.76084383639E+01 -0.18186758734E+03  0.18218944992E+03  0.00000000000E+00 0. -1.
        -15    1    1    2    0    0  0.14300682055E+01 -0.55280340480E+01  0.15105768088E+03  0.15117600649E+03  0.17770000000E+01 0. -1.
         15    1    1    2    0    0  0.38588250033E+01 -0.13615177447E+01  0.23024995344E+02  0.23453195957E+02  0.17770000000E+01 0. -1.
</event>
<event>
 6    1  0.1108180E-002  0.1818027E+03  0.7546771E-02  0.1069011E+00
        -11   -1    0    0    0    0  0.00000000000E+00  0.00000000000E+00  0.18250000000E+03  0.18250000000E+03  0.00000000000E+00 0. -1.
         11   -1    0    0    0    0 -0.00000000000E+00 -0.00000000000E+00 -0.18250000000E+03  0.18250000000E+03  0.00000000000E+00 0.  1.
        -11    1    1    2    0    0  0.24410342059E+01  0.36334670103E+01  0.18222545263E+03  0.18227801929E+03  0.00000000000E+00 0. -1.
         11    1    1    2    0    0  0.39123381879E+00 -0.38277302087E+00 -0.16578526378E+01  0.17458678230E+01  0.00000000000E+00 0.  1.
        -15    1    1    2    0    0 -0.35965440792E+01  0.32752114409E+01 -0.63514991522E+02  0.63725771995E+02  0.17770000000E+01 0. -1.
         15    1    1    2    0    0  0.76427605451E+00 -0.65259054303E+01 -0.11705260847E+03  0.11725034089E+03  0.17770000000E+01 0.  1.
</event>
<event>
 6    1  0.1108180E-002  0.1830930E+03  0.7546771E-02  0.1067984E+00
        -11   -1    0    0    0    0  0.00000000000E+00  0.00000000000E+00  0.18250000000E+03  0.18250000000E+03  0.00000000000E+00 0. -1.
         11   -1    0    0    0    0 -0.00000000000E+00 -0.00000000000E+00 -0.18250000000E+03  0.18250000000E+03  0.00000000000E+00 0. -1.
        -11    1    1    2    0    0  0.27444271641E+01  0.15358133871E+01  0.18187978184E+03  0.18190696976E+03  0.00000000000E+00 0. -1.
         11    1    1    2    0    0  0.31056992521E+01  0.36794071858E+01 -0.13803861009E+03  0.13812255891E+03  0.00000000000E+00 0. -1.
        -15    1    1    2    0    0 -0.43564397287E+01 -0.43975763542E+01 -0.39117410317E+02  0.39644000351E+02  0.17770000000E+01 0. -1.
         15    1    1    2    0    0 -0.14936866874E+01 -0.81764421866E+00 -0.47237614404E+01  0.53264709832E+01  0.17770000000E+01 0.  1.
</event>
<event>
 6    1  0.1108180E-002  0.1833416E+03  0.7546771E-02  0.1067787E+00
        -11   -1    0    0    0    0  0.00000000000E+00  0.00000000000E+00  0.18250000000E+03  0.18250000000E+03  0.00000000000E+00 0.  1.
         11   -1    0    0    0    0 -0.00000000000E+00 -0.00000000000E+00 -0.18250000000E+03  0.18250000000E+03  0.00000000000E+00 0. -1.
        -11    1    1    2    0    0  0.62970798399E+01  0.53801385448E+01  0.18146953186E+03  0.18165844351E+03  0.00000000000E+00 0.  1.
         11    1    1    2    0    0 -0.95377773723E+00  0.14040633805E+01 -0.64634392509E+02  0.64656676229E+02  0.00000000000E+00 0. -1.
        -15    1    1    2    0    0 -0.43676540607E+01 -0.85450037565E+01 -0.11504381452E+03  0.11545705037E+03  0.17770000000E+01 0. -1.
         15    1    1    2    0    0 -0.97564804199E+00  0.17608018312E+01 -0.17913248260E+01  0.32278298937E+01  0.17770000000E+01 0.  1.
</event>
<event>
 6    1  0.1108180E-002  0.1833175E+03  0.7546771E-02  0.1067806E+00
        -11   -1    0    0    0    0  0.00000000000E+00  0.00000000000E+00  0.18250000000E+03  0.18250000000E+03  0.00000000000E+00 0.  1.
         11   -1    0    0    0    0 -0.00000000000E+00 -0.00000000000E+00 -0.18250000000E+03  0.18250000000E+03  0.00000000000E+00 0. -1.
        -11    1    1    2    0    0  0.23344282768E+01  0.93526806152E-02  0.13515847184E+03  0.13517863053E+03  0.00000000000E+00 0.  1.
         11    1    1    2    0    0 -0.58842466348E+01 -0.15171509723E+01 -0.18158087485E+03  0.18168252590E+03  0.00000000000E+00 0. -1.
        -15    1    1    2    0    0  0.36940040212E+01  0.55013105505E+00  0.42942125683E+01  0.59620718268E+01  0.17770000000E+01 0. -1.
         15    1    1    2    0    0 -0.14418566330E+00  0.95766723668E+00  0.42128190440E+02  0.42176771745E+02  0.17770000000E+01 0.  1.
</event>
<event>
 6    1  0.1108180E-002  0.1839267E+03  0.7546771E-02  0.1067325E+00
        -11   -1    0    0    0    0  0.00000000000E+00  0.00000000000E+00  0.18250000000E+03  0.18250000000E+03  0.00000000000E+00 0. -1.
         11   -1    0    0    0    0 -0.00000000000E+00 -0.00000000000E+00 -0.18250000000E+03  0.18250000000E+03  0.00000000000E+00 0.  1.
        -11    1    1    2    0    0  0.37082552162E+01 -0.66513205700E+00  0.17343507413E+03  0.17347598824E+03  0.00000000000E+00 0. -1.
         11    1    1    2    0    0  0.11005838644E+00 -0.33673990680E+01 -0.18104199096E+03  0.18107333868E+03  0.00000000000E+00 0.  1.
        -15    1    1    2    0    0 -0.19406205938E+01  0.12410323020E+01  0.51702456758E+01  0.59325659551E+01  0.17770000000E+01 0. -1.
         15    1    1    2    0    0 -0.18776930088E+01  0.27914988230E+01  0.24366711525E+01  0.45181071279E+01  0.17770000000E+01 0.  1.
</event>
<event>
 6    1  0.1108180E-002  0.1848362E+03  0.7546771E-02  0.1066610E+00
        -11   -1    0    0    0    0  0.00000000000E+00  0.00000000000E+00  0.18250000000E+03  0.18250000000E+03  0.00000000000E+00 0. -1.
         11   -1    0    0    0    0 -0.00000000000E+00 -0.00000000000E+00 -0.18250000000E+03  0.18250000000E+03  0.00000000000E+00 0. -1.
        -11    1    1    2    0    0  0.24847724107E+01  0.42667102333E+01  0.17650623456E+03  0.17657528069E+03  0.00000000000E+00 0. -1.
         11    1    1    2    0    0 -0.29425521909E+01 -0.22677571263E+01 -0.18012552102E+03  0.18016382727E+03  0.00000000000E+00 0. -1.
        -15    1    1    2    0    0  0.17144522534E+01  0.12806048359E+01  0.32941617873E+01  0.43114413084E+01  0.17770000000E+01 0. -1.
         15    1    1    2    0    0 -0.12566724732E+01 -0.32795579429E+01  0.32512466726E+00  0.39494507283E+01  0.17770000000E+01 0.  1.
</event>
<event>
 6    1  0.1108180E-002  0.1833641E+03  0.7546771E-02  0.1067769E+00
        -11   -1    0    0    0    0  0.00000000000E+00  0.00000000000E+00  0.18250000000E+03  0.18250000000E+03  0.00000000000E+00 0. -1.
         11   -1    0    0    0    0 -0.00000000000E+00 -0.00000000000E+00 -0.18250000000E+03  0.18250000000E+03  0.00000000000E+00 0. -1.
        -11    1    1    2    0    0  0.38942701810E+01  0.21965634229E+01  0.76219843548E+02  0.76350866280E+02  0.00000000000E+00 0. -1.
         11    1    1    2    0    0  0.24114631979E+01  0.12070244671E+01 -0.18161592170E+03  0.18163594105E+03  0.00000000000E+00 0. -1.
        -15    1    1    2    0    0 -0.15674663297E+01  0.54241758206E+01  0.16365865642E+02  0.17403388212E+02  0.17770000000E+01 0.  1.
         15    1    1    2    0    0 -0.47382670492E+01 -0.88277637106E+01  0.89030212514E+02  0.89609804463E+02  0.17770000000E+01 0. -1.
</event>
<event>
 6    1  0.1108180E-002  0.1842097E+03  0.7546771E-02  0.1067102E+00
        -11   -1    0    0    0    0  0.00000000000E+00  0.00000000000E+00  0.18250000000E+03  0.18250000000E+03  0.00000000000E+00 0. -1.
         11   -1    0    0    0    0 -0.00000000000E+00 -0.00000000000E+00 -0.18250000000E+03  0.18250000000E+03  0.00000000000E+00 0.  1.
        -11    1    1    2    0    0  0.19293774446E+01 -0.24549316817E+01  0.16267207210E+03  0.16270203511E+03  0.00000000000E+00 0. -1.
         11    1    1    2    0    0  0.64089802197E+01 -0.67402827559E-01 -0.18067669275E+03  0.18079033955E+03  0.00000000000E+00 0.  1.
        -15    1    1    2    0    0 -0.17539414274E+01  0.87900054609E+00  0.11954009420E+02  0.12243570668E+02  0.17770000000E+01 0. -1.
         15    1    1    2    0    0 -0.65844162368E+01  0.16433339632E+01  0.60506112314E+01  0.92640546721E+01  0.17770000000E+01 0.  1.
</event>
<event>
 6    1  0.1108180E-002  0.1839567E+03  0.7546771E-02  0.1067301E+00
        -11   -1    0    0    0    0  0.00000000000E+00  0.00000000000E+00  0.18250000000E+03  0.18250000000E+03  0.00000000000E+00 0. -1.
         11   -1    0    0    0    0 -0.00000000000E+00 -0.00000000000E+00 -0.18250000000E+03  0.18250000000E+03  0.00000000000E+00 0.  1.
        -11    1    1    2    0    0 -0.15162433406E+01 -0.36064330383E+01  0.14962628649E+03  0.14967742302E+03  0.00000000000E+00 0. -1.
         11    1    1    2    0    0  0.13448730330E+01  0.30120852526E+01 -0.18101325669E+03  0.18104331095E+03  0.00000000000E+00 0.  1.
        -15    1    1    2    0    0 -0.53664276166E+00 -0.14547489016E+01 -0.38004125427E+00  0.23888156428E+01  0.17770000000E+01 0. -1.
         15    1    1    2    0    0  0.70801306929E+00  0.20490966873E+01  0.31767011462E+02  0.31890450389E+02  0.17770000000E+01 0. -1.
</event>
<event>
 6    1  0.1108180E-002  0.1845657E+03  0.7546771E-02  0.1066822E+00
        -11   -1    0    0    0    0  0.00000000000E+00  0.00000000000E+00  0.18250000000E+03  0.18250000000E+03  0.00000000000E+00 0. -1.
         11   -1    0    0    0    0 -0.00000000000E+00 -0.00000000000E+00 -0.18250000000E+03  0.18250000000E+03  0.00000000000E+00 0.  1.
        -11    1    1    2    0    0 -0.70415977264E+00  0.20382681964E+01  0.92472682729E+02  0.92497823917E+02  0.00000000000E+00 0. -1.
         11    1    1    2    0    0 -0.60948017604E+01 -0.16087208544E+01 -0.18032420602E+03  0.18043434781E+03  0.00000000000E+00 0.  1.
        -15    1    1    2    0    0  0.47340825943E+01  0.25959586647E+01  0.18609335219E+01  0.59809148106E+01  0.17770000000E+01 0. -1.
         15    1    1    2    0    0  0.20648789387E+01 -0.30255060066E+01  0.85990589771E+02  0.86086913464E+02  0.17770000000E+01 0.  1.
</event>
<event>
 6    1  0.1108180E-002  0.1826857E+03  0.7546771E-02  0.1068307E+00
        -11   -1    0    0    0    0  0.00000000000E+00  0.00000000000E+00  0.18250000000E+03  0.18250000000E+03  0.00000000000E+00 0.  1.
         11   -1    0    0    0    0 -0.00000000000E+00 -0.00000000000E+00 -0.18250000000E+03  0.18250000000E+03  0.00000000000E+00 0. -1.
        -11    1    1    2    0    0  0.41858026048E+01  0.23521863623E+01  0.18225101387E+03  0.18231425007E+03  0.00000000000E+00 0.  1.
         11    1    1    2    0    0  0.44522488453E+00 -0.18591904265E+01 -0.94436703499E+02  0.94456052119E+02  0.00000000000E+00 0. -1.
        -15    1    1    2    0    0  0.78388979324E+00  0.19493990448E+00 -0.43685604576E+02  0.43729192319E+02  0.17770000000E+01 0. -1.
         15    1    1    2    0    0 -0.54149172826E+01 -0.68793584027E+00 -0.44128705792E+02  0.44500505489E+02  0.17770000000E+01 0. -1.
</event>
<event>
 6    1  0.1108180E-002  0.1773293E+03  0.7546771E-02  0.1072647E+00
        -11   -1    0    0    0    0  0.00000000000E+00  0.00000000000E+00  0.18250000000E+03  0.18250000000E+03  0.00000000000E+00 0. -1.
         11   -1    0    0    0    0 -0.00000000000E+00 -0.00000000000E+00 -0.18250000000E+03  0.18250000000E+03  0.00000000000E+00 0. -1.
        -11    1    1    2    0    0 -0.19211540428E+00  0.33961903330E+01  0.17817437419E+03  0.17820684228E+03  0.00000000000E+00 0. -1.
         11    1    1    2    0    0 -0.34959646528E+01  0.12818822098E+01 -0.17646669559E+03  0.17650597623E+03  0.00000000000E+00 0. -1.
        -15    1    1    2    0    0 -0.36851000717E+00  0.74832335712E+00 -0.25657530557E+01  0.32305735118E+01  0.17770000000E+01 0.  1.
         15    1    1    2    0    0  0.40565900643E+01 -0.54263958999E+01  0.85807445786E+00  0.70566079802E+01  0.17770000000E+01 0. -1.
</event>
<event>
 6    1  0.1108180E-002  0.1958329E+03  0.7546771E-02  0.1058311E+00
        -11   -1    0    0    0    0  0.00000000000E+00  0.00000000000E+00  0.18250000000E+03  0.18250000000E+03  0.00000000000E+00 0.  1.
         11   -1    0    0    0    0 -0.00000000000E+00 -0.00000000000E+00 -0.18250000000E+03  0.18250000000E+03  0.00000000000E+00 0.  1.
        -11    1    1    2    0    0 -0.81285477305E+01  0.13222288968E+01  0.16002046034E+03  0.16023223553E+03  0.00000000000E+00 0.  1.
         11    1    1    2    0    0 -0.19648640037E+01 -0.25435858694E+01 -0.16913652717E+03  0.16916706341E+03  0.00000000000E+00 0.  1.
        -15    1    1    2    0    0  0.75795630821E+01 -0.24113999217E+01  0.21146232837E+02  0.22662425251E+02  0.17770000000E+01 0.  1.
         15    1    1    2    0    0  0.25138486521E+01  0.36327568943E+01 -0.12030166003E+02  0.12938275803E+02  0.17770000000E+01 0.  1.
</event>
<event>
 6    1  0.1108180E-002  0.1829219E+03  0.7546771E-02  0.1068119E+00
        -11   -1    0    0    0    0  0.00000000000E+00  0.00000000000E+00  0.18250000000E+03  0.18250000000E+03  0.00000000000E+00 0.  1.
         11   -1    0    0    0    0 -0.00000000000E+00 -0.00000000000E+00 -0.18250000000E+03  0.18250000000E+03  0.00000000000E+00 0.  1.
        -11    1    1    2    0    0  0.12771226310E+01  0.43635799663E+01  0.18202131337E+03  0.18207808873E+03  0.00000000000E+00 0.  1.
         11    1    1    2    0    0  0.33231345546E+01  0.32017395935E+01 -0.10563510819E+03  0.10573585221E+03  0.00000000000E+00 0.  1.
        -15    1    1    2    0    0  0.10643716854E+01 -0.17858045462E+01 -0.22723922920E+02  0.22887909184E+02  0.17770000000E+01 0.  1.
         15    1    1    2    0    0 -0.56646288710E+01 -0.57795150136E+01 -0.53662282259E+02  0.54298149879E+02  0.17770000000E+01 0. -1.
</event>
<event>
 6    1  0.1108180E-002  0.1851374E+03  0.7546771E-02  0.1066375E+00
        -11   -1    0    0    0    0  0.00000000000E+00  0.00000000000E+00  0.18250000000E+03  0.18250000000E+03  0.00000000000E+00 0.  1.
         11   -1    0    0    0    0 -0.00000000000E+00 -0.00000000000E+00 -0.18250000000E+03  0.18250000000E+03  0.00000000000E+00 0.  1.
        -11    1    1    2    0    0  0.24306336140E+00 -0.23732981072E+01  0.16802762663E+03  0.16804456235E+03  0.00000000000E+00 0.  1.
         11    1    1    2    0    0 -0.96628728753E+00  0.26540733422E+01 -0.17984046245E+03  0.17986264135E+03  0.00000000000E+00 0.  1.
        -15    1    1    2    0    0 -0.14865832667E+01  0.24904834887E+01  0.12599483203E+02  0.13050561053E+02  0.17770000000E+01 0.  1.
         15    1    1    2    0    0  0.22098071928E+01 -0.27712587238E+01 -0.78664737788E+00  0.40422352530E+01  0.17770000000E+01 0.  1.
</event>
<event>
 6    1  0.1108180E-002  0.1835958E+03  0.7546771E-02  0.1067586E+00
        -11   -1    0    0    0    0  0.00000000000E+00  0.00000000000E+00  0.18250000000E+03  0.18250000000E+03  0.00000000000E+00 0.  1.
         11   -1    0    0    0    0 -0.00000000000E+00 -0.00000000000E+00 -0.18250000000E+03  0.18250000000E+03  0.00000000000E+00 0. -1.
        -11    1    1    2    0    0  0.19515005483E+01  0.33628726357E+01  0.17033702310E+03  0.17038139190E+03  0.00000000000E+00 0.  1.
         11    1    1    2    0    0 -0.17844096260E+01 -0.42285053793E+01 -0.18134610950E+03  0.18140417802E+03  0.00000000000E+00 0. -1.
        -15    1    1    2    0    0  0.13194271965E+00  0.26983451580E+01  0.99007632373E+01  0.10415436484E+02  0.17770000000E+01 0.  1.
         15    1    1    2    0    0 -0.29903364190E+00 -0.18327124144E+01  0.11083231581E+01  0.27989935933E+01  0.17770000000E+01 0.  1.
</event>
<event>
 6    1  0.1108180E-002  0.2168374E+03  0.7546771E-02  0.1043996E+00
        -11   -1    0    0    0    0  0.00000000000E+00  0.00000000000E+00  0.18250000000E+03  0.18250000000E+03  0.00000000000E+00 0. -1.
         11   -1    0    0    0    0 -0.00000000000E+00 -0.00000000000E+00 -0.18250000000E+03  0.18250000000E+03  0.00000000000E+00 0. -1.
        -11    1    1    2    0    0  0.29321991957E+01 -0.28436546021E+01  0.14810629628E+03  0.14816261054E+03  0.00000000000E+00 0. -1.
         11    1    1    2    0    0 -0.70776802588E+00 -0.41636630741E+01 -0.10896525114E+03  0.10904706774E+03  0.00000000000E+00 0. -1.
        -15    1    1    2    0    0 -0.39479525996E+02  0.30453218525E+02 -0.16121642276E+01  0.49917815396E+02  0.17770000000E+01 0. -1.
         15    1    1    2    0    0  0.37255094826E+02 -0.23445900849E+02 -0.37528880910E+02  0.57872506326E+02  0.17770000000E+01 0.  1.
</event>
<event>
 6    1  0.1108180E-002  0.1829386E+03  0.7546771E-02  0.1068106E+00
        -11   -1    0    0    0    0  0.00000000000E+00  0.00000000000E+00  0.18250000000E+03  0.18250000000E+03  0.00000000000E+00 0. -1.
         11   -1    0    0    0    0 -0.00000000000E+00 -0.00000000000E+00 -0.18250000000E+03  0.18250000000E+03  0.00000000000E+00 0.  1.
        -11    1    1    2    0    0  0.32515419215E+01 -0.13021796938E+01  0.18202766459E+03  0.18206136019E+03  0.00000000000E+00 0. -1.
         11    1    1    2    0    0 -0.24047116463E+01 -0.44173361808E+01 -0.10239741393E+03  0.10252085582E+03  0.00000000000E+00 0.  1.
        -15    1    1    2    0    0  0.16701050968E+01  0.73479139735E+01 -0.54903996409E+02  0.55447160806E+02  0.17770000000E+01 0.  1.
         15    1    1    2    0    0 -0.25169353720E+01 -0.16283980990E+01 -0.24726254250E+02  0.24970623186E+02  0.17770000000E+01 0. -1.
</event>
<event>
 6    1  0.1108180E-002  0.1875744E+03  0.7546771E-02  0.1064486E+00
        -11   -1    0    0    0    0  0.00000000000E+00  0.00000000000E+00  0.18250000000E+03  0.18250000000E+03  0.00000000000E+00 0.  1.
         11   -1    0    0    0    0 -0.00000000000E+00 -0.00000000000E+00 -0.18250000000E+03  0.18250000000E+03  0.00000000000E+00 0. -1.
        -11    1    1    2    0    0 -0.13687525032E+01  0.93761969066E+01  0.17717237360E+03  0.17742558023E+03  0.00000000000E+00 0.  1.
         11    1    1    2    0    0 -0.28581237348E+01  0.62425275442E+00 -0.16615008399E+03  0.16617583751E+03  0.00000000000E+00 0. -1.
        -15    1    1    2    0    0  0.53121139526E+01 -0.23695008413E+01  0.17911984571E+01  0.63402846778E+01  0.17770000000E+01 0.  1.
         15    1    1    2    0    0 -0.10852377146E+01 -0.76309488197E+01 -0.12813488066E+02  0.15058297587E+02  0.17770000000E+01 0. -1.
</event>
<event>
 6    1  0.1108180E-002  0.1828244E+03  0.7546771E-02  0.1068197E+00
        -11   -1    0    0    0    0  0.00000000000E+00  0.00000000000E+00  0.18250000000E+03  0.18250000000E+03  0.00000000000E+00 0. -1.
         11   -1    0    0    0    0 -0.00000000000E+00 -0.00000000000E+00 -0.18250000000E+03  0.18250000000E+03  0.00000000000E+00 0. -1.
        -11    1    1    2    0    0  0.17563324132E+01  0.21633715980E+01  0.18215430200E+03  0.18217561477E+03  0.00000000000E+00 0. -1.
         11    1    1    2    0    0  0.28797170651E+01 -0.72111394546E+00 -0.11141008835E+03  0.11144963240E+03  0.00000000000E+00 0. -1.
        -15    1    1    2    0    0  0.74656975802E+00  0.20442274005E+01 -0.20344530364E+02  0.20537621012E+02  0.17770000000E+01 0. -1.
         15    1    1    2    0    0 -0.53826192363E+01 -0.34864850530E+01 -0.50399683278E+02  0.50837131817E+02  0.17770000000E+01 0. -1.
</event>
<event>
 6    1  0.1108180E-002  0.1845644E+03  0.7546771E-02  0.1066823E+00
        -11   -1    0    0    0    0  0.00000000000E+00  0.00000000000E+00  0.18250000000E+03  0.18250000000E+03  0.00000000000E+00 0. -1.
         11   -1    0    0    0    0 -0.00000000000E+00 -0.00000000000E+00 -0.18250000000E+03  0.18250000000E+03  0.00000000000E+00 0.  1.
        -11    1    1    2    0    0 -0.70816253433E-01 -0.70566435828E+01  0.18029754105E+03  0.18043559666E+03  0.00000000000E+00 0. -1.
         11    1    1    2    0    0 -0.24403475336E+01 -0.19719775465E+01 -0.16441250355E+03  0.16444243769E+03  0.00000000000E+00 0.  1.
        -15    1    1    2    0    0 -0.24476904936E+01  0.30777805646E+01 -0.67750425652E+01  0.80326118241E+01  0.17770000000E+01 0. -1.
         15    1    1    2    0    0  0.49588542806E+01  0.59508405648E+01 -0.91099949371E+01  0.12089353827E+02  0.17770000000E+01 0.  1.
</event>
<event>
 6    1  0.1108180E-002  0.1873675E+03  0.7546771E-02  0.1064645E+00
        -11   -1    0    0    0    0  0.00000000000E+00  0.00000000000E+00  0.18250000000E+03  0.18250000000E+03  0.00000000000E+00 0. -1.
         11   -1    0    0    0    0 -0.00000000000E+00 -0.00000000000E+00 -0.18250000000E+03  0.18250000000E+03  0.00000000000E+00 0.  1.
        -11    1    1    2    0    0  0.53980280564E+00 -0.25822591660E+01  0.15333794420E+03  0.15336063569E+03  0.00000000000E+00 0. -1.
         11    1    1    2    0    0 -0.42532652682E+01  0.46169729829E+01 -0.17752157741E+03  0.17763253404E+03  0.00000000000E+00 0.  1.
        -15    1    1    2    0    0  0.89347408168E+01 -0.15703732305E+01  0.26455329519E+02  0.28023880076E+02  0.17770000000E+01 0.  1.
         15    1    1    2    0    0 -0.52212783543E+01 -0.46434058648E+00 -0.22716963081E+01  0.59829501878E+01  0.17770000000E+01 0. -1.
</event>
<event>
 6    1  0.1108180E-002  0.1856770E+03  0.7546771E-02  0.1065954E+00
        -11   -1    0    0    0    0  0.00000000000E+00  0.00000000000E+00  0.18250000000E+03  0.18250000000E+03  0.00000000000E+00 0.  1.
         11   -1    0    0    0    0 -0.00000000000E+00 -0.00000000000E+00 -0.18250000000E+03  0.18250000000E+03  0.00000000000E+00 0.  1.
        -11    1    1    2    0    0  0.21083825468E+01  0.50406246958E+01  0.15749668062E+03  0.15759142610E+03  0.00000000000E+00 0.  1.
         11    1    1    2    0    0 -0.21891312905E+01 -0.19423317698E+01 -0.17929906759E+03  0.17932295053E+03  0.00000000000E+00 0.  1.
        -15    1    1    2    0    0 -0.10691772227E+01  0.17005433119E+01 -0.22297772059E+01  0.34877819423E+01  0.17770000000E+01 0.  1.
         15    1    1    2    0    0  0.11499259664E+01 -0.47988362378E+01  0.24032164174E+02  0.24597841426E+02  0.17770000000E+01 0. -1.
</event>
<event>
 6    1  0.1108180E-002  0.1855388E+03  0.7546771E-02  0.1066061E+00
        -11   -1    0    0    0    0  0.00000000000E+00  0.00000000000E+00  0.18250000000E+03  0.18250000000E+03  0.00000000000E+00 0.  1.
         11   -1    0    0    0    0 -0.00000000000E+00 -0.00000000000E+00 -0.18250000000E+03  0.18250000000E+03  0.00000000000E+00 0.  1.
        -11    1    1    2    0    0 -0.64871931641E+01  0.13791056214E+02  0.17881283364E+03  0.17946115563E+03  0.00000000000E+00 0.  1.
         11    1    1    2    0    0 -0.70203224938E+00  0.47404235483E+01 -0.14048338327E+03  0.14056509325E+03  0.00000000000E+00 0.  1.
        -15    1    1    2    0    0  0.86273380834E+01 -0.14624970345E+02 -0.21007217713E+02  0.27069939879E+02  0.17770000000E+01 0.  1.
         15    1    1    2    0    0 -0.14381126699E+01 -0.39065094178E+01 -0.17322232651E+02  0.17903811240E+02  0.17770000000E+01 0. -1.
</event>
<event>
 6    1  0.1108180E-002  0.1841896E+03  0.7546771E-02  0.1067118E+00
        -11   -1    0    0    0    0  0.00000000000E+00  0.00000000000E+00  0.18250000000E+03  0.18250000000E+03  0.00000000000E+00 0. -1.
         11   -1    0    0    0    0 -0.00000000000E+00 -0.00000000000E+00 -0.18250000000E+03  0.18250000000E+03  0.00000000000E+00 0. -1.
        -11    1    1    2    0    0  0.21505056764E+01  0.29221741896E+01  0.18077403022E+03  0.18081043603E+03  0.00000000000E+00 0. -1.
         11    1    1    2    0    0 -0.21891272397E+01 -0.88620039885E+00 -0.17269431320E+03  0.17271046129E+03  0.00000000000E+00 0. -1.
        -15    1    1    2    0    0 -0.16783273625E+01 -0.22927278787E+01 -0.83333038455E+01  0.89819299621E+01  0.17770000000E+01 0.  1.
         15    1    1    2    0    0  0.17169489258E+01  0.25675408799E+00  0.25358682341E+00  0.24971727118E+01  0.17770000000E+01 0. -1.
</event>
<event>
 6    1  0.1108180E-002  0.1849771E+03  0.7546771E-02  0.1066500E+00
        -11   -1    0    0    0    0  0.00000000000E+00  0.00000000000E+00  0.18250000000E+03  0.18250000000E+03  0.00000000000E+00 0. -1.
         11   -1    0    0    0    0 -0.00000000000E+00 -0.00000000000E+00 -0.18250000000E+03  0.18250000000E+03  0.00000000000E+00 0.  1.
        -11    1    1    2    0    0  0.55311469038E+01  0.53353864118E+01  0.15234201903E+03  0.15253573581E+03  0.00000000000E+00 0. -1.
         11    1    1    2    0    0  0.58775878118E+01  0.34872460051E+01 -0.17989315919E+03  0.18002293089E+03  0.00000000000E+00 0.  1.
        -15    1    1    2    0    0 -0.10720622896E+00 -0.30343260801E+01  0.25522773208E+01  0.43463175744E+01  0.17770000000E+01 0.  1.
         15    1    1    2    0    0 -0.11301528487E+02 -0.57883063368E+01  0.24998862839E+02  0.28095015725E+02  0.17770000000E+01 0.  1.
</event>
<event>
 6    1  0.1108180E-002  0.1826808E+03  0.7546771E-02  0.1068311E+00
        -11   -1    0    0    0    0  0.00000000000E+00  0.00000000000E+00  0.18250000000E+03  0.18250000000E+03  0.00000000000E+00 0. -1.
         11   -1    0    0    0    0 -0.00000000000E+00 -0.00000000000E+00 -0.18250000000E+03  0.18250000000E+03  0.00000000000E+00 0. -1.
        -11    1    1    2    0    0 -0.91155633595E+00 -0.13476340600E+01  0.11694613462E+03  0.11695745147E+03  0.00000000000E+00 0. -1.
         11    1    1    2    0    0  0.37354109626E+01 -0.22302490335E+01 -0.18226732111E+03  0.18231923555E+03  0.00000000000E+00 0. -1.
        -15    1    1    2    0    0 -0.19015882052E+01  0.15801059685E+01  0.52753965960E+02  0.52841758356E+02  0.17770000000E+01 0.  1.
         15    1    1    2    0    0 -0.92226642149E+00  0.19977771250E+01  0.12567220530E+02  0.12881554629E+02  0.17770000000E+01 0. -1.
</event>
<event>
 6    1  0.1108180E-002  0.1830008E+03  0.7546771E-02  0.1068057E+00
        -11   -1    0    0    0    0  0.00000000000E+00  0.00000000000E+00  0.18250000000E+03  0.18250000000E+03  0.00000000000E+00 0. -1.
         11   -1    0    0    0    0 -0.00000000000E+00 -0.00000000000E+00 -0.18250000000E+03  0.18250000000E+03  0.00000000000E+00 0. -1.
        -11    1    1    2    0    0 -0.18691214465E+01  0.14189847893E+01  0.59559169305E+02  0.59605383827E+02  0.00000000000E+00 0. -1.
         11    1    1    2    0    0  0.10916547597E+02 -0.60628836787E+01 -0.18157027871E+03  0.18199916396E+03  0.00000000000E+00 0. -1.
        -15    1    1    2    0    0 -0.67684468914E+01  0.10058163413E+02  0.85102249203E+02  0.85979817824E+02  0.17770000000E+01 0. -1.
         15    1    1    2    0    0 -0.22789792593E+01 -0.54142645238E+01  0.36908860200E+02  0.37415634394E+02  0.17770000000E+01 0.  1.
</event>
<event>
 6    1  0.1108180E-002  0.1835018E+03  0.7546771E-02  0.1067660E+00
        -11   -1    0    0    0    0  0.00000000000E+00  0.00000000000E+00  0.18250000000E+03  0.18250000000E+03  0.00000000000E+00 0. -1.
         11   -1    0    0    0    0 -0.00000000000E+00 -0.00000000000E+00 -0.18250000000E+03  0.18250000000E+03  0.00000000000E+00 0.  1.
        -11    1    1    2    0    0  0.22649552005E+01 -0.52249053291E+00  0.73544689559E+02  0.73581413283E+02  0.00000000000E+00 0. -1.
         11    1    1    2    0    0 -0.28036546166E+00 -0.26408461048E+01 -0.18147876163E+03  0.18149819171E+03  0.00000000000E+00 0.  1.
        -15    1    1    2    0    0  0.38368864601E+01 -0.36104641032E+01  0.85884036115E+02  0.86063828274E+02  0.17770000000E+01 0. -1.
         15    1    1    2    0    0 -0.58214761989E+01  0.67738007410E+01  0.22050035954E+02  0.23856566731E+02  0.17770000000E+01 0.  1.
</event>
<event>
 6    1  0.1108180E-002  0.1696447E+03  0.7546771E-02  0.1079175E+00
        -11   -1    0    0    0    0  0.00000000000E+00  0.00000000000E+00  0.18250000000E+03  0.18250000000E+03  0.00000000000E+00 0. -1.
         11   -1    0    0    0    0 -0.00000000000E+00 -0.00000000000E+00 -0.18250000000E+03  0.18250000000E+03  0.00000000000E+00 0.  1.
        -11    1    1    2    0    0 -0.21027796911E+01 -0.12457314527E+01  0.16938482095E+03  0.16940245305E+03  0.00000000000E+00 0. -1.
         11    1    1    2    0    0  0.67089694618E+01  0.41490652243E+01 -0.16974761572E+03  0.16993080373E+03  0.00000000000E+00 0.  1.
        -15    1    1    2    0    0 -0.95924341476E+01 -0.10892762247E+01 -0.99226397025E+01  0.13957715545E+02  0.17770000000E+01 0.  1.
         15    1    1    2    0    0  0.49862443769E+01 -0.18140575470E+01  0.10285434471E+02  0.11709027673E+02  0.17770000000E+01 0. -1.
</event>
<event>
 6    1  0.1108180E-002  0.1834636E+03  0.7546771E-02  0.1067690E+00
        -11   -1    0    0    0    0  0.00000000000E+00  0.00000000000E+00  0.18250000000E+03  0.18250000000E+03  0.00000000000E+00 0.  1.
         11   -1    0    0    0    0 -0.00000000000E+00 -0.00000000000E+00 -0.18250000000E+03  0.18250000000E+03  0.00000000000E+00 0. -1.
        -11    1    1    2    0    0 -0.87172562584E+00 -0.25629849963E+01  0.14481709143E+03  0.14484239285E+03  0.00000000000E+00 0.  1.
         11    1    1    2    0    0  0.25843695457E+01  0.11339689271E+01 -0.18151449611E+03  0.18153643477E+03  0.00000000000E+00 0. -1.
        -15    1    1    2    0    0 -0.51741600286E+01 -0.21109915926E+01  0.26566554736E+02  0.27206024647E+02  0.17770000000E+01 0. -1.
         15    1    1    2    0    0  0.34615161087E+01  0.35400076618E+01  0.10130849946E+02  0.11415147727E+02  0.17770000000E+01 0. -1.
</event>
<event>
 6    1  0.1108180E-002  0.1857150E+03  0.7546771E-02  0.1065924E+00
        -11   -1    0    0    0    0  0.00000000000E+00  0.00000000000E+00  0.18250000000E+03  0.18250000000E+03  0.00000000000E+00 0.  1.
         11   -1    0    0    0    0 -0.00000000000E+00 -0.00000000000E+00 -0.18250000000E+03  0.18250000000E+03  0.00000000000E+00 0. -1.
        -11    1    1    2    0    0 -0.21449666293E+01  0.29961631966E+00  0.14529390388E+03  0.14531004493E+03  0.00000000000E+00 0.  1.
         11    1    1    2    0    0 -0.82165576716E+01  0.10537450335E+02 -0.17878632934E+03  0.17928497215E+03  0.00000000000E+00 0. -1.
        -15    1    1    2    0    0  0.12561752955E+02 -0.70514129843E+01  0.32475195128E+02  0.35571281815E+02  0.17770000000E+01 0. -1.
         15    1    1    2    0    0 -0.22002286538E+01 -0.37856536703E+01  0.10172303301E+01  0.48337011063E+01  0.17770000000E+01 0.  1.
</event>
<event>
 6    1  0.1108180E-002  0.1831308E+03  0.7546771E-02  0.1067954E+00
        -11   -1    0    0    0    0  0.00000000000E+00  0.00000000000E+00  0.18250000000E+03  0.18250000000E+03  0.00000000000E+00 0. -1.
         11   -1    0    0    0    0 -0.00000000000E+00 -0.00000000000E+00 -0.18250000000E+03  0.18250000000E+03  0.00000000000E+00 0. -1.
        -11    1    1    2    0    0  0.29348349971E+01  0.46368027364E+01  0.18178638041E+03  0.18186918733E+03  0.00000000000E+00 0. -1.
         11    1    1    2    0    0  0.45124622887E+01 -0.69725393638E+01 -0.98924732128E+02  0.99272761862E+02  0.00000000000E+00 0. -1.
        -15    1    1    2    0    0 -0.37724539110E+01  0.28633276264E+01 -0.14216495672E+02  0.15089616688E+02  0.17770000000E+01 0. -1.
         15    1    1    2    0    0 -0.36748433748E+01 -0.52759099899E+00 -0.68645152610E+02  0.68768434124E+02  0.17770000000E+01 0.  1.
</event>
<event>
 6    1  0.1108180E-002  0.1843079E+03  0.7546771E-02  0.1067025E+00
        -11   -1    0    0    0    0  0.00000000000E+00  0.00000000000E+00  0.18250000000E+03  0.18250000000E+03  0.00000000000E+00 0. -1.
         11   -1    0    0    0    0 -0.00000000000E+00 -0.00000000000E+00 -0.18250000000E+03  0.18250000000E+03  0.00000000000E+00 0.  1.
        -11    1    1    2    0    0  0.43932232539E+01  0.12200929299E+01  0.18063455521E+03  0.18069209051E+03  0.00000000000E+00 0. -1.
         11    1    1    2    0    0  0.33066732224E+01  0.68525010406E+01 -0.11339064826E+03  0.11364563332E+03  0.00000000000E+00 0.  1.
        -15    1    1    2    0    0  0.54462175436E+01  0.33840329612E+00 -0.13477188206E+02  0.14648144363E+02  0.17770000000E+01 0.  1.
         15    1    1    2    0    0 -0.13146114020E+02 -0.84109972666E+01 -0.53766718741E+02  0.56014131806E+02  0.17770000000E+01 0. -1.
</event>
<event>
 6    1  0.1108180E-002  0.1778797E+03  0.7546771E-02  0.1072193E+00
        -11   -1    0    0    0    0  0.00000000000E+00  0.00000000000E+00  0.18250000000E+03  0.18250000000E+03  0.00000000000E+00 0. -1.
         11   -1    0    0    0    0 -0.00000000000E+00 -0.00000000000E+00 -0.18250000000E+03  0.18250000000E+03  0.00000000000E+00 0. -1.
        -11    1    1    2    0    0  0.19785268969E+01  0.17979163882E+01  0.17644768381E+03  0.17646793532E+03  0.00000000000E+00 0. -1.
         11    1    1    2    0    0  0.38021421852E+01  0.18046528261E+01 -0.17931885910E+03  0.17936824213E+03  0.00000000000E+00 0. -1.
        -15    1    1    2    0    0 -0.10864067465E+01  0.48237607864E+00  0.13075895710E+01  0.25060897403E+01  0.17770000000E+01 0.  1.
         15    1    1    2    0    0 -0.46942623356E+01 -0.40849452929E+01  0.15635857160E+01  0.66577328133E+01  0.17770000000E+01 0.  1.
</event>
<event>
 6    1  0.1108180E-002  0.1890111E+03  0.7546771E-02  0.1063387E+00
        -11   -1    0    0    0    0  0.00000000000E+00  0.00000000000E+00  0.18250000000E+03  0.18250000000E+03  0.00000000000E+00 0. -1.
         11   -1    0    0    0    0 -0.00000000000E+00 -0.00000000000E+00 -0.18250000000E+03  0.18250000000E+03  0.00000000000E+00 0.  1.
        -11    1    1    2    0    0 -0.14716690652E+01  0.43482468030E-01  0.10363565052E+03  0.10364610827E+03  0.00000000000E+00 0. -1.
         11    1    1    2    0    0 -0.16789713468E+01  0.27312240528E+01 -0.17595972579E+03  0.17598893042E+03  0.00000000000E+00 0.  1.
        -15    1    1    2    0    0  0.19213438625E+02  0.99763681419E+01  0.52367839478E+02  0.56694201518E+02  0.17770000000E+01 0. -1.
         15    1    1    2    0    0 -0.16062798213E+02 -0.12751074663E+02  0.19956235792E+02  0.28670759799E+02  0.17770000000E+01 0.  1.
</event>
<event>
 6    1  0.1108180E-002  0.1836635E+03  0.7546771E-02  0.1067532E+00
        -11   -1    0    0    0    0  0.00000000000E+00  0.00000000000E+00  0.18250000000E+03  0.18250000000E+03  0.00000000000E+00 0. -1.
         11   -1    0    0    0    0 -0.00000000000E+00 -0.00000000000E+00 -0.18250000000E+03  0.18250000000E+03  0.00000000000E+00 0. -1.
        -11    1    1    2    0    0 -0.35297076661E+00 -0.26895361288E+01  0.18131616981E+03  0.18133645973E+03  0.00000000000E+00 0. -1.
         11    1    1    2    0    0 -0.29199286165E+01  0.19498535435E+01 -0.17104234184E+03  0.17107837565E+03  0.00000000000E+00 0. -1.
        -15    1    1    2    0    0  0.21802100895E+01 -0.18562830074E+00 -0.93234207569E+00  0.29689669326E+01  0.17770000000E+01 0.  1.
         15    1    1    2    0    0  0.10926892936E+01  0.92531088609E+00 -0.93414858966E+01  0.96161976833E+01  0.17770000000E+01 0. -1.
</event>
<event>
 6    1  0.1108180E-002  0.1952612E+03  0.7546771E-02  0.1058728E+00
        -11   -1    0    0    0    0  0.00000000000E+00  0.00000000000E+00  0.18250000000E+03  0.18250000000E+03  0.00000000000E+00 0.  1.
         11   -1    0    0    0    0 -0.00000000000E+00 -0.00000000000E+00 -0.18250000000E+03  0.18250000000E+03  0.00000000000E+00 0. -1.
        -11    1    1    2    0    0 -0.29289277994E+01 -0.28652177809E+01  0.15802177340E+03  0.15807488402E+03  0.00000000000E+00 0.  1.
         11    1    1    2    0    0  0.24145504960E+01 -0.24151948725E+01 -0.16970440006E+03  0.16973875993E+03  0.00000000000E+00 0. -1.
        -15    1    1    2    0    0 -0.75999824976E+01 -0.59096836185E+01 -0.82926464579E+01  0.12830035413E+02  0.17770000000E+01 0. -1.
         15    1    1    2    0    0  0.81143598011E+01  0.11190096272E+02  0.19975273124E+02  0.24356320636E+02  0.17770000000E+01 0.  1.
</event>
<event>
 6    1  0.1108180E-002  0.1846755E+03  0.7546771E-02  0.1066736E+00
        -11   -1    0    0    0    0  0.00000000000E+00  0.00000000000E+00  0.18250000000E+03  0.18250000000E+03  0.00000000000E+00 0.  1.
         11   -1    0    0    0    0 -0.00000000000E+00 -0.00000000000E+00 -0.18250000000E+03  0.18250000000E+03  0.00000000000E+00 0.  1.
        -11    1    1    2    0    0  0.25358528741E+01 -0.83807584859E+00  0.18030469687E+03  0.18032447597E+03  0.00000000000E+00 0.  1.
         11    1    1    2    0    0 -0.27296618581E+01 -0.16774930235E+01 -0.17788073773E+03  0.17790958910E+03  0.00000000000E+00 0.  1.
        -15    1    1    2    0    0  0.10899313201E+01  0.10636849254E+01 -0.33903725241E+01  0.41196760498E+01  0.17770000000E+01 0.  1.
         15    1    1    2    0    0 -0.89612233613E+00  0.14518839467E+01  0.96641338456E+00  0.26462588811E+01  0.17770000000E+01 0. -1.
</event>
<event>
 6    1  0.1108180E-002  0.1874868E+03  0.7546771E-02  0.1064553E+00
        -11   -1    0    0    0    0  0.00000000000E+00  0.00000000000E+00  0.18250000000E+03  0.18250000000E+03  0.00000000000E+00 0. -1.
         11   -1    0    0    0    0 -0.00000000000E+00 -0.00000000000E+00 -0.18250000000E+03  0.18250000000E+03  0.00000000000E+00 0. -1.
        -11    1    1    2    0    0 -0.22270511386E+01 -0.24049831791E+00  0.16378599234E+03  0.16380130917E+03  0.00000000000E+00 0. -1.
         11    1    1    2    0    0  0.89059927054E+01  0.11421062362E+02 -0.17692140175E+03  0.17751321012E+03  0.00000000000E+00 0. -1.
        -15    1    1    2    0    0 -0.46250744761E+01 -0.75391040068E+01  0.15962106668E+02  0.18335102438E+02  0.17770000000E+01 0. -1.
         15    1    1    2    0    0 -0.20538670906E+01 -0.36414600372E+01 -0.28266972630E+01  0.53503782712E+01  0.17770000000E+01 0.  1.
</event>
<event>
 6    1  0.1108180E-002  0.1827226E+03  0.7546771E-02  0.1068278E+00
        -11   -1    0    0    0    0  0.00000000000E+00  0.00000000000E+00  0.18250000000E+03  0.18250000000E+03  0.00000000000E+00 0.  1.
         11   -1    0    0    0    0 -0.00000000000E+00 -0.00000000000E+00 -0.18250000000E+03  0.18250000000E+03  0.00000000000E+00 0. -1.
        -11    1    1    2    0    0  0.87946540087E+01  0.28622353921E+01  0.18204256354E+03  0.18227735260E+03  0.00000000000E+00 0.  1.
         11    1    1    2    0    0 -0.28387608945E+01  0.25569164046E+00 -0.66643533587E+02  0.66704456453E+02  0.00000000000E+00 0. -1.
        -15    1    1    2    0    0 -0.87693230457E+00 -0.12341622206E+01 -0.55457859548E+01  0.60171120573E+01  0.17770000000E+01 0.  1.
         15    1    1    2    0    0 -0.50789608097E+01 -0.18837648120E+01 -0.10985324399E+03  0.11000107889E+03  0.17770000000E+01 0. -1.
</event>
<event>
 6    1  0.1108180E-002  0.1826834E+03  0.7546771E-02  0.1068309E+00
        -11   -1    0    0    0    0  0.00000000000E+00  0.00000000000E+00  0.18250000000E+03  0.18250000000E+03  0.00000000000E+00 0.  1.
         11   -1    0    0    0    0 -0.00000000000E+00 -0.00000000000E+00 -0.18250000000E+03  0.18250000000E+03  0.00000000000E+00 0.  1.
        -11    1    1    2    0    0 -0.42488611170E+01  0.27486647402E+01  0.18224635279E+03  0.18231659575E+03  0.00000000000E+00 0.  1.
         11    1    1    2    0    0 -0.12583545529E+01 -0.16220859299E+01 -0.11481613478E+03  0.11483448709E+03  0.00000000000E+00 0.  1.
        -15    1    1    2    0    0  0.25220304935E+01 -0.68489158367E+00 -0.48123417418E+02  0.48227074836E+02  0.17770000000E+01 0.  1.
         15    1    1    2    0    0  0.29851851764E+01 -0.44168722660E+00 -0.19306800596E+02  0.19621842329E+02  0.17770000000E+01 0. -1.
</event>
<event>
 6    1  0.1108180E-002  0.1846356E+03  0.7546771E-02  0.1066767E+00
        -11   -1    0    0    0    0  0.00000000000E+00  0.00000000000E+00  0.18250000000E+03  0.18250000000E+03  0.00000000000E+00 0. -1.
         11   -1    0    0    0    0 -0.00000000000E+00 -0.00000000000E+00 -0.18250000000E+03  0.18250000000E+03  0.00000000000E+00 0. -1.
        -11    1    1    2    0    0 -0.34494986268E+01 -0.25789842898E+01  0.17295762660E+03  0.17301124473E+03  0.00000000000E+00 0. -1.
         11    1    1    2    0    0 -0.29356889978E+01 -0.43869461589E+00 -0.18033997498E+03  0.18036440141E+03  0.00000000000E+00 0. -1.
        -15    1    1    2    0    0  0.47914479074E+01 -0.26016678427E-01  0.41270306547E+01  0.65687716463E+01  0.17770000000E+01 0. -1.
         15    1    1    2    0    0  0.15937397172E+01  0.30436955841E+01  0.32553177163E+01  0.50555822146E+01  0.17770000000E+01 0.  1.
</event>
<event>
 6    1  0.1108180E-002  0.1879930E+03  0.7546771E-02  0.1064165E+00
        -11   -1    0    0    0    0  0.00000000000E+00  0.00000000000E+00  0.18250000000E+03  0.18250000000E+03  0.00000000000E+00 0.  1.
         11   -1    0    0    0    0 -0.00000000000E+00 -0.00000000000E+00 -0.18250000000E+03  0.18250000000E+03  0.00000000000E+00 0.  1.
        -11    1    1    2    0    0 -0.16471056147E+01 -0.17700818994E+02  0.12492031725E+03  0.12617891112E+03  0.00000000000E+00 0.  1.
         11    1    1    2    0    0  0.28139530436E+01  0.15398690893E+00 -0.17698460440E+03  0.17700704008E+03  0.00000000000E+00 0.  1.
        -15    1    1    2    0    0  0.72272346787E+01  0.72806121060E+00  0.36750292680E+02  0.37503396316E+02  0.17770000000E+01 0.  1.
         15    1    1    2    0    0 -0.83940821076E+01  0.16818770875E+02  0.15313994475E+02  0.24310652479E+02  0.17770000000E+01 0. -1.
</event>
<event>
 6    1  0.1108180E-002  0.1839984E+03  0.7546771E-02  0.1067268E+00
        -11   -1    0    0    0    0  0.00000000000E+00  0.00000000000E+00  0.18250000000E+03  0.18250000000E+03  0.00000000000E+00 0.  1.
         11   -1    0    0    0    0 -0.00000000000E+00 -0.00000000000E+00 -0.18250000000E+03  0.18250000000E+03  0.00000000000E+00 0. -1.
        -11    1    1    2    0    0  0.23226686913E+00  0.43246091593E+01  0.18094981291E+03  0.18100163255E+03  0.00000000000E+00 0.  1.
         11    1    1    2    0    0  0.32531805371E+01 -0.70955630110E-01 -0.16560039627E+03  0.16563236237E+03  0.00000000000E+00 0. -1.
        -15    1    1    2    0    0 -0.38395509174E+01 -0.32007054361E+01 -0.35532673232E+01  0.63851471562E+01  0.17770000000E+01 0. -1.
         15    1    1    2    0    0  0.35410351113E+00 -0.10529480931E+01 -0.11796149316E+02  0.11980857927E+02  0.17770000000E+01 0.  1.
</event>
<event>
 6    1  0.1108180E-002  0.1940371E+03  0.7546771E-02  0.1059625E+00
        -11   -1    0    0    0    0  0.00000000000E+00  0.00000000000E+00  0.18250000000E+03  0.18250000000E+03  0.00000000000E+00 0. -1.
         11   -1    0    0    0    0 -0.00000000000E+00 -0.00000000000E+00 -0.18250000000E+03  0.18250000000E+03  0.00000000000E+00 0. -1.
        -11    1    1    2    0    0  0.71494150758E+01 -0.53312537212E+00  0.17081253040E+03  0.17096291674E+03  0.00000000000E+00 0. -1.
         11    1    1    2    0    0  0.15232030242E+01  0.22354330601E+01 -0.14950782247E+03  0.14953229179E+03  0.00000000000E+00 0. -1.
        -15    1    1    2    0    0 -0.55640938495E+01 -0.15542292174E+02 -0.24746654553E+02  0.29800614540E+02  0.17770000000E+01 0.  1.
         15    1    1    2    0    0 -0.31085242505E+01  0.13839984487E+02  0.34419466276E+01  0.14704176930E+02  0.17770000000E+01 0. -1.
</event>
<event>
 6    1  0.1108180E-002  0.1840004E+03  0.7546771E-02  0.1067267E+00
        -11   -1    0    0    0    0  0.00000000000E+00  0.00000000000E+00  0.18250000000E+03  0.18250000000E+03  0.00000000000E+00 0. -1.
         11   -1    0    0    0    0 -0.00000000000E+00 -0.00000000000E+00 -0.18250000000E+03  0.18250000000E+03  0.00000000000E+00 0. -1.
        -11    1    1    2    0    0 -0.85464783883E+00  0.32422123040E+01  0.18096856802E+03  0.18099962700E+03  0.00000000000E+00 0. -1.
         11    1    1    2    0    0 -0.69783993198E+00  0.38274596032E+01 -0.14882543618E+03  0.14887628045E+03  0.00000000000E+00 0. -1.
        -15    1    1    2    0    0 -0.35112568406E+00 -0.50991389427E+01 -0.31282309100E+02  0.31746891168E+02  0.17770000000E+01 0. -1.
         15    1    1    2    0    0  0.19036134549E+01 -0.19705329645E+01 -0.86082274138E+00  0.33772013772E+01  0.17770000000E+01 0.  1.
</event>
<event>
 6    1  0.1108180E-002  0.1863455E+03  0.7546771E-02  0.1065434E+00
        -11   -1    0    0    0    0  0.00000000000E+00  0.00000000000E+00  0.18250000000E+03  0.18250000000E+03  0.00000000000E+00 0. -1.
         11   -1    0    0    0    0 -0.00000000000E+00 -0.00000000000E+00 -0.18250000000E+03  0.18250000000E+03  0.00000000000E+00 0.  1.
        -11    1    1    2    0    0  0.33580421703E+01  0.53601683770E+01  0.17854253281E+03  0.17865453779E+03  0.00000000000E+00 0. -1.
         11    1    1    2    0    0 -0.66243023655E+01 -0.45234396943E+00 -0.74818318482E+02  0.75112361016E+02  0.00000000000E+00 0.  1.
        -15    1    1    2    0    0 -0.40081892950E+01 -0.24205742416E+01  0.18688949762E+01  0.53455830847E+01  0.17770000000E+01 0. -1.
         15    1    1    2    0    0  0.72744494902E+01 -0.24872501660E+01 -0.10559310930E+03  0.10588751810E+03  0.17770000000E+01 0.  1.
</event>
<event>
 6    1  0.1108180E-002  0.1829332E+03  0.7546771E-02  0.1068110E+00
        -11   -1    0    0    0    0  0.00000000000E+00  0.00000000000E+00  0.18250000000E+03  0.18250000000E+03  0.00000000000E+00 0.  1.
         11   -1    0    0    0    0 -0.00000000000E+00 -0.00000000000E+00 -0.18250000000E+03  0.18250000000E+03  0.00000000000E+00 0. -1.
        -11    1    1    2    0    0 -0.35754270564E+01 -0.32930125315E+01  0.18200189505E+03  0.18206679382E+03  0.00000000000E+00 0.  1.
         11    1    1    2    0    0 -0.16522911518E+01  0.23295167020E+01 -0.15538913823E+03  0.15541538210E+03  0.00000000000E+00 0. -1.
        -15    1    1    2    0    0  0.11337231182E+01 -0.14006369766E+00 -0.51168465815E+01  0.55357740097E+01  0.17770000000E+01 0. -1.
         15    1    1    2    0    0  0.40939950900E+01  0.11035595273E+01 -0.21495910239E+02  0.21982050073E+02  0.17770000000E+01 0. -1.
</event>
<event>
 6    1  0.1108180E-002  0.1857281E+03  0.7546771E-02  0.1065914E+00
        -11   -1    0    0    0    0  0.00000000000E+00  0.00000000000E+00  0.18250000000E+03  0.18250000000E+03  0.00000000000E+00 0. -1.
         11   -1    0    0    0    0 -0.00000000000E+00 -0.00000000000E+00 -0.18250000000E+03  0.18250000000E+03  0.00000000000E+00 0.  1.
        -11    1    1    2    0    0 -0.22447639050E+01  0.53246123632E+01  0.17409538690E+03  0.17419125753E+03  0.00000000000E+00 0. -1.
         11    1    1    2    0    0  0.43519537644E+01 -0.11345463165E+01 -0.17921551326E+03  0.17927193559E+03  0.00000000000E+00 0.  1.
        -15    1    1    2    0    0 -0.35337772151E+01 -0.12180007931E+00 -0.76263513412E+00  0.40301064519E+01  0.17770000000E+01 0. -1.
         15    1    1    2    0    0  0.14265873557E+01 -0.40682659674E+01  0.58827614984E+01  0.75067004277E+01  0.17770000000E+01 0.  1.
</event>
<event>
 6    1  0.1108180E-002  0.1807573E+03  0.7546771E-02  0.1069851E+00
        -11   -1    0    0    0    0  0.00000000000E+00  0.00000000000E+00  0.18250000000E+03  0.18250000000E+03  0.00000000000E+00 0.  1.
         11   -1    0    0    0    0 -0.00000000000E+00 -0.00000000000E+00 -0.18250000000E+03  0.18250000000E+03  0.00000000000E+00 0. -1.
        -11    1    1    2    0    0 -0.79257293787E+00 -0.68928608975E+00  0.38577620262E+01  0.39982014740E+01  0.00000000000E+00 0.  1.
         11    1    1    2    0    0  0.30576810086E+01 -0.11652342306E+01 -0.18213272907E+03  0.18216212061E+03  0.00000000000E+00 0. -1.
        -15    1    1    2    0    0  0.79246559459E+00 -0.56114499575E+01  0.75337687077E+02  0.75571431080E+02  0.17770000000E+01 0. -1.
         15    1    1    2    0    0 -0.30575736653E+01  0.74659702778E+01  0.10293727997E+03  0.10326824684E+03  0.17770000000E+01 0.  1.
</event>
<event>
 6    1  0.1108180E-002  0.1826488E+03  0.7546771E-02  0.1068336E+00
        -11   -1    0    0    0    0  0.00000000000E+00  0.00000000000E+00  0.18250000000E+03  0.18250000000E+03  0.00000000000E+00 0. -1.
         11   -1    0    0    0    0 -0.00000000000E+00 -0.00000000000E+00 -0.18250000000E+03  0.18250000000E+03  0.00000000000E+00 0.  1.
        -11    1    1    2    0    0 -0.31653573299E+01  0.12316868356E+01  0.77586962388E+02  0.77661272666E+02  0.00000000000E+00 0. -1.
         11    1    1    2    0    0  0.47539912391E+01  0.43070998513E+00 -0.18228872168E+03  0.18235121057E+03  0.00000000000E+00 0.  1.
        -15    1    1    2    0    0 -0.20938685078E+01  0.16737143566E+01  0.26767839021E+02  0.26960351257E+02  0.17770000000E+01 0.  1.
         15    1    1    2    0    0  0.50523459855E+00 -0.33361111774E+01  0.77933920270E+02  0.78027165510E+02  0.17770000000E+01 0. -1.
</event>
<event>
 6    1  0.1108180E-002  0.1831999E+03  0.7546771E-02  0.1067899E+00
        -11   -1    0    0    0    0  0.00000000000E+00  0.00000000000E+00  0.18250000000E+03  0.18250000000E+03  0.00000000000E+00 0.  1.
         11   -1    0    0    0    0 -0.00000000000E+00 -0.00000000000E+00 -0.18250000000E+03  0.18250000000E+03  0.00000000000E+00 0.  1.
        -11    1    1    2    0    0 -0.24673037469E+00 -0.27132467040E+01  0.18177965776E+03  0.18180007304E+03  0.00000000000E+00 0.  1.
         11    1    1    2    0    0  0.40432758710E+01 -0.13879298476E+01 -0.96069343603E+02  0.96164407186E+02  0.00000000000E+00 0.  1.
        -15    1    1    2    0    0 -0.85858549596E+01  0.38064928436E+01 -0.65181921015E+02  0.65879031940E+02  0.17770000000E+01 0.  1.
         15    1    1    2    0    0  0.47893094632E+01  0.29468370792E+00 -0.20528393138E+02  0.21156487833E+02  0.17770000000E+01 0. -1.
</event>
<event>
 6    1  0.1108180E-002  0.1876895E+03  0.7546771E-02  0.1064397E+00
        -11   -1    0    0    0    0  0.00000000000E+00  0.00000000000E+00  0.18250000000E+03  0.18250000000E+03  0.00000000000E+00 0. -1.
         11   -1    0    0    0    0 -0.00000000000E+00 -0.00000000000E+00 -0.18250000000E+03  0.18250000000E+03  0.00000000000E+00 0. -1.
        -11    1    1    2    0    0  0.55301931857E+01  0.63560156675E+01  0.17711020834E+03  0.17731048437E+03  0.00000000000E+00 0. -1.
         11    1    1    2    0    0 -0.56441577104E+01 -0.75050048704E+00 -0.16616860761E+03  0.16626612981E+03  0.00000000000E+00 0. -1.
        -15    1    1    2    0    0  0.50471515113E+01 -0.74507228098E+01 -0.25045371518E-01  0.91730782749E+01  0.17770000000E+01 0.  1.
         15    1    1    2    0    0 -0.49331869866E+01  0.18452076293E+01 -0.10916555359E+02  0.12250307545E+02  0.17770000000E+01 0. -1.
</event>
<event>
 6    1  0.1108180E-002  0.1842636E+03  0.7546771E-02  0.1067060E+00
        -11   -1    0    0    0    0  0.00000000000E+00  0.00000000000E+00  0.18250000000E+03  0.18250000000E+03  0.00000000000E+00 0.  1.
         11   -1    0    0    0    0 -0.00000000000E+00 -0.00000000000E+00 -0.18250000000E+03  0.18250000000E+03  0.00000000000E+00 0.  1.
        -11    1    1    2    0    0 -0.21887645387E+01 -0.26546319350E+01  0.18070366548E+03  0.18073641714E+03  0.00000000000E+00 0.  1.
         11    1    1    2    0    0  0.11691378456E+01  0.12837836450E+01 -0.75302981207E+02  0.75322997567E+02  0.00000000000E+00 0.  1.
        -15    1    1    2    0    0 -0.22121221966E+01  0.49941514906E+01 -0.31340004986E+01  0.65432959469E+01  0.17770000000E+01 0. -1.
         15    1    1    2    0    0  0.32317488897E+01 -0.36233032006E+01 -0.10226668378E+03  0.10239728935E+03  0.17770000000E+01 0.  1.
</event>
<event>
 6    1  0.1108180E-002  0.1847267E+03  0.7546771E-02  0.1066696E+00
        -11   -1    0    0    0    0  0.00000000000E+00  0.00000000000E+00  0.18250000000E+03  0.18250000000E+03  0.00000000000E+00 0.  1.
         11   -1    0    0    0    0 -0.00000000000E+00 -0.00000000000E+00 -0.18250000000E+03  0.18250000000E+03  0.00000000000E+00 0.  1.
        -11    1    1    2    0    0 -0.25265628310E+01 -0.11866169212E+01  0.18025169367E+03  0.18027330543E+03  0.00000000000E+00 0.  1.
         11    1    1    2    0    0  0.82196029574E+00 -0.23463561818E+01 -0.10756740777E+03  0.10759613478E+03  0.00000000000E+00 0.  1.
        -15    1    1    2    0    0 -0.16031202959E+01  0.28422897192E+01  0.58536116759E+00  0.37615132896E+01  0.17770000000E+01 0. -1.
         15    1    1    2    0    0  0.33077228311E+01  0.69068338377E+00 -0.73269647070E+02  0.73369046502E+02  0.17770000000E+01 0.  1.
</event>
<event>
 6    1  0.1108180E-002  0.1825944E+03  0.7546771E-02  0.1068380E+00
        -11   -1    0    0    0    0  0.00000000000E+00  0.00000000000E+00  0.18250000000E+03  0.18250000000E+03  0.00000000000E+00 0. -1.
         11   -1    0    0    0    0 -0.00000000000E+00 -0.00000000000E+00 -0.18250000000E+03  0.18250000000E+03  0.00000000000E+00 0. -1.
        -11    1    1    2    0    0 -0.78438756426E+00  0.19552734918E+01  0.84878113752E+02  0.84904255207E+02  0.00000000000E+00 0. -1.
         11    1    1    2    0    0  0.24818181953E+01  0.13732863660E+01 -0.18238357612E+03  0.18240563087E+03  0.00000000000E+00 0. -1.
        -15    1    1    2    0    0  0.20299020088E+00 -0.28231265611E+01  0.51400947258E+02  0.51509478318E+02  0.17770000000E+01 0. -1.
         15    1    1    2    0    0 -0.19004208319E+01 -0.50543329667E+00  0.46104515108E+02  0.46180635601E+02  0.17770000000E+01 0.  1.
</event>
<event>
 6    1  0.1108180E-002  0.1866117E+03  0.7546771E-02  0.1065228E+00
        -11   -1    0    0    0    0  0.00000000000E+00  0.00000000000E+00  0.18250000000E+03  0.18250000000E+03  0.00000000000E+00 0.  1.
         11   -1    0    0    0    0 -0.00000000000E+00 -0.00000000000E+00 -0.18250000000E+03  0.18250000000E+03  0.00000000000E+00 0. -1.
        -11    1    1    2    0    0 -0.87129610997E+00  0.63012925896E+01  0.13902180807E+03  0.13916726830E+03  0.00000000000E+00 0.  1.
         11    1    1    2    0    0 -0.34733374796E+01 -0.99389430081E+00 -0.17835176211E+03  0.17838834869E+03  0.00000000000E+00 0. -1.
        -15    1    1    2    0    0  0.77016890160E+01 -0.13598192262E+02  0.32313374198E+02  0.35937984467E+02  0.17770000000E+01 0.  1.
         15    1    1    2    0    0 -0.33570554265E+01  0.82907939732E+01  0.70165798433E+01  0.11506398548E+02  0.17770000000E+01 0.  1.
</event>
<event>
 6    1  0.1108180E-002  0.1852671E+03  0.7546771E-02  0.1066273E+00
        -11   -1    0    0    0    0  0.00000000000E+00  0.00000000000E+00  0.18250000000E+03  0.18250000000E+03  0.00000000000E+00 0.  1.
         11   -1    0    0    0    0 -0.00000000000E+00 -0.00000000000E+00 -0.18250000000E+03  0.18250000000E+03  0.00000000000E+00 0. -1.
        -11    1    1    2    0    0  0.27904299020E+01  0.34563235264E+01  0.17967799964E+03  0.17973290246E+03  0.00000000000E+00 0.  1.
         11    1    1    2    0    0 -0.42444839401E+01 -0.46065606299E+00 -0.97325601682E+02  0.97419200319E+02  0.00000000000E+00 0. -1.
        -15    1    1    2    0    0  0.10969859459E+02 -0.25394438936E+01 -0.74521696668E+02  0.75388511029E+02  0.17770000000E+01 0. -1.
         15    1    1    2    0    0 -0.95158054211E+01 -0.45622356978E+00 -0.78307012869E+01  0.12459386197E+02  0.17770000000E+01 0.  1.
</event>
<event>
 6    1  0.1108180E-002  0.1843655E+03  0.7546771E-02  0.1066979E+00
        -11   -1    0    0    0    0  0.00000000000E+00  0.00000000000E+00  0.18250000000E+03  0.18250000000E+03  0.00000000000E+00 0. -1.
         11   -1    0    0    0    0 -0.00000000000E+00 -0.00000000000E+00 -0.18250000000E+03  0.18250000000E+03  0.00000000000E+00 0. -1.
        -11    1    1    2    0    0  0.25781590049E+01  0.12229269535E+01  0.18061194143E+03  0.18063448131E+03  0.00000000000E+00 0. -1.
         11    1    1    2    0    0 -0.18562461695E+00  0.35302692526E+01 -0.16525673419E+03  0.16529454151E+03  0.00000000000E+00 0. -1.
        -15    1    1    2    0    0 -0.42497996062E+01 -0.40380324226E+01 -0.15212002067E+02  0.16399062121E+02  0.17770000000E+01 0. -1.
         15    1    1    2    0    0  0.18572652182E+01 -0.71516378347E+00 -0.14320516343E+00  0.26719150523E+01  0.17770000000E+01 0. -1.
</event>
<event>
 6    1  0.1108180E-002  0.1842654E+03  0.7546771E-02  0.1067058E+00
        -11   -1    0    0    0    0  0.00000000000E+00  0.00000000000E+00  0.18250000000E+03  0.18250000000E+03  0.00000000000E+00 0. -1.
         11   -1    0    0    0    0 -0.00000000000E+00 -0.00000000000E+00 -0.18250000000E+03  0.18250000000E+03  0.00000000000E+00 0. -1.
        -11    1    1    2    0    0  0.58918098886E+00  0.11586837061E+02  0.18036188547E+03  0.18073464432E+03  0.00000000000E+00 0. -1.
         11    1    1    2    0    0 -0.24799539577E+00 -0.29830722085E+01 -0.15078463197E+03  0.15081434103E+03  0.00000000000E+00 0. -1.
        -15    1    1    2    0    0  0.19467708929E+01  0.11392887692E+00 -0.20025675983E+02  0.20198720857E+02  0.17770000000E+01 0.  1.
         15    1    1    2    0    0 -0.22879564860E+01 -0.87176937293E+01 -0.95515775112E+01  0.13252293794E+02  0.17770000000E+01 0.  1.
</event>
<event>
 6    1  0.1108180E-002  0.1904527E+03  0.7546771E-02  0.1062295E+00
        -11   -1    0    0    0    0  0.00000000000E+00  0.00000000000E+00  0.18250000000E+03  0.18250000000E+03  0.00000000000E+00 0.  1.
         11   -1    0    0    0    0 -0.00000000000E+00 -0.00000000000E+00 -0.18250000000E+03  0.18250000000E+03  0.00000000000E+00 0. -1.
        -11    1    1    2    0    0 -0.12253482239E+02 -0.60940273257E+01  0.17400998611E+03  0.17454730093E+03  0.00000000000E+00 0.  1.
         11    1    1    2    0    0  0.56109523142E+01 -0.23228635286E+01 -0.14230477748E+03  0.14243429424E+03  0.00000000000E+00 0. -1.
        -15    1    1    2    0    0  0.81244142852E+01  0.88563372996E+01 -0.38739746325E+02  0.40600079953E+02  0.17770000000E+01 0. -1.
         15    1    1    2    0    0 -0.14818843600E+01 -0.43944644530E+00  0.70345377007E+01  0.74183248848E+01  0.17770000000E+01 0.  1.
</event>
<event>
 6    1  0.1108180E-002  0.1868205E+03  0.7546771E-02  0.1065067E+00
        -11   -1    0    0    0    0  0.00000000000E+00  0.00000000000E+00  0.18250000000E+03  0.18250000000E+03  0.00000000000E+00 0. -1.
         11   -1    0    0    0    0 -0.00000000000E+00 -0.00000000000E+00 -0.18250000000E+03  0.18250000000E+03  0.00000000000E+00 0.  1.
        -11    1    1    2    0    0 -0.44910761189E+01 -0.82343518872E+01  0.17793250100E+03  0.17817954212E+03  0.00000000000E+00 0. -1.
         11    1    1    2    0    0  0.33304823917E+01  0.38770275812E+01 -0.17498689019E+03  0.17506151831E+03  0.00000000000E+00 0.  1.
        -15    1    1    2    0    0  0.46576890533E+01  0.53699295140E+01 -0.20722559999E+01  0.76146033535E+01  0.17770000000E+01 0.  1.
         15    1    1    2    0    0 -0.34970953260E+01 -0.10126052079E+01 -0.87335481376E+00  0.41443362143E+01  0.17770000000E+01 0. -1.
</event>
<event>
 6    1  0.1108180E-002  0.1844445E+03  0.7546771E-02  0.1066917E+00
        -11   -1    0    0    0    0  0.00000000000E+00  0.00000000000E+00  0.18250000000E+03  0.18250000000E+03  0.00000000000E+00 0. -1.
         11   -1    0    0    0    0 -0.00000000000E+00 -0.00000000000E+00 -0.18250000000E+03  0.18250000000E+03  0.00000000000E+00 0. -1.
        -11    1    1    2    0    0  0.28543524391E+01  0.11790043263E+01  0.14781488226E+03  0.14784713997E+03  0.00000000000E+00 0. -1.
         11    1    1    2    0    0  0.36314739671E+01 -0.65403944299E+01 -0.18040045835E+03  0.18055550320E+03  0.00000000000E+00 0. -1.
        -15    1    1    2    0    0 -0.80782752684E+01 -0.11553854879E+01  0.24796081489E+02  0.26164801416E+02  0.17770000000E+01 0. -1.
         15    1    1    2    0    0  0.15924488621E+01  0.65167755915E+01  0.77894946001E+01  0.10432555421E+02  0.17770000000E+01 0.  1.
</event>
<event>
 6    1  0.1108180E-002  0.1879475E+03  0.7546771E-02  0.1064199E+00
        -11   -1    0    0    0    0  0.00000000000E+00  0.00000000000E+00  0.18250000000E+03  0.18250000000E+03  0.00000000000E+00 0. -1.
         11   -1    0    0    0    0 -0.00000000000E+00 -0.00000000000E+00 -0.18250000000E+03  0.18250000000E+03  0.00000000000E+00 0.  1.
        -11    1    1    2    0    0  0.43786562792E+01  0.24495342378E+01  0.17698139353E+03  0.17705249647E+03  0.00000000000E+00 0. -1.
         11    1    1    2    0    0  0.25720041532E+00 -0.30709872375E+01 -0.16244783020E+03  0.16247705885E+03  0.00000000000E+00 0.  1.
        -15    1    1    2    0    0 -0.25194467587E+01  0.12621681045E+01 -0.19482950059E+02  0.19765721648E+02  0.17770000000E+01 0. -1.
         15    1    1    2    0    0 -0.21164099359E+01 -0.64071510484E+00  0.49493867294E+01  0.57047230309E+01  0.17770000000E+01 0. -1.
</event>
<event>
 6    1  0.1108180E-002  0.1828427E+03  0.7546771E-02  0.1068182E+00
        -11   -1    0    0    0    0  0.00000000000E+00  0.00000000000E+00  0.18250000000E+03  0.18250000000E+03  0.00000000000E+00 0.  1.
         11   -1    0    0    0    0 -0.00000000000E+00 -0.00000000000E+00 -0.18250000000E+03  0.18250000000E+03  0.00000000000E+00 0.  1.
        -11    1    1    2    0    0  0.25271640894E+01 -0.17801862968E+01  0.18213102508E+03  0.18215725601E+03  0.00000000000E+00 0.  1.
         11    1    1    2    0    0 -0.31468852491E+01 -0.19979044814E-01 -0.14428507692E+03  0.14431939131E+03  0.00000000000E+00 0.  1.
        -15    1    1    2    0    0  0.17248272680E+01 -0.14635229654E+01 -0.23013992879E+02  0.23193070642E+02  0.17770000000E+01 0.  1.
         15    1    1    2    0    0 -0.11051061083E+01  0.32636883070E+01 -0.14831955285E+02  0.15330282040E+02  0.17770000000E+01 0.  1.
</event>
<event>
 6    1  0.1108180E-002  0.1825937E+03  0.7546771E-02  0.1068380E+00
        -11   -1    0    0    0    0  0.00000000000E+00  0.00000000000E+00  0.18250000000E+03  0.18250000000E+03  0.00000000000E+00 0. -1.
         11   -1    0    0    0    0 -0.00000000000E+00 -0.00000000000E+00 -0.18250000000E+03  0.18250000000E+03  0.00000000000E+00 0. -1.
        -11    1    1    2    0    0 -0.16675224466E-02  0.27238956427E+01  0.18238591316E+03  0.18240625244E+03  0.00000000000E+00 0. -1.
         11    1    1    2    0    0  0.74111084508E+00 -0.12414167357E+01 -0.25528078415E+02  0.25568988020E+02  0.00000000000E+00 0. -1.
        -15    1    1    2    0    0 -0.24072612587E+01 -0.22344860924E+01 -0.12799290403E+03  0.12804737032E+03  0.17770000000E+01 0. -1.
         15    1    1    2    0    0  0.16678179361E+01  0.75200718546E+00 -0.28864930717E+02  0.28977389216E+02  0.17770000000E+01 0.  1.
</event>
<event>
 6    1  0.1108180E-002  0.1774173E+03  0.7546771E-02  0.1072574E+00
        -11   -1    0    0    0    0  0.00000000000E+00  0.00000000000E+00  0.18250000000E+03  0.18250000000E+03  0.00000000000E+00 0.  1.
         11   -1    0    0    0    0 -0.00000000000E+00 -0.00000000000E+00 -0.18250000000E+03  0.18250000000E+03  0.00000000000E+00 0. -1.
        -11    1    1    2    0    0  0.40023784255E+01 -0.34521785881E+01  0.17764665223E+03  0.17772526444E+03  0.00000000000E+00 0.  1.
         11    1    1    2    0    0  0.34975220089E+01  0.74926658717E+00 -0.17716317045E+03  0.17719927490E+03  0.00000000000E+00 0. -1.
        -15    1    1    2    0    0 -0.55367573275E+01  0.22809822968E+01 -0.24922142998E+01  0.67251336833E+01  0.17770000000E+01 0.  1.
         15    1    1    2    0    0 -0.19631431068E+01  0.42192970414E+00  0.20087325208E+01  0.33503269801E+01  0.17770000000E+01 0. -1.
</event>
<event>
 6    1  0.1108180E-002  0.1865692E+03  0.7546771E-02  0.1065261E+00
        -11   -1    0    0    0    0  0.00000000000E+00  0.00000000000E+00  0.18250000000E+03  0.18250000000E+03  0.00000000000E+00 0. -1.
         11   -1    0    0    0    0 -0.00000000000E+00 -0.00000000000E+00 -0.18250000000E+03  0.18250000000E+03  0.00000000000E+00 0. -1.
        -11    1    1    2    0    0  0.21471092805E+01 -0.46930891956E+01  0.17835619654E+03  0.17843084937E+03  0.00000000000E+00 0. -1.
         11    1    1    2    0    0 -0.73190030487E+01 -0.12930252064E+01 -0.16413822504E+03  0.16430641083E+03  0.00000000000E+00 0. -1.
        -15    1    1    2    0    0  0.80201664378E+01 -0.15489708104E+01 -0.98819641331E+01  0.12943466475E+02  0.17770000000E+01 0.  1.
         15    1    1    2    0    0 -0.28482726696E+01  0.75350852125E+01 -0.43360073655E+01  0.93192733211E+01  0.17770000000E+01 0. -1.
</event>
<event>
 6    1  0.1108180E-002  0.1828078E+03  0.7546771E-02  0.1068210E+00
        -11   -1    0    0    0    0  0.00000000000E+00  0.00000000000E+00  0.18250000000E+03  0.18250000000E+03  0.00000000000E+00 0. -1.
         11   -1    0    0    0    0 -0.00000000000E+00 -0.00000000000E+00 -0.18250000000E+03  0.18250000000E+03  0.00000000000E+00 0.  1.
        -11    1    1    2    0    0  0.19397858942E+01  0.51293951328E+00  0.40476599440E+02  0.40526299837E+02  0.00000000000E+00 0. -1.
         11    1    1    2    0    0  0.15220766483E+01 -0.63725959206E+01 -0.18207436332E+03  0.18219220750E+03  0.00000000000E+00 0.  1.
        -15    1    1    2    0    0 -0.38710787262E+01  0.13595457594E+01  0.12231845955E+03  0.12240015070E+03  0.17770000000E+01 0. -1.
         15    1    1    2    0    0  0.40921618367E+00  0.45001106479E+01  0.19279304331E+02  0.19881341962E+02  0.17770000000E+01 0.  1.
</event>
<event>
 6    1  0.1108180E-002  0.1865830E+03  0.7546771E-02  0.1065250E+00
        -11   -1    0    0    0    0  0.00000000000E+00  0.00000000000E+00  0.18250000000E+03  0.18250000000E+03  0.00000000000E+00 0. -1.
         11   -1    0    0    0    0 -0.00000000000E+00 -0.00000000000E+00 -0.18250000000E+03  0.18250000000E+03  0.00000000000E+00 0. -1.
        -11    1    1    2    0    0 -0.56070932650E+01 -0.36329650243E+01  0.17829183480E+03  0.17841697309E+03  0.00000000000E+00 0. -1.
         11    1    1    2    0    0  0.11053481867E+01 -0.30895450246E+01 -0.15952633655E+03  0.15956008002E+03  0.00000000000E+00 0. -1.
        -15    1    1    2    0    0  0.96316624935E+00  0.10471362531E+02 -0.41853754371E+01  0.11456536084E+02  0.17770000000E+01 0.  1.
         15    1    1    2    0    0  0.35385788289E+01 -0.37488524824E+01 -0.14580122814E+02  0.15566410804E+02  0.17770000000E+01 0. -1.
</event>
<event>
 6    1  0.1108180E-002  0.1852975E+03  0.7546771E-02  0.1066250E+00
        -11   -1    0    0    0    0  0.00000000000E+00  0.00000000000E+00  0.18250000000E+03  0.18250000000E+03  0.00000000000E+00 0. -1.
         11   -1    0    0    0    0 -0.00000000000E+00 -0.00000000000E+00 -0.18250000000E+03  0.18250000000E+03  0.00000000000E+00 0. -1.
        -11    1    1    2    0    0 -0.29842951772E+01  0.18071998631E+00  0.17195404401E+03  0.17198003352E+03  0.00000000000E+00 0. -1.
         11    1    1    2    0    0 -0.43409654276E+01 -0.99735983699E+00 -0.17964733545E+03  0.17970254267E+03  0.00000000000E+00 0. -1.
        -15    1    1    2    0    0  0.48578713707E+01  0.17903877768E+01  0.56017480075E+00  0.55023565364E+01  0.17770000000E+01 0.  1.
         15    1    1    2    0    0  0.24673892340E+01 -0.97374792616E+00  0.71331166317E+01  0.78150672766E+01  0.17770000000E+01 0.  1.
</event>
<event>
 6    1  0.1108180E-002  0.1645040E+03  0.7546771E-02  0.1083756E+00
        -11   -1    0    0    0    0  0.00000000000E+00  0.00000000000E+00  0.18250000000E+03  0.18250000000E+03  0.00000000000E+00 0.  1.
         11   -1    0    0    0    0 -0.00000000000E+00 -0.00000000000E+00 -0.18250000000E+03  0.18250000000E+03  0.00000000000E+00 0.  1.
        -11    1    1    2    0    0  0.70669182132E+01 -0.52570879745E+01  0.16676309846E+03  0.16699553681E+03  0.00000000000E+00 0.  1.
         11    1    1    2    0    0 -0.28354998304E+01 -0.68057800868E+01 -0.16212588663E+03  0.16229344354E+03  0.00000000000E+00 0.  1.
        -15    1    1    2    0    0 -0.36123751708E+01 -0.30119309773E+01  0.12102626682E+02  0.13105429569E+02  0.17770000000E+01 0. -1.
         15    1    1    2    0    0 -0.61904321202E+00  0.15074799039E+02 -0.16739838508E+02  0.22605590079E+02  0.17770000000E+01 0.  1.
</event>
<event>
 6    1  0.1108180E-002  0.1842321E+03  0.7546771E-02  0.1067084E+00
        -11   -1    0    0    0    0  0.00000000000E+00  0.00000000000E+00  0.18250000000E+03  0.18250000000E+03  0.00000000000E+00 0. -1.
         11   -1    0    0    0    0 -0.00000000000E+00 -0.00000000000E+00 -0.18250000000E+03  0.18250000000E+03  0.00000000000E+00 0. -1.
        -11    1    1    2    0    0 -0.35660962016E+01 -0.14841388685E+01  0.18072665120E+03  0.18076792350E+03  0.00000000000E+00 0. -1.
         11    1    1    2    0    0  0.52265439791E+01 -0.13659587194E+01 -0.17472091317E+03  0.17480440528E+03  0.00000000000E+00 0. -1.
        -15    1    1    2    0    0 -0.29040034637E+01  0.25723831839E+01 -0.16899462471E+01  0.45895575691E+01  0.17770000000E+01 0. -1.
         15    1    1    2    0    0  0.12435556862E+01  0.27771440409E+00 -0.43157917810E+01  0.48381136543E+01  0.17770000000E+01 0.  1.
</event>
<event>
 6    1  0.1108180E-002  0.2143491E+03  0.7546771E-02  0.1045597E+00
        -11   -1    0    0    0    0  0.00000000000E+00  0.00000000000E+00  0.18250000000E+03  0.18250000000E+03  0.00000000000E+00 0.  1.
         11   -1    0    0    0    0 -0.00000000000E+00 -0.00000000000E+00 -0.18250000000E+03  0.18250000000E+03  0.00000000000E+00 0. -1.
        -11    1    1    2    0    0  0.43811701981E+02  0.13992556440E+02  0.65081912751E+02  0.79692610909E+02  0.00000000000E+00 0.  1.
         11    1    1    2    0    0 -0.12236703157E+02 -0.41302403362E+01 -0.15009627758E+03  0.15065088228E+03  0.00000000000E+00 0. -1.
        -15    1    1    2    0    0 -0.15529434553E+02  0.28917653347E+01  0.10486768817E+03  0.10606561835E+03  0.17770000000E+01 0.  1.
         15    1    1    2    0    0 -0.16045564271E+02 -0.12754081439E+02 -0.19853323347E+02  0.28590888462E+02  0.17770000000E+01 0. -1.
</event>
<event>
 6    1  0.1108180E-002  0.1855096E+03  0.7546771E-02  0.1066084E+00
        -11   -1    0    0    0    0  0.00000000000E+00  0.00000000000E+00  0.18250000000E+03  0.18250000000E+03  0.00000000000E+00 0.  1.
         11   -1    0    0    0    0 -0.00000000000E+00 -0.00000000000E+00 -0.18250000000E+03  0.18250000000E+03  0.00000000000E+00 0.  1.
        -11    1    1    2    0    0 -0.60726808568E+00 -0.53672956253E+01  0.17321231422E+03  0.17329651593E+03  0.00000000000E+00 0.  1.
         11    1    1    2    0    0  0.31301062403E+01 -0.29840064723E+00 -0.17946287709E+03  0.17949041998E+03  0.00000000000E+00 0.  1.
        -15    1    1    2    0    0 -0.26514469842E+01  0.30647845390E+01 -0.79358162544E+00  0.44956174411E+01  0.17770000000E+01 0.  1.
         15    1    1    2    0    0  0.12860882958E+00  0.26009117335E+01  0.70441444998E+01  0.77174466510E+01  0.17770000000E+01 0. -1.
</event>
<event>
 6    1  0.1108180E-002  0.1830422E+03  0.7546771E-02  0.1068024E+00
        -11   -1    0    0    0    0  0.00000000000E+00  0.00000000000E+00  0.18250000000E+03  0.18250000000E+03  0.00000000000E+00 0.  1.
         11   -1    0    0    0    0 -0.00000000000E+00 -0.00000000000E+00 -0.18250000000E+03  0.18250000000E+03  0.00000000000E+00 0.  1.
        -11    1    1    2    0    0  0.30169757953E+01 -0.21527056897E+01  0.18192003204E+03  0.18195778176E+03  0.00000000000E+00 0.  1.
         11    1    1    2    0    0 -0.31734387698E+01 -0.69410591504E+00 -0.89709581134E+02  0.89768376636E+02  0.00000000000E+00 0.  1.
        -15    1    1    2    0    0 -0.21205930331E+01  0.67836534773E+01 -0.30379132067E+02  0.31250028216E+02  0.17770000000E+01 0. -1.
         15    1    1    2    0    0  0.22770560076E+01 -0.39368418725E+01 -0.61831318843E+02  0.62023813385E+02  0.17770000000E+01 0.  1.
</event>
<event>
 6    1  0.1108180E-002  0.1846522E+03  0.7546771E-02  0.1066754E+00
        -11   -1    0    0    0    0  0.00000000000E+00  0.00000000000E+00  0.18250000000E+03  0.18250000000E+03  0.00000000000E+00 0. -1.
         11   -1    0    0    0    0 -0.00000000000E+00 -0.00000000000E+00 -0.18250000000E+03  0.18250000000E+03  0.00000000000E+00 0. -1.
        -11    1    1    2    0    0 -0.55545561495E+01 -0.10545393320E+01  0.17410198729E+03  0.17419376316E+03  0.00000000000E+00 0. -1.
         11    1    1    2    0    0  0.11942343954E+01  0.34640934366E+01 -0.18031057284E+03  0.18034779959E+03  0.00000000000E+00 0. -1.
        -15    1    1    2    0    0  0.59545434783E+00 -0.18066671021E+01  0.56423671699E+01  0.62139076416E+01  0.17770000000E+01 0.  1.
         15    1    1    2    0    0  0.37648674062E+01 -0.60288700255E+00  0.56621837984E+00  0.42445296062E+01  0.17770000000E+01 0. -1.
</event>
<event>
 6    1  0.1108180E-002  0.1882399E+03  0.7546771E-02  0.1063975E+00
        -11   -1    0    0    0    0  0.00000000000E+00  0.00000000000E+00  0.18250000000E+03  0.18250000000E+03  0.00000000000E+00 0.  1.
         11   -1    0    0    0    0 -0.00000000000E+00 -0.00000000000E+00 -0.18250000000E+03  0.18250000000E+03  0.00000000000E+00 0. -1.
        -11    1    1    2    0    0 -0.15205640139E+01 -0.57436030234E+01  0.17182972450E+03  0.17193241496E+03  0.00000000000E+00 0.  1.
         11    1    1    2    0    0 -0.17222142997E+00  0.50875106183E+01 -0.17668678330E+03  0.17676009679E+03  0.00000000000E+00 0. -1.
        -15    1    1    2    0    0  0.54061965204E+01 -0.56605803537E+01  0.24115684557E+01  0.83810812055E+01  0.17770000000E+01 0. -1.
         15    1    1    2    0    0 -0.37134110765E+01  0.63166727587E+01  0.24454903465E+01  0.79264070422E+01  0.17770000000E+01 0.  1.
</event>
<event>
 6    1  0.1108180E-002  0.1827747E+03  0.7546771E-02  0.1068236E+00
        -11   -1    0    0    0    0  0.00000000000E+00  0.00000000000E+00  0.18250000000E+03  0.18250000000E+03  0.00000000000E+00 0.  1.
         11   -1    0    0    0    0 -0.00000000000E+00 -0.00000000000E+00 -0.18250000000E+03  0.18250000000E+03  0.00000000000E+00 0.  1.
        -11    1    1    2    0    0 -0.35979663475E+01  0.21042690425E+00  0.18218967478E+03  0.18222531997E+03  0.00000000000E+00 0.  1.
         11    1    1    2    0    0  0.26236405101E+01  0.83835623510E+00 -0.15771534254E+03  0.15773939141E+03  0.00000000000E+00 0.  1.
        -15    1    1    2    0    0  0.19314549254E+01 -0.18485468992E-01 -0.83578067495E+01  0.87602238843E+01  0.17770000000E+01 0.  1.
         15    1    1    2    0    0 -0.95712908802E+00 -0.10302976704E+01 -0.16116525489E+02  0.16275064738E+02  0.17770000000E+01 0.  1.
</event>
<event>
 6    1  0.1108180E-002  0.1842147E+03  0.7546771E-02  0.1067098E+00
        -11   -1    0    0    0    0  0.00000000000E+00  0.00000000000E+00  0.18250000000E+03  0.18250000000E+03  0.00000000000E+00 0.  1.
         11   -1    0    0    0    0 -0.00000000000E+00 -0.00000000000E+00 -0.18250000000E+03  0.18250000000E+03  0.00000000000E+00 0.  1.
        -11    1    1    2    0    0 -0.38433872797E+01  0.75194850401E+00  0.18074285456E+03  0.18078527740E+03  0.00000000000E+00 0.  1.
         11    1    1    2    0    0  0.23558912294E+01 -0.17420168692E+01 -0.16434990377E+03  0.16437601929E+03  0.00000000000E+00 0.  1.
        -15    1    1    2    0    0  0.11518082306E+00 -0.34704776723E+01 -0.15832567239E+01  0.42097402235E+01  0.17770000000E+01 0.  1.
         15    1    1    2    0    0  0.13723152272E+01  0.44605460375E+01 -0.14809694059E+02  0.15628963086E+02  0.17770000000E+01 0. -1.
</event>
<event>
 6    1  0.1108180E-002  0.1888445E+03  0.7546771E-02  0.1063514E+00
        -11   -1    0    0    0    0  0.00000000000E+00  0.00000000000E+00  0.18250000000E+03  0.18250000000E+03  0.00000000000E+00 0.  1.
         11   -1    0    0    0    0 -0.00000000000E+00 -0.00000000000E+00 -0.18250000000E+03  0.18250000000E+03  0.00000000000E+00 0.  1.
        -11    1    1    2    0    0 -0.10869376273E+01  0.23138336627E+01  0.17032580576E+03  0.17034498926E+03  0.00000000000E+00 0.  1.
         11    1    1    2    0    0  0.53431784455E+01  0.64239772801E+00 -0.17607327640E+03  0.17615550202E+03  0.00000000000E+00 0.  1.
        -15    1    1    2    0    0 -0.10364838874E+02 -0.23474623742E+01  0.16310134097E+01  0.10897632689E+02  0.17770000000E+01 0.  1.
         15    1    1    2    0    0  0.61085980557E+01 -0.60876901654E+00  0.41164572307E+01  0.76018760220E+01  0.17770000000E+01 0. -1.
</event>
<event>
 6    1  0.1108180E-002  0.1864279E+03  0.7546771E-02  0.1065371E+00
        -11   -1    0    0    0    0  0.00000000000E+00  0.00000000000E+00  0.18250000000E+03  0.18250000000E+03  0.00000000000E+00 0.  1.
         11   -1    0    0    0    0 -0.00000000000E+00 -0.00000000000E+00 -0.18250000000E+03  0.18250000000E+03  0.00000000000E+00 0. -1.
        -11    1    1    2    0    0  0.13000976733E+01 -0.19282421299E+01  0.15411498233E+03  0.15413252788E+03  0.00000000000E+00 0.  1.
         11    1    1    2    0    0 -0.71674715601E+01 -0.81631694493E+01 -0.17824141583E+03  0.17857214873E+03  0.00000000000E+00 0. -1.
        -15    1    1    2    0    0  0.63525076236E+01  0.63847962548E+01  0.15104728241E+01  0.93037214853E+01  0.17770000000E+01 0. -1.
         15    1    1    2    0    0 -0.48513373683E+00  0.37066153245E+01  0.22615960677E+02  0.22991601907E+02  0.17770000000E+01 0.  1.
</event>
<event>
 6    1  0.1108180E-002  0.1860300E+03  0.7546771E-02  0.1065679E+00
        -11   -1    0    0    0    0  0.00000000000E+00  0.00000000000E+00  0.18250000000E+03  0.18250000000E+03  0.00000000000E+00 0. -1.
         11   -1    0    0    0    0 -0.00000000000E+00 -0.00000000000E+00 -0.18250000000E+03  0.18250000000E+03  0.00000000000E+00 0. -1.
        -11    1    1    2    0    0 -0.24883635508E+01  0.30872669025E+01  0.17892602353E+03  0.17896995577E+03  0.00000000000E+00 0. -1.
         11    1    1    2    0    0  0.15556410564E+00 -0.19176110327E+01 -0.70810518353E+02  0.70836649707E+02  0.00000000000E+00 0. -1.
        -15    1    1    2    0    0  0.76350148922E+01  0.13679584913E+02 -0.88834791966E+02  0.90223070711E+02  0.17770000000E+01 0.  1.
         15    1    1    2    0    0 -0.53022154471E+01 -0.14849240783E+02 -0.19280713213E+02  0.24970323816E+02  0.17770000000E+01 0. -1.
</event>
<event>
 6    1  0.1108180E-002  0.1855450E+03  0.7546771E-02  0.1066057E+00
        -11   -1    0    0    0    0  0.00000000000E+00  0.00000000000E+00  0.18250000000E+03  0.18250000000E+03  0.00000000000E+00 0. -1.
         11   -1    0    0    0    0 -0.00000000000E+00 -0.00000000000E+00 -0.18250000000E+03  0.18250000000E+03  0.00000000000E+00 0.  1.
        -11    1    1    2    0    0 -0.10541039976E+01  0.30245309440E+01  0.14903535879E+03  0.14906977257E+03  0.00000000000E+00 0. -1.
         11    1    1    2    0    0  0.17120679437E+01  0.81799516607E+01 -0.17926034004E+03  0.17945504255E+03  0.00000000000E+00 0.  1.
        -15    1    1    2    0    0 -0.34980606884E+01 -0.11691359678E+02  0.97462271342E+01  0.15718492042E+02  0.17770000000E+01 0. -1.
         15    1    1    2    0    0  0.28400967424E+01  0.48687707366E+00  0.20478754110E+02  0.20756692841E+02  0.17770000000E+01 0.  1.
</event>
<event>
 6    1  0.1108180E-002  0.2158359E+03  0.7546771E-02  0.1044637E+00
        -11   -1    0    0    0    0  0.00000000000E+00  0.00000000000E+00  0.18250000000E+03  0.18250000000E+03  0.00000000000E+00 0. -1.
         11   -1    0    0    0    0 -0.00000000000E+00 -0.00000000000E+00 -0.18250000000E+03  0.18250000000E+03  0.00000000000E+00 0. -1.
        -11    1    1    2    0    0 -0.25602804209E+01 -0.24699370582E+01  0.14912166995E+03  0.14916409780E+03  0.00000000000E+00 0. -1.
         11    1    1    2    0    0 -0.37006432349E+01 -0.25612370040E+01 -0.13407650108E+03  0.13415201391E+03  0.00000000000E+00 0. -1.
        -15    1    1    2    0    0  0.86931593305E+01 -0.21354655535E+01  0.32371918838E+02  0.33633764145E+02  0.17770000000E+01 0.  1.
         15    1    1    2    0    0 -0.24322356747E+01  0.71666396158E+01 -0.47417087711E+02  0.48050124139E+02  0.17770000000E+01 0. -1.
</event>
<event>
 6    1  0.1108180E-002  0.1488452E+03  0.7546771E-02  0.1098929E+00
        -11   -1    0    0    0    0  0.00000000000E+00  0.00000000000E+00  0.18250000000E+03  0.18250000000E+03  0.00000000000E+00 0. -1.
         11   -1    0    0    0    0 -0.00000000000E+00 -0.00000000000E+00 -0.18250000000E+03  0.18250000000E+03  0.00000000000E+00 0. -1.
        -11    1    1    2    0    0  0.15728485039E+01  0.62878596814E+01  0.37630116206E+02  0.38184246457E+02  0.00000000000E+00 0. -1.
         11    1    1    2    0    0 -0.35341806228E+01 -0.78174774101E+01 -0.15412846718E+03  0.15436705536E+03  0.00000000000E+00 0. -1.
        -15    1    1    2    0    0  0.65506550355E+00  0.85865919493E+01 -0.27186830925E+02  0.28573417312E+02  0.17770000000E+01 0.  1.
         15    1    1    2    0    0  0.13062666154E+01 -0.70569742206E+01  0.14368518190E+03  0.14387528087E+03  0.17770000000E+01 0. -1.
</event>
<event>
 6    1  0.1108180E-002  0.1844945E+03  0.7546771E-02  0.1066878E+00
        -11   -1    0    0    0    0  0.00000000000E+00  0.00000000000E+00  0.18250000000E+03  0.18250000000E+03  0.00000000000E+00 0.  1.
         11   -1    0    0    0    0 -0.00000000000E+00 -0.00000000000E+00 -0.18250000000E+03  0.18250000000E+03  0.00000000000E+00 0. -1.
        -11    1    1    2    0    0 -0.26118550244E+01  0.63133019406E+00  0.16234162233E+03  0.16236385899E+03  0.00000000000E+00 0.  1.
         11    1    1    2    0    0 -0.16911989927E+01  0.26249706214E+01 -0.18047848445E+03  0.18050549569E+03  0.00000000000E+00 0. -1.
        -15    1    1    2    0    0  0.12795310994E+01 -0.10724282447E+01 -0.93878611167E+00  0.26127285618E+01  0.17770000000E+01 0. -1.
         15    1    1    2    0    0  0.30235229177E+01 -0.21838725708E+01  0.19075648233E+02  0.19517916763E+02  0.17770000000E+01 0.  1.
</event>
<event>
 6    1  0.1108180E-002  0.1847037E+03  0.7546771E-02  0.1066714E+00
        -11   -1    0    0    0    0  0.00000000000E+00  0.00000000000E+00  0.18250000000E+03  0.18250000000E+03  0.00000000000E+00 0. -1.
         11   -1    0    0    0    0 -0.00000000000E+00 -0.00000000000E+00 -0.18250000000E+03  0.18250000000E+03  0.00000000000E+00 0.  1.
        -11    1    1    2    0    0 -0.10087857957E+01 -0.39435036911E+01  0.18025031302E+03  0.18029626789E+03  0.00000000000E+00 0. -1.
         11    1    1    2    0    0  0.11413359276E+01  0.17168684743E+01 -0.14696009177E+03  0.14697455173E+03  0.00000000000E+00 0.  1.
        -15    1    1    2    0    0  0.22722597083E+01 -0.13130879148E+01 -0.32929351044E+02  0.33081524349E+02  0.17770000000E+01 0. -1.
         15    1    1    2    0    0 -0.24048098402E+01  0.35397231316E+01 -0.36087021150E+00  0.46476560249E+01  0.17770000000E+01 0.  1.
</event>
<event>
 6    1  0.1108180E-002  0.1829241E+03  0.7546771E-02  0.1068118E+00
        -11   -1    0    0    0    0  0.00000000000E+00  0.00000000000E+00  0.18250000000E+03  0.18250000000E+03  0.00000000000E+00 0. -1.
         11   -1    0    0    0    0 -0.00000000000E+00 -0.00000000000E+00 -0.18250000000E+03  0.18250000000E+03  0.00000000000E+00 0.  1.
        -11    1    1    2    0    0 -0.15300412249E+01 -0.28834121097E+01  0.18204665055E+03  0.18207591293E+03  0.00000000000E+00 0. -1.
         11    1    1    2    0    0  0.24672036019E+01 -0.53248562870E+00 -0.98211653398E+02  0.98244081235E+02  0.00000000000E+00 0.  1.
        -15    1    1    2    0    0 -0.50969565740E+01 -0.99566679448E+00 -0.45146009669E+02  0.45478459040E+02  0.17770000000E+01 0.  1.
         15    1    1    2    0    0  0.41597941970E+01  0.44115645329E+01 -0.38688987487E+02  0.39201546795E+02  0.17770000000E+01 0.  1.
</event>
<event>
 6    1  0.1108180E-002  0.1892266E+03  0.7546771E-02  0.1063223E+00
        -11   -1    0    0    0    0  0.00000000000E+00  0.00000000000E+00  0.18250000000E+03  0.18250000000E+03  0.00000000000E+00 0. -1.
         11   -1    0    0    0    0 -0.00000000000E+00 -0.00000000000E+00 -0.18250000000E+03  0.18250000000E+03  0.00000000000E+00 0. -1.
        -11    1    1    2    0    0 -0.61317732562E+01 -0.53240181763E+01  0.16086101185E+03  0.16106585283E+03  0.00000000000E+00 0. -1.
         11    1    1    2    0    0  0.93266672607E+00  0.57894465532E+01 -0.17567555539E+03  0.17577340049E+03  0.00000000000E+00 0. -1.
        -15    1    1    2    0    0  0.51503185570E+01 -0.38302316588E+01  0.20367629634E+02  0.21428824552E+02  0.17770000000E+01 0. -1.
         15    1    1    2    0    0  0.48787973132E-01  0.33648032818E+01 -0.55530860914E+01  0.67319221274E+01  0.17770000000E+01 0.  1.
</event>
<event>
 6    1  0.1108180E-002  0.1948599E+03  0.7546771E-02  0.1059021E+00
        -11   -1    0    0    0    0  0.00000000000E+00  0.00000000000E+00  0.18250000000E+03  0.18250000000E+03  0.00000000000E+00 0.  1.
         11   -1    0    0    0    0 -0.00000000000E+00 -0.00000000000E+00 -0.18250000000E+03  0.18250000000E+03  0.00000000000E+00 0. -1.
        -11    1    1    2    0    0 -0.84623952066E+01  0.47081093761E+01  0.16986432553E+03  0.17014014081E+03  0.00000000000E+00 0.  1.
         11    1    1    2    0    0 -0.76545980212E+01  0.82406121558E+01 -0.13449594487E+03  0.13496540204E+03  0.00000000000E+00 0. -1.
        -15    1    1    2    0    0  0.86426168004E+01 -0.83559661624E+01 -0.45078795935E+02  0.46688034523E+02  0.17770000000E+01 0. -1.
         15    1    1    2    0    0  0.74743764273E+01 -0.45927553696E+01  0.97104152747E+01  0.13206422629E+02  0.17770000000E+01 0. -1.
</event>
<event>
 6    1  0.1108180E-002  0.1840754E+03  0.7546771E-02  0.1067208E+00
        -11   -1    0    0    0    0  0.00000000000E+00  0.00000000000E+00  0.18250000000E+03  0.18250000000E+03  0.00000000000E+00 0. -1.
         11   -1    0    0    0    0 -0.00000000000E+00 -0.00000000000E+00 -0.18250000000E+03  0.18250000000E+03  0.00000000000E+00 0.  1.
        -11    1    1    2    0    0 -0.14579237105E+01  0.57078429354E+01  0.18082865291E+03  0.18092458850E+03  0.00000000000E+00 0. -1.
         11    1    1    2    0    0  0.23610540046E+01 -0.21327806909E+01 -0.16388642636E+03  0.16391730865E+03  0.00000000000E+00 0.  1.
        -15    1    1    2    0    0  0.43674925664E+01 -0.20631622570E+01 -0.84683139646E+01  0.99096770996E+01  0.17770000000E+01 0. -1.
         15    1    1    2    0    0 -0.52706228605E+01 -0.15118999875E+01 -0.84739125795E+01  0.10248425748E+02  0.17770000000E+01 0.  1.
</event>
<event>
 6    1  0.1108180E-002  0.1783057E+03  0.7546771E-02  0.1071843E+00
        -11   -1    0    0    0    0  0.00000000000E+00  0.00000000000E+00  0.18250000000E+03  0.18250000000E+03  0.00000000000E+00 0. -1.
         11   -1    0    0    0    0 -0.00000000000E+00 -0.00000000000E+00 -0.18250000000E+03  0.18250000000E+03  0.00000000000E+00 0. -1.
        -11    1    1    2    0    0  0.27215658806E+01 -0.10108474717E+01  0.17702482909E+03  0.17704863413E+03  0.00000000000E+00 0. -1.
         11    1    1    2    0    0  0.18923759848E+01 -0.24112409975E+01 -0.17959212270E+03  0.17961827776E+03  0.00000000000E+00 0. -1.
        -15    1    1    2    0    0 -0.43010783499E+01  0.23760539436E+01  0.32321567993E+01  0.61440600494E+01  0.17770000000E+01 0. -1.
         15    1    1    2    0    0 -0.31286351559E+00  0.10460345256E+01 -0.66486318720E+00  0.21890280642E+01  0.17770000000E+01 0.  1.
</event>
<event>
 6    1  0.1108180E-002  0.1826755E+03  0.7546771E-02  0.1068315E+00
        -11   -1    0    0    0    0  0.00000000000E+00  0.00000000000E+00  0.18250000000E+03  0.18250000000E+03  0.00000000000E+00 0. -1.
         11   -1    0    0    0    0 -0.00000000000E+00 -0.00000000000E+00 -0.18250000000E+03  0.18250000000E+03  0.00000000000E+00 0. -1.
        -11    1    1    2    0    0 -0.28575958524E+01  0.78575876314E-01  0.18230206689E+03  0.18232447894E+03  0.00000000000E+00 0. -1.
         11    1    1    2    0    0  0.21428492829E+01 -0.25149406011E+01 -0.91683548735E+02  0.91743064249E+02  0.00000000000E+00 0. -1.
        -15    1    1    2    0    0 -0.24925415186E+01  0.22412523606E+01 -0.52788461729E+02  0.52924619942E+02  0.17770000000E+01 0. -1.
         15    1    1    2    0    0  0.32072880881E+01  0.19511236423E+00 -0.37830056423E+02  0.38007836872E+02  0.17770000000E+01 0. -1.
</event>
<event>
 6    1  0.1202751E-002  0.1852641E+03  0.7546771E-02  0.1066276E+00
        -11   -1    0    0    0    0  0.00000000000E+00  0.00000000000E+00  0.18250000000E+03  0.18250000000E+03  0.00000000000E+00 0. -1.
         11   -1    0    0    0    0 -0.00000000000E+00 -0.00000000000E+00 -0.18250000000E+03  0.18250000000E+03  0.00000000000E+00 0.  1.
        -11    1    1    2    0    0 -0.40966312965E+01  0.20932622333E+01  0.17967698778E+03  0.17973587309E+03  0.00000000000E+00 0. -1.
         11    1    1    2    0    0  0.31131514794E+01 -0.16646644268E+00 -0.15287501196E+03  0.15290679745E+03  0.00000000000E+00 0.  1.
        -15    1    1    2    0    0  0.41136745484E+01 -0.18410048294E+01  0.45292445798E+00  0.48656434967E+01  0.17770000000E+01 0. -1.
         15    1    1    2    0    0 -0.31301947314E+01 -0.85790961230E-01 -0.27254900279E+02  0.27491685968E+02  0.17770000000E+01 0. -1.
</event>
<event>
 6    1  0.1108180E-002  0.1874773E+03  0.7546771E-02  0.1064560E+00
        -11   -1    0    0    0    0  0.00000000000E+00  0.00000000000E+00  0.18250000000E+03  0.18250000000E+03  0.00000000000E+00 0. -1.
         11   -1    0    0    0    0 -0.00000000000E+00 -0.00000000000E+00 -0.18250000000E+03  0.18250000000E+03  0.00000000000E+00 0.  1.
        -11    1    1    2    0    0  0.11213909428E+01  0.35062297586E+01  0.17748452244E+03  0.17752269396E+03  0.00000000000E+00 0. -1.
         11    1    1    2    0    0  0.48945349449E+01  0.23998908531E+01 -0.16721533945E+03  0.16730417118E+03  0.00000000000E+00 0.  1.
        -15    1    1    2    0    0  0.33146832584E+01 -0.20161028017E+01  0.15310189348E+01  0.45336016134E+01  0.17770000000E+01 0.  1.
         15    1    1    2    0    0 -0.93306091461E+01 -0.38900178100E+01 -0.11800201927E+02  0.15639533245E+02  0.17770000000E+01 0. -1.
</event>
<event>
 6    1  0.1108180E-002  0.1855113E+03  0.7546771E-02  0.1066083E+00
        -11   -1    0    0    0    0  0.00000000000E+00  0.00000000000E+00  0.18250000000E+03  0.18250000000E+03  0.00000000000E+00 0.  1.
         11   -1    0    0    0    0 -0.00000000000E+00 -0.00000000000E+00 -0.18250000000E+03  0.18250000000E+03  0.00000000000E+00 0.  1.
        -11    1    1    2    0    0 -0.44008904509E+01  0.74623595794E+00  0.17943322983E+03  0.17948874247E+03  0.00000000000E+00 0.  1.
         11    1    1    2    0    0  0.83533235732E+01  0.96934813165E+00 -0.16603828904E+03  0.16625110850E+03  0.00000000000E+00 0.  1.
        -15    1    1    2    0    0 -0.65766561623E+01 -0.29655977877E+01 -0.13952927198E+02  0.15807880405E+02  0.17770000000E+01 0.  1.
         15    1    1    2    0    0  0.26242230399E+01  0.12500136981E+01  0.55798640858E+00  0.34522686224E+01  0.17770000000E+01 0. -1.
</event>
<event>
 6    1  0.1108180E-002  0.1877311E+03  0.7546771E-02  0.1064365E+00
        -11   -1    0    0    0    0  0.00000000000E+00  0.00000000000E+00  0.18250000000E+03  0.18250000000E+03  0.00000000000E+00 0. -1.
         11   -1    0    0    0    0 -0.00000000000E+00 -0.00000000000E+00 -0.18250000000E+03  0.18250000000E+03  0.00000000000E+00 0.  1.
        -11    1    1    2    0    0  0.32533473879E+01 -0.22600175120E+01  0.17722458755E+03  0.17726885339E+03  0.00000000000E+00 0. -1.
         11    1    1    2    0    0 -0.46600902422E+01 -0.29949805799E+01 -0.93715946871E+02  0.93879524113E+02  0.00000000000E+00 0.  1.
        -15    1    1    2    0    0  0.20381645355E+02  0.92027227482E+01 -0.54312127296E+02  0.58762798383E+02  0.17770000000E+01 0. -1.
         15    1    1    2    0    0 -0.18974902500E+02 -0.39477246563E+01 -0.29196513387E+02  0.35088824116E+02  0.17770000000E+01 0.  1.
</event>
<event>
 6    1  0.1108180E-002  0.1865662E+03  0.7546771E-02  0.1065263E+00
        -11   -1    0    0    0    0  0.00000000000E+00  0.00000000000E+00  0.18250000000E+03  0.18250000000E+03  0.00000000000E+00 0.  1.
         11   -1    0    0    0    0 -0.00000000000E+00 -0.00000000000E+00 -0.18250000000E+03  0.18250000000E+03  0.00000000000E+00 0.  1.
        -11    1    1    2    0    0  0.18204284941E+01  0.45638592198E+01  0.16982654895E+03  0.16989761475E+03  0.00000000000E+00 0.  1.
         11    1    1    2    0    0 -0.54756706596E+01 -0.77205296069E+00 -0.17834810452E+03  0.17843381244E+03  0.00000000000E+00 0.  1.
        -15    1    1    2    0    0 -0.24178879510E+01 -0.31057814903E+01  0.93024600002E+01  0.10256000773E+02  0.17770000000E+01 0. -1.
         15    1    1    2    0    0  0.60731301165E+01 -0.68602476883E+00 -0.78090443168E+00  0.64125720368E+01  0.17770000000E+01 0.  1.
</event>
<event>
 6    1  0.1108180E-002  0.1897460E+03  0.7546771E-02  0.1062829E+00
        -11   -1    0    0    0    0  0.00000000000E+00  0.00000000000E+00  0.18250000000E+03  0.18250000000E+03  0.00000000000E+00 0. -1.
         11   -1    0    0    0    0 -0.00000000000E+00 -0.00000000000E+00 -0.18250000000E+03  0.18250000000E+03  0.00000000000E+00 0.  1.
        -11    1    1    2    0    0 -0.26407676085E+01  0.13542817058E+01  0.17522886769E+03  0.17525399797E+03  0.00000000000E+00 0. -1.
         11    1    1    2    0    0 -0.13316006941E+01 -0.27071641385E+01 -0.17264330448E+03  0.17266966289E+03  0.00000000000E+00 0.  1.
        -15    1    1    2    0    0  0.58232575174E+01  0.21330295158E+00  0.56908996103E+01  0.83366596211E+01  0.17770000000E+01 0. -1.
         15    1    1    2    0    0 -0.18508892148E+01  0.11395794811E+01 -0.82764628202E+01  0.87396795189E+01  0.17770000000E+01 0.  1.
</event>
<event>
 6    1  0.1108180E-002  0.1860818E+03  0.7546771E-02  0.1065639E+00
        -11   -1    0    0    0    0  0.00000000000E+00  0.00000000000E+00  0.18250000000E+03  0.18250000000E+03  0.00000000000E+00 0.  1.
         11   -1    0    0    0    0 -0.00000000000E+00 -0.00000000000E+00 -0.18250000000E+03  0.18250000000E+03  0.00000000000E+00 0.  1.
        -11    1    1    2    0    0  0.79246608851E+01 -0.35091203547E+01  0.17870819131E+03  0.17891822662E+03  0.00000000000E+00 0.  1.
         11    1    1    2    0    0 -0.10519288850E+02  0.10911156990E+02 -0.86273695343E+02  0.87594858827E+02  0.00000000000E+00 0.  1.
        -15    1    1    2    0    0  0.37463420763E+01 -0.20049490239E+02 -0.66064470509E+02  0.69164218571E+02  0.17770000000E+01 0. -1.
         15    1    1    2    0    0 -0.11517141112E+01  0.12647453604E+02 -0.26370025458E+02  0.29322695983E+02  0.17770000000E+01 0.  1.
</event>
<event>
 6    1  0.1108180E-002  0.1895560E+03  0.7546771E-02  0.1062973E+00
        -11   -1    0    0    0    0  0.00000000000E+00  0.00000000000E+00  0.18250000000E+03  0.18250000000E+03  0.00000000000E+00 0. -1.
         11   -1    0    0    0    0 -0.00000000000E+00 -0.00000000000E+00 -0.18250000000E+03  0.18250000000E+03  0.00000000000E+00 0.  1.
        -11    1    1    2    0    0 -0.57277053947E+01 -0.92528271443E+01  0.17510616942E+03  0.17544398533E+03  0.00000000000E+00 0. -1.
         11    1    1    2    0    0  0.47618319347E+01  0.10619880458E+02 -0.17110878740E+03  0.17150415164E+03  0.00000000000E+00 0.  1.
        -15    1    1    2    0    0  0.13759516497E+01 -0.70657262404E+00  0.67404273052E+01  0.71402785010E+01  0.17770000000E+01 0.  1.
         15    1    1    2    0    0 -0.41007818969E+00 -0.66048068979E+00 -0.10737809321E+02  0.10911584527E+02  0.17770000000E+01 0. -1.
</event>
<event>
 6    1  0.1108180E-002  0.1897812E+03  0.7546771E-02  0.1062802E+00
        -11   -1    0    0    0    0  0.00000000000E+00  0.00000000000E+00  0.18250000000E+03  0.18250000000E+03  0.00000000000E+00 0.  1.
         11   -1    0    0    0    0 -0.00000000000E+00 -0.00000000000E+00 -0.18250000000E+03  0.18250000000E+03  0.00000000000E+00 0. -1.
        -11    1    1    2    0    0  0.45552819507E+01 -0.90705381633E+01  0.14492645606E+03  0.14528146104E+03  0.00000000000E+00 0.  1.
         11    1    1    2    0    0  0.12661177386E+02  0.48692930221E+00 -0.17476012949E+03  0.17521884994E+03  0.00000000000E+00 0. -1.
        -15    1    1    2    0    0 -0.20062847195E+02  0.13030033171E+02  0.30594192280E+02  0.38877524771E+02  0.17770000000E+01 0. -1.
         15    1    1    2    0    0  0.28463878587E+01 -0.44464243098E+01 -0.76051884331E+00  0.56221642537E+01  0.17770000000E+01 0.  1.
</event>
<event>
 6    1  0.1278357E-002  0.1702880E+03  0.7546771E-02  0.1078614E+00
        -11   -1    0    0    0    0  0.00000000000E+00  0.00000000000E+00  0.18250000000E+03  0.18250000000E+03  0.00000000000E+00 0.  1.
         11   -1    0    0    0    0 -0.00000000000E+00 -0.00000000000E+00 -0.18250000000E+03  0.18250000000E+03  0.00000000000E+00 0.  1.
        -11    1    1    2    0    0 -0.30835438234E+01  0.32976542150E+00  0.17284432195E+03  0.17287213951E+03  0.00000000000E+00 0.  1.
         11    1    1    2    0    0  0.14556280952E+01 -0.91842719630E+01 -0.16760531803E+03  0.16786307615E+03  0.00000000000E+00 0.  1.
        -15    1    1    2    0    0  0.85801577951E+00  0.20736238176E+01  0.84197208022E+01  0.88930047904E+01  0.17770000000E+01 0. -1.
         15    1    1    2    0    0  0.76989994867E+00  0.67808827239E+01 -0.13658724724E+02  0.15371779550E+02  0.17770000000E+01 0. -1.
</event>
<event>
 6    1  0.1108180E-002  0.1839002E+03  0.7546771E-02  0.1067346E+00
        -11   -1    0    0    0    0  0.00000000000E+00  0.00000000000E+00  0.18250000000E+03  0.18250000000E+03  0.00000000000E+00 0. -1.
         11   -1    0    0    0    0 -0.00000000000E+00 -0.00000000000E+00 -0.18250000000E+03  0.18250000000E+03  0.00000000000E+00 0. -1.
        -11    1    1    2    0    0  0.23768605489E+01 -0.14796803784E+01  0.18107812519E+03  0.18109976903E+03  0.00000000000E+00 0. -1.
         11    1    1    2    0    0 -0.29862006884E+01  0.57661603975E+00 -0.17768815371E+03  0.17771418021E+03  0.00000000000E+00 0. -1.
        -15    1    1    2    0    0 -0.12149865640E+00 -0.66164598770E+00  0.10363106668E+00  0.19028940419E+01  0.17770000000E+01 0.  1.
         15    1    1    2    0    0  0.73083879589E+00  0.15647103263E+01 -0.34936025460E+01  0.42831567214E+01  0.17770000000E+01 0.  1.
</event>
<event>
 6    1  0.1108180E-002  0.1842491E+03  0.7546771E-02  0.1067071E+00
        -11   -1    0    0    0    0  0.00000000000E+00  0.00000000000E+00  0.18250000000E+03  0.18250000000E+03  0.00000000000E+00 0. -1.
         11   -1    0    0    0    0 -0.00000000000E+00 -0.00000000000E+00 -0.18250000000E+03  0.18250000000E+03  0.00000000000E+00 0.  1.
        -11    1    1    2    0    0 -0.46009604353E+01 -0.87280848447E+01  0.10750084681E+03  0.10795267652E+03  0.00000000000E+00 0. -1.
         11    1    1    2    0    0  0.41360424439E+01 -0.17137315439E+01 -0.18069539862E+03  0.18075085285E+03  0.00000000000E+00 0.  1.
        -15    1    1    2    0    0  0.41573437780E+01  0.90606627770E+01  0.70451664203E+02  0.71175654793E+02  0.17770000000E+01 0. -1.
         15    1    1    2    0    0 -0.36924257866E+01  0.13811536116E+01  0.27428876023E+01  0.51208158420E+01  0.17770000000E+01 0.  1.
</event>
<event>
 6    1  0.1108180E-002  0.1857975E+03  0.7546771E-02  0.1065860E+00
        -11   -1    0    0    0    0  0.00000000000E+00  0.00000000000E+00  0.18250000000E+03  0.18250000000E+03  0.00000000000E+00 0. -1.
         11   -1    0    0    0    0 -0.00000000000E+00 -0.00000000000E+00 -0.18250000000E+03  0.18250000000E+03  0.00000000000E+00 0. -1.
        -11    1    1    2    0    0  0.86735793582E+01  0.62264808224E+01  0.16106937960E+03  0.16142287659E+03  0.00000000000E+00 0. -1.
         11    1    1    2    0    0 -0.60358293460E+01 -0.13109335323E+01 -0.17909605113E+03  0.17920252596E+03  0.00000000000E+00 0. -1.
        -15    1    1    2    0    0  0.29561526183E+01  0.40153473919E+01  0.87323934059E+01  0.10211477688E+02  0.17770000000E+01 0. -1.
         15    1    1    2    0    0 -0.55939026305E+01 -0.89308946820E+01  0.92942781214E+01  0.14163119757E+02  0.17770000000E+01 0.  1.
</event>
<event>
 6    1  0.1108180E-002  0.1839325E+03  0.7546771E-02  0.1067320E+00
        -11   -1    0    0    0    0  0.00000000000E+00  0.00000000000E+00  0.18250000000E+03  0.18250000000E+03  0.00000000000E+00 0. -1.
         11   -1    0    0    0    0 -0.00000000000E+00 -0.00000000000E+00 -0.18250000000E+03  0.18250000000E+03  0.00000000000E+00 0.  1.
        -11    1    1    2    0    0 -0.42014648042E+01  0.24288839430E+01  0.18100241132E+03  0.18106745894E+03  0.00000000000E+00 0. -1.
         11    1    1    2    0    0  0.62472716459E+00 -0.33800260602E+01 -0.12386709857E+03  0.12391478107E+03  0.00000000000E+00 0.  1.
        -15    1    1    2    0    0  0.51116132065E+00 -0.21089543947E+01 -0.11663317706E+00  0.28071884213E+01  0.17770000000E+01 0.  1.
         15    1    1    2    0    0  0.30655763189E+01  0.30600965119E+01 -0.57018679577E+02  0.57210571563E+02  0.17770000000E+01 0. -1.
</event>
<event>
 6    1  0.1108180E-002  0.1830218E+03  0.7546771E-02  0.1068040E+00
        -11   -1    0    0    0    0  0.00000000000E+00  0.00000000000E+00  0.18250000000E+03  0.18250000000E+03  0.00000000000E+00 0. -1.
         11   -1    0    0    0    0 -0.00000000000E+00 -0.00000000000E+00 -0.18250000000E+03  0.18250000000E+03  0.00000000000E+00 0.  1.
        -11    1    1    2    0    0  0.75338295159E+00  0.51531584465E+01  0.18190365241E+03  0.18197818932E+03  0.00000000000E+00 0. -1.
         11    1    1    2    0    0 -0.23704878339E+01  0.43243393154E+01 -0.92723572603E+02  0.92854617760E+02  0.00000000000E+00 0.  1.
        -15    1    1    2    0    0  0.19114606297E+00 -0.94293762136E+01 -0.83457969969E+02  0.84007976722E+02  0.17770000000E+01 0.  1.
         15    1    1    2    0    0  0.14259588194E+01 -0.48121548235E-01 -0.57221098353E+01  0.61592162006E+01  0.17770000000E+01 0.  1.
</event>
<event>
 6    1  0.1108180E-002  0.1829263E+03  0.7546771E-02  0.1068116E+00
        -11   -1    0    0    0    0  0.00000000000E+00  0.00000000000E+00  0.18250000000E+03  0.18250000000E+03  0.00000000000E+00 0.  1.
         11   -1    0    0    0    0 -0.00000000000E+00 -0.00000000000E+00 -0.18250000000E+03  0.18250000000E+03  0.00000000000E+00 0.  1.
        -11    1    1    2    0    0 -0.33824802946E+00 -0.35190199784E+01  0.12755275964E+03  0.12760174138E+03  0.00000000000E+00 0.  1.
         11    1    1    2    0    0  0.19251038658E+01  0.28602836489E+01 -0.18204106908E+03  0.18207371606E+03  0.00000000000E+00 0.  1.
        -15    1    1    2    0    0  0.20114778290E+01 -0.27430986922E+01  0.31985910715E+02  0.32215320063E+02  0.17770000000E+01 0.  1.
         15    1    1    2    0    0 -0.35983336653E+01  0.34018350217E+01  0.22502398730E+02  0.23109222494E+02  0.17770000000E+01 0. -1.
</event>
<event>
 6    1  0.1108180E-002  0.1834586E+03  0.7546771E-02  0.1067694E+00
        -11   -1    0    0    0    0  0.00000000000E+00  0.00000000000E+00  0.18250000000E+03  0.18250000000E+03  0.00000000000E+00 0.  1.
         11   -1    0    0    0    0 -0.00000000000E+00 -0.00000000000E+00 -0.18250000000E+03  0.18250000000E+03  0.00000000000E+00 0. -1.
        -11    1    1    2    0    0  0.38110947433E+00 -0.39695745518E+01  0.18149760321E+03  0.18154140778E+03  0.00000000000E+00 0.  1.
         11    1    1    2    0    0 -0.53910946641E+01  0.69836285478E+01 -0.13451783613E+03  0.13480683664E+03  0.00000000000E+00 0. -1.
        -15    1    1    2    0    0  0.40514494459E+01  0.28498515934E+01 -0.11672336876E+02  0.12803791386E+02  0.17770000000E+01 0. -1.
         15    1    1    2    0    0  0.95853574388E+00 -0.58639055894E+01 -0.35307430211E+02  0.35847964191E+02  0.17770000000E+01 0.  1.
</event>
<event>
 6    1  0.1108180E-002  0.1844352E+03  0.7546771E-02  0.1066925E+00
        -11   -1    0    0    0    0  0.00000000000E+00  0.00000000000E+00  0.18250000000E+03  0.18250000000E+03  0.00000000000E+00 0.  1.
         11   -1    0    0    0    0 -0.00000000000E+00 -0.00000000000E+00 -0.18250000000E+03  0.18250000000E+03  0.00000000000E+00 0.  1.
        -11    1    1    2    0    0 -0.29237242133E+01 -0.44424378227E+01  0.16854509990E+03  0.16862898362E+03  0.00000000000E+00 0.  1.
         11    1    1    2    0    0  0.19489464511E+01 -0.23908586632E+01 -0.18053849427E+03  0.18056484295E+03  0.00000000000E+00 0.  1.
        -15    1    1    2    0    0 -0.19020305773E+01  0.16896413969E+01  0.76983185097E+01  0.83002677815E+01  0.17770000000E+01 0. -1.
         15    1    1    2    0    0  0.28768083395E+01  0.51436550890E+01  0.42950758641E+01  0.75059056466E+01  0.17770000000E+01 0.  1.
</event>
<event>
 6    1  0.1108180E-002  0.1846730E+03  0.7546771E-02  0.1066738E+00
        -11   -1    0    0    0    0  0.00000000000E+00  0.00000000000E+00  0.18250000000E+03  0.18250000000E+03  0.00000000000E+00 0.  1.
         11   -1    0    0    0    0 -0.00000000000E+00 -0.00000000000E+00 -0.18250000000E+03  0.18250000000E+03  0.00000000000E+00 0. -1.
        -11    1    1    2    0    0 -0.54729445664E+00  0.24359809082E+01  0.16495888452E+03  0.16497777764E+03  0.00000000000E+00 0.  1.
         11    1    1    2    0    0 -0.17278001158E+01  0.55720839908E+01 -0.18023258673E+03  0.18032697728E+03  0.00000000000E+00 0. -1.
        -15    1    1    2    0    0  0.40645736289E+01 -0.72567145992E+01  0.14728593251E+02  0.17007935022E+02  0.17770000000E+01 0. -1.
         15    1    1    2    0    0 -0.17894790564E+01 -0.75135029979E+00  0.54510895981E+00  0.26873100574E+01  0.17770000000E+01 0.  1.
</event>
<event>
 6    1  0.1108180E-002  0.1826437E+03  0.7546771E-02  0.1068340E+00
        -11   -1    0    0    0    0  0.00000000000E+00  0.00000000000E+00  0.18250000000E+03  0.18250000000E+03  0.00000000000E+00 0. -1.
         11   -1    0    0    0    0 -0.00000000000E+00 -0.00000000000E+00 -0.18250000000E+03  0.18250000000E+03  0.00000000000E+00 0. -1.
        -11    1    1    2    0    0 -0.37463308531E+00  0.16513000429E+01  0.10279903352E+03  0.10281297794E+03  0.00000000000E+00 0. -1.
         11    1    1    2    0    0 -0.42354857438E+01 -0.13475048982E+01 -0.18230214706E+03  0.18235632134E+03  0.00000000000E+00 0. -1.
        -15    1    1    2    0    0  0.28407471347E+01  0.72932551805E+00  0.22186024886E+02  0.22449480823E+02  0.17770000000E+01 0.  1.
         15    1    1    2    0    0  0.17693716944E+01 -0.10331206628E+01  0.57317088662E+02  0.57381219891E+02  0.17770000000E+01 0. -1.
</event>
<event>
 6    1  0.1108180E-002  0.1779384E+03  0.7546771E-02  0.1072145E+00
        -11   -1    0    0    0    0  0.00000000000E+00  0.00000000000E+00  0.18250000000E+03  0.18250000000E+03  0.00000000000E+00 0. -1.
         11   -1    0    0    0    0 -0.00000000000E+00 -0.00000000000E+00 -0.18250000000E+03  0.18250000000E+03  0.00000000000E+00 0. -1.
        -11    1    1    2    0    0  0.31575745444E+01  0.14241332754E+01  0.17687056978E+03  0.17690448521E+03  0.00000000000E+00 0. -1.
         11    1    1    2    0    0  0.32863171393E+01 -0.19425823311E+01 -0.17899661705E+03  0.17903732131E+03  0.00000000000E+00 0. -1.
        -15    1    1    2    0    0 -0.86826373659E+00 -0.15468170709E+01  0.39607052792E-01  0.25111397185E+01  0.17770000000E+01 0.  1.
         15    1    1    2    0    0 -0.55756279471E+01  0.20652661266E+01  0.20864402169E+01  0.65470537615E+01  0.17770000000E+01 0.  1.
</event>
<event>
 6    1  0.1108180E-002  0.1828626E+03  0.7546771E-02  0.1068167E+00
        -11   -1    0    0    0    0  0.00000000000E+00  0.00000000000E+00  0.18250000000E+03  0.18250000000E+03  0.00000000000E+00 0.  1.
         11   -1    0    0    0    0 -0.00000000000E+00 -0.00000000000E+00 -0.18250000000E+03  0.18250000000E+03  0.00000000000E+00 0.  1.
        -11    1    1    2    0    0 -0.29812360730E+01  0.25812375895E+01  0.18209470065E+03  0.18213739474E+03  0.00000000000E+00 0.  1.
         11    1    1    2    0    0  0.19016301447E+01  0.13343743181E+01 -0.57952832718E+02  0.57999375618E+02  0.00000000000E+00 0.  1.
        -15    1    1    2    0    0  0.27407894763E+00 -0.54852291311E+01 -0.11904102870E+03  0.11918090074E+03  0.17770000000E+01 0. -1.
         15    1    1    2    0    0  0.80552698072E+00  0.15696172235E+01 -0.51008392297E+01  0.56823289057E+01  0.17770000000E+01 0.  1.
</event>
<event>
 6    1  0.1108180E-002  0.1800662E+03  0.7546771E-02  0.1070409E+00
        -11   -1    0    0    0    0  0.00000000000E+00  0.00000000000E+00  0.18250000000E+03  0.18250000000E+03  0.00000000000E+00 0. -1.
         11   -1    0    0    0    0 -0.00000000000E+00 -0.00000000000E+00 -0.18250000000E+03  0.18250000000E+03  0.00000000000E+00 0. -1.
        -11    1    1    2    0    0  0.32241302846E+01 -0.17452821148E+01  0.17939401414E+03  0.17943147253E+03  0.00000000000E+00 0. -1.
         11    1    1    2    0    0 -0.82084940036E+00  0.51730959924E+00 -0.10591969584E+02  0.10636316215E+02  0.00000000000E+00 0. -1.
        -15    1    1    2    0    0  0.99546153303E+01  0.36320360659E+01 -0.74374578149E+01  0.13067500148E+02  0.17770000000E+01 0.  1.
         15    1    1    2    0    0 -0.12357896215E+02 -0.24040635504E+01 -0.16136458674E+03  0.16186471111E+03  0.17770000000E+01 0. -1.
</event>
<event>
 6    1  0.1108180E-002  0.1860791E+03  0.7546771E-02  0.1065641E+00
        -11   -1    0    0    0    0  0.00000000000E+00  0.00000000000E+00  0.18250000000E+03  0.18250000000E+03  0.00000000000E+00 0.  1.
         11   -1    0    0    0    0 -0.00000000000E+00 -0.00000000000E+00 -0.18250000000E+03  0.18250000000E+03  0.00000000000E+00 0.  1.
        -11    1    1    2    0    0 -0.19482632747E+01 -0.35737503940E+01  0.17887462549E+03  0.17892092964E+03  0.00000000000E+00 0.  1.
         11    1    1    2    0    0  0.10959239274E+02 -0.27256461193E+01 -0.16711948697E+03  0.16750061790E+03  0.00000000000E+00 0.  1.
        -15    1    1    2    0    0 -0.33173290460E+01  0.47857441766E+01 -0.97514128430E+00  0.61657642550E+01  0.17770000000E+01 0.  1.
         15    1    1    2    0    0 -0.56936469535E+01  0.15136523366E+01 -0.10779997237E+02  0.12412688204E+02  0.17770000000E+01 0. -1.
</event>
<event>
 6    1  0.1108180E-002  0.1827250E+03  0.7546771E-02  0.1068276E+00
        -11   -1    0    0    0    0  0.00000000000E+00  0.00000000000E+00  0.18250000000E+03  0.18250000000E+03  0.00000000000E+00 0. -1.
         11   -1    0    0    0    0 -0.00000000000E+00 -0.00000000000E+00 -0.18250000000E+03  0.18250000000E+03  0.00000000000E+00 0.  1.
        -11    1    1    2    0    0 -0.98843417389E+01  0.31938020940E+01  0.18197880408E+03  0.18227502769E+03  0.00000000000E+00 0. -1.
         11    1    1    2    0    0 -0.83369613138E+00 -0.11858019502E+01 -0.57230125161E+02  0.57248479468E+02  0.00000000000E+00 0.  1.
        -15    1    1    2    0    0  0.14443817274E+01  0.10706724058E+00 -0.56364914505E+02  0.56411514943E+02  0.17770000000E+01 0.  1.
         15    1    1    2    0    0  0.92736561429E+01 -0.21150673844E+01 -0.68383764414E+02  0.69064977903E+02  0.17770000000E+01 0.  1.
</event>
<event>
 6    1  0.1108180E-002  0.1956896E+03  0.7546771E-02  0.1058415E+00
        -11   -1    0    0    0    0  0.00000000000E+00  0.00000000000E+00  0.18250000000E+03  0.18250000000E+03  0.00000000000E+00 0.  1.
         11   -1    0    0    0    0 -0.00000000000E+00 -0.00000000000E+00 -0.18250000000E+03  0.18250000000E+03  0.00000000000E+00 0. -1.
        -11    1    1    2    0    0  0.46211013074E+01  0.53824767051E+01  0.14965065153E+03  0.14981870089E+03  0.00000000000E+00 0.  1.
         11    1    1    2    0    0 -0.23462579765E+01 -0.10429550873E+01 -0.16929091512E+03  0.16931038545E+03  0.00000000000E+00 0. -1.
        -15    1    1    2    0    0  0.63915728515E+01 -0.10376269842E+02  0.29088906856E+02  0.31588627865E+02  0.17770000000E+01 0.  1.
         15    1    1    2    0    0 -0.86664161825E+01  0.60367482241E+01 -0.94486432741E+01  0.14282285787E+02  0.17770000000E+01 0. -1.
</event>
<event>
 6    1  0.1108180E-002  0.1848322E+03  0.7546771E-02  0.1066613E+00
        -11   -1    0    0    0    0  0.00000000000E+00  0.00000000000E+00  0.18250000000E+03  0.18250000000E+03  0.00000000000E+00 0. -1.
         11   -1    0    0    0    0 -0.00000000000E+00 -0.00000000000E+00 -0.18250000000E+03  0.18250000000E+03  0.00000000000E+00 0. -1.
        -11    1    1    2    0    0 -0.41090229471E+01  0.12475187856E+02  0.44765685529E+02  0.46652770362E+02  0.00000000000E+00 0. -1.
         11    1    1    2    0    0  0.48604406524E+01  0.60258395777E+00 -0.18010117114E+03  0.18016775194E+03  0.00000000000E+00 0. -1.
        -15    1    1    2    0    0 -0.32933138767E+01  0.42038293820E+01  0.78316201518E+02  0.78518171444E+02  0.17770000000E+01 0.  1.
         15    1    1    2    0    0  0.25418961714E+01 -0.17281601196E+02  0.57019284098E+02  0.59661306256E+02  0.17770000000E+01 0. -1.
</event>
<event>
 6    1  0.1108180E-002  0.1835135E+03  0.7546771E-02  0.1067651E+00
        -11   -1    0    0    0    0  0.00000000000E+00  0.00000000000E+00  0.18250000000E+03  0.18250000000E+03  0.00000000000E+00 0. -1.
         11   -1    0    0    0    0 -0.00000000000E+00 -0.00000000000E+00 -0.18250000000E+03  0.18250000000E+03  0.00000000000E+00 0.  1.
        -11    1    1    2    0    0  0.15360438131E+01  0.47161083433E+01  0.18141875753E+03  0.18148654686E+03  0.00000000000E+00 0. -1.
         11    1    1    2    0    0 -0.16197838973E+01  0.27794695568E+01 -0.15941260096E+03  0.15944505792E+03  0.00000000000E+00 0.  1.
        -15    1    1    2    0    0  0.16714989270E+00 -0.64708383823E+01 -0.11108679124E+02  0.12979220675E+02  0.17770000000E+01 0.  1.
         15    1    1    2    0    0 -0.83409808417E-01 -0.10247395178E+01 -0.10897477444E+02  0.11089174538E+02  0.17770000000E+01 0.  1.
</event>
<event>
 6    1  0.1108180E-002  0.1832620E+03  0.7546771E-02  0.1067850E+00
        -11   -1    0    0    0    0  0.00000000000E+00  0.00000000000E+00  0.18250000000E+03  0.18250000000E+03  0.00000000000E+00 0.  1.
         11   -1    0    0    0    0 -0.00000000000E+00 -0.00000000000E+00 -0.18250000000E+03  0.18250000000E+03  0.00000000000E+00 0.  1.
        -11    1    1    2    0    0 -0.24618344755E+01  0.72597650075E+01  0.18157626339E+03  0.18173800990E+03  0.00000000000E+00 0.  1.
         11    1    1    2    0    0  0.25978133715E+01 -0.59222501071E+00 -0.14519817515E+03  0.14522262025E+03  0.00000000000E+00 0.  1.
        -15    1    1    2    0    0  0.14461323004E+01 -0.39191026144E+01 -0.32126093385E+02  0.32445250332E+02  0.17770000000E+01 0.  1.
         15    1    1    2    0    0 -0.15821111964E+01 -0.27484373824E+01 -0.42519948535E+01  0.55941195122E+01  0.17770000000E+01 0. -1.
</event>
<event>
 6    1  0.1108180E-002  0.1830026E+03  0.7546771E-02  0.1068055E+00
        -11   -1    0    0    0    0  0.00000000000E+00  0.00000000000E+00  0.18250000000E+03  0.18250000000E+03  0.00000000000E+00 0.  1.
         11   -1    0    0    0    0 -0.00000000000E+00 -0.00000000000E+00 -0.18250000000E+03  0.18250000000E+03  0.00000000000E+00 0.  1.
        -11    1    1    2    0    0 -0.12350974099E+01  0.18224663353E+01  0.58478134243E+02  0.58519561121E+02  0.00000000000E+00 0.  1.
         11    1    1    2    0    0  0.75605332807E+00  0.34426947280E+01 -0.18196323468E+03  0.18199736959E+03  0.00000000000E+00 0.  1.
        -15    1    1    2    0    0  0.22518288311E+01  0.27210126565E+01  0.85278583444E+02  0.85370188979E+02  0.17770000000E+01 0. -1.
         15    1    1    2    0    0 -0.17727847493E+01 -0.79861737198E+01  0.38206516991E+02  0.39112880309E+02  0.17770000000E+01 0.  1.
</event>
<event>
 6    1  0.1108180E-002  0.1830153E+03  0.7546771E-02  0.1068045E+00
        -11   -1    0    0    0    0  0.00000000000E+00  0.00000000000E+00  0.18250000000E+03  0.18250000000E+03  0.00000000000E+00 0.  1.
         11   -1    0    0    0    0 -0.00000000000E+00 -0.00000000000E+00 -0.18250000000E+03  0.18250000000E+03  0.00000000000E+00 0. -1.
        -11    1    1    2    0    0  0.34121698647E+01  0.18796961607E+01  0.18194302235E+03  0.18198472337E+03  0.00000000000E+00 0.  1.
         11    1    1    2    0    0 -0.28196925131E+01 -0.58519163660E+00 -0.21680992978E+02  0.21871409914E+02  0.00000000000E+00 0. -1.
        -15    1    1    2    0    0  0.15636363348E+01 -0.77062888697E+01 -0.48693156343E+02  0.49355982923E+02  0.17770000000E+01 0.  1.
         15    1    1    2    0    0 -0.21561136865E+01  0.64117843456E+01 -0.11156887303E+03  0.11178788379E+03  0.17770000000E+01 0. -1.
</event>
<event>
 6    1  0.1108180E-002  0.1828792E+03  0.7546771E-02  0.1068153E+00
        -11   -1    0    0    0    0  0.00000000000E+00  0.00000000000E+00  0.18250000000E+03  0.18250000000E+03  0.00000000000E+00 0.  1.
         11   -1    0    0    0    0 -0.00000000000E+00 -0.00000000000E+00 -0.18250000000E+03  0.18250000000E+03  0.00000000000E+00 0. -1.
        -11    1    1    2    0    0 -0.11497272954E+01 -0.26629918490E+01  0.15229770092E+03  0.15232531997E+03  0.00000000000E+00 0.  1.
         11    1    1    2    0    0  0.47448167288E+00  0.26353391604E+01 -0.18210109564E+03  0.18212078185E+03  0.00000000000E+00 0. -1.
        -15    1    1    2    0    0  0.13331983408E+01  0.26732069907E+01  0.15567193032E+02  0.15950507244E+02  0.17770000000E+01 0.  1.
         15    1    1    2    0    0 -0.65795271830E+00 -0.26455543021E+01  0.14236201694E+02  0.14603390943E+02  0.17770000000E+01 0.  1.
</event>
<event>
 6    1  0.1108180E-002  0.1850720E+03  0.7546771E-02  0.1066426E+00
        -11   -1    0    0    0    0  0.00000000000E+00  0.00000000000E+00  0.18250000000E+03  0.18250000000E+03  0.00000000000E+00 0.  1.
         11   -1    0    0    0    0 -0.00000000000E+00 -0.00000000000E+00 -0.18250000000E+03  0.18250000000E+03  0.00000000000E+00 0. -1.
        -11    1    1    2    0    0 -0.26694949822E+00  0.34310356139E+01  0.17989510380E+03  0.17992801794E+03  0.00000000000E+00 0.  1.
         11    1    1    2    0    0 -0.47470368460E+01  0.53995329197E-01 -0.16272427932E+03  0.16279351447E+03  0.00000000000E+00 0. -1.
        -15    1    1    2    0    0 -0.87978177466E+00  0.61837924041E+00  0.12523344977E+01  0.24253823513E+01  0.17770000000E+01 0.  1.
         15    1    1    2    0    0  0.58937681189E+01 -0.41034101836E+01 -0.18423158978E+02  0.19853085239E+02  0.17770000000E+01 0. -1.
</event>
<event>
 6    1  0.1108180E-002  0.1836516E+03  0.7546771E-02  0.1067542E+00
        -11   -1    0    0    0    0  0.00000000000E+00  0.00000000000E+00  0.18250000000E+03  0.18250000000E+03  0.00000000000E+00 0.  1.
         11   -1    0    0    0    0 -0.00000000000E+00 -0.00000000000E+00 -0.18250000000E+03  0.18250000000E+03  0.00000000000E+00 0.  1.
        -11    1    1    2    0    0  0.35530540710E+01  0.22001470722E+01  0.18130025799E+03  0.18134841711E+03  0.00000000000E+00 0.  1.
         11    1    1    2    0    0  0.60362516529E+01 -0.68427450695E+00 -0.12985012391E+03  0.12999215071E+03  0.00000000000E+00 0.  1.
        -15    1    1    2    0    0 -0.62411994691E+01 -0.43345832380E+01 -0.15038764548E+02  0.16942943983E+02  0.17770000000E+01 0.  1.
         15    1    1    2    0    0 -0.33481062548E+01  0.28187106727E+01 -0.36411369535E+02  0.36716488200E+02  0.17770000000E+01 0. -1.
</event>
<event>
 6    1  0.1108180E-002  0.1838449E+03  0.7546771E-02  0.1067389E+00
        -11   -1    0    0    0    0  0.00000000000E+00  0.00000000000E+00  0.18250000000E+03  0.18250000000E+03  0.00000000000E+00 0.  1.
         11   -1    0    0    0    0 -0.00000000000E+00 -0.00000000000E+00 -0.18250000000E+03  0.18250000000E+03  0.00000000000E+00 0. -1.
        -11    1    1    2    0    0 -0.12398654334E+01  0.20531649726E+01  0.16401624966E+03  0.16403378586E+03  0.00000000000E+00 0.  1.
         11    1    1    2    0    0 -0.27526497666E+01 -0.67339677444E+01 -0.18100895575E+03  0.18115508678E+03  0.00000000000E+00 0. -1.
        -15    1    1    2    0    0  0.38353142630E+01 -0.51807325866E+00  0.10333054686E+02  0.11176215081E+02  0.17770000000E+01 0.  1.
         15    1    1    2    0    0  0.15720093691E+00  0.51988760304E+01  0.66596514106E+01  0.86349122766E+01  0.17770000000E+01 0. -1.
</event>
<event>
 6    1  0.1108180E-002  0.1841977E+03  0.7546771E-02  0.1067111E+00
        -11   -1    0    0    0    0  0.00000000000E+00  0.00000000000E+00  0.18250000000E+03  0.18250000000E+03  0.00000000000E+00 0.  1.
         11   -1    0    0    0    0 -0.00000000000E+00 -0.00000000000E+00 -0.18250000000E+03  0.18250000000E+03  0.00000000000E+00 0.  1.
        -11    1    1    2    0    0  0.16553341668E+00 -0.17983435105E+01  0.10778435539E+03  0.10779948380E+03  0.00000000000E+00 0.  1.
         11    1    1    2    0    0  0.35457712366E+01 -0.48754361400E+01 -0.18070177139E+03  0.18080230241E+03  0.00000000000E+00 0.  1.
        -15    1    1    2    0    0 -0.34879136428E+01  0.61024552570E+00  0.68663852299E+02  0.68778050879E+02  0.17770000000E+01 0.  1.
         15    1    1    2    0    0 -0.22339101047E+00  0.60635341248E+01  0.42535637074E+01  0.76201629142E+01  0.17770000000E+01 0.  1.
</event>
<event>
 6    1  0.1108180E-002  0.1846450E+03  0.7546771E-02  0.1066760E+00
        -11   -1    0    0    0    0  0.00000000000E+00  0.00000000000E+00  0.18250000000E+03  0.18250000000E+03  0.00000000000E+00 0. -1.
         11   -1    0    0    0    0 -0.00000000000E+00 -0.00000000000E+00 -0.18250000000E+03  0.18250000000E+03  0.00000000000E+00 0.  1.
        -11    1    1    2    0    0  0.41586042321E+01 -0.20893003391E+00  0.18030696012E+03  0.18035503184E+03  0.00000000000E+00 0. -1.
         11    1    1    2    0    0 -0.10053237864E+02 -0.60098736741E+00 -0.17098326379E+03  0.17127961137E+03  0.00000000000E+00 0.  1.
        -15    1    1    2    0    0 -0.55869175894E+00 -0.12344587817E+00 -0.50130570076E+01  0.53493779945E+01  0.17770000000E+01 0. -1.
         15    1    1    2    0    0  0.64533253906E+01  0.93336327949E+00 -0.43106393272E+01  0.80159787935E+01  0.17770000000E+01 0.  1.
</event>
<event>
 6    1  0.1108180E-002  0.1834392E+03  0.7546771E-02  0.1067710E+00
        -11   -1    0    0    0    0  0.00000000000E+00  0.00000000000E+00  0.18250000000E+03  0.18250000000E+03  0.00000000000E+00 0.  1.
         11   -1    0    0    0    0 -0.00000000000E+00 -0.00000000000E+00 -0.18250000000E+03  0.18250000000E+03  0.00000000000E+00 0.  1.
        -11    1    1    2    0    0 -0.17914155595E+01 -0.23570937497E+01  0.18153668687E+03  0.18156082655E+03  0.00000000000E+00 0.  1.
         11    1    1    2    0    0 -0.86582497060E+01 -0.27898768573E+01 -0.92520382442E+02  0.92966498633E+02  0.00000000000E+00 0.  1.
        -15    1    1    2    0    0 -0.11569810524E+01  0.24167949857E+01 -0.90790323995E+01  0.96315139760E+01  0.17770000000E+01 0. -1.
         15    1    1    2    0    0  0.11606646318E+02  0.27301756213E+01 -0.79937272025E+02  0.80841160837E+02  0.17770000000E+01 0.  1.
</event>
<event>
 6    1  0.1497987E-002  0.1836213E+03  0.7546771E-02  0.1067566E+00
        -11   -1    0    0    0    0  0.00000000000E+00  0.00000000000E+00  0.18250000000E+03  0.18250000000E+03  0.00000000000E+00 0.  1.
         11   -1    0    0    0    0 -0.00000000000E+00 -0.00000000000E+00 -0.18250000000E+03  0.18250000000E+03  0.00000000000E+00 0.  1.
        -11    1    1    2    0    0  0.68975658365E+00 -0.25985520792E+01  0.18135877968E+03  0.18137870659E+03  0.00000000000E+00 0.  1.
         11    1    1    2    0    0 -0.19171944492E+01 -0.96946274118E+00 -0.10983692599E+03  0.10985793464E+03  0.00000000000E+00 0.  1.
        -15    1    1    2    0    0  0.14995441049E+00  0.26327006093E+01 -0.11909452100E+01  0.33955380010E+01  0.17770000000E+01 0.  1.
         15    1    1    2    0    0  0.10774834551E+01  0.93531421108E+00 -0.70330908480E+02  0.70367820770E+02  0.17770000000E+01 0.  1.
</event>
<event>
 6    1  0.1108180E-002  0.1830939E+03  0.7546771E-02  0.1067983E+00
        -11   -1    0    0    0    0  0.00000000000E+00  0.00000000000E+00  0.18250000000E+03  0.18250000000E+03  0.00000000000E+00 0.  1.
         11   -1    0    0    0    0 -0.00000000000E+00 -0.00000000000E+00 -0.18250000000E+03  0.18250000000E+03  0.00000000000E+00 0. -1.
        -11    1    1    2    0    0  0.18815863226E+01  0.30078311048E+01  0.14293759625E+03  0.14298162062E+03  0.00000000000E+00 0.  1.
         11    1    1    2    0    0  0.23193612252E+01  0.11101841304E+01 -0.18188797074E+03  0.18190614570E+03  0.00000000000E+00 0. -1.
        -15    1    1    2    0    0  0.12392259433E+01 -0.24412840073E+01  0.89918400781E+01  0.95659011877E+01  0.17770000000E+01 0.  1.
         15    1    1    2    0    0 -0.54401734910E+01 -0.16767312279E+01  0.29958534411E+02  0.30546332485E+02  0.17770000000E+01 0. -1.
</event>
<event>
 6    1  0.1108180E-002  0.1652451E+03  0.7546771E-02  0.1083085E+00
        -11   -1    0    0    0    0  0.00000000000E+00  0.00000000000E+00  0.18250000000E+03  0.18250000000E+03  0.00000000000E+00 0.  1.
         11   -1    0    0    0    0 -0.00000000000E+00 -0.00000000000E+00 -0.18250000000E+03  0.18250000000E+03  0.00000000000E+00 0.  1.
        -11    1    1    2    0    0  0.20698233533E+01  0.94833886798E+01  0.16289517832E+03  0.16318412285E+03  0.00000000000E+00 0.  1.
         11    1    1    2    0    0  0.51913903104E+01  0.61923011177E+01 -0.16759600410E+03  0.16779069020E+03  0.00000000000E+00 0.  1.
        -15    1    1    2    0    0  0.63640002435E-01 -0.12357669376E+02  0.15842237683E+02  0.20170529648E+02  0.17770000000E+01 0. -1.
         15    1    1    2    0    0 -0.73248536661E+01 -0.33180204212E+01 -0.11141411908E+02  0.13854657306E+02  0.17770000000E+01 0.  1.
</event>
<event>
 6    1  0.1108180E-002  0.2026162E+03  0.7546771E-02  0.1053482E+00
        -11   -1    0    0    0    0  0.00000000000E+00  0.00000000000E+00  0.18250000000E+03  0.18250000000E+03  0.00000000000E+00 0. -1.
         11   -1    0    0    0    0 -0.00000000000E+00 -0.00000000000E+00 -0.18250000000E+03  0.18250000000E+03  0.00000000000E+00 0. -1.
        -11    1    1    2    0    0 -0.49038595678E+01 -0.16179117164E+01  0.88193115104E+02  0.88344162392E+02  0.00000000000E+00 0. -1.
         11    1    1    2    0    0 -0.23501925111E+02  0.22951882206E+02 -0.15902627614E+03  0.16238376115E+03  0.00000000000E+00 0. -1.
        -15    1    1    2    0    0  0.53677309728E+02  0.27461589941E+01  0.50846196333E+02  0.74008704754E+02  0.17770000000E+01 0. -1.
         15    1    1    2    0    0 -0.25271525050E+02 -0.24080129484E+02  0.19986964702E+02  0.40263371708E+02  0.17770000000E+01 0.  1.
</event>
<event>
 6    1  0.1108180E-002  0.1894748E+03  0.7546771E-02  0.1063035E+00
        -11   -1    0    0    0    0  0.00000000000E+00  0.00000000000E+00  0.18250000000E+03  0.18250000000E+03  0.00000000000E+00 0. -1.
         11   -1    0    0    0    0 -0.00000000000E+00 -0.00000000000E+00 -0.18250000000E+03  0.18250000000E+03  0.00000000000E+00 0.  1.
        -11    1    1    2    0    0 -0.83417214002E-02  0.38063411097E+01  0.17548397109E+03  0.17552524722E+03  0.00000000000E+00 0. -1.
         11    1    1    2    0    0  0.13995313344E+01  0.23649425486E+01 -0.11809368181E+03  0.11812565058E+03  0.00000000000E+00 0.  1.
        -15    1    1    2    0    0  0.39871711063E+01  0.39521234563E+00  0.59654755198E+01  0.74025909928E+01  0.17770000000E+01 0. -1.
         15    1    1    2    0    0 -0.53783607194E+01 -0.65664960039E+01 -0.63355764799E+02  0.63946511211E+02  0.17770000000E+01 0.  1.
</event>
<event>
 6    1  0.1108180E-002  0.1827767E+03  0.7546771E-02  0.1068235E+00
        -11   -1    0    0    0    0  0.00000000000E+00  0.00000000000E+00  0.18250000000E+03  0.18250000000E+03  0.00000000000E+00 0.  1.
         11   -1    0    0    0    0 -0.00000000000E+00 -0.00000000000E+00 -0.18250000000E+03  0.18250000000E+03  0.00000000000E+00 0.  1.
        -11    1    1    2    0    0 -0.11683359580E+01 -0.19855004673E+01  0.26911697597E+02  0.27010121965E+02  0.00000000000E+00 0.  1.
         11    1    1    2    0    0 -0.24123463872E+01  0.11838518571E+01 -0.18220346556E+03  0.18222328002E+03  0.00000000000E+00 0.  1.
        -15    1    1    2    0    0  0.48050243219E+01 -0.40125624792E+01  0.10424927396E+03  0.10445217933E+03  0.17770000000E+01 0.  1.
         15    1    1    2    0    0 -0.12243419767E+01  0.48142110894E+01  0.51042494002E+02  0.51314418681E+02  0.17770000000E+01 0. -1.
</event>
<event>
 6    1  0.1108180E-002  0.1841570E+03  0.7546771E-02  0.1067143E+00
        -11   -1    0    0    0    0  0.00000000000E+00  0.00000000000E+00  0.18250000000E+03  0.18250000000E+03  0.00000000000E+00 0. -1.
         11   -1    0    0    0    0 -0.00000000000E+00 -0.00000000000E+00 -0.18250000000E+03  0.18250000000E+03  0.00000000000E+00 0.  1.
        -11    1    1    2    0    0 -0.20753469539E+01 -0.52557864657E+00  0.15278562426E+03  0.15280062264E+03  0.00000000000E+00 0. -1.
         11    1    1    2    0    0 -0.51531812172E+01 -0.66035526310E+00 -0.18076834128E+03  0.18084298315E+03  0.00000000000E+00 0.  1.
        -15    1    1    2    0    0  0.30429030826E+01 -0.69462122160E+00  0.25668637553E+02  0.25918689023E+02  0.17770000000E+01 0. -1.
         15    1    1    2    0    0  0.41856250884E+01  0.18805551313E+01  0.23140794601E+01  0.54377051897E+01  0.17770000000E+01 0.  1.
</event>
<event>
 6    1  0.1108180E-002  0.1827759E+03  0.7546771E-02  0.1068235E+00
        -11   -1    0    0    0    0  0.00000000000E+00  0.00000000000E+00  0.18250000000E+03  0.18250000000E+03  0.00000000000E+00 0. -1.
         11   -1    0    0    0    0 -0.00000000000E+00 -0.00000000000E+00 -0.18250000000E+03  0.18250000000E+03  0.00000000000E+00 0.  1.
        -11    1    1    2    0    0 -0.12732721947E+01 -0.26853679860E+01  0.18219989281E+03  0.18222412947E+03  0.00000000000E+00 0. -1.
         11    1    1    2    0    0  0.40868875142E+01 -0.10633575871E+01 -0.35760573900E+02  0.36009054758E+02  0.00000000000E+00 0.  1.
        -15    1    1    2    0    0 -0.38201978097E+01  0.55017241442E+01 -0.11686762969E+03  0.11707289813E+03  0.17770000000E+01 0.  1.
         15    1    1    2    0    0  0.10065824903E+01 -0.17529985711E+01 -0.29571689220E+02  0.29693917637E+02  0.17770000000E+01 0. -1.
</event>
<event>
 6    1  0.1108180E-002  0.1851719E+03  0.7546771E-02  0.1066348E+00
        -11   -1    0    0    0    0  0.00000000000E+00  0.00000000000E+00  0.18250000000E+03  0.18250000000E+03  0.00000000000E+00 0. -1.
         11   -1    0    0    0    0 -0.00000000000E+00 -0.00000000000E+00 -0.18250000000E+03  0.18250000000E+03  0.00000000000E+00 0.  1.
        -11    1    1    2    0    0 -0.79457717354E+01  0.57069976463E+01  0.17956175834E+03  0.17982805723E+03  0.00000000000E+00 0. -1.
         11    1    1    2    0    0 -0.22108244905E+01 -0.12575434510E+01 -0.15631758254E+03  0.15633827354E+03  0.00000000000E+00 0.  1.
        -15    1    1    2    0    0  0.10058738818E+02  0.12537710133E+01 -0.18635328643E+02  0.21288103979E+02  0.17770000000E+01 0.  1.
         15    1    1    2    0    0  0.97857408005E-01 -0.57032252086E+01 -0.46088471526E+01  0.75455652491E+01  0.17770000000E+01 0. -1.
</event>
<event>
 6    1  0.1108180E-002  0.1752953E+03  0.7546771E-02  0.1074339E+00
        -11   -1    0    0    0    0  0.00000000000E+00  0.00000000000E+00  0.18250000000E+03  0.18250000000E+03  0.00000000000E+00 0.  1.
         11   -1    0    0    0    0 -0.00000000000E+00 -0.00000000000E+00 -0.18250000000E+03  0.18250000000E+03  0.00000000000E+00 0. -1.
        -11    1    1    2    0    0  0.34848175700E+00  0.24840624296E+01  0.17529276432E+03  0.17531071053E+03  0.00000000000E+00 0.  1.
         11    1    1    2    0    0 -0.71543182112E+01  0.22702699568E+01 -0.17521753237E+03  0.17537822569E+03  0.00000000000E+00 0. -1.
        -15    1    1    2    0    0  0.84736717924E+01 -0.51277809445E+01  0.28759807982E+01  0.10465478757E+02  0.17770000000E+01 0. -1.
         15    1    1    2    0    0 -0.16678353382E+01  0.37344855814E+00 -0.29512127435E+01  0.38455850268E+01  0.17770000000E+01 0.  1.
</event>
<event>
 6    1  0.1108180E-002  0.1881948E+03  0.7546771E-02  0.1064010E+00
        -11   -1    0    0    0    0  0.00000000000E+00  0.00000000000E+00  0.18250000000E+03  0.18250000000E+03  0.00000000000E+00 0. -1.
         11   -1    0    0    0    0 -0.00000000000E+00 -0.00000000000E+00 -0.18250000000E+03  0.18250000000E+03  0.00000000000E+00 0. -1.
        -11    1    1    2    0    0  0.77789195535E+00  0.35800536837E+01  0.17676724697E+03  0.17680520779E+03  0.00000000000E+00 0. -1.
         11    1    1    2    0    0 -0.32323286858E+01  0.18859951457E+01 -0.12610031884E+03  0.12615583751E+03  0.00000000000E+00 0. -1.
        -15    1    1    2    0    0 -0.40528559030E+01 -0.51868483388E+01 -0.54056303422E+02  0.54484591448E+02  0.17770000000E+01 0. -1.
         15    1    1    2    0    0  0.65072926335E+01 -0.27920049057E+00  0.33893752832E+01  0.75543632520E+01  0.17770000000E+01 0.  1.
</event>
<event>
 6    1  0.1108180E-002  0.1853571E+03  0.7546771E-02  0.1066203E+00
        -11   -1    0    0    0    0  0.00000000000E+00  0.00000000000E+00  0.18250000000E+03  0.18250000000E+03  0.00000000000E+00 0. -1.
         11   -1    0    0    0    0 -0.00000000000E+00 -0.00000000000E+00 -0.18250000000E+03  0.18250000000E+03  0.00000000000E+00 0.  1.
        -11    1    1    2    0    0 -0.65477794260E+01  0.46673382612E+01  0.14721270427E+03  0.14743214629E+03  0.00000000000E+00 0. -1.
         11    1    1    2    0    0 -0.47614242156E+01 -0.39329786316E+01 -0.17953669293E+03  0.17964287792E+03  0.00000000000E+00 0.  1.
        -15    1    1    2    0    0  0.38016455104E+01  0.83245262129E+00 -0.37219696521E+00  0.42943853500E+01  0.17770000000E+01 0. -1.
         15    1    1    2    0    0  0.75075581313E+01 -0.15668122508E+01  0.32696185623E+02  0.33630590435E+02  0.17770000000E+01 0. -1.
</event>
<event>
 6    1  0.1108180E-002  0.1834246E+03  0.7546771E-02  0.1067721E+00
        -11   -1    0    0    0    0  0.00000000000E+00  0.00000000000E+00  0.18250000000E+03  0.18250000000E+03  0.00000000000E+00 0. -1.
         11   -1    0    0    0    0 -0.00000000000E+00 -0.00000000000E+00 -0.18250000000E+03  0.18250000000E+03  0.00000000000E+00 0. -1.
        -11    1    1    2    0    0 -0.15218541967E+01  0.19390591662E+01  0.18155871404E+03  0.18157544613E+03  0.00000000000E+00 0. -1.
         11    1    1    2    0    0 -0.30706865915E+01 -0.62881416945E-01 -0.16548462640E+03  0.16551312530E+03  0.00000000000E+00 0. -1.
        -15    1    1    2    0    0  0.21928116028E+01 -0.11177189840E+01 -0.23314211999E+01  0.38276588489E+01  0.17770000000E+01 0. -1.
         15    1    1    2    0    0  0.23997291853E+01 -0.75845876530E+00 -0.13742666438E+02  0.14083769726E+02  0.17770000000E+01 0. -1.
</event>
<event>
 6    1  0.1108180E-002  0.1814694E+03  0.7546771E-02  0.1069278E+00
        -11   -1    0    0    0    0  0.00000000000E+00  0.00000000000E+00  0.18250000000E+03  0.18250000000E+03  0.00000000000E+00 0.  1.
         11   -1    0    0    0    0 -0.00000000000E+00 -0.00000000000E+00 -0.18250000000E+03  0.18250000000E+03  0.00000000000E+00 0.  1.
        -11    1    1    2    0    0 -0.91717994868E+00  0.46037379687E+00  0.22609062189E+01  0.24829136155E+01  0.00000000000E+00 0.  1.
         11    1    1    2    0    0 -0.32026778971E+01  0.16210642837E+01 -0.18212523596E+03  0.18216060653E+03  0.00000000000E+00 0.  1.
        -15    1    1    2    0    0 -0.17493749825E+01 -0.55144717299E+01  0.10027255102E+03  0.10045502441E+03  0.17770000000E+01 0.  1.
         15    1    1    2    0    0  0.58692328283E+01  0.34330336493E+01  0.79591778722E+02  0.79901455450E+02  0.17770000000E+01 0. -1.
</event>
<event>
 6    1  0.1108180E-002  0.1825608E+03  0.7546771E-02  0.1068406E+00
        -11   -1    0    0    0    0  0.00000000000E+00  0.00000000000E+00  0.18250000000E+03  0.18250000000E+03  0.00000000000E+00 0.  1.
         11   -1    0    0    0    0 -0.00000000000E+00 -0.00000000000E+00 -0.18250000000E+03  0.18250000000E+03  0.00000000000E+00 0. -1.
        -11    1    1    2    0    0 -0.29417501433E+01  0.46046610977E+00  0.18241489885E+03  0.18243919876E+03  0.00000000000E+00 0.  1.
         11    1    1    2    0    0  0.74871717641E+00  0.23757233858E-01 -0.52505647823E+02  0.52510991184E+02  0.00000000000E+00 0. -1.
        -15    1    1    2    0    0  0.33746599662E+01 -0.20700871207E+00 -0.92361955840E+02  0.92440898947E+02  0.17770000000E+01 0. -1.
         15    1    1    2    0    0 -0.11816269993E+01 -0.27721463155E+00 -0.37547295183E+02  0.37608911110E+02  0.17770000000E+01 0. -1.
</event>
<event>
 6    1  0.1108180E-002  0.1857054E+03  0.7546771E-02  0.1065932E+00
        -11   -1    0    0    0    0  0.00000000000E+00  0.00000000000E+00  0.18250000000E+03  0.18250000000E+03  0.00000000000E+00 0. -1.
         11   -1    0    0    0    0 -0.00000000000E+00 -0.00000000000E+00 -0.18250000000E+03  0.18250000000E+03  0.00000000000E+00 0.  1.
        -11    1    1    2    0    0  0.33771103522E+01  0.32897325380E+01  0.17923265264E+03  0.17929464852E+03  0.00000000000E+00 0. -1.
         11    1    1    2    0    0 -0.40454156006E+01  0.20369573898E+00 -0.17319761520E+03  0.17324497334E+03  0.00000000000E+00 0.  1.
        -15    1    1    2    0    0 -0.25287936768E+01 -0.29485823254E+01  0.11113661793E+01  0.44138190916E+01  0.17770000000E+01 0. -1.
         15    1    1    2    0    0  0.31970989251E+01 -0.54484595161E+00 -0.71464036276E+01  0.80465590445E+01  0.17770000000E+01 0. -1.
</event>
<event>
 6    1  0.1108180E-002  0.1867798E+03  0.7546771E-02  0.1065098E+00
        -11   -1    0    0    0    0  0.00000000000E+00  0.00000000000E+00  0.18250000000E+03  0.18250000000E+03  0.00000000000E+00 0.  1.
         11   -1    0    0    0    0 -0.00000000000E+00 -0.00000000000E+00 -0.18250000000E+03  0.18250000000E+03  0.00000000000E+00 0.  1.
        -11    1    1    2    0    0  0.25006817066E+01 -0.12188394766E+01  0.16276499756E+03  0.16278876930E+03  0.00000000000E+00 0.  1.
         11    1    1    2    0    0  0.30848379168E+01  0.85965560335E+01 -0.17798602117E+03  0.17822020293E+03  0.00000000000E+00 0.  1.
        -15    1    1    2    0    0  0.41265175514E+01 -0.12315709453E+01  0.10410693957E+02  0.11405489545E+02  0.17770000000E+01 0.  1.
         15    1    1    2    0    0 -0.97120371748E+01 -0.61461456116E+01  0.48103296534E+01  0.12585538222E+02  0.17770000000E+01 0. -1.
</event>
<event>
 6    1  0.1108180E-002  0.1834207E+03  0.7546771E-02  0.1067724E+00
        -11   -1    0    0    0    0  0.00000000000E+00  0.00000000000E+00  0.18250000000E+03  0.18250000000E+03  0.00000000000E+00 0. -1.
         11   -1    0    0    0    0 -0.00000000000E+00 -0.00000000000E+00 -0.18250000000E+03  0.18250000000E+03  0.00000000000E+00 0.  1.
        -11    1    1    2    0    0 -0.56067128733E+01  0.20285602152E+01  0.18148141762E+03  0.18157933590E+03  0.00000000000E+00 0. -1.
         11    1    1    2    0    0 -0.25985858084E+01  0.23586480784E+01 -0.14669319941E+03  0.14673517173E+03  0.00000000000E+00 0.  1.
        -15    1    1    2    0    0  0.49731353829E+01 -0.52446501516E+01 -0.18050896510E+02  0.19525138273E+02  0.17770000000E+01 0.  1.
         15    1    1    2    0    0  0.32321632987E+01  0.85744185798E+00 -0.16737321694E+02  0.17160354094E+02  0.17770000000E+01 0.  1.
</event>
<event>
 6    1  0.1108180E-002  0.1826557E+03  0.7546771E-02  0.1068331E+00
        -11   -1    0    0    0    0  0.00000000000E+00  0.00000000000E+00  0.18250000000E+03  0.18250000000E+03  0.00000000000E+00 0. -1.
         11   -1    0    0    0    0 -0.00000000000E+00 -0.00000000000E+00 -0.18250000000E+03  0.18250000000E+03  0.00000000000E+00 0. -1.
        -11    1    1    2    0    0 -0.12599907148E+01 -0.30824138563E+01  0.83921648278E+02  0.83987688988E+02  0.00000000000E+00 0. -1.
         11    1    1    2    0    0  0.80324113519E+01 -0.11476863181E+01 -0.18216365229E+03  0.18234427063E+03  0.00000000000E+00 0. -1.
        -15    1    1    2    0    0 -0.40769745390E+01  0.37259229116E+01  0.69197188335E+02  0.69439994423E+02  0.17770000000E+01 0. -1.
         15    1    1    2    0    0 -0.26954460981E+01  0.50417726278E+00  0.29044815673E+02  0.29228045963E+02  0.17770000000E+01 0.  1.
</event>
<event>
 6    1  0.1108180E-002  0.1832892E+03  0.7546771E-02  0.1067828E+00
        -11   -1    0    0    0    0  0.00000000000E+00  0.00000000000E+00  0.18250000000E+03  0.18250000000E+03  0.00000000000E+00 0.  1.
         11   -1    0    0    0    0 -0.00000000000E+00 -0.00000000000E+00 -0.18250000000E+03  0.18250000000E+03  0.00000000000E+00 0. -1.
        -11    1    1    2    0    0  0.23199916487E+01 -0.84014454366E+00  0.14599076446E+03  0.14601161430E+03  0.00000000000E+00 0.  1.
         11    1    1    2    0    0  0.44916782123E+01  0.82440887871E+00 -0.18165341306E+03  0.18171080677E+03  0.00000000000E+00 0. -1.
        -15    1    1    2    0    0 -0.55449514642E+01  0.16432732519E+01  0.32696337055E+02  0.33251391242E+02  0.17770000000E+01 0. -1.
         15    1    1    2    0    0 -0.12667183968E+01 -0.16275375870E+01  0.29663115434E+01  0.40261876840E+01  0.17770000000E+01 0.  1.
</event>
<event>
 6    1  0.1108180E-002  0.1836684E+03  0.7546771E-02  0.1067529E+00
        -11   -1    0    0    0    0  0.00000000000E+00  0.00000000000E+00  0.18250000000E+03  0.18250000000E+03  0.00000000000E+00 0. -1.
         11   -1    0    0    0    0 -0.00000000000E+00 -0.00000000000E+00 -0.18250000000E+03  0.18250000000E+03  0.00000000000E+00 0.  1.
        -11    1    1    2    0    0 -0.29963953753E+01 -0.53216724837E+01  0.18122870270E+03  0.18133157824E+03  0.00000000000E+00 0. -1.
         11    1    1    2    0    0 -0.71128148526E+00 -0.25734131716E+01 -0.15283666636E+03  0.15285998482E+03  0.00000000000E+00 0.  1.
        -15    1    1    2    0    0  0.14692390914E+01  0.19279505618E+01 -0.20253037493E+01  0.36242573244E+01  0.17770000000E+01 0. -1.
         15    1    1    2    0    0  0.22384377692E+01  0.59671350935E+01 -0.26366732592E+02  0.27184179617E+02  0.17770000000E+01 0.  1.
</event>
<event>
 6    1  0.1108180E-002  0.1861174E+03  0.7546771E-02  0.1065611E+00
        -11   -1    0    0    0    0  0.00000000000E+00  0.00000000000E+00  0.18250000000E+03  0.18250000000E+03  0.00000000000E+00 0. -1.
         11   -1    0    0    0    0 -0.00000000000E+00 -0.00000000000E+00 -0.18250000000E+03  0.18250000000E+03  0.00000000000E+00 0. -1.
        -11    1    1    2    0    0  0.24421545182E+01 -0.15334976718E+01  0.11750617187E+03  0.11754155079E+03  0.00000000000E+00 0. -1.
         11    1    1    2    0    0 -0.59126626333E+01  0.26592190325E+01 -0.17876506185E+03  0.17888258261E+03  0.00000000000E+00 0. -1.
        -15    1    1    2    0    0  0.21904784970E+00 -0.34759788070E+01  0.63519616214E+02  0.63639844309E+02  0.17770000000E+01 0. -1.
         15    1    1    2    0    0  0.32514602654E+01  0.23502574463E+01 -0.22607262401E+01  0.49360222907E+01  0.17770000000E+01 0.  1.
</event>
<event>
 6    1  0.1108180E-002  0.1864606E+03  0.7546771E-02  0.1065345E+00
        -11   -1    0    0    0    0  0.00000000000E+00  0.00000000000E+00  0.18250000000E+03  0.18250000000E+03  0.00000000000E+00 0.  1.
         11   -1    0    0    0    0 -0.00000000000E+00 -0.00000000000E+00 -0.18250000000E+03  0.18250000000E+03  0.00000000000E+00 0. -1.
        -11    1    1    2    0    0  0.17561782800E+01 -0.35990444860E+01  0.17849443529E+03  0.17853935340E+03  0.00000000000E+00 0.  1.
         11    1    1    2    0    0 -0.19032084869E+01 -0.19852674441E+00 -0.10572830092E+03  0.10574561566E+03  0.00000000000E+00 0. -1.
        -15    1    1    2    0    0  0.72100941774E+01 -0.17532507286E+01 -0.70975318165E+02  0.71384262018E+02  0.17770000000E+01 0. -1.
         15    1    1    2    0    0 -0.70630639706E+01  0.55508219590E+01 -0.17908161972E+01  0.93307689246E+01  0.17770000000E+01 0.  1.
</event>
<event>
 6    1  0.1662934E-002  0.1457292E+03  0.7546771E-02  0.1102194E+00
        -11   -1    0    0    0    0  0.00000000000E+00  0.00000000000E+00  0.18250000000E+03  0.18250000000E+03  0.00000000000E+00 0.  1.
         11   -1    0    0    0    0 -0.00000000000E+00 -0.00000000000E+00 -0.18250000000E+03  0.18250000000E+03  0.00000000000E+00 0. -1.
        -11    1    1    2    0    0 -0.20410239599E+02 -0.29797170917E+01  0.13868080017E+03  0.14020635125E+03  0.00000000000E+00 0.  1.
         11    1    1    2    0    0  0.15069900570E+01 -0.15888338696E+01 -0.15219696013E+03  0.15221271328E+03  0.00000000000E+00 0. -1.
        -15    1    1    2    0    0 -0.30377231128E+01  0.10693220810E+01 -0.26511721309E+02  0.26765655366E+02  0.17770000000E+01 0.  1.
         15    1    1    2    0    0  0.21940972655E+02  0.34992288803E+01  0.40027881266E+02  0.45815280109E+02  0.17770000000E+01 0. -1.
</event>
<event>
 6    1  0.1108180E-002  0.1879387E+03  0.7546771E-02  0.1064206E+00
        -11   -1    0    0    0    0  0.00000000000E+00  0.00000000000E+00  0.18250000000E+03  0.18250000000E+03  0.00000000000E+00 0.  1.
         11   -1    0    0    0    0 -0.00000000000E+00 -0.00000000000E+00 -0.18250000000E+03  0.18250000000E+03  0.00000000000E+00 0. -1.
        -11    1    1    2    0    0  0.26593332787E+01  0.12425602751E+01  0.17703695311E+03  0.17706128537E+03  0.00000000000E+00 0.  1.
         11    1    1    2    0    0  0.47772258275E+01  0.76254192298E+01 -0.16831169712E+03  0.16855205810E+03  0.00000000000E+00 0. -1.
        -15    1    1    2    0    0  0.15810068979E+00 -0.31212646377E+01  0.26341712016E+01  0.44568908093E+01  0.17770000000E+01 0. -1.
         15    1    1    2    0    0 -0.75946597960E+01 -0.57467148671E+01 -0.11359427196E+02  0.14929765718E+02  0.17770000000E+01 0.  1.
</event>
<event>
 6    1  0.1108180E-002  0.1833459E+03  0.7546771E-02  0.1067783E+00
        -11   -1    0    0    0    0  0.00000000000E+00  0.00000000000E+00  0.18250000000E+03  0.18250000000E+03  0.00000000000E+00 0. -1.
         11   -1    0    0    0    0 -0.00000000000E+00 -0.00000000000E+00 -0.18250000000E+03  0.18250000000E+03  0.00000000000E+00 0.  1.
        -11    1    1    2    0    0 -0.16570839723E+01 -0.50011214236E+01  0.12296492016E+03  0.12307773451E+03  0.00000000000E+00 0. -1.
         11    1    1    2    0    0 -0.24793618346E+01  0.13239280645E+01 -0.18163238270E+03  0.18165412868E+03  0.00000000000E+00 0.  1.
        -15    1    1    2    0    0  0.55038590458E+01  0.47988457488E+01  0.56366160452E+02  0.56864955447E+02  0.17770000000E+01 0. -1.
         15    1    1    2    0    0 -0.13674132390E+01 -0.11216523897E+01  0.23013020930E+01  0.34031813605E+01  0.17770000000E+01 0. -1.
</event>
<event>
 6    1  0.1108180E-002  0.1828174E+03  0.7546771E-02  0.1068202E+00
        -11   -1    0    0    0    0  0.00000000000E+00  0.00000000000E+00  0.18250000000E+03  0.18250000000E+03  0.00000000000E+00 0. -1.
         11   -1    0    0    0    0 -0.00000000000E+00 -0.00000000000E+00 -0.18250000000E+03  0.18250000000E+03  0.00000000000E+00 0.  1.
        -11    1    1    2    0    0 -0.32484878945E+01  0.46939107820E+01  0.18209315457E+03  0.18218260733E+03  0.00000000000E+00 0. -1.
         11    1    1    2    0    0 -0.18461630479E+01 -0.14468662694E+01 -0.72037589584E+02  0.72075766060E+02  0.00000000000E+00 0.  1.
        -15    1    1    2    0    0 -0.13129625166E+01 -0.48332504694E+01 -0.39551874464E+02  0.39907301128E+02  0.17770000000E+01 0. -1.
         15    1    1    2    0    0  0.64076134590E+01  0.15862059569E+01 -0.70503690525E+02  0.70834325480E+02  0.17770000000E+01 0.  1.
</event>
<event>
 6    1  0.1108180E-002  0.1834341E+03  0.7546771E-02  0.1067714E+00
        -11   -1    0    0    0    0  0.00000000000E+00  0.00000000000E+00  0.18250000000E+03  0.18250000000E+03  0.00000000000E+00 0.  1.
         11   -1    0    0    0    0 -0.00000000000E+00 -0.00000000000E+00 -0.18250000000E+03  0.18250000000E+03  0.00000000000E+00 0.  1.
        -11    1    1    2    0    0 -0.91378572813E+01  0.38795149839E+01  0.18129433522E+03  0.18156593033E+03  0.00000000000E+00 0.  1.
         11    1    1    2    0    0 -0.71934882663E+00  0.30908729615E+01 -0.59897539587E+02  0.59981548888E+02  0.00000000000E+00 0.  1.
        -15    1    1    2    0    0 -0.19458361577E+01 -0.81973542500E+01 -0.76388313306E+02  0.76872069270E+02  0.17770000000E+01 0.  1.
         15    1    1    2    0    0  0.11803042266E+02  0.12269663046E+01 -0.45008482328E+02  0.46580451516E+02  0.17770000000E+01 0. -1.
</event>
<event>
 6    1  0.1108180E-002  0.1827167E+03  0.7546771E-02  0.1068282E+00
        -11   -1    0    0    0    0  0.00000000000E+00  0.00000000000E+00  0.18250000000E+03  0.18250000000E+03  0.00000000000E+00 0. -1.
         11   -1    0    0    0    0 -0.00000000000E+00 -0.00000000000E+00 -0.18250000000E+03  0.18250000000E+03  0.00000000000E+00 0.  1.
        -11    1    1    2    0    0 -0.39222932008E+00  0.26026681003E+01  0.18226428027E+03  0.18228328390E+03  0.00000000000E+00 0. -1.
         11    1    1    2    0    0 -0.44042757079E+00  0.91974156584E+00 -0.12121411240E+02  0.12164230820E+02  0.00000000000E+00 0.  1.
        -15    1    1    2    0    0 -0.17081171233E+01 -0.37918172119E+01 -0.27026443058E+02  0.27402224276E+02  0.17770000000E+01 0.  1.
         15    1    1    2    0    0  0.25407740142E+01  0.26940754581E+00 -0.14311642598E+03  0.14315026101E+03  0.17770000000E+01 0.  1.
</event>
<event>
 6    1  0.1108180E-002  0.1846767E+03  0.7546771E-02  0.1066735E+00
        -11   -1    0    0    0    0  0.00000000000E+00  0.00000000000E+00  0.18250000000E+03  0.18250000000E+03  0.00000000000E+00 0. -1.
         11   -1    0    0    0    0 -0.00000000000E+00 -0.00000000000E+00 -0.18250000000E+03  0.18250000000E+03  0.00000000000E+00 0. -1.
        -11    1    1    2    0    0 -0.17177065439E+01  0.30032390813E+01  0.18029006858E+03  0.18032326192E+03  0.00000000000E+00 0. -1.
         11    1    1    2    0    0 -0.46010493245E+01 -0.18196992190E+01 -0.63264693226E+02  0.63457878700E+02  0.00000000000E+00 0. -1.
        -15    1    1    2    0    0  0.37736064031E+01 -0.10949577984E+02 -0.16865987668E+02  0.20536616866E+02  0.17770000000E+01 0.  1.
         15    1    1    2    0    0  0.25451494652E+01  0.97660381215E+01 -0.10015938769E+03  0.10068224251E+03  0.17770000000E+01 0. -1.
</event>
<event>
 6    1  0.1108180E-002  0.1787163E+03  0.7546771E-02  0.1071507E+00
        -11   -1    0    0    0    0  0.00000000000E+00  0.00000000000E+00  0.18250000000E+03  0.18250000000E+03  0.00000000000E+00 0. -1.
         11   -1    0    0    0    0 -0.00000000000E+00 -0.00000000000E+00 -0.18250000000E+03  0.18250000000E+03  0.00000000000E+00 0. -1.
        -11    1    1    2    0    0  0.36483167742E+01 -0.63353999003E+00  0.17833296769E+03  0.17837140733E+03  0.00000000000E+00 0. -1.
         11    1    1    2    0    0 -0.27262484276E+01 -0.30011088430E+01 -0.17903570249E+03  0.17908160668E+03  0.00000000000E+00 0. -1.
        -15    1    1    2    0    0  0.16203637838E+01  0.32516086360E+01 -0.72857669273E+00  0.41093905279E+01  0.17770000000E+01 0. -1.
         15    1    1    2    0    0 -0.25424321305E+01  0.38304019708E+00  0.14313114942E+01  0.34375954567E+01  0.17770000000E+01 0. -1.
</event>
<event>
 6    1  0.1108180E-002  0.1887421E+03  0.7546771E-02  0.1063592E+00
        -11   -1    0    0    0    0  0.00000000000E+00  0.00000000000E+00  0.18250000000E+03  0.18250000000E+03  0.00000000000E+00 0. -1.
         11   -1    0    0    0    0 -0.00000000000E+00 -0.00000000000E+00 -0.18250000000E+03  0.18250000000E+03  0.00000000000E+00 0.  1.
        -11    1    1    2    0    0 -0.49558103229E+01  0.70125563261E+01  0.17604856829E+03  0.17625786337E+03  0.00000000000E+00 0. -1.
         11    1    1    2    0    0 -0.78452630452E+01 -0.17467125752E+01 -0.15451094404E+03  0.15471984677E+03  0.00000000000E+00 0.  1.
        -15    1    1    2    0    0  0.40427888163E+01 -0.88848706574E+00 -0.23458762086E+02  0.23887335521E+02  0.17770000000E+01 0. -1.
         15    1    1    2    0    0  0.87582845518E+01 -0.43773566852E+01  0.19211378419E+01  0.10134954339E+02  0.17770000000E+01 0.  1.
</event>
<event>
 6    1  0.1108180E-002  0.1690749E+03  0.7546771E-02  0.1079674E+00
        -11   -1    0    0    0    0  0.00000000000E+00  0.00000000000E+00  0.18250000000E+03  0.18250000000E+03  0.00000000000E+00 0. -1.
         11   -1    0    0    0    0 -0.00000000000E+00 -0.00000000000E+00 -0.18250000000E+03  0.18250000000E+03  0.00000000000E+00 0. -1.
        -11    1    1    2    0    0 -0.39511257275E+01 -0.29799306899E+01  0.16739641865E+03  0.16746955651E+03  0.00000000000E+00 0. -1.
         11    1    1    2    0    0 -0.28624943644E+01  0.21033192300E+01 -0.17072948576E+03  0.17076643445E+03  0.00000000000E+00 0. -1.
        -15    1    1    2    0    0  0.70475933345E+00 -0.28897637617E+01 -0.10512136815E+02  0.11068431223E+02  0.17770000000E+01 0. -1.
         15    1    1    2    0    0  0.61088607584E+01  0.37663752217E+01  0.13845203927E+02  0.15695577813E+02  0.17770000000E+01 0.  1.
</event>
<event>
 6    1  0.1108180E-002  0.1843355E+03  0.7546771E-02  0.1067003E+00
        -11   -1    0    0    0    0  0.00000000000E+00  0.00000000000E+00  0.18250000000E+03  0.18250000000E+03  0.00000000000E+00 0. -1.
         11   -1    0    0    0    0 -0.00000000000E+00 -0.00000000000E+00 -0.18250000000E+03  0.18250000000E+03  0.00000000000E+00 0. -1.
        -11    1    1    2    0    0  0.29875052325E+01  0.53951196541E-01  0.18063982465E+03  0.18066453539E+03  0.00000000000E+00 0. -1.
         11    1    1    2    0    0  0.26252320673E+00 -0.78999387093E+01 -0.12168141884E+03  0.12193787616E+03  0.00000000000E+00 0. -1.
        -15    1    1    2    0    0 -0.92754821203E+01  0.82543970285E+01 -0.26299125649E+02  0.29137113408E+02  0.17770000000E+01 0. -1.
         15    1    1    2    0    0  0.60254536811E+01 -0.40840951577E+00 -0.32659280161E+02  0.33260475042E+02  0.17770000000E+01 0.  1.
</event>
<event>
 6    1  0.1108180E-002  0.1861505E+03  0.7546771E-02  0.1065586E+00
        -11   -1    0    0    0    0  0.00000000000E+00  0.00000000000E+00  0.18250000000E+03  0.18250000000E+03  0.00000000000E+00 0. -1.
         11   -1    0    0    0    0 -0.00000000000E+00 -0.00000000000E+00 -0.18250000000E+03  0.18250000000E+03  0.00000000000E+00 0.  1.
        -11    1    1    2    0    0 -0.24573112987E+01 -0.55275263071E+00  0.17554507276E+03  0.17556314102E+03  0.00000000000E+00 0. -1.
         11    1    1    2    0    0  0.43438476541E+01 -0.33019510643E+01 -0.17876625773E+03  0.17884950880E+03  0.00000000000E+00 0.  1.
        -15    1    1    2    0    0  0.33279538341E+01  0.12341510156E+01  0.15579745805E+01  0.42642020642E+01  0.17770000000E+01 0.  1.
         15    1    1    2    0    0 -0.52144901895E+01  0.26205526794E+01  0.16632103931E+01  0.63231481157E+01  0.17770000000E+01 0. -1.
</event>
<event>
 6    1  0.1108180E-002  0.1712834E+03  0.7546771E-02  0.1077751E+00
        -11   -1    0    0    0    0  0.00000000000E+00  0.00000000000E+00  0.18250000000E+03  0.18250000000E+03  0.00000000000E+00 0. -1.
         11   -1    0    0    0    0 -0.00000000000E+00 -0.00000000000E+00 -0.18250000000E+03  0.18250000000E+03  0.00000000000E+00 0.  1.
        -11    1    1    2    0    0 -0.16770206451E+01  0.10591411264E+01  0.24998340817E+02  0.25076906144E+02  0.00000000000E+00 0. -1.
         11    1    1    2    0    0  0.18095006880E+02  0.12676996333E+02 -0.17912161342E+03  0.18047905115E+03  0.00000000000E+00 0.  1.
        -15    1    1    2    0    0  0.92657440002E+01 -0.74155249659E+01  0.76096988156E+02  0.77037350407E+02  0.17770000000E+01 0.  1.
         15    1    1    2    0    0 -0.25683730235E+02 -0.63206124933E+01  0.78026284450E+02  0.82406692296E+02  0.17770000000E+01 0. -1.
</event>
<event>
 6    1  0.1108180E-002  0.1686798E+03  0.7546771E-02  0.1080021E+00
        -11   -1    0    0    0    0  0.00000000000E+00  0.00000000000E+00  0.18250000000E+03  0.18250000000E+03  0.00000000000E+00 0. -1.
         11   -1    0    0    0    0 -0.00000000000E+00 -0.00000000000E+00 -0.18250000000E+03  0.18250000000E+03  0.00000000000E+00 0.  1.
        -11    1    1    2    0    0  0.14100509047E+02 -0.72253077536E+01  0.17017904434E+03  0.17091499805E+03  0.00000000000E+00 0. -1.
         11    1    1    2    0    0 -0.26244648740E+01  0.28802647010E+01 -0.16664075146E+03  0.16668630354E+03  0.00000000000E+00 0.  1.
        -15    1    1    2    0    0 -0.15634106675E+02  0.20710003060E+01  0.57013903399E+01  0.16863508372E+02  0.17770000000E+01 0. -1.
         15    1    1    2    0    0  0.41580625018E+01  0.22740427467E+01 -0.92396832114E+01  0.10535190033E+02  0.17770000000E+01 0.  1.
</event>
<event>
 6    1  0.1108180E-002  0.1826592E+03  0.7546771E-02  0.1068328E+00
        -11   -1    0    0    0    0  0.00000000000E+00  0.00000000000E+00  0.18250000000E+03  0.18250000000E+03  0.00000000000E+00 0. -1.
         11   -1    0    0    0    0 -0.00000000000E+00 -0.00000000000E+00 -0.18250000000E+03  0.18250000000E+03  0.00000000000E+00 0.  1.
        -11    1    1    2    0    0  0.10335705814E+01 -0.58173358834E+01  0.18224502250E+03  0.18234077407E+03  0.00000000000E+00 0. -1.
         11    1    1    2    0    0  0.72332778165E+00  0.94019502822E+00 -0.74915822513E+02  0.74925213597E+02  0.00000000000E+00 0.  1.
        -15    1    1    2    0    0  0.17811573426E+01  0.45633792690E+01 -0.70149379613E+02  0.70342662311E+02  0.17770000000E+01 0.  1.
         15    1    1    2    0    0 -0.35380557056E+01  0.31376158622E+00 -0.37179820370E+02  0.37391350019E+02  0.17770000000E+01 0. -1.
</event>
<event>
 6    1  0.1108180E-002  0.1005786E+03  0.7546771E-02  0.1162818E+00
        -11   -1    0    0    0    0  0.00000000000E+00  0.00000000000E+00  0.18250000000E+03  0.18250000000E+03  0.00000000000E+00 0. -1.
         11   -1    0    0    0    0 -0.00000000000E+00 -0.00000000000E+00 -0.18250000000E+03  0.18250000000E+03  0.00000000000E+00 0.  1.
        -11    1    1    2    0    0 -0.67918341033E+02 -0.42137053702E+01  0.78839615308E+02  0.10414576949E+03  0.00000000000E+00 0. -1.
         11    1    1    2    0    0  0.39336360927E+02  0.27131649802E+02 -0.63288478845E+02  0.79302630892E+02  0.00000000000E+00 0.  1.
        -15    1    1    2    0    0 -0.58683790952E+02  0.32871643459E+02  0.22867967619E+02  0.71066405117E+02  0.17770000000E+01 0. -1.
         15    1    1    2    0    0  0.87265771058E+02 -0.55789587890E+02 -0.38419104082E+02  0.11048519450E+03  0.17770000000E+01 0.  1.
</event>
<event>
 6    1  0.1108180E-002  0.1858346E+03  0.7546771E-02  0.1065831E+00
        -11   -1    0    0    0    0  0.00000000000E+00  0.00000000000E+00  0.18250000000E+03  0.18250000000E+03  0.00000000000E+00 0.  1.
         11   -1    0    0    0    0 -0.00000000000E+00 -0.00000000000E+00 -0.18250000000E+03  0.18250000000E+03  0.00000000000E+00 0.  1.
        -11    1    1    2    0    0 -0.21579386245E+01 -0.39533618127E+01  0.17583782510E+03  0.17589549882E+03  0.00000000000E+00 0.  1.
         11    1    1    2    0    0  0.47168116523E+00  0.37867308608E+01 -0.17912472901E+03  0.17916537153E+03  0.00000000000E+00 0.  1.
        -15    1    1    2    0    0 -0.69570360416E+00 -0.44330260537E+00 -0.26360993875E+01  0.32843979183E+01  0.17770000000E+01 0.  1.
         15    1    1    2    0    0  0.23819610634E+01  0.60993355731E+00  0.59230032939E+01  0.66547317355E+01  0.17770000000E+01 0.  1.
</event>
<event>
 6    1  0.1108180E-002  0.1902821E+03  0.7546771E-02  0.1062424E+00
        -11   -1    0    0    0    0  0.00000000000E+00  0.00000000000E+00  0.18250000000E+03  0.18250000000E+03  0.00000000000E+00 0. -1.
         11   -1    0    0    0    0 -0.00000000000E+00 -0.00000000000E+00 -0.18250000000E+03  0.18250000000E+03  0.00000000000E+00 0.  1.
        -11    1    1    2    0    0 -0.12229514456E+01 -0.20621297806E+01  0.17470146238E+03  0.17471791249E+03  0.00000000000E+00 0. -1.
         11    1    1    2    0    0 -0.14600652499E+01 -0.53960721800E+01 -0.16387795133E+03  0.16397326708E+03  0.00000000000E+00 0.  1.
        -15    1    1    2    0    0  0.98922028514E+01  0.85749122641E+01 -0.12955311886E+02  0.18503584319E+02  0.17770000000E+01 0.  1.
         15    1    1    2    0    0 -0.72091861560E+01 -0.11167103034E+01  0.21318008369E+01  0.78052361105E+01  0.17770000000E+01 0. -1.
</event>
<event>
 6    1  0.1108180E-002  0.1864090E+03  0.7546771E-02  0.1065385E+00
        -11   -1    0    0    0    0  0.00000000000E+00  0.00000000000E+00  0.18250000000E+03  0.18250000000E+03  0.00000000000E+00 0. -1.
         11   -1    0    0    0    0 -0.00000000000E+00 -0.00000000000E+00 -0.18250000000E+03  0.18250000000E+03  0.00000000000E+00 0. -1.
        -11    1    1    2    0    0 -0.83721461627E+01  0.20382260241E+01  0.15241427293E+03  0.15265764898E+03  0.00000000000E+00 0. -1.
         11    1    1    2    0    0  0.13914400814E+02 -0.18139375799E+01 -0.17803892548E+03  0.17859104095E+03  0.00000000000E+00 0. -1.
        -15    1    1    2    0    0  0.75333401851E+01 -0.24723848039E+00  0.48417354276E+01  0.91330428753E+01  0.17770000000E+01 0.  1.
         15    1    1    2    0    0 -0.13075594836E+02  0.22950036190E-01  0.20782917120E+02  0.24618267202E+02  0.17770000000E+01 0. -1.
</event>
<event>
 6    1  0.1108180E-002  0.1287206E+03  0.7546771E-02  0.1121753E+00
        -11   -1    0    0    0    0  0.00000000000E+00  0.00000000000E+00  0.18250000000E+03  0.18250000000E+03  0.00000000000E+00 0.  1.
         11   -1    0    0    0    0 -0.00000000000E+00 -0.00000000000E+00 -0.18250000000E+03  0.18250000000E+03  0.00000000000E+00 0. -1.
        -11    1    1    2    0    0 -0.41122210967E+01 -0.63861440590E-02  0.59578518694E+02  0.59720267020E+02  0.00000000000E+00 0.  1.
         11    1    1    2    0    0  0.32337782190E+01 -0.13115163524E+01 -0.13684035062E+03  0.13688483829E+03  0.00000000000E+00 0. -1.
        -15    1    1    2    0    0  0.10954624076E+02 -0.12189392150E+02  0.12067302065E+03  0.12179376303E+03  0.17770000000E+01 0.  1.
         15    1    1    2    0    0 -0.10076181198E+02  0.13507294647E+02 -0.43411188726E+02  0.46601131658E+02  0.17770000000E+01 0. -1.
</event>
<event>
 6    1  0.1108180E-002  0.1826525E+03  0.7546771E-02  0.1068334E+00
        -11   -1    0    0    0    0  0.00000000000E+00  0.00000000000E+00  0.18250000000E+03  0.18250000000E+03  0.00000000000E+00 0. -1.
         11   -1    0    0    0    0 -0.00000000000E+00 -0.00000000000E+00 -0.18250000000E+03  0.18250000000E+03  0.00000000000E+00 0. -1.
        -11    1    1    2    0    0 -0.50008898072E+00  0.20659807805E+01  0.89756280541E+02  0.89781447204E+02  0.00000000000E+00 0. -1.
         11    1    1    2    0    0  0.41019960187E+01  0.15379819557E+01 -0.18229490345E+03  0.18234753517E+03  0.00000000000E+00 0. -1.
        -15    1    1    2    0    0 -0.46656436602E+00 -0.20773112228E+01  0.64608995587E+02  0.64668484936E+02  0.17770000000E+01 0.  1.
         15    1    1    2    0    0 -0.31353426720E+01 -0.15266515135E+01  0.27929627323E+02  0.28202532686E+02  0.17770000000E+01 0. -1.
</event>
<event>
 6    1  0.1108180E-002  0.1915048E+03  0.7546771E-02  0.1061505E+00
        -11   -1    0    0    0    0  0.00000000000E+00  0.00000000000E+00  0.18250000000E+03  0.18250000000E+03  0.00000000000E+00 0.  1.
         11   -1    0    0    0    0 -0.00000000000E+00 -0.00000000000E+00 -0.18250000000E+03  0.18250000000E+03  0.00000000000E+00 0.  1.
        -11    1    1    2    0    0 -0.26914315483E+01 -0.52350337050E-01  0.17347428345E+03  0.17349516870E+03  0.00000000000E+00 0.  1.
         11    1    1    2    0    0 -0.26574398282E+01  0.16809681743E+02 -0.13677822957E+03  0.13783291142E+03  0.00000000000E+00 0.  1.
        -15    1    1    2    0    0 -0.14720402828E+02 -0.87593845287E+01 -0.13157182888E+02  0.21672246476E+02  0.17770000000E+01 0.  1.
         15    1    1    2    0    0  0.20069274205E+02 -0.79979468772E+01 -0.23538870995E+02  0.31999673406E+02  0.17770000000E+01 0. -1.
</event>
<event>
 6    1  0.1108180E-002  0.1825711E+03  0.7546771E-02  0.1068398E+00
        -11   -1    0    0    0    0  0.00000000000E+00  0.00000000000E+00  0.18250000000E+03  0.18250000000E+03  0.00000000000E+00 0.  1.
         11   -1    0    0    0    0 -0.00000000000E+00 -0.00000000000E+00 -0.18250000000E+03  0.18250000000E+03  0.00000000000E+00 0. -1.
        -11    1    1    2    0    0  0.87211809802E+00  0.33535084040E+00  0.31956808375E+02  0.31970465303E+02  0.00000000000E+00 0.  1.
         11    1    1    2    0    0  0.48868037427E+00  0.31362649373E+01 -0.18240124643E+03  0.18242886193E+03  0.00000000000E+00 0. -1.
        -15    1    1    2    0    0 -0.69884703716E+00 -0.16048951531E+01  0.12349456903E+03  0.12351975706E+03  0.17770000000E+01 0.  1.
         15    1    1    2    0    0 -0.66195143513E+00 -0.18667206246E+01  0.26949869030E+02  0.27080915704E+02  0.17770000000E+01 0. -1.
</event>
<event>
 6    1  0.1108180E-002  0.1849594E+03  0.7546771E-02  0.1066514E+00
        -11   -1    0    0    0    0  0.00000000000E+00  0.00000000000E+00  0.18250000000E+03  0.18250000000E+03  0.00000000000E+00 0.  1.
         11   -1    0    0    0    0 -0.00000000000E+00 -0.00000000000E+00 -0.18250000000E+03  0.18250000000E+03  0.00000000000E+00 0.  1.
        -11    1    1    2    0    0  0.13266934422E+01  0.25383042794E+01  0.18001777017E+03  0.18004055288E+03  0.00000000000E+00 0.  1.
         11    1    1    2    0    0 -0.11456659654E+01 -0.33051816793E+01 -0.17571626375E+03  0.17575108000E+03  0.00000000000E+00 0.  1.
        -15    1    1    2    0    0  0.10853284204E+01  0.37912263457E+01 -0.29766875195E+01  0.52506887713E+01  0.17770000000E+01 0. -1.
         15    1    1    2    0    0 -0.12663558972E+01 -0.30243489459E+01 -0.13248188987E+01  0.39576783496E+01  0.17770000000E+01 0. -1.
</event>
<event>
 6    1  0.1108180E-002  0.1845226E+03  0.7546771E-02  0.1066856E+00
        -11   -1    0    0    0    0  0.00000000000E+00  0.00000000000E+00  0.18250000000E+03  0.18250000000E+03  0.00000000000E+00 0. -1.
         11   -1    0    0    0    0 -0.00000000000E+00 -0.00000000000E+00 -0.18250000000E+03  0.18250000000E+03  0.00000000000E+00 0. -1.
        -11    1    1    2    0    0 -0.35158689994E+01  0.25472791325E+01  0.18042521869E+03  0.18047744875E+03  0.00000000000E+00 0. -1.
         11    1    1    2    0    0 -0.94391848407E+00  0.38648965262E+01 -0.16349832495E+03  0.16354672320E+03  0.00000000000E+00 0. -1.
        -15    1    1    2    0    0  0.27483561637E+01 -0.22974766796E+01 -0.70630374448E+00  0.40605978224E+01  0.17770000000E+01 0. -1.
         15    1    1    2    0    0  0.17114313198E+01 -0.41146989792E+01 -0.16220589998E+02  0.16915230230E+02  0.17770000000E+01 0.  1.
</event>
<event>
 6    1  0.1108180E-002  0.1893500E+03  0.7546771E-02  0.1063129E+00
        -11   -1    0    0    0    0  0.00000000000E+00  0.00000000000E+00  0.18250000000E+03  0.18250000000E+03  0.00000000000E+00 0. -1.
         11   -1    0    0    0    0 -0.00000000000E+00 -0.00000000000E+00 -0.18250000000E+03  0.18250000000E+03  0.00000000000E+00 0. -1.
        -11    1    1    2    0    0 -0.14907198488E+01  0.21879447480E+02  0.17427559991E+03  0.17564998489E+03  0.00000000000E+00 0. -1.
         11    1    1    2    0    0  0.66096762114E+00  0.15649453840E+01 -0.57184872319E+02  0.57210100108E+02  0.00000000000E+00 0. -1.
        -15    1    1    2    0    0  0.31368166624E-01 -0.21281262970E+02 -0.76858643016E+01  0.22696329585E+02  0.17770000000E+01 0.  1.
         15    1    1    2    0    0  0.79838406103E+00 -0.21631298940E+01 -0.10940486329E+03  0.10944358542E+03  0.17770000000E+01 0. -1.
</event>
<event>
 6    1  0.1108180E-002  0.1868864E+03  0.7546771E-02  0.1065016E+00
        -11   -1    0    0    0    0  0.00000000000E+00  0.00000000000E+00  0.18250000000E+03  0.18250000000E+03  0.00000000000E+00 0. -1.
         11   -1    0    0    0    0 -0.00000000000E+00 -0.00000000000E+00 -0.18250000000E+03  0.18250000000E+03  0.00000000000E+00 0.  1.
        -11    1    1    2    0    0 -0.23874303291E+01 -0.17252376361E+01  0.17808927264E+03  0.17811363029E+03  0.00000000000E+00 0. -1.
         11    1    1    2    0    0  0.19802172388E+01 -0.26079947300E+01 -0.17387909861E+03  0.17390993022E+03  0.00000000000E+00 0.  1.
        -15    1    1    2    0    0 -0.40248878567E+00 -0.53138610028E+00  0.33064941724E+01  0.38124796553E+01  0.17770000000E+01 0. -1.
         15    1    1    2    0    0  0.80970187600E+00  0.48646184663E+01 -0.75166681985E+01  0.91639598296E+01  0.17770000000E+01 0. -1.
</event>
<event>
 6    1  0.1108180E-002  0.1828118E+03  0.7546771E-02  0.1068207E+00
        -11   -1    0    0    0    0  0.00000000000E+00  0.00000000000E+00  0.18250000000E+03  0.18250000000E+03  0.00000000000E+00 0.  1.
         11   -1    0    0    0    0 -0.00000000000E+00 -0.00000000000E+00 -0.18250000000E+03  0.18250000000E+03  0.00000000000E+00 0.  1.
        -11    1    1    2    0    0  0.49548167477E+01 -0.95059996976E+00  0.18211830512E+03  0.18218817445E+03  0.00000000000E+00 0.  1.
         11    1    1    2    0    0  0.27440003757E+01  0.11939394539E+01 -0.34439100191E+02  0.34568868240E+02  0.00000000000E+00 0.  1.
        -15    1    1    2    0    0 -0.44208181905E+01 -0.23845000389E+01 -0.12747523180E+03  0.12758652721E+03  0.17770000000E+01 0.  1.
         15    1    1    2    0    0 -0.32779989329E+01  0.21411605548E+01 -0.20203973126E+02  0.20656430103E+02  0.17770000000E+01 0. -1.
</event>
<event>
 6    1  0.1108180E-002  0.1569199E+03  0.7546771E-02  0.1090862E+00
        -11   -1    0    0    0    0  0.00000000000E+00  0.00000000000E+00  0.18250000000E+03  0.18250000000E+03  0.00000000000E+00 0. -1.
         11   -1    0    0    0    0 -0.00000000000E+00 -0.00000000000E+00 -0.18250000000E+03  0.18250000000E+03  0.00000000000E+00 0.  1.
        -11    1    1    2    0    0  0.39013226727E+01 -0.14367852194E+02  0.16430376396E+03  0.16497691459E+03  0.00000000000E+00 0. -1.
         11    1    1    2    0    0  0.27915569331E+02  0.12739809416E+02 -0.14775682086E+03  0.15090944260E+03  0.00000000000E+00 0.  1.
        -15    1    1    2    0    0 -0.33850939854E+02 -0.70731019294E+01 -0.59439574853E+01  0.35134075475E+02  0.17770000000E+01 0.  1.
         15    1    1    2    0    0  0.20340478500E+01  0.87011447079E+01 -0.10602985613E+02  0.13979567332E+02  0.17770000000E+01 0. -1.
</event>
<event>
 6    1  0.1108180E-002  0.1838107E+03  0.7546771E-02  0.1067416E+00
        -11   -1    0    0    0    0  0.00000000000E+00  0.00000000000E+00  0.18250000000E+03  0.18250000000E+03  0.00000000000E+00 0. -1.
         11   -1    0    0    0    0 -0.00000000000E+00 -0.00000000000E+00 -0.18250000000E+03  0.18250000000E+03  0.00000000000E+00 0.  1.
        -11    1    1    2    0    0  0.32484895764E+01 -0.25928693587E+01  0.18114160713E+03  0.18118928635E+03  0.00000000000E+00 0. -1.
         11    1    1    2    0    0 -0.43430832444E+01 -0.43193456689E-01 -0.14756633674E+03  0.14763024072E+03  0.00000000000E+00 0.  1.
        -15    1    1    2    0    0 -0.16185162270E+01 -0.77195998285E+00 -0.26362970432E+00  0.25382566090E+01  0.17770000000E+01 0. -1.
         15    1    1    2    0    0  0.27131098951E+01  0.34080227982E+01 -0.33311640686E+02  0.33642216319E+02  0.17770000000E+01 0.  1.
</event>
<event>
 6    1  0.1108180E-002  0.1746122E+03  0.7546771E-02  0.1074913E+00
        -11   -1    0    0    0    0  0.00000000000E+00  0.00000000000E+00  0.18250000000E+03  0.18250000000E+03  0.00000000000E+00 0.  1.
         11   -1    0    0    0    0 -0.00000000000E+00 -0.00000000000E+00 -0.18250000000E+03  0.18250000000E+03  0.00000000000E+00 0. -1.
        -11    1    1    2    0    0 -0.36022524833E+01 -0.82743560295E+01  0.17548117183E+03  0.17571306968E+03  0.00000000000E+00 0.  1.
         11    1    1    2    0    0  0.28569318781E+01  0.63784741698E+00 -0.17357617829E+03  0.17360085996E+03  0.00000000000E+00 0. -1.
        -15    1    1    2    0    0  0.20905713979E+01 -0.13982741915E+01  0.37069439319E+01  0.48192138155E+01  0.17770000000E+01 0. -1.
         15    1    1    2    0    0 -0.13452507928E+01  0.90347828041E+01 -0.56119374705E+01  0.10866856546E+02  0.17770000000E+01 0.  1.
</event>
<event>
 6    1  0.1108180E-002  0.1828163E+03  0.7546771E-02  0.1068203E+00
        -11   -1    0    0    0    0  0.00000000000E+00  0.00000000000E+00  0.18250000000E+03  0.18250000000E+03  0.00000000000E+00 0. -1.
         11   -1    0    0    0    0 -0.00000000000E+00 -0.00000000000E+00 -0.18250000000E+03  0.18250000000E+03  0.00000000000E+00 0. -1.
        -11    1    1    2    0    0 -0.32358419284E+01  0.44889055814E-01  0.18215498686E+03  0.18218373123E+03  0.00000000000E+00 0. -1.
         11    1    1    2    0    0  0.17539035162E+01  0.10081654896E+01 -0.11479576515E+03  0.11481358923E+03  0.00000000000E+00 0. -1.
        -15    1    1    2    0    0 -0.23957471448E+01  0.23784049118E+01 -0.30939396535E+02  0.31173713306E+02  0.17770000000E+01 0. -1.
         15    1    1    2    0    0  0.38776855570E+01 -0.34314594572E+01 -0.36419825173E+02  0.36828966235E+02  0.17770000000E+01 0.  1.
</event>
<event>
 6    1  0.1108180E-002  0.1867447E+03  0.7546771E-02  0.1065125E+00
        -11   -1    0    0    0    0  0.00000000000E+00  0.00000000000E+00  0.18250000000E+03  0.18250000000E+03  0.00000000000E+00 0. -1.
         11   -1    0    0    0    0 -0.00000000000E+00 -0.00000000000E+00 -0.18250000000E+03  0.18250000000E+03  0.00000000000E+00 0.  1.
        -11    1    1    2    0    0 -0.27935601306E+01  0.74994866389E+00  0.17823180276E+03  0.17825527177E+03  0.00000000000E+00 0. -1.
         11    1    1    2    0    0  0.30680537551E+01  0.23902953564E+01 -0.17345128381E+03  0.17349488269E+03  0.00000000000E+00 0.  1.
        -15    1    1    2    0    0 -0.15671840295E+01 -0.32005333718E+01 -0.82395691783E+01  0.91513774313E+01  0.17770000000E+01 0.  1.
         15    1    1    2    0    0  0.12926904050E+01  0.60289351457E-01  0.34590502316E+01  0.40984681033E+01  0.17770000000E+01 0.  1.
</event>
<event>
 6    1  0.1108180E-002  0.1877930E+03  0.7546771E-02  0.1064318E+00
        -11   -1    0    0    0    0  0.00000000000E+00  0.00000000000E+00  0.18250000000E+03  0.18250000000E+03  0.00000000000E+00 0. -1.
         11   -1    0    0    0    0 -0.00000000000E+00 -0.00000000000E+00 -0.18250000000E+03  0.18250000000E+03  0.00000000000E+00 0. -1.
        -11    1    1    2    0    0  0.28624033552E+01 -0.34851866562E+01  0.14158421454E+03  0.14165602594E+03  0.00000000000E+00 0. -1.
         11    1    1    2    0    0 -0.13861832157E+02  0.97603031214E+01 -0.17639422992E+03  0.17720704911E+03  0.00000000000E+00 0. -1.
        -15    1    1    2    0    0  0.16352325663E+02 -0.63698166536E+01  0.36251224034E+02  0.40314787508E+02  0.17770000000E+01 0. -1.
         15    1    1    2    0    0 -0.53528968615E+01  0.94700188415E-01 -0.14412086596E+01  0.58221374371E+01  0.17770000000E+01 0.  1.
</event>
<event>
 6    1  0.1108180E-002  0.1209879E+03  0.7546771E-02  0.1131784E+00
        -11   -1    0    0    0    0  0.00000000000E+00  0.00000000000E+00  0.18250000000E+03  0.18250000000E+03  0.00000000000E+00 0.  1.
         11   -1    0    0    0    0 -0.00000000000E+00 -0.00000000000E+00 -0.18250000000E+03  0.18250000000E+03  0.00000000000E+00 0. -1.
        -11    1    1    2    0    0 -0.11897882042E+02  0.43718714422E+01  0.11356292629E+03  0.11426815429E+03  0.00000000000E+00 0.  1.
         11    1    1    2    0    0 -0.90710155964E+00 -0.40431254465E+00 -0.50088587583E+02  0.50098432190E+02  0.00000000000E+00 0. -1.
        -15    1    1    2    0    0  0.19554923140E+02 -0.20167193463E+02  0.65063463741E+02  0.70890921522E+02  0.17770000000E+01 0.  1.
         15    1    1    2    0    0 -0.67499395390E+01  0.16199634565E+02 -0.12853780245E+03  0.12974249200E+03  0.17770000000E+01 0. -1.
</event>
<event>
 6    1  0.1108180E-002  0.1825944E+03  0.7546771E-02  0.1068380E+00
        -11   -1    0    0    0    0  0.00000000000E+00  0.00000000000E+00  0.18250000000E+03  0.18250000000E+03  0.00000000000E+00 0. -1.
         11   -1    0    0    0    0 -0.00000000000E+00 -0.00000000000E+00 -0.18250000000E+03  0.18250000000E+03  0.00000000000E+00 0.  1.
        -11    1    1    2    0    0  0.21707081784E+00  0.34994923322E+01  0.18237186101E+03  0.18240556257E+03  0.00000000000E+00 0. -1.
         11    1    1    2    0    0 -0.75857458621E+00 -0.11176885225E+01 -0.19476377809E+02  0.19523164589E+02  0.00000000000E+00 0.  1.
        -15    1    1    2    0    0 -0.90710612873E+00  0.10792263926E+01 -0.10610786426E+03  0.10613210710E+03  0.17770000000E+01 0.  1.
         15    1    1    2    0    0  0.14486098971E+01 -0.34610302024E+01 -0.56787618944E+02  0.56939165738E+02  0.17770000000E+01 0.  1.
</event>
<event>
 6    1  0.1108180E-002  0.1841800E+03  0.7546771E-02  0.1067125E+00
        -11   -1    0    0    0    0  0.00000000000E+00  0.00000000000E+00  0.18250000000E+03  0.18250000000E+03  0.00000000000E+00 0. -1.
         11   -1    0    0    0    0 -0.00000000000E+00 -0.00000000000E+00 -0.18250000000E+03  0.18250000000E+03  0.00000000000E+00 0. -1.
        -11    1    1    2    0    0 -0.20957827208E+01  0.42140476550E+01  0.15577467568E+03  0.15584575736E+03  0.00000000000E+00 0. -1.
         11    1    1    2    0    0  0.31220810924E+01 -0.32277670933E+00 -0.18079278848E+03  0.18082003192E+03  0.00000000000E+00 0. -1.
        -15    1    1    2    0    0 -0.23612497632E+01 -0.14597602738E+01  0.20399901596E+00  0.33023847594E+01  0.17770000000E+01 0. -1.
         15    1    1    2    0    0  0.13349513915E+01 -0.24315106719E+01  0.24814113784E+02  0.25031825968E+02  0.17770000000E+01 0.  1.
</event>
<event>
 6    1  0.1108180E-002  0.2026974E+03  0.7546771E-02  0.1053426E+00
        -11   -1    0    0    0    0  0.00000000000E+00  0.00000000000E+00  0.18250000000E+03  0.18250000000E+03  0.00000000000E+00 0.  1.
         11   -1    0    0    0    0 -0.00000000000E+00 -0.00000000000E+00 -0.18250000000E+03  0.18250000000E+03  0.00000000000E+00 0. -1.
        -11    1    1    2    0    0 -0.28102992684E+02 -0.70991093519E+01  0.15969337038E+03  0.16230264353E+03  0.00000000000E+00 0.  1.
         11    1    1    2    0    0  0.45931306713E+00  0.36670774973E+01 -0.12211511325E+03  0.12217102484E+03  0.00000000000E+00 0. -1.
        -15    1    1    2    0    0  0.16654947216E+02 -0.28214900045E+02 -0.39892195402E+01  0.33053584569E+02  0.17770000000E+01 0. -1.
         15    1    1    2    0    0  0.10988732401E+02  0.31646931899E+02 -0.33589037594E+02  0.47472747065E+02  0.17770000000E+01 0.  1.
</event>
<event>
 6    1  0.1108180E-002  0.1944525E+03  0.7546771E-02  0.1059320E+00
        -11   -1    0    0    0    0  0.00000000000E+00  0.00000000000E+00  0.18250000000E+03  0.18250000000E+03  0.00000000000E+00 0. -1.
         11   -1    0    0    0    0 -0.00000000000E+00 -0.00000000000E+00 -0.18250000000E+03  0.18250000000E+03  0.00000000000E+00 0. -1.
        -11    1    1    2    0    0 -0.35154299142E+01 -0.52746574247E+01  0.17042962639E+03  0.17054746497E+03  0.00000000000E+00 0. -1.
         11    1    1    2    0    0  0.47873955014E+00  0.21990729317E+01 -0.16604252500E+03  0.16605777676E+03  0.00000000000E+00 0. -1.
        -15    1    1    2    0    0  0.90217238031E+00  0.15000381738E+02  0.67122253803E+00  0.15147066910E+02  0.17770000000E+01 0. -1.
         15    1    1    2    0    0  0.21345179838E+01 -0.11924797245E+02 -0.50583239253E+01  0.13247691357E+02  0.17770000000E+01 0.  1.
</event>
<event>
 6    1  0.1108180E-002  0.1827410E+03  0.7546771E-02  0.1068263E+00
        -11   -1    0    0    0    0  0.00000000000E+00  0.00000000000E+00  0.18250000000E+03  0.18250000000E+03  0.00000000000E+00 0.  1.
         11   -1    0    0    0    0 -0.00000000000E+00 -0.00000000000E+00 -0.18250000000E+03  0.18250000000E+03  0.00000000000E+00 0. -1.
        -11    1    1    2    0    0 -0.21020092526E+01  0.13871008644E+01  0.18224164649E+03  0.18225904699E+03  0.00000000000E+00 0.  1.
         11    1    1    2    0    0  0.50385727534E+01  0.94627125245E-01 -0.13863569985E+03  0.13872726280E+03  0.00000000000E+00 0. -1.
        -15    1    1    2    0    0 -0.22247636274E+01 -0.16377480752E+01 -0.15605392213E+02  0.15947344201E+02  0.17770000000E+01 0. -1.
         15    1    1    2    0    0 -0.71179987337E+00  0.15602008549E+00 -0.28000554427E+02  0.28066346013E+02  0.17770000000E+01 0.  1.
</event>
<event>
 6    1  0.1108180E-002  0.1841420E+03  0.7546771E-02  0.1067155E+00
        -11   -1    0    0    0    0  0.00000000000E+00  0.00000000000E+00  0.18250000000E+03  0.18250000000E+03  0.00000000000E+00 0.  1.
         11   -1    0    0    0    0 -0.00000000000E+00 -0.00000000000E+00 -0.18250000000E+03  0.18250000000E+03  0.00000000000E+00 0.  1.
        -11    1    1    2    0    0  0.14006853360E+01 -0.27293098423E+01  0.17639654241E+03  0.17642321623E+03  0.00000000000E+00 0.  1.
         11    1    1    2    0    0 -0.64753859483E+00  0.28997300302E+01 -0.18083356453E+03  0.18085797135E+03  0.00000000000E+00 0.  1.
        -15    1    1    2    0    0 -0.14530361756E+01  0.22427968200E+01  0.26359103514E+01  0.41529753291E+01  0.17770000000E+01 0. -1.
         15    1    1    2    0    0  0.69988943448E+00 -0.24132170078E+01  0.18011117698E+01  0.35658370903E+01  0.17770000000E+01 0. -1.
</event>
<event>
 6    1  0.1108180E-002  0.1622979E+03  0.7546771E-02  0.1085779E+00
        -11   -1    0    0    0    0  0.00000000000E+00  0.00000000000E+00  0.18250000000E+03  0.18250000000E+03  0.00000000000E+00 0. -1.
         11   -1    0    0    0    0 -0.00000000000E+00 -0.00000000000E+00 -0.18250000000E+03  0.18250000000E+03  0.00000000000E+00 0.  1.
        -11    1    1    2    0    0 -0.11350505818E+02 -0.23490430205E+01  0.15735774135E+03  0.15778406367E+03  0.00000000000E+00 0. -1.
         11    1    1    2    0    0 -0.44145474868E+01 -0.38592770900E+01 -0.16730306163E+03  0.16740578448E+03  0.00000000000E+00 0.  1.
        -15    1    1    2    0    0  0.21412516204E+02 -0.56149948086E+00  0.17770958001E+02  0.27888632256E+02  0.17770000000E+01 0. -1.
         15    1    1    2    0    0 -0.56474628992E+01  0.67698195914E+01 -0.78256377264E+01  0.11921519589E+02  0.17770000000E+01 0.  1.
</event>
<event>
 6    1  0.1108180E-002  0.1853225E+03  0.7546771E-02  0.1066230E+00
        -11   -1    0    0    0    0  0.00000000000E+00  0.00000000000E+00  0.18250000000E+03  0.18250000000E+03  0.00000000000E+00 0. -1.
         11   -1    0    0    0    0 -0.00000000000E+00 -0.00000000000E+00 -0.18250000000E+03  0.18250000000E+03  0.00000000000E+00 0. -1.
        -11    1    1    2    0    0 -0.82493761105E+01  0.13937690220E+01  0.12163369772E+03  0.12192108603E+03  0.00000000000E+00 0. -1.
         11    1    1    2    0    0  0.72665605564E+01  0.51670124698E+01 -0.17945609656E+03  0.17967746523E+03  0.00000000000E+00 0. -1.
        -15    1    1    2    0    0 -0.39345435697E+01 -0.43701255185E+01  0.91308931629E+00  0.62104823684E+01  0.17770000000E+01 0.  1.
         15    1    1    2    0    0  0.49173591237E+01 -0.21906559732E+01  0.56909309528E+02  0.57190966370E+02  0.17770000000E+01 0. -1.
</event>
<event>
 6    1  0.1108180E-002  0.1841181E+03  0.7546771E-02  0.1067174E+00
        -11   -1    0    0    0    0  0.00000000000E+00  0.00000000000E+00  0.18250000000E+03  0.18250000000E+03  0.00000000000E+00 0.  1.
         11   -1    0    0    0    0 -0.00000000000E+00 -0.00000000000E+00 -0.18250000000E+03  0.18250000000E+03  0.00000000000E+00 0.  1.
        -11    1    1    2    0    0  0.51185557323E+01 -0.23176991312E+01  0.18079462222E+03  0.18088191388E+03  0.00000000000E+00 0.  1.
         11    1    1    2    0    0 -0.27587739140E+01  0.11039945287E+01 -0.17417956351E+03  0.17420490803E+03  0.00000000000E+00 0.  1.
        -15    1    1    2    0    0  0.80964662959E+00  0.55637106720E+00  0.32076555755E+00  0.20556497688E+01  0.17770000000E+01 0. -1.
         15    1    1    2    0    0 -0.31694284479E+01  0.65733353532E+00 -0.69358242726E+01  0.78575283266E+01  0.17770000000E+01 0.  1.
</event>
<event>
 6    1  0.1108180E-002  0.1726012E+03  0.7546771E-02  0.1076619E+00
        -11   -1    0    0    0    0  0.00000000000E+00  0.00000000000E+00  0.18250000000E+03  0.18250000000E+03  0.00000000000E+00 0.  1.
         11   -1    0    0    0    0 -0.00000000000E+00 -0.00000000000E+00 -0.18250000000E+03  0.18250000000E+03  0.00000000000E+00 0. -1.
        -11    1    1    2    0    0  0.81521877807E+01 -0.22067652374E+01  0.17556226493E+03  0.17576528908E+03  0.00000000000E+00 0.  1.
         11    1    1    2    0    0  0.18586361012E+01  0.46588717568E+01 -0.16956878247E+03  0.16964295329E+03  0.00000000000E+00 0. -1.
        -15    1    1    2    0    0 -0.70537419688E+01 -0.38779449526E+01  0.38250846561E+01  0.90875043023E+01  0.17770000000E+01 0. -1.
         15    1    1    2    0    0 -0.29570819131E+01  0.14258384331E+01 -0.98185671180E+01  0.10504253326E+02  0.17770000000E+01 0.  1.
</event>
<event>
 6    1  0.1108180E-002  0.1937965E+03  0.7546771E-02  0.1059802E+00
        -11   -1    0    0    0    0  0.00000000000E+00  0.00000000000E+00  0.18250000000E+03  0.18250000000E+03  0.00000000000E+00 0. -1.
         11   -1    0    0    0    0 -0.00000000000E+00 -0.00000000000E+00 -0.18250000000E+03  0.18250000000E+03  0.00000000000E+00 0. -1.
        -11    1    1    2    0    0 -0.30291698253E+01  0.91514741901E+00  0.17117421439E+03  0.17120346094E+03  0.00000000000E+00 0. -1.
         11    1    1    2    0    0 -0.23047515515E+01  0.36173225934E+01 -0.16468122336E+03  0.16473706999E+03  0.00000000000E+00 0. -1.
        -15    1    1    2    0    0 -0.21889239099E+01  0.88091416757E+00 -0.15640326522E+02  0.15916813135E+02  0.17770000000E+01 0.  1.
         15    1    1    2    0    0  0.75228452867E+01 -0.54133841799E+01  0.91473354904E+01  0.13142655936E+02  0.17770000000E+01 0. -1.
</event>
<event>
 6    1  0.1108180E-002  0.1836491E+03  0.7546771E-02  0.1067544E+00
        -11   -1    0    0    0    0  0.00000000000E+00  0.00000000000E+00  0.18250000000E+03  0.18250000000E+03  0.00000000000E+00 0.  1.
         11   -1    0    0    0    0 -0.00000000000E+00 -0.00000000000E+00 -0.18250000000E+03  0.18250000000E+03  0.00000000000E+00 0. -1.
        -11    1    1    2    0    0  0.40692062764E+01 -0.10863046817E+01  0.18130199377E+03  0.18135090693E+03  0.00000000000E+00 0.  1.
         11    1    1    2    0    0  0.36574395025E+00 -0.97865418321E+00 -0.53333962635E+02  0.53344194651E+02  0.00000000000E+00 0. -1.
        -15    1    1    2    0    0 -0.69426382119E+00  0.38645412844E+01 -0.12459305788E+03  0.12466757591E+03  0.17770000000E+01 0. -1.
         15    1    1    2    0    0 -0.37406864054E+01 -0.17995824195E+01 -0.33749732587E+01  0.56373225174E+01  0.17770000000E+01 0.  1.
</event>
<event>
 6    1  0.1108180E-002  0.1829801E+03  0.7546771E-02  0.1068073E+00
        -11   -1    0    0    0    0  0.00000000000E+00  0.00000000000E+00  0.18250000000E+03  0.18250000000E+03  0.00000000000E+00 0. -1.
         11   -1    0    0    0    0 -0.00000000000E+00 -0.00000000000E+00 -0.18250000000E+03  0.18250000000E+03  0.00000000000E+00 0. -1.
        -11    1    1    2    0    0  0.17322155041E+01  0.52728768103E+01  0.18193530408E+03  0.18201994031E+03  0.00000000000E+00 0. -1.
         11    1    1    2    0    0  0.13364119989E+01 -0.15947970147E+01 -0.68815584401E+02  0.68847033567E+02  0.00000000000E+00 0. -1.
        -15    1    1    2    0    0 -0.16120442117E+01 -0.74936745926E+01 -0.34442609341E+02  0.35329943570E+02  0.17770000000E+01 0. -1.
         15    1    1    2    0    0 -0.14565832913E+01  0.38155947970E+01 -0.78677110341E+02  0.78803082549E+02  0.17770000000E+01 0. -1.
</event>
<event>
 6    1  0.1108180E-002  0.1839694E+03  0.7546771E-02  0.1067291E+00
        -11   -1    0    0    0    0  0.00000000000E+00  0.00000000000E+00  0.18250000000E+03  0.18250000000E+03  0.00000000000E+00 0.  1.
         11   -1    0    0    0    0 -0.00000000000E+00 -0.00000000000E+00 -0.18250000000E+03  0.18250000000E+03  0.00000000000E+00 0.  1.
        -11    1    1    2    0    0  0.32407287511E+01  0.79775534951E+00  0.18099983936E+03  0.18103060676E+03  0.00000000000E+00 0.  1.
         11    1    1    2    0    0 -0.27648733385E+01  0.46672701444E+01 -0.17171219777E+03  0.17179786610E+03  0.00000000000E+00 0.  1.
        -15    1    1    2    0    0 -0.14773107975E+01 -0.13480440618E+01 -0.13418695652E+01  0.29929939717E+01  0.17770000000E+01 0.  1.
         15    1    1    2    0    0  0.10014553849E+01 -0.41169814322E+01 -0.79457720237E+01  0.91785331646E+01  0.17770000000E+01 0. -1.
</event>
<event>
 6    1  0.1108180E-002  0.1868594E+03  0.7546771E-02  0.1065037E+00
        -11   -1    0    0    0    0  0.00000000000E+00  0.00000000000E+00  0.18250000000E+03  0.18250000000E+03  0.00000000000E+00 0.  1.
         11   -1    0    0    0    0 -0.00000000000E+00 -0.00000000000E+00 -0.18250000000E+03  0.18250000000E+03  0.00000000000E+00 0. -1.
        -11    1    1    2    0    0 -0.32837446130E+01  0.41905339119E+00  0.17810981914E+03  0.17814058004E+03  0.00000000000E+00 0.  1.
         11    1    1    2    0    0 -0.17668156017E+01 -0.27329371333E+01 -0.16531352600E+03  0.16534555470E+03  0.00000000000E+00 0. -1.
        -15    1    1    2    0    0  0.11911141018E+01 -0.58337488111E+01 -0.59872677322E+00  0.62424018409E+01  0.17770000000E+01 0.  1.
         15    1    1    2    0    0  0.38594461129E+01  0.81476325531E+01 -0.12197566369E+02  0.15271463415E+02  0.17770000000E+01 0. -1.
</event>
<event>
 6    1  0.1108180E-002  0.1834499E+03  0.7546771E-02  0.1067701E+00
        -11   -1    0    0    0    0  0.00000000000E+00  0.00000000000E+00  0.18250000000E+03  0.18250000000E+03  0.00000000000E+00 0.  1.
         11   -1    0    0    0    0 -0.00000000000E+00 -0.00000000000E+00 -0.18250000000E+03  0.18250000000E+03  0.00000000000E+00 0. -1.
        -11    1    1    2    0    0  0.15808374755E+00  0.50829388748E+01  0.18147890234E+03  0.18155013978E+03  0.00000000000E+00 0.  1.
         11    1    1    2    0    0 -0.20951399557E+01 -0.18335188658E+01 -0.11066052426E+03  0.11069554206E+03  0.00000000000E+00 0. -1.
        -15    1    1    2    0    0 -0.14787616518E+01 -0.37596425131E+01 -0.44331835169E+01  0.62555969295E+01  0.17770000000E+01 0.  1.
         15    1    1    2    0    0  0.34158178600E+01  0.51022250422E+00 -0.66385194563E+02  0.66498721227E+02  0.17770000000E+01 0. -1.
</event>
<event>
 6    1  0.1108180E-002  0.1855208E+03  0.7546771E-02  0.1066075E+00
        -11   -1    0    0    0    0  0.00000000000E+00  0.00000000000E+00  0.18250000000E+03  0.18250000000E+03  0.00000000000E+00 0. -1.
         11   -1    0    0    0    0 -0.00000000000E+00 -0.00000000000E+00 -0.18250000000E+03  0.18250000000E+03  0.00000000000E+00 0.  1.
        -11    1    1    2    0    0 -0.31298566417E+00  0.32217021793E+01  0.17944998964E+03  0.17947918015E+03  0.00000000000E+00 0. -1.
         11    1    1    2    0    0 -0.46052530407E+00  0.27833218659E+01 -0.16613056237E+03  0.16615451459E+03  0.00000000000E+00 0.  1.
        -15    1    1    2    0    0  0.11579974785E+01 -0.25019058201E+01 -0.14793835836E+02  0.15153078850E+02  0.17770000000E+01 0. -1.
         15    1    1    2    0    0 -0.38448651028E+00 -0.35031182251E+01  0.14744085672E+01  0.42132264120E+01  0.17770000000E+01 0. -1.
</event>
<event>
 6    1  0.1108180E-002  0.1834972E+03  0.7546771E-02  0.1067664E+00
        -11   -1    0    0    0    0  0.00000000000E+00  0.00000000000E+00  0.18250000000E+03  0.18250000000E+03  0.00000000000E+00 0.  1.
         11   -1    0    0    0    0 -0.00000000000E+00 -0.00000000000E+00 -0.18250000000E+03  0.18250000000E+03  0.00000000000E+00 0. -1.
        -11    1    1    2    0    0  0.10228621905E+01 -0.24015806469E+01  0.18148398293E+03  0.18150275452E+03  0.00000000000E+00 0.  1.
         11    1    1    2    0    0 -0.26178610877E+01 -0.24118540088E+00 -0.17129163269E+03  0.17131180577E+03  0.00000000000E+00 0. -1.
        -15    1    1    2    0    0  0.14971771679E+01  0.13336157084E+01 -0.94994083695E+01  0.98699827102E+01  0.17770000000E+01 0.  1.
         15    1    1    2    0    0  0.97821729188E-01  0.13091503394E+01 -0.69294187707E+00  0.23154570061E+01  0.17770000000E+01 0. -1.
</event>
<event>
 6    1  0.1108180E-002  0.1839234E+03  0.7546771E-02  0.1067327E+00
        -11   -1    0    0    0    0  0.00000000000E+00  0.00000000000E+00  0.18250000000E+03  0.18250000000E+03  0.00000000000E+00 0.  1.
         11   -1    0    0    0    0 -0.00000000000E+00 -0.00000000000E+00 -0.18250000000E+03  0.18250000000E+03  0.00000000000E+00 0.  1.
        -11    1    1    2    0    0 -0.26444177339E+01  0.41373872165E+01  0.18101002030E+03  0.18107660911E+03  0.00000000000E+00 0.  1.
         11    1    1    2    0    0 -0.19659329232E+01  0.40134265073E+01 -0.15089000194E+03  0.15095616970E+03  0.00000000000E+00 0.  1.
        -15    1    1    2    0    0  0.66116101311E+01 -0.32134514198E+01 -0.20176136208E+02  0.21547015102E+02  0.17770000000E+01 0. -1.
         15    1    1    2    0    0 -0.20012594740E+01 -0.49373623041E+01 -0.99438821500E+01  0.11420206093E+02  0.17770000000E+01 0.  1.
</event>
<event>
 6    1  0.1108180E-002  0.1731757E+03  0.7546771E-02  0.1076129E+00
        -11   -1    0    0    0    0  0.00000000000E+00  0.00000000000E+00  0.18250000000E+03  0.18250000000E+03  0.00000000000E+00 0. -1.
         11   -1    0    0    0    0 -0.00000000000E+00 -0.00000000000E+00 -0.18250000000E+03  0.18250000000E+03  0.00000000000E+00 0. -1.
        -11    1    1    2    0    0 -0.38979360158E+01  0.67311939494E+01  0.17042423937E+03  0.17060165370E+03  0.00000000000E+00 0. -1.
         11    1    1    2    0    0  0.23941257839E+01  0.31202916413E+01 -0.17589229501E+03  0.17593625977E+03  0.00000000000E+00 0. -1.
        -15    1    1    2    0    0 -0.26904163606E+01 -0.10799292485E+01  0.76221959604E+01  0.83462678865E+01  0.17770000000E+01 0.  1.
         15    1    1    2    0    0  0.41942265925E+01 -0.87715563423E+01 -0.21541403245E+01  0.10115818648E+02  0.17770000000E+01 0. -1.
</event>
<event>
 6    1  0.1108180E-002  0.1844645E+03  0.7546771E-02  0.1066902E+00
        -11   -1    0    0    0    0  0.00000000000E+00  0.00000000000E+00  0.18250000000E+03  0.18250000000E+03  0.00000000000E+00 0. -1.
         11   -1    0    0    0    0 -0.00000000000E+00 -0.00000000000E+00 -0.18250000000E+03  0.18250000000E+03  0.00000000000E+00 0.  1.
        -11    1    1    2    0    0  0.53689063665E+01  0.39847569132E+01  0.16059677426E+03  0.16073589315E+03  0.00000000000E+00 0. -1.
         11    1    1    2    0    0  0.21092407230E+01 -0.14937924237E+01 -0.18051701878E+03  0.18053552110E+03  0.00000000000E+00 0.  1.
        -15    1    1    2    0    0  0.13109621674E+01 -0.15805778966E+01  0.12352244736E+01  0.29833465759E+01  0.17770000000E+01 0.  1.
         15    1    1    2    0    0 -0.87891092569E+01 -0.91038659290E+00  0.18685020044E+02  0.20745239172E+02  0.17770000000E+01 0.  1.
</event>
<event>
 6    1  0.1108180E-002  0.1837061E+03  0.7546771E-02  0.1067499E+00
        -11   -1    0    0    0    0  0.00000000000E+00  0.00000000000E+00  0.18250000000E+03  0.18250000000E+03  0.00000000000E+00 0. -1.
         11   -1    0    0    0    0 -0.00000000000E+00 -0.00000000000E+00 -0.18250000000E+03  0.18250000000E+03  0.00000000000E+00 0.  1.
        -11    1    1    2    0    0  0.44100575274E+01  0.44749268003E+01  0.10879935823E+03  0.10898061263E+03  0.00000000000E+00 0. -1.
         11    1    1    2    0    0 -0.24447300343E+01 -0.60035556469E+00 -0.18127644466E+03  0.18129392301E+03  0.00000000000E+00 0.  1.
        -15    1    1    2    0    0 -0.47305686434E+01 -0.57625023687E+01  0.69457751249E+02  0.69879336365E+02  0.17770000000E+01 0. -1.
         15    1    1    2    0    0  0.27652411503E+01  0.18879311331E+01  0.30193351820E+01  0.48461279930E+01  0.17770000000E+01 0.  1.
</event>
<event>
 6    1  0.1108180E-002  0.1849037E+03  0.7546771E-02  0.1066557E+00
        -11   -1    0    0    0    0  0.00000000000E+00  0.00000000000E+00  0.18250000000E+03  0.18250000000E+03  0.00000000000E+00 0.  1.
         11   -1    0    0    0    0 -0.00000000000E+00 -0.00000000000E+00 -0.18250000000E+03  0.18250000000E+03  0.00000000000E+00 0. -1.
        -11    1    1    2    0    0 -0.25800913668E+01 -0.23038083240E+01  0.18006303461E+03  0.18009625437E+03  0.00000000000E+00 0.  1.
         11    1    1    2    0    0 -0.36299079178E+01 -0.16074047908E+01 -0.14294437500E+03  0.14299949065E+03  0.00000000000E+00 0. -1.
        -15    1    1    2    0    0  0.10426011695E+02 -0.27899426279E+01 -0.17045968610E+02  0.20253599053E+02  0.17770000000E+01 0. -1.
         15    1    1    2    0    0 -0.42160124108E+01  0.67011557427E+01 -0.20072691007E+02  0.21650655930E+02  0.17770000000E+01 0.  1.
</event>
<event>
 6    1  0.1108180E-002  0.1829606E+03  0.7546771E-02  0.1068089E+00
        -11   -1    0    0    0    0  0.00000000000E+00  0.00000000000E+00  0.18250000000E+03  0.18250000000E+03  0.00000000000E+00 0.  1.
         11   -1    0    0    0    0 -0.00000000000E+00 -0.00000000000E+00 -0.18250000000E+03  0.18250000000E+03  0.00000000000E+00 0.  1.
        -11    1    1    2    0    0 -0.44200693439E+01 -0.69737317830E-01  0.18198567004E+03  0.18203935283E+03  0.00000000000E+00 0.  1.
         11    1    1    2    0    0  0.63569661893E+00  0.30507726108E+01 -0.14059144974E+03  0.14062598289E+03  0.00000000000E+00 0.  1.
        -15    1    1    2    0    0  0.37979482704E+00 -0.10809145493E+01 -0.31265687737E+02  0.31337095894E+02  0.17770000000E+01 0.  1.
         15    1    1    2    0    0  0.34045778979E+01 -0.19001207438E+01 -0.10128532565E+02  0.10997568387E+02  0.17770000000E+01 0. -1.
</event>
<event>
 6    1  0.1601461E-002  0.1864281E+03  0.7546771E-02  0.1065370E+00
        -11   -1    0    0    0    0  0.00000000000E+00  0.00000000000E+00  0.18250000000E+03  0.18250000000E+03  0.00000000000E+00 0. -1.
         11   -1    0    0    0    0 -0.00000000000E+00 -0.00000000000E+00 -0.18250000000E+03  0.18250000000E+03  0.00000000000E+00 0. -1.
        -11    1    1    2    0    0  0.28662077976E+01  0.11689507256E+01  0.17854510428E+03  0.17857193468E+03  0.00000000000E+00 0. -1.
         11    1    1    2    0    0 -0.10916522458E+01  0.64521095178E+01 -0.75316452473E+02  0.75600194675E+02  0.00000000000E+00 0. -1.
        -15    1    1    2    0    0  0.10041184568E+01 -0.39136665158E+01 -0.10534195994E+03  0.10543439331E+03  0.17770000000E+01 0. -1.
         15    1    1    2    0    0 -0.27786740086E+01 -0.37073937275E+01  0.21133081357E+01  0.53934773360E+01  0.17770000000E+01 0. -1.
</event>
<event>
 6    1  0.1108180E-002  0.1891085E+03  0.7546771E-02  0.1063313E+00
        -11   -1    0    0    0    0  0.00000000000E+00  0.00000000000E+00  0.18250000000E+03  0.18250000000E+03  0.00000000000E+00 0. -1.
         11   -1    0    0    0    0 -0.00000000000E+00 -0.00000000000E+00 -0.18250000000E+03  0.18250000000E+03  0.00000000000E+00 0.  1.
        -11    1    1    2    0    0 -0.33947237604E+01 -0.22349540003E+01  0.17031998707E+03  0.17036847468E+03  0.00000000000E+00 0. -1.
         11    1    1    2    0    0  0.34529369073E+01 -0.66614803994E+01 -0.17573143254E+03  0.17589154180E+03  0.00000000000E+00 0.  1.
        -15    1    1    2    0    0 -0.19141479565E+01  0.37057727061E+01 -0.50473675617E+01  0.67845679340E+01  0.17770000000E+01 0.  1.
         15    1    1    2    0    0  0.18559348096E+01  0.51906616935E+01  0.10458813028E+02  0.11955415584E+02  0.17770000000E+01 0.  1.
</event>
<event>
 6    1  0.1108180E-002  0.1859965E+03  0.7546771E-02  0.1065705E+00
        -11   -1    0    0    0    0  0.00000000000E+00  0.00000000000E+00  0.18250000000E+03  0.18250000000E+03  0.00000000000E+00 0. -1.
         11   -1    0    0    0    0 -0.00000000000E+00 -0.00000000000E+00 -0.18250000000E+03  0.18250000000E+03  0.00000000000E+00 0.  1.
        -11    1    1    2    0    0 -0.20402099182E+01  0.15374912844E+01  0.17898522743E+03  0.17900345799E+03  0.00000000000E+00 0. -1.
         11    1    1    2    0    0  0.30245023267E+01 -0.25143105066E+01 -0.17599900059E+03  0.17604294243E+03  0.00000000000E+00 0.  1.
        -15    1    1    2    0    0  0.36428811015E+01  0.16812075660E+01 -0.67589556159E+00  0.44397753783E+01  0.17770000000E+01 0. -1.
         15    1    1    2    0    0 -0.46271735101E+01 -0.70438834384E+00 -0.23103312792E+01  0.55138241948E+01  0.17770000000E+01 0.  1.
</event>
<event>
 6    1  0.1108180E-002  0.1739854E+03  0.7546771E-02  0.1075442E+00
        -11   -1    0    0    0    0  0.00000000000E+00  0.00000000000E+00  0.18250000000E+03  0.18250000000E+03  0.00000000000E+00 0.  1.
         11   -1    0    0    0    0 -0.00000000000E+00 -0.00000000000E+00 -0.18250000000E+03  0.18250000000E+03  0.00000000000E+00 0. -1.
        -11    1    1    2    0    0  0.33190056914E+01  0.75723722590E+01  0.17181558190E+03  0.17201439127E+03  0.00000000000E+00 0.  1.
         11    1    1    2    0    0  0.37455220282E+01  0.21344251120E+01 -0.17613762167E+03  0.17619036998E+03  0.00000000000E+00 0. -1.
        -15    1    1    2    0    0 -0.29383919734E+01 -0.71342744854E+01 -0.24343971887E+01  0.82834798542E+01  0.17770000000E+01 0. -1.
         15    1    1    2    0    0 -0.41261357462E+01 -0.25725228856E+01  0.67564369527E+01  0.85117588951E+01  0.17770000000E+01 0.  1.
</event>
<event>
 6    1  0.1108180E-002  0.1851276E+03  0.7546771E-02  0.1066382E+00
        -11   -1    0    0    0    0  0.00000000000E+00  0.00000000000E+00  0.18250000000E+03  0.18250000000E+03  0.00000000000E+00 0. -1.
         11   -1    0    0    0    0 -0.00000000000E+00 -0.00000000000E+00 -0.18250000000E+03  0.18250000000E+03  0.00000000000E+00 0.  1.
        -11    1    1    2    0    0 -0.18074776266E+01  0.36486247426E+01  0.13115766104E+03  0.13122085005E+03  0.00000000000E+00 0. -1.
         11    1    1    2    0    0  0.93992875731E-01  0.76225269227E+01 -0.17971082614E+03  0.17987243475E+03  0.00000000000E+00 0.  1.
        -15    1    1    2    0    0  0.46438372751E-01 -0.88602086601E+01  0.52157340958E+01  0.10433938143E+02  0.17770000000E+01 0. -1.
         15    1    1    2    0    0  0.16670463782E+01 -0.24109430053E+01  0.43337431007E+02  0.43472777057E+02  0.17770000000E+01 0. -1.
</event>
<event>
 6    1  0.1108180E-002  0.1705826E+03  0.7546771E-02  0.1078358E+00
        -11   -1    0    0    0    0  0.00000000000E+00  0.00000000000E+00  0.18250000000E+03  0.18250000000E+03  0.00000000000E+00 0.  1.
         11   -1    0    0    0    0 -0.00000000000E+00 -0.00000000000E+00 -0.18250000000E+03  0.18250000000E+03  0.00000000000E+00 0.  1.
        -11    1    1    2    0    0  0.47666446987E+01  0.50077926304E+01  0.17126621400E+03  0.17140570279E+03  0.00000000000E+00 0.  1.
         11    1    1    2    0    0  0.30686359254E+01  0.52368381498E+01 -0.16989747306E+03  0.17000585976E+03  0.00000000000E+00 0.  1.
        -15    1    1    2    0    0 -0.34005283308E+01  0.13253226685E+01  0.73066330071E+01  0.83585099153E+01  0.17770000000E+01 0. -1.
         15    1    1    2    0    0 -0.44347522933E+01 -0.11569953449E+02 -0.86753739484E+01  0.15229927539E+02  0.17770000000E+01 0.  1.
</event>
<event>
 6    1  0.1108180E-002  0.1829277E+03  0.7546771E-02  0.1068115E+00
        -11   -1    0    0    0    0  0.00000000000E+00  0.00000000000E+00  0.18250000000E+03  0.18250000000E+03  0.00000000000E+00 0. -1.
         11   -1    0    0    0    0 -0.00000000000E+00 -0.00000000000E+00 -0.18250000000E+03  0.18250000000E+03  0.00000000000E+00 0. -1.
        -11    1    1    2    0    0  0.48795252459E+01 -0.17264332924E+01  0.18199870608E+03  0.18207229155E+03  0.00000000000E+00 0. -1.
         11    1    1    2    0    0 -0.36013175122E+01  0.45318516741E+00 -0.22493552399E+02  0.22784529053E+02  0.00000000000E+00 0. -1.
        -15    1    1    2    0    0 -0.49858820879E+01 -0.19700599557E+01 -0.29687957765E+02  0.30220402407E+02  0.17770000000E+01 0.  1.
         15    1    1    2    0    0  0.37076743541E+01  0.32433080808E+01 -0.12981719591E+03  0.12992277699E+03  0.17770000000E+01 0. -1.
</event>
<event>
 6    1  0.1108180E-002  0.1873112E+03  0.7546771E-02  0.1064688E+00
        -11   -1    0    0    0    0  0.00000000000E+00  0.00000000000E+00  0.18250000000E+03  0.18250000000E+03  0.00000000000E+00 0.  1.
         11   -1    0    0    0    0 -0.00000000000E+00 -0.00000000000E+00 -0.18250000000E+03  0.18250000000E+03  0.00000000000E+00 0. -1.
        -11    1    1    2    0    0  0.84019617544E+00  0.86745252480E+01  0.17747492167E+03  0.17768877607E+03  0.00000000000E+00 0.  1.
         11    1    1    2    0    0  0.12658545575E+01 -0.48523254516E+01 -0.12898598822E+03  0.12908343274E+03  0.00000000000E+00 0. -1.
        -15    1    1    2    0    0  0.69515987380E+01 -0.80307501428E+01 -0.23970369965E+01  0.11032732582E+02  0.17770000000E+01 0. -1.
         15    1    1    2    0    0 -0.90576494710E+01  0.42085503464E+01 -0.46091896451E+02  0.47195058612E+02  0.17770000000E+01 0.  1.
</event>
<event>
 6    1  0.1108180E-002  0.1845421E+03  0.7546771E-02  0.1066841E+00
        -11   -1    0    0    0    0  0.00000000000E+00  0.00000000000E+00  0.18250000000E+03  0.18250000000E+03  0.00000000000E+00 0.  1.
         11   -1    0    0    0    0 -0.00000000000E+00 -0.00000000000E+00 -0.18250000000E+03  0.18250000000E+03  0.00000000000E+00 0.  1.
        -11    1    1    2    0    0  0.52739682506E+01  0.32361187141E+01  0.15798032631E+03  0.15810145700E+03  0.00000000000E+00 0.  1.
         11    1    1    2    0    0 -0.79309800518E+00  0.33075075595E+01 -0.18042579409E+03  0.18045785044E+03  0.00000000000E+00 0.  1.
        -15    1    1    2    0    0 -0.69854999676E+01 -0.36140897974E+01  0.78987163408E+01  0.11287440086E+02  0.17770000000E+01 0. -1.
         15    1    1    2    0    0  0.25046297222E+01 -0.29295364762E+01  0.14546751445E+02  0.15153252476E+02  0.17770000000E+01 0.  1.
</event>
<event>
 6    1  0.1108180E-002  0.1505585E+03  0.7546771E-02  0.1097171E+00
        -11   -1    0    0    0    0  0.00000000000E+00  0.00000000000E+00  0.18250000000E+03  0.18250000000E+03  0.00000000000E+00 0.  1.
         11   -1    0    0    0    0 -0.00000000000E+00 -0.00000000000E+00 -0.18250000000E+03  0.18250000000E+03  0.00000000000E+00 0. -1.
        -11    1    1    2    0    0  0.21354491827E+02 -0.42786755983E+01  0.15234934489E+03  0.15389816202E+03  0.00000000000E+00 0.  1.
         11    1    1    2    0    0  0.50739530680E+01  0.44164673046E+01 -0.14825173683E+03  0.14840427102E+03  0.00000000000E+00 0. -1.
        -15    1    1    2    0    0 -0.35357100982E+02 -0.17500525174E+01 -0.22583863146E+02  0.42028274736E+02  0.17770000000E+01 0. -1.
         15    1    1    2    0    0  0.89286560877E+01  0.16122608111E+01  0.18486255093E+02  0.20669292218E+02  0.17770000000E+01 0.  1.
</event>
<event>
 6    1  0.1108180E-002  0.1967487E+03  0.7546771E-02  0.1057647E+00
        -11   -1    0    0    0    0  0.00000000000E+00  0.00000000000E+00  0.18250000000E+03  0.18250000000E+03  0.00000000000E+00 0. -1.
         11   -1    0    0    0    0 -0.00000000000E+00 -0.00000000000E+00 -0.18250000000E+03  0.18250000000E+03  0.00000000000E+00 0.  1.
        -11    1    1    2    0    0 -0.24316125823E+01  0.10834032970E+01  0.16823021041E+03  0.16825127101E+03  0.00000000000E+00 0. -1.
         11    1    1    2    0    0 -0.51787855639E+01  0.82606032507E+00 -0.15754906590E+03  0.15763632310E+03  0.00000000000E+00 0.  1.
        -15    1    1    2    0    0  0.24199639208E+01 -0.17370083298E+01  0.13694225252E+02  0.14126675389E+02  0.17770000000E+01 0. -1.
         15    1    1    2    0    0  0.51904342254E+01 -0.17245529224E+00 -0.24375369763E+02  0.24985730495E+02  0.17770000000E+01 0. -1.
</event>
<event>
 6    1  0.1108180E-002  0.1848690E+03  0.7546771E-02  0.1066585E+00
        -11   -1    0    0    0    0  0.00000000000E+00  0.00000000000E+00  0.18250000000E+03  0.18250000000E+03  0.00000000000E+00 0.  1.
         11   -1    0    0    0    0 -0.00000000000E+00 -0.00000000000E+00 -0.18250000000E+03  0.18250000000E+03  0.00000000000E+00 0.  1.
        -11    1    1    2    0    0  0.24178364523E+01  0.36935881675E+00  0.17710337171E+03  0.17712026036E+03  0.00000000000E+00 0.  1.
         11    1    1    2    0    0 -0.20356089271E+01  0.18746186712E+01 -0.18010975971E+03  0.18013101743E+03  0.00000000000E+00 0.  1.
        -15    1    1    2    0    0  0.20088824180E+01  0.83183165015E+00  0.74017489513E+00  0.29039869729E+01  0.17770000000E+01 0.  1.
         15    1    1    2    0    0 -0.23911099433E+01 -0.30758091381E+01  0.22662131023E+01  0.48447352291E+01  0.17770000000E+01 0. -1.
</event>
<event>
 6    1  0.1108180E-002  0.1800826E+03  0.7546771E-02  0.1070396E+00
        -11   -1    0    0    0    0  0.00000000000E+00  0.00000000000E+00  0.18250000000E+03  0.18250000000E+03  0.00000000000E+00 0. -1.
         11   -1    0    0    0    0 -0.00000000000E+00 -0.00000000000E+00 -0.18250000000E+03  0.18250000000E+03  0.00000000000E+00 0. -1.
        -11    1    1    2    0    0  0.23608944213E+01 -0.82940594130E+00  0.18168192480E+03  0.18169915667E+03  0.00000000000E+00 0. -1.
         11    1    1    2    0    0  0.18789460264E-01  0.59937763099E+00 -0.62973326414E+01  0.63258204989E+01  0.00000000000E+00 0. -1.
        -15    1    1    2    0    0  0.62221901943E+01 -0.82762354239E+01 -0.56947388978E+02  0.57908328969E+02  0.17770000000E+01 0.  1.
         15    1    1    2    0    0 -0.86018740759E+01  0.85062637342E+01 -0.11843720318E+03  0.11906669386E+03  0.17770000000E+01 0. -1.
</event>
<event>
 6    1  0.1108180E-002  0.1861674E+03  0.7546771E-02  0.1065572E+00
        -11   -1    0    0    0    0  0.00000000000E+00  0.00000000000E+00  0.18250000000E+03  0.18250000000E+03  0.00000000000E+00 0.  1.
         11   -1    0    0    0    0 -0.00000000000E+00 -0.00000000000E+00 -0.18250000000E+03  0.18250000000E+03  0.00000000000E+00 0. -1.
        -11    1    1    2    0    0 -0.24912023216E+01  0.71288043437E-01  0.12459678350E+03  0.12462170609E+03  0.00000000000E+00 0.  1.
         11    1    1    2    0    0  0.75429247359E+00  0.53376006180E+01 -0.17875135673E+03  0.17883262138E+03  0.00000000000E+00 0. -1.
        -15    1    1    2    0    0  0.98278734455E+01 -0.61931294983E+01  0.51481920636E+02  0.52806134405E+02  0.17770000000E+01 0.  1.
         15    1    1    2    0    0 -0.80909635975E+01  0.78424083679E+00  0.26726525953E+01  0.87395381183E+01  0.17770000000E+01 0. -1.
</event>
<event>
 6    1  0.1108180E-002  0.1896099E+03  0.7546771E-02  0.1062932E+00
        -11   -1    0    0    0    0  0.00000000000E+00  0.00000000000E+00  0.18250000000E+03  0.18250000000E+03  0.00000000000E+00 0.  1.
         11   -1    0    0    0    0 -0.00000000000E+00 -0.00000000000E+00 -0.18250000000E+03  0.18250000000E+03  0.00000000000E+00 0.  1.
        -11    1    1    2    0    0  0.20499653031E+01 -0.17767213802E+01  0.15945670614E+03  0.15947978000E+03  0.00000000000E+00 0.  1.
         11    1    1    2    0    0 -0.39816119946E+01  0.53373811967E+01 -0.17526364212E+03  0.17539009414E+03  0.00000000000E+00 0.  1.
        -15    1    1    2    0    0  0.12920814475E+02 -0.50629243491E+01  0.11461678737E+02  0.18086139946E+02  0.17770000000E+01 0.  1.
         15    1    1    2    0    0 -0.10989167784E+02  0.15022645326E+01  0.43452572459E+01  0.12043985920E+02  0.17770000000E+01 0. -1.
</event>
<event>
 6    1  0.1108180E-002  0.1849485E+03  0.7546771E-02  0.1066522E+00
        -11   -1    0    0    0    0  0.00000000000E+00  0.00000000000E+00  0.18250000000E+03  0.18250000000E+03  0.00000000000E+00 0. -1.
         11   -1    0    0    0    0 -0.00000000000E+00 -0.00000000000E+00 -0.18250000000E+03  0.18250000000E+03  0.00000000000E+00 0. -1.
        -11    1    1    2    0    0 -0.69233680379E+00  0.31907148471E+01  0.18002190175E+03  0.18005150680E+03  0.00000000000E+00 0. -1.
         11    1    1    2    0    0 -0.19075759969E+01  0.23788449089E+01 -0.16503585834E+03  0.16506402481E+03  0.00000000000E+00 0. -1.
        -15    1    1    2    0    0  0.53790838614E+01 -0.10960730836E+01 -0.26407597708E+01  0.63456489471E+01  0.17770000000E+01 0.  1.
         15    1    1    2    0    0 -0.27791710607E+01 -0.44734866725E+01 -0.12345283635E+02  0.13538819440E+02  0.17770000000E+01 0. -1.
</event>
<event>
 6    1  0.1155190E-002  0.1864823E+03  0.7546771E-02  0.1065328E+00
        -11   -1    0    0    0    0  0.00000000000E+00  0.00000000000E+00  0.18250000000E+03  0.18250000000E+03  0.00000000000E+00 0.  1.
         11   -1    0    0    0    0 -0.00000000000E+00 -0.00000000000E+00 -0.18250000000E+03  0.18250000000E+03  0.00000000000E+00 0.  1.
        -11    1    1    2    0    0  0.11019471532E+01 -0.10467371076E+01  0.10231386749E+03  0.10232515540E+03  0.00000000000E+00 0.  1.
         11    1    1    2    0    0 -0.18557477566E+00  0.58874043737E+01 -0.17842045175E+03  0.17851765619E+03  0.00000000000E+00 0.  1.
        -15    1    1    2    0    0 -0.27054937464E+01  0.65605115421E+00  0.77805492323E+02  0.77875557552E+02  0.17770000000E+01 0.  1.
         15    1    1    2    0    0  0.17891213688E+01 -0.54967184203E+01 -0.16989080583E+01  0.62816308596E+01  0.17770000000E+01 0. -1.
</event>
<event>
 6    1  0.1108180E-002  0.1914133E+03  0.7546771E-02  0.1061573E+00
        -11   -1    0    0    0    0  0.00000000000E+00  0.00000000000E+00  0.18250000000E+03  0.18250000000E+03  0.00000000000E+00 0. -1.
         11   -1    0    0    0    0 -0.00000000000E+00 -0.00000000000E+00 -0.18250000000E+03  0.18250000000E+03  0.00000000000E+00 0. -1.
        -11    1    1    2    0    0  0.32333866218E+01 -0.11533419920E+01  0.17355272204E+03  0.17358667090E+03  0.00000000000E+00 0. -1.
         11    1    1    2    0    0 -0.21389671991E+01 -0.46198701420E+00 -0.14239039767E+03  0.14240721176E+03  0.00000000000E+00 0. -1.
        -15    1    1    2    0    0  0.64196419341E+00  0.18485699236E+01 -0.39865100908E+02  0.39952638564E+02  0.17770000000E+01 0. -1.
         15    1    1    2    0    0 -0.17363836162E+01 -0.23324091739E+00  0.87027765439E+01  0.90534787768E+01  0.17770000000E+01 0.  1.
</event>
<event>
 6    1  0.1108180E-002  0.1825645E+03  0.7546771E-02  0.1068403E+00
        -11   -1    0    0    0    0  0.00000000000E+00  0.00000000000E+00  0.18250000000E+03  0.18250000000E+03  0.00000000000E+00 0.  1.
         11   -1    0    0    0    0 -0.00000000000E+00 -0.00000000000E+00 -0.18250000000E+03  0.18250000000E+03  0.00000000000E+00 0. -1.
        -11    1    1    2    0    0 -0.26042648112E+00 -0.15723791384E+01  0.44764825686E+02  0.44793189402E+02  0.00000000000E+00 0.  1.
         11    1    1    2    0    0 -0.12439123269E+00  0.37112990279E+01 -0.18239769359E+03  0.18243548953E+03  0.00000000000E+00 0. -1.
        -15    1    1    2    0    0  0.18921560367E+01 -0.27108259755E+01  0.78124770594E+02  0.78214872891E+02  0.17770000000E+01 0.  1.
         15    1    1    2    0    0 -0.15073383229E+01  0.57190608599E+00  0.59508097308E+02  0.59556448178E+02  0.17770000000E+01 0. -1.
</event>
<event>
 6    1  0.1108180E-002  0.1787363E+03  0.7546771E-02  0.1071491E+00
        -11   -1    0    0    0    0  0.00000000000E+00  0.00000000000E+00  0.18250000000E+03  0.18250000000E+03  0.00000000000E+00 0.  1.
         11   -1    0    0    0    0 -0.00000000000E+00 -0.00000000000E+00 -0.18250000000E+03  0.18250000000E+03  0.00000000000E+00 0.  1.
        -11    1    1    2    0    0  0.24580664577E+01  0.44196606376E+00  0.17945687196E+03  0.17947424974E+03  0.00000000000E+00 0.  1.
         11    1    1    2    0    0  0.25142023388E+01  0.18725217684E+01 -0.17801563965E+03  0.17804324056E+03  0.00000000000E+00 0.  1.
        -15    1    1    2    0    0 -0.57070287714E+00 -0.68349603786E+00 -0.14551825818E+01  0.24633623270E+01  0.17770000000E+01 0. -1.
         15    1    1    2    0    0 -0.44015659194E+01 -0.16309917943E+01  0.13950267416E-01  0.50191473764E+01  0.17770000000E+01 0. -1.
</event>
<event>
 6    1  0.1108180E-002  0.1829452E+03  0.7546771E-02  0.1068101E+00
        -11   -1    0    0    0    0  0.00000000000E+00  0.00000000000E+00  0.18250000000E+03  0.18250000000E+03  0.00000000000E+00 0. -1.
         11   -1    0    0    0    0 -0.00000000000E+00 -0.00000000000E+00 -0.18250000000E+03  0.18250000000E+03  0.00000000000E+00 0. -1.
        -11    1    1    2    0    0  0.10065105001E+00 -0.21966959952E+01  0.14151456447E+03  0.14153164862E+03  0.00000000000E+00 0. -1.
         11    1    1    2    0    0  0.31494635559E+01  0.10453033973E+01 -0.18202454016E+03  0.18205478571E+03  0.00000000000E+00 0. -1.
        -15    1    1    2    0    0 -0.72154681837E+00  0.17172686717E+01  0.39250453123E+01  0.46939696639E+01  0.17770000000E+01 0. -1.
         15    1    1    2    0    0 -0.25285677875E+01 -0.56587607383E+00  0.36584930379E+02  0.36719596003E+02  0.17770000000E+01 0. -1.
</event>
<event>
 6    1  0.1108180E-002  0.1914845E+03  0.7546771E-02  0.1061520E+00
        -11   -1    0    0    0    0  0.00000000000E+00  0.00000000000E+00  0.18250000000E+03  0.18250000000E+03  0.00000000000E+00 0.  1.
         11   -1    0    0    0    0 -0.00000000000E+00 -0.00000000000E+00 -0.18250000000E+03  0.18250000000E+03  0.00000000000E+00 0. -1.
        -11    1    1    2    0    0 -0.13927606713E+01 -0.93536351974E+01  0.17325761644E+03  0.17351550919E+03  0.00000000000E+00 0.  1.
         11    1    1    2    0    0  0.72015340193E+01 -0.24261904743E+00 -0.13015242712E+03  0.13035173663E+03  0.00000000000E+00 0. -1.
        -15    1    1    2    0    0 -0.93419951506E+01  0.11487087554E+02 -0.50434246926E+02  0.52592747084E+02  0.17770000000E+01 0. -1.
         15    1    1    2    0    0  0.35332218027E+01 -0.18908333094E+01  0.73290576039E+01  0.85400071002E+01  0.17770000000E+01 0.  1.
</event>
<event>
 6    1  0.2430844E-002  0.1827547E+03  0.7546771E-02  0.1068252E+00
        -11   -1    0    0    0    0  0.00000000000E+00  0.00000000000E+00  0.18250000000E+03  0.18250000000E+03  0.00000000000E+00 0. -1.
         11   -1    0    0    0    0 -0.00000000000E+00 -0.00000000000E+00 -0.18250000000E+03  0.18250000000E+03  0.00000000000E+00 0. -1.
        -11    1    1    2    0    0 -0.14255724198E+01 -0.46787423156E+01  0.18217970405E+03  0.18224534960E+03  0.00000000000E+00 0. -1.
         11    1    1    2    0    0 -0.10203758746E+01 -0.35843846414E+00 -0.72548378574E+02  0.72556439265E+02  0.00000000000E+00 0. -1.
        -15    1    1    2    0    0  0.26792997884E+01  0.60582247887E+01 -0.43725548177E+02  0.44260162983E+02  0.17770000000E+01 0. -1.
         15    1    1    2    0    0 -0.23335149392E+00 -0.10210440090E+01 -0.65905777294E+02  0.65938048148E+02  0.17770000000E+01 0. -1.
</event>
<event>
 6    1  0.1108180E-002  0.1826077E+03  0.7546771E-02  0.1068369E+00
        -11   -1    0    0    0    0  0.00000000000E+00  0.00000000000E+00  0.18250000000E+03  0.18250000000E+03  0.00000000000E+00 0. -1.
         11   -1    0    0    0    0 -0.00000000000E+00 -0.00000000000E+00 -0.18250000000E+03  0.18250000000E+03  0.00000000000E+00 0. -1.
        -11    1    1    2    0    0  0.35623610391E+01  0.44710655510E+00  0.18235694517E+03  0.18239228539E+03  0.00000000000E+00 0. -1.
         11    1    1    2    0    0  0.24340375969E+00  0.17849911238E+01 -0.25954887559E+02  0.26017333201E+02  0.00000000000E+00 0. -1.
        -15    1    1    2    0    0 -0.66071225967E+00 -0.69776434149E+00 -0.15184354519E+02  0.15318151551E+02  0.17770000000E+01 0. -1.
         15    1    1    2    0    0 -0.31450525391E+01 -0.15343333374E+01 -0.14121770309E+03  0.14127222986E+03  0.17770000000E+01 0. -1.
</event>
<event>
 6    1  0.1108180E-002  0.1934236E+03  0.7546771E-02  0.1060078E+00
        -11   -1    0    0    0    0  0.00000000000E+00  0.00000000000E+00  0.18250000000E+03  0.18250000000E+03  0.00000000000E+00 0. -1.
         11   -1    0    0    0    0 -0.00000000000E+00 -0.00000000000E+00 -0.18250000000E+03  0.18250000000E+03  0.00000000000E+00 0.  1.
        -11    1    1    2    0    0  0.11150115658E+02 -0.57010966568E+01  0.17111878090E+03  0.17157641084E+03  0.00000000000E+00 0. -1.
         11    1    1    2    0    0 -0.44324572090E+01  0.69920092451E+01 -0.72960742242E+02  0.73428909693E+02  0.00000000000E+00 0.  1.
        -15    1    1    2    0    0  0.14707518661E+02 -0.12944873182E+02 -0.92927687438E+02  0.94987334253E+02  0.17770000000E+01 0.  1.
         15    1    1    2    0    0 -0.21425177110E+02  0.11653960594E+02 -0.52303512156E+01  0.25007345212E+02  0.17770000000E+01 0. -1.
</event>
<event>
 6    1  0.1108180E-002  0.1839673E+03  0.7546771E-02  0.1067293E+00
        -11   -1    0    0    0    0  0.00000000000E+00  0.00000000000E+00  0.18250000000E+03  0.18250000000E+03  0.00000000000E+00 0. -1.
         11   -1    0    0    0    0 -0.00000000000E+00 -0.00000000000E+00 -0.18250000000E+03  0.18250000000E+03  0.00000000000E+00 0. -1.
        -11    1    1    2    0    0 -0.15359216010E+01  0.18148397916E+01  0.96843935043E+02  0.96873115224E+02  0.00000000000E+00 0. -1.
         11    1    1    2    0    0  0.37828760563E+01 -0.27935946862E+00 -0.18099293203E+03  0.18103267561E+03  0.00000000000E+00 0. -1.
        -15    1    1    2    0    0  0.16405368270E+01 -0.17674035389E+01  0.82425013842E+02  0.82479425993E+02  0.17770000000E+01 0.  1.
         15    1    1    2    0    0 -0.38874912823E+01  0.23192321586E+00  0.17239831467E+01  0.46147831734E+01  0.17770000000E+01 0.  1.
</event>
<event>
 6    1  0.1108180E-002  0.1830132E+03  0.7546771E-02  0.1068047E+00
        -11   -1    0    0    0    0  0.00000000000E+00  0.00000000000E+00  0.18250000000E+03  0.18250000000E+03  0.00000000000E+00 0. -1.
         11   -1    0    0    0    0 -0.00000000000E+00 -0.00000000000E+00 -0.18250000000E+03  0.18250000000E+03  0.00000000000E+00 0.  1.
        -11    1    1    2    0    0 -0.38194239082E+01 -0.10660169859E+01  0.18194359039E+03  0.18198679753E+03  0.00000000000E+00 0. -1.
         11    1    1    2    0    0  0.58647768681E+00  0.55377502477E-01 -0.38911190688E+02  0.38915649596E+02  0.00000000000E+00 0.  1.
        -15    1    1    2    0    0  0.84422289558E+01  0.39034596135E+01 -0.11473331223E+03  0.11512340723E+03  0.17770000000E+01 0.  1.
         15    1    1    2    0    0 -0.52092827344E+01 -0.28928201301E+01 -0.28299087473E+02  0.28974145643E+02  0.17770000000E+01 0. -1.
</event>
<event>
 6    1  0.1108180E-002  0.1840380E+03  0.7546771E-02  0.1067237E+00
        -11   -1    0    0    0    0  0.00000000000E+00  0.00000000000E+00  0.18250000000E+03  0.18250000000E+03  0.00000000000E+00 0.  1.
         11   -1    0    0    0    0 -0.00000000000E+00 -0.00000000000E+00 -0.18250000000E+03  0.18250000000E+03  0.00000000000E+00 0.  1.
        -11    1    1    2    0    0  0.16657155757E+01 -0.33705037146E+01  0.18092297653E+03  0.18096203564E+03  0.00000000000E+00 0.  1.
         11    1    1    2    0    0  0.56198003572E+01  0.18199981995E+00 -0.16247841584E+03  0.16257567744E+03  0.00000000000E+00 0.  1.
        -15    1    1    2    0    0 -0.62338208369E-01  0.30029788826E+01 -0.68024080173E+01  0.76454072524E+01  0.17770000000E+01 0. -1.
         15    1    1    2    0    0 -0.72231777245E+01  0.18552501205E+00 -0.11642152677E+02  0.13816879674E+02  0.17770000000E+01 0.  1.
</event>
<event>
 6    1  0.1108180E-002  0.1826534E+03  0.7546771E-02  0.1068333E+00
        -11   -1    0    0    0    0  0.00000000000E+00  0.00000000000E+00  0.18250000000E+03  0.18250000000E+03  0.00000000000E+00 0. -1.
         11   -1    0    0    0    0 -0.00000000000E+00 -0.00000000000E+00 -0.18250000000E+03  0.18250000000E+03  0.00000000000E+00 0. -1.
        -11    1    1    2    0    0  0.95754203718E+00 -0.99760193969E+00  0.45661294648E+02  0.45682227674E+02  0.00000000000E+00 0. -1.
         11    1    1    2    0    0 -0.21763950066E+01 -0.22369528964E+01 -0.18231987180E+03  0.18234658293E+03  0.00000000000E+00 0. -1.
        -15    1    1    2    0    0  0.50539067357E-01  0.32367745292E+01  0.12807009525E+03  0.12812332453E+03  0.17770000000E+01 0. -1.
         15    1    1    2    0    0  0.11683139020E+01 -0.22196931062E-02  0.85884819014E+01  0.88478648651E+01  0.17770000000E+01 0. -1.
</event>
<event>
 6    1  0.1108180E-002  0.1837447E+03  0.7546771E-02  0.1067468E+00
        -11   -1    0    0    0    0  0.00000000000E+00  0.00000000000E+00  0.18250000000E+03  0.18250000000E+03  0.00000000000E+00 0. -1.
         11   -1    0    0    0    0 -0.00000000000E+00 -0.00000000000E+00 -0.18250000000E+03  0.18250000000E+03  0.00000000000E+00 0. -1.
        -11    1    1    2    0    0  0.46568151915E+01 -0.13598370287E+02  0.18068451706E+03  0.18125533456E+03  0.00000000000E+00 0. -1.
         11    1    1    2    0    0 -0.28454758794E+01 -0.31370227977E+01 -0.65074953138E+02  0.65212630455E+02  0.00000000000E+00 0. -1.
        -15    1    1    2    0    0  0.74459975706E+01  0.14571496104E+02 -0.70183477964E+02  0.72087791523E+02  0.17770000000E+01 0. -1.
         15    1    1    2    0    0 -0.92573368826E+01  0.21638969807E+01 -0.45426085957E+02  0.46444243461E+02  0.17770000000E+01 0.  1.
</event>
<event>
 6    1  0.1108180E-002  0.1828752E+03  0.7546771E-02  0.1068157E+00
        -11   -1    0    0    0    0  0.00000000000E+00  0.00000000000E+00  0.18250000000E+03  0.18250000000E+03  0.00000000000E+00 0. -1.
         11   -1    0    0    0    0 -0.00000000000E+00 -0.00000000000E+00 -0.18250000000E+03  0.18250000000E+03  0.00000000000E+00 0.  1.
        -11    1    1    2    0    0 -0.86168757712E+00  0.22613810436E+01  0.14596295624E+03  0.14598301594E+03  0.00000000000E+00 0. -1.
         11    1    1    2    0    0 -0.14027757984E+00  0.25459863668E+01 -0.18210694944E+03  0.18212479995E+03  0.00000000000E+00 0.  1.
        -15    1    1    2    0    0 -0.51039676859E-01 -0.74396620708E+00  0.41561987049E+01  0.45812451845E+01  0.17770000000E+01 0. -1.
         15    1    1    2    0    0  0.10530048338E+01 -0.40634012033E+01  0.31987794493E+02  0.32310938922E+02  0.17770000000E+01 0.  1.
</event>
<event>
 6    1  0.1108180E-002  0.1846141E+03  0.7546771E-02  0.1066784E+00
        -11   -1    0    0    0    0  0.00000000000E+00  0.00000000000E+00  0.18250000000E+03  0.18250000000E+03  0.00000000000E+00 0.  1.
         11   -1    0    0    0    0 -0.00000000000E+00 -0.00000000000E+00 -0.18250000000E+03  0.18250000000E+03  0.00000000000E+00 0. -1.
        -11    1    1    2    0    0 -0.23147215645E+01 -0.52624603092E+01  0.18029429406E+03  0.18038593042E+03  0.00000000000E+00 0.  1.
         11    1    1    2    0    0 -0.18856243318E+01 -0.26310199683E+01 -0.14513570901E+03  0.14517180124E+03  0.00000000000E+00 0. -1.
        -15    1    1    2    0    0  0.32357625401E+01  0.61090589137E+01 -0.40296483372E+01  0.81967404954E+01  0.17770000000E+01 0. -1.
         15    1    1    2    0    0  0.96458335617E+00  0.17844213638E+01 -0.31128936711E+02  0.31245527846E+02  0.17770000000E+01 0. -1.
</event>
<event>
 6    1  0.1108180E-002  0.1862006E+03  0.7546771E-02  0.1065547E+00
        -11   -1    0    0    0    0  0.00000000000E+00  0.00000000000E+00  0.18250000000E+03  0.18250000000E+03  0.00000000000E+00 0. -1.
         11   -1    0    0    0    0 -0.00000000000E+00 -0.00000000000E+00 -0.18250000000E+03  0.18250000000E+03  0.00000000000E+00 0.  1.
        -11    1    1    2    0    0 -0.11578667586E+02 -0.19514934119E+02  0.17735371258E+03  0.17879943390E+03  0.00000000000E+00 0. -1.
         11    1    1    2    0    0 -0.15542138766E+01  0.74966966058E+01 -0.13719736535E+03  0.13741081871E+03  0.00000000000E+00 0.  1.
        -15    1    1    2    0    0  0.26002176763E+00 -0.15739187720E+01  0.16811828757E+01  0.29204342968E+01  0.17770000000E+01 0. -1.
         15    1    1    2    0    0  0.12872859695E+02  0.13592156285E+02 -0.41837530105E+02  0.45869313091E+02  0.17770000000E+01 0.  1.
</event>
<event>
 6    1  0.1108180E-002  0.1839062E+03  0.7546771E-02  0.1067341E+00
        -11   -1    0    0    0    0  0.00000000000E+00  0.00000000000E+00  0.18250000000E+03  0.18250000000E+03  0.00000000000E+00 0. -1.
         11   -1    0    0    0    0 -0.00000000000E+00 -0.00000000000E+00 -0.18250000000E+03  0.18250000000E+03  0.00000000000E+00 0.  1.
        -11    1    1    2    0    0 -0.15343733295E+01  0.12196650692E+01  0.98726642570E+02  0.98746097834E+02  0.00000000000E+00 0. -1.
         11    1    1    2    0    0  0.28891634167E+01  0.58433709314E+01 -0.18097639896E+03  0.18109375812E+03  0.00000000000E+00 0.  1.
        -15    1    1    2    0    0  0.65710962851E+01 -0.75061290258E+00  0.96382040196E+01  0.11823511824E+02  0.17770000000E+01 0.  1.
         15    1    1    2    0    0 -0.79258863723E+01 -0.63124230980E+01  0.72611552368E+02  0.73336632227E+02  0.17770000000E+01 0. -1.
</event>
<event>
 6    1  0.1108180E-002  0.1833663E+03  0.7546771E-02  0.1067767E+00
        -11   -1    0    0    0    0  0.00000000000E+00  0.00000000000E+00  0.18250000000E+03  0.18250000000E+03  0.00000000000E+00 0.  1.
         11   -1    0    0    0    0 -0.00000000000E+00 -0.00000000000E+00 -0.18250000000E+03  0.18250000000E+03  0.00000000000E+00 0.  1.
        -11    1    1    2    0    0 -0.21835465248E+01 -0.33437060946E-01  0.14997474381E+03  0.14999064229E+03  0.00000000000E+00 0.  1.
         11    1    1    2    0    0  0.16885618297E+00  0.26536553140E+01 -0.18161420495E+03  0.18163366934E+03  0.00000000000E+00 0.  1.
        -15    1    1    2    0    0  0.48057718979E+01  0.10664267907E+01  0.11482768016E+02  0.12619207580E+02  0.17770000000E+01 0.  1.
         15    1    1    2    0    0 -0.27910815561E+01 -0.36866450437E+01  0.20156693124E+02  0.20756480786E+02  0.17770000000E+01 0.  1.
</event>
<event>
 6    1  0.1108180E-002  0.1826439E+03  0.7546771E-02  0.1068340E+00
        -11   -1    0    0    0    0  0.00000000000E+00  0.00000000000E+00  0.18250000000E+03  0.18250000000E+03  0.00000000000E+00 0.  1.
         11   -1    0    0    0    0 -0.00000000000E+00 -0.00000000000E+00 -0.18250000000E+03  0.18250000000E+03  0.00000000000E+00 0.  1.
        -11    1    1    2    0    0  0.33176614712E+01 -0.86899750897E-01  0.18232584741E+03  0.18235605025E+03  0.00000000000E+00 0.  1.
         11    1    1    2    0    0  0.14000874461E+00  0.30064114833E+01 -0.85525909034E+02  0.85578848021E+02  0.00000000000E+00 0.  1.
        -15    1    1    2    0    0 -0.12231496449E+00 -0.22109441635E+01 -0.59452475770E+02  0.59520230503E+02  0.17770000000E+01 0.  1.
         15    1    1    2    0    0 -0.33353552513E+01 -0.70856756887E+00 -0.37347462610E+02  0.37544871221E+02  0.17770000000E+01 0.  1.
</event>
<event>
 6    1  0.1108180E-002  0.1829521E+03  0.7546771E-02  0.1068096E+00
        -11   -1    0    0    0    0  0.00000000000E+00  0.00000000000E+00  0.18250000000E+03  0.18250000000E+03  0.00000000000E+00 0.  1.
         11   -1    0    0    0    0 -0.00000000000E+00 -0.00000000000E+00 -0.18250000000E+03  0.18250000000E+03  0.00000000000E+00 0. -1.
        -11    1    1    2    0    0 -0.18789925343E+01  0.28251982991E+01  0.18201628490E+03  0.18204790669E+03  0.00000000000E+00 0.  1.
         11    1    1    2    0    0 -0.25036035419E+01  0.78787453169E+00 -0.13351651229E+03  0.13354230727E+03  0.00000000000E+00 0. -1.
        -15    1    1    2    0    0 -0.61316855404E+00 -0.26618508099E+01 -0.28900960897E+02  0.29084096946E+02  0.17770000000E+01 0.  1.
         15    1    1    2    0    0  0.49957646302E+01 -0.95122202088E+00 -0.19598811715E+02  0.20325689096E+02  0.17770000000E+01 0. -1.
</event>
<event>
 6    1  0.1108180E-002  0.1833086E+03  0.7546771E-02  0.1067813E+00
        -11   -1    0    0    0    0  0.00000000000E+00  0.00000000000E+00  0.18250000000E+03  0.18250000000E+03  0.00000000000E+00 0. -1.
         11   -1    0    0    0    0 -0.00000000000E+00 -0.00000000000E+00 -0.18250000000E+03  0.18250000000E+03  0.00000000000E+00 0. -1.
        -11    1    1    2    0    0  0.39541974984E+01 -0.23015760781E+01  0.16320205337E+03  0.16326617272E+03  0.00000000000E+00 0. -1.
         11    1    1    2    0    0 -0.28817046693E+01 -0.34850974422E+01 -0.18163514647E+03  0.18169143227E+03  0.00000000000E+00 0. -1.
        -15    1    1    2    0    0 -0.14197305704E+00  0.19863721990E+01  0.29688241697E+01  0.39921769516E+01  0.17770000000E+01 0.  1.
         15    1    1    2    0    0 -0.93051977198E+00  0.38003013213E+01  0.15464268931E+02  0.16050218059E+02  0.17770000000E+01 0. -1.
</event>
<event>
 6    1  0.1108180E-002  0.1834210E+03  0.7546771E-02  0.1067724E+00
        -11   -1    0    0    0    0  0.00000000000E+00  0.00000000000E+00  0.18250000000E+03  0.18250000000E+03  0.00000000000E+00 0. -1.
         11   -1    0    0    0    0 -0.00000000000E+00 -0.00000000000E+00 -0.18250000000E+03  0.18250000000E+03  0.00000000000E+00 0.  1.
        -11    1    1    2    0    0  0.17497716088E+01 -0.46774658899E+01  0.12837767159E+03  0.12847477165E+03  0.00000000000E+00 0. -1.
         11    1    1    2    0    0 -0.30258909013E+01 -0.16861983425E+01 -0.18154599527E+03  0.18157903975E+03  0.00000000000E+00 0.  1.
        -15    1    1    2    0    0  0.43534868173E+01  0.82436358160E+01  0.31142006686E+02  0.32555993125E+02  0.17770000000E+01 0. -1.
         15    1    1    2    0    0 -0.30773675248E+01 -0.18799715837E+01  0.22026316990E+02  0.22390195470E+02  0.17770000000E+01 0. -1.
</event>
<event>
 6    1  0.1108180E-002  0.1826480E+03  0.7546771E-02  0.1068337E+00
        -11   -1    0    0    0    0  0.00000000000E+00  0.00000000000E+00  0.18250000000E+03  0.18250000000E+03  0.00000000000E+00 0.  1.
         11   -1    0    0    0    0 -0.00000000000E+00 -0.00000000000E+00 -0.18250000000E+03  0.18250000000E+03  0.00000000000E+00 0.  1.
        -11    1    1    2    0    0 -0.45566592463E+00  0.18324634454E+01  0.44135126416E+02  0.44175501553E+02  0.00000000000E+00 0.  1.
         11    1    1    2    0    0  0.31017966290E+01  0.31206272430E+00 -0.18232539597E+03  0.18235204562E+03  0.00000000000E+00 0.  1.
        -15    1    1    2    0    0 -0.40134050309E+01  0.24433151932E+00  0.42634524140E+02  0.42860558740E+02  0.17770000000E+01 0. -1.
         15    1    1    2    0    0  0.13672743266E+01 -0.23888576891E+01  0.95555745416E+02  0.95611894088E+02  0.17770000000E+01 0.  1.
</event>
<event>
 6    1  0.1108180E-002  0.1827796E+03  0.7546771E-02  0.1068232E+00
        -11   -1    0    0    0    0  0.00000000000E+00  0.00000000000E+00  0.18250000000E+03  0.18250000000E+03  0.00000000000E+00 0.  1.
         11   -1    0    0    0    0 -0.00000000000E+00 -0.00000000000E+00 -0.18250000000E+03  0.18250000000E+03  0.00000000000E+00 0.  1.
        -11    1    1    2    0    0  0.16480959116E+01 -0.70847154896E-01  0.12029550031E+03  0.12030681043E+03  0.00000000000E+00 0.  1.
         11    1    1    2    0    0 -0.14192062359E+01  0.23602327723E+01 -0.18219955555E+03  0.18222036902E+03  0.00000000000E+00 0.  1.
        -15    1    1    2    0    0  0.27991469551E+01 -0.11830267368E+01  0.46579651313E+02  0.46712486782E+02  0.17770000000E+01 0. -1.
         15    1    1    2    0    0 -0.30280366308E+01 -0.11063588806E+01  0.15324403923E+02  0.15760333766E+02  0.17770000000E+01 0.  1.
</event>
<event>
 6    1  0.1108180E-002  0.1857575E+03  0.7546771E-02  0.1065891E+00
        -11   -1    0    0    0    0  0.00000000000E+00  0.00000000000E+00  0.18250000000E+03  0.18250000000E+03  0.00000000000E+00 0.  1.
         11   -1    0    0    0    0 -0.00000000000E+00 -0.00000000000E+00 -0.18250000000E+03  0.18250000000E+03  0.00000000000E+00 0. -1.
        -11    1    1    2    0    0 -0.24442316016E+00 -0.11935731014E+01  0.16496416314E+02  0.16541345491E+02  0.00000000000E+00 0.  1.
         11    1    1    2    0    0  0.14873660936E+01 -0.46450137313E+01 -0.17917609345E+03  0.17924246393E+03  0.00000000000E+00 0. -1.
        -15    1    1    2    0    0 -0.37543911596E+01  0.12442736371E+01  0.16355984097E+03  0.16361730647E+03  0.17770000000E+01 0.  1.
         15    1    1    2    0    0  0.25114482261E+01  0.45943131956E+01 -0.88016383306E+00  0.55988841124E+01  0.17770000000E+01 0. -1.
</event>
<event>
 6    1  0.1607187E-002  0.1663383E+03  0.7546771E-02  0.1082101E+00
        -11   -1    0    0    0    0  0.00000000000E+00  0.00000000000E+00  0.18250000000E+03  0.18250000000E+03  0.00000000000E+00 0.  1.
         11   -1    0    0    0    0 -0.00000000000E+00 -0.00000000000E+00 -0.18250000000E+03  0.18250000000E+03  0.00000000000E+00 0.  1.
        -11    1    1    2    0    0  0.30945571988E+01  0.24308540109E+01  0.16619171091E+03  0.16623829315E+03  0.00000000000E+00 0.  1.
         11    1    1    2    0    0  0.15223277125E+01 -0.22075301378E+01 -0.16644887457E+03  0.16647047340E+03  0.00000000000E+00 0.  1.
        -15    1    1    2    0    0 -0.24425650226E+01  0.18826095343E+01 -0.15625294305E+02  0.16025538795E+02  0.17770000000E+01 0.  1.
         15    1    1    2    0    0 -0.21743198887E+01 -0.21059334074E+01  0.15882457965E+02  0.16265694652E+02  0.17770000000E+01 0.  1.
</event>
<event>
 6    1  0.1108180E-002  0.1827176E+03  0.7546771E-02  0.1068282E+00
        -11   -1    0    0    0    0  0.00000000000E+00  0.00000000000E+00  0.18250000000E+03  0.18250000000E+03  0.00000000000E+00 0. -1.
         11   -1    0    0    0    0 -0.00000000000E+00 -0.00000000000E+00 -0.18250000000E+03  0.18250000000E+03  0.00000000000E+00 0.  1.
        -11    1    1    2    0    0 -0.29911773437E+00  0.14501047992E+01  0.81642833661E+02  0.81656258570E+02  0.00000000000E+00 0. -1.
         11    1    1    2    0    0 -0.60285582966E+01  0.21600885085E+01 -0.18216987958E+03  0.18228240322E+03  0.00000000000E+00 0.  1.
        -15    1    1    2    0    0  0.38449691472E+01 -0.27630781374E+01  0.27217932786E+02  0.27683785556E+02  0.17770000000E+01 0. -1.
         15    1    1    2    0    0  0.24827068838E+01 -0.84711517033E+00  0.73309113128E+02  0.73377552659E+02  0.17770000000E+01 0.  1.
</event>
<event>
 6    1  0.1108180E-002  0.1845099E+03  0.7546771E-02  0.1066866E+00
        -11   -1    0    0    0    0  0.00000000000E+00  0.00000000000E+00  0.18250000000E+03  0.18250000000E+03  0.00000000000E+00 0. -1.
         11   -1    0    0    0    0 -0.00000000000E+00 -0.00000000000E+00 -0.18250000000E+03  0.18250000000E+03  0.00000000000E+00 0.  1.
        -11    1    1    2    0    0 -0.32212977075E+01  0.31559344368E+01  0.15821981332E+03  0.15828406745E+03  0.00000000000E+00 0. -1.
         11    1    1    2    0    0 -0.18414125778E+01  0.21850906705E+01 -0.18046751749E+03  0.18049013904E+03  0.00000000000E+00 0.  1.
        -15    1    1    2    0    0  0.23298630440E+01 -0.56000458575E+01  0.35596553833E+01  0.72538025102E+01  0.17770000000E+01 0. -1.
         15    1    1    2    0    0  0.27328472412E+01  0.25902075020E+00  0.18688048790E+02  0.18971990996E+02  0.17770000000E+01 0.  1.
</event>
<event>
 6    1  0.1108180E-002  0.1840010E+03  0.7546771E-02  0.1067266E+00
        -11   -1    0    0    0    0  0.00000000000E+00  0.00000000000E+00  0.18250000000E+03  0.18250000000E+03  0.00000000000E+00 0.  1.
         11   -1    0    0    0    0 -0.00000000000E+00 -0.00000000000E+00 -0.18250000000E+03  0.18250000000E+03  0.00000000000E+00 0.  1.
        -11    1    1    2    0    0  0.43704798702E+00  0.33855803637E+01  0.14211245591E+03  0.14215344980E+03  0.00000000000E+00 0.  1.
         11    1    1    2    0    0 -0.31228128430E+01 -0.35077397351E+01 -0.18093801395E+03  0.18099895329E+03  0.00000000000E+00 0.  1.
        -15    1    1    2    0    0 -0.12455038847E+01 -0.56416296158E+01  0.29246459641E+02  0.29864567553E+02  0.17770000000E+01 0. -1.
         15    1    1    2    0    0  0.39312687407E+01  0.57637889873E+01  0.95790984023E+01  0.11983029358E+02  0.17770000000E+01 0.  1.
</event>
<event>
 6    1  0.1108180E-002  0.1870290E+03  0.7546771E-02  0.1064906E+00
        -11   -1    0    0    0    0  0.00000000000E+00  0.00000000000E+00  0.18250000000E+03  0.18250000000E+03  0.00000000000E+00 0.  1.
         11   -1    0    0    0    0 -0.00000000000E+00 -0.00000000000E+00 -0.18250000000E+03  0.18250000000E+03  0.00000000000E+00 0. -1.
        -11    1    1    2    0    0 -0.97604091203E-02 -0.21168414917E+01  0.14716477010E+03  0.14717999413E+03  0.00000000000E+00 0.  1.
         11    1    1    2    0    0  0.26972341578E+01 -0.96832082370E-02 -0.17795051916E+03  0.17797095953E+03  0.00000000000E+00 0. -1.
        -15    1    1    2    0    0  0.33641876510E+01  0.12000955858E+01  0.32893688713E+02  0.33134732142E+02  0.17770000000E+01 0. -1.
         15    1    1    2    0    0 -0.60516613998E+01  0.92642911412E+00 -0.21079396529E+01  0.67143142004E+01  0.17770000000E+01 0.  1.
</event>
<event>
 6    1  0.1108180E-002  0.1828534E+03  0.7546771E-02  0.1068174E+00
        -11   -1    0    0    0    0  0.00000000000E+00  0.00000000000E+00  0.18250000000E+03  0.18250000000E+03  0.00000000000E+00 0. -1.
         11   -1    0    0    0    0 -0.00000000000E+00 -0.00000000000E+00 -0.18250000000E+03  0.18250000000E+03  0.00000000000E+00 0. -1.
        -11    1    1    2    0    0 -0.22136499914E+01 -0.28170126571E+01  0.13142989038E+03  0.13147871270E+03  0.00000000000E+00 0. -1.
         11    1    1    2    0    0 -0.10414697935E+01  0.40435748086E+01 -0.18209875385E+03  0.18214662036E+03  0.00000000000E+00 0. -1.
        -15    1    1    2    0    0  0.48831618587E+00 -0.37249683553E+01  0.30967311956E+02  0.31244935282E+02  0.17770000000E+01 0.  1.
         15    1    1    2    0    0  0.27668035991E+01  0.24984062037E+01  0.19701551511E+02  0.20129731659E+02  0.17770000000E+01 0.  1.
</event>
<event>
 6    1  0.1108180E-002  0.1849760E+03  0.7546771E-02  0.1066501E+00
        -11   -1    0    0    0    0  0.00000000000E+00  0.00000000000E+00  0.18250000000E+03  0.18250000000E+03  0.00000000000E+00 0. -1.
         11   -1    0    0    0    0 -0.00000000000E+00 -0.00000000000E+00 -0.18250000000E+03  0.18250000000E+03  0.00000000000E+00 0. -1.
        -11    1    1    2    0    0 -0.48866979523E+01 -0.60746680849E+01  0.17985511678E+03  0.18002401074E+03  0.00000000000E+00 0. -1.
         11    1    1    2    0    0 -0.19776652182E+01 -0.10407189340E+01 -0.14722691792E+03  0.14724387802E+03  0.00000000000E+00 0. -1.
        -15    1    1    2    0    0  0.65551548705E+01  0.46612643674E+01 -0.43977507577E+01  0.93378467328E+01  0.17770000000E+01 0.  1.
         15    1    1    2    0    0  0.30920829990E+00  0.24541226516E+01 -0.28230448104E+02  0.28394264507E+02  0.17770000000E+01 0. -1.
</event>
<event>
 6    1  0.1108180E-002  0.1830850E+03  0.7546771E-02  0.1067990E+00
        -11   -1    0    0    0    0  0.00000000000E+00  0.00000000000E+00  0.18250000000E+03  0.18250000000E+03  0.00000000000E+00 0.  1.
         11   -1    0    0    0    0 -0.00000000000E+00 -0.00000000000E+00 -0.18250000000E+03  0.18250000000E+03  0.00000000000E+00 0. -1.
        -11    1    1    2    0    0  0.13448337640E+01  0.15406923728E+01  0.12963358348E+03  0.12964971375E+03  0.00000000000E+00 0.  1.
         11    1    1    2    0    0 -0.35054761189E+01 -0.63636009774E+01 -0.18176982328E+03  0.18191495935E+03  0.00000000000E+00 0. -1.
        -15    1    1    2    0    0  0.56435485253E+01  0.25043450457E+01  0.39214002666E+02  0.39736848368E+02  0.17770000000E+01 0.  1.
         15    1    1    2    0    0 -0.34829061704E+01  0.23185635590E+01  0.12922237140E+02  0.13698478531E+02  0.17770000000E+01 0. -1.
</event>
<event>
 6    1  0.1108180E-002  0.1837959E+03  0.7546771E-02  0.1067428E+00
        -11   -1    0    0    0    0  0.00000000000E+00  0.00000000000E+00  0.18250000000E+03  0.18250000000E+03  0.00000000000E+00 0.  1.
         11   -1    0    0    0    0 -0.00000000000E+00 -0.00000000000E+00 -0.18250000000E+03  0.18250000000E+03  0.00000000000E+00 0.  1.
        -11    1    1    2    0    0  0.40372009956E+01 -0.36240505986E+00  0.17622751152E+03  0.17627412216E+03  0.00000000000E+00 0.  1.
         11    1    1    2    0    0 -0.48454901422E+01 -0.16611747838E+01 -0.18113167712E+03  0.18120409138E+03  0.00000000000E+00 0.  1.
        -15    1    1    2    0    0  0.13539108387E+00  0.26418183899E+01  0.44487652512E+01  0.54723647915E+01  0.17770000000E+01 0.  1.
         15    1    1    2    0    0  0.67289806272E+00 -0.61823854627E+00  0.45540034806E+00  0.20494216696E+01  0.17770000000E+01 0.  1.
</event>
<event>
 6    1  0.1108180E-002  0.1864379E+03  0.7546771E-02  0.1065363E+00
        -11   -1    0    0    0    0  0.00000000000E+00  0.00000000000E+00  0.18250000000E+03  0.18250000000E+03  0.00000000000E+00 0.  1.
         11   -1    0    0    0    0 -0.00000000000E+00 -0.00000000000E+00 -0.18250000000E+03  0.18250000000E+03  0.00000000000E+00 0. -1.
        -11    1    1    2    0    0  0.87387781616E+01  0.31632737350E+01  0.94615689233E+02  0.95071032357E+02  0.00000000000E+00 0.  1.
         11    1    1    2    0    0 -0.10655097986E+01  0.47136440293E+01 -0.17849668837E+03  0.17856209427E+03  0.00000000000E+00 0. -1.
        -15    1    1    2    0    0 -0.77750496562E+01  0.76000998655E+01  0.68826104415E+02  0.69702247403E+02  0.17770000000E+01 0.  1.
         15    1    1    2    0    0  0.10178129309E+00 -0.15477017630E+02  0.15054894724E+02  0.21664625967E+02  0.17770000000E+01 0. -1.
</event>
<event>
 6    1  0.1108180E-002  0.1890863E+03  0.7546771E-02  0.1063330E+00
        -11   -1    0    0    0    0  0.00000000000E+00  0.00000000000E+00  0.18250000000E+03  0.18250000000E+03  0.00000000000E+00 0. -1.
         11   -1    0    0    0    0 -0.00000000000E+00 -0.00000000000E+00 -0.18250000000E+03  0.18250000000E+03  0.00000000000E+00 0.  1.
        -11    1    1    2    0    0 -0.47387052503E+01 -0.77546884139E+00  0.17584812075E+03  0.17591366704E+03  0.00000000000E+00 0. -1.
         11    1    1    2    0    0  0.67883507673E+01 -0.21879985548E+01 -0.16877771267E+03  0.16892834379E+03  0.00000000000E+00 0.  1.
        -15    1    1    2    0    0 -0.73284043384E+01  0.10023989253E-01  0.31316173462E+01  0.81651923940E+01  0.17770000000E+01 0. -1.
         15    1    1    2    0    0  0.52787588214E+01  0.29534434070E+01 -0.10202025430E+02  0.11992796777E+02  0.17770000000E+01 0.  1.
</event>
<event>
 6    1  0.1108180E-002  0.1833775E+03  0.7546771E-02  0.1067758E+00
        -11   -1    0    0    0    0  0.00000000000E+00  0.00000000000E+00  0.18250000000E+03  0.18250000000E+03  0.00000000000E+00 0. -1.
         11   -1    0    0    0    0 -0.00000000000E+00 -0.00000000000E+00 -0.18250000000E+03  0.18250000000E+03  0.00000000000E+00 0.  1.
        -11    1    1    2    0    0  0.27199401623E+01  0.23049202241E+01  0.18158749786E+03  0.18162249340E+03  0.00000000000E+00 0. -1.
         11    1    1    2    0    0 -0.62218250590E+01  0.26441555678E+01 -0.23535811772E+02  0.24487488673E+02  0.00000000000E+00 0.  1.
        -15    1    1    2    0    0  0.60743040811E+01 -0.90025486627E+01 -0.96372399680E+02  0.96998660824E+02  0.17770000000E+01 0. -1.
         15    1    1    2    0    0 -0.25724191845E+01  0.40534728708E+01 -0.61679286407E+02  0.61891357098E+02  0.17770000000E+01 0.  1.
</event>
<event>
 6    1  0.1108180E-002  0.1835170E+03  0.7546771E-02  0.1067648E+00
        -11   -1    0    0    0    0  0.00000000000E+00  0.00000000000E+00  0.18250000000E+03  0.18250000000E+03  0.00000000000E+00 0. -1.
         11   -1    0    0    0    0 -0.00000000000E+00 -0.00000000000E+00 -0.18250000000E+03  0.18250000000E+03  0.00000000000E+00 0. -1.
        -11    1    1    2    0    0  0.17169096690E+01 -0.19462793183E+01  0.18146446763E+03  0.18148302619E+03  0.00000000000E+00 0. -1.
         11    1    1    2    0    0  0.27139822280E+01  0.94881706114E+00 -0.13921733081E+03  0.13924701487E+03  0.00000000000E+00 0. -1.
        -15    1    1    2    0    0 -0.52322695773E+01  0.29020504469E+01 -0.40618164160E+02  0.41094908814E+02  0.17770000000E+01 0. -1.
         15    1    1    2    0    0  0.80137768031E+00 -0.19045881897E+01 -0.16289726612E+01  0.31750501240E+01  0.17770000000E+01 0.  1.
</event>
<event>
 6    1  0.1108180E-002  0.1825836E+03  0.7546771E-02  0.1068388E+00
        -11   -1    0    0    0    0  0.00000000000E+00  0.00000000000E+00  0.18250000000E+03  0.18250000000E+03  0.00000000000E+00 0. -1.
         11   -1    0    0    0    0 -0.00000000000E+00 -0.00000000000E+00 -0.18250000000E+03  0.18250000000E+03  0.00000000000E+00 0.  1.
        -11    1    1    2    0    0  0.44393876077E+00  0.37329917792E+00  0.11910660507E+01  0.13247913937E+01  0.00000000000E+00 0. -1.
         11    1    1    2    0    0 -0.54471177582E+01  0.87282204376E+00 -0.18160471361E+03  0.18168848317E+03  0.00000000000E+00 0.  1.
        -15    1    1    2    0    0  0.77816461651E+01 -0.56154936692E+00  0.20050185764E+02  0.21587890885E+02  0.17770000000E+01 0. -1.
         15    1    1    2    0    0 -0.27784671676E+01 -0.68457185476E+00  0.16036346180E+03  0.16039883455E+03  0.17770000000E+01 0. -1.
</event>
<event>
 6    1  0.1108180E-002  0.1846373E+03  0.7546771E-02  0.1066766E+00
        -11   -1    0    0    0    0  0.00000000000E+00  0.00000000000E+00  0.18250000000E+03  0.18250000000E+03  0.00000000000E+00 0.  1.
         11   -1    0    0    0    0 -0.00000000000E+00 -0.00000000000E+00 -0.18250000000E+03  0.18250000000E+03  0.00000000000E+00 0. -1.
        -11    1    1    2    0    0 -0.18834497999E+01 -0.14452311594E+01  0.13878139706E+03  0.13880170117E+03  0.00000000000E+00 0.  1.
         11    1    1    2    0    0  0.22730057104E+01 -0.32739116071E+01 -0.18031867475E+03  0.18036271653E+03  0.00000000000E+00 0. -1.
        -15    1    1    2    0    0  0.11252830430E+01  0.20007634513E+01  0.42107041555E+02  0.42206989869E+02  0.17770000000E+01 0. -1.
         15    1    1    2    0    0 -0.15148389535E+01  0.27183793152E+01 -0.56976387021E+00  0.36285924301E+01  0.17770000000E+01 0.  1.
</event>
<event>
 6    1  0.1108180E-002  0.1877755E+03  0.7546771E-02  0.1064331E+00
        -11   -1    0    0    0    0  0.00000000000E+00  0.00000000000E+00  0.18250000000E+03  0.18250000000E+03  0.00000000000E+00 0. -1.
         11   -1    0    0    0    0 -0.00000000000E+00 -0.00000000000E+00 -0.18250000000E+03  0.18250000000E+03  0.00000000000E+00 0.  1.
        -11    1    1    2    0    0  0.57286372637E+00  0.28107543419E+01  0.17720132471E+03  0.17722454117E+03  0.00000000000E+00 0. -1.
         11    1    1    2    0    0  0.24548202220E+01  0.59672974380E+01 -0.16027257534E+03  0.16040241016E+03  0.00000000000E+00 0.  1.
        -15    1    1    2    0    0 -0.84448091375E+01  0.12939265116E+01 -0.29199154718E+01  0.92017760540E+01  0.17770000000E+01 0. -1.
         15    1    1    2    0    0  0.54171251891E+01 -0.10071978291E+02 -0.14008833904E+02  0.18171272613E+02  0.17770000000E+01 0.  1.
</event>
<event>
 6    1  0.1108180E-002  0.1885723E+03  0.7546771E-02  0.1063721E+00
        -11   -1    0    0    0    0  0.00000000000E+00  0.00000000000E+00  0.18250000000E+03  0.18250000000E+03  0.00000000000E+00 0. -1.
         11   -1    0    0    0    0 -0.00000000000E+00 -0.00000000000E+00 -0.18250000000E+03  0.18250000000E+03  0.00000000000E+00 0.  1.
        -11    1    1    2    0    0  0.61973400251E+01  0.18813479045E+01  0.16524620835E+03  0.16537308084E+03  0.00000000000E+00 0. -1.
         11    1    1    2    0    0 -0.22392046623E+01  0.46653585410E+01 -0.17635174893E+03  0.17642765928E+03  0.00000000000E+00 0.  1.
        -15    1    1    2    0    0 -0.71690245959E+01 -0.64047808600E+01 -0.16598353560E+01  0.99160936830E+01  0.17770000000E+01 0.  1.
         15    1    1    2    0    0  0.32108892331E+01 -0.14192558550E+00  0.12765375932E+02  0.13283166197E+02  0.17770000000E+01 0. -1.
</event>
<event>
 6    1  0.1108180E-002  0.1868480E+03  0.7546771E-02  0.1065046E+00
        -11   -1    0    0    0    0  0.00000000000E+00  0.00000000000E+00  0.18250000000E+03  0.18250000000E+03  0.00000000000E+00 0. -1.
         11   -1    0    0    0    0 -0.00000000000E+00 -0.00000000000E+00 -0.18250000000E+03  0.18250000000E+03  0.00000000000E+00 0. -1.
        -11    1    1    2    0    0  0.10605798791E+01  0.18758964273E+00  0.35874134509E+02  0.35890298778E+02  0.00000000000E+00 0. -1.
         11    1    1    2    0    0 -0.12875714724E+02  0.19175507769E+01 -0.17767577830E+03  0.17815202280E+03  0.00000000000E+00 0. -1.
        -15    1    1    2    0    0 -0.17695297057E+00  0.25957960956E+01  0.13709238297E+03  0.13712858443E+03  0.17770000000E+01 0. -1.
         15    1    1    2    0    0  0.11992087816E+02 -0.47009365152E+01  0.47092608254E+01  0.13829093998E+02  0.17770000000E+01 0. -1.
</event>
<event>
 6    1  0.1108180E-002  0.1831001E+03  0.7546771E-02  0.1067978E+00
        -11   -1    0    0    0    0  0.00000000000E+00  0.00000000000E+00  0.18250000000E+03  0.18250000000E+03  0.00000000000E+00 0.  1.
         11   -1    0    0    0    0 -0.00000000000E+00 -0.00000000000E+00 -0.18250000000E+03  0.18250000000E+03  0.00000000000E+00 0.  1.
        -11    1    1    2    0    0 -0.30848543362E+01 -0.52634375202E+00  0.10376709600E+03  0.10381427443E+03  0.00000000000E+00 0.  1.
         11    1    1    2    0    0 -0.15521487821E+01 -0.37997871456E+01 -0.18185357418E+03  0.18189989002E+03  0.00000000000E+00 0.  1.
        -15    1    1    2    0    0  0.11134269036E+01  0.77852419898E+00  0.19583632475E+01  0.29730010103E+01  0.17770000000E+01 0.  1.
         15    1    1    2    0    0  0.35235762146E+01  0.35476066987E+01  0.76128114934E+02  0.76312834537E+02  0.17770000000E+01 0.  1.
</event>
<event>
 6    1  0.1569592E-002  0.1841735E+03  0.7546771E-02  0.1067130E+00
        -11   -1    0    0    0    0  0.00000000000E+00  0.00000000000E+00  0.18250000000E+03  0.18250000000E+03  0.00000000000E+00 0.  1.
         11   -1    0    0    0    0 -0.00000000000E+00 -0.00000000000E+00 -0.18250000000E+03  0.18250000000E+03  0.00000000000E+00 0. -1.
        -11    1    1    2    0    0  0.37413113158E+01  0.56287568046E+01  0.18070019018E+03  0.18082654408E+03  0.00000000000E+00 0.  1.
         11    1    1    2    0    0  0.50700766257E+00  0.11789561388E+01 -0.56199455840E+02  0.56214107047E+02  0.00000000000E+00 0. -1.
        -15    1    1    2    0    0 -0.53120226120E+00 -0.12024401085E+01 -0.11918196797E+03  0.11920246330E+03  0.17770000000E+01 0. -1.
         15    1    1    2    0    0 -0.37171167172E+01 -0.56052728349E+01 -0.53187663705E+01  0.87568855735E+01  0.17770000000E+01 0. -1.
</event>
<event>
 6    1  0.1108180E-002  0.1851503E+03  0.7546771E-02  0.1066364E+00
        -11   -1    0    0    0    0  0.00000000000E+00  0.00000000000E+00  0.18250000000E+03  0.18250000000E+03  0.00000000000E+00 0.  1.
         11   -1    0    0    0    0 -0.00000000000E+00 -0.00000000000E+00 -0.18250000000E+03  0.18250000000E+03  0.00000000000E+00 0. -1.
        -11    1    1    2    0    0 -0.29230322811E+01 -0.10129010090E+01  0.15056669882E+03  0.15059847569E+03  0.00000000000E+00 0.  1.
         11    1    1    2    0    0  0.19898567817E+01 -0.75610232948E+01 -0.17967963396E+03  0.17984965795E+03  0.00000000000E+00 0. -1.
        -15    1    1    2    0    0 -0.40916112127E+01 -0.27461471843E+01  0.13901608029E+02  0.14855808341E+02  0.17770000000E+01 0. -1.
         15    1    1    2    0    0  0.50247867122E+01  0.11320071488E+02  0.15211327110E+02  0.19696058018E+02  0.17770000000E+01 0.  1.
</event>
<event>
 6    1  0.1108180E-002  0.1828198E+03  0.7546771E-02  0.1068201E+00
        -11   -1    0    0    0    0  0.00000000000E+00  0.00000000000E+00  0.18250000000E+03  0.18250000000E+03  0.00000000000E+00 0.  1.
         11   -1    0    0    0    0 -0.00000000000E+00 -0.00000000000E+00 -0.18250000000E+03  0.18250000000E+03  0.00000000000E+00 0. -1.
        -11    1    1    2    0    0  0.69219726254E+01 -0.24524690461E+01  0.18203216328E+03  0.18218023158E+03  0.00000000000E+00 0.  1.
         11    1    1    2    0    0  0.20676531488E+01  0.36537448828E+00 -0.70074065514E+02  0.70105515801E+02  0.00000000000E+00 0. -1.
        -15    1    1    2    0    0 -0.60315630918E+01 -0.27697815123E+01 -0.49901012184E+02  0.50371819393E+02  0.17770000000E+01 0.  1.
         15    1    1    2    0    0 -0.29580626824E+01  0.48568760701E+01 -0.62057085586E+02  0.62342433225E+02  0.17770000000E+01 0. -1.
</event>
<event>
 6    1  0.1108180E-002  0.1748395E+03  0.7546771E-02  0.1074722E+00
        -11   -1    0    0    0    0  0.00000000000E+00  0.00000000000E+00  0.18250000000E+03  0.18250000000E+03  0.00000000000E+00 0. -1.
         11   -1    0    0    0    0 -0.00000000000E+00 -0.00000000000E+00 -0.18250000000E+03  0.18250000000E+03  0.00000000000E+00 0. -1.
        -11    1    1    2    0    0 -0.10094467598E+01 -0.24381142172E+01  0.17258839328E+03  0.17260856549E+03  0.00000000000E+00 0. -1.
         11    1    1    2    0    0  0.32262994560E+01 -0.69438089103E+01 -0.17706640873E+03  0.17723187803E+03  0.00000000000E+00 0. -1.
        -15    1    1    2    0    0  0.21444115303E+01  0.75961653147E+01  0.57970831589E+01  0.99530965257E+01  0.17770000000E+01 0.  1.
         15    1    1    2    0    0 -0.43612642265E+01  0.17857578128E+01 -0.13190677128E+01  0.52064599537E+01  0.17770000000E+01 0. -1.
</event>
<event>
 6    1  0.1108180E-002  0.1905355E+03  0.7546771E-02  0.1062233E+00
        -11   -1    0    0    0    0  0.00000000000E+00  0.00000000000E+00  0.18250000000E+03  0.18250000000E+03  0.00000000000E+00 0. -1.
         11   -1    0    0    0    0 -0.00000000000E+00 -0.00000000000E+00 -0.18250000000E+03  0.18250000000E+03  0.00000000000E+00 0. -1.
        -11    1    1    2    0    0 -0.94470363832E+00 -0.91374549167E+01  0.17422247215E+03  0.17446448162E+03  0.00000000000E+00 0. -1.
         11    1    1    2    0    0  0.72824803771E+00 -0.12818530685E+01 -0.10918086300E+03  0.10919081617E+03  0.00000000000E+00 0. -1.
        -15    1    1    2    0    0 -0.83558660019E+01  0.27258506772E+02 -0.47897289959E+02  0.55768761887E+02  0.17770000000E+01 0.  1.
         15    1    1    2    0    0  0.85723216025E+01 -0.16839198787E+02 -0.17144319192E+02  0.25575940315E+02  0.17770000000E+01 0. -1.
</event>
<event>
 6    1  0.1108180E-002  0.1829678E+03  0.7546771E-02  0.1068083E+00
        -11   -1    0    0    0    0  0.00000000000E+00  0.00000000000E+00  0.18250000000E+03  0.18250000000E+03  0.00000000000E+00 0.  1.
         11   -1    0    0    0    0 -0.00000000000E+00 -0.00000000000E+00 -0.18250000000E+03  0.18250000000E+03  0.00000000000E+00 0. -1.
        -11    1    1    2    0    0 -0.14617935047E+01  0.17275503256E+01  0.16618353052E+03  0.16619893828E+03  0.00000000000E+00 0.  1.
         11    1    1    2    0    0 -0.14230701128E+01 -0.19992698909E+01 -0.18201563493E+03  0.18203217728E+03  0.00000000000E+00 0. -1.
        -15    1    1    2    0    0  0.23091581476E+01 -0.77898958575E+00  0.61164345998E+01  0.68196434906E+01  0.17770000000E+01 0. -1.
         15    1    1    2    0    0  0.57570547003E+00  0.10507091510E+01  0.97156698099E+01  0.99492409441E+01  0.17770000000E+01 0.  1.
</event>
<event>
 6    1  0.1108180E-002  0.1838606E+03  0.7546771E-02  0.1067377E+00
        -11   -1    0    0    0    0  0.00000000000E+00  0.00000000000E+00  0.18250000000E+03  0.18250000000E+03  0.00000000000E+00 0.  1.
         11   -1    0    0    0    0 -0.00000000000E+00 -0.00000000000E+00 -0.18250000000E+03  0.18250000000E+03  0.00000000000E+00 0.  1.
        -11    1    1    2    0    0  0.46200037064E+00  0.71512177575E+01  0.18099761293E+03  0.18113941936E+03  0.00000000000E+00 0.  1.
         11    1    1    2    0    0 -0.28760097358E+01 -0.97652957853E+00 -0.95680739472E+02  0.95728934747E+02  0.00000000000E+00 0.  1.
        -15    1    1    2    0    0 -0.50720682482E+01  0.49034178946E+01 -0.16923278483E+02  0.18420761846E+02  0.17770000000E+01 0. -1.
         15    1    1    2    0    0  0.74860776133E+01 -0.11078106074E+02 -0.68393594974E+02  0.69710884047E+02  0.17770000000E+01 0.  1.
</event>
<event>
 6    1  0.1108180E-002  0.1845470E+03  0.7546771E-02  0.1066837E+00
        -11   -1    0    0    0    0  0.00000000000E+00  0.00000000000E+00  0.18250000000E+03  0.18250000000E+03  0.00000000000E+00 0. -1.
         11   -1    0    0    0    0 -0.00000000000E+00 -0.00000000000E+00 -0.18250000000E+03  0.18250000000E+03  0.00000000000E+00 0.  1.
        -11    1    1    2    0    0 -0.69147704995E+01  0.40514526914E+00  0.15254383292E+03  0.15270101229E+03  0.00000000000E+00 0. -1.
         11    1    1    2    0    0  0.46512717848E+01  0.17531646461E+01 -0.18038454123E+03  0.18045301502E+03  0.00000000000E+00 0.  1.
        -15    1    1    2    0    0 -0.47935730462E+01 -0.32573146858E+01  0.50289599452E+01  0.78763321820E+01  0.17770000000E+01 0.  1.
         15    1    1    2    0    0  0.70570717608E+01  0.10990047706E+01  0.22811748366E+02  0.23969640503E+02  0.17770000000E+01 0.  1.
</event>
<event>
 6    1  0.1108180E-002  0.1827921E+03  0.7546771E-02  0.1068223E+00
        -11   -1    0    0    0    0  0.00000000000E+00  0.00000000000E+00  0.18250000000E+03  0.18250000000E+03  0.00000000000E+00 0.  1.
         11   -1    0    0    0    0 -0.00000000000E+00 -0.00000000000E+00 -0.18250000000E+03  0.18250000000E+03  0.00000000000E+00 0. -1.
        -11    1    1    2    0    0  0.18442731159E+01  0.91771286993E+00  0.10771987510E+03  0.10773957040E+03  0.00000000000E+00 0.  1.
         11    1    1    2    0    0 -0.37969083569E+01  0.20525606888E+01 -0.18215681190E+03  0.18220794066E+03  0.00000000000E+00 0. -1.
        -15    1    1    2    0    0 -0.26246584459E+01 -0.17510801283E+00  0.14166947804E+02  0.14518251749E+02  0.17770000000E+01 0.  1.
         15    1    1    2    0    0  0.45772936869E+01 -0.27951655459E+01  0.60269989003E+02  0.60534237183E+02  0.17770000000E+01 0. -1.
</event>
<event>
 6    1  0.1108180E-002  0.1833712E+03  0.7546771E-02  0.1067763E+00
        -11   -1    0    0    0    0  0.00000000000E+00  0.00000000000E+00  0.18250000000E+03  0.18250000000E+03  0.00000000000E+00 0. -1.
         11   -1    0    0    0    0 -0.00000000000E+00 -0.00000000000E+00 -0.18250000000E+03  0.18250000000E+03  0.00000000000E+00 0. -1.
        -11    1    1    2    0    0  0.17869660151E+00 -0.17221334446E+01  0.64280389075E+02  0.64303702038E+02  0.00000000000E+00 0. -1.
         11    1    1    2    0    0 -0.11516768218E+02  0.89625725586E+01 -0.18104159548E+03  0.18162880540E+03  0.00000000000E+00 0. -1.
        -15    1    1    2    0    0 -0.36939316498E+01 -0.93583298829E+00  0.55202082305E+02  0.55361977334E+02  0.17770000000E+01 0. -1.
         15    1    1    2    0    0  0.15032003266E+02 -0.63046061257E+01  0.61559124104E+02  0.63705515224E+02  0.17770000000E+01 0. -1.
</event>
<event>
 6    1  0.1108180E-002  0.1867912E+03  0.7546771E-02  0.1065089E+00
        -11   -1    0    0    0    0  0.00000000000E+00  0.00000000000E+00  0.18250000000E+03  0.18250000000E+03  0.00000000000E+00 0.  1.
         11   -1    0    0    0    0 -0.00000000000E+00 -0.00000000000E+00 -0.18250000000E+03  0.18250000000E+03  0.00000000000E+00 0. -1.
        -11    1    1    2    0    0 -0.23256330023E+01 -0.12492970510E+01  0.17100624655E+03  0.17102662269E+03  0.00000000000E+00 0.  1.
         11    1    1    2    0    0  0.27914032428E+01  0.52489160585E+01 -0.17810963483E+03  0.17820882434E+03  0.00000000000E+00 0. -1.
        -15    1    1    2    0    0 -0.33131967828E+01 -0.60086758668E+01  0.89682254407E+01  0.11431021614E+02  0.17770000000E+01 0. -1.
         15    1    1    2    0    0  0.28474265423E+01  0.20090568593E+01 -0.18648371532E+01  0.43335313527E+01  0.17770000000E+01 0.  1.
</event>
<event>
 6    1  0.1108180E-002  0.1770052E+03  0.7546771E-02  0.1072915E+00
        -11   -1    0    0    0    0  0.00000000000E+00  0.00000000000E+00  0.18250000000E+03  0.18250000000E+03  0.00000000000E+00 0. -1.
         11   -1    0    0    0    0 -0.00000000000E+00 -0.00000000000E+00 -0.18250000000E+03  0.18250000000E+03  0.00000000000E+00 0.  1.
        -11    1    1    2    0    0  0.56348193198E-01 -0.41720452392E+01  0.17743165889E+03  0.17748071082E+03  0.00000000000E+00 0. -1.
         11    1    1    2    0    0  0.40100075540E+01  0.43205712683E+01 -0.17645604203E+03  0.17655447393E+03  0.00000000000E+00 0.  1.
        -15    1    1    2    0    0 -0.25528972200E+01  0.46218022349E+01 -0.33374936233E-01  0.55711024942E+01  0.17770000000E+01 0. -1.
         15    1    1    2    0    0 -0.15134585272E+01 -0.47703282641E+01 -0.94224191900E+00  0.53937127560E+01  0.17770000000E+01 0.  1.
</event>
<event>
 6    1  0.1108180E-002  0.1521605E+03  0.7546771E-02  0.1095551E+00
        -11   -1    0    0    0    0  0.00000000000E+00  0.00000000000E+00  0.18250000000E+03  0.18250000000E+03  0.00000000000E+00 0. -1.
         11   -1    0    0    0    0 -0.00000000000E+00 -0.00000000000E+00 -0.18250000000E+03  0.18250000000E+03  0.00000000000E+00 0.  1.
        -11    1    1    2    0    0  0.97905453736E+01 -0.56355330494E+01  0.14779885909E+03  0.14822994556E+03  0.00000000000E+00 0. -1.
         11    1    1    2    0    0  0.48737680045E-01  0.34325121561E+02 -0.15387715694E+03  0.15765911256E+03  0.00000000000E+00 0.  1.
        -15    1    1    2    0    0  0.18953381939E+01 -0.34726662179E+02 -0.11844669384E+02  0.36782975610E+02  0.17770000000E+01 0. -1.
         15    1    1    2    0    0 -0.11734621248E+02  0.60370736672E+01  0.17922967234E+02  0.22327966270E+02  0.17770000000E+01 0.  1.
</event>
<event>
 6    1  0.1108180E-002  0.1840627E+03  0.7546771E-02  0.1067218E+00
        -11   -1    0    0    0    0  0.00000000000E+00  0.00000000000E+00  0.18250000000E+03  0.18250000000E+03  0.00000000000E+00 0.  1.
         11   -1    0    0    0    0 -0.00000000000E+00 -0.00000000000E+00 -0.18250000000E+03  0.18250000000E+03  0.00000000000E+00 0.  1.
        -11    1    1    2    0    0 -0.29131355361E+01 -0.13012000344E+01  0.18090916936E+03  0.18093730140E+03  0.00000000000E+00 0.  1.
         11    1    1    2    0    0  0.69274515186E+01  0.28007514191E+01 -0.14748899244E+03  0.14767815236E+03  0.00000000000E+00 0.  1.
        -15    1    1    2    0    0  0.32602900409E+01 -0.46593221805E+01 -0.10592810795E+02  0.12153359366E+02  0.17770000000E+01 0. -1.
         15    1    1    2    0    0 -0.72746060233E+01  0.31597707957E+01 -0.22827366122E+02  0.24231186874E+02  0.17770000000E+01 0.  1.
</event>
<event>
 6    1  0.1108180E-002  0.1818596E+03  0.7546771E-02  0.1068966E+00
        -11   -1    0    0    0    0  0.00000000000E+00  0.00000000000E+00  0.18250000000E+03  0.18250000000E+03  0.00000000000E+00 0.  1.
         11   -1    0    0    0    0 -0.00000000000E+00 -0.00000000000E+00 -0.18250000000E+03  0.18250000000E+03  0.00000000000E+00 0. -1.
        -11    1    1    2    0    0  0.61202426202E+01  0.81987436935E+00  0.18137649317E+03  0.18148157437E+03  0.00000000000E+00 0.  1.
         11    1    1    2    0    0 -0.77294321473E+00 -0.74458249926E+00 -0.29335949701E+01  0.31237515522E+01  0.00000000000E+00 0. -1.
        -15    1    1    2    0    0 -0.10126473323E+02  0.70449867898E+01 -0.45877091886E+02  0.47539905235E+02  0.17770000000E+01 0. -1.
         15    1    1    2    0    0  0.47791739178E+01 -0.71202786599E+01 -0.13256580631E+03  0.13285476884E+03  0.17770000000E+01 0.  1.
</event>
<event>
 6    1  0.1108180E-002  0.1830884E+03  0.7546771E-02  0.1067987E+00
        -11   -1    0    0    0    0  0.00000000000E+00  0.00000000000E+00  0.18250000000E+03  0.18250000000E+03  0.00000000000E+00 0.  1.
         11   -1    0    0    0    0 -0.00000000000E+00 -0.00000000000E+00 -0.18250000000E+03  0.18250000000E+03  0.00000000000E+00 0. -1.
        -11    1    1    2    0    0  0.22385285117E+00  0.11519134722E+01  0.78052782491E+02  0.78061603041E+02  0.00000000000E+00 0.  1.
         11    1    1    2    0    0 -0.34212124716E+01 -0.32963588460E+01 -0.18184952159E+03  0.18191156967E+03  0.00000000000E+00 0. -1.
        -15    1    1    2    0    0  0.47728465091E+01  0.67460004721E-01  0.99823371862E+02  0.99953228630E+02  0.17770000000E+01 0.  1.
         15    1    1    2    0    0 -0.15754868887E+01  0.20769853690E+01  0.39733672384E+01  0.50735986608E+01  0.17770000000E+01 0. -1.
</event>
<event>
 6    1  0.1108180E-002  0.1831046E+03  0.7546771E-02  0.1067975E+00
        -11   -1    0    0    0    0  0.00000000000E+00  0.00000000000E+00  0.18250000000E+03  0.18250000000E+03  0.00000000000E+00 0. -1.
         11   -1    0    0    0    0 -0.00000000000E+00 -0.00000000000E+00 -0.18250000000E+03  0.18250000000E+03  0.00000000000E+00 0.  1.
        -11    1    1    2    0    0  0.13405452365E+00 -0.38009242202E+01  0.13727391452E+03  0.13732659103E+03  0.00000000000E+00 0. -1.
         11    1    1    2    0    0  0.34385648987E+01  0.61525514822E+01 -0.18175880145E+03  0.18189540820E+03  0.00000000000E+00 0.  1.
        -15    1    1    2    0    0 -0.59166462630E+01  0.10685485504E+01  0.27333077238E+02  0.28042883933E+02  0.17770000000E+01 0. -1.
         15    1    1    2    0    0  0.23440268406E+01 -0.34201758124E+01  0.17151809694E+02  0.17735116836E+02  0.17770000000E+01 0.  1.
</event>
<event>
 6    1  0.1108180E-002  0.1834239E+03  0.7546771E-02  0.1067722E+00
        -11   -1    0    0    0    0  0.00000000000E+00  0.00000000000E+00  0.18250000000E+03  0.18250000000E+03  0.00000000000E+00 0. -1.
         11   -1    0    0    0    0 -0.00000000000E+00 -0.00000000000E+00 -0.18250000000E+03  0.18250000000E+03  0.00000000000E+00 0. -1.
        -11    1    1    2    0    0 -0.57160324467E+01 -0.27669280908E+01  0.48326124463E+02  0.48741596441E+02  0.00000000000E+00 0. -1.
         11    1    1    2    0    0  0.44604379233E+01  0.45886529433E+01 -0.18146330939E+03  0.18157611048E+03  0.00000000000E+00 0. -1.
        -15    1    1    2    0    0  0.30285495699E+01  0.40118271824E+01  0.11971339163E+03  0.11983205220E+03  0.17770000000E+01 0. -1.
         15    1    1    2    0    0 -0.17729550465E+01 -0.58335520349E+01  0.13423793292E+02  0.14850240883E+02  0.17770000000E+01 0.  1.
</event>
<event>
 6    1  0.1108180E-002  0.1832288E+03  0.7546771E-02  0.1067876E+00
        -11   -1    0    0    0    0  0.00000000000E+00  0.00000000000E+00  0.18250000000E+03  0.18250000000E+03  0.00000000000E+00 0.  1.
         11   -1    0    0    0    0 -0.00000000000E+00 -0.00000000000E+00 -0.18250000000E+03  0.18250000000E+03  0.00000000000E+00 0. -1.
        -11    1    1    2    0    0  0.12604385395E+01 -0.22460690573E+01  0.15651537156E+03  0.15653656144E+03  0.00000000000E+00 0.  1.
         11    1    1    2    0    0  0.36875002618E+00  0.36309435246E+01 -0.18173453443E+03  0.18177117685E+03  0.00000000000E+00 0. -1.
        -15    1    1    2    0    0  0.75776299983E+00 -0.30855655901E+01  0.50012576919E+01  0.61858893682E+01  0.17770000000E+01 0. -1.
         15    1    1    2    0    0 -0.23869515655E+01  0.17006911227E+01  0.20217905177E+02  0.20506372347E+02  0.17770000000E+01 0.  1.
</event>
<event>
 6    1  0.1108180E-002  0.1829361E+03  0.7546771E-02  0.1068108E+00
        -11   -1    0    0    0    0  0.00000000000E+00  0.00000000000E+00  0.18250000000E+03  0.18250000000E+03  0.00000000000E+00 0. -1.
         11   -1    0    0    0    0 -0.00000000000E+00 -0.00000000000E+00 -0.18250000000E+03  0.18250000000E+03  0.00000000000E+00 0.  1.
        -11    1    1    2    0    0 -0.14519998192E+00  0.20953314666E+01  0.19504866945E+02  0.19617628081E+02  0.00000000000E+00 0. -1.
         11    1    1    2    0    0 -0.43608694306E+01 -0.68460255306E+01 -0.18188283710E+03  0.18206386704E+03  0.00000000000E+00 0.  1.
        -15    1    1    2    0    0  0.10466400232E+02  0.29538609537E+01  0.10477156409E+03  0.10534946226E+03  0.17770000000E+01 0. -1.
         15    1    1    2    0    0 -0.59603308197E+01  0.17968331103E+01  0.57606406070E+02  0.57969042617E+02  0.17770000000E+01 0.  1.
</event>
<event>
 6    1  0.1108180E-002  0.1862825E+03  0.7546771E-02  0.1065483E+00
        -11   -1    0    0    0    0  0.00000000000E+00  0.00000000000E+00  0.18250000000E+03  0.18250000000E+03  0.00000000000E+00 0. -1.
         11   -1    0    0    0    0 -0.00000000000E+00 -0.00000000000E+00 -0.18250000000E+03  0.18250000000E+03  0.00000000000E+00 0.  1.
        -11    1    1    2    0    0  0.24911088992E+01  0.16983446674E+01  0.16442798437E+03  0.16445562332E+03  0.00000000000E+00 0. -1.
         11    1    1    2    0    0 -0.30993087916E+01  0.36235822106E+01 -0.17865391210E+03  0.17871753235E+03  0.00000000000E+00 0.  1.
        -15    1    1    2    0    0  0.84651988783E+00 -0.73247206200E+01  0.24361833316E+00  0.75884917456E+01  0.17770000000E+01 0. -1.
         15    1    1    2    0    0 -0.23831999549E+00  0.20027937419E+01  0.13982309393E+02  0.14238352579E+02  0.17770000000E+01 0.  1.
</event>
<event>
 6    1  0.1108180E-002  0.1852810E+03  0.7546771E-02  0.1066262E+00
        -11   -1    0    0    0    0  0.00000000000E+00  0.00000000000E+00  0.18250000000E+03  0.18250000000E+03  0.00000000000E+00 0. -1.
         11   -1    0    0    0    0 -0.00000000000E+00 -0.00000000000E+00 -0.18250000000E+03  0.18250000000E+03  0.00000000000E+00 0.  1.
        -11    1    1    2    0    0 -0.22575178364E+01  0.32964530405E+01  0.15053518711E+03  0.15058819856E+03  0.00000000000E+00 0. -1.
         11    1    1    2    0    0  0.67877945104E+01 -0.10068461509E+02 -0.17930835437E+03  0.17971904189E+03  0.00000000000E+00 0.  1.
        -15    1    1    2    0    0 -0.93157462101E+01  0.94324402336E+01  0.17412439656E+02  0.21956885936E+02  0.17770000000E+01 0. -1.
         15    1    1    2    0    0  0.47854695361E+01 -0.26604317656E+01  0.11360727607E+02  0.12735873610E+02  0.17770000000E+01 0. -1.
</event>
<event>
 6    1  0.1108180E-002  0.1858225E+03  0.7546771E-02  0.1065840E+00
        -11   -1    0    0    0    0  0.00000000000E+00  0.00000000000E+00  0.18250000000E+03  0.18250000000E+03  0.00000000000E+00 0. -1.
         11   -1    0    0    0    0 -0.00000000000E+00 -0.00000000000E+00 -0.18250000000E+03  0.18250000000E+03  0.00000000000E+00 0. -1.
        -11    1    1    2    0    0  0.65980198855E+01  0.63140447741E+00  0.17905481871E+03  0.17917745572E+03  0.00000000000E+00 0. -1.
         11    1    1    2    0    0  0.17074666724E+01 -0.31587286227E+01 -0.13406551109E+03  0.13411358721E+03  0.00000000000E+00 0. -1.
        -15    1    1    2    0    0 -0.14830847154E+02  0.61583608198E+01 -0.20841940396E+02  0.26370886291E+02  0.17770000000E+01 0.  1.
         15    1    1    2    0    0  0.65253605963E+01 -0.36310366745E+01 -0.24147367218E+02  0.25338070780E+02  0.17770000000E+01 0. -1.
</event>
<event>
 6    1  0.1108180E-002  0.1851082E+03  0.7546771E-02  0.1066397E+00
        -11   -1    0    0    0    0  0.00000000000E+00  0.00000000000E+00  0.18250000000E+03  0.18250000000E+03  0.00000000000E+00 0. -1.
         11   -1    0    0    0    0 -0.00000000000E+00 -0.00000000000E+00 -0.18250000000E+03  0.18250000000E+03  0.00000000000E+00 0. -1.
        -11    1    1    2    0    0  0.68823165801E+01 -0.45412975708E+01  0.17970274535E+03  0.17989181847E+03  0.00000000000E+00 0. -1.
         11    1    1    2    0    0  0.39822685958E+01 -0.24595571487E+01 -0.11725931445E+03  0.11735269366E+03  0.00000000000E+00 0. -1.
        -15    1    1    2    0    0 -0.98281492795E+01  0.25951854511E+00 -0.78418428805E+01  0.12700869927E+02  0.17770000000E+01 0.  1.
         15    1    1    2    0    0 -0.10364358964E+01  0.67413361744E+01 -0.54601588027E+02  0.55054617943E+02  0.17770000000E+01 0. -1.
</event>
<event>
 6    1  0.1108180E-002  0.2266697E+03  0.7546771E-02  0.1037887E+00
        -11   -1    0    0    0    0  0.00000000000E+00  0.00000000000E+00  0.18250000000E+03  0.18250000000E+03  0.00000000000E+00 0. -1.
         11   -1    0    0    0    0 -0.00000000000E+00 -0.00000000000E+00 -0.18250000000E+03  0.18250000000E+03  0.00000000000E+00 0.  1.
        -11    1    1    2    0    0 -0.38608303160E+01  0.94637339972E+00  0.13827312783E+03  0.13833025523E+03  0.00000000000E+00 0. -1.
         11    1    1    2    0    0  0.97020529868E+01  0.63882582052E+01 -0.12314434028E+03  0.12369101915E+03  0.00000000000E+00 0.  1.
        -15    1    1    2    0    0  0.20206152514E+02 -0.19724516341E+02 -0.50145787669E+02  0.57576930226E+02  0.17770000000E+01 0.  1.
         15    1    1    2    0    0 -0.26047375185E+02  0.12389884736E+02  0.35017000122E+02  0.45401795387E+02  0.17770000000E+01 0. -1.
</event>
<event>
 6    1  0.1108180E-002  0.1838018E+03  0.7546771E-02  0.1067423E+00
        -11   -1    0    0    0    0  0.00000000000E+00  0.00000000000E+00  0.18250000000E+03  0.18250000000E+03  0.00000000000E+00 0.  1.
         11   -1    0    0    0    0 -0.00000000000E+00 -0.00000000000E+00 -0.18250000000E+03  0.18250000000E+03  0.00000000000E+00 0. -1.
        -11    1    1    2    0    0  0.48419963309E+01  0.90135999690E+00  0.18113123837E+03  0.18119818678E+03  0.00000000000E+00 0.  1.
         11    1    1    2    0    0  0.10744814943E+01  0.43326036784E+01 -0.12155363264E+03  0.12163556870E+03  0.00000000000E+00 0. -1.
        -15    1    1    2    0    0 -0.55314764381E+01  0.11397884333E+01 -0.69807285306E+01  0.91533954943E+01  0.17770000000E+01 0.  1.
         15    1    1    2    0    0 -0.38500138708E+00 -0.63737521086E+01 -0.52596877202E+02  0.53012849032E+02  0.17770000000E+01 0.  1.
</event>
<event>
 6    1  0.1108180E-002  0.1832176E+03  0.7546771E-02  0.1067885E+00
        -11   -1    0    0    0    0  0.00000000000E+00  0.00000000000E+00  0.18250000000E+03  0.18250000000E+03  0.00000000000E+00 0. -1.
         11   -1    0    0    0    0 -0.00000000000E+00 -0.00000000000E+00 -0.18250000000E+03  0.18250000000E+03  0.00000000000E+00 0. -1.
        -11    1    1    2    0    0 -0.63041480987E-01  0.27943832327E+01  0.37157981616E+02  0.37262959486E+02  0.00000000000E+00 0. -1.
         11    1    1    2    0    0 -0.43472084717E+00 -0.27492505834E+01 -0.18176108371E+03  0.18178239440E+03  0.00000000000E+00 0. -1.
        -15    1    1    2    0    0  0.31475166453E+01  0.10485139891E+01  0.14088306657E+03  0.14093332614E+03  0.17770000000E+01 0. -1.
         15    1    1    2    0    0 -0.26497543172E+01 -0.10936466384E+01  0.37200355326E+01  0.50213199733E+01  0.17770000000E+01 0.  1.
</event>
<event>
 6    1  0.1108180E-002  0.1868325E+03  0.7546771E-02  0.1065058E+00
        -11   -1    0    0    0    0  0.00000000000E+00  0.00000000000E+00  0.18250000000E+03  0.18250000000E+03  0.00000000000E+00 0. -1.
         11   -1    0    0    0    0 -0.00000000000E+00 -0.00000000000E+00 -0.18250000000E+03  0.18250000000E+03  0.00000000000E+00 0. -1.
        -11    1    1    2    0    0 -0.22144269724E+01  0.38844279371E+01  0.17414176652E+03  0.17419915991E+03  0.00000000000E+00 0. -1.
         11    1    1    2    0    0  0.44919641113E+01 -0.85300118040E+01 -0.17790649250E+03  0.17816750241E+03  0.00000000000E+00 0. -1.
        -15    1    1    2    0    0  0.74823504268E-01 -0.19240261028E+01  0.46910903236E+01  0.53732236530E+01  0.17770000000E+01 0. -1.
         15    1    1    2    0    0 -0.23523606432E+01  0.65696099697E+01 -0.92636434540E+00  0.72601140246E+01  0.17770000000E+01 0.  1.
</event>
<event>
 6    1  0.1108180E-002  0.1865844E+03  0.7546771E-02  0.1065249E+00
        -11   -1    0    0    0    0  0.00000000000E+00  0.00000000000E+00  0.18250000000E+03  0.18250000000E+03  0.00000000000E+00 0. -1.
         11   -1    0    0    0    0 -0.00000000000E+00 -0.00000000000E+00 -0.18250000000E+03  0.18250000000E+03  0.00000000000E+00 0.  1.
        -11    1    1    2    0    0 -0.36745016601E+01  0.25632183606E+01  0.17835930361E+03  0.17841556332E+03  0.00000000000E+00 0. -1.
         11    1    1    2    0    0  0.47336200000E+01  0.52699393969E+01 -0.13699485841E+03  0.13717787959E+03  0.00000000000E+00 0.  1.
        -15    1    1    2    0    0  0.26414217792E+01 -0.53738118986E+01  0.13786991620E+01  0.63963664464E+01  0.17770000000E+01 0. -1.
         15    1    1    2    0    0 -0.37005401191E+01 -0.24593458589E+01 -0.42743144366E+02  0.43010190635E+02  0.17770000000E+01 0.  1.
</event>
<event>
 6    1  0.1108180E-002  0.1834275E+03  0.7546771E-02  0.1067719E+00
        -11   -1    0    0    0    0  0.00000000000E+00  0.00000000000E+00  0.18250000000E+03  0.18250000000E+03  0.00000000000E+00 0. -1.
         11   -1    0    0    0    0 -0.00000000000E+00 -0.00000000000E+00 -0.18250000000E+03  0.18250000000E+03  0.00000000000E+00 0.  1.
        -11    1    1    2    0    0 -0.30454762474E+01 -0.56178766786E+01  0.18145998402E+03  0.18157246835E+03  0.00000000000E+00 0. -1.
         11    1    1    2    0    0  0.98432436662E+00  0.32387711064E+01 -0.61273943626E+02  0.61367374884E+02  0.00000000000E+00 0.  1.
        -15    1    1    2    0    0  0.85036972659E+01  0.61038415453E+01 -0.98371418073E+02  0.98942727734E+02  0.17770000000E+01 0.  1.
         15    1    1    2    0    0 -0.64425453851E+01 -0.37247359731E+01 -0.21814622318E+02  0.23117429030E+02  0.17770000000E+01 0. -1.
</event>
<event>
 6    1  0.1108180E-002  0.1858476E+03  0.7546771E-02  0.1065821E+00
        -11   -1    0    0    0    0  0.00000000000E+00  0.00000000000E+00  0.18250000000E+03  0.18250000000E+03  0.00000000000E+00 0. -1.
         11   -1    0    0    0    0 -0.00000000000E+00 -0.00000000000E+00 -0.18250000000E+03  0.18250000000E+03  0.00000000000E+00 0. -1.
        -11    1    1    2    0    0 -0.26081446420E+01 -0.27259868255E+01  0.17911262862E+03  0.17915235738E+03  0.00000000000E+00 0. -1.
         11    1    1    2    0    0 -0.10223308585E+01 -0.63334672782E+01 -0.10556525495E+03  0.10576001617E+03  0.00000000000E+00 0. -1.
        -15    1    1    2    0    0 -0.34716619411E+01  0.76472553072E+01 -0.71952703618E+02  0.72462971491E+02  0.17770000000E+01 0. -1.
         15    1    1    2    0    0  0.71021374416E+01  0.14121987965E+01 -0.15946700558E+01  0.76246549606E+01  0.17770000000E+01 0.  1.
</event>
<event>
 6    1  0.1108180E-002  0.1835126E+03  0.7546771E-02  0.1067652E+00
        -11   -1    0    0    0    0  0.00000000000E+00  0.00000000000E+00  0.18250000000E+03  0.18250000000E+03  0.00000000000E+00 0. -1.
         11   -1    0    0    0    0 -0.00000000000E+00 -0.00000000000E+00 -0.18250000000E+03  0.18250000000E+03  0.00000000000E+00 0.  1.
        -11    1    1    2    0    0 -0.35906187038E+01  0.38101575025E+01  0.18141190092E+03  0.18148743107E+03  0.00000000000E+00 0. -1.
         11    1    1    2    0    0 -0.15109686127E+01 -0.70531951270E+01 -0.12136747259E+03  0.12158163509E+03  0.00000000000E+00 0.  1.
        -15    1    1    2    0    0  0.11620009940E+01  0.12987052234E+01 -0.54823375142E+02  0.54879842133E+02  0.17770000000E+01 0.  1.
         15    1    1    2    0    0  0.39395863225E+01  0.19443324011E+01 -0.52210531810E+01  0.70510917025E+01  0.17770000000E+01 0. -1.
</event>
<event>
 6    1  0.1108180E-002  0.1888854E+03  0.7546771E-02  0.1063483E+00
        -11   -1    0    0    0    0  0.00000000000E+00  0.00000000000E+00  0.18250000000E+03  0.18250000000E+03  0.00000000000E+00 0.  1.
         11   -1    0    0    0    0 -0.00000000000E+00 -0.00000000000E+00 -0.18250000000E+03  0.18250000000E+03  0.00000000000E+00 0. -1.
        -11    1    1    2    0    0  0.32077318236E+01  0.10949968978E+01  0.17608202863E+03  0.17611464837E+03  0.00000000000E+00 0.  1.
         11    1    1    2    0    0  0.33217899249E+01 -0.66480849738E+01 -0.16618453120E+03  0.16635062288E+03  0.00000000000E+00 0. -1.
        -15    1    1    2    0    0 -0.71239052416E+01  0.11411541082E+02 -0.90861858952E+01  0.16330639880E+02  0.17770000000E+01 0.  1.
         15    1    1    2    0    0  0.59438349301E+00 -0.58584530063E+01 -0.81131154285E+00  0.62040888762E+01  0.17770000000E+01 0. -1.
</event>
<event>
 6    1  0.1108180E-002  0.1756431E+03  0.7546771E-02  0.1074048E+00
        -11   -1    0    0    0    0  0.00000000000E+00  0.00000000000E+00  0.18250000000E+03  0.18250000000E+03  0.00000000000E+00 0. -1.
         11   -1    0    0    0    0 -0.00000000000E+00 -0.00000000000E+00 -0.18250000000E+03  0.18250000000E+03  0.00000000000E+00 0.  1.
        -11    1    1    2    0    0 -0.12155052903E+01 -0.21326763794E+01  0.17507421980E+03  0.17509142812E+03  0.00000000000E+00 0. -1.
         11    1    1    2    0    0  0.15565603179E+01  0.42131639896E+01 -0.17614549891E+03  0.17620275372E+03  0.00000000000E+00 0.  1.
        -15    1    1    2    0    0 -0.29464688610E+01  0.17926214335E+01  0.57006555946E+01  0.68956778899E+01  0.17770000000E+01 0. -1.
         15    1    1    2    0    0  0.26054138335E+01 -0.38731090437E+01 -0.46293764867E+01  0.68101402749E+01  0.17770000000E+01 0.  1.
</event>
<event>
 6    1  0.1108180E-002  0.1743166E+03  0.7546771E-02  0.1075162E+00
        -11   -1    0    0    0    0  0.00000000000E+00  0.00000000000E+00  0.18250000000E+03  0.18250000000E+03  0.00000000000E+00 0.  1.
         11   -1    0    0    0    0 -0.00000000000E+00 -0.00000000000E+00 -0.18250000000E+03  0.18250000000E+03  0.00000000000E+00 0.  1.
        -11    1    1    2    0    0  0.45186342576E+01 -0.44854993644E+01  0.17566120321E+03  0.17577655154E+03  0.00000000000E+00 0.  1.
         11    1    1    2    0    0  0.20416193192E+01 -0.27253185012E+01 -0.17296969283E+03  0.17300320866E+03  0.00000000000E+00 0.  1.
        -15    1    1    2    0    0 -0.23672009152E+01  0.98146680316E+01 -0.36612022695E+01  0.10885471042E+02  0.17770000000E+01 0.  1.
         15    1    1    2    0    0 -0.41930526615E+01 -0.26038501659E+01  0.96969188745E+00  0.53347687547E+01  0.17770000000E+01 0. -1.
</event>
<event>
 6    1  0.1108180E-002  0.1845618E+03  0.7546771E-02  0.1066825E+00
        -11   -1    0    0    0    0  0.00000000000E+00  0.00000000000E+00  0.18250000000E+03  0.18250000000E+03  0.00000000000E+00 0.  1.
         11   -1    0    0    0    0 -0.00000000000E+00 -0.00000000000E+00 -0.18250000000E+03  0.18250000000E+03  0.00000000000E+00 0.  1.
        -11    1    1    2    0    0  0.10081113533E+01 -0.35050382112E+01  0.10974512710E+03  0.10980571252E+03  0.00000000000E+00 0.  1.
         11    1    1    2    0    0 -0.33139705535E+01 -0.75577031591E+00 -0.18040620389E+03  0.18043822209E+03  0.00000000000E+00 0.  1.
        -15    1    1    2    0    0 -0.11430542889E+01  0.19853520401E+01  0.70171840721E+02  0.70231710466E+02  0.17770000000E+01 0.  1.
         15    1    1    2    0    0  0.34489134891E+01  0.22754564870E+01  0.48923607718E+00  0.45243549174E+01  0.17770000000E+01 0. -1.
</event>
<event>
 6    1  0.1108180E-002  0.1789516E+03  0.7546771E-02  0.1071315E+00
        -11   -1    0    0    0    0  0.00000000000E+00  0.00000000000E+00  0.18250000000E+03  0.18250000000E+03  0.00000000000E+00 0. -1.
         11   -1    0    0    0    0 -0.00000000000E+00 -0.00000000000E+00 -0.18250000000E+03  0.18250000000E+03  0.00000000000E+00 0.  1.
        -11    1    1    2    0    0  0.24054705998E+01 -0.26519800122E+01  0.17791431492E+03  0.17795033785E+03  0.00000000000E+00 0. -1.
         11    1    1    2    0    0  0.11612725856E+01  0.24902965974E+01 -0.17995545142E+03  0.17997642797E+03  0.00000000000E+00 0.  1.
        -15    1    1    2    0    0 -0.70241605556E+00  0.10720650739E+01  0.27442444375E+01  0.35115976949E+01  0.17770000000E+01 0. -1.
         15    1    1    2    0    0 -0.28643271298E+01 -0.91038165919E+00 -0.70310794307E+00  0.35616364851E+01  0.17770000000E+01 0. -1.
</event>
<event>
 6    1  0.1108180E-002  0.1840477E+03  0.7546771E-02  0.1067229E+00
        -11   -1    0    0    0    0  0.00000000000E+00  0.00000000000E+00  0.18250000000E+03  0.18250000000E+03  0.00000000000E+00 0.  1.
         11   -1    0    0    0    0 -0.00000000000E+00 -0.00000000000E+00 -0.18250000000E+03  0.18250000000E+03  0.00000000000E+00 0.  1.
        -11    1    1    2    0    0 -0.36715427359E+00 -0.10995553038E+01  0.78596433522E+02  0.78604981944E+02  0.00000000000E+00 0.  1.
         11    1    1    2    0    0 -0.55248955078E+01  0.94362686353E+00 -0.18086544331E+03  0.18095226853E+03  0.00000000000E+00 0.  1.
        -15    1    1    2    0    0  0.23874852177E+00  0.39117641642E+01  0.16959077895E+01  0.46252277742E+01  0.17770000000E+01 0. -1.
         15    1    1    2    0    0  0.56533012596E+01 -0.37558357239E+01  0.10057310200E+03  0.10081752175E+03  0.17770000000E+01 0.  1.
</event>
<event>
 6    1  0.1108180E-002  0.1829057E+03  0.7546771E-02  0.1068132E+00
        -11   -1    0    0    0    0  0.00000000000E+00  0.00000000000E+00  0.18250000000E+03  0.18250000000E+03  0.00000000000E+00 0.  1.
         11   -1    0    0    0    0 -0.00000000000E+00 -0.00000000000E+00 -0.18250000000E+03  0.18250000000E+03  0.00000000000E+00 0. -1.
        -11    1    1    2    0    0  0.33402124435E+01  0.40309975519E+01  0.18201902812E+03  0.18209429579E+03  0.00000000000E+00 0.  1.
         11    1    1    2    0    0  0.20129278915E+01 -0.12704514659E+01 -0.11503465729E+03  0.11505928169E+03  0.00000000000E+00 0. -1.
        -15    1    1    2    0    0 -0.15123217197E+01 -0.35127715946E+00 -0.52737712525E+02  0.52790477967E+02  0.17770000000E+01 0. -1.
         15    1    1    2    0    0 -0.38408186153E+01 -0.24092689266E+01 -0.14246658305E+02  0.15055944549E+02  0.17770000000E+01 0.  1.
</event>
<event>
 6    1  0.1108180E-002  0.1717612E+03  0.7546771E-02  0.1077339E+00
        -11   -1    0    0    0    0  0.00000000000E+00  0.00000000000E+00  0.18250000000E+03  0.18250000000E+03  0.00000000000E+00 0.  1.
         11   -1    0    0    0    0 -0.00000000000E+00 -0.00000000000E+00 -0.18250000000E+03  0.18250000000E+03  0.00000000000E+00 0.  1.
        -11    1    1    2    0    0 -0.25439196183E+01  0.30538408903E+01  0.17309503384E+03  0.17314066019E+03  0.00000000000E+00 0.  1.
         11    1    1    2    0    0 -0.51146329914E+01 -0.40876820281E+01 -0.17035375052E+03  0.17047952642E+03  0.00000000000E+00 0.  1.
        -15    1    1    2    0    0  0.61847425865E+01  0.43079949070E+01 -0.10263557410E+02  0.12857223677E+02  0.17770000000E+01 0.  1.
         15    1    1    2    0    0  0.14738100232E+01 -0.32741537692E+01  0.75222740857E+01  0.85225897067E+01  0.17770000000E+01 0.  1.
</event>
<event>
 6    1  0.1108180E-002  0.1827648E+03  0.7546771E-02  0.1068244E+00
        -11   -1    0    0    0    0  0.00000000000E+00  0.00000000000E+00  0.18250000000E+03  0.18250000000E+03  0.00000000000E+00 0. -1.
         11   -1    0    0    0    0 -0.00000000000E+00 -0.00000000000E+00 -0.18250000000E+03  0.18250000000E+03  0.00000000000E+00 0.  1.
        -11    1    1    2    0    0  0.84601249139E+00  0.97212874437E+00  0.55634508092E+02  0.55649431821E+02  0.00000000000E+00 0. -1.
         11    1    1    2    0    0  0.33690873280E+01 -0.21283208065E+01 -0.18219157952E+03  0.18223515618E+03  0.00000000000E+00 0.  1.
        -15    1    1    2    0    0 -0.23909338046E+01 -0.70092518285E+00  0.11723474792E+03  0.11727468486E+03  0.17770000000E+01 0. -1.
         15    1    1    2    0    0 -0.18241660148E+01  0.18571172450E+01  0.93223235072E+01  0.98407271421E+01  0.17770000000E+01 0.  1.
</event>
<event>
 6    1  0.1108180E-002  0.1918100E+03  0.7546771E-02  0.1061276E+00
        -11   -1    0    0    0    0  0.00000000000E+00  0.00000000000E+00  0.18250000000E+03  0.18250000000E+03  0.00000000000E+00 0. -1.
         11   -1    0    0    0    0 -0.00000000000E+00 -0.00000000000E+00 -0.18250000000E+03  0.18250000000E+03  0.00000000000E+00 0. -1.
        -11    1    1    2    0    0  0.36795637503E+01 -0.18993393517E+01  0.16484579715E+03  0.16489779719E+03  0.00000000000E+00 0. -1.
         11    1    1    2    0    0 -0.75753577450E+01 -0.54652261825E+00 -0.17302334596E+03  0.17318996212E+03  0.00000000000E+00 0. -1.
        -15    1    1    2    0    0  0.57286215159E+01 -0.86169138753E+01  0.11007308180E+02  0.15211405970E+02  0.17770000000E+01 0. -1.
         15    1    1    2    0    0 -0.18328275211E+01  0.11062775845E+02 -0.28297593745E+01  0.11700834724E+02  0.17770000000E+01 0.  1.
</event>
<event>
 6    1  0.1108180E-002  0.1428703E+03  0.7546771E-02  0.1105270E+00
        -11   -1    0    0    0    0  0.00000000000E+00  0.00000000000E+00  0.18250000000E+03  0.18250000000E+03  0.00000000000E+00 0. -1.
         11   -1    0    0    0    0 -0.00000000000E+00 -0.00000000000E+00 -0.18250000000E+03  0.18250000000E+03  0.00000000000E+00 0.  1.
        -11    1    1    2    0    0 -0.14154644223E+00  0.22026550408E+01  0.23480184116E+02  0.23583697139E+02  0.00000000000E+00 0. -1.
         11    1    1    2    0    0  0.82083628632E+01 -0.40676622480E+02 -0.15626710673E+03  0.16168294122E+03  0.00000000000E+00 0.  1.
        -15    1    1    2    0    0 -0.93392259009E+01  0.48766300523E+02  0.32722068003E+01  0.49791949887E+02  0.17770000000E+01 0.  1.
         15    1    1    2    0    0  0.12724094799E+01 -0.10292333085E+02  0.12951471581E+03  0.12994141175E+03  0.17770000000E+01 0. -1.
</event>
<event>
 6    1  0.1108180E-002  0.1828501E+03  0.7546771E-02  0.1068176E+00
        -11   -1    0    0    0    0  0.00000000000E+00  0.00000000000E+00  0.18250000000E+03  0.18250000000E+03  0.00000000000E+00 0. -1.
         11   -1    0    0    0    0 -0.00000000000E+00 -0.00000000000E+00 -0.18250000000E+03  0.18250000000E+03  0.00000000000E+00 0. -1.
        -11    1    1    2    0    0 -0.10278652688E+01  0.26245970354E+01  0.13480365835E+03  0.13483312398E+03  0.00000000000E+00 0. -1.
         11    1    1    2    0    0 -0.27105029791E+01  0.48708649700E+00 -0.18212903189E+03  0.18214985132E+03  0.00000000000E+00 0. -1.
        -15    1    1    2    0    0 -0.11036640596E+01 -0.10930427864E+01  0.95273213570E+01  0.98153144692E+01  0.17770000000E+01 0.  1.
         15    1    1    2    0    0  0.48420323075E+01 -0.20186407460E+01  0.37798052180E+02  0.38201710236E+02  0.17770000000E+01 0. -1.
</event>
<event>
 6    1  0.1108180E-002  0.1827065E+03  0.7546771E-02  0.1068291E+00
        -11   -1    0    0    0    0  0.00000000000E+00  0.00000000000E+00  0.18250000000E+03  0.18250000000E+03  0.00000000000E+00 0.  1.
         11   -1    0    0    0    0 -0.00000000000E+00 -0.00000000000E+00 -0.18250000000E+03  0.18250000000E+03  0.00000000000E+00 0. -1.
        -11    1    1    2    0    0  0.37166992483E+01  0.15012335682E+01  0.18224940720E+03  0.18229348310E+03  0.00000000000E+00 0.  1.
         11    1    1    2    0    0  0.26444942140E+01 -0.21831514374E+01 -0.84646753425E+02  0.84716187150E+02  0.00000000000E+00 0. -1.
        -15    1    1    2    0    0 -0.66956554792E+00 -0.14189843441E+01 -0.29292732209E+02  0.29388496454E+02  0.17770000000E+01 0.  1.
         15    1    1    2    0    0 -0.56916279144E+01  0.21009022134E+01 -0.68309921565E+02  0.68601833297E+02  0.17770000000E+01 0. -1.
</event>
<event>
 6    1  0.1108180E-002  0.1701266E+03  0.7546771E-02  0.1078754E+00
        -11   -1    0    0    0    0  0.00000000000E+00  0.00000000000E+00  0.18250000000E+03  0.18250000000E+03  0.00000000000E+00 0. -1.
         11   -1    0    0    0    0 -0.00000000000E+00 -0.00000000000E+00 -0.18250000000E+03  0.18250000000E+03  0.00000000000E+00 0. -1.
        -11    1    1    2    0    0  0.53146929279E+01  0.11284305261E+00  0.17142684821E+03  0.17150925043E+03  0.00000000000E+00 0. -1.
         11    1    1    2    0    0  0.52392485909E+01  0.56766682793E+00 -0.16883596863E+03  0.16891819403E+03  0.00000000000E+00 0. -1.
        -15    1    1    2    0    0 -0.56412286611E+01 -0.11225598349E+01  0.95833775504E+01  0.11317351972E+02  0.17770000000E+01 0.  1.
         15    1    1    2    0    0 -0.49127128577E+01  0.44204995441E+00 -0.12174257133E+02  0.13255203564E+02  0.17770000000E+01 0.  1.
</event>
<event>
 6    1  0.1108180E-002  0.1765598E+03  0.7546771E-02  0.1073284E+00
        -11   -1    0    0    0    0  0.00000000000E+00  0.00000000000E+00  0.18250000000E+03  0.18250000000E+03  0.00000000000E+00 0.  1.
         11   -1    0    0    0    0 -0.00000000000E+00 -0.00000000000E+00 -0.18250000000E+03  0.18250000000E+03  0.00000000000E+00 0. -1.
        -11    1    1    2    0    0  0.29807689638E+01 -0.22329122670E+00  0.17587881628E+03  0.17590421501E+03  0.00000000000E+00 0.  1.
         11    1    1    2    0    0  0.20503207355E+01  0.26051446831E+01 -0.17723090128E+03  0.17726190499E+03  0.00000000000E+00 0. -1.
        -15    1    1    2    0    0 -0.39196779770E+00 -0.28457979426E+01 -0.35070918989E+01  0.48692532561E+01  0.17770000000E+01 0.  1.
         15    1    1    2    0    0 -0.46391219016E+01  0.46394448626E+00  0.48591768994E+01  0.69646267412E+01  0.17770000000E+01 0. -1.
</event>
<event>
 6    1  0.1108180E-002  0.1872522E+03  0.7546771E-02  0.1064734E+00
        -11   -1    0    0    0    0  0.00000000000E+00  0.00000000000E+00  0.18250000000E+03  0.18250000000E+03  0.00000000000E+00 0. -1.
         11   -1    0    0    0    0 -0.00000000000E+00 -0.00000000000E+00 -0.18250000000E+03  0.18250000000E+03  0.00000000000E+00 0.  1.
        -11    1    1    2    0    0  0.28283239435E+01 -0.17771259416E+01  0.17771639605E+03  0.17774778485E+03  0.00000000000E+00 0. -1.
         11    1    1    2    0    0 -0.29435498239E+01 -0.21050491751E+01 -0.16895868218E+03  0.16899743193E+03  0.00000000000E+00 0.  1.
        -15    1    1    2    0    0 -0.42577146994E+01  0.60284376430E+01  0.53834650150E+00  0.76103706107E+01  0.17770000000E+01 0. -1.
         15    1    1    2    0    0  0.43729405798E+01 -0.21462625263E+01 -0.92960603789E+01  0.10644412605E+02  0.17770000000E+01 0.  1.
</event>
<event>
 6    1  0.1108180E-002  0.1830729E+03  0.7546771E-02  0.1068000E+00
        -11   -1    0    0    0    0  0.00000000000E+00  0.00000000000E+00  0.18250000000E+03  0.18250000000E+03  0.00000000000E+00 0. -1.
         11   -1    0    0    0    0 -0.00000000000E+00 -0.00000000000E+00 -0.18250000000E+03  0.18250000000E+03  0.00000000000E+00 0. -1.
        -11    1    1    2    0    0 -0.11608350611E+01 -0.13254854814E+01  0.11585767882E+03  0.11587107574E+03  0.00000000000E+00 0. -1.
         11    1    1    2    0    0 -0.18329959388E+01 -0.16733493255E+01 -0.18191017362E+03  0.18192710419E+03  0.00000000000E+00 0. -1.
        -15    1    1    2    0    0 -0.36414082972E+00  0.38955088995E+01  0.85704457458E+01  0.95873801120E+01  0.17770000000E+01 0.  1.
         15    1    1    2    0    0  0.33579718297E+01 -0.89667409259E+00  0.57482049055E+02  0.57614439959E+02  0.17770000000E+01 0. -1.
</event>
<event>
 6    1  0.1108180E-002  0.1896825E+03  0.7546771E-02  0.1062877E+00
        -11   -1    0    0    0    0  0.00000000000E+00  0.00000000000E+00  0.18250000000E+03  0.18250000000E+03  0.00000000000E+00 0. -1.
         11   -1    0    0    0    0 -0.00000000000E+00 -0.00000000000E+00 -0.18250000000E+03  0.18250000000E+03  0.00000000000E+00 0.  1.
        -11    1    1    2    0    0  0.41849420371E+01  0.47290031135E+01  0.17144635408E+03  0.17156261113E+03  0.00000000000E+00 0. -1.
         11    1    1    2    0    0 -0.67596540388E+00 -0.37968973719E+01 -0.17527511953E+03  0.17531754300E+03  0.00000000000E+00 0.  1.
        -15    1    1    2    0    0 -0.25693522900E+01  0.97964373435E+00 -0.65790567627E+01  0.73486726640E+01  0.17770000000E+01 0. -1.
         15    1    1    2    0    0 -0.93962434323E+00 -0.19117494760E+01  0.10407822212E+02  0.10771173203E+02  0.17770000000E+01 0.  1.
</event>
<event>
 6    1  0.1178822E-002  0.1932173E+03  0.7546771E-02  0.1060230E+00
        -11   -1    0    0    0    0  0.00000000000E+00  0.00000000000E+00  0.18250000000E+03  0.18250000000E+03  0.00000000000E+00 0.  1.
         11   -1    0    0    0    0 -0.00000000000E+00 -0.00000000000E+00 -0.18250000000E+03  0.18250000000E+03  0.00000000000E+00 0.  1.
        -11    1    1    2    0    0  0.88011156799E+01  0.70659330171E+01  0.14950249448E+03  0.14992792569E+03  0.00000000000E+00 0.  1.
         11    1    1    2    0    0  0.17822434284E+01 -0.33803204124E+01 -0.17174016539E+03  0.17178267481E+03  0.00000000000E+00 0.  1.
        -15    1    1    2    0    0 -0.10716240969E+02 -0.56798012142E+01  0.31419531269E+02  0.33725993484E+02  0.17770000000E+01 0. -1.
         15    1    1    2    0    0  0.13288186058E+00  0.19941886095E+01 -0.91818603613E+01  0.95634060091E+01  0.17770000000E+01 0. -1.
</event>
<event>
 6    1  0.1108180E-002  0.1947528E+03  0.7546771E-02  0.1059099E+00
        -11   -1    0    0    0    0  0.00000000000E+00  0.00000000000E+00  0.18250000000E+03  0.18250000000E+03  0.00000000000E+00 0. -1.
         11   -1    0    0    0    0 -0.00000000000E+00 -0.00000000000E+00 -0.18250000000E+03  0.18250000000E+03  0.00000000000E+00 0.  1.
        -11    1    1    2    0    0 -0.37110083460E+01  0.25229265220E+01  0.17018803003E+03  0.17024718002E+03  0.00000000000E+00 0. -1.
         11    1    1    2    0    0  0.14119065553E+01  0.81694662050E+01 -0.14575259064E+03  0.14598818903E+03  0.00000000000E+00 0.  1.
        -15    1    1    2    0    0 -0.10758224011E+01 -0.16022587710E+02 -0.33725133697E+02  0.37395495486E+02  0.17770000000E+01 0.  1.
         15    1    1    2    0    0  0.33749241918E+01  0.53301949829E+01  0.92896943052E+01  0.11369135461E+02  0.17770000000E+01 0. -1.
</event>
<event>
 6    1  0.1108180E-002  0.1837108E+03  0.7546771E-02  0.1067495E+00
        -11   -1    0    0    0    0  0.00000000000E+00  0.00000000000E+00  0.18250000000E+03  0.18250000000E+03  0.00000000000E+00 0.  1.
         11   -1    0    0    0    0 -0.00000000000E+00 -0.00000000000E+00 -0.18250000000E+03  0.18250000000E+03  0.00000000000E+00 0.  1.
        -11    1    1    2    0    0 -0.14702950288E+01  0.11736673946E+01  0.94335923713E+02  0.94354680676E+02  0.00000000000E+00 0.  1.
         11    1    1    2    0    0  0.26991261794E+01  0.51063276380E+01 -0.18119721071E+03  0.18128924136E+03  0.00000000000E+00 0.  1.
        -15    1    1    2    0    0 -0.22473011537E+01  0.60939601100E+01  0.15478950080E+02  0.16880235096E+02  0.17770000000E+01 0.  1.
         15    1    1    2    0    0  0.10184700032E+01 -0.12373955143E+02  0.71382336915E+02  0.72475842869E+02  0.17770000000E+01 0. -1.
</event>
<event>
 6    1  0.1108180E-002  0.1838567E+03  0.7546771E-02  0.1067380E+00
        -11   -1    0    0    0    0  0.00000000000E+00  0.00000000000E+00  0.18250000000E+03  0.18250000000E+03  0.00000000000E+00 0.  1.
         11   -1    0    0    0    0 -0.00000000000E+00 -0.00000000000E+00 -0.18250000000E+03  0.18250000000E+03  0.00000000000E+00 0.  1.
        -11    1    1    2    0    0 -0.14463267041E+01  0.27533369699E+01  0.16933190719E+03  0.16936046621E+03  0.00000000000E+00 0.  1.
         11    1    1    2    0    0 -0.27377180946E+01 -0.47585177188E+00 -0.18112200418E+03  0.18114331877E+03  0.00000000000E+00 0.  1.
        -15    1    1    2    0    0  0.15155201905E+01 -0.38898495988E+01  0.84632489035E+01  0.96027101566E+01  0.17770000000E+01 0.  1.
         15    1    1    2    0    0  0.26685246082E+01  0.16123644007E+01  0.33268480963E+01  0.48935048586E+01  0.17770000000E+01 0. -1.
</event>
<event>
 6    1  0.1108180E-002  0.1732300E+03  0.7546771E-02  0.1076083E+00
        -11   -1    0    0    0    0  0.00000000000E+00  0.00000000000E+00  0.18250000000E+03  0.18250000000E+03  0.00000000000E+00 0.  1.
         11   -1    0    0    0    0 -0.00000000000E+00 -0.00000000000E+00 -0.18250000000E+03  0.18250000000E+03  0.00000000000E+00 0.  1.
        -11    1    1    2    0    0  0.35137328181E+01  0.19216888595E+01  0.17371785676E+03  0.17376401515E+03  0.00000000000E+00 0.  1.
         11    1    1    2    0    0  0.14140477870E+01 -0.31860764027E+01 -0.17269973264E+03  0.17273490750E+03  0.00000000000E+00 0.  1.
        -15    1    1    2    0    0 -0.31721530586E+01  0.25676007124E+01 -0.89978053268E+01  0.10038593435E+02  0.17770000000E+01 0.  1.
         15    1    1    2    0    0 -0.17556275466E+01 -0.13032131692E+01  0.79796812148E+01  0.84624839106E+01  0.17770000000E+01 0. -1.
</event>
<event>
 6    1  0.1108180E-002  0.1902931E+03  0.7546771E-02  0.1062415E+00
        -11   -1    0    0    0    0  0.00000000000E+00  0.00000000000E+00  0.18250000000E+03  0.18250000000E+03  0.00000000000E+00 0.  1.
         11   -1    0    0    0    0 -0.00000000000E+00 -0.00000000000E+00 -0.18250000000E+03  0.18250000000E+03  0.00000000000E+00 0.  1.
        -11    1    1    2    0    0 -0.85837378749E+01 -0.44845273433E+01  0.17443826021E+03  0.17470689215E+03  0.00000000000E+00 0.  1.
         11    1    1    2    0    0  0.39839361368E+01 -0.10478209082E+00 -0.16358962351E+03  0.16363816072E+03  0.00000000000E+00 0.  1.
        -15    1    1    2    0    0  0.70884210714E+01  0.31165367614E+01  0.56897490186E+01  0.97718722650E+01  0.17770000000E+01 0.  1.
         15    1    1    2    0    0 -0.24886193333E+01  0.14727726727E+01 -0.16538385719E+02  0.16883074860E+02  0.17770000000E+01 0. -1.
</event>
<event>
 6    1  0.1108180E-002  0.1829197E+03  0.7546771E-02  0.1068121E+00
        -11   -1    0    0    0    0  0.00000000000E+00  0.00000000000E+00  0.18250000000E+03  0.18250000000E+03  0.00000000000E+00 0.  1.
         11   -1    0    0    0    0 -0.00000000000E+00 -0.00000000000E+00 -0.18250000000E+03  0.18250000000E+03  0.00000000000E+00 0.  1.
        -11    1    1    2    0    0 -0.65271095910E+01 -0.49975391139E+01  0.18189459085E+03  0.18208025905E+03  0.00000000000E+00 0.  1.
         11    1    1    2    0    0 -0.32065519546E+01  0.24306461925E+01 -0.99026429626E+02  0.99108141849E+02  0.00000000000E+00 0.  1.
        -15    1    1    2    0    0 -0.44586921643E+00  0.98198678808E+00 -0.12729557851E+02  0.12898157601E+02  0.17770000000E+01 0.  1.
         15    1    1    2    0    0  0.10179530762E+02  0.15849061333E+01 -0.70138603368E+02  0.70913441500E+02  0.17770000000E+01 0. -1.
</event>
<event>
 6    1  0.1108180E-002  0.1880066E+03  0.7546771E-02  0.1064154E+00
        -11   -1    0    0    0    0  0.00000000000E+00  0.00000000000E+00  0.18250000000E+03  0.18250000000E+03  0.00000000000E+00 0.  1.
         11   -1    0    0    0    0 -0.00000000000E+00 -0.00000000000E+00 -0.18250000000E+03  0.18250000000E+03  0.00000000000E+00 0.  1.
        -11    1    1    2    0    0  0.23102504886E+01 -0.14186469776E+02  0.12790919974E+03  0.12871424382E+03  0.00000000000E+00 0.  1.
         11    1    1    2    0    0 -0.40052701640E+01  0.54852848986E+01 -0.17686304180E+03  0.17699340692E+03  0.00000000000E+00 0.  1.
        -15    1    1    2    0    0 -0.60982408092E+01  0.92536899786E+01  0.49970720595E+02  0.51215719901E+02  0.17770000000E+01 0.  1.
         15    1    1    2    0    0  0.77932604846E+01 -0.55250510092E+00 -0.10168785385E+01  0.80766293607E+01  0.17770000000E+01 0. -1.
</event>
<event>
 6    1  0.1108180E-002  0.1829130E+03  0.7546771E-02  0.1068127E+00
        -11   -1    0    0    0    0  0.00000000000E+00  0.00000000000E+00  0.18250000000E+03  0.18250000000E+03  0.00000000000E+00 0. -1.
         11   -1    0    0    0    0 -0.00000000000E+00 -0.00000000000E+00 -0.18250000000E+03  0.18250000000E+03  0.00000000000E+00 0.  1.
        -11    1    1    2    0    0 -0.16450055197E+01  0.57133455156E+01  0.18198988291E+03  0.18208697329E+03  0.00000000000E+00 0. -1.
         11    1    1    2    0    0 -0.10413060452E+01  0.13368719751E+01 -0.11661162923E+03  0.11662394101E+03  0.00000000000E+00 0.  1.
        -15    1    1    2    0    0  0.31965649269E+01 -0.58017494077E+01 -0.27397038751E+02  0.28242411102E+02  0.17770000000E+01 0.  1.
         15    1    1    2    0    0 -0.51025336197E+00 -0.12484680830E+01 -0.37981214928E+02  0.38046674591E+02  0.17770000000E+01 0.  1.
</event>
<event>
 6    1  0.1108180E-002  0.1833354E+03  0.7546771E-02  0.1067792E+00
        -11   -1    0    0    0    0  0.00000000000E+00  0.00000000000E+00  0.18250000000E+03  0.18250000000E+03  0.00000000000E+00 0.  1.
         11   -1    0    0    0    0 -0.00000000000E+00 -0.00000000000E+00 -0.18250000000E+03  0.18250000000E+03  0.00000000000E+00 0.  1.
        -11    1    1    2    0    0  0.72226870850E+00  0.24677053984E+01  0.45667220797E+02  0.45739548503E+02  0.00000000000E+00 0.  1.
         11    1    1    2    0    0  0.16461170826E+01  0.39229648647E+01 -0.18161480181E+03  0.18166462394E+03  0.00000000000E+00 0.  1.
        -15    1    1    2    0    0 -0.95015830811E+00 -0.46975419907E+01  0.13413232085E+03  0.13422967975E+03  0.17770000000E+01 0.  1.
         15    1    1    2    0    0 -0.14182274830E+01 -0.16931282724E+01  0.18152601716E+01  0.33661478029E+01  0.17770000000E+01 0. -1.
</event>
<event>
 6    1  0.1108180E-002  0.1843455E+03  0.7546771E-02  0.1066995E+00
        -11   -1    0    0    0    0  0.00000000000E+00  0.00000000000E+00  0.18250000000E+03  0.18250000000E+03  0.00000000000E+00 0.  1.
         11   -1    0    0    0    0 -0.00000000000E+00 -0.00000000000E+00 -0.18250000000E+03  0.18250000000E+03  0.00000000000E+00 0. -1.
        -11    1    1    2    0    0  0.21043971200E+01  0.16944805876E+01  0.18063426946E+03  0.18065447422E+03  0.00000000000E+00 0.  1.
         11    1    1    2    0    0  0.34224210051E+01  0.36067416049E+01 -0.10573072408E+03  0.10584756759E+03  0.00000000000E+00 0. -1.
        -15    1    1    2    0    0 -0.41821576774E+01 -0.10128104637E+02 -0.71099168177E+02  0.71960533564E+02  0.17770000000E+01 0. -1.
         15    1    1    2    0    0 -0.13446604477E+01  0.48268824445E+01 -0.38043772009E+01  0.65374246259E+01  0.17770000000E+01 0.  1.
</event>
<event>
 6    1  0.1108180E-002  0.1844432E+03  0.7546771E-02  0.1066918E+00
        -11   -1    0    0    0    0  0.00000000000E+00  0.00000000000E+00  0.18250000000E+03  0.18250000000E+03  0.00000000000E+00 0.  1.
         11   -1    0    0    0    0 -0.00000000000E+00 -0.00000000000E+00 -0.18250000000E+03  0.18250000000E+03  0.00000000000E+00 0.  1.
        -11    1    1    2    0    0  0.92734976528E+00  0.43346300515E+01  0.18050234333E+03  0.18055676377E+03  0.00000000000E+00 0.  1.
         11    1    1    2    0    0  0.10846520023E+01  0.40464939679E+01 -0.16389638179E+03  0.16394991475E+03  0.00000000000E+00 0.  1.
        -15    1    1    2    0    0 -0.16902736354E+01 -0.12715361975E+01 -0.10772846524E+02  0.11121410904E+02  0.17770000000E+01 0. -1.
         15    1    1    2    0    0 -0.32172813214E+00 -0.71095878220E+01 -0.58331150157E+01  0.93719105723E+01  0.17770000000E+01 0.  1.
</event>
<event>
 6    1  0.1108180E-002  0.1849190E+03  0.7546771E-02  0.1066545E+00
        -11   -1    0    0    0    0  0.00000000000E+00  0.00000000000E+00  0.18250000000E+03  0.18250000000E+03  0.00000000000E+00 0.  1.
         11   -1    0    0    0    0 -0.00000000000E+00 -0.00000000000E+00 -0.18250000000E+03  0.18250000000E+03  0.00000000000E+00 0.  1.
        -11    1    1    2    0    0  0.32848995167E+01 -0.34806270727E+01  0.18001737305E+03  0.18008098159E+03  0.00000000000E+00 0.  1.
         11    1    1    2    0    0 -0.23013618236E+01  0.36712551547E+01 -0.14921091255E+02  0.15537481936E+02  0.00000000000E+00 0.  1.
        -15    1    1    2    0    0  0.42358326840E+01 -0.98833830506E+01 -0.13384722961E+02  0.17260709046E+02  0.17770000000E+01 0. -1.
         15    1    1    2    0    0 -0.52193703771E+01  0.96927549686E+01 -0.15171155883E+03  0.15212082743E+03  0.17770000000E+01 0.  1.
</event>
<event>
 6    1  0.1108180E-002  0.1898870E+03  0.7546771E-02  0.1062722E+00
        -11   -1    0    0    0    0  0.00000000000E+00  0.00000000000E+00  0.18250000000E+03  0.18250000000E+03  0.00000000000E+00 0. -1.
         11   -1    0    0    0    0 -0.00000000000E+00 -0.00000000000E+00 -0.18250000000E+03  0.18250000000E+03  0.00000000000E+00 0. -1.
        -11    1    1    2    0    0  0.12204217058E+01 -0.20282996954E+01  0.12600695821E+03  0.12602919085E+03  0.00000000000E+00 0. -1.
         11    1    1    2    0    0 -0.17384471464E+01  0.21670290527E+01 -0.17509093198E+03  0.17511297117E+03  0.00000000000E+00 0. -1.
        -15    1    1    2    0    0 -0.40647376793E+01 -0.15306723583E+02  0.45767532553E+01  0.16580780398E+02  0.17770000000E+01 0. -1.
         15    1    1    2    0    0  0.45827631199E+01  0.15167994225E+02  0.44507220508E+02  0.47277057576E+02  0.17770000000E+01 0.  1.
</event>
<event>
 6    1  0.1108180E-002  0.1828166E+03  0.7546771E-02  0.1068203E+00
        -11   -1    0    0    0    0  0.00000000000E+00  0.00000000000E+00  0.18250000000E+03  0.18250000000E+03  0.00000000000E+00 0.  1.
         11   -1    0    0    0    0 -0.00000000000E+00 -0.00000000000E+00 -0.18250000000E+03  0.18250000000E+03  0.00000000000E+00 0.  1.
        -11    1    1    2    0    0  0.22936922614E+01  0.33035520139E+01  0.18213898497E+03  0.18218338104E+03  0.00000000000E+00 0.  1.
         11    1    1    2    0    0 -0.11808217413E+01 -0.18467302838E+01 -0.15584413858E+03  0.15585955307E+03  0.00000000000E+00 0.  1.
        -15    1    1    2    0    0 -0.10689704800E+01  0.13366727103E+01 -0.82524098589E+01  0.86133262623E+01  0.17770000000E+01 0. -1.
         15    1    1    2    0    0 -0.43900040116E-01 -0.27934944404E+01 -0.18042436537E+02  0.18343739630E+02  0.17770000000E+01 0. -1.
</event>
<event>
 6    1  0.1108180E-002  0.1828173E+03  0.7546771E-02  0.1068202E+00
        -11   -1    0    0    0    0  0.00000000000E+00  0.00000000000E+00  0.18250000000E+03  0.18250000000E+03  0.00000000000E+00 0. -1.
         11   -1    0    0    0    0 -0.00000000000E+00 -0.00000000000E+00 -0.18250000000E+03  0.18250000000E+03  0.00000000000E+00 0. -1.
        -11    1    1    2    0    0 -0.84222170493E+00 -0.82126151049E+00  0.59478572663E+02  0.59490204353E+02  0.00000000000E+00 0. -1.
         11    1    1    2    0    0 -0.23655607180E+01 -0.23579390534E+01 -0.18215203559E+03  0.18218265512E+03  0.00000000000E+00 0. -1.
        -15    1    1    2    0    0  0.25754411436E+01  0.22928296128E+01  0.11547627524E+02  0.12181764862E+02  0.17770000000E+01 0. -1.
         15    1    1    2    0    0  0.63234127936E+00  0.88637095113E+00  0.11112583541E+03  0.11114537567E+03  0.17770000000E+01 0. -1.
</event>
<event>
 6    1  0.1108180E-002  0.1835720E+03  0.7546771E-02  0.1067605E+00
        -11   -1    0    0    0    0  0.00000000000E+00  0.00000000000E+00  0.18250000000E+03  0.18250000000E+03  0.00000000000E+00 0. -1.
         11   -1    0    0    0    0 -0.00000000000E+00 -0.00000000000E+00 -0.18250000000E+03  0.18250000000E+03  0.00000000000E+00 0. -1.
        -11    1    1    2    0    0 -0.30663149225E+01  0.39494479645E+01  0.18135913623E+03  0.18142804833E+03  0.00000000000E+00 0. -1.
         11    1    1    2    0    0  0.57343622608E+01  0.58422218014E+00 -0.99709790648E+02  0.99876256323E+02  0.00000000000E+00 0. -1.
        -15    1    1    2    0    0 -0.31158728139E+00 -0.49572097058E+01 -0.60067523238E+01  0.79943615868E+01  0.17770000000E+01 0. -1.
         15    1    1    2    0    0 -0.23564600569E+01  0.42353956114E+00 -0.75642593257E+02  0.75701333763E+02  0.17770000000E+01 0.  1.
</event>
<event>
 6    1  0.1108180E-002  0.1835953E+03  0.7546771E-02  0.1067586E+00
        -11   -1    0    0    0    0  0.00000000000E+00  0.00000000000E+00  0.18250000000E+03  0.18250000000E+03  0.00000000000E+00 0. -1.
         11   -1    0    0    0    0 -0.00000000000E+00 -0.00000000000E+00 -0.18250000000E+03  0.18250000000E+03  0.00000000000E+00 0.  1.
        -11    1    1    2    0    0  0.94971994665E+00 -0.36569374365E+01  0.66235719739E+02  0.66343392503E+02  0.00000000000E+00 0. -1.
         11    1    1    2    0    0 -0.12527033854E+02  0.14449621584E+02 -0.18039385206E+03  0.18140468572E+03  0.00000000000E+00 0.  1.
        -15    1    1    2    0    0  0.10567348021E+02 -0.10737291738E+02  0.11420363218E+03  0.11520670818E+03  0.17770000000E+01 0. -1.
         15    1    1    2    0    0  0.10099658869E+01 -0.55392409553E-01 -0.45499856535E-01  0.20452135949E+01  0.17770000000E+01 0.  1.
</event>
<event>
 6    1  0.1108180E-002  0.1936786E+03  0.7546771E-02  0.1059889E+00
        -11   -1    0    0    0    0  0.00000000000E+00  0.00000000000E+00  0.18250000000E+03  0.18250000000E+03  0.00000000000E+00 0. -1.
         11   -1    0    0    0    0 -0.00000000000E+00 -0.00000000000E+00 -0.18250000000E+03  0.18250000000E+03  0.00000000000E+00 0.  1.
        -11    1    1    2    0    0 -0.54196800953E+01 -0.14073376765E+01  0.17122988553E+03  0.17132141498E+03  0.00000000000E+00 0. -1.
         11    1    1    2    0    0  0.17809994830E+01 -0.33510831587E+01 -0.15215548405E+03  0.15220280235E+03  0.00000000000E+00 0.  1.
        -15    1    1    2    0    0  0.14637325511E+01 -0.11778721316E+01  0.10688539616E+02  0.10996931566E+02  0.17770000000E+01 0. -1.
         15    1    1    2    0    0  0.21749480612E+01  0.59362929668E+01 -0.29762941094E+02  0.30478851108E+02  0.17770000000E+01 0.  1.
</event>
<event>
 6    1  0.1108180E-002  0.2106882E+03  0.7546771E-02  0.1047997E+00
        -11   -1    0    0    0    0  0.00000000000E+00  0.00000000000E+00  0.18250000000E+03  0.18250000000E+03  0.00000000000E+00 0.  1.
         11   -1    0    0    0    0 -0.00000000000E+00 -0.00000000000E+00 -0.18250000000E+03  0.18250000000E+03  0.00000000000E+00 0. -1.
        -11    1    1    2    0    0 -0.27733823970E+01 -0.66869672945E+00  0.15428541900E+03  0.15431179255E+03  0.00000000000E+00 0.  1.
         11    1    1    2    0    0  0.45393555265E+01 -0.76015700620E+01 -0.14734784052E+03  0.14761360277E+03  0.00000000000E+00 0. -1.
        -15    1    1    2    0    0  0.22903033206E+02  0.12112572354E+02  0.14828284363E+02  0.29904833810E+02  0.17770000000E+01 0. -1.
         15    1    1    2    0    0 -0.24669006336E+02 -0.38423055621E+01 -0.21765862838E+02  0.33169770872E+02  0.17770000000E+01 0.  1.
</event>
<event>
 6    1  0.1108180E-002  0.1888215E+03  0.7546771E-02  0.1063531E+00
        -11   -1    0    0    0    0  0.00000000000E+00  0.00000000000E+00  0.18250000000E+03  0.18250000000E+03  0.00000000000E+00 0.  1.
         11   -1    0    0    0    0 -0.00000000000E+00 -0.00000000000E+00 -0.18250000000E+03  0.18250000000E+03  0.00000000000E+00 0.  1.
        -11    1    1    2    0    0  0.32831174504E+01 -0.91099663960E+01  0.16737648194E+03  0.16765636599E+03  0.00000000000E+00 0.  1.
         11    1    1    2    0    0 -0.42735991849E+01 -0.24123012458E+01 -0.17611013324E+03  0.17617849437E+03  0.00000000000E+00 0.  1.
        -15    1    1    2    0    0 -0.55064309763E+01  0.10343960736E+02  0.79745660408E+01  0.14285297979E+02  0.17770000000E+01 0. -1.
         15    1    1    2    0    0  0.64969127108E+01  0.11783069062E+01  0.75908525595E+00  0.68798416670E+01  0.17770000000E+01 0.  1.
</event>
<event>
 6    1  0.1108180E-002  0.1835907E+03  0.7546771E-02  0.1067590E+00
        -11   -1    0    0    0    0  0.00000000000E+00  0.00000000000E+00  0.18250000000E+03  0.18250000000E+03  0.00000000000E+00 0. -1.
         11   -1    0    0    0    0 -0.00000000000E+00 -0.00000000000E+00 -0.18250000000E+03  0.18250000000E+03  0.00000000000E+00 0.  1.
        -11    1    1    2    0    0 -0.11808427025E+00  0.28954731951E+01  0.12936741971E+03  0.12939987246E+03  0.00000000000E+00 0. -1.
         11    1    1    2    0    0  0.49219611245E+01 -0.72638317799E+01 -0.18119700433E+03  0.18140932537E+03  0.00000000000E+00 0.  1.
        -15    1    1    2    0    0 -0.67204065421E+00 -0.13979679156E+01  0.41319726761E+02  0.41386996768E+02  0.17770000000E+01 0. -1.
         15    1    1    2    0    0 -0.41318362000E+01  0.57663265004E+01  0.10509857855E+02  0.12803805404E+02  0.17770000000E+01 0. -1.
</event>
<event>
 6    1  0.1108180E-002  0.1839251E+03  0.7546771E-02  0.1067326E+00
        -11   -1    0    0    0    0  0.00000000000E+00  0.00000000000E+00  0.18250000000E+03  0.18250000000E+03  0.00000000000E+00 0. -1.
         11   -1    0    0    0    0 -0.00000000000E+00 -0.00000000000E+00 -0.18250000000E+03  0.18250000000E+03  0.00000000000E+00 0. -1.
        -11    1    1    2    0    0  0.46611539754E+01  0.27467383275E+01  0.57770578880E+02  0.58023363501E+02  0.00000000000E+00 0. -1.
         11    1    1    2    0    0 -0.41954137488E+00  0.35610818263E+01 -0.18103937440E+03  0.18107488065E+03  0.00000000000E+00 0. -1.
        -15    1    1    2    0    0  0.73281788064E+01  0.50465266039E+01  0.36266328925E+02  0.37384140729E+02  0.17770000000E+01 0.  1.
         15    1    1    2    0    0 -0.11569791407E+02 -0.11354346758E+02  0.87002466597E+02  0.88517615120E+02  0.17770000000E+01 0. -1.
</event>
<event>
 6    1  0.1108180E-002  0.1834549E+03  0.7546771E-02  0.1067697E+00
        -11   -1    0    0    0    0  0.00000000000E+00  0.00000000000E+00  0.18250000000E+03  0.18250000000E+03  0.00000000000E+00 0. -1.
         11   -1    0    0    0    0 -0.00000000000E+00 -0.00000000000E+00 -0.18250000000E+03  0.18250000000E+03  0.00000000000E+00 0. -1.
        -11    1    1    2    0    0  0.39367269014E+00  0.27685080489E+01  0.12473438816E+03  0.12476572929E+03  0.00000000000E+00 0. -1.
         11    1    1    2    0    0  0.77011489531E+01  0.55377960569E+01 -0.18129715139E+03  0.18154512382E+03  0.00000000000E+00 0. -1.
        -15    1    1    2    0    0 -0.42852356042E+01 -0.49670381639E+01  0.11893720079E+02  0.13698650248E+02  0.17770000000E+01 0.  1.
         15    1    1    2    0    0 -0.38095860390E+01 -0.33392659419E+01  0.44669043154E+02  0.44990496642E+02  0.17770000000E+01 0. -1.
</event>
<event>
 6    1  0.1108180E-002  0.1831198E+03  0.7546771E-02  0.1067963E+00
        -11   -1    0    0    0    0  0.00000000000E+00  0.00000000000E+00  0.18250000000E+03  0.18250000000E+03  0.00000000000E+00 0. -1.
         11   -1    0    0    0    0 -0.00000000000E+00 -0.00000000000E+00 -0.18250000000E+03  0.18250000000E+03  0.00000000000E+00 0.  1.
        -11    1    1    2    0    0 -0.57299929164E+01  0.21100731135E+01  0.18177770143E+03  0.18188022973E+03  0.00000000000E+00 0. -1.
         11    1    1    2    0    0 -0.41956698197E+01  0.23733730392E+01 -0.10568611239E+03  0.10579598715E+03  0.00000000000E+00 0.  1.
        -15    1    1    2    0    0  0.54364987528E+01 -0.48424350061E+01 -0.61385592720E+02  0.61841356858E+02  0.17770000000E+01 0.  1.
         15    1    1    2    0    0  0.44891639833E+01  0.35898885342E+00 -0.14705996321E+02  0.15482426266E+02  0.17770000000E+01 0. -1.
</event>
<event>
 6    1  0.1108180E-002  0.1858798E+03  0.7546771E-02  0.1065796E+00
        -11   -1    0    0    0    0  0.00000000000E+00  0.00000000000E+00  0.18250000000E+03  0.18250000000E+03  0.00000000000E+00 0. -1.
         11   -1    0    0    0    0 -0.00000000000E+00 -0.00000000000E+00 -0.18250000000E+03  0.18250000000E+03  0.00000000000E+00 0. -1.
        -11    1    1    2    0    0  0.35995621804E+01  0.56806126852E+01  0.17899394257E+03  0.17912023249E+03  0.00000000000E+00 0. -1.
         11    1    1    2    0    0 -0.30835712462E+01 -0.22924665529E+01 -0.14939230303E+03  0.14944170776E+03  0.00000000000E+00 0. -1.
        -15    1    1    2    0    0 -0.28774861942E+01 -0.11190987040E+02 -0.11006469911E+02  0.16056719050E+02  0.17770000000E+01 0.  1.
         15    1    1    2    0    0  0.23614952600E+01  0.78028409078E+01 -0.18595169636E+02  0.20381340704E+02  0.17770000000E+01 0. -1.
</event>
<event>
 6    1  0.1108180E-002  0.1829942E+03  0.7546771E-02  0.1068062E+00
        -11   -1    0    0    0    0  0.00000000000E+00  0.00000000000E+00  0.18250000000E+03  0.18250000000E+03  0.00000000000E+00 0.  1.
         11   -1    0    0    0    0 -0.00000000000E+00 -0.00000000000E+00 -0.18250000000E+03  0.18250000000E+03  0.00000000000E+00 0. -1.
        -11    1    1    2    0    0 -0.26273007731E+01  0.60379353514E+00  0.18198586380E+03  0.18200582930E+03  0.00000000000E+00 0.  1.
         11    1    1    2    0    0 -0.47147981968E+01  0.10949703450E+01 -0.88838548093E+02  0.88970309145E+02  0.00000000000E+00 0. -1.
        -15    1    1    2    0    0  0.85657307477E+00 -0.50011340871E-02 -0.28814934203E+01  0.34920589593E+01  0.17770000000E+01 0.  1.
         15    1    1    2    0    0  0.64855258951E+01 -0.16937627461E+01 -0.90265822289E+02  0.90531802594E+02  0.17770000000E+01 0. -1.
</event>
<event>
 6    1  0.1108180E-002  0.1830364E+03  0.7546771E-02  0.1068029E+00
        -11   -1    0    0    0    0  0.00000000000E+00  0.00000000000E+00  0.18250000000E+03  0.18250000000E+03  0.00000000000E+00 0.  1.
         11   -1    0    0    0    0 -0.00000000000E+00 -0.00000000000E+00 -0.18250000000E+03  0.18250000000E+03  0.00000000000E+00 0.  1.
        -11    1    1    2    0    0 -0.23515926625E+01 -0.91244636122E+00  0.11798609347E+03  0.11801305351E+03  0.00000000000E+00 0.  1.
         11    1    1    2    0    0 -0.12185003509E+01  0.44078735477E+01 -0.18190613420E+03  0.18196361106E+03  0.00000000000E+00 0.  1.
        -15    1    1    2    0    0  0.37451823880E+00 -0.46739808570E+00  0.14429402582E+01  0.23661213981E+01  0.17770000000E+01 0.  1.
         15    1    1    2    0    0  0.31955747746E+01 -0.30280291008E+01  0.62477100469E+02  0.62657214033E+02  0.17770000000E+01 0.  1.
</event>
<event>
 6    1  0.1108180E-002  0.1921237E+03  0.7546771E-02  0.1061042E+00
        -11   -1    0    0    0    0  0.00000000000E+00  0.00000000000E+00  0.18250000000E+03  0.18250000000E+03  0.00000000000E+00 0.  1.
         11   -1    0    0    0    0 -0.00000000000E+00 -0.00000000000E+00 -0.18250000000E+03  0.18250000000E+03  0.00000000000E+00 0.  1.
        -11    1    1    2    0    0  0.60735937533E+01  0.23850882264E+01  0.12585458680E+03  0.12602362559E+03  0.00000000000E+00 0.  1.
         11    1    1    2    0    0  0.65188875361E+01 -0.23874182540E+01 -0.17273687005E+03  0.17287631976E+03  0.00000000000E+00 0.  1.
        -15    1    1    2    0    0 -0.62680118006E+01  0.41465852267E+00 -0.82813690312E+01  0.10545080163E+02  0.17770000000E+01 0.  1.
         15    1    1    2    0    0 -0.63244694888E+01 -0.41232849504E+00  0.55163652275E+02  0.55554974489E+02  0.17770000000E+01 0.  1.
</event>
<event>
 6    1  0.1108180E-002  0.1841641E+03  0.7546771E-02  0.1067138E+00
        -11   -1    0    0    0    0  0.00000000000E+00  0.00000000000E+00  0.18250000000E+03  0.18250000000E+03  0.00000000000E+00 0. -1.
         11   -1    0    0    0    0 -0.00000000000E+00 -0.00000000000E+00 -0.18250000000E+03  0.18250000000E+03  0.00000000000E+00 0. -1.
        -11    1    1    2    0    0 -0.57049560327E+01 -0.12861807606E+01  0.18074126221E+03  0.18083585001E+03  0.00000000000E+00 0. -1.
         11    1    1    2    0    0  0.69290005361E+01 -0.33341632727E+01 -0.13047033668E+03  0.13069673464E+03  0.00000000000E+00 0. -1.
        -15    1    1    2    0    0  0.59420264512E+01  0.79717246052E+01 -0.27542448271E+02  0.29335989114E+02  0.17770000000E+01 0. -1.
         15    1    1    2    0    0 -0.71660709546E+01 -0.33513805718E+01 -0.22728477260E+02  0.24131426237E+02  0.17770000000E+01 0. -1.
</event>
<event>
 6    1  0.1108180E-002  0.1853948E+03  0.7546771E-02  0.1066174E+00
        -11   -1    0    0    0    0  0.00000000000E+00  0.00000000000E+00  0.18250000000E+03  0.18250000000E+03  0.00000000000E+00 0.  1.
         11   -1    0    0    0    0 -0.00000000000E+00 -0.00000000000E+00 -0.18250000000E+03  0.18250000000E+03  0.00000000000E+00 0. -1.
        -11    1    1    2    0    0  0.59847529058E+01  0.32256112821E+01  0.17947647442E+03  0.17960519676E+03  0.00000000000E+00 0.  1.
         11    1    1    2    0    0  0.16722250296E+01 -0.51306894959E+00 -0.12440028940E+03  0.12441258610E+03  0.00000000000E+00 0. -1.
        -15    1    1    2    0    0  0.15595171909E+01  0.22881987683E+01 -0.48212080511E+02  0.48324221501E+02  0.17770000000E+01 0. -1.
         15    1    1    2    0    0 -0.92164951263E+01 -0.50007411007E+01 -0.68641045040E+01  0.12657995640E+02  0.17770000000E+01 0.  1.
</event>
<event>
 6    1  0.1108180E-002  0.1831993E+03  0.7546771E-02  0.1067900E+00
        -11   -1    0    0    0    0  0.00000000000E+00  0.00000000000E+00  0.18250000000E+03  0.18250000000E+03  0.00000000000E+00 0.  1.
         11   -1    0    0    0    0 -0.00000000000E+00 -0.00000000000E+00 -0.18250000000E+03  0.18250000000E+03  0.00000000000E+00 0.  1.
        -11    1    1    2    0    0  0.15216156901E+01 -0.13896175812E+01  0.14360080531E+03  0.14361558981E+03  0.00000000000E+00 0.  1.
         11    1    1    2    0    0 -0.27526197315E+01 -0.15545662096E+01 -0.18177320320E+03  0.18180069030E+03  0.00000000000E+00 0.  1.
        -15    1    1    2    0    0  0.28450124883E+01 -0.22930604771E+01  0.22963274554E+02  0.23319989915E+02  0.17770000000E+01 0. -1.
         15    1    1    2    0    0 -0.16140084470E+01  0.52372442680E+01  0.15209123343E+02  0.16263729973E+02  0.17770000000E+01 0.  1.
</event>
<event>
 6    1  0.1108180E-002  0.1842908E+03  0.7546771E-02  0.1067038E+00
        -11   -1    0    0    0    0  0.00000000000E+00  0.00000000000E+00  0.18250000000E+03  0.18250000000E+03  0.00000000000E+00 0. -1.
         11   -1    0    0    0    0 -0.00000000000E+00 -0.00000000000E+00 -0.18250000000E+03  0.18250000000E+03  0.00000000000E+00 0. -1.
        -11    1    1    2    0    0  0.38869498933E+01  0.78206080018E+00  0.18066565859E+03  0.18070915913E+03  0.00000000000E+00 0. -1.
         11    1    1    2    0    0 -0.24713744560E+01 -0.54720581546E+01 -0.15390116152E+03  0.15401824122E+03  0.00000000000E+00 0. -1.
        -15    1    1    2    0    0  0.24157216331E+01  0.72951022123E+01 -0.97043913387E+01  0.12505485498E+02  0.17770000000E+01 0.  1.
         15    1    1    2    0    0 -0.38312970704E+01 -0.26051048579E+01 -0.17060105736E+02  0.17767114152E+02  0.17770000000E+01 0. -1.
</event>
<event>
 6    1  0.1108180E-002  0.1904850E+03  0.7546771E-02  0.1062271E+00
        -11   -1    0    0    0    0  0.00000000000E+00  0.00000000000E+00  0.18250000000E+03  0.18250000000E+03  0.00000000000E+00 0.  1.
         11   -1    0    0    0    0 -0.00000000000E+00 -0.00000000000E+00 -0.18250000000E+03  0.18250000000E+03  0.00000000000E+00 0.  1.
        -11    1    1    2    0    0  0.12179785285E+02  0.13033378693E+02  0.13958866051E+03  0.14072387954E+03  0.00000000000E+00 0.  1.
         11    1    1    2    0    0 -0.16620795181E+01  0.78349747979E+01 -0.17433107671E+03  0.17451496683E+03  0.00000000000E+00 0.  1.
        -15    1    1    2    0    0 -0.15211849059E+02 -0.19940083973E+02  0.36535550750E+02  0.44351003352E+02  0.17770000000E+01 0.  1.
         15    1    1    2    0    0  0.46941432922E+01 -0.92826951810E+00 -0.17931345467E+01  0.54101502796E+01  0.17770000000E+01 0. -1.
</event>
<event>
 6    1  0.1108180E-002  0.1697664E+03  0.7546771E-02  0.1079068E+00
        -11   -1    0    0    0    0  0.00000000000E+00  0.00000000000E+00  0.18250000000E+03  0.18250000000E+03  0.00000000000E+00 0. -1.
         11   -1    0    0    0    0 -0.00000000000E+00 -0.00000000000E+00 -0.18250000000E+03  0.18250000000E+03  0.00000000000E+00 0. -1.
        -11    1    1    2    0    0  0.10078655827E+01 -0.70163196912E+01  0.16974284335E+03  0.16989078080E+03  0.00000000000E+00 0. -1.
         11    1    1    2    0    0 -0.33146066192E+01 -0.12648759652E+01 -0.16971370530E+03  0.16975078289E+03  0.00000000000E+00 0. -1.
        -15    1    1    2    0    0  0.37851976956E+01 -0.83153482940E+00  0.10446357013E+02  0.11282875325E+02  0.17770000000E+01 0. -1.
         15    1    1    2    0    0 -0.14784566591E+01  0.91127304857E+01 -0.10475495062E+02  0.14075560976E+02  0.17770000000E+01 0.  1.
</event>
<event>
 6    1  0.1108180E-002  0.1828771E+03  0.7546771E-02  0.1068155E+00
        -11   -1    0    0    0    0  0.00000000000E+00  0.00000000000E+00  0.18250000000E+03  0.18250000000E+03  0.00000000000E+00 0. -1.
         11   -1    0    0    0    0 -0.00000000000E+00 -0.00000000000E+00 -0.18250000000E+03  0.18250000000E+03  0.00000000000E+00 0. -1.
        -11    1    1    2    0    0 -0.74515492498E+00  0.72378843414E+01  0.18197747874E+03  0.18212288432E+03  0.00000000000E+00 0. -1.
         11    1    1    2    0    0 -0.60605317426E+00  0.18927526672E+01 -0.24428423013E+02  0.24509134297E+02  0.00000000000E+00 0. -1.
        -15    1    1    2    0    0 -0.14385593176E+01 -0.13211658443E+01 -0.56963012886E+01  0.62785754331E+01  0.17770000000E+01 0.  1.
         15    1    1    2    0    0  0.27897674168E+01 -0.78094711642E+01 -0.15185275444E+03  0.15208940595E+03  0.17770000000E+01 0. -1.
</event>
<event>
 6    1  0.1108180E-002  0.1422381E+03  0.7546771E-02  0.1105961E+00
        -11   -1    0    0    0    0  0.00000000000E+00  0.00000000000E+00  0.18250000000E+03  0.18250000000E+03  0.00000000000E+00 0.  1.
         11   -1    0    0    0    0 -0.00000000000E+00 -0.00000000000E+00 -0.18250000000E+03  0.18250000000E+03  0.00000000000E+00 0. -1.
        -11    1    1    2    0    0 -0.90787341602E+00  0.23461378931E+02  0.15495098008E+03  0.15671970764E+03  0.00000000000E+00 0.  1.
         11    1    1    2    0    0 -0.79845693016E+01  0.25859448489E+02 -0.13039983405E+03  0.13317875636E+03  0.00000000000E+00 0. -1.
        -15    1    1    2    0    0  0.25216037263E+02 -0.89294950429E+01 -0.13986835915E+02  0.30238613144E+02  0.17770000000E+01 0.  1.
         15    1    1    2    0    0 -0.16323594545E+02 -0.40391332378E+02 -0.10564310114E+02  0.44862922857E+02  0.17770000000E+01 0. -1.
</event>
<event>
 6    1  0.1108180E-002  0.1830460E+03  0.7546771E-02  0.1068021E+00
        -11   -1    0    0    0    0  0.00000000000E+00  0.00000000000E+00  0.18250000000E+03  0.18250000000E+03  0.00000000000E+00 0. -1.
         11   -1    0    0    0    0 -0.00000000000E+00 -0.00000000000E+00 -0.18250000000E+03  0.18250000000E+03  0.00000000000E+00 0.  1.
        -11    1    1    2    0    0 -0.13322161983E+01  0.51233469240E+01  0.14674306940E+03  0.14683852322E+03  0.00000000000E+00 0. -1.
         11    1    1    2    0    0 -0.28021641264E+01 -0.22078851522E+01 -0.18191901915E+03  0.18195399530E+03  0.00000000000E+00 0.  1.
        -15    1    1    2    0    0  0.12039591386E+01 -0.78516539908E+00  0.26933172934E+02  0.27029974761E+02  0.17770000000E+01 0.  1.
         15    1    1    2    0    0  0.29304211862E+01 -0.21302963727E+01  0.82427768102E+01  0.91775067151E+01  0.17770000000E+01 0. -1.
</event>
<event>
 6    1  0.1108180E-002  0.1845342E+03  0.7546771E-02  0.1066847E+00
        -11   -1    0    0    0    0  0.00000000000E+00  0.00000000000E+00  0.18250000000E+03  0.18250000000E+03  0.00000000000E+00 0.  1.
         11   -1    0    0    0    0 -0.00000000000E+00 -0.00000000000E+00 -0.18250000000E+03  0.18250000000E+03  0.00000000000E+00 0. -1.
        -11    1    1    2    0    0 -0.11593165115E+02 -0.54425319094E+01  0.15212299711E+03  0.15266115708E+03  0.00000000000E+00 0.  1.
         11    1    1    2    0    0  0.25223145947E+00  0.27573204614E+01 -0.18044451768E+03  0.18046575962E+03  0.00000000000E+00 0. -1.
        -15    1    1    2    0    0  0.79945202293E+01  0.45265857928E+01  0.24339431500E+02  0.26076195800E+02  0.17770000000E+01 0.  1.
         15    1    1    2    0    0  0.33464134265E+01 -0.18413743448E+01  0.39820890675E+01  0.57968874959E+01  0.17770000000E+01 0. -1.
</event>
<event>
 6    1  0.1108180E-002  0.1838101E+03  0.7546771E-02  0.1067417E+00
        -11   -1    0    0    0    0  0.00000000000E+00  0.00000000000E+00  0.18250000000E+03  0.18250000000E+03  0.00000000000E+00 0. -1.
         11   -1    0    0    0    0 -0.00000000000E+00 -0.00000000000E+00 -0.18250000000E+03  0.18250000000E+03  0.00000000000E+00 0. -1.
        -11    1    1    2    0    0 -0.39895258626E+01  0.24703780936E+00  0.18114578007E+03  0.18118987549E+03  0.00000000000E+00 0. -1.
         11    1    1    2    0    0 -0.18815709851E+00 -0.14517416731E+01 -0.48000223997E+02  0.48022541173E+02  0.00000000000E+00 0. -1.
        -15    1    1    2    0    0  0.38754552622E+01 -0.71409473502E+00 -0.22644740268E+01  0.48800262702E+01  0.17770000000E+01 0. -1.
         15    1    1    2    0    0  0.30222769889E+00  0.19187985987E+01 -0.13088108205E+03  0.13090755706E+03  0.17770000000E+01 0. -1.
</event>
<event>
 6    1  0.1108180E-002  0.1304449E+03  0.7546771E-02  0.1119622E+00
        -11   -1    0    0    0    0  0.00000000000E+00  0.00000000000E+00  0.18250000000E+03  0.18250000000E+03  0.00000000000E+00 0.  1.
         11   -1    0    0    0    0 -0.00000000000E+00 -0.00000000000E+00 -0.18250000000E+03  0.18250000000E+03  0.00000000000E+00 0.  1.
        -11    1    1    2    0    0  0.35784577041E+01 -0.19480422184E+02  0.13142791921E+03  0.13291196393E+03  0.00000000000E+00 0.  1.
         11    1    1    2    0    0  0.35042614902E+02 -0.98080767527E+01 -0.12737723301E+03  0.13247317736E+03  0.00000000000E+00 0.  1.
        -15    1    1    2    0    0 -0.27131896401E+02 -0.27834670166E+02  0.88625066692E+01  0.39907523339E+02  0.17770000000E+01 0. -1.
         15    1    1    2    0    0 -0.11489176205E+02  0.57123169102E+02 -0.12913192869E+02  0.59707335372E+02  0.17770000000E+01 0.  1.
</event>
<event>
 6    1  0.1108180E-002  0.2038411E+03  0.7546771E-02  0.1052632E+00
        -11   -1    0    0    0    0  0.00000000000E+00  0.00000000000E+00  0.18250000000E+03  0.18250000000E+03  0.00000000000E+00 0.  1.
         11   -1    0    0    0    0 -0.00000000000E+00 -0.00000000000E+00 -0.18250000000E+03  0.18250000000E+03  0.00000000000E+00 0. -1.
        -11    1    1    2    0    0 -0.62142303860E+01  0.14924717146E+00  0.11798449136E+03  0.11814812371E+03  0.00000000000E+00 0.  1.
         11    1    1    2    0    0 -0.14424911246E+01  0.17403390292E+01 -0.16114300199E+03  0.16115885533E+03  0.00000000000E+00 0. -1.
        -15    1    1    2    0    0  0.59191928500E+01  0.28622719970E+02 -0.39126619788E+01  0.29542572590E+02  0.17770000000E+01 0. -1.
         15    1    1    2    0    0  0.17375286606E+01 -0.30512306170E+02  0.47071172605E+02  0.56150448378E+02  0.17770000000E+01 0.  1.
</event>
<event>
 6    1  0.1108180E-002  0.1834707E+03  0.7546771E-02  0.1067685E+00
        -11   -1    0    0    0    0  0.00000000000E+00  0.00000000000E+00  0.18250000000E+03  0.18250000000E+03  0.00000000000E+00 0.  1.
         11   -1    0    0    0    0 -0.00000000000E+00 -0.00000000000E+00 -0.18250000000E+03  0.18250000000E+03  0.00000000000E+00 0.  1.
        -11    1    1    2    0    0 -0.23766216320E+01 -0.30754387148E+01  0.83632198337E+02  0.83722465637E+02  0.00000000000E+00 0.  1.
         11    1    1    2    0    0 -0.25592308808E+01 -0.56511790576E+01 -0.18142327172E+03  0.18152930620E+03  0.00000000000E+00 0.  1.
        -15    1    1    2    0    0  0.10784699019E+02  0.42283902001E+01  0.68185797004E+02  0.69185617426E+02  0.17770000000E+01 0.  1.
         15    1    1    2    0    0 -0.58488465057E+01  0.44982275723E+01  0.29605276378E+02  0.30562610739E+02  0.17770000000E+01 0. -1.
</event>
<event>
 6    1  0.1108180E-002  0.1825561E+03  0.7546771E-02  0.1068410E+00
        -11   -1    0    0    0    0  0.00000000000E+00  0.00000000000E+00  0.18250000000E+03  0.18250000000E+03  0.00000000000E+00 0.  1.
         11   -1    0    0    0    0 -0.00000000000E+00 -0.00000000000E+00 -0.18250000000E+03  0.18250000000E+03  0.00000000000E+00 0. -1.
        -11    1    1    2    0    0  0.29172511342E+01  0.19120274510E+00  0.18242044470E+03  0.18244386961E+03  0.00000000000E+00 0.  1.
         11    1    1    2    0    0 -0.13576201869E+01  0.46940180269E+00 -0.44103830386E+02  0.44127217512E+02  0.00000000000E+00 0. -1.
        -15    1    1    2    0    0 -0.19589090957E+00 -0.18308794083E+01 -0.97851836605E+02  0.97885290768E+02  0.17770000000E+01 0. -1.
         15    1    1    2    0    0 -0.13637400377E+01  0.11702748605E+01 -0.40464777708E+02  0.40543622114E+02  0.17770000000E+01 0.  1.
</event>
<event>
 6    1  0.1108180E-002  0.1860248E+03  0.7546771E-02  0.1065683E+00
        -11   -1    0    0    0    0  0.00000000000E+00  0.00000000000E+00  0.18250000000E+03  0.18250000000E+03  0.00000000000E+00 0. -1.
         11   -1    0    0    0    0 -0.00000000000E+00 -0.00000000000E+00 -0.18250000000E+03  0.18250000000E+03  0.00000000000E+00 0.  1.
        -11    1    1    2    0    0  0.52413942934E+01 -0.36469426149E+01  0.17886127229E+03  0.17897521373E+03  0.00000000000E+00 0. -1.
         11    1    1    2    0    0 -0.23797296237E+00 -0.23284780344E+01 -0.15053993841E+03  0.15055813329E+03  0.00000000000E+00 0.  1.
        -15    1    1    2    0    0  0.29029491915E+01  0.11196163933E+02 -0.15989774113E+02  0.19814434284E+02  0.17770000000E+01 0. -1.
         15    1    1    2    0    0 -0.79063705225E+01 -0.52207432835E+01 -0.12331559759E+02  0.15652218704E+02  0.17770000000E+01 0.  1.
</event>
<event>
 6    1  0.1108180E-002  0.1830817E+03  0.7546771E-02  0.1067993E+00
        -11   -1    0    0    0    0  0.00000000000E+00  0.00000000000E+00  0.18250000000E+03  0.18250000000E+03  0.00000000000E+00 0.  1.
         11   -1    0    0    0    0 -0.00000000000E+00 -0.00000000000E+00 -0.18250000000E+03  0.18250000000E+03  0.00000000000E+00 0.  1.
        -11    1    1    2    0    0  0.11743840419E+01  0.65393739259E+00  0.58821472906E+02  0.58836829341E+02  0.00000000000E+00 0.  1.
         11    1    1    2    0    0 -0.12635436098E+02  0.12663101138E+02 -0.18103663024E+03  0.18191830547E+03  0.00000000000E+00 0.  1.
        -15    1    1    2    0    0  0.12926506839E+02 -0.57121963115E+01  0.85650581563E+02  0.86826859997E+02  0.17770000000E+01 0.  1.
         15    1    1    2    0    0 -0.14654547827E+01 -0.76048422192E+01  0.36564575767E+02  0.37418005197E+02  0.17770000000E+01 0. -1.
</event>
<event>
 6    1  0.1108180E-002  0.1829743E+03  0.7546771E-02  0.1068078E+00
        -11   -1    0    0    0    0  0.00000000000E+00  0.00000000000E+00  0.18250000000E+03  0.18250000000E+03  0.00000000000E+00 0.  1.
         11   -1    0    0    0    0 -0.00000000000E+00 -0.00000000000E+00 -0.18250000000E+03  0.18250000000E+03  0.00000000000E+00 0.  1.
        -11    1    1    2    0    0 -0.25982078261E+01  0.23601819652E+00  0.15196613173E+03  0.15198852450E+03  0.00000000000E+00 0.  1.
         11    1    1    2    0    0  0.62029027731E+00 -0.33730762123E+01 -0.18199334858E+03  0.18202566119E+03  0.00000000000E+00 0.  1.
        -15    1    1    2    0    0  0.37245197987E+00  0.42314417458E+01  0.13840183162E+02  0.14586028201E+02  0.17770000000E+01 0.  1.
         15    1    1    2    0    0  0.16054655689E+01 -0.10943837301E+01  0.16187033696E+02  0.16399786106E+02  0.17770000000E+01 0. -1.
</event>
<event>
 6    1  0.1108180E-002  0.1844502E+03  0.7546771E-02  0.1066913E+00
        -11   -1    0    0    0    0  0.00000000000E+00  0.00000000000E+00  0.18250000000E+03  0.18250000000E+03  0.00000000000E+00 0. -1.
         11   -1    0    0    0    0 -0.00000000000E+00 -0.00000000000E+00 -0.18250000000E+03  0.18250000000E+03  0.00000000000E+00 0. -1.
        -11    1    1    2    0    0  0.63473439545E+01  0.37534251703E+01  0.40829098048E+02  0.41489664053E+02  0.00000000000E+00 0. -1.
         11    1    1    2    0    0 -0.31666816103E+01  0.56078511325E+00 -0.18052114615E+03  0.18054978969E+03  0.00000000000E+00 0. -1.
        -15    1    1    2    0    0 -0.36054109773E+01 -0.85080580578E+00  0.13890588009E+03  0.13896662949E+03  0.17770000000E+01 0. -1.
         15    1    1    2    0    0  0.42474863313E+00 -0.34634044778E+01  0.78616800791E+00  0.39939167636E+01  0.17770000000E+01 0.  1.
</event>
<event>
 6    1  0.1108180E-002  0.1864055E+03  0.7546771E-02  0.1065388E+00
        -11   -1    0    0    0    0  0.00000000000E+00  0.00000000000E+00  0.18250000000E+03  0.18250000000E+03  0.00000000000E+00 0. -1.
         11   -1    0    0    0    0 -0.00000000000E+00 -0.00000000000E+00 -0.18250000000E+03  0.18250000000E+03  0.00000000000E+00 0. -1.
        -11    1    1    2    0    0 -0.28470891371E+01 -0.11634133093E+01  0.17856805191E+03  0.17859453690E+03  0.00000000000E+00 0. -1.
         11    1    1    2    0    0  0.61555331671E+01  0.31213563117E+01 -0.16778358007E+03  0.16792546917E+03  0.00000000000E+00 0. -1.
        -15    1    1    2    0    0  0.24999263613E+01  0.45270632145E+01 -0.15922341922E+01  0.56953377321E+01  0.17770000000E+01 0.  1.
         15    1    1    2    0    0 -0.58083703913E+01 -0.64850062169E+01 -0.91922376433E+01  0.12784656199E+02  0.17770000000E+01 0. -1.
</event>
<event>
 6    1  0.1108180E-002  0.1828072E+03  0.7546771E-02  0.1068211E+00
        -11   -1    0    0    0    0  0.00000000000E+00  0.00000000000E+00  0.18250000000E+03  0.18250000000E+03  0.00000000000E+00 0. -1.
         11   -1    0    0    0    0 -0.00000000000E+00 -0.00000000000E+00 -0.18250000000E+03  0.18250000000E+03  0.00000000000E+00 0.  1.
        -11    1    1    2    0    0  0.23308096411E+01 -0.61197963092E-01  0.12338739020E+03  0.12340941812E+03  0.00000000000E+00 0. -1.
         11    1    1    2    0    0  0.10008456242E+01 -0.24483354557E+01 -0.18217356432E+03  0.18219276489E+03  0.00000000000E+00 0.  1.
        -15    1    1    2    0    0 -0.11920607244E+01 -0.14895671745E+00  0.46033254151E+01  0.50785362804E+01  0.17770000000E+01 0. -1.
         15    1    1    2    0    0 -0.21395945409E+01  0.26584901362E+01  0.54182848705E+02  0.54319280715E+02  0.17770000000E+01 0. -1.
</event>
<event>
 6    1  0.1108180E-002  0.1863201E+03  0.7546771E-02  0.1065454E+00
        -11   -1    0    0    0    0  0.00000000000E+00  0.00000000000E+00  0.18250000000E+03  0.18250000000E+03  0.00000000000E+00 0.  1.
         11   -1    0    0    0    0 -0.00000000000E+00 -0.00000000000E+00 -0.18250000000E+03  0.18250000000E+03  0.00000000000E+00 0.  1.
        -11    1    1    2    0    0  0.53153069084E+01  0.90292638113E+01  0.16572707077E+03  0.16605794795E+03  0.00000000000E+00 0.  1.
         11    1    1    2    0    0  0.23048025479E+01  0.22064838024E+01 -0.17865140287E+03  0.17867989375E+03  0.00000000000E+00 0.  1.
        -15    1    1    2    0    0 -0.26049340661E+00 -0.22480272883E+01  0.11617704671E+00  0.28797065146E+01  0.17770000000E+01 0. -1.
         15    1    1    2    0    0 -0.73596160497E+01 -0.89877203254E+01  0.12808155055E+02  0.17382451782E+02  0.17770000000E+01 0.  1.
</event>
<event>
 6    1  0.1108180E-002  0.1826744E+03  0.7546771E-02  0.1068316E+00
        -11   -1    0    0    0    0  0.00000000000E+00  0.00000000000E+00  0.18250000000E+03  0.18250000000E+03  0.00000000000E+00 0. -1.
         11   -1    0    0    0    0 -0.00000000000E+00 -0.00000000000E+00 -0.18250000000E+03  0.18250000000E+03  0.00000000000E+00 0.  1.
        -11    1    1    2    0    0  0.17636456737E+01  0.21289487367E+01  0.80409064715E+02  0.80456575599E+02  0.00000000000E+00 0. -1.
         11    1    1    2    0    0  0.25779028317E+01 -0.62409884024E+00 -0.18230634307E+03  0.18232563673E+03  0.00000000000E+00 0.  1.
        -15    1    1    2    0    0 -0.35412992981E+01 -0.33911461795E+01  0.76045947938E+02  0.76224566905E+02  0.17770000000E+01 0. -1.
         15    1    1    2    0    0 -0.80024920728E+00  0.18862962831E+01  0.25851330421E+02  0.25993220770E+02  0.17770000000E+01 0.  1.
</event>
<event>
 6    1  0.1108180E-002  0.1677539E+03  0.7546771E-02  0.1080839E+00
        -11   -1    0    0    0    0  0.00000000000E+00  0.00000000000E+00  0.18250000000E+03  0.18250000000E+03  0.00000000000E+00 0.  1.
         11   -1    0    0    0    0 -0.00000000000E+00 -0.00000000000E+00 -0.18250000000E+03  0.18250000000E+03  0.00000000000E+00 0.  1.
        -11    1    1    2    0    0  0.14821734210E+01  0.71776872562E+01  0.17140809748E+03  0.17156471640E+03  0.00000000000E+00 0.  1.
         11    1    1    2    0    0  0.19256862540E+02  0.18417766860E+01 -0.16365454267E+03  0.16479389623E+03  0.00000000000E+00 0.  1.
        -15    1    1    2    0    0 -0.81663764428E+01 -0.21693228810E+01  0.44781434707E+01  0.97266214027E+01  0.17770000000E+01 0.  1.
         15    1    1    2    0    0 -0.12572659519E+02 -0.68501410611E+01 -0.12231698275E+02  0.18914765968E+02  0.17770000000E+01 0. -1.
</event>
<event>
 6    1  0.1108180E-002  0.1850401E+03  0.7546771E-02  0.1066451E+00
        -11   -1    0    0    0    0  0.00000000000E+00  0.00000000000E+00  0.18250000000E+03  0.18250000000E+03  0.00000000000E+00 0.  1.
         11   -1    0    0    0    0 -0.00000000000E+00 -0.00000000000E+00 -0.18250000000E+03  0.18250000000E+03  0.00000000000E+00 0. -1.
        -11    1    1    2    0    0  0.59746815836E+01 -0.13825340662E+01  0.17985539408E+03  0.17995991498E+03  0.00000000000E+00 0.  1.
         11    1    1    2    0    0 -0.54929185406E+01 -0.68594235645E+01 -0.15790630576E+03  0.15815064098E+03  0.00000000000E+00 0. -1.
        -15    1    1    2    0    0  0.60692813576E+01  0.46108363106E+01 -0.11515754000E+02  0.13923588146E+02  0.17770000000E+01 0.  1.
         15    1    1    2    0    0 -0.65510444006E+01  0.36311213200E+01 -0.10433334324E+02  0.12965855887E+02  0.17770000000E+01 0. -1.
</event>
<event>
 6    1  0.1108180E-002  0.1864755E+03  0.7546771E-02  0.1065334E+00
        -11   -1    0    0    0    0  0.00000000000E+00  0.00000000000E+00  0.18250000000E+03  0.18250000000E+03  0.00000000000E+00 0. -1.
         11   -1    0    0    0    0 -0.00000000000E+00 -0.00000000000E+00 -0.18250000000E+03  0.18250000000E+03  0.00000000000E+00 0. -1.
        -11    1    1    2    0    0  0.21434480851E+01  0.23911901908E+01  0.16804879098E+03  0.16807947022E+03  0.00000000000E+00 0. -1.
         11    1    1    2    0    0 -0.40965929787E+01  0.39850119074E+01 -0.17843299466E+03  0.17852449685E+03  0.00000000000E+00 0. -1.
        -15    1    1    2    0    0 -0.53135838326E+00 -0.42364693669E+01  0.13028028977E+02  0.13824517440E+02  0.17770000000E+01 0. -1.
         15    1    1    2    0    0  0.24845032769E+01 -0.21397327314E+01 -0.26438252954E+01  0.45715154913E+01  0.17770000000E+01 0. -1.
</event>
<event>
 6    1  0.1108180E-002  0.1832370E+03  0.7546771E-02  0.1067870E+00
        -11   -1    0    0    0    0  0.00000000000E+00  0.00000000000E+00  0.18250000000E+03  0.18250000000E+03  0.00000000000E+00 0.  1.
         11   -1    0    0    0    0 -0.00000000000E+00 -0.00000000000E+00 -0.18250000000E+03  0.18250000000E+03  0.00000000000E+00 0. -1.
        -11    1    1    2    0    0  0.27368908114E+01  0.18830755471E+01  0.18173262327E+03  0.18176298552E+03  0.00000000000E+00 0.  1.
         11    1    1    2    0    0  0.26291752691E+01 -0.39203847934E+01 -0.86454687025E+02  0.86583456204E+02  0.00000000000E+00 0. -1.
        -15    1    1    2    0    0 -0.31086381176E+01  0.19516088870E+01 -0.92708943751E+02  0.92798590445E+02  0.17770000000E+01 0.  1.
         15    1    1    2    0    0 -0.22574279629E+01  0.85700359242E-01 -0.25689924926E+01  0.38549678321E+01  0.17770000000E+01 0. -1.
</event>
<event>
 6    1  0.1108180E-002  0.1881533E+03  0.7546771E-02  0.1064042E+00
        -11   -1    0    0    0    0  0.00000000000E+00  0.00000000000E+00  0.18250000000E+03  0.18250000000E+03  0.00000000000E+00 0.  1.
         11   -1    0    0    0    0 -0.00000000000E+00 -0.00000000000E+00 -0.18250000000E+03  0.18250000000E+03  0.00000000000E+00 0. -1.
        -11    1    1    2    0    0 -0.53580995907E+01  0.11854932906E+02  0.17636751156E+03  0.17684667879E+03  0.00000000000E+00 0.  1.
         11    1    1    2    0    0 -0.25271014285E+01  0.17488236679E+01 -0.16584088592E+03  0.16586935844E+03  0.00000000000E+00 0. -1.
        -15    1    1    2    0    0  0.10094454433E+02 -0.13195681315E+02 -0.83047027023E+01  0.18658773583E+02  0.17770000000E+01 0.  1.
         15    1    1    2    0    0 -0.22092534135E+01 -0.40807525870E+00 -0.22219229394E+01  0.36251891828E+01  0.17770000000E+01 0. -1.
</event>
<event>
 6    1  0.1108180E-002  0.1838475E+03  0.7546771E-02  0.1067387E+00
        -11   -1    0    0    0    0  0.00000000000E+00  0.00000000000E+00  0.18250000000E+03  0.18250000000E+03  0.00000000000E+00 0.  1.
         11   -1    0    0    0    0 -0.00000000000E+00 -0.00000000000E+00 -0.18250000000E+03  0.18250000000E+03  0.00000000000E+00 0. -1.
        -11    1    1    2    0    0 -0.42269246235E+01  0.23521544587E+01  0.90186747844E+02  0.90316382838E+02  0.00000000000E+00 0.  1.
         11    1    1    2    0    0 -0.32772058623E+01  0.98201749964E+01 -0.18085646213E+03  0.18115252085E+03  0.00000000000E+00 0. -1.
        -15    1    1    2    0    0  0.11605182774E+02 -0.12737508393E+02  0.57377802029E+02  0.59935751283E+02  0.17770000000E+01 0.  1.
         15    1    1    2    0    0 -0.41010522878E+01  0.56517893775E+00  0.33291912257E+02  0.33595345032E+02  0.17770000000E+01 0.  1.
</event>
<event>
 6    1  0.1108180E-002  0.1849607E+03  0.7546771E-02  0.1066513E+00
        -11   -1    0    0    0    0  0.00000000000E+00  0.00000000000E+00  0.18250000000E+03  0.18250000000E+03  0.00000000000E+00 0.  1.
         11   -1    0    0    0    0 -0.00000000000E+00 -0.00000000000E+00 -0.18250000000E+03  0.18250000000E+03  0.00000000000E+00 0.  1.
        -11    1    1    2    0    0  0.27924103752E+01 -0.39950203016E+00  0.18001721811E+03  0.18003931785E+03  0.00000000000E+00 0.  1.
         11    1    1    2    0    0  0.14989262634E+01  0.22001684095E+00 -0.67895908739E+02  0.67912808886E+02  0.00000000000E+00 0.  1.
        -15    1    1    2    0    0  0.15761246862E+01 -0.68999301303E+01 -0.36249318906E+01  0.81480712467E+01  0.17770000000E+01 0. -1.
         15    1    1    2    0    0 -0.58674613248E+01  0.70794153195E+01 -0.10849637748E+03  0.10889980201E+03  0.17770000000E+01 0.  1.
</event>
<event>
 6    1  0.1108180E-002  0.1826295E+03  0.7546771E-02  0.1068352E+00
        -11   -1    0    0    0    0  0.00000000000E+00  0.00000000000E+00  0.18250000000E+03  0.18250000000E+03  0.00000000000E+00 0.  1.
         11   -1    0    0    0    0 -0.00000000000E+00 -0.00000000000E+00 -0.18250000000E+03  0.18250000000E+03  0.00000000000E+00 0. -1.
        -11    1    1    2    0    0 -0.28232577481E+01  0.11995384181E+01  0.18234468688E+03  0.18237048695E+03  0.00000000000E+00 0.  1.
         11    1    1    2    0    0  0.38473357507E+00 -0.21057946699E+01 -0.12783522244E+03  0.12785314422E+03  0.00000000000E+00 0. -1.
        -15    1    1    2    0    0  0.25266294125E+01  0.15195516415E+01 -0.30623048756E+02  0.30815933176E+02  0.17770000000E+01 0.  1.
         15    1    1    2    0    0 -0.88105239487E-01 -0.61329538967E+00 -0.23886415685E+02  0.23960435661E+02  0.17770000000E+01 0.  1.
</event>
<event>
 6    1  0.1108180E-002  0.1861785E+03  0.7546771E-02  0.1065564E+00
        -11   -1    0    0    0    0  0.00000000000E+00  0.00000000000E+00  0.18250000000E+03  0.18250000000E+03  0.00000000000E+00 0.  1.
         11   -1    0    0    0    0 -0.00000000000E+00 -0.00000000000E+00 -0.18250000000E+03  0.18250000000E+03  0.00000000000E+00 0. -1.
        -11    1    1    2    0    0 -0.19676160482E+01  0.21740154350E+01  0.17879744079E+03  0.17882148274E+03  0.00000000000E+00 0.  1.
         11    1    1    2    0    0  0.18808408197E+01  0.17120426427E+01 -0.17615665422E+03  0.17617501378E+03  0.00000000000E+00 0. -1.
        -15    1    1    2    0    0 -0.25718825771E+01 -0.20128715621E+01  0.18730041979E+01  0.41631845553E+01  0.17770000000E+01 0. -1.
         15    1    1    2    0    0  0.26586578056E+01 -0.18731865156E+01 -0.45137907697E+01  0.58403189264E+01  0.17770000000E+01 0.  1.
</event>
<event>
 6    1  0.1108180E-002  0.1826617E+03  0.7546771E-02  0.1068326E+00
        -11   -1    0    0    0    0  0.00000000000E+00  0.00000000000E+00  0.18250000000E+03  0.18250000000E+03  0.00000000000E+00 0.  1.
         11   -1    0    0    0    0 -0.00000000000E+00 -0.00000000000E+00 -0.18250000000E+03  0.18250000000E+03  0.00000000000E+00 0. -1.
        -11    1    1    2    0    0 -0.46039945076E+01 -0.31307636564E+00  0.18227987192E+03  0.18233827489E+03  0.00000000000E+00 0.  1.
         11    1    1    2    0    0  0.36474137868E+01 -0.58314784121E+00 -0.40584691615E+02  0.40752434065E+02  0.00000000000E+00 0. -1.
        -15    1    1    2    0    0 -0.10916279282E+00  0.38146072613E+01 -0.74400884675E+02  0.74519879995E+02  0.17770000000E+01 0.  1.
         15    1    1    2    0    0  0.10657435137E+01 -0.29183830545E+01 -0.67294295629E+02  0.67389411053E+02  0.17770000000E+01 0. -1.
</event>
<event>
 6    1  0.1108180E-002  0.1828268E+03  0.7546771E-02  0.1068195E+00
        -11   -1    0    0    0    0  0.00000000000E+00  0.00000000000E+00  0.18250000000E+03  0.18250000000E+03  0.00000000000E+00 0. -1.
         11   -1    0    0    0    0 -0.00000000000E+00 -0.00000000000E+00 -0.18250000000E+03  0.18250000000E+03  0.00000000000E+00 0.  1.
        -11    1    1    2    0    0  0.18640951362E+01 -0.26274478072E+01  0.90490711404E+02  0.90548037986E+02  0.00000000000E+00 0. -1.
         11    1    1    2    0    0 -0.20241202607E+01  0.16631656871E+01 -0.18215434741E+03  0.18217318536E+03  0.00000000000E+00 0.  1.
        -15    1    1    2    0    0 -0.12554636605E+01 -0.43460060523E+01  0.42563280386E+02  0.42839870726E+02  0.17770000000E+01 0.  1.
         15    1    1    2    0    0  0.14154887850E+01  0.53102881725E+01  0.49100355618E+02  0.49438905933E+02  0.17770000000E+01 0. -1.
</event>
<event>
 6    1  0.1108180E-002  0.1746995E+03  0.7546771E-02  0.1074839E+00
        -11   -1    0    0    0    0  0.00000000000E+00  0.00000000000E+00  0.18250000000E+03  0.18250000000E+03  0.00000000000E+00 0.  1.
         11   -1    0    0    0    0 -0.00000000000E+00 -0.00000000000E+00 -0.18250000000E+03  0.18250000000E+03  0.00000000000E+00 0. -1.
        -11    1    1    2    0    0  0.24433086915E+01  0.10700475303E+01  0.17505275818E+03  0.17507307875E+03  0.00000000000E+00 0.  1.
         11    1    1    2    0    0  0.24710847283E+01  0.12522281528E+01 -0.17434688451E+03  0.17436889194E+03  0.00000000000E+00 0. -1.
        -15    1    1    2    0    0  0.15927029704E+01 -0.89615616977E+00  0.56389784148E+01  0.61883443016E+01  0.17770000000E+01 0. -1.
         15    1    1    2    0    0 -0.65070963902E+01 -0.14261195133E+01 -0.63448520768E+01  0.93696850093E+01  0.17770000000E+01 0.  1.
</event>
<event>
 6    1  0.1108180E-002  0.1842305E+03  0.7546771E-02  0.1067086E+00
        -11   -1    0    0    0    0  0.00000000000E+00  0.00000000000E+00  0.18250000000E+03  0.18250000000E+03  0.00000000000E+00 0.  1.
         11   -1    0    0    0    0 -0.00000000000E+00 -0.00000000000E+00 -0.18250000000E+03  0.18250000000E+03  0.00000000000E+00 0.  1.
        -11    1    1    2    0    0  0.17631628695E+01 -0.17058338207E+01  0.17286828212E+03  0.17288568933E+03  0.00000000000E+00 0.  1.
         11    1    1    2    0    0  0.10441816544E+01 -0.22307157886E+01 -0.18075269138E+03  0.18076947156E+03  0.00000000000E+00 0.  1.
        -15    1    1    2    0    0 -0.24633203784E+01  0.12048927492E+01  0.55256650547E+00  0.33140266394E+01  0.17770000000E+01 0.  1.
         15    1    1    2    0    0 -0.34402414555E+00  0.27316568601E+01  0.73318427551E+01  0.80308124745E+01  0.17770000000E+01 0. -1.
</event>
<event>
 6    1  0.1108180E-002  0.1863062E+03  0.7546771E-02  0.1065465E+00
        -11   -1    0    0    0    0  0.00000000000E+00  0.00000000000E+00  0.18250000000E+03  0.18250000000E+03  0.00000000000E+00 0.  1.
         11   -1    0    0    0    0 -0.00000000000E+00 -0.00000000000E+00 -0.18250000000E+03  0.18250000000E+03  0.00000000000E+00 0. -1.
        -11    1    1    2    0    0 -0.15784453121E+01  0.57091228085E+00  0.11753633812E+03  0.11754832287E+03  0.00000000000E+00 0.  1.
         11    1    1    2    0    0  0.61494855340E+00  0.24984293792E+01 -0.17867524335E+03  0.17869376849E+03  0.00000000000E+00 0. -1.
        -15    1    1    2    0    0  0.32554982738E+01  0.47280357050E+01 -0.97637856330E+00  0.60879910264E+01  0.17770000000E+01 0.  1.
         15    1    1    2    0    0 -0.22920015151E+01 -0.77973773650E+01  0.62115283788E+02  0.62669917614E+02  0.17770000000E+01 0. -1.
</event>
<event>
 6    1  0.1108180E-002  0.1849326E+03  0.7546771E-02  0.1066535E+00
        -11   -1    0    0    0    0  0.00000000000E+00  0.00000000000E+00  0.18250000000E+03  0.18250000000E+03  0.00000000000E+00 0.  1.
         11   -1    0    0    0    0 -0.00000000000E+00 -0.00000000000E+00 -0.18250000000E+03  0.18250000000E+03  0.00000000000E+00 0.  1.
        -11    1    1    2    0    0  0.15560202912E+00 -0.33934717530E+01  0.18003533836E+03  0.18006738439E+03  0.00000000000E+00 0.  1.
         11    1    1    2    0    0  0.51794943862E+01  0.39633476209E+01 -0.16192243635E+03  0.16205372775E+03  0.00000000000E+00 0.  1.
        -15    1    1    2    0    0 -0.43001922182E+01  0.14087207926E+00 -0.19425225322E-01  0.46550622333E+01  0.17770000000E+01 0. -1.
         15    1    1    2    0    0 -0.10349041971E+01 -0.71074794709E+00 -0.18093476785E+02  0.18223825628E+02  0.17770000000E+01 0.  1.
</event>
<event>
 6    1  0.1108180E-002  0.1850488E+03  0.7546771E-02  0.1066444E+00
        -11   -1    0    0    0    0  0.00000000000E+00  0.00000000000E+00  0.18250000000E+03  0.18250000000E+03  0.00000000000E+00 0. -1.
         11   -1    0    0    0    0 -0.00000000000E+00 -0.00000000000E+00 -0.18250000000E+03  0.18250000000E+03  0.00000000000E+00 0.  1.
        -11    1    1    2    0    0 -0.24764512676E+01 -0.54959352126E+01  0.17985016736E+03  0.17995116230E+03  0.00000000000E+00 0. -1.
         11    1    1    2    0    0 -0.17737017005E+01  0.23566269035E+01 -0.15944560670E+03  0.15947288548E+03  0.00000000000E+00 0.  1.
        -15    1    1    2    0    0  0.17023835595E+01  0.22939436484E+01 -0.21806651370E+02  0.22064633698E+02  0.17770000000E+01 0.  1.
         15    1    1    2    0    0  0.25477694086E+01  0.84536466066E+00  0.14020907169E+01  0.35113185198E+01  0.17770000000E+01 0. -1.
</event>
<event>
 6    1  0.1108180E-002  0.1826373E+03  0.7546771E-02  0.1068346E+00
        -11   -1    0    0    0    0  0.00000000000E+00  0.00000000000E+00  0.18250000000E+03  0.18250000000E+03  0.00000000000E+00 0. -1.
         11   -1    0    0    0    0 -0.00000000000E+00 -0.00000000000E+00 -0.18250000000E+03  0.18250000000E+03  0.00000000000E+00 0.  1.
        -11    1    1    2    0    0  0.19874393399E+01  0.27208121245E-01  0.99219335938E+02  0.99239242638E+02  0.00000000000E+00 0. -1.
         11    1    1    2    0    0 -0.84421135954E+00  0.24109573132E+01 -0.18234476149E+03  0.18236265366E+03  0.00000000000E+00 0.  1.
        -15    1    1    2    0    0 -0.30296663183E+01 -0.85506884421E+00  0.38439602838E+02  0.38609206364E+02  0.17770000000E+01 0. -1.
         15    1    1    2    0    0  0.18864383380E+01 -0.15830965902E+01  0.44685822712E+02  0.44788897339E+02  0.17770000000E+01 0.  1.
</event>
<event>
 6    1  0.1108180E-002  0.1829594E+03  0.7546771E-02  0.1068090E+00
        -11   -1    0    0    0    0  0.00000000000E+00  0.00000000000E+00  0.18250000000E+03  0.18250000000E+03  0.00000000000E+00 0. -1.
         11   -1    0    0    0    0 -0.00000000000E+00 -0.00000000000E+00 -0.18250000000E+03  0.18250000000E+03  0.00000000000E+00 0. -1.
        -11    1    1    2    0    0  0.14494987083E+01  0.31229987064E+01  0.18200807766E+03  0.18204063970E+03  0.00000000000E+00 0. -1.
         11    1    1    2    0    0 -0.32014391674E+01 -0.82536547116E+00 -0.93945167481E+02  0.94003324058E+02  0.00000000000E+00 0. -1.
        -15    1    1    2    0    0  0.19659061059E+01  0.24562295990E+01 -0.72398310607E+02  0.72488419478E+02  0.17770000000E+01 0. -1.
         15    1    1    2    0    0 -0.21396564677E+00 -0.47538628343E+01 -0.15664599574E+02  0.16467616766E+02  0.17770000000E+01 0. -1.
</event>
<event>
 6    1  0.1108180E-002  0.1834643E+03  0.7546771E-02  0.1067690E+00
        -11   -1    0    0    0    0  0.00000000000E+00  0.00000000000E+00  0.18250000000E+03  0.18250000000E+03  0.00000000000E+00 0.  1.
         11   -1    0    0    0    0 -0.00000000000E+00 -0.00000000000E+00 -0.18250000000E+03  0.18250000000E+03  0.00000000000E+00 0.  1.
        -11    1    1    2    0    0 -0.14372421570E+01 -0.22820423389E+01  0.18151567203E+03  0.18153570606E+03  0.00000000000E+00 0.  1.
         11    1    1    2    0    0 -0.22432207757E+01  0.87039747916E+00 -0.16585212042E+03  0.16586957370E+03  0.00000000000E+00 0.  1.
        -15    1    1    2    0    0  0.21295262742E+01 -0.22687776234E+01 -0.81327684416E+01  0.88871753432E+01  0.17770000000E+01 0. -1.
         15    1    1    2    0    0  0.15509366586E+01  0.36804224831E+01 -0.75307831660E+01  0.87075449047E+01  0.17770000000E+01 0.  1.
</event>
<event>
 6    1  0.1108180E-002  0.1848457E+03  0.7546771E-02  0.1066603E+00
        -11   -1    0    0    0    0  0.00000000000E+00  0.00000000000E+00  0.18250000000E+03  0.18250000000E+03  0.00000000000E+00 0. -1.
         11   -1    0    0    0    0 -0.00000000000E+00 -0.00000000000E+00 -0.18250000000E+03  0.18250000000E+03  0.00000000000E+00 0. -1.
        -11    1    1    2    0    0  0.20134723827E+01 -0.40107111292E-01  0.13989485734E+03  0.13990935205E+03  0.00000000000E+00 0. -1.
         11    1    1    2    0    0 -0.98889882247E+00 -0.62026410719E+01 -0.18004473311E+03  0.18015425778E+03  0.00000000000E+00 0. -1.
        -15    1    1    2    0    0 -0.22659933400E+01  0.97366243493E+01  0.39487096672E+02  0.40771621407E+02  0.17770000000E+01 0. -1.
         15    1    1    2    0    0  0.12414197798E+01 -0.34938761661E+01  0.66277909532E+00  0.41647687646E+01  0.17770000000E+01 0.  1.
</event>
<event>
 6    1  0.1108180E-002  0.1983776E+03  0.7546771E-02  0.1056475E+00
        -11   -1    0    0    0    0  0.00000000000E+00  0.00000000000E+00  0.18250000000E+03  0.18250000000E+03  0.00000000000E+00 0. -1.
         11   -1    0    0    0    0 -0.00000000000E+00 -0.00000000000E+00 -0.18250000000E+03  0.18250000000E+03  0.00000000000E+00 0. -1.
        -11    1    1    2    0    0  0.47357370523E+01  0.77063033764E+01  0.16637670940E+03  0.16662239870E+03  0.00000000000E+00 0. -1.
         11    1    1    2    0    0  0.21695649660E+01  0.50825720235E+00 -0.14690029214E+03  0.14691719154E+03  0.00000000000E+00 0. -1.
        -15    1    1    2    0    0  0.14283109258E+01 -0.10274970204E+02 -0.33393253116E+02  0.35012600125E+02  0.17770000000E+01 0.  1.
         15    1    1    2    0    0 -0.83336129441E+01  0.20604096252E+01  0.13916835860E+02  0.16447809637E+02  0.17770000000E+01 0. -1.
</event>
<event>
 6    1  0.1108180E-002  0.1863636E+03  0.7546771E-02  0.1065420E+00
        -11   -1    0    0    0    0  0.00000000000E+00  0.00000000000E+00  0.18250000000E+03  0.18250000000E+03  0.00000000000E+00 0. -1.
         11   -1    0    0    0    0 -0.00000000000E+00 -0.00000000000E+00 -0.18250000000E+03  0.18250000000E+03  0.00000000000E+00 0.  1.
        -11    1    1    2    0    0  0.45824481698E+01  0.11826944753E+01  0.17857370170E+03  0.17863640316E+03  0.00000000000E+00 0. -1.
         11    1    1    2    0    0 -0.16201216262E+01 -0.47118983997E+00 -0.79771570927E+02  0.79789412469E+02  0.00000000000E+00 0.  1.
        -15    1    1    2    0    0 -0.57171489063E+01 -0.19315394998E+01  0.12893617780E+01  0.64215900874E+01  0.17770000000E+01 0. -1.
         15    1    1    2    0    0  0.27548223627E+01  0.12200348644E+01 -0.10009149255E+03  0.10015259428E+03  0.17770000000E+01 0.  1.
</event>
<event>
 6    1  0.1108180E-002  0.1757496E+03  0.7546771E-02  0.1073959E+00
        -11   -1    0    0    0    0  0.00000000000E+00  0.00000000000E+00  0.18250000000E+03  0.18250000000E+03  0.00000000000E+00 0. -1.
         11   -1    0    0    0    0 -0.00000000000E+00 -0.00000000000E+00 -0.18250000000E+03  0.18250000000E+03  0.00000000000E+00 0.  1.
        -11    1    1    2    0    0  0.47247690269E+01 -0.27885695114E+01  0.17811927143E+03  0.17820374412E+03  0.00000000000E+00 0. -1.
         11    1    1    2    0    0  0.32654652931E+01 -0.69754838223E+00 -0.17340294594E+03  0.17343509304E+03  0.00000000000E+00 0.  1.
        -15    1    1    2    0    0 -0.25810930189E+01  0.19637150264E+01 -0.62582440970E+01  0.72692204571E+01  0.17770000000E+01 0.  1.
         15    1    1    2    0    0 -0.54091413011E+01  0.15224028672E+01  0.15419186028E+01  0.60919423900E+01  0.17770000000E+01 0. -1.
</event>
<event>
 6    1  0.1108180E-002  0.1827963E+03  0.7546771E-02  0.1068219E+00
        -11   -1    0    0    0    0  0.00000000000E+00  0.00000000000E+00  0.18250000000E+03  0.18250000000E+03  0.00000000000E+00 0.  1.
         11   -1    0    0    0    0 -0.00000000000E+00 -0.00000000000E+00 -0.18250000000E+03  0.18250000000E+03  0.00000000000E+00 0. -1.
        -11    1    1    2    0    0  0.14946585444E+01  0.37299031736E+01  0.18215937634E+03  0.18220368978E+03  0.00000000000E+00 0.  1.
         11    1    1    2    0    0 -0.16876207683E+01  0.10276193859E+01 -0.36091664047E+02  0.36145709000E+02  0.00000000000E+00 0. -1.
        -15    1    1    2    0    0  0.24614122266E+00 -0.54323842958E+01 -0.14243888035E+03  0.14255372232E+03  0.17770000000E+01 0. -1.
         15    1    1    2    0    0 -0.53178998778E-01  0.67486173638E+00 -0.36288319469E+01  0.40968788935E+01  0.17770000000E+01 0. -1.
</event>
<event>
 6    1  0.1108180E-002  0.1836331E+03  0.7546771E-02  0.1067556E+00
        -11   -1    0    0    0    0  0.00000000000E+00  0.00000000000E+00  0.18250000000E+03  0.18250000000E+03  0.00000000000E+00 0.  1.
         11   -1    0    0    0    0 -0.00000000000E+00 -0.00000000000E+00 -0.18250000000E+03  0.18250000000E+03  0.00000000000E+00 0.  1.
        -11    1    1    2    0    0  0.90206869528E+00  0.22855154826E+01  0.15744815961E+03  0.15746733081E+03  0.00000000000E+00 0.  1.
         11    1    1    2    0    0 -0.45170047872E+00 -0.37816735038E+01 -0.18132695240E+03  0.18136694505E+03  0.00000000000E+00 0.  1.
        -15    1    1    2    0    0  0.39968011057E+00 -0.22241641732E+01  0.20679399473E+02  0.20878264824E+02  0.17770000000E+01 0. -1.
         15    1    1    2    0    0 -0.85004832712E+00  0.37203221944E+01  0.31993933200E+01  0.52874593147E+01  0.17770000000E+01 0.  1.
</event>
<event>
 6    1  0.1108180E-002  0.1828956E+03  0.7546771E-02  0.1068140E+00
        -11   -1    0    0    0    0  0.00000000000E+00  0.00000000000E+00  0.18250000000E+03  0.18250000000E+03  0.00000000000E+00 0. -1.
         11   -1    0    0    0    0 -0.00000000000E+00 -0.00000000000E+00 -0.18250000000E+03  0.18250000000E+03  0.00000000000E+00 0. -1.
        -11    1    1    2    0    0 -0.62553757170E+00  0.14415513709E+01  0.34659089196E+02  0.34694694573E+02  0.00000000000E+00 0. -1.
         11    1    1    2    0    0  0.33196025298E+01  0.14026180116E+01 -0.18206871813E+03  0.18210438001E+03  0.00000000000E+00 0. -1.
        -15    1    1    2    0    0 -0.13180281815E+01 -0.72748915039E+00  0.14162360670E+03  0.14164275535E+03  0.17770000000E+01 0. -1.
         15    1    1    2    0    0 -0.13760367766E+01 -0.21166802321E+01  0.57860222272E+01  0.65581700672E+01  0.17770000000E+01 0.  1.
</event>
<event>
 6    1  0.1108180E-002  0.2150982E+03  0.7546771E-02  0.1045113E+00
        -11   -1    0    0    0    0  0.00000000000E+00  0.00000000000E+00  0.18250000000E+03  0.18250000000E+03  0.00000000000E+00 0. -1.
         11   -1    0    0    0    0 -0.00000000000E+00 -0.00000000000E+00 -0.18250000000E+03  0.18250000000E+03  0.00000000000E+00 0.  1.
        -11    1    1    2    0    0 -0.13401413266E+02  0.20358831873E+02  0.14790700483E+03  0.14990184119E+03  0.00000000000E+00 0. -1.
         11    1    1    2    0    0  0.75741202135E+01 -0.86337484486E-02 -0.13211619053E+03  0.13233312198E+03  0.00000000000E+00 0.  1.
        -15    1    1    2    0    0 -0.34742623607E+02 -0.15779773732E+02  0.18733941482E+01  0.38245502856E+02  0.17770000000E+01 0.  1.
         15    1    1    2    0    0  0.40569916659E+02 -0.45704243928E+01 -0.17664208447E+02  0.44519533981E+02  0.17770000000E+01 0. -1.
</event>
<event>
 6    1  0.1108180E-002  0.1986331E+03  0.7546771E-02  0.1056292E+00
        -11   -1    0    0    0    0  0.00000000000E+00  0.00000000000E+00  0.18250000000E+03  0.18250000000E+03  0.00000000000E+00 0.  1.
         11   -1    0    0    0    0 -0.00000000000E+00 -0.00000000000E+00 -0.18250000000E+03  0.18250000000E+03  0.00000000000E+00 0. -1.
        -11    1    1    2    0    0  0.30901928464E+00  0.31517206412E+01  0.15519880234E+03  0.15523110862E+03  0.00000000000E+00 0.  1.
         11    1    1    2    0    0 -0.18557021409E+01 -0.17421800423E+01 -0.16634744532E+03  0.16636691794E+03  0.00000000000E+00 0. -1.
        -15    1    1    2    0    0  0.60607091431E+01  0.56372676123E+01 -0.14264471801E+02  0.16587461114E+02  0.17770000000E+01 0. -1.
         15    1    1    2    0    0 -0.45140262868E+01 -0.70468082111E+01  0.25413114782E+02  0.26814512325E+02  0.17770000000E+01 0.  1.
</event>
<event>
 6    1  0.1108180E-002  0.1862549E+03  0.7546771E-02  0.1065505E+00
        -11   -1    0    0    0    0  0.00000000000E+00  0.00000000000E+00  0.18250000000E+03  0.18250000000E+03  0.00000000000E+00 0.  1.
         11   -1    0    0    0    0 -0.00000000000E+00 -0.00000000000E+00 -0.18250000000E+03  0.18250000000E+03  0.00000000000E+00 0.  1.
        -11    1    1    2    0    0  0.21782769592E+01 -0.21086681004E+01  0.16641650627E+03  0.16644411954E+03  0.00000000000E+00 0.  1.
         11    1    1    2    0    0  0.40096656562E+01  0.32990627948E+00 -0.17869983437E+03  0.17874511758E+03  0.00000000000E+00 0.  1.
        -15    1    1    2    0    0 -0.91177627668E+00  0.11688321451E+01  0.13812547562E+02  0.14005059933E+02  0.17770000000E+01 0. -1.
         15    1    1    2    0    0 -0.52761663387E+01  0.60992967577E+00 -0.15292194645E+01  0.58057029388E+01  0.17770000000E+01 0. -1.
</event>
<event>
 6    1  0.1108180E-002  0.1827635E+03  0.7546771E-02  0.1068245E+00
        -11   -1    0    0    0    0  0.00000000000E+00  0.00000000000E+00  0.18250000000E+03  0.18250000000E+03  0.00000000000E+00 0.  1.
         11   -1    0    0    0    0 -0.00000000000E+00 -0.00000000000E+00 -0.18250000000E+03  0.18250000000E+03  0.00000000000E+00 0. -1.
        -11    1    1    2    0    0 -0.23829506437E+00 -0.18250021495E+01  0.98712298796E+02  0.98729455336E+02  0.00000000000E+00 0.  1.
         11    1    1    2    0    0  0.20455555868E+01 -0.34695633517E+01 -0.18219194277E+03  0.18223645677E+03  0.00000000000E+00 0. -1.
        -15    1    1    2    0    0 -0.41119347830E+01  0.41119986141E+01  0.42301188355E+02  0.42735989581E+02  0.17770000000E+01 0. -1.
         15    1    1    2    0    0  0.23046742605E+01  0.11825668871E+01  0.41178455618E+02  0.41298098310E+02  0.17770000000E+01 0.  1.
</event>
<event>
 6    1  0.1108180E-002  0.1846739E+03  0.7546771E-02  0.1066737E+00
        -11   -1    0    0    0    0  0.00000000000E+00  0.00000000000E+00  0.18250000000E+03  0.18250000000E+03  0.00000000000E+00 0. -1.
         11   -1    0    0    0    0 -0.00000000000E+00 -0.00000000000E+00 -0.18250000000E+03  0.18250000000E+03  0.00000000000E+00 0.  1.
        -11    1    1    2    0    0 -0.21241681272E+01  0.13583462915E+01  0.18030846309E+03  0.18032609089E+03  0.00000000000E+00 0. -1.
         11    1    1    2    0    0 -0.17284563250E+01  0.10770487434E+02 -0.14315293790E+03  0.14356794416E+03  0.00000000000E+00 0.  1.
        -15    1    1    2    0    0 -0.18256147943E+00 -0.32857086681E+01 -0.13727475413E+01  0.39838894259E+01  0.17770000000E+01 0. -1.
         15    1    1    2    0    0  0.40351859316E+01 -0.88431250570E+01 -0.35782777649E+02  0.37122075529E+02  0.17770000000E+01 0.  1.
</event>
<event>
 6    1  0.1108180E-002  0.1846240E+03  0.7546771E-02  0.1066777E+00
        -11   -1    0    0    0    0  0.00000000000E+00  0.00000000000E+00  0.18250000000E+03  0.18250000000E+03  0.00000000000E+00 0.  1.
         11   -1    0    0    0    0 -0.00000000000E+00 -0.00000000000E+00 -0.18250000000E+03  0.18250000000E+03  0.00000000000E+00 0. -1.
        -11    1    1    2    0    0 -0.16298005515E+01  0.43717203644E+01  0.86163843304E+02  0.86290069427E+02  0.00000000000E+00 0.  1.
         11    1    1    2    0    0  0.44717692191E+01  0.32911293388E+01 -0.18029051074E+03  0.18037598653E+03  0.00000000000E+00 0. -1.
        -15    1    1    2    0    0  0.68166466010E+01 -0.60380905902E+01  0.82534630678E+02  0.83054489337E+02  0.17770000000E+01 0.  1.
         15    1    1    2    0    0 -0.96586152686E+01 -0.16247591130E+01  0.11592036758E+02  0.15279454711E+02  0.17770000000E+01 0.  1.
</event>
<event>
 6    1  0.1108180E-002  0.1855667E+03  0.7546771E-02  0.1066040E+00
        -11   -1    0    0    0    0  0.00000000000E+00  0.00000000000E+00  0.18250000000E+03  0.18250000000E+03  0.00000000000E+00 0.  1.
         11   -1    0    0    0    0 -0.00000000000E+00 -0.00000000000E+00 -0.18250000000E+03  0.18250000000E+03  0.00000000000E+00 0.  1.
        -11    1    1    2    0    0 -0.73990568106E+00 -0.33269604803E+01  0.17533471244E+03  0.17536783488E+03  0.00000000000E+00 0.  1.
         11    1    1    2    0    0 -0.16983862176E+01 -0.17944371186E+01 -0.17941627495E+03  0.17943328632E+03  0.00000000000E+00 0.  1.
        -15    1    1    2    0    0  0.32720961224E+01  0.14197345433E+01  0.44731157500E+01  0.59907222203E+01  0.17770000000E+01 0. -1.
         15    1    1    2    0    0 -0.83380422376E+00  0.37016630556E+01 -0.39155323362E+00  0.42081565792E+01  0.17770000000E+01 0.  1.
</event>
<event>
 6    1  0.1108180E-002  0.1829508E+03  0.7546771E-02  0.1068097E+00
        -11   -1    0    0    0    0  0.00000000000E+00  0.00000000000E+00  0.18250000000E+03  0.18250000000E+03  0.00000000000E+00 0.  1.
         11   -1    0    0    0    0 -0.00000000000E+00 -0.00000000000E+00 -0.18250000000E+03  0.18250000000E+03  0.00000000000E+00 0.  1.
        -11    1    1    2    0    0  0.19145340020E+01  0.11572383916E+01  0.12175655545E+03  0.12177710555E+03  0.00000000000E+00 0.  1.
         11    1    1    2    0    0  0.44680912311E+01 -0.60766280588E+00 -0.18199332847E+03  0.18204918209E+03  0.00000000000E+00 0.  1.
        -15    1    1    2    0    0 -0.24689443302E+01 -0.14685463654E+01  0.48871929212E+02  0.48988524253E+02  0.17770000000E+01 0.  1.
         15    1    1    2    0    0 -0.39136809029E+01  0.91897077971E+00  0.11364843801E+02  0.12185188104E+02  0.17770000000E+01 0. -1.
</event>
<event>
 6    1  0.1108180E-002  0.1835003E+03  0.7546771E-02  0.1067661E+00
        -11   -1    0    0    0    0  0.00000000000E+00  0.00000000000E+00  0.18250000000E+03  0.18250000000E+03  0.00000000000E+00 0.  1.
         11   -1    0    0    0    0 -0.00000000000E+00 -0.00000000000E+00 -0.18250000000E+03  0.18250000000E+03  0.00000000000E+00 0. -1.
        -11    1    1    2    0    0  0.27448994675E+01 -0.14105403104E+01  0.15726194702E+03  0.15729222510E+03  0.00000000000E+00 0.  1.
         11    1    1    2    0    0 -0.18586400435E+01 -0.60393901111E+01 -0.18138963496E+03  0.18149966514E+03  0.00000000000E+00 0. -1.
        -15    1    1    2    0    0  0.18196667391E+01  0.53418147974E+01  0.10596925735E+02  0.12136669082E+02  0.17770000000E+01 0.  1.
         15    1    1    2    0    0 -0.27059261631E+01  0.21081156241E+01  0.13530762208E+02  0.14071440680E+02  0.17770000000E+01 0. -1.
</event>
<event>
 6    1  0.1108180E-002  0.1675378E+03  0.7546771E-02  0.1081031E+00
        -11   -1    0    0    0    0  0.00000000000E+00  0.00000000000E+00  0.18250000000E+03  0.18250000000E+03  0.00000000000E+00 0.  1.
         11   -1    0    0    0    0 -0.00000000000E+00 -0.00000000000E+00 -0.18250000000E+03  0.18250000000E+03  0.00000000000E+00 0. -1.
        -11    1    1    2    0    0  0.17980392141E+02 -0.31109974173E+00  0.16900400738E+03  0.16995807070E+03  0.00000000000E+00 0.  1.
         11    1    1    2    0    0 -0.17008599451E+01  0.90969557616E+01 -0.16538859969E+03  0.16564732547E+03  0.00000000000E+00 0. -1.
        -15    1    1    2    0    0 -0.23764404516E+01 -0.45082492525E+01 -0.11536382957E+02  0.12736468948E+02  0.17770000000E+01 0. -1.
         15    1    1    2    0    0 -0.13903091745E+02 -0.42776067673E+01  0.79209752638E+01  0.16658134885E+02  0.17770000000E+01 0.  1.
</event>
<event>
 6    1  0.1108180E-002  0.1830203E+03  0.7546771E-02  0.1068041E+00
        -11   -1    0    0    0    0  0.00000000000E+00  0.00000000000E+00  0.18250000000E+03  0.18250000000E+03  0.00000000000E+00 0. -1.
         11   -1    0    0    0    0 -0.00000000000E+00 -0.00000000000E+00 -0.18250000000E+03  0.18250000000E+03  0.00000000000E+00 0.  1.
        -11    1    1    2    0    0 -0.27784760329E+01 -0.28284336831E+00  0.13642058888E+03  0.13644917369E+03  0.00000000000E+00 0. -1.
         11    1    1    2    0    0  0.99479281476E+00 -0.43957007806E+01 -0.18192390086E+03  0.18197971728E+03  0.00000000000E+00 0.  1.
        -15    1    1    2    0    0  0.39179350480E+01  0.54678157212E+01  0.34559756139E+02  0.35253109043E+02  0.17770000000E+01 0. -1.
         15    1    1    2    0    0 -0.21342518298E+01 -0.78927157225E+00  0.10943555835E+02  0.11317999991E+02  0.17770000000E+01 0. -1.
</event>
<event>
 6    1  0.1108180E-002  0.1838486E+03  0.7546771E-02  0.1067386E+00
        -11   -1    0    0    0    0  0.00000000000E+00  0.00000000000E+00  0.18250000000E+03  0.18250000000E+03  0.00000000000E+00 0.  1.
         11   -1    0    0    0    0 -0.00000000000E+00 -0.00000000000E+00 -0.18250000000E+03  0.18250000000E+03  0.00000000000E+00 0. -1.
        -11    1    1    2    0    0  0.11334494421E+01  0.69377436761E+01  0.18101496854E+03  0.18115141686E+03  0.00000000000E+00 0.  1.
         11    1    1    2    0    0  0.12428394942E+00 -0.56764148219E+01 -0.12524511127E+03  0.12537374138E+03  0.00000000000E+00 0. -1.
        -15    1    1    2    0    0  0.13940702305E+01 -0.66211020543E+01 -0.95624917629E+01  0.11848265778E+02  0.17770000000E+01 0.  1.
         15    1    1    2    0    0 -0.26518036220E+01  0.53597732002E+01 -0.46207365510E+02  0.46626575980E+02  0.17770000000E+01 0. -1.
</event>
<event>
 6    1  0.1108180E-002  0.1843765E+03  0.7546771E-02  0.1066971E+00
        -11   -1    0    0    0    0  0.00000000000E+00  0.00000000000E+00  0.18250000000E+03  0.18250000000E+03  0.00000000000E+00 0.  1.
         11   -1    0    0    0    0 -0.00000000000E+00 -0.00000000000E+00 -0.18250000000E+03  0.18250000000E+03  0.00000000000E+00 0. -1.
        -11    1    1    2    0    0  0.58541661745E+01 -0.45766948779E+01  0.18047058228E+03  0.18062349921E+03  0.00000000000E+00 0.  1.
         11    1    1    2    0    0 -0.50297513632E+00 -0.35893603100E+01 -0.12430556300E+03  0.12435839129E+03  0.00000000000E+00 0. -1.
        -15    1    1    2    0    0 -0.12183828061E+02  0.44990405165E+01 -0.32157091420E+02  0.34726406227E+02  0.17770000000E+01 0.  1.
         15    1    1    2    0    0  0.68326370232E+01  0.36670146713E+01 -0.24007927859E+02  0.25291703272E+02  0.17770000000E+01 0. -1.
</event>
<event>
 6    1  0.1108180E-002  0.1693285E+03  0.7546771E-02  0.1079451E+00
        -11   -1    0    0    0    0  0.00000000000E+00  0.00000000000E+00  0.18250000000E+03  0.18250000000E+03  0.00000000000E+00 0. -1.
         11   -1    0    0    0    0 -0.00000000000E+00 -0.00000000000E+00 -0.18250000000E+03  0.18250000000E+03  0.00000000000E+00 0.  1.
        -11    1    1    2    0    0 -0.26649195299E+00 -0.13981164165E+02  0.16820478988E+03  0.16878505653E+03  0.00000000000E+00 0. -1.
         11    1    1    2    0    0  0.42171368560E+01 -0.44760239383E+01 -0.17029306466E+03  0.17040406951E+03  0.00000000000E+00 0.  1.
        -15    1    1    2    0    0 -0.60162589909E+00  0.78351575597E+00 -0.57574293830E+01  0.61058638015E+01  0.17770000000E+01 0. -1.
         15    1    1    2    0    0 -0.33490190039E+01  0.17673672347E+02  0.78457041621E+01  0.19705010158E+02  0.17770000000E+01 0.  1.
</event>
<event>
 6    1  0.1108180E-002  0.1829882E+03  0.7546771E-02  0.1068067E+00
        -11   -1    0    0    0    0  0.00000000000E+00  0.00000000000E+00  0.18250000000E+03  0.18250000000E+03  0.00000000000E+00 0. -1.
         11   -1    0    0    0    0 -0.00000000000E+00 -0.00000000000E+00 -0.18250000000E+03  0.18250000000E+03  0.00000000000E+00 0.  1.
        -11    1    1    2    0    0 -0.19455913307E+01 -0.37085152668E+01  0.13483835743E+03  0.13490337670E+03  0.00000000000E+00 0. -1.
         11    1    1    2    0    0  0.30433931480E+01  0.30109243636E+01 -0.18196148415E+03  0.18201183923E+03  0.00000000000E+00 0.  1.
        -15    1    1    2    0    0 -0.27311680545E+01 -0.25144945059E+01  0.36429566849E+02  0.36661328827E+02  0.17770000000E+01 0.  1.
         15    1    1    2    0    0  0.16333662373E+01  0.32120854091E+01  0.10693559873E+02  0.11423455243E+02  0.17770000000E+01 0. -1.
</event>
<event>
 6    1  0.1108180E-002  0.1410421E+03  0.7546771E-02  0.1107278E+00
        -11   -1    0    0    0    0  0.00000000000E+00  0.00000000000E+00  0.18250000000E+03  0.18250000000E+03  0.00000000000E+00 0.  1.
         11   -1    0    0    0    0 -0.00000000000E+00 -0.00000000000E+00 -0.18250000000E+03  0.18250000000E+03  0.00000000000E+00 0.  1.
        -11    1    1    2    0    0  0.27999064685E+00 -0.56442277333E+01  0.14033348804E+00  0.56529103085E+01  0.00000000000E+00 0.  1.
         11    1    1    2    0    0  0.41585760796E+01  0.44356283774E+00 -0.16645492711E+03  0.16650745708E+03  0.00000000000E+00 0.  1.
        -15    1    1    2    0    0 -0.68642077523E+01  0.47340165230E+02  0.50600542721E+02  0.69654728804E+02  0.17770000000E+01 0.  1.
         15    1    1    2    0    0  0.24256410258E+01 -0.42139500334E+02  0.11571405090E+03  0.12318490381E+03  0.17770000000E+01 0. -1.
</event>
<event>
 6    1  0.1108180E-002  0.1906265E+03  0.7546771E-02  0.1062164E+00
        -11   -1    0    0    0    0  0.00000000000E+00  0.00000000000E+00  0.18250000000E+03  0.18250000000E+03  0.00000000000E+00 0. -1.
         11   -1    0    0    0    0 -0.00000000000E+00 -0.00000000000E+00 -0.18250000000E+03  0.18250000000E+03  0.00000000000E+00 0. -1.
        -11    1    1    2    0    0 -0.51976160150E+01  0.93180410673E+01  0.17404680047E+03  0.17437353542E+03  0.00000000000E+00 0. -1.
         11    1    1    2    0    0  0.39791552021E+01 -0.32466759340E+00 -0.16317721345E+03  0.16322604594E+03  0.00000000000E+00 0. -1.
        -15    1    1    2    0    0  0.20866952341E+01  0.35158882961E+01 -0.13713920598E+02  0.14420302170E+02  0.17770000000E+01 0. -1.
         15    1    1    2    0    0 -0.86823442131E+00 -0.12509261770E+02  0.28443335777E+01  0.12980116469E+02  0.17770000000E+01 0.  1.
</event>
<event>
 6    1  0.1108180E-002  0.1698739E+03  0.7546771E-02  0.1078974E+00
        -11   -1    0    0    0    0  0.00000000000E+00  0.00000000000E+00  0.18250000000E+03  0.18250000000E+03  0.00000000000E+00 0. -1.
         11   -1    0    0    0    0 -0.00000000000E+00 -0.00000000000E+00 -0.18250000000E+03  0.18250000000E+03  0.00000000000E+00 0. -1.
        -11    1    1    2    0    0 -0.20591832293E+01  0.21121984260E+01  0.16799399394E+03  0.16801989054E+03  0.00000000000E+00 0. -1.
         11    1    1    2    0    0 -0.26655169679E+01  0.59549786739E+01 -0.17175351213E+03  0.17187738560E+03  0.00000000000E+00 0. -1.
        -15    1    1    2    0    0  0.12389902723E+02  0.68245878331E+00 -0.61062558777E+00  0.12550140720E+02  0.17770000000E+01 0.  1.
         15    1    1    2    0    0 -0.76652025256E+01 -0.87496358831E+01  0.43701437740E+01  0.12552583139E+02  0.17770000000E+01 0. -1.
</event>
<event>
 6    1  0.1108180E-002  0.1847128E+03  0.7546771E-02  0.1066707E+00
        -11   -1    0    0    0    0  0.00000000000E+00  0.00000000000E+00  0.18250000000E+03  0.18250000000E+03  0.00000000000E+00 0.  1.
         11   -1    0    0    0    0 -0.00000000000E+00 -0.00000000000E+00 -0.18250000000E+03  0.18250000000E+03  0.00000000000E+00 0. -1.
        -11    1    1    2    0    0 -0.72606512503E+01  0.24446678203E+01  0.17045073886E+03  0.17062282331E+03  0.00000000000E+00 0.  1.
         11    1    1    2    0    0  0.88329204096E+00  0.33873548937E+01 -0.18025320991E+03  0.18028719883E+03  0.00000000000E+00 0. -1.
        -15    1    1    2    0    0  0.47750915487E+01 -0.29155712546E+01  0.79634105545E+01  0.98932144269E+01  0.17770000000E+01 0. -1.
         15    1    1    2    0    0  0.16022676607E+01 -0.29164514594E+01  0.18390604967E+01  0.41967634294E+01  0.17770000000E+01 0.  1.
</event>
<event>
 6    1  0.1108180E-002  0.1849588E+03  0.7546771E-02  0.1066514E+00
        -11   -1    0    0    0    0  0.00000000000E+00  0.00000000000E+00  0.18250000000E+03  0.18250000000E+03  0.00000000000E+00 0. -1.
         11   -1    0    0    0    0 -0.00000000000E+00 -0.00000000000E+00 -0.18250000000E+03  0.18250000000E+03  0.00000000000E+00 0. -1.
        -11    1    1    2    0    0  0.13684525095E+01 -0.34017033308E+01  0.15321583925E+03  0.15325970653E+03  0.00000000000E+00 0. -1.
         11    1    1    2    0    0 -0.47574172168E+01  0.46474977171E+01 -0.17991834317E+03  0.18004122434E+03  0.00000000000E+00 0. -1.
        -15    1    1    2    0    0  0.65911068965E+01 -0.45556709768E+01  0.53813286990E+01  0.98139317165E+01  0.17770000000E+01 0.  1.
         15    1    1    2    0    0 -0.32021421892E+01  0.33098765905E+01  0.21321175221E+02  0.21885137410E+02  0.17770000000E+01 0. -1.
</event>
<event>
 6    1  0.1108180E-002  0.1841982E+03  0.7546771E-02  0.1067111E+00
        -11   -1    0    0    0    0  0.00000000000E+00  0.00000000000E+00  0.18250000000E+03  0.18250000000E+03  0.00000000000E+00 0.  1.
         11   -1    0    0    0    0 -0.00000000000E+00 -0.00000000000E+00 -0.18250000000E+03  0.18250000000E+03  0.00000000000E+00 0.  1.
        -11    1    1    2    0    0 -0.23724415667E+01  0.30159900798E+01  0.18076105639E+03  0.18080178147E+03  0.00000000000E+00 0.  1.
         11    1    1    2    0    0  0.48947534349E+00 -0.30735959462E+01 -0.17345330195E+03  0.17348122243E+03  0.00000000000E+00 0.  1.
        -15    1    1    2    0    0 -0.83936115774E+00  0.27803916045E+01 -0.44509402175E+01  0.56039006457E+01  0.17770000000E+01 0.  1.
         15    1    1    2    0    0  0.27223273809E+01 -0.27227857381E+01 -0.28568142228E+01  0.51130954468E+01  0.17770000000E+01 0.  1.
</event>
<event>
 6    1  0.1108180E-002  0.1772127E+03  0.7546771E-02  0.1072743E+00
        -11   -1    0    0    0    0  0.00000000000E+00  0.00000000000E+00  0.18250000000E+03  0.18250000000E+03  0.00000000000E+00 0. -1.
         11   -1    0    0    0    0 -0.00000000000E+00 -0.00000000000E+00 -0.18250000000E+03  0.18250000000E+03  0.00000000000E+00 0. -1.
        -11    1    1    2    0    0 -0.21213162881E+01  0.38245254522E+01  0.17811521050E+03  0.17816889512E+03  0.00000000000E+00 0. -1.
         11    1    1    2    0    0  0.33945808711E+01 -0.79333245360E+01 -0.17607719424E+03  0.17628851111E+03  0.00000000000E+00 0. -1.
        -15    1    1    2    0    0  0.11022113814E+01 -0.24042441517E+01 -0.67651663688E+00  0.32574013615E+01  0.17770000000E+01 0.  1.
         15    1    1    2    0    0 -0.23754759644E+01  0.65130432355E+01 -0.13614996194E+01  0.72851924105E+01  0.17770000000E+01 0. -1.
</event>
<event>
 6    1  0.1108180E-002  0.1890087E+03  0.7546771E-02  0.1063389E+00
        -11   -1    0    0    0    0  0.00000000000E+00  0.00000000000E+00  0.18250000000E+03  0.18250000000E+03  0.00000000000E+00 0. -1.
         11   -1    0    0    0    0 -0.00000000000E+00 -0.00000000000E+00 -0.18250000000E+03  0.18250000000E+03  0.00000000000E+00 0.  1.
        -11    1    1    2    0    0  0.14178934041E+01 -0.20565050651E+01  0.17176451253E+03  0.17178267491E+03  0.00000000000E+00 0. -1.
         11    1    1    2    0    0 -0.32491012894E+01 -0.17718615898E+01 -0.17595242422E+03  0.17599133996E+03  0.00000000000E+00 0.  1.
        -15    1    1    2    0    0 -0.91287757095E+00  0.57652107808E+01  0.91366420096E+01  0.10986671790E+02  0.17770000000E+01 0. -1.
         15    1    1    2    0    0  0.27440854562E+01 -0.19368441260E+01 -0.49487303193E+01  0.62393133382E+01  0.17770000000E+01 0.  1.
</event>
<event>
 6    1  0.1108180E-002  0.1900336E+03  0.7546771E-02  0.1062611E+00
        -11   -1    0    0    0    0  0.00000000000E+00  0.00000000000E+00  0.18250000000E+03  0.18250000000E+03  0.00000000000E+00 0. -1.
         11   -1    0    0    0    0 -0.00000000000E+00 -0.00000000000E+00 -0.18250000000E+03  0.18250000000E+03  0.00000000000E+00 0. -1.
        -11    1    1    2    0    0 -0.41791416910E+00  0.48538378647E+01  0.17489852428E+03  0.17496636302E+03  0.00000000000E+00 0. -1.
         11    1    1    2    0    0 -0.33985331471E+01  0.11094228048E+01 -0.13015746828E+03  0.13020655665E+03  0.00000000000E+00 0. -1.
        -15    1    1    2    0    0  0.46435563974E+01 -0.19032464917E+01 -0.51460596626E+02  0.51735246181E+02  0.17770000000E+01 0. -1.
         15    1    1    2    0    0 -0.82710908123E+00 -0.40600141778E+01  0.67195406320E+01  0.80918341469E+01  0.17770000000E+01 0. -1.
</event>
<event>
 6    1  0.1108180E-002  0.1830896E+03  0.7546771E-02  0.1067986E+00
        -11   -1    0    0    0    0  0.00000000000E+00  0.00000000000E+00  0.18250000000E+03  0.18250000000E+03  0.00000000000E+00 0.  1.
         11   -1    0    0    0    0 -0.00000000000E+00 -0.00000000000E+00 -0.18250000000E+03  0.18250000000E+03  0.00000000000E+00 0.  1.
        -11    1    1    2    0    0  0.28170228070E+00 -0.32904148164E+01  0.18188046150E+03  0.18191044077E+03  0.00000000000E+00 0.  1.
         11    1    1    2    0    0 -0.16754101298E+00  0.16122818930E+01 -0.96646282573E+02  0.96659875119E+02  0.00000000000E+00 0.  1.
        -15    1    1    2    0    0 -0.43597241633E+01 -0.31797371291E+01 -0.61746553625E+02  0.62007358729E+02  0.17770000000E+01 0. -1.
         15    1    1    2    0    0  0.42455628956E+01  0.48578700525E+01 -0.23487625302E+02  0.24422325382E+02  0.17770000000E+01 0.  1.
</event>
<event>
 6    1  0.1108180E-002  0.1725197E+03  0.7546771E-02  0.1076689E+00
        -11   -1    0    0    0    0  0.00000000000E+00  0.00000000000E+00  0.18250000000E+03  0.18250000000E+03  0.00000000000E+00 0.  1.
         11   -1    0    0    0    0 -0.00000000000E+00 -0.00000000000E+00 -0.18250000000E+03  0.18250000000E+03  0.00000000000E+00 0.  1.
        -11    1    1    2    0    0  0.60005363360E+01  0.43909004708E+01  0.17174696172E+03  0.17190783956E+03  0.00000000000E+00 0.  1.
         11    1    1    2    0    0  0.55081446081E+01 -0.10377282650E+01 -0.17325236615E+03  0.17334300941E+03  0.00000000000E+00 0.  1.
        -15    1    1    2    0    0 -0.23088624047E+01 -0.45504299842E-01 -0.64126402067E+01  0.70436212040E+01  0.17770000000E+01 0. -1.
         15    1    1    2    0    0 -0.91998185394E+01 -0.33076679060E+01  0.79180446368E+01  0.12705529820E+02  0.17770000000E+01 0.  1.
</event>
<event>
 6    1  0.1108180E-002  0.1828238E+03  0.7546771E-02  0.1068197E+00
        -11   -1    0    0    0    0  0.00000000000E+00  0.00000000000E+00  0.18250000000E+03  0.18250000000E+03  0.00000000000E+00 0. -1.
         11   -1    0    0    0    0 -0.00000000000E+00 -0.00000000000E+00 -0.18250000000E+03  0.18250000000E+03  0.00000000000E+00 0. -1.
        -11    1    1    2    0    0 -0.13176712744E+01  0.38567824188E+01  0.12368803568E+03  0.12375516636E+03  0.00000000000E+00 0. -1.
         11    1    1    2    0    0  0.31790837862E+01  0.89550864107E+00 -0.18214621099E+03  0.18217615290E+03  0.00000000000E+00 0. -1.
        -15    1    1    2    0    0  0.36051624688E+00 -0.21171708232E+01  0.81944998258E+01  0.86556305752E+01  0.17770000000E+01 0.  1.
         15    1    1    2    0    0 -0.22219287586E+01 -0.26351202366E+01  0.50263675474E+02  0.50413050168E+02  0.17770000000E+01 0. -1.
</event>
<event>
 6    1  0.1108180E-002  0.1756244E+03  0.7546771E-02  0.1074063E+00
        -11   -1    0    0    0    0  0.00000000000E+00  0.00000000000E+00  0.18250000000E+03  0.18250000000E+03  0.00000000000E+00 0.  1.
         11   -1    0    0    0    0 -0.00000000000E+00 -0.00000000000E+00 -0.18250000000E+03  0.18250000000E+03  0.00000000000E+00 0. -1.
        -11    1    1    2    0    0  0.45579306063E+01 -0.32095243286E+01  0.17652524520E+03  0.17661324404E+03  0.00000000000E+00 0.  1.
         11    1    1    2    0    0  0.44655682688E+00 -0.31207533801E+01 -0.17470458643E+03  0.17473302788E+03  0.00000000000E+00 0. -1.
        -15    1    1    2    0    0 -0.52754605740E+01  0.68077613792E+01  0.23368568887E+01  0.90991608614E+01  0.17770000000E+01 0. -1.
         15    1    1    2    0    0  0.27097314081E+00 -0.47748367047E+00 -0.41575156593E+01  0.45545672193E+01  0.17770000000E+01 0. -1.
</event>
<event>
 6    1  0.1108180E-002  0.1851092E+03  0.7546771E-02  0.1066397E+00
        -11   -1    0    0    0    0  0.00000000000E+00  0.00000000000E+00  0.18250000000E+03  0.18250000000E+03  0.00000000000E+00 0. -1.
         11   -1    0    0    0    0 -0.00000000000E+00 -0.00000000000E+00 -0.18250000000E+03  0.18250000000E+03  0.00000000000E+00 0.  1.
        -11    1    1    2    0    0  0.13658611386E+01 -0.57595129950E+01  0.17979337003E+03  0.17989078207E+03  0.00000000000E+00 0. -1.
         11    1    1    2    0    0  0.34963974033E+01 -0.16532467853E+01 -0.97819113746E+02  0.97895541440E+02  0.00000000000E+00 0.  1.
        -15    1    1    2    0    0 -0.37830199189E+01  0.53940589374E+01 -0.83608668065E+02  0.83886674843E+02  0.17770000000E+01 0.  1.
         15    1    1    2    0    0 -0.10792386230E+01  0.20187008429E+01  0.16344117833E+01  0.33270016495E+01  0.17770000000E+01 0. -1.
</event>
<event>
 6    1  0.1108180E-002  0.1827977E+03  0.7546771E-02  0.1068218E+00
        -11   -1    0    0    0    0  0.00000000000E+00  0.00000000000E+00  0.18250000000E+03  0.18250000000E+03  0.00000000000E+00 0. -1.
         11   -1    0    0    0    0 -0.00000000000E+00 -0.00000000000E+00 -0.18250000000E+03  0.18250000000E+03  0.00000000000E+00 0. -1.
        -11    1    1    2    0    0 -0.21910878670E+01 -0.39995810616E+01  0.11869282075E+03  0.11878039911E+03  0.00000000000E+00 0. -1.
         11    1    1    2    0    0  0.80574956245E+00 -0.23462659720E+01 -0.18218537998E+03  0.18220226913E+03  0.00000000000E+00 0. -1.
        -15    1    1    2    0    0  0.77455486359E+00  0.93049605404E+00  0.10657803941E+02  0.10872546711E+02  0.17770000000E+01 0.  1.
         15    1    1    2    0    0  0.61078344098E+00  0.54153509795E+01  0.52834755289E+02  0.53144785051E+02  0.17770000000E+01 0. -1.
</event>
<event>
 6    1  0.1108180E-002  0.1841334E+03  0.7546771E-02  0.1067162E+00
        -11   -1    0    0    0    0  0.00000000000E+00  0.00000000000E+00  0.18250000000E+03  0.18250000000E+03  0.00000000000E+00 0. -1.
         11   -1    0    0    0    0 -0.00000000000E+00 -0.00000000000E+00 -0.18250000000E+03  0.18250000000E+03  0.00000000000E+00 0. -1.
        -11    1    1    2    0    0 -0.64247228234E+01  0.37836376661E+01  0.18071280963E+03  0.18086656004E+03  0.00000000000E+00 0. -1.
         11    1    1    2    0    0 -0.21933248721E+00  0.21500323759E+01 -0.12989552167E+03  0.12991349928E+03  0.00000000000E+00 0. -1.
        -15    1    1    2    0    0  0.43073596321E+01 -0.63521437219E+01 -0.77508516973E+01  0.11051538712E+02  0.17770000000E+01 0. -1.
         15    1    1    2    0    0  0.23366956786E+01  0.41847367985E+00 -0.43066436259E+02  0.43168401962E+02  0.17770000000E+01 0. -1.
</event>
<event>
 6    1  0.1108180E-002  0.1831766E+03  0.7546771E-02  0.1067918E+00
        -11   -1    0    0    0    0  0.00000000000E+00  0.00000000000E+00  0.18250000000E+03  0.18250000000E+03  0.00000000000E+00 0.  1.
         11   -1    0    0    0    0 -0.00000000000E+00 -0.00000000000E+00 -0.18250000000E+03  0.18250000000E+03  0.00000000000E+00 0. -1.
        -11    1    1    2    0    0 -0.11541679104E+01  0.17503766248E+01  0.14527538395E+03  0.14529051278E+03  0.00000000000E+00 0.  1.
         11    1    1    2    0    0 -0.30095083662E+01  0.32553335821E+01 -0.18176936533E+03  0.18182342123E+03  0.00000000000E+00 0. -1.
        -15    1    1    2    0    0 -0.16375467278E+01 -0.27988473740E+01  0.14503159712E+02  0.14967113167E+02  0.17770000000E+01 0.  1.
         15    1    1    2    0    0  0.58012230044E+01 -0.22068628329E+01  0.21990821664E+02  0.22918952820E+02  0.17770000000E+01 0. -1.
</event>
<event>
 6    1  0.1108180E-002  0.1827035E+03  0.7546771E-02  0.1068293E+00
        -11   -1    0    0    0    0  0.00000000000E+00  0.00000000000E+00  0.18250000000E+03  0.18250000000E+03  0.00000000000E+00 0.  1.
         11   -1    0    0    0    0 -0.00000000000E+00 -0.00000000000E+00 -0.18250000000E+03  0.18250000000E+03  0.00000000000E+00 0.  1.
        -11    1    1    2    0    0 -0.30818858161E-01 -0.50992922857E+00  0.21397400252E+02  0.21403497732E+02  0.00000000000E+00 0.  1.
         11    1    1    2    0    0  0.16745178613E+01 -0.29655142656E+01 -0.18226467488E+03  0.18229648925E+03  0.00000000000E+00 0.  1.
        -15    1    1    2    0    0 -0.55952647037E+01  0.39140562763E+01  0.78035044657E+02  0.78353383764E+02  0.17770000000E+01 0.  1.
         15    1    1    2    0    0  0.39515657006E+01 -0.43861278218E+00  0.82832229972E+02  0.82946629250E+02  0.17770000000E+01 0. -1.
</event>
<event>
 6    1  0.1108180E-002  0.1850732E+03  0.7546771E-02  0.1066425E+00
        -11   -1    0    0    0    0  0.00000000000E+00  0.00000000000E+00  0.18250000000E+03  0.18250000000E+03  0.00000000000E+00 0. -1.
         11   -1    0    0    0    0 -0.00000000000E+00 -0.00000000000E+00 -0.18250000000E+03  0.18250000000E+03  0.00000000000E+00 0. -1.
        -11    1    1    2    0    0  0.12966878494E+01  0.31205381642E+01  0.17736658970E+03  0.17739877762E+03  0.00000000000E+00 0. -1.
         11    1    1    2    0    0 -0.23753509249E+00 -0.26817840606E+01 -0.17990669936E+03  0.17992684309E+03  0.00000000000E+00 0. -1.
        -15    1    1    2    0    0 -0.25682518550E+00 -0.26298288906E+01 -0.74522178057E+00  0.32703277622E+01  0.17770000000E+01 0.  1.
         15    1    1    2    0    0 -0.80232757142E+00  0.21910747869E+01  0.32853314409E+01  0.44040515358E+01  0.17770000000E+01 0. -1.
</event>
<event>
 6    1  0.1108180E-002  0.1838631E+03  0.7546771E-02  0.1067375E+00
        -11   -1    0    0    0    0  0.00000000000E+00  0.00000000000E+00  0.18250000000E+03  0.18250000000E+03  0.00000000000E+00 0.  1.
         11   -1    0    0    0    0 -0.00000000000E+00 -0.00000000000E+00 -0.18250000000E+03  0.18250000000E+03  0.00000000000E+00 0.  1.
        -11    1    1    2    0    0  0.57350826688E+01  0.36541661247E+01  0.18100917141E+03  0.18113686603E+03  0.00000000000E+00 0.  1.
         11    1    1    2    0    0  0.20418773963E+00 -0.34076460557E+01 -0.12384288092E+03  0.12388992251E+03  0.00000000000E+00 0.  1.
        -15    1    1    2    0    0 -0.11252166188E+02  0.26990853998E+01 -0.34064600611E+02  0.36020147831E+02  0.17770000000E+01 0. -1.
         15    1    1    2    0    0  0.53128957801E+01 -0.29456054687E+01 -0.23101689872E+02  0.23953063627E+02  0.17770000000E+01 0. -1.
</event>
<event>
 6    1  0.1108180E-002  0.1838902E+03  0.7546771E-02  0.1067354E+00
        -11   -1    0    0    0    0  0.00000000000E+00  0.00000000000E+00  0.18250000000E+03  0.18250000000E+03  0.00000000000E+00 0. -1.
         11   -1    0    0    0    0 -0.00000000000E+00 -0.00000000000E+00 -0.18250000000E+03  0.18250000000E+03  0.00000000000E+00 0.  1.
        -11    1    1    2    0    0  0.17635741722E+01 -0.30613053061E+01  0.15407700112E+03  0.15411750081E+03  0.00000000000E+00 0. -1.
         11    1    1    2    0    0 -0.11501263078E+01 -0.21556534685E+01 -0.18109329127E+03  0.18110977272E+03  0.00000000000E+00 0.  1.
        -15    1    1    2    0    0 -0.35732074575E+01 -0.19359682236E+01  0.11844025162E+02  0.12647309814E+02  0.17770000000E+01 0. -1.
         15    1    1    2    0    0  0.29597595931E+01  0.71529269982E+01  0.15172264991E+02  0.17125416650E+02  0.17770000000E+01 0. -1.
</event>
<event>
 6    1  0.1108180E-002  0.1850891E+03  0.7546771E-02  0.1066412E+00
        -11   -1    0    0    0    0  0.00000000000E+00  0.00000000000E+00  0.18250000000E+03  0.18250000000E+03  0.00000000000E+00 0.  1.
         11   -1    0    0    0    0 -0.00000000000E+00 -0.00000000000E+00 -0.18250000000E+03  0.18250000000E+03  0.00000000000E+00 0.  1.
        -11    1    1    2    0    0 -0.22909189999E+00  0.27975952444E+01  0.17679607233E+03  0.17681835373E+03  0.00000000000E+00 0.  1.
         11    1    1    2    0    0 -0.24454778590E+01 -0.26554995120E+01 -0.17987469552E+03  0.17991091721E+03  0.00000000000E+00 0.  1.
        -15    1    1    2    0    0  0.39763011219E+01  0.16990126528E+01  0.26330837746E+01  0.53654891455E+01  0.17770000000E+01 0.  1.
         15    1    1    2    0    0 -0.13017313629E+01 -0.18411083852E+01  0.44553941494E+00  0.29052399208E+01  0.17770000000E+01 0. -1.
</event>
<event>
 6    1  0.1108180E-002  0.1654394E+03  0.7546771E-02  0.1082909E+00
        -11   -1    0    0    0    0  0.00000000000E+00  0.00000000000E+00  0.18250000000E+03  0.18250000000E+03  0.00000000000E+00 0. -1.
         11   -1    0    0    0    0 -0.00000000000E+00 -0.00000000000E+00 -0.18250000000E+03  0.18250000000E+03  0.00000000000E+00 0. -1.
        -11    1    1    2    0    0  0.69656469283E+01  0.38788314054E+01  0.16258473139E+03  0.16278009845E+03  0.00000000000E+00 0. -1.
         11    1    1    2    0    0 -0.54686277658E-01  0.24458121458E+01 -0.16826228305E+03  0.16828006681E+03  0.00000000000E+00 0. -1.
        -15    1    1    2    0    0 -0.12173506719E+02  0.24409515410E-01  0.16270638126E+02  0.20398192461E+02  0.17770000000E+01 0. -1.
         15    1    1    2    0    0  0.52625460683E+01 -0.63490530666E+01 -0.10593086465E+02  0.13541642287E+02  0.17770000000E+01 0.  1.
</event>
<event>
 6    1  0.1108180E-002  0.1868813E+03  0.7546771E-02  0.1065020E+00
        -11   -1    0    0    0    0  0.00000000000E+00  0.00000000000E+00  0.18250000000E+03  0.18250000000E+03  0.00000000000E+00 0.  1.
         11   -1    0    0    0    0 -0.00000000000E+00 -0.00000000000E+00 -0.18250000000E+03  0.18250000000E+03  0.00000000000E+00 0.  1.
        -11    1    1    2    0    0 -0.33293780818E+01 -0.14067164212E+01  0.17808205139E+03  0.17811872624E+03  0.00000000000E+00 0.  1.
         11    1    1    2    0    0  0.42365475884E+01  0.87087103835E+00 -0.16208208655E+03  0.16213978393E+03  0.00000000000E+00 0.  1.
        -15    1    1    2    0    0 -0.49795759067E+01  0.27664849336E+01  0.18219153499E+01  0.62391281154E+01  0.17770000000E+01 0.  1.
         15    1    1    2    0    0  0.40724064001E+01 -0.22306395508E+01 -0.17821880192E+02  0.18502361721E+02  0.17770000000E+01 0. -1.
</event>
<event>
 6    1  0.1108180E-002  0.1865466E+03  0.7546771E-02  0.1065279E+00
        -11   -1    0    0    0    0  0.00000000000E+00  0.00000000000E+00  0.18250000000E+03  0.18250000000E+03  0.00000000000E+00 0. -1.
         11   -1    0    0    0    0 -0.00000000000E+00 -0.00000000000E+00 -0.18250000000E+03  0.18250000000E+03  0.00000000000E+00 0.  1.
        -11    1    1    2    0    0 -0.49348605422E+01  0.15096549198E+01  0.17342059759E+03  0.17349736475E+03  0.00000000000E+00 0. -1.
         11    1    1    2    0    0  0.31377406850E+01  0.32638053457E+01 -0.17839592110E+03  0.17845336228E+03  0.00000000000E+00 0.  1.
        -15    1    1    2    0    0 -0.36100253899E+01 -0.30874761378E+00 -0.37340110646E+00  0.40527479308E+01  0.17770000000E+01 0. -1.
         15    1    1    2    0    0  0.54071452470E+01 -0.44647126517E+01  0.53487246145E+01  0.89965250395E+01  0.17770000000E+01 0.  1.
</event>
<event>
 6    1  0.1108180E-002  0.1916917E+03  0.7546771E-02  0.1061365E+00
        -11   -1    0    0    0    0  0.00000000000E+00  0.00000000000E+00  0.18250000000E+03  0.18250000000E+03  0.00000000000E+00 0.  1.
         11   -1    0    0    0    0 -0.00000000000E+00 -0.00000000000E+00 -0.18250000000E+03  0.18250000000E+03  0.00000000000E+00 0.  1.
        -11    1    1    2    0    0 -0.46706215538E+01 -0.95326902738E+01  0.17298285736E+03  0.17330826821E+03  0.00000000000E+00 0.  1.
         11    1    1    2    0    0 -0.32805612837E+00 -0.12242488781E+01 -0.42417621450E+02  0.42436552825E+02  0.00000000000E+00 0.  1.
        -15    1    1    2    0    0 -0.85723756901E+00  0.17710672076E+02 -0.13688600769E+03  0.13804107936E+03  0.17770000000E+01 0.  1.
         15    1    1    2    0    0  0.58559152511E+01 -0.69537329238E+01  0.63207717738E+01  0.11214099599E+02  0.17770000000E+01 0. -1.
</event>
<event>
 6    1  0.1108180E-002  0.1833232E+03  0.7546771E-02  0.1067801E+00
        -11   -1    0    0    0    0  0.00000000000E+00  0.00000000000E+00  0.18250000000E+03  0.18250000000E+03  0.00000000000E+00 0. -1.
         11   -1    0    0    0    0 -0.00000000000E+00 -0.00000000000E+00 -0.18250000000E+03  0.18250000000E+03  0.00000000000E+00 0. -1.
        -11    1    1    2    0    0  0.15034637601E+01  0.18809723745E+01  0.15901020312E+03  0.15902843506E+03  0.00000000000E+00 0. -1.
         11    1    1    2    0    0  0.25274662213E+01 -0.74737578157E+00 -0.18165769839E+03  0.18167681757E+03  0.00000000000E+00 0. -1.
        -15    1    1    2    0    0  0.80109959066E+00 -0.20154686601E+01  0.37115468850E+01  0.46515786303E+01  0.17770000000E+01 0.  1.
         15    1    1    2    0    0 -0.48320295721E+01  0.88187206720E+00  0.18935948388E+02  0.19643168748E+02  0.17770000000E+01 0.  1.
</event>
<event>
 6    1  0.1108180E-002  0.1794455E+03  0.7546771E-02  0.1070913E+00
        -11   -1    0    0    0    0  0.00000000000E+00  0.00000000000E+00  0.18250000000E+03  0.18250000000E+03  0.00000000000E+00 0.  1.
         11   -1    0    0    0    0 -0.00000000000E+00 -0.00000000000E+00 -0.18250000000E+03  0.18250000000E+03  0.00000000000E+00 0.  1.
        -11    1    1    2    0    0 -0.23867060900E+01 -0.96651309753E+00  0.18033903000E+03  0.18035741253E+03  0.00000000000E+00 0.  1.
         11    1    1    2    0    0  0.78583135641E+00 -0.28534674661E+01 -0.17853742039E+03  0.17856195084E+03  0.00000000000E+00 0.  1.
        -15    1    1    2    0    0 -0.62088533025E-01  0.23056619722E+01 -0.12141017293E+01  0.31546321695E+01  0.17770000000E+01 0.  1.
         15    1    1    2    0    0  0.16629632666E+01  0.15143185915E+01 -0.58750788101E+00  0.29260044656E+01  0.17770000000E+01 0. -1.
</event>
<event>
 6    1  0.1108180E-002  0.1917828E+03  0.7546771E-02  0.1061297E+00
        -11   -1    0    0    0    0  0.00000000000E+00  0.00000000000E+00  0.18250000000E+03  0.18250000000E+03  0.00000000000E+00 0. -1.
         11   -1    0    0    0    0 -0.00000000000E+00 -0.00000000000E+00 -0.18250000000E+03  0.18250000000E+03  0.00000000000E+00 0. -1.
        -11    1    1    2    0    0  0.94575288471E+01 -0.64739563908E+01  0.17283762178E+03  0.17321720603E+03  0.00000000000E+00 0. -1.
         11    1    1    2    0    0  0.43586418698E+01 -0.13199737504E+01 -0.14690669958E+03  0.14697727196E+03  0.00000000000E+00 0. -1.
        -15    1    1    2    0    0 -0.39591881279E+01  0.73703775794E+01  0.65754102537E+01  0.10788483920E+02  0.17770000000E+01 0.  1.
         15    1    1    2    0    0 -0.98569825891E+01  0.42355256182E+00 -0.32506332445E+02  0.34017038092E+02  0.17770000000E+01 0. -1.
</event>
<event>
 6    1  0.1108180E-002  0.1876329E+03  0.7546771E-02  0.1064441E+00
        -11   -1    0    0    0    0  0.00000000000E+00  0.00000000000E+00  0.18250000000E+03  0.18250000000E+03  0.00000000000E+00 0. -1.
         11   -1    0    0    0    0 -0.00000000000E+00 -0.00000000000E+00 -0.18250000000E+03  0.18250000000E+03  0.00000000000E+00 0.  1.
        -11    1    1    2    0    0  0.41095950291E+01  0.45979980706E+01  0.16457818935E+03  0.16469368769E+03  0.00000000000E+00 0. -1.
         11    1    1    2    0    0  0.36914570669E+01 -0.30626214051E+01 -0.17730222432E+03  0.17736709180E+03  0.00000000000E+00 0.  1.
        -15    1    1    2    0    0 -0.88232651017E+01  0.49051473538E+01  0.12515171791E+02  0.16177074259E+02  0.17770000000E+01 0.  1.
         15    1    1    2    0    0  0.10222130057E+01 -0.64405240193E+01  0.20886317791E+00  0.67621462495E+01  0.17770000000E+01 0. -1.
</event>
<event>
 6    1  0.1108180E-002  0.1575086E+03  0.7546771E-02  0.1090295E+00
        -11   -1    0    0    0    0  0.00000000000E+00  0.00000000000E+00  0.18250000000E+03  0.18250000000E+03  0.00000000000E+00 0. -1.
         11   -1    0    0    0    0 -0.00000000000E+00 -0.00000000000E+00 -0.18250000000E+03  0.18250000000E+03  0.00000000000E+00 0.  1.
        -11    1    1    2    0    0  0.15758731794E+01  0.15888343534E+01  0.15843618940E+03  0.15845199236E+03  0.00000000000E+00 0. -1.
         11    1    1    2    0    0 -0.10653024647E+02  0.22886923972E+02 -0.15562331236E+03  0.15765758331E+03  0.00000000000E+00 0.  1.
        -15    1    1    2    0    0  0.86132299308E+01 -0.21664631533E+02 -0.20372916786E+02  0.31012214637E+02  0.17770000000E+01 0. -1.
         15    1    1    2    0    0  0.46392153649E+00 -0.28111267924E+01  0.17560039749E+02  0.17878209698E+02  0.17770000000E+01 0.  1.
</event>
<event>
 6    1  0.1108180E-002  0.1912548E+03  0.7546771E-02  0.1061692E+00
        -11   -1    0    0    0    0  0.00000000000E+00  0.00000000000E+00  0.18250000000E+03  0.18250000000E+03  0.00000000000E+00 0.  1.
         11   -1    0    0    0    0 -0.00000000000E+00 -0.00000000000E+00 -0.18250000000E+03  0.18250000000E+03  0.00000000000E+00 0. -1.
        -11    1    1    2    0    0  0.91742179790E+01  0.14970063218E+02  0.17285574828E+03  0.17374515470E+03  0.00000000000E+00 0.  1.
         11    1    1    2    0    0 -0.19227280742E+01 -0.22621645776E+01 -0.15043738580E+03  0.15046667843E+03  0.00000000000E+00 0. -1.
        -15    1    1    2    0    0 -0.99723285355E+01 -0.13444818817E+02  0.12561017385E+01  0.16880343895E+02  0.17770000000E+01 0.  1.
         15    1    1    2    0    0  0.27208386307E+01  0.73692017623E+00 -0.23674464223E+02  0.23907822976E+02  0.17770000000E+01 0. -1.
</event>
<event>
 6    1  0.1108180E-002  0.1842526E+03  0.7546771E-02  0.1067068E+00
        -11   -1    0    0    0    0  0.00000000000E+00  0.00000000000E+00  0.18250000000E+03  0.18250000000E+03  0.00000000000E+00 0.  1.
         11   -1    0    0    0    0 -0.00000000000E+00 -0.00000000000E+00 -0.18250000000E+03  0.18250000000E+03  0.00000000000E+00 0.  1.
        -11    1    1    2    0    0  0.21033113682E+01  0.38806625444E+01  0.18069345604E+03  0.18074736102E+03  0.00000000000E+00 0.  1.
         11    1    1    2    0    0  0.21314523079E+01  0.24502382027E+01 -0.15718137682E+03  0.15721492288E+03  0.00000000000E+00 0.  1.
        -15    1    1    2    0    0 -0.34936503838E+01 -0.27146619102E+01 -0.22243791380E+02  0.22749043195E+02  0.17770000000E+01 0.  1.
         15    1    1    2    0    0 -0.74111329226E+00 -0.36162388369E+01 -0.12682878382E+01  0.42886729040E+01  0.17770000000E+01 0.  1.
</event>
<event>
 6    1  0.1108180E-002  0.1853992E+03  0.7546771E-02  0.1066170E+00
        -11   -1    0    0    0    0  0.00000000000E+00  0.00000000000E+00  0.18250000000E+03  0.18250000000E+03  0.00000000000E+00 0.  1.
         11   -1    0    0    0    0 -0.00000000000E+00 -0.00000000000E+00 -0.18250000000E+03  0.18250000000E+03  0.00000000000E+00 0.  1.
        -11    1    1    2    0    0 -0.43660768308E+01  0.28621230971E+01  0.16185842774E+03  0.16194259787E+03  0.00000000000E+00 0.  1.
         11    1    1    2    0    0 -0.22648771718E+01 -0.36179759971E+01 -0.17955007588E+03  0.17960080503E+03  0.00000000000E+00 0.  1.
        -15    1    1    2    0    0  0.28592979285E+00  0.32477814028E+01 -0.68511709690E+00  0.37758382279E+01  0.17770000000E+01 0. -1.
         15    1    1    2    0    0  0.63450242098E+01 -0.24919285029E+01  0.18376765243E+02  0.19680758870E+02  0.17770000000E+01 0.  1.
</event>
<event>
 6    1  0.1108180E-002  0.1866164E+03  0.7546771E-02  0.1065225E+00
        -11   -1    0    0    0    0  0.00000000000E+00  0.00000000000E+00  0.18250000000E+03  0.18250000000E+03  0.00000000000E+00 0. -1.
         11   -1    0    0    0    0 -0.00000000000E+00 -0.00000000000E+00 -0.18250000000E+03  0.18250000000E+03  0.00000000000E+00 0. -1.
        -11    1    1    2    0    0  0.29167369324E+01 -0.18901368510E+01  0.17834977092E+03  0.17838363367E+03  0.00000000000E+00 0. -1.
         11    1    1    2    0    0 -0.49476668917E+01 -0.41725961624E+00 -0.16300208918E+03  0.16307769495E+03  0.00000000000E+00 0. -1.
        -15    1    1    2    0    0  0.38153157656E+00 -0.59113142656E+01 -0.13389731065E+02  0.14748960292E+02  0.17770000000E+01 0.  1.
         15    1    1    2    0    0  0.16493983827E+01  0.82187107329E+01 -0.19579506754E+01  0.87897110864E+01  0.17770000000E+01 0. -1.
</event>
<event>
 6    1  0.1108180E-002  0.1910142E+03  0.7546771E-02  0.1061872E+00
        -11   -1    0    0    0    0  0.00000000000E+00  0.00000000000E+00  0.18250000000E+03  0.18250000000E+03  0.00000000000E+00 0. -1.
         11   -1    0    0    0    0 -0.00000000000E+00 -0.00000000000E+00 -0.18250000000E+03  0.18250000000E+03  0.00000000000E+00 0.  1.
        -11    1    1    2    0    0  0.37561020624E+01  0.24168047978E+01  0.17392842069E+03  0.17398576026E+03  0.00000000000E+00 0. -1.
         11    1    1    2    0    0 -0.21009999289E+01 -0.28694085713E+01 -0.16786025236E+03  0.16789792145E+03  0.00000000000E+00 0.  1.
        -15    1    1    2    0    0 -0.14385412960E+01 -0.40569105970E+01  0.74321926951E+01  0.87705838979E+01  0.17770000000E+01 0.  1.
         15    1    1    2    0    0 -0.21656083756E+00  0.45095143705E+01 -0.13500361027E+02  0.14345734395E+02  0.17770000000E+01 0. -1.
</event>
<event>
 6    1  0.1108180E-002  0.1827422E+03  0.7546771E-02  0.1068262E+00
        -11   -1    0    0    0    0  0.00000000000E+00  0.00000000000E+00  0.18250000000E+03  0.18250000000E+03  0.00000000000E+00 0.  1.
         11   -1    0    0    0    0 -0.00000000000E+00 -0.00000000000E+00 -0.18250000000E+03  0.18250000000E+03  0.00000000000E+00 0.  1.
        -11    1    1    2    0    0  0.79610311831E+00 -0.15512425538E+01  0.93039480466E+02  0.93055816901E+02  0.00000000000E+00 0.  1.
         11    1    1    2    0    0  0.18218856402E+01  0.29755002044E+01 -0.18222437103E+03  0.18225776874E+03  0.00000000000E+00 0.  1.
        -15    1    1    2    0    0 -0.35588716798E+01  0.71401113932E+00  0.78550451061E+02  0.78654348071E+02  0.17770000000E+01 0.  1.
         15    1    1    2    0    0  0.94088292129E+00 -0.21382687900E+01  0.10634439502E+02  0.11032066290E+02  0.17770000000E+01 0. -1.
</event>
<event>
 6    1  0.2076483E-002  0.1872593E+03  0.7546771E-02  0.1064728E+00
        -11   -1    0    0    0    0  0.00000000000E+00  0.00000000000E+00  0.18250000000E+03  0.18250000000E+03  0.00000000000E+00 0. -1.
         11   -1    0    0    0    0 -0.00000000000E+00 -0.00000000000E+00 -0.18250000000E+03  0.18250000000E+03  0.00000000000E+00 0.  1.
        -11    1    1    2    0    0  0.89385031656E+01  0.18163828300E+00  0.17751571947E+03  0.17774071141E+03  0.00000000000E+00 0. -1.
         11    1    1    2    0    0 -0.61399708795E+01 -0.78545131360E+01 -0.31609695073E+02  0.33144614066E+02  0.00000000000E+00 0.  1.
        -15    1    1    2    0    0  0.12532342746E+01  0.12001593112E+02 -0.14727186249E+03  0.14777607399E+03  0.17770000000E+01 0.  1.
         15    1    1    2    0    0 -0.40517665608E+01 -0.43287182586E+01  0.13658380948E+01  0.63386005338E+01  0.17770000000E+01 0. -1.
</event>
<event>
 6    1  0.1108180E-002  0.1760056E+03  0.7546771E-02  0.1073745E+00
        -11   -1    0    0    0    0  0.00000000000E+00  0.00000000000E+00  0.18250000000E+03  0.18250000000E+03  0.00000000000E+00 0. -1.
         11   -1    0    0    0    0 -0.00000000000E+00 -0.00000000000E+00 -0.18250000000E+03  0.18250000000E+03  0.00000000000E+00 0.  1.
        -11    1    1    2    0    0  0.13921755295E+01  0.46203114819E+01  0.14279363774E+02  0.15072679280E+02  0.00000000000E+00 0. -1.
         11    1    1    2    0    0 -0.16018817576E+01 -0.27679380349E+01 -0.18082953115E+03  0.18085780835E+03  0.00000000000E+00 0.  1.
        -15    1    1    2    0    0 -0.13062396522E+01  0.13196735264E+02  0.93157023322E+02  0.94112957699E+02  0.17770000000E+01 0. -1.
         15    1    1    2    0    0  0.15159458803E+01 -0.15049108711E+02  0.73393144054E+02  0.74956554670E+02  0.17770000000E+01 0.  1.
</event>
<event>
 6    1  0.1108180E-002  0.1829310E+03  0.7546771E-02  0.1068112E+00
        -11   -1    0    0    0    0  0.00000000000E+00  0.00000000000E+00  0.18250000000E+03  0.18250000000E+03  0.00000000000E+00 0.  1.
         11   -1    0    0    0    0 -0.00000000000E+00 -0.00000000000E+00 -0.18250000000E+03  0.18250000000E+03  0.00000000000E+00 0. -1.
        -11    1    1    2    0    0 -0.20046322097E+01  0.24020134346E-01  0.13909922008E+03  0.13911366631E+03  0.00000000000E+00 0.  1.
         11    1    1    2    0    0  0.26303804154E+01 -0.13639842032E+01 -0.18204488868E+03  0.18206900024E+03  0.00000000000E+00 0. -1.
        -15    1    1    2    0    0 -0.28645468833E+01  0.20902251867E+01  0.36634191691E+02  0.36848288970E+02  0.17770000000E+01 0.  1.
         15    1    1    2    0    0  0.22387986775E+01 -0.75026111788E+00  0.63114769077E+01  0.69690444840E+01  0.17770000000E+01 0. -1.
</event>
<event>
 6    1  0.1108180E-002  0.1790084E+03  0.7546771E-02  0.1071269E+00
        -11   -1    0    0    0    0  0.00000000000E+00  0.00000000000E+00  0.18250000000E+03  0.18250000000E+03  0.00000000000E+00 0.  1.
         11   -1    0    0    0    0 -0.00000000000E+00 -0.00000000000E+00 -0.18250000000E+03  0.18250000000E+03  0.00000000000E+00 0.  1.
        -11    1    1    2    0    0  0.18659578121E+01 -0.30495043359E+01  0.17869186111E+03  0.17872762098E+03  0.00000000000E+00 0.  1.
         11    1    1    2    0    0 -0.25264430833E+01  0.53127561865E+00 -0.17928045448E+03  0.17929904218E+03  0.00000000000E+00 0.  1.
        -15    1    1    2    0    0 -0.23200509907E+01  0.59952286692E+00  0.24796335978E+00  0.29935395596E+01  0.17770000000E+01 0. -1.
         15    1    1    2    0    0  0.29805362619E+01  0.19187058504E+01  0.34063001136E+00  0.39797972754E+01  0.17770000000E+01 0.  1.
</event>
<event>
 6    1  0.1108180E-002  0.1859797E+03  0.7546771E-02  0.1065718E+00
        -11   -1    0    0    0    0  0.00000000000E+00  0.00000000000E+00  0.18250000000E+03  0.18250000000E+03  0.00000000000E+00 0. -1.
         11   -1    0    0    0    0 -0.00000000000E+00 -0.00000000000E+00 -0.18250000000E+03  0.18250000000E+03  0.00000000000E+00 0. -1.
        -11    1    1    2    0    0  0.19953468304E+01  0.52774831064E+01  0.16861675361E+03  0.16871112244E+03  0.00000000000E+00 0. -1.
         11    1    1    2    0    0  0.74969551896E+01  0.75673437412E+00 -0.17886163237E+03  0.17902027963E+03  0.00000000000E+00 0. -1.
        -15    1    1    2    0    0 -0.16583072681E+01 -0.52998918527E+01  0.45075322295E+01  0.73698312359E+01  0.17770000000E+01 0. -1.
         15    1    1    2    0    0 -0.78339947519E+01 -0.73432562786E+00  0.57373465248E+01  0.98987666932E+01  0.17770000000E+01 0. -1.
</event>
<event>
 6    1  0.1108180E-002  0.1874198E+03  0.7546771E-02  0.1064605E+00
        -11   -1    0    0    0    0  0.00000000000E+00  0.00000000000E+00  0.18250000000E+03  0.18250000000E+03  0.00000000000E+00 0. -1.
         11   -1    0    0    0    0 -0.00000000000E+00 -0.00000000000E+00 -0.18250000000E+03  0.18250000000E+03  0.00000000000E+00 0.  1.
        -11    1    1    2    0    0  0.83757611732E+01 -0.51887356953E+01  0.16929252008E+03  0.16957898959E+03  0.00000000000E+00 0. -1.
         11    1    1    2    0    0  0.32465558419E+01  0.13993616281E+01 -0.17754500487E+03  0.17758019904E+03  0.00000000000E+00 0.  1.
        -15    1    1    2    0    0 -0.10731804355E+02  0.48725517018E+01  0.32569251353E+01  0.12356321262E+02  0.17770000000E+01 0. -1.
         15    1    1    2    0    0 -0.89051266035E+00 -0.10831776346E+01  0.49955596482E+01  0.54844901117E+01  0.17770000000E+01 0.  1.
</event>
<event>
 6    1  0.1108180E-002  0.1829825E+03  0.7546771E-02  0.1068071E+00
        -11   -1    0    0    0    0  0.00000000000E+00  0.00000000000E+00  0.18250000000E+03  0.18250000000E+03  0.00000000000E+00 0.  1.
         11   -1    0    0    0    0 -0.00000000000E+00 -0.00000000000E+00 -0.18250000000E+03  0.18250000000E+03  0.00000000000E+00 0. -1.
        -11    1    1    2    0    0  0.16435734962E+01 -0.18013517425E+01  0.26263358220E+02  0.26376318676E+02  0.00000000000E+00 0.  1.
         11    1    1    2    0    0  0.67415971356E+01  0.26213475486E+01 -0.18187370836E+03  0.18201748923E+03  0.00000000000E+00 0. -1.
        -15    1    1    2    0    0 -0.49107448850E+01  0.15672715253E+00  0.14710186705E+03  0.14719462285E+03  0.17770000000E+01 0.  1.
         15    1    1    2    0    0 -0.34744257467E+01 -0.97672295863E+00  0.85084830903E+01  0.94115692372E+01  0.17770000000E+01 0. -1.
</event>
<event>
 6    1  0.1108180E-002  0.1851956E+03  0.7546771E-02  0.1066329E+00
        -11   -1    0    0    0    0  0.00000000000E+00  0.00000000000E+00  0.18250000000E+03  0.18250000000E+03  0.00000000000E+00 0.  1.
         11   -1    0    0    0    0 -0.00000000000E+00 -0.00000000000E+00 -0.18250000000E+03  0.18250000000E+03  0.00000000000E+00 0. -1.
        -11    1    1    2    0    0 -0.23413063649E+01 -0.36794768601E+01  0.17975151203E+03  0.17980441136E+03  0.00000000000E+00 0.  1.
         11    1    1    2    0    0 -0.54245820953E+01 -0.54817761848E+01 -0.12035907986E+03  0.12060590394E+03  0.00000000000E+00 0. -1.
        -15    1    1    2    0    0  0.14207558928E+02  0.46984271345E+01 -0.50037513355E+02  0.52257443680E+02  0.17770000000E+01 0. -1.
         15    1    1    2    0    0 -0.64416704682E+01  0.44628259103E+01 -0.93549188170E+01  0.12332241021E+02  0.17770000000E+01 0.  1.
</event>
<event>
 6    1  0.1108180E-002  0.1787126E+03  0.7546771E-02  0.1071510E+00
        -11   -1    0    0    0    0  0.00000000000E+00  0.00000000000E+00  0.18250000000E+03  0.18250000000E+03  0.00000000000E+00 0.  1.
         11   -1    0    0    0    0 -0.00000000000E+00 -0.00000000000E+00 -0.18250000000E+03  0.18250000000E+03  0.00000000000E+00 0.  1.
        -11    1    1    2    0    0  0.17401900326E+01 -0.19812423857E+01  0.17907757907E+03  0.17909699302E+03  0.00000000000E+00 0.  1.
         11    1    1    2    0    0 -0.28563864998E+01 -0.13449949066E+01 -0.17831821060E+03  0.17834615832E+03  0.00000000000E+00 0.  1.
        -15    1    1    2    0    0 -0.11228352156E+00  0.93599026582E+00  0.23403260168E+01  0.30860233686E+01  0.17770000000E+01 0.  1.
         15    1    1    2    0    0  0.12284799888E+01  0.23902470265E+01 -0.30996944795E+01  0.44708252925E+01  0.17770000000E+01 0.  1.
</event>
<event>
 6    1  0.1108180E-002  0.1828352E+03  0.7546771E-02  0.1068188E+00
        -11   -1    0    0    0    0  0.00000000000E+00  0.00000000000E+00  0.18250000000E+03  0.18250000000E+03  0.00000000000E+00 0. -1.
         11   -1    0    0    0    0 -0.00000000000E+00 -0.00000000000E+00 -0.18250000000E+03  0.18250000000E+03  0.00000000000E+00 0. -1.
        -11    1    1    2    0    0  0.14383369409E+01 -0.57906048450E+00  0.61681658747E+02  0.61701143831E+02  0.00000000000E+00 0. -1.
         11    1    1    2    0    0 -0.48908661916E+01 -0.18487411095E+01 -0.18208976475E+03  0.18216481780E+03  0.00000000000E+00 0. -1.
        -15    1    1    2    0    0 -0.35536845554E+01 -0.17913573466E+01  0.58601887982E+02  0.58763735749E+02  0.17770000000E+01 0. -1.
         15    1    1    2    0    0  0.70062138061E+01  0.42191589406E+01  0.61806218022E+02  0.62370302623E+02  0.17770000000E+01 0. -1.
</event>
<event>
 6    1  0.1108180E-002  0.1844227E+03  0.7546771E-02  0.1066935E+00
        -11   -1    0    0    0    0  0.00000000000E+00  0.00000000000E+00  0.18250000000E+03  0.18250000000E+03  0.00000000000E+00 0.  1.
         11   -1    0    0    0    0 -0.00000000000E+00 -0.00000000000E+00 -0.18250000000E+03  0.18250000000E+03  0.00000000000E+00 0.  1.
        -11    1    1    2    0    0  0.13814538667E+01  0.21895134758E+01  0.18055877157E+03  0.18057733073E+03  0.00000000000E+00 0.  1.
         11    1    1    2    0    0  0.23409824845E+01  0.26710914157E+01 -0.15431461954E+03  0.15435548818E+03  0.00000000000E+00 0.  1.
        -15    1    1    2    0    0 -0.11271327447E+01 -0.23778762827E+01  0.33019721866E+00  0.31924102248E+01  0.17770000000E+01 0.  1.
         15    1    1    2    0    0 -0.25953036065E+01 -0.24827286088E+01 -0.26574349249E+02  0.26874770867E+02  0.17770000000E+01 0.  1.
</event>
<event>
 6    1  0.1108180E-002  0.1838557E+03  0.7546771E-02  0.1067381E+00
        -11   -1    0    0    0    0  0.00000000000E+00  0.00000000000E+00  0.18250000000E+03  0.18250000000E+03  0.00000000000E+00 0.  1.
         11   -1    0    0    0    0 -0.00000000000E+00 -0.00000000000E+00 -0.18250000000E+03  0.18250000000E+03  0.00000000000E+00 0.  1.
        -11    1    1    2    0    0  0.45598973723E+01  0.34275309294E+01  0.18105441241E+03  0.18114425436E+03  0.00000000000E+00 0.  1.
         11    1    1    2    0    0 -0.15830186860E+01 -0.18694196418E+01 -0.15656402212E+03  0.15658318460E+03  0.00000000000E+00 0.  1.
        -15    1    1    2    0    0  0.34604557510E+01  0.16093549352E+01 -0.12471560432E+02  0.13162914796E+02  0.17770000000E+01 0. -1.
         15    1    1    2    0    0 -0.64373344374E+01 -0.31674662228E+01 -0.12018829862E+02  0.14109646245E+02  0.17770000000E+01 0. -1.
</event>
<event>
 6    1  0.1108180E-002  0.1825766E+03  0.7546771E-02  0.1068394E+00
        -11   -1    0    0    0    0  0.00000000000E+00  0.00000000000E+00  0.18250000000E+03  0.18250000000E+03  0.00000000000E+00 0.  1.
         11   -1    0    0    0    0 -0.00000000000E+00 -0.00000000000E+00 -0.18250000000E+03  0.18250000000E+03  0.00000000000E+00 0.  1.
        -11    1    1    2    0    0 -0.16618095009E+01  0.22973738629E+01  0.18240139531E+03  0.18242343202E+03  0.00000000000E+00 0.  1.
         11    1    1    2    0    0  0.10951504588E+01 -0.53707687550E-03 -0.80973244417E+02  0.80980649949E+02  0.00000000000E+00 0.  1.
        -15    1    1    2    0    0  0.17446051675E+01 -0.42753323427E+00 -0.28222990597E+02  0.28335867008E+02  0.17770000000E+01 0. -1.
         15    1    1    2    0    0 -0.11779461253E+01 -0.18693035518E+01 -0.73205160298E+02  0.73260051025E+02  0.17770000000E+01 0.  1.
</event>
<event>
 6    1  0.1108180E-002  0.1836488E+03  0.7546771E-02  0.1067544E+00
        -11   -1    0    0    0    0  0.00000000000E+00  0.00000000000E+00  0.18250000000E+03  0.18250000000E+03  0.00000000000E+00 0. -1.
         11   -1    0    0    0    0 -0.00000000000E+00 -0.00000000000E+00 -0.18250000000E+03  0.18250000000E+03  0.00000000000E+00 0. -1.
        -11    1    1    2    0    0  0.23244650429E+01 -0.23975404152E+01  0.18132047132E+03  0.18135121907E+03  0.00000000000E+00 0. -1.
         11    1    1    2    0    0 -0.12413079347E+01  0.22146798296E+01 -0.15532128129E+03  0.15534202933E+03  0.00000000000E+00 0. -1.
        -15    1    1    2    0    0  0.19950110876E+01  0.24332280707E+01 -0.22631068740E+02  0.22917758821E+02  0.17770000000E+01 0. -1.
         15    1    1    2    0    0 -0.30781681959E+01 -0.22503674852E+01 -0.33681212852E+01  0.53889927865E+01  0.17770000000E+01 0.  1.
</event>
<event>
 6    1  0.1108180E-002  0.1853370E+03  0.7546771E-02  0.1066219E+00
        -11   -1    0    0    0    0  0.00000000000E+00  0.00000000000E+00  0.18250000000E+03  0.18250000000E+03  0.00000000000E+00 0.  1.
         11   -1    0    0    0    0 -0.00000000000E+00 -0.00000000000E+00 -0.18250000000E+03  0.18250000000E+03  0.00000000000E+00 0.  1.
        -11    1    1    2    0    0 -0.25097704083E+01 -0.12091900299E+01  0.17964136971E+03  0.17966297003E+03  0.00000000000E+00 0.  1.
         11    1    1    2    0    0 -0.27765021153E+01 -0.24907860294E+01 -0.16751872858E+03  0.16756025007E+03  0.00000000000E+00 0.  1.
        -15    1    1    2    0    0  0.12136443230E+01 -0.31801941277E+01 -0.73625497430E+01  0.83037000759E+01  0.17770000000E+01 0. -1.
         15    1    1    2    0    0  0.40726282005E+01  0.68801701870E+01 -0.47600913949E+01  0.94730798239E+01  0.17770000000E+01 0.  1.
</event>
<event>
 6    1  0.1108180E-002  0.1938079E+03  0.7546771E-02  0.1059794E+00
        -11   -1    0    0    0    0  0.00000000000E+00  0.00000000000E+00  0.18250000000E+03  0.18250000000E+03  0.00000000000E+00 0. -1.
         11   -1    0    0    0    0 -0.00000000000E+00 -0.00000000000E+00 -0.18250000000E+03  0.18250000000E+03  0.00000000000E+00 0. -1.
        -11    1    1    2    0    0  0.46288639775E+01  0.90130283602E+01  0.17089197410E+03  0.17119207889E+03  0.00000000000E+00 0. -1.
         11    1    1    2    0    0 -0.12421149099E+02 -0.41809279288E+00 -0.13949899969E+03  0.14005152859E+03  0.00000000000E+00 0. -1.
        -15    1    1    2    0    0  0.20020097012E+02 -0.64504850131E+01 -0.34853059159E+02  0.40746858811E+02  0.17770000000E+01 0. -1.
         15    1    1    2    0    0 -0.12227811890E+02 -0.21444505543E+01  0.34600847447E+01  0.13009533706E+02  0.17770000000E+01 0.  1.
</event>
<event>
 6    1  0.1108180E-002  0.1842676E+03  0.7546771E-02  0.1067056E+00
        -11   -1    0    0    0    0  0.00000000000E+00  0.00000000000E+00  0.18250000000E+03  0.18250000000E+03  0.00000000000E+00 0.  1.
         11   -1    0    0    0    0 -0.00000000000E+00 -0.00000000000E+00 -0.18250000000E+03  0.18250000000E+03  0.00000000000E+00 0.  1.
        -11    1    1    2    0    0  0.29497557659E+01 -0.52997160833E+01  0.16712372375E+03  0.16723374985E+03  0.00000000000E+00 0.  1.
         11    1    1    2    0    0 -0.27895158144E+01 -0.15982955744E+00 -0.18071080911E+03  0.18073240847E+03  0.00000000000E+00 0.  1.
        -15    1    1    2    0    0  0.26706585969E+01  0.16632336464E+01  0.14654402897E+01  0.38992316867E+01  0.17770000000E+01 0.  1.
         15    1    1    2    0    0 -0.28308985484E+01  0.37963119943E+01  0.12121645069E+02  0.13134609988E+02  0.17770000000E+01 0. -1.
</event>
<event>
 6    1  0.1108180E-002  0.1827078E+03  0.7546771E-02  0.1068290E+00
        -11   -1    0    0    0    0  0.00000000000E+00  0.00000000000E+00  0.18250000000E+03  0.18250000000E+03  0.00000000000E+00 0.  1.
         11   -1    0    0    0    0 -0.00000000000E+00 -0.00000000000E+00 -0.18250000000E+03  0.18250000000E+03  0.00000000000E+00 0.  1.
        -11    1    1    2    0    0 -0.74335295772E+00  0.29360685870E+01  0.18226704546E+03  0.18229220755E+03  0.00000000000E+00 0.  1.
         11    1    1    2    0    0  0.33430813600E+01 -0.62227288199E+00 -0.62654231828E+02  0.62746443585E+02  0.00000000000E+00 0.  1.
        -15    1    1    2    0    0 -0.94294329064E+00 -0.49985153782E+01 -0.61361745766E+02  0.61597856055E+02  0.17770000000E+01 0. -1.
         15    1    1    2    0    0 -0.16567851116E+01  0.26847196732E+01 -0.58251067866E+02  0.58363492811E+02  0.17770000000E+01 0.  1.
</event>
<event>
 6    1  0.1108180E-002  0.1839473E+03  0.7546771E-02  0.1067309E+00
        -11   -1    0    0    0    0  0.00000000000E+00  0.00000000000E+00  0.18250000000E+03  0.18250000000E+03  0.00000000000E+00 0. -1.
         11   -1    0    0    0    0 -0.00000000000E+00 -0.00000000000E+00 -0.18250000000E+03  0.18250000000E+03  0.00000000000E+00 0.  1.
        -11    1    1    2    0    0  0.44722701632E-01 -0.65616438099E+01  0.14227148922E+03  0.14242272928E+03  0.00000000000E+00 0. -1.
         11    1    1    2    0    0 -0.27984007823E+01 -0.94143902755E+00 -0.18102857439E+03  0.18105265008E+03  0.00000000000E+00 0.  1.
        -15    1    1    2    0    0  0.27000447450E+01  0.63000851989E+00  0.15381528926E+01  0.36346658280E+01  0.17770000000E+01 0. -1.
         15    1    1    2    0    0  0.53633335646E-01  0.68730743176E+01  0.37218932279E+02  0.37889954818E+02  0.17770000000E+01 0.  1.
</event>
<event>
 6    1  0.1108180E-002  0.1662734E+03  0.7546771E-02  0.1082159E+00
        -11   -1    0    0    0    0  0.00000000000E+00  0.00000000000E+00  0.18250000000E+03  0.18250000000E+03  0.00000000000E+00 0.  1.
         11   -1    0    0    0    0 -0.00000000000E+00 -0.00000000000E+00 -0.18250000000E+03  0.18250000000E+03  0.00000000000E+00 0.  1.
        -11    1    1    2    0    0 -0.38611035802E+01 -0.76617640392E+01  0.17762664277E+03  0.17783372844E+03  0.00000000000E+00 0.  1.
         11    1    1    2    0    0  0.28082070132E+00  0.76320377256E+00 -0.12990971142E+02  0.13016400097E+02  0.00000000000E+00 0.  1.
        -15    1    1    2    0    0  0.56438541742E+00 -0.86271902457E+01 -0.15559646369E+03  0.15584660467E+03  0.17770000000E+01 0.  1.
         15    1    1    2    0    0  0.30158974615E+01  0.15525750512E+02 -0.90392079325E+01  0.18303266799E+02  0.17770000000E+01 0. -1.
</event>
<event>
 6    1  0.1108180E-002  0.2013432E+03  0.7546771E-02  0.1054372E+00
        -11   -1    0    0    0    0  0.00000000000E+00  0.00000000000E+00  0.18250000000E+03  0.18250000000E+03  0.00000000000E+00 0. -1.
         11   -1    0    0    0    0 -0.00000000000E+00 -0.00000000000E+00 -0.18250000000E+03  0.18250000000E+03  0.00000000000E+00 0.  1.
        -11    1    1    2    0    0 -0.13551372705E+01  0.32245421429E+01  0.14059591161E+03  0.14063941279E+03  0.00000000000E+00 0. -1.
         11    1    1    2    0    0  0.55182153844E+01 -0.96115055923E+01 -0.16328108631E+03  0.16365678993E+03  0.00000000000E+00 0.  1.
        -15    1    1    2    0    0  0.17890674485E+02 -0.17697708760E+01  0.30849181679E+02  0.35749658204E+02  0.17770000000E+01 0. -1.
         15    1    1    2    0    0 -0.22053752599E+02  0.81567343254E+01 -0.81640069708E+01  0.24954139083E+02  0.17770000000E+01 0.  1.
</event>
<event>
 6    1  0.1108180E-002  0.1886670E+03  0.7546771E-02  0.1063649E+00
        -11   -1    0    0    0    0  0.00000000000E+00  0.00000000000E+00  0.18250000000E+03  0.18250000000E+03  0.00000000000E+00 0. -1.
         11   -1    0    0    0    0 -0.00000000000E+00 -0.00000000000E+00 -0.18250000000E+03  0.18250000000E+03  0.00000000000E+00 0. -1.
        -11    1    1    2    0    0 -0.59525214406E+00 -0.33078966080E+01  0.17630093463E+03  0.17633296929E+03  0.00000000000E+00 0. -1.
         11    1    1    2    0    0  0.36648459675E+01  0.42764235226E+01 -0.16863489430E+03  0.16872891415E+03  0.00000000000E+00 0. -1.
        -15    1    1    2    0    0  0.20324776334E+01  0.13538595725E+01  0.50748458373E+01  0.59055643545E+01  0.17770000000E+01 0. -1.
         15    1    1    2    0    0 -0.51020714569E+01 -0.23223864871E+01 -0.12740886171E+02  0.14032552211E+02  0.17770000000E+01 0.  1.
</event>
<event>
 6    1  0.1108180E-002  0.1826292E+03  0.7546771E-02  0.1068352E+00
        -11   -1    0    0    0    0  0.00000000000E+00  0.00000000000E+00  0.18250000000E+03  0.18250000000E+03  0.00000000000E+00 0.  1.
         11   -1    0    0    0    0 -0.00000000000E+00 -0.00000000000E+00 -0.18250000000E+03  0.18250000000E+03  0.00000000000E+00 0.  1.
        -11    1    1    2    0    0 -0.12827026892E+01 -0.13806829138E+01  0.79119799073E+02  0.79142240408E+02  0.00000000000E+00 0.  1.
         11    1    1    2    0    0 -0.28554888500E+01  0.71584805606E-02 -0.18234840754E+03  0.18237076410E+03  0.00000000000E+00 0.  1.
        -15    1    1    2    0    0  0.48793834775E+01  0.76712518496E+00  0.69422227605E+02  0.69620401312E+02  0.17770000000E+01 0.  1.
         15    1    1    2    0    0 -0.74119193834E+00  0.60639924829E+00  0.33806380859E+02  0.33866594179E+02  0.17770000000E+01 0.  1.
</event>
<event>
 6    1  0.1108180E-002  0.1789633E+03  0.7546771E-02  0.1071305E+00
        -11   -1    0    0    0    0  0.00000000000E+00  0.00000000000E+00  0.18250000000E+03  0.18250000000E+03  0.00000000000E+00 0. -1.
         11   -1    0    0    0    0 -0.00000000000E+00 -0.00000000000E+00 -0.18250000000E+03  0.18250000000E+03  0.00000000000E+00 0.  1.
        -11    1    1    2    0    0  0.28478121879E+01  0.29615641960E+01  0.18421073522E+02  0.18873707809E+02  0.00000000000E+00 0. -1.
         11    1    1    2    0    0  0.83528326265E+00 -0.38885550032E+01 -0.17573422670E+03  0.17577922799E+03  0.00000000000E+00 0.  1.
        -15    1    1    2    0    0 -0.13148839511E+02  0.19541854871E+02  0.18614488274E+02  0.30073792162E+02  0.17770000000E+01 0.  1.
         15    1    1    2    0    0  0.94657440602E+01 -0.18614864064E+02  0.13869866490E+03  0.14027327204E+03  0.17770000000E+01 0. -1.
</event>
<event>
 6    1  0.1108180E-002  0.1848709E+03  0.7546771E-02  0.1066583E+00
        -11   -1    0    0    0    0  0.00000000000E+00  0.00000000000E+00  0.18250000000E+03  0.18250000000E+03  0.00000000000E+00 0.  1.
         11   -1    0    0    0    0 -0.00000000000E+00 -0.00000000000E+00 -0.18250000000E+03  0.18250000000E+03  0.00000000000E+00 0.  1.
        -11    1    1    2    0    0 -0.13873684551E+01  0.40518050116E+01  0.18007814050E+03  0.18012906096E+03  0.00000000000E+00 0.  1.
         11    1    1    2    0    0 -0.47970912926E+01 -0.20391980689E+01 -0.17434513449E+03  0.17442303843E+03  0.00000000000E+00 0.  1.
        -15    1    1    2    0    0  0.54332483117E+01 -0.25519628946E+01 -0.27105130638E+01  0.68218261412E+01  0.17770000000E+01 0.  1.
         15    1    1    2    0    0  0.75121143600E+00  0.53935595189E+00 -0.30224929434E+01  0.36260744694E+01  0.17770000000E+01 0. -1.
</event>
<event>
 6    1  0.1108180E-002  0.1925421E+03  0.7546771E-02  0.1060731E+00
        -11   -1    0    0    0    0  0.00000000000E+00  0.00000000000E+00  0.18250000000E+03  0.18250000000E+03  0.00000000000E+00 0. -1.
         11   -1    0    0    0    0 -0.00000000000E+00 -0.00000000000E+00 -0.18250000000E+03  0.18250000000E+03  0.00000000000E+00 0. -1.
        -11    1    1    2    0    0 -0.66498471475E+01 -0.10565908636E+02  0.17200540650E+03  0.17245787532E+03  0.00000000000E+00 0. -1.
         11    1    1    2    0    0 -0.47018278618E+01 -0.56022792717E+01 -0.14559117178E+03  0.14577476469E+03  0.00000000000E+00 0. -1.
        -15    1    1    2    0    0  0.10375063955E+02  0.59606106745E+01 -0.32523102359E+02  0.34699866682E+02  0.17770000000E+01 0.  1.
         15    1    1    2    0    0  0.97661105394E+00  0.10207577233E+02  0.61088676379E+01  0.12067493316E+02  0.17770000000E+01 0. -1.
</event>
<event>
 6    1  0.1108180E-002  0.2176642E+03  0.7546771E-02  0.1043469E+00
        -11   -1    0    0    0    0  0.00000000000E+00  0.00000000000E+00  0.18250000000E+03  0.18250000000E+03  0.00000000000E+00 0. -1.
         11   -1    0    0    0    0 -0.00000000000E+00 -0.00000000000E+00 -0.18250000000E+03  0.18250000000E+03  0.00000000000E+00 0.  1.
        -11    1    1    2    0    0  0.12072507272E+01  0.97747332116E+00  0.86452819427E+02  0.86466773360E+02  0.00000000000E+00 0. -1.
         11    1    1    2    0    0 -0.62006799674E+02  0.10428136565E+02 -0.13324507029E+03  0.14733580011E+03  0.00000000000E+00 0.  1.
        -15    1    1    2    0    0  0.83651024856E+02 -0.33147341882E+02  0.41736527108E+02  0.99203506275E+02  0.17770000000E+01 0. -1.
         15    1    1    2    0    0 -0.22851475909E+02  0.21741731996E+02  0.50557237563E+01  0.31993920252E+02  0.17770000000E+01 0.  1.
</event>
<event>
 6    1  0.1108180E-002  0.1850668E+03  0.7546771E-02  0.1066430E+00
        -11   -1    0    0    0    0  0.00000000000E+00  0.00000000000E+00  0.18250000000E+03  0.18250000000E+03  0.00000000000E+00 0.  1.
         11   -1    0    0    0    0 -0.00000000000E+00 -0.00000000000E+00 -0.18250000000E+03  0.18250000000E+03  0.00000000000E+00 0. -1.
        -11    1    1    2    0    0  0.77872490880E+01  0.12713464054E+01  0.15133364919E+03  0.15153920598E+03  0.00000000000E+00 0.  1.
         11    1    1    2    0    0 -0.19157824727E+01  0.30275271145E+01 -0.17989757636E+03  0.17993324907E+03  0.00000000000E+00 0. -1.
        -15    1    1    2    0    0 -0.46604259476E+00  0.60799091412E+00 -0.15569560079E+01  0.24836846947E+01  0.17770000000E+01 0.  1.
         15    1    1    2    0    0 -0.54054240206E+01 -0.49068644341E+01  0.30120883173E+02  0.31043860255E+02  0.17770000000E+01 0. -1.
</event>
<event>
 6    1  0.1108180E-002  0.1833485E+03  0.7546771E-02  0.1067781E+00
        -11   -1    0    0    0    0  0.00000000000E+00  0.00000000000E+00  0.18250000000E+03  0.18250000000E+03  0.00000000000E+00 0. -1.
         11   -1    0    0    0    0 -0.00000000000E+00 -0.00000000000E+00 -0.18250000000E+03  0.18250000000E+03  0.00000000000E+00 0.  1.
        -11    1    1    2    0    0 -0.27059921777E+01  0.14238295500E+01  0.18162574341E+03  0.18165148046E+03  0.00000000000E+00 0. -1.
         11    1    1    2    0    0 -0.30091432751E+01 -0.27855740337E+01 -0.16004578132E+03  0.16009830257E+03  0.00000000000E+00 0.  1.
        -15    1    1    2    0    0  0.27242330949E+01 -0.18153052773E+01 -0.12160906005E+02  0.12718574727E+02  0.17770000000E+01 0.  1.
         15    1    1    2    0    0  0.29909023580E+01  0.31770497611E+01 -0.94190560776E+01  0.10531642251E+02  0.17770000000E+01 0. -1.
</event>
<event>
 6    1  0.1108180E-002  0.1024200E+03  0.7546771E-02  0.1159694E+00
        -11   -1    0    0    0    0  0.00000000000E+00  0.00000000000E+00  0.18250000000E+03  0.18250000000E+03  0.00000000000E+00 0.  1.
         11   -1    0    0    0    0 -0.00000000000E+00 -0.00000000000E+00 -0.18250000000E+03  0.18250000000E+03  0.00000000000E+00 0. -1.
        -11    1    1    2    0    0 -0.50494510933E+01  0.13794224006E+00  0.12257805391E+03  0.12268209032E+03  0.00000000000E+00 0.  1.
         11    1    1    2    0    0 -0.12916360169E+02  0.43884296380E+01 -0.96065466516E+02  0.97029194224E+02  0.00000000000E+00 0. -1.
        -15    1    1    2    0    0  0.99596628240E+01 -0.51383449705E+01  0.58646160129E+02  0.59733803659E+02  0.17770000000E+01 0. -1.
         15    1    1    2    0    0  0.80061484380E+01  0.61197309245E+00 -0.85158747524E+02  0.85554911798E+02  0.17770000000E+01 0.  1.
</event>
<event>
 6    1  0.1108180E-002  0.1958111E+03  0.7546771E-02  0.1058327E+00
        -11   -1    0    0    0    0  0.00000000000E+00  0.00000000000E+00  0.18250000000E+03  0.18250000000E+03  0.00000000000E+00 0. -1.
         11   -1    0    0    0    0 -0.00000000000E+00 -0.00000000000E+00 -0.18250000000E+03  0.18250000000E+03  0.00000000000E+00 0.  1.
        -11    1    1    2    0    0 -0.35233065128E+01 -0.75399710575E+01  0.11503560133E+03  0.11533626674E+03  0.00000000000E+00 0. -1.
         11    1    1    2    0    0 -0.10213557236E+02  0.22165262247E+01 -0.16886582938E+03  0.16918894194E+03  0.00000000000E+00 0.  1.
        -15    1    1    2    0    0  0.19100711378E+02  0.55732703266E+01  0.64975214683E+02  0.67976722261E+02  0.17770000000E+01 0.  1.
         15    1    1    2    0    0 -0.53638476286E+01 -0.24982549384E+00 -0.11144986633E+02  0.12498069059E+02  0.17770000000E+01 0. -1.
</event>
<event>
 6    1  0.1108180E-002  0.1826201E+03  0.7546771E-02  0.1068359E+00
        -11   -1    0    0    0    0  0.00000000000E+00  0.00000000000E+00  0.18250000000E+03  0.18250000000E+03  0.00000000000E+00 0.  1.
         11   -1    0    0    0    0 -0.00000000000E+00 -0.00000000000E+00 -0.18250000000E+03  0.18250000000E+03  0.00000000000E+00 0.  1.
        -11    1    1    2    0    0  0.12869934674E+01 -0.38324853203E+00  0.76109492048E+02  0.76121337425E+02  0.00000000000E+00 0.  1.
         11    1    1    2    0    0  0.34552889992E+01  0.78158358662E+00 -0.18234550727E+03  0.18237991643E+03  0.00000000000E+00 0.  1.
        -15    1    1    2    0    0 -0.50184467451E+01  0.60463430433E+00  0.82362653959E+02  0.82536748703E+02  0.17770000000E+01 0. -1.
         15    1    1    2    0    0  0.27616427855E+00 -0.10029693589E+01  0.23873361265E+02  0.23961997441E+02  0.17770000000E+01 0. -1.
</event>
<event>
 6    1  0.1108180E-002  0.1826622E+03  0.7546771E-02  0.1068326E+00
        -11   -1    0    0    0    0  0.00000000000E+00  0.00000000000E+00  0.18250000000E+03  0.18250000000E+03  0.00000000000E+00 0.  1.
         11   -1    0    0    0    0 -0.00000000000E+00 -0.00000000000E+00 -0.18250000000E+03  0.18250000000E+03  0.00000000000E+00 0.  1.
        -11    1    1    2    0    0 -0.17878092974E+01  0.23916865599E+01  0.18231331569E+03  0.18233776763E+03  0.00000000000E+00 0.  1.
         11    1    1    2    0    0  0.18147257435E+01  0.13385722310E+01 -0.11320089848E+03  0.11322335635E+03  0.00000000000E+00 0.  1.
        -15    1    1    2    0    0  0.35673324799E+00 -0.44099422746E+01 -0.51264824297E+02  0.51486064024E+02  0.17770000000E+01 0. -1.
         15    1    1    2    0    0 -0.38364969406E+00  0.67968348365E+00 -0.17847592912E+02  0.17952811994E+02  0.17770000000E+01 0. -1.
</event>
<event>
 6    1  0.1108180E-002  0.1907947E+03  0.7546771E-02  0.1062037E+00
        -11   -1    0    0    0    0  0.00000000000E+00  0.00000000000E+00  0.18250000000E+03  0.18250000000E+03  0.00000000000E+00 0.  1.
         11   -1    0    0    0    0 -0.00000000000E+00 -0.00000000000E+00 -0.18250000000E+03  0.18250000000E+03  0.00000000000E+00 0. -1.
        -11    1    1    2    0    0 -0.91938572492E+00  0.20371424176E+01  0.15275705385E+03  0.15277340318E+03  0.00000000000E+00 0.  1.
         11    1    1    2    0    0 -0.25560822307E+01  0.26240681974E+01 -0.17416676538E+03  0.17420528538E+03  0.00000000000E+00 0. -1.
        -15    1    1    2    0    0 -0.19331424269E+01 -0.27561029887E+01  0.28487321995E+02  0.28740535603E+02  0.17770000000E+01 0. -1.
         15    1    1    2    0    0  0.54086103825E+01 -0.19051076263E+01 -0.70776104565E+01  0.92807758357E+01  0.17770000000E+01 0.  1.
</event>
<event>
 6    1  0.1108180E-002  0.1872017E+03  0.7546771E-02  0.1064773E+00
        -11   -1    0    0    0    0  0.00000000000E+00  0.00000000000E+00  0.18250000000E+03  0.18250000000E+03  0.00000000000E+00 0.  1.
         11   -1    0    0    0    0 -0.00000000000E+00 -0.00000000000E+00 -0.18250000000E+03  0.18250000000E+03  0.00000000000E+00 0.  1.
        -11    1    1    2    0    0 -0.55294242525E+01 -0.34143639575E+01  0.12849277041E+03  0.12865700316E+03  0.00000000000E+00 0.  1.
         11    1    1    2    0    0 -0.11314752253E+01 -0.35745470451E+01 -0.17775871870E+03  0.17779825561E+03  0.00000000000E+00 0.  1.
        -15    1    1    2    0    0  0.77973150250E+01 -0.10695049415E+02  0.26163650840E+02  0.29374760558E+02  0.17770000000E+01 0. -1.
         15    1    1    2    0    0 -0.11364155472E+01  0.17683960418E+02  0.23102297451E+02  0.29169980680E+02  0.17770000000E+01 0.  1.
</event>
<event>
 6    1  0.1108180E-002  0.1828818E+03  0.7546771E-02  0.1068151E+00
        -11   -1    0    0    0    0  0.00000000000E+00  0.00000000000E+00  0.18250000000E+03  0.18250000000E+03  0.00000000000E+00 0. -1.
         11   -1    0    0    0    0 -0.00000000000E+00 -0.00000000000E+00 -0.18250000000E+03  0.18250000000E+03  0.00000000000E+00 0.  1.
        -11    1    1    2    0    0 -0.39548592599E+01  0.25269625324E+01  0.18205775125E+03  0.18211823424E+03  0.00000000000E+00 0. -1.
         11    1    1    2    0    0 -0.94992142834E+00  0.25889464374E+01 -0.93137445913E+02  0.93178263697E+02  0.00000000000E+00 0.  1.
        -15    1    1    2    0    0  0.50246173908E+01 -0.46087506374E+01 -0.85696567927E+02  0.85985736293E+02  0.17770000000E+01 0.  1.
         15    1    1    2    0    0 -0.11983670251E+00 -0.50715833234E+00 -0.32237374133E+01  0.37177657699E+01  0.17770000000E+01 0.  1.
</event>
<event>
 6    1  0.1108180E-002  0.1828000E+03  0.7546771E-02  0.1068216E+00
        -11   -1    0    0    0    0  0.00000000000E+00  0.00000000000E+00  0.18250000000E+03  0.18250000000E+03  0.00000000000E+00 0. -1.
         11   -1    0    0    0    0 -0.00000000000E+00 -0.00000000000E+00 -0.18250000000E+03  0.18250000000E+03  0.00000000000E+00 0.  1.
        -11    1    1    2    0    0  0.32952768345E+00 -0.17225651428E+01  0.11071112214E+03  0.11072501246E+03  0.00000000000E+00 0. -1.
         11    1    1    2    0    0 -0.43138765963E+00  0.27362102924E+01 -0.18217895840E+03  0.18220001598E+03  0.00000000000E+00 0.  1.
        -15    1    1    2    0    0 -0.84981261888E+00 -0.13413719306E+01  0.46424335137E+01  0.52183692924E+01  0.17770000000E+01 0.  1.
         15    1    1    2    0    0  0.95167259505E+00  0.32772678097E+00  0.66825402740E+02  0.66856602261E+02  0.17770000000E+01 0. -1.
</event>
<event>
 6    1  0.1108180E-002  0.1836342E+03  0.7546771E-02  0.1067556E+00
        -11   -1    0    0    0    0  0.00000000000E+00  0.00000000000E+00  0.18250000000E+03  0.18250000000E+03  0.00000000000E+00 0.  1.
         11   -1    0    0    0    0 -0.00000000000E+00 -0.00000000000E+00 -0.18250000000E+03  0.18250000000E+03  0.00000000000E+00 0.  1.
        -11    1    1    2    0    0 -0.20246710227E+01  0.13897029304E+01  0.15157823148E+03  0.15159812276E+03  0.00000000000E+00 0.  1.
         11    1    1    2    0    0  0.28512783650E+01 -0.10066815934E+01 -0.18134057040E+03  0.18136577866E+03  0.00000000000E+00 0.  1.
        -15    1    1    2    0    0  0.18241236195E+01 -0.56384701569E+00  0.28468591855E+02  0.28587826109E+02  0.17770000000E+01 0. -1.
         15    1    1    2    0    0 -0.26507309619E+01  0.18082567868E+00  0.12937470649E+01  0.34482724698E+01  0.17770000000E+01 0. -1.
</event>
<event>
 6    1  0.1108180E-002  0.1835372E+03  0.7546771E-02  0.1067632E+00
        -11   -1    0    0    0    0  0.00000000000E+00  0.00000000000E+00  0.18250000000E+03  0.18250000000E+03  0.00000000000E+00 0. -1.
         11   -1    0    0    0    0 -0.00000000000E+00 -0.00000000000E+00 -0.18250000000E+03  0.18250000000E+03  0.00000000000E+00 0.  1.
        -11    1    1    2    0    0  0.34322111804E+01 -0.40883199603E+00  0.16809521339E+03  0.16813074669E+03  0.00000000000E+00 0. -1.
         11    1    1    2    0    0  0.22819143233E+01 -0.11287080679E+01 -0.18144491607E+03  0.18146277492E+03  0.00000000000E+00 0.  1.
        -15    1    1    2    0    0 -0.29696767982E+01  0.15015024881E+01  0.10163681361E+02  0.10841200940E+02  0.17770000000E+01 0. -1.
         15    1    1    2    0    0 -0.27444487055E+01  0.36037575819E-01  0.31860213182E+01  0.45652774553E+01  0.17770000000E+01 0.  1.
</event>
<event>
 6    1  0.1108180E-002  0.1854234E+03  0.7546771E-02  0.1066151E+00
        -11   -1    0    0    0    0  0.00000000000E+00  0.00000000000E+00  0.18250000000E+03  0.18250000000E+03  0.00000000000E+00 0.  1.
         11   -1    0    0    0    0 -0.00000000000E+00 -0.00000000000E+00 -0.18250000000E+03  0.18250000000E+03  0.00000000000E+00 0.  1.
        -11    1    1    2    0    0 -0.13703062529E+01 -0.54142891543E+01  0.17948971548E+03  0.17957658597E+03  0.00000000000E+00 0.  1.
         11    1    1    2    0    0 -0.41944430775E+01  0.29564838558E+01 -0.15153643554E+03  0.15162330113E+03  0.00000000000E+00 0.  1.
        -15    1    1    2    0    0 -0.50988877424E+01  0.49577284528E+01 -0.15335676191E+02  0.16997600444E+02  0.17770000000E+01 0.  1.
         15    1    1    2    0    0  0.10663637073E+02 -0.24999231543E+01 -0.12617603753E+02  0.16802512457E+02  0.17770000000E+01 0. -1.
</event>
<event>
 6    1  0.1108180E-002  0.1825809E+03  0.7546771E-02  0.1068390E+00
        -11   -1    0    0    0    0  0.00000000000E+00  0.00000000000E+00  0.18250000000E+03  0.18250000000E+03  0.00000000000E+00 0. -1.
         11   -1    0    0    0    0 -0.00000000000E+00 -0.00000000000E+00 -0.18250000000E+03  0.18250000000E+03  0.00000000000E+00 0.  1.
        -11    1    1    2    0    0 -0.21851579507E+01 -0.17584719747E+01  0.18239749541E+03  0.18241906005E+03  0.00000000000E+00 0. -1.
         11    1    1    2    0    0  0.11903336654E+01 -0.86694098127E+00 -0.96203888583E+02  0.96215158158E+02  0.00000000000E+00 0.  1.
        -15    1    1    2    0    0 -0.55085507913E+00 -0.79410663236E-01 -0.28326445953E+02  0.28387585609E+02  0.17770000000E+01 0. -1.
         15    1    1    2    0    0  0.15456793644E+01  0.27048236193E+01 -0.57867160875E+02  0.57978196179E+02  0.17770000000E+01 0.  1.
</event>
<event>
 6    1  0.1108180E-002  0.1850199E+03  0.7546771E-02  0.1066466E+00
        -11   -1    0    0    0    0  0.00000000000E+00  0.00000000000E+00  0.18250000000E+03  0.18250000000E+03  0.00000000000E+00 0. -1.
         11   -1    0    0    0    0 -0.00000000000E+00 -0.00000000000E+00 -0.18250000000E+03  0.18250000000E+03  0.00000000000E+00 0. -1.
        -11    1    1    2    0    0 -0.50869760037E+01  0.38097120134E+01  0.17986782431E+03  0.17998006960E+03  0.00000000000E+00 0. -1.
         11    1    1    2    0    0  0.53984791950E+01  0.20796936649E+01 -0.15476392662E+03  0.15487201712E+03  0.00000000000E+00 0. -1.
        -15    1    1    2    0    0  0.18926376971E+01 -0.41403121262E+01 -0.63497806508E-01  0.48873329052E+01  0.17770000000E+01 0.  1.
         15    1    1    2    0    0 -0.22041408884E+01 -0.17490935521E+01 -0.25040399889E+02  0.25260580376E+02  0.17770000000E+01 0. -1.
</event>
<event>
 6    1  0.1108180E-002  0.1832628E+03  0.7546771E-02  0.1067849E+00
        -11   -1    0    0    0    0  0.00000000000E+00  0.00000000000E+00  0.18250000000E+03  0.18250000000E+03  0.00000000000E+00 0.  1.
         11   -1    0    0    0    0 -0.00000000000E+00 -0.00000000000E+00 -0.18250000000E+03  0.18250000000E+03  0.00000000000E+00 0. -1.
        -11    1    1    2    0    0 -0.40631912509E+01 -0.49438327199E+01  0.18162450609E+03  0.18173720648E+03  0.00000000000E+00 0.  1.
         11    1    1    2    0    0  0.28146369470E+01 -0.14877114712E+01 -0.12109534013E+03  0.12113718202E+03  0.00000000000E+00 0. -1.
        -15    1    1    2    0    0 -0.40685264510E+01  0.19197888682E+01 -0.10248622038E+02  0.11332717214E+02  0.17770000000E+01 0. -1.
         15    1    1    2    0    0  0.53170807548E+01  0.45117553229E+01 -0.50280543920E+02  0.50792894284E+02  0.17770000000E+01 0.  1.
</event>
<event>
 6    1  0.1108180E-002  0.1826203E+03  0.7546771E-02  0.1068359E+00
        -11   -1    0    0    0    0  0.00000000000E+00  0.00000000000E+00  0.18250000000E+03  0.18250000000E+03  0.00000000000E+00 0. -1.
         11   -1    0    0    0    0 -0.00000000000E+00 -0.00000000000E+00 -0.18250000000E+03  0.18250000000E+03  0.00000000000E+00 0.  1.
        -11    1    1    2    0    0 -0.38837503912E+01 -0.14212315475E+01  0.18233278863E+03  0.18237968425E+03  0.00000000000E+00 0. -1.
         11    1    1    2    0    0 -0.16381256935E+01  0.41558019902E+00 -0.59969230742E+02  0.59993039583E+02  0.00000000000E+00 0.  1.
        -15    1    1    2    0    0  0.14245097800E+01  0.36051268879E-01 -0.77088325496E+02  0.77121969533E+02  0.17770000000E+01 0. -1.
         15    1    1    2    0    0  0.40973663047E+01  0.96960007958E+00 -0.45275232393E+02  0.45505306637E+02  0.17770000000E+01 0.  1.
</event>
<event>
 6    1  0.1108180E-002  0.1852476E+03  0.7546771E-02  0.1066289E+00
        -11   -1    0    0    0    0  0.00000000000E+00  0.00000000000E+00  0.18250000000E+03  0.18250000000E+03  0.00000000000E+00 0. -1.
         11   -1    0    0    0    0 -0.00000000000E+00 -0.00000000000E+00 -0.18250000000E+03  0.18250000000E+03  0.00000000000E+00 0. -1.
        -11    1    1    2    0    0  0.57750657698E+01 -0.26083358188E+01  0.17964068642E+03  0.17975241589E+03  0.00000000000E+00 0. -1.
         11    1    1    2    0    0  0.47163245256E+01 -0.51041487511E+00 -0.16669990245E+03  0.16676738805E+03  0.00000000000E+00 0. -1.
        -15    1    1    2    0    0 -0.83592514454E+01  0.41373358515E+01 -0.68441077837E+01  0.11704450992E+02  0.17770000000E+01 0.  1.
         15    1    1    2    0    0 -0.21321388500E+01 -0.10185851576E+01 -0.60966761825E+01  0.67757450715E+01  0.17770000000E+01 0. -1.
</event>
<event>
 6    1  0.1108180E-002  0.1857127E+03  0.7546771E-02  0.1065926E+00
        -11   -1    0    0    0    0  0.00000000000E+00  0.00000000000E+00  0.18250000000E+03  0.18250000000E+03  0.00000000000E+00 0.  1.
         11   -1    0    0    0    0 -0.00000000000E+00 -0.00000000000E+00 -0.18250000000E+03  0.18250000000E+03  0.00000000000E+00 0. -1.
        -11    1    1    2    0    0  0.35922551910E+01  0.49487656587E+01  0.16500283178E+03  0.16511610786E+03  0.00000000000E+00 0.  1.
         11    1    1    2    0    0  0.40819286745E+01  0.67324791362E+01 -0.17911434439E+03  0.17928730235E+03  0.00000000000E+00 0. -1.
        -15    1    1    2    0    0 -0.64782518246E+01 -0.92668023252E+01  0.90392253720E+01  0.14584467641E+02  0.17770000000E+01 0.  1.
         15    1    1    2    0    0 -0.11959320408E+01 -0.24144424697E+01  0.50722872373E+01  0.60121221464E+01  0.17770000000E+01 0. -1.
</event>
<event>
 6    1  0.1907934E-002  0.1642493E+03  0.7546771E-02  0.1083988E+00
        -11   -1    0    0    0    0  0.00000000000E+00  0.00000000000E+00  0.18250000000E+03  0.18250000000E+03  0.00000000000E+00 0. -1.
         11   -1    0    0    0    0 -0.00000000000E+00 -0.00000000000E+00 -0.18250000000E+03  0.18250000000E+03  0.00000000000E+00 0. -1.
        -11    1    1    2    0    0  0.11126745283E+02 -0.51262907093E+01  0.16409556199E+03  0.16455223117E+03  0.00000000000E+00 0. -1.
         11    1    1    2    0    0  0.20651385661E+01 -0.23793271114E+01 -0.16426658907E+03  0.16429679936E+03  0.00000000000E+00 0. -1.
        -15    1    1    2    0    0 -0.22711737268E+00  0.10785284129E+01 -0.14979683562E+02  0.15124928246E+02  0.17770000000E+01 0.  1.
         15    1    1    2    0    0 -0.12964766477E+02  0.64270894078E+01  0.15150710639E+02  0.21026041232E+02  0.17770000000E+01 0. -1.
</event>
<event>
 6    1  0.1108180E-002  0.1938163E+03  0.7546771E-02  0.1059788E+00
        -11   -1    0    0    0    0  0.00000000000E+00  0.00000000000E+00  0.18250000000E+03  0.18250000000E+03  0.00000000000E+00 0. -1.
         11   -1    0    0    0    0 -0.00000000000E+00 -0.00000000000E+00 -0.18250000000E+03  0.18250000000E+03  0.00000000000E+00 0. -1.
        -11    1    1    2    0    0  0.10679353751E+02  0.69217680145E+01  0.17070996289E+03  0.17118367592E+03  0.00000000000E+00 0. -1.
         11    1    1    2    0    0  0.36665896516E+01  0.57505845370E+01 -0.10251781024E+03  0.10274441356E+03  0.00000000000E+00 0. -1.
        -15    1    1    2    0    0  0.78439660633E+01 -0.88389559146E+01  0.61030891293E+01  0.13418657578E+02  0.17770000000E+01 0. -1.
         15    1    1    2    0    0 -0.22189909466E+02 -0.38333966369E+01 -0.74295241785E+02  0.77653252944E+02  0.17770000000E+01 0.  1.
</event>
<event>
 6    1  0.1108180E-002  0.1830636E+03  0.7546771E-02  0.1068007E+00
        -11   -1    0    0    0    0  0.00000000000E+00  0.00000000000E+00  0.18250000000E+03  0.18250000000E+03  0.00000000000E+00 0. -1.
         11   -1    0    0    0    0 -0.00000000000E+00 -0.00000000000E+00 -0.18250000000E+03  0.18250000000E+03  0.00000000000E+00 0. -1.
        -11    1    1    2    0    0  0.35480257697E+01 -0.12212840702E+01  0.18189765266E+03  0.18193635169E+03  0.00000000000E+00 0. -1.
         11    1    1    2    0    0 -0.56760385933E+01 -0.25905609880E+01 -0.15957774880E+03  0.15969967543E+03  0.00000000000E+00 0. -1.
        -15    1    1    2    0    0  0.11360778900E+01  0.20286096388E+01 -0.46932691102E+01  0.55308619563E+01  0.17770000000E+01 0. -1.
         15    1    1    2    0    0  0.99193493357E+00  0.17832354193E+01 -0.17626634750E+02  0.17833110920E+02  0.17770000000E+01 0.  1.
</event>
<event>
 6    1  0.1108180E-002  0.1857519E+03  0.7546771E-02  0.1065895E+00
        -11   -1    0    0    0    0  0.00000000000E+00  0.00000000000E+00  0.18250000000E+03  0.18250000000E+03  0.00000000000E+00 0. -1.
         11   -1    0    0    0    0 -0.00000000000E+00 -0.00000000000E+00 -0.18250000000E+03  0.18250000000E+03  0.00000000000E+00 0.  1.
        -11    1    1    2    0    0  0.10696216806E+01 -0.34169073602E+01  0.17921236432E+03  0.17924812655E+03  0.00000000000E+00 0. -1.
         11    1    1    2    0    0 -0.15222987720E+01  0.42108525864E+01 -0.14319169016E+03  0.14326167947E+03  0.00000000000E+00 0.  1.
        -15    1    1    2    0    0 -0.97539213460E+00  0.24536025814E+01 -0.37946474213E+02  0.38079708372E+02  0.17770000000E+01 0. -1.
         15    1    1    2    0    0  0.14280692260E+01 -0.32475478076E+01  0.19258000574E+01  0.44104856125E+01  0.17770000000E+01 0.  1.
</event>
<event>
 6    1  0.1108180E-002  0.1890700E+03  0.7546771E-02  0.1063342E+00
        -11   -1    0    0    0    0  0.00000000000E+00  0.00000000000E+00  0.18250000000E+03  0.18250000000E+03  0.00000000000E+00 0. -1.
         11   -1    0    0    0    0 -0.00000000000E+00 -0.00000000000E+00 -0.18250000000E+03  0.18250000000E+03  0.00000000000E+00 0. -1.
        -11    1    1    2    0    0  0.84842867977E+01  0.49486656125E+01  0.17565560188E+03  0.17592999428E+03  0.00000000000E+00 0. -1.
         11    1    1    2    0    0 -0.15206175263E+01  0.19471274775E+01 -0.16512893435E+03  0.16514741458E+03  0.00000000000E+00 0. -1.
        -15    1    1    2    0    0  0.52812391594E+01 -0.15033230803E+01  0.13688813810E+01  0.59315286881E+01  0.17770000000E+01 0. -1.
         15    1    1    2    0    0 -0.12244908431E+02 -0.53924700097E+01 -0.11895548911E+02  0.17991062452E+02  0.17770000000E+01 0.  1.
</event>
<event>
 6    1  0.1144724E-002  0.1323066E+03  0.7546771E-02  0.1117361E+00
        -11   -1    0    0    0    0  0.00000000000E+00  0.00000000000E+00  0.18250000000E+03  0.18250000000E+03  0.00000000000E+00 0. -1.
         11   -1    0    0    0    0 -0.00000000000E+00 -0.00000000000E+00 -0.18250000000E+03  0.18250000000E+03  0.00000000000E+00 0.  1.
        -11    1    1    2    0    0  0.16014686065E+02 -0.10585236882E+02  0.15885238042E+02  0.24917026253E+02  0.00000000000E+00 0. -1.
         11    1    1    2    0    0  0.41592548002E+01 -0.16501872191E+01 -0.10804289996E+03  0.10813552030E+03  0.00000000000E+00 0.  1.
        -15    1    1    2    0    0 -0.14918526303E+02  0.23731674541E+02  0.16023785010E+03  0.16268091818E+03  0.17770000000E+01 0. -1.
         15    1    1    2    0    0 -0.52554145622E+01 -0.11496250441E+02 -0.68080188188E+02  0.69266535276E+02  0.17770000000E+01 0.  1.
</event>
<event>
 6    1  0.1108180E-002  0.1829275E+03  0.7546771E-02  0.1068115E+00
        -11   -1    0    0    0    0  0.00000000000E+00  0.00000000000E+00  0.18250000000E+03  0.18250000000E+03  0.00000000000E+00 0. -1.
         11   -1    0    0    0    0 -0.00000000000E+00 -0.00000000000E+00 -0.18250000000E+03  0.18250000000E+03  0.00000000000E+00 0.  1.
        -11    1    1    2    0    0 -0.21729318813E+01 -0.23737357128E+01  0.18204404252E+03  0.18207248466E+03  0.00000000000E+00 0. -1.
         11    1    1    2    0    0 -0.28894854810E+01 -0.82707548312E+00 -0.28871032335E+02  0.29027050974E+02  0.00000000000E+00 0.  1.
        -15    1    1    2    0    0  0.17478811131E+01  0.23904556728E+01 -0.14272317824E+03  0.14276495614E+03  0.17770000000E+01 0.  1.
         15    1    1    2    0    0  0.33145362492E+01  0.81035552311E+00 -0.10449831945E+02  0.11135508220E+02  0.17770000000E+01 0. -1.
</event>
<event>
 6    1  0.1108180E-002  0.1836832E+03  0.7546771E-02  0.1067517E+00
        -11   -1    0    0    0    0  0.00000000000E+00  0.00000000000E+00  0.18250000000E+03  0.18250000000E+03  0.00000000000E+00 0.  1.
         11   -1    0    0    0    0 -0.00000000000E+00 -0.00000000000E+00 -0.18250000000E+03  0.18250000000E+03  0.00000000000E+00 0.  1.
        -11    1    1    2    0    0 -0.22746221766E+01  0.21477766903E+01  0.18128979522E+03  0.18131678550E+03  0.00000000000E+00 0.  1.
         11    1    1    2    0    0  0.23686562433E+01  0.94600695456E+00 -0.17612278762E+03  0.17614125519E+03  0.00000000000E+00 0.  1.
        -15    1    1    2    0    0  0.11466237353E+01 -0.90897151372E+00 -0.14677883864E+01  0.27300379027E+01  0.17770000000E+01 0. -1.
         15    1    1    2    0    0 -0.12406578019E+01 -0.21848121311E+01 -0.36992192192E+01  0.48119214106E+01  0.17770000000E+01 0.  1.
</event>
<event>
 6    1  0.1108180E-002  0.1879518E+03  0.7546771E-02  0.1064196E+00
        -11   -1    0    0    0    0  0.00000000000E+00  0.00000000000E+00  0.18250000000E+03  0.18250000000E+03  0.00000000000E+00 0.  1.
         11   -1    0    0    0    0 -0.00000000000E+00 -0.00000000000E+00 -0.18250000000E+03  0.18250000000E+03  0.00000000000E+00 0. -1.
        -11    1    1    2    0    0  0.81045150334E+00  0.35382038333E+01  0.17203213206E+03  0.17207042215E+03  0.00000000000E+00 0.  1.
         11    1    1    2    0    0 -0.37474279551E+01  0.14135289936E+01 -0.17700291930E+03  0.17704822711E+03  0.00000000000E+00 0. -1.
        -15    1    1    2    0    0 -0.10260620460E+01 -0.79489150597E+01 -0.57063407960E+00  0.82293016837E+01  0.17770000000E+01 0. -1.
         15    1    1    2    0    0  0.39630384978E+01  0.29971822327E+01  0.55414213217E+01  0.76520490547E+01  0.17770000000E+01 0.  1.
</event>
<event>
 6    1  0.1108180E-002  0.1837173E+03  0.7546771E-02  0.1067490E+00
        -11   -1    0    0    0    0  0.00000000000E+00  0.00000000000E+00  0.18250000000E+03  0.18250000000E+03  0.00000000000E+00 0.  1.
         11   -1    0    0    0    0 -0.00000000000E+00 -0.00000000000E+00 -0.18250000000E+03  0.18250000000E+03  0.00000000000E+00 0.  1.
        -11    1    1    2    0    0  0.41205932199E+01 -0.29071071458E+01  0.18121255999E+03  0.18128271418E+03  0.00000000000E+00 0.  1.
         11    1    1    2    0    0  0.19830794686E+01  0.17985258952E+01 -0.15972380205E+03  0.15974623702E+03  0.00000000000E+00 0.  1.
        -15    1    1    2    0    0 -0.54102513511E+00 -0.11086287625E+01 -0.14235288145E+02  0.14398712564E+02  0.17770000000E+01 0.  1.
         15    1    1    2    0    0 -0.55626475534E+01  0.22172100130E+01 -0.72534697948E+01  0.95723362409E+01  0.17770000000E+01 0. -1.
</event>
<event>
 6    1  0.1108180E-002  0.1841523E+03  0.7546771E-02  0.1067147E+00
        -11   -1    0    0    0    0  0.00000000000E+00  0.00000000000E+00  0.18250000000E+03  0.18250000000E+03  0.00000000000E+00 0. -1.
         11   -1    0    0    0    0 -0.00000000000E+00 -0.00000000000E+00 -0.18250000000E+03  0.18250000000E+03  0.00000000000E+00 0. -1.
        -11    1    1    2    0    0 -0.38158357599E+01  0.10624130508E+02  0.18049506150E+03  0.18084772594E+03  0.00000000000E+00 0. -1.
         11    1    1    2    0    0  0.13401358655E+01 -0.11865419949E+01 -0.11359316113E+03  0.11360726254E+03  0.00000000000E+00 0. -1.
        -15    1    1    2    0    0  0.38033681889E+01 -0.14939221147E+02 -0.38106933695E+02  0.41145377172E+02  0.17770000000E+01 0. -1.
         15    1    1    2    0    0 -0.13276682945E+01  0.55016326337E+01 -0.28794966675E+02  0.29399634344E+02  0.17770000000E+01 0.  1.
</event>
<event>
 6    1  0.1108180E-002  0.1850004E+03  0.7546771E-02  0.1066482E+00
        -11   -1    0    0    0    0  0.00000000000E+00  0.00000000000E+00  0.18250000000E+03  0.18250000000E+03  0.00000000000E+00 0.  1.
         11   -1    0    0    0    0 -0.00000000000E+00 -0.00000000000E+00 -0.18250000000E+03  0.18250000000E+03  0.00000000000E+00 0.  1.
        -11    1    1    2    0    0 -0.56759463397E+00  0.88801190461E+01  0.12002822112E+03  0.12035760277E+03  0.00000000000E+00 0.  1.
         11    1    1    2    0    0 -0.14950603880E+02 -0.43220764907E+01 -0.17932560375E+03  0.17999964739E+03  0.00000000000E+00 0.  1.
        -15    1    1    2    0    0  0.14001195316E+02  0.26230229054E+01  0.52683757550E+02  0.54604484780E+02  0.17770000000E+01 0. -1.
         15    1    1    2    0    0  0.15170031985E+01 -0.71810654608E+01  0.66136250754E+01  0.10038265064E+02  0.17770000000E+01 0.  1.
</event>
<event>
 6    1  0.1108180E-002  0.1876828E+03  0.7546771E-02  0.1064403E+00
        -11   -1    0    0    0    0  0.00000000000E+00  0.00000000000E+00  0.18250000000E+03  0.18250000000E+03  0.00000000000E+00 0. -1.
         11   -1    0    0    0    0 -0.00000000000E+00 -0.00000000000E+00 -0.18250000000E+03  0.18250000000E+03  0.00000000000E+00 0.  1.
        -11    1    1    2    0    0 -0.29855396178E+01 -0.11674376893E+01  0.16503510685E+03  0.16506623777E+03  0.00000000000E+00 0. -1.
         11    1    1    2    0    0 -0.34363465959E+01  0.27690989545E+01 -0.17726231099E+03  0.17731723911E+03  0.00000000000E+00 0.  1.
        -15    1    1    2    0    0  0.53557668998E+01  0.10536406894E+01  0.16329226457E+02  0.17308834839E+02  0.17770000000E+01 0.  1.
         15    1    1    2    0    0  0.10661193138E+01 -0.26553019546E+01 -0.41020223129E+01  0.53076882837E+01  0.17770000000E+01 0. -1.
</event>
<event>
 6    1  0.1108180E-002  0.1840209E+03  0.7546771E-02  0.1067251E+00
        -11   -1    0    0    0    0  0.00000000000E+00  0.00000000000E+00  0.18250000000E+03  0.18250000000E+03  0.00000000000E+00 0. -1.
         11   -1    0    0    0    0 -0.00000000000E+00 -0.00000000000E+00 -0.18250000000E+03  0.18250000000E+03  0.00000000000E+00 0. -1.
        -11    1    1    2    0    0 -0.67312703733E+01 -0.51795344033E+01  0.18077967080E+03  0.18097907877E+03  0.00000000000E+00 0. -1.
         11    1    1    2    0    0  0.57913402832E+01 -0.13509208493E+01 -0.15029239357E+03  0.15041000025E+03  0.00000000000E+00 0. -1.
        -15    1    1    2    0    0 -0.27769730328E+01 -0.18788286689E+01 -0.39839315355E+01  0.55019102021E+01  0.17770000000E+01 0.  1.
         15    1    1    2    0    0  0.37169031229E+01  0.84092839214E+01 -0.26503345692E+02  0.28109010775E+02  0.17770000000E+01 0. -1.
</event>
<event>
 6    1  0.1108180E-002  0.1713859E+03  0.7546771E-02  0.1077663E+00
        -11   -1    0    0    0    0  0.00000000000E+00  0.00000000000E+00  0.18250000000E+03  0.18250000000E+03  0.00000000000E+00 0.  1.
         11   -1    0    0    0    0 -0.00000000000E+00 -0.00000000000E+00 -0.18250000000E+03  0.18250000000E+03  0.00000000000E+00 0. -1.
        -11    1    1    2    0    0 -0.64676359749E+01  0.10283618166E+02  0.17240598262E+03  0.17283346308E+03  0.00000000000E+00 0.  1.
         11    1    1    2    0    0  0.18378388143E+01  0.17458349169E+01 -0.17016894820E+03  0.17018782719E+03  0.00000000000E+00 0. -1.
        -15    1    1    2    0    0 -0.18730663687E+01  0.11905415931E+01 -0.60260027268E+01  0.66630477088E+01  0.17770000000E+01 0. -1.
         15    1    1    2    0    0  0.65028635294E+01 -0.13219994676E+02  0.37889683042E+01  0.15315662020E+02  0.17770000000E+01 0.  1.
</event>
<event>
 6    1  0.1108180E-002  0.1890372E+03  0.7546771E-02  0.1063367E+00
        -11   -1    0    0    0    0  0.00000000000E+00  0.00000000000E+00  0.18250000000E+03  0.18250000000E+03  0.00000000000E+00 0. -1.
         11   -1    0    0    0    0 -0.00000000000E+00 -0.00000000000E+00 -0.18250000000E+03  0.18250000000E+03  0.00000000000E+00 0.  1.
        -11    1    1    2    0    0  0.98150651388E+01  0.16458136301E+01  0.17568109927E+03  0.17596275983E+03  0.00000000000E+00 0. -1.
         11    1    1    2    0    0 -0.86320982304E+01 -0.58995502469E+00 -0.68665204728E+02  0.69208175147E+02  0.00000000000E+00 0.  1.
        -15    1    1    2    0    0  0.14379170117E+02  0.13076679236E+02 -0.91713114946E+02  0.93766802522E+02  0.17770000000E+01 0.  1.
         15    1    1    2    0    0 -0.15562137025E+02 -0.14132537842E+02 -0.15302779592E+02  0.26062262505E+02  0.17770000000E+01 0. -1.
</event>
<event>
 6    1  0.1108180E-002  0.1826971E+03  0.7546771E-02  0.1068298E+00
        -11   -1    0    0    0    0  0.00000000000E+00  0.00000000000E+00  0.18250000000E+03  0.18250000000E+03  0.00000000000E+00 0. -1.
         11   -1    0    0    0    0 -0.00000000000E+00 -0.00000000000E+00 -0.18250000000E+03  0.18250000000E+03  0.00000000000E+00 0.  1.
        -11    1    1    2    0    0 -0.12980094746E+01  0.24313898335E+01  0.13200082963E+03  0.13202960088E+03  0.00000000000E+00 0. -1.
         11    1    1    2    0    0  0.39396088551E+01  0.13927855590E+01 -0.18225505338E+03  0.18230294801E+03  0.00000000000E+00 0.  1.
        -15    1    1    2    0    0 -0.19909150557E+01 -0.21305523595E+01  0.37983205178E+02  0.38136394700E+02  0.17770000000E+01 0. -1.
         15    1    1    2    0    0 -0.65068432480E+00 -0.16936230331E+01  0.12271018569E+02  0.12531056411E+02  0.17770000000E+01 0.  1.
</event>
<event>
 6    1  0.1108180E-002  0.1769453E+03  0.7546771E-02  0.1072964E+00
        -11   -1    0    0    0    0  0.00000000000E+00  0.00000000000E+00  0.18250000000E+03  0.18250000000E+03  0.00000000000E+00 0. -1.
         11   -1    0    0    0    0 -0.00000000000E+00 -0.00000000000E+00 -0.18250000000E+03  0.18250000000E+03  0.00000000000E+00 0. -1.
        -11    1    1    2    0    0  0.28979908341E+01  0.56983698247E+00  0.17617653455E+03  0.17620128941E+03  0.00000000000E+00 0. -1.
         11    1    1    2    0    0  0.14076731954E+01  0.61005186379E+01 -0.17767126825E+03  0.17778154412E+03  0.00000000000E+00 0. -1.
        -15    1    1    2    0    0 -0.23957849987E+01 -0.39678104126E+01  0.41063324627E+01  0.64422822451E+01  0.17770000000E+01 0. -1.
         15    1    1    2    0    0 -0.19098790308E+01 -0.27025452078E+01 -0.26115987646E+01  0.45748842193E+01  0.17770000000E+01 0.  1.
</event>
<event>
 6    1  0.1108180E-002  0.1886532E+03  0.7546771E-02  0.1063660E+00
        -11   -1    0    0    0    0  0.00000000000E+00  0.00000000000E+00  0.18250000000E+03  0.18250000000E+03  0.00000000000E+00 0.  1.
         11   -1    0    0    0    0 -0.00000000000E+00 -0.00000000000E+00 -0.18250000000E+03  0.18250000000E+03  0.00000000000E+00 0. -1.
        -11    1    1    2    0    0  0.83419004391E+01 -0.79452330237E+01  0.17597013395E+03  0.17634682326E+03  0.00000000000E+00 0.  1.
         11    1    1    2    0    0  0.27025580035E+01 -0.43025795493E+01 -0.88261310862E+02  0.88407437502E+02  0.00000000000E+00 0. -1.
        -15    1    1    2    0    0 -0.77792297719E+01  0.95913116942E+01 -0.58906463179E-01  0.12476813489E+02  0.17770000000E+01 0.  1.
         15    1    1    2    0    0 -0.32652286706E+01  0.26565008787E+01 -0.87649916622E+02  0.87768925754E+02  0.17770000000E+01 0. -1.
</event>
<event>
 6    1  0.1108180E-002  0.1792089E+03  0.7546771E-02  0.1071105E+00
        -11   -1    0    0    0    0  0.00000000000E+00  0.00000000000E+00  0.18250000000E+03  0.18250000000E+03  0.00000000000E+00 0.  1.
         11   -1    0    0    0    0 -0.00000000000E+00 -0.00000000000E+00 -0.18250000000E+03  0.18250000000E+03  0.00000000000E+00 0. -1.
        -11    1    1    2    0    0  0.40930885611E+01 -0.46356309880E+01  0.17965023173E+03  0.17975663607E+03  0.00000000000E+00 0.  1.
         11    1    1    2    0    0 -0.16437272308E+01  0.18208448121E+01 -0.11251267062E+02  0.11515568833E+02  0.00000000000E+00 0. -1.
        -15    1    1    2    0    0  0.84122075473E+01 -0.42288352469E+01 -0.15394504323E+03  0.15424293289E+03  0.17770000000E+01 0. -1.
         15    1    1    2    0    0 -0.10861568878E+02  0.70436214228E+01 -0.14453921442E+02  0.19484862209E+02  0.17770000000E+01 0.  1.
</event>
<event>
 6    1  0.1108180E-002  0.1836579E+03  0.7546771E-02  0.1067537E+00
        -11   -1    0    0    0    0  0.00000000000E+00  0.00000000000E+00  0.18250000000E+03  0.18250000000E+03  0.00000000000E+00 0. -1.
         11   -1    0    0    0    0 -0.00000000000E+00 -0.00000000000E+00 -0.18250000000E+03  0.18250000000E+03  0.00000000000E+00 0. -1.
        -11    1    1    2    0    0  0.60465365693E+01 -0.49519410508E+01  0.12091465391E+03  0.12116697510E+03  0.00000000000E+00 0. -1.
         11    1    1    2    0    0  0.33819416210E+00 -0.26147681946E+01 -0.18132297523E+03  0.18134214274E+03  0.00000000000E+00 0. -1.
        -15    1    1    2    0    0 -0.15692720045E+01  0.14484626264E+01  0.17326441878E+01  0.32742088335E+01  0.17770000000E+01 0.  1.
         15    1    1    2    0    0 -0.48154587270E+01  0.61182466190E+01  0.58675677130E+02  0.59216673329E+02  0.17770000000E+01 0. -1.
</event>
<event>
 6    1  0.1108180E-002  0.1831509E+03  0.7546771E-02  0.1067938E+00
        -11   -1    0    0    0    0  0.00000000000E+00  0.00000000000E+00  0.18250000000E+03  0.18250000000E+03  0.00000000000E+00 0.  1.
         11   -1    0    0    0    0 -0.00000000000E+00 -0.00000000000E+00 -0.18250000000E+03  0.18250000000E+03  0.00000000000E+00 0. -1.
        -11    1    1    2    0    0 -0.14001148605E+01  0.49426714390E+01  0.11175184822E+03  0.11186986146E+03  0.00000000000E+00 0.  1.
         11    1    1    2    0    0 -0.39461441442E+01  0.51871463151E+01 -0.18173222990E+03  0.18184906358E+03  0.00000000000E+00 0. -1.
        -15    1    1    2    0    0 -0.10748373286E+01 -0.11578245057E+01  0.11809249425E+02  0.12046241483E+02  0.17770000000E+01 0. -1.
         15    1    1    2    0    0  0.64210963333E+01 -0.89719932484E+01  0.58171132253E+02  0.59234833482E+02  0.17770000000E+01 0.  1.
</event>
<event>
 6    1  0.1108180E-002  0.1800007E+03  0.7546771E-02  0.1070462E+00
        -11   -1    0    0    0    0  0.00000000000E+00  0.00000000000E+00  0.18250000000E+03  0.18250000000E+03  0.00000000000E+00 0. -1.
         11   -1    0    0    0    0 -0.00000000000E+00 -0.00000000000E+00 -0.18250000000E+03  0.18250000000E+03  0.00000000000E+00 0. -1.
        -11    1    1    2    0    0 -0.26566076740E+01  0.34187342506E+01  0.18013940176E+03  0.18019142425E+03  0.00000000000E+00 0. -1.
         11    1    1    2    0    0  0.20639434854E+01 -0.13604819684E+01 -0.17979947765E+03  0.17981647015E+03  0.00000000000E+00 0. -1.
        -15    1    1    2    0    0 -0.41655587094E+00  0.29098550094E+00 -0.33533209288E+00  0.18783950511E+01  0.17770000000E+01 0. -1.
         15    1    1    2    0    0  0.10092200595E+01 -0.23492377831E+01 -0.45920192863E-02  0.31137105480E+01  0.17770000000E+01 0.  1.
</event>
<event>
 6    1  0.1108180E-002  0.1915371E+03  0.7546771E-02  0.1061481E+00
        -11   -1    0    0    0    0  0.00000000000E+00  0.00000000000E+00  0.18250000000E+03  0.18250000000E+03  0.00000000000E+00 0.  1.
         11   -1    0    0    0    0 -0.00000000000E+00 -0.00000000000E+00 -0.18250000000E+03  0.18250000000E+03  0.00000000000E+00 0.  1.
        -11    1    1    2    0    0  0.92170201858E+01 -0.11637508993E+01  0.12058949414E+03  0.12094682250E+03  0.00000000000E+00 0.  1.
         11    1    1    2    0    0 -0.18360882567E+01 -0.38651648613E+01 -0.17341016064E+03  0.17346294859E+03  0.00000000000E+00 0.  1.
        -15    1    1    2    0    0 -0.18623128514E+01  0.35007339798E+01 -0.81976409945E+01  0.92780598419E+01  0.17770000000E+01 0. -1.
         15    1    1    2    0    0 -0.55186190776E+01  0.15281817807E+01  0.61018307499E+02  0.61312169062E+02  0.17770000000E+01 0. -1.
</event>
<event>
 6    1  0.1108180E-002  0.1712398E+03  0.7546771E-02  0.1077789E+00
        -11   -1    0    0    0    0  0.00000000000E+00  0.00000000000E+00  0.18250000000E+03  0.18250000000E+03  0.00000000000E+00 0.  1.
         11   -1    0    0    0    0 -0.00000000000E+00 -0.00000000000E+00 -0.18250000000E+03  0.18250000000E+03  0.00000000000E+00 0.  1.
        -11    1    1    2    0    0 -0.49837695820E+01 -0.10190370306E+02  0.16938724717E+03  0.16976666666E+03  0.00000000000E+00 0.  1.
         11    1    1    2    0    0  0.11145288722E+02  0.11447733756E+02 -0.17204073387E+03  0.17278102378E+03  0.00000000000E+00 0.  1.
        -15    1    1    2    0    0 -0.79461468574E+01 -0.87101736885E+01  0.66245315945E+01  0.13640033849E+02  0.17770000000E+01 0. -1.
         15    1    1    2    0    0  0.17846277172E+01  0.74528102387E+01 -0.39710448953E+01  0.88122757051E+01  0.17770000000E+01 0.  1.
</event>
<event>
 6    1  0.1108180E-002  0.1841471E+03  0.7546771E-02  0.1067151E+00
        -11   -1    0    0    0    0  0.00000000000E+00  0.00000000000E+00  0.18250000000E+03  0.18250000000E+03  0.00000000000E+00 0. -1.
         11   -1    0    0    0    0 -0.00000000000E+00 -0.00000000000E+00 -0.18250000000E+03  0.18250000000E+03  0.00000000000E+00 0.  1.
        -11    1    1    2    0    0  0.24467835761E+01 -0.10000704443E+01  0.18083353423E+03  0.18085285177E+03  0.00000000000E+00 0. -1.
         11    1    1    2    0    0  0.37136654850E+00 -0.37493450165E+01 -0.17333258170E+03  0.17337352561E+03  0.00000000000E+00 0.  1.
        -15    1    1    2    0    0 -0.23133328143E+01  0.30450628956E+01 -0.18812263261E+01  0.46174298303E+01  0.17770000000E+01 0. -1.
         15    1    1    2    0    0 -0.50481731031E+00  0.17043525652E+01 -0.56197262005E+01  0.61561927969E+01  0.17770000000E+01 0.  1.
</event>
<event>
 6    1  0.1108180E-002  0.1827131E+03  0.7546771E-02  0.1068285E+00
        -11   -1    0    0    0    0  0.00000000000E+00  0.00000000000E+00  0.18250000000E+03  0.18250000000E+03  0.00000000000E+00 0.  1.
         11   -1    0    0    0    0 -0.00000000000E+00 -0.00000000000E+00 -0.18250000000E+03  0.18250000000E+03  0.00000000000E+00 0. -1.
        -11    1    1    2    0    0 -0.12615217871E+01  0.21784257679E+01  0.12783817514E+03  0.12786295789E+03  0.00000000000E+00 0.  1.
         11    1    1    2    0    0 -0.33108947650E+01 -0.17144431798E+00 -0.18225676503E+03  0.18228691619E+03  0.00000000000E+00 0. -1.
        -15    1    1    2    0    0  0.37207942734E+01 -0.25002418503E+01  0.39807542068E+02  0.40098549273E+02  0.17770000000E+01 0.  1.
         15    1    1    2    0    0  0.85162227873E+00  0.49326040032E+00  0.14611047815E+02  0.14751576647E+02  0.17770000000E+01 0. -1.
</event>
<event>
 6    1  0.1108180E-002  0.1878703E+03  0.7546771E-02  0.1064259E+00
        -11   -1    0    0    0    0  0.00000000000E+00  0.00000000000E+00  0.18250000000E+03  0.18250000000E+03  0.00000000000E+00 0.  1.
         11   -1    0    0    0    0 -0.00000000000E+00 -0.00000000000E+00 -0.18250000000E+03  0.18250000000E+03  0.00000000000E+00 0. -1.
        -11    1    1    2    0    0 -0.11143276128E+01  0.80331799740E+00  0.94200293366E+02  0.94210308969E+02  0.00000000000E+00 0.  1.
         11    1    1    2    0    0  0.37524082620E-01 -0.37534293300E+01 -0.17708989168E+03  0.17712966826E+03  0.00000000000E+00 0. -1.
        -15    1    1    2    0    0  0.16633834339E+01  0.49149015631E+01  0.87841988694E+02  0.88013043400E+02  0.17770000000E+01 0.  1.
         15    1    1    2    0    0 -0.58657990372E+00 -0.19647902305E+01 -0.49523903755E+01  0.56469793752E+01  0.17770000000E+01 0. -1.
</event>
<event>
 6    1  0.1108180E-002  0.1887571E+03  0.7546771E-02  0.1063580E+00
        -11   -1    0    0    0    0  0.00000000000E+00  0.00000000000E+00  0.18250000000E+03  0.18250000000E+03  0.00000000000E+00 0. -1.
         11   -1    0    0    0    0 -0.00000000000E+00 -0.00000000000E+00 -0.18250000000E+03  0.18250000000E+03  0.00000000000E+00 0. -1.
        -11    1    1    2    0    0 -0.10485860989E+02  0.45994464566E+01  0.17587055594E+03  0.17624290237E+03  0.00000000000E+00 0. -1.
         11    1    1    2    0    0 -0.10843442234E+01 -0.20063146014E+01 -0.16011456106E+03  0.16013080205E+03  0.00000000000E+00 0. -1.
        -15    1    1    2    0    0 -0.45250153660E+01  0.39677211627E+01 -0.56412766968E+01  0.84380274387E+01  0.17770000000E+01 0. -1.
         15    1    1    2    0    0  0.16095220578E+02 -0.65608530178E+01 -0.10114718186E+02  0.20188268147E+02  0.17770000000E+01 0. -1.
</event>
<event>
 6    1  0.1108180E-002  0.1844010E+03  0.7546771E-02  0.1066952E+00
        -11   -1    0    0    0    0  0.00000000000E+00  0.00000000000E+00  0.18250000000E+03  0.18250000000E+03  0.00000000000E+00 0. -1.
         11   -1    0    0    0    0 -0.00000000000E+00 -0.00000000000E+00 -0.18250000000E+03  0.18250000000E+03  0.00000000000E+00 0. -1.
        -11    1    1    2    0    0 -0.14031768163E+01  0.39889141080E+01  0.18054948693E+03  0.18059899659E+03  0.00000000000E+00 0. -1.
         11    1    1    2    0    0  0.86875130214E+00 -0.49434949006E+01 -0.16561692201E+03  0.16569296221E+03  0.00000000000E+00 0. -1.
        -15    1    1    2    0    0 -0.88782739213E+00 -0.42868950180E+01 -0.33478523311E+01  0.57906433670E+01  0.17770000000E+01 0.  1.
         15    1    1    2    0    0  0.14222529063E+01  0.52414758106E+01 -0.11584712582E+02  0.12917397827E+02  0.17770000000E+01 0. -1.
</event>
<event>
 6    1  0.1108180E-002  0.1831704E+03  0.7546771E-02  0.1067922E+00
        -11   -1    0    0    0    0  0.00000000000E+00  0.00000000000E+00  0.18250000000E+03  0.18250000000E+03  0.00000000000E+00 0. -1.
         11   -1    0    0    0    0 -0.00000000000E+00 -0.00000000000E+00 -0.18250000000E+03  0.18250000000E+03  0.00000000000E+00 0. -1.
        -11    1    1    2    0    0 -0.30100240463E+01  0.12782461133E+01  0.18180015241E+03  0.18182956188E+03  0.00000000000E+00 0. -1.
         11    1    1    2    0    0  0.25129824673E+01 -0.18336265658E+01 -0.17457085646E+03  0.17459857156E+03  0.00000000000E+00 0. -1.
        -15    1    1    2    0    0  0.10918991274E+01 -0.10364872047E+00 -0.16875918399E+01  0.26848988770E+01  0.17770000000E+01 0. -1.
         15    1    1    2    0    0 -0.59485754836E+00  0.65902917300E+00 -0.55417041128E+01  0.58869676768E+01  0.17770000000E+01 0.  1.
</event>
<event>
 6    1  0.1108180E-002  0.1853649E+03  0.7546771E-02  0.1066197E+00
        -11   -1    0    0    0    0  0.00000000000E+00  0.00000000000E+00  0.18250000000E+03  0.18250000000E+03  0.00000000000E+00 0.  1.
         11   -1    0    0    0    0 -0.00000000000E+00 -0.00000000000E+00 -0.18250000000E+03  0.18250000000E+03  0.00000000000E+00 0.  1.
        -11    1    1    2    0    0  0.40040013675E+01 -0.58412325159E+01  0.14984785428E+03  0.15001510409E+03  0.00000000000E+00 0.  1.
         11    1    1    2    0    0 -0.95210622300E+01  0.22803025625E+01 -0.17936807793E+03  0.17963506837E+03  0.00000000000E+00 0.  1.
        -15    1    1    2    0    0 -0.31581749191E+01  0.65293701598E+01  0.22381433694E+02  0.23594343532E+02  0.17770000000E+01 0. -1.
         15    1    1    2    0    0  0.86752357816E+01 -0.29684402064E+01  0.71387899593E+01  0.11755484006E+02  0.17770000000E+01 0.  1.
</event>
<event>
 6    1  0.1108180E-002  0.2007947E+03  0.7546771E-02  0.1054758E+00
        -11   -1    0    0    0    0  0.00000000000E+00  0.00000000000E+00  0.18250000000E+03  0.18250000000E+03  0.00000000000E+00 0. -1.
         11   -1    0    0    0    0 -0.00000000000E+00 -0.00000000000E+00 -0.18250000000E+03  0.18250000000E+03  0.00000000000E+00 0. -1.
        -11    1    1    2    0    0  0.16894506508E+01  0.62281652952E+01  0.16407847681E+03  0.16420533133E+03  0.00000000000E+00 0. -1.
         11    1    1    2    0    0 -0.15864984928E+01  0.81816071213E+01 -0.13451043341E+03  0.13476836561E+03  0.00000000000E+00 0. -1.
        -15    1    1    2    0    0 -0.12907785325E+02 -0.87674753089E+01 -0.43471116311E+02  0.46220939276E+02  0.17770000000E+01 0.  1.
         15    1    1    2    0    0  0.12804833167E+02 -0.56422971076E+01  0.13903072916E+02  0.19805363783E+02  0.17770000000E+01 0. -1.
</event>
<event>
 6    1  0.1108180E-002  0.1856856E+03  0.7546771E-02  0.1065947E+00
        -11   -1    0    0    0    0  0.00000000000E+00  0.00000000000E+00  0.18250000000E+03  0.18250000000E+03  0.00000000000E+00 0. -1.
         11   -1    0    0    0    0 -0.00000000000E+00 -0.00000000000E+00 -0.18250000000E+03  0.18250000000E+03  0.00000000000E+00 0.  1.
        -11    1    1    2    0    0 -0.54237682161E+01  0.25117663064E+02  0.17746365187E+03  0.17931442216E+03  0.00000000000E+00 0. -1.
         11    1    1    2    0    0  0.47235083262E+01 -0.19192408836E+01 -0.41547848144E+02  0.41859511487E+02  0.00000000000E+00 0.  1.
        -15    1    1    2    0    0  0.39107838973E+01  0.11223265216E+02 -0.27315063543E+02  0.29841687924E+02  0.17770000000E+01 0. -1.
         15    1    1    2    0    0 -0.32105240073E+01 -0.34421687396E+02 -0.10860074019E+03  0.11398437843E+03  0.17770000000E+01 0.  1.
</event>
<event>
 6    1  0.1108180E-002  0.1877378E+03  0.7546771E-02  0.1064360E+00
        -11   -1    0    0    0    0  0.00000000000E+00  0.00000000000E+00  0.18250000000E+03  0.18250000000E+03  0.00000000000E+00 0.  1.
         11   -1    0    0    0    0 -0.00000000000E+00 -0.00000000000E+00 -0.18250000000E+03  0.18250000000E+03  0.00000000000E+00 0. -1.
        -11    1    1    2    0    0 -0.17959759180E+00  0.65751023133E+01  0.17714016507E+03  0.17726224162E+03  0.00000000000E+00 0.  1.
         11    1    1    2    0    0  0.40504575197E+00 -0.11113551351E+01 -0.77885393785E+02  0.77894375518E+02  0.00000000000E+00 0. -1.
        -15    1    1    2    0    0  0.62850968318E+01  0.69915516178E+01 -0.94377375192E+02  0.94861113810E+02  0.17770000000E+01 0. -1.
         15    1    1    2    0    0 -0.65105449919E+01 -0.12455298796E+02 -0.48773960896E+01  0.14982269047E+02  0.17770000000E+01 0.  1.
</event>
<event>
 6    1  0.1108180E-002  0.1866479E+03  0.7546771E-02  0.1065200E+00
        -11   -1    0    0    0    0  0.00000000000E+00  0.00000000000E+00  0.18250000000E+03  0.18250000000E+03  0.00000000000E+00 0. -1.
         11   -1    0    0    0    0 -0.00000000000E+00 -0.00000000000E+00 -0.18250000000E+03  0.18250000000E+03  0.00000000000E+00 0. -1.
        -11    1    1    2    0    0 -0.17645282517E+00 -0.28632782390E+01  0.17832903677E+03  0.17835210919E+03  0.00000000000E+00 0. -1.
         11    1    1    2    0    0 -0.54950756349E+01  0.19003402246E+01 -0.17216007865E+03  0.17225823589E+03  0.00000000000E+00 0. -1.
        -15    1    1    2    0    0  0.25166212754E+01  0.26754487818E+01  0.25382007705E+01  0.48053720958E+01  0.17770000000E+01 0.  1.
         15    1    1    2    0    0  0.31549071847E+01 -0.17125107675E+01 -0.87071588829E+01  0.95842828258E+01  0.17770000000E+01 0. -1.
</event>
<event>
 6    1  0.1108180E-002  0.1870513E+03  0.7546771E-02  0.1064889E+00
        -11   -1    0    0    0    0  0.00000000000E+00  0.00000000000E+00  0.18250000000E+03  0.18250000000E+03  0.00000000000E+00 0. -1.
         11   -1    0    0    0    0 -0.00000000000E+00 -0.00000000000E+00 -0.18250000000E+03  0.18250000000E+03  0.00000000000E+00 0. -1.
        -11    1    1    2    0    0  0.74366987341E+01 -0.82366272805E-01  0.10956934473E+03  0.10982145773E+03  0.00000000000E+00 0. -1.
         11    1    1    2    0    0 -0.49669752165E+01 -0.84791739576E+01 -0.17767712657E+03  0.17794866827E+03  0.00000000000E+00 0. -1.
        -15    1    1    2    0    0 -0.11605332125E+02 -0.10145311232E+02  0.29221772193E+02  0.33085960359E+02  0.17770000000E+01 0. -1.
         15    1    1    2    0    0  0.91356086072E+01  0.18706851463E+02  0.38886009644E+02  0.44143913638E+02  0.17770000000E+01 0.  1.
</event>
<event>
 6    1  0.1108180E-002  0.2252033E+03  0.7546771E-02  0.1038777E+00
        -11   -1    0    0    0    0  0.00000000000E+00  0.00000000000E+00  0.18250000000E+03  0.18250000000E+03  0.00000000000E+00 0.  1.
         11   -1    0    0    0    0 -0.00000000000E+00 -0.00000000000E+00 -0.18250000000E+03  0.18250000000E+03  0.00000000000E+00 0.  1.
        -11    1    1    2    0    0  0.31886041163E+01  0.80121831371E+01  0.11213296980E+03  0.11246406177E+03  0.00000000000E+00 0.  1.
         11    1    1    2    0    0 -0.63408363457E+01 -0.13761431415E+02 -0.13897311693E+03  0.13979667532E+03  0.00000000000E+00 0.  1.
        -15    1    1    2    0    0 -0.10211772761E+02 -0.32420710506E+01  0.67813569591E+02  0.68677720385E+02  0.17770000000E+01 0.  1.
         15    1    1    2    0    0  0.13364004990E+02  0.89913193283E+01 -0.40973422459E+02  0.44061542524E+02  0.17770000000E+01 0. -1.
</event>
<event>
 6    1  0.1108180E-002  0.1932075E+03  0.7546771E-02  0.1060237E+00
        -11   -1    0    0    0    0  0.00000000000E+00  0.00000000000E+00  0.18250000000E+03  0.18250000000E+03  0.00000000000E+00 0.  1.
         11   -1    0    0    0    0 -0.00000000000E+00 -0.00000000000E+00 -0.18250000000E+03  0.18250000000E+03  0.00000000000E+00 0.  1.
        -11    1    1    2    0    0  0.29073064445E+01 -0.10695605527E+02  0.17143455689E+03  0.17179247861E+03  0.00000000000E+00 0.  1.
         11    1    1    2    0    0 -0.10390056384E+01 -0.24124028009E+01 -0.10718572876E+03  0.10721790741E+03  0.00000000000E+00 0.  1.
        -15    1    1    2    0    0  0.22972748613E-01  0.41575130998E+01 -0.73039080808E+02  0.73178893796E+02  0.17770000000E+01 0. -1.
         15    1    1    2    0    0 -0.18912735547E+01  0.89504952278E+01  0.87902526766E+01  0.12810720183E+02  0.17770000000E+01 0.  1.
</event>
<event>
 6    1  0.1108180E-002  0.1843216E+03  0.7546771E-02  0.1067014E+00
        -11   -1    0    0    0    0  0.00000000000E+00  0.00000000000E+00  0.18250000000E+03  0.18250000000E+03  0.00000000000E+00 0. -1.
         11   -1    0    0    0    0 -0.00000000000E+00 -0.00000000000E+00 -0.18250000000E+03  0.18250000000E+03  0.00000000000E+00 0.  1.
        -11    1    1    2    0    0 -0.34202663950E+01 -0.11810684613E+02  0.18025954108E+03  0.18067842329E+03  0.00000000000E+00 0. -1.
         11    1    1    2    0    0  0.17586433866E+00  0.23496696153E+01 -0.13989412775E+03  0.13991396948E+03  0.00000000000E+00 0.  1.
        -15    1    1    2    0    0  0.45006831639E+01 -0.23657570718E+01 -0.20412005305E+02  0.21110676091E+02  0.17770000000E+01 0. -1.
         15    1    1    2    0    0 -0.12562811076E+01  0.11826772070E+02 -0.19953408023E+02  0.23296931140E+02  0.17770000000E+01 0.  1.
</event>
<event>
 6    1  0.1108180E-002  0.1828142E+03  0.7546771E-02  0.1068205E+00
        -11   -1    0    0    0    0  0.00000000000E+00  0.00000000000E+00  0.18250000000E+03  0.18250000000E+03  0.00000000000E+00 0.  1.
         11   -1    0    0    0    0 -0.00000000000E+00 -0.00000000000E+00 -0.18250000000E+03  0.18250000000E+03  0.00000000000E+00 0.  1.
        -11    1    1    2    0    0  0.38882136622E+01 -0.21887234934E+01  0.10894687084E+03  0.10903820148E+03  0.00000000000E+00 0.  1.
         11    1    1    2    0    0 -0.46324747536E+01 -0.29463800712E+00 -0.18212664176E+03  0.18218578505E+03  0.00000000000E+00 0.  1.
        -15    1    1    2    0    0  0.41361394894E+01  0.22592517839E+01  0.29381387985E+02  0.29809990900E+02  0.17770000000E+01 0.  1.
         15    1    1    2    0    0 -0.33918783980E+01  0.22410971667E+00  0.43798382934E+02  0.43966022573E+02  0.17770000000E+01 0.  1.
</event>
<event>
 6    1  0.1108180E-002  0.1843323E+03  0.7546771E-02  0.1067006E+00
        -11   -1    0    0    0    0  0.00000000000E+00  0.00000000000E+00  0.18250000000E+03  0.18250000000E+03  0.00000000000E+00 0.  1.
         11   -1    0    0    0    0 -0.00000000000E+00 -0.00000000000E+00 -0.18250000000E+03  0.18250000000E+03  0.00000000000E+00 0.  1.
        -11    1    1    2    0    0 -0.37505710999E+00 -0.28217271873E+01  0.18064530735E+03  0.18066773337E+03  0.00000000000E+00 0.  1.
         11    1    1    2    0    0 -0.10909659626E+01  0.51967267674E+01 -0.13543798218E+03  0.13554203479E+03  0.00000000000E+00 0.  1.
        -15    1    1    2    0    0  0.42397597739E+01 -0.88864583632E+01 -0.33789871111E+02  0.35240003177E+02  0.17770000000E+01 0.  1.
         15    1    1    2    0    0 -0.27737367014E+01  0.65114587831E+01 -0.11417454058E+02  0.13550228668E+02  0.17770000000E+01 0. -1.
</event>
<event>
 6    1  0.1108180E-002  0.1861108E+03  0.7546771E-02  0.1065616E+00
        -11   -1    0    0    0    0  0.00000000000E+00  0.00000000000E+00  0.18250000000E+03  0.18250000000E+03  0.00000000000E+00 0. -1.
         11   -1    0    0    0    0 -0.00000000000E+00 -0.00000000000E+00 -0.18250000000E+03  0.18250000000E+03  0.00000000000E+00 0. -1.
        -11    1    1    2    0    0  0.39794448512E+01 -0.43710824241E+01  0.61487752295E+02  0.61771239466E+02  0.00000000000E+00 0. -1.
         11    1    1    2    0    0  0.33297900875E+01 -0.22632660075E+01 -0.17884387718E+03  0.17888918995E+03  0.00000000000E+00 0. -1.
        -15    1    1    2    0    0 -0.17803433282E+02 -0.10189264582E+02  0.70100399428E+02  0.73061666271E+02  0.17770000000E+01 0. -1.
         15    1    1    2    0    0  0.10494198343E+02  0.16823613014E+02  0.47255725457E+02  0.51277904317E+02  0.17770000000E+01 0.  1.
</event>
<event>
 6    1  0.1108180E-002  0.1846584E+03  0.7546771E-02  0.1066750E+00
        -11   -1    0    0    0    0  0.00000000000E+00  0.00000000000E+00  0.18250000000E+03  0.18250000000E+03  0.00000000000E+00 0.  1.
         11   -1    0    0    0    0 -0.00000000000E+00 -0.00000000000E+00 -0.18250000000E+03  0.18250000000E+03  0.00000000000E+00 0. -1.
        -11    1    1    2    0    0 -0.48410915550E+01  0.45167043483E+01  0.18022004610E+03  0.18034162526E+03  0.00000000000E+00 0.  1.
         11    1    1    2    0    0  0.13773901965E+01  0.32932649573E+01 -0.14115323498E+03  0.14119836594E+03  0.00000000000E+00 0. -1.
        -15    1    1    2    0    0 -0.27009003224E+01 -0.31926617477E+01 -0.33464566007E+02  0.33771628012E+02  0.17770000000E+01 0. -1.
         15    1    1    2    0    0  0.61646016809E+01 -0.46173075578E+01 -0.56022451115E+01  0.96883807862E+01  0.17770000000E+01 0. -1.
</event>
<event>
 6    1  0.1108180E-002  0.1836434E+03  0.7546771E-02  0.1067548E+00
        -11   -1    0    0    0    0  0.00000000000E+00  0.00000000000E+00  0.18250000000E+03  0.18250000000E+03  0.00000000000E+00 0. -1.
         11   -1    0    0    0    0 -0.00000000000E+00 -0.00000000000E+00 -0.18250000000E+03  0.18250000000E+03  0.00000000000E+00 0. -1.
        -11    1    1    2    0    0 -0.16114323819E+01  0.15245701717E+01  0.15889400760E+03  0.15890949210E+03  0.00000000000E+00 0. -1.
         11    1    1    2    0    0  0.16575377708E+01 -0.90900709097E+01 -0.18112107914E+03  0.18135661590E+03  0.00000000000E+00 0. -1.
        -15    1    1    2    0    0 -0.25210820034E+01  0.49281367395E+01  0.76404346144E+01  0.96008518522E+01  0.17770000000E+01 0. -1.
         15    1    1    2    0    0  0.24749766145E+01  0.26373639985E+01  0.14586636928E+02  0.15133040143E+02  0.17770000000E+01 0.  1.
</event>
<event>
 6    1  0.1108180E-002  0.1837646E+03  0.7546771E-02  0.1067453E+00
        -11   -1    0    0    0    0  0.00000000000E+00  0.00000000000E+00  0.18250000000E+03  0.18250000000E+03  0.00000000000E+00 0.  1.
         11   -1    0    0    0    0 -0.00000000000E+00 -0.00000000000E+00 -0.18250000000E+03  0.18250000000E+03  0.00000000000E+00 0.  1.
        -11    1    1    2    0    0  0.18484444223E+01  0.94580309690E+00  0.15369740561E+03  0.15371143022E+03  0.00000000000E+00 0.  1.
         11    1    1    2    0    0 -0.86328533535E+00  0.31417190884E+01 -0.18120615192E+03  0.18123544122E+03  0.00000000000E+00 0.  1.
        -15    1    1    2    0    0 -0.53372575766E+01 -0.42345676064E+01  0.19891558392E+02  0.21100940868E+02  0.17770000000E+01 0.  1.
         15    1    1    2    0    0  0.43520984897E+01  0.14704542104E+00  0.76171879192E+01  0.89521876889E+01  0.17770000000E+01 0. -1.
</event>
<event>
 6    1  0.1108180E-002  0.1978053E+03  0.7546771E-02  0.1056885E+00
        -11   -1    0    0    0    0  0.00000000000E+00  0.00000000000E+00  0.18250000000E+03  0.18250000000E+03  0.00000000000E+00 0. -1.
         11   -1    0    0    0    0 -0.00000000000E+00 -0.00000000000E+00 -0.18250000000E+03  0.18250000000E+03  0.00000000000E+00 0. -1.
        -11    1    1    2    0    0 -0.40760237044E+01 -0.10190740344E+02  0.13054349300E+03  0.13100407903E+03  0.00000000000E+00 0. -1.
         11    1    1    2    0    0  0.28923290805E+02  0.44836760562E+01 -0.16461286033E+03  0.16719465867E+03  0.00000000000E+00 0. -1.
        -15    1    1    2    0    0 -0.39551622797E+01  0.54995156466E+01  0.43320275854E+02  0.43882707415E+02  0.17770000000E+01 0. -1.
         15    1    1    2    0    0 -0.20892104821E+02  0.20754864159E+00 -0.92509085294E+01  0.22918554883E+02  0.17770000000E+01 0.  1.
</event>
<event>
 6    1  0.1108180E-002  0.1829485E+03  0.7546771E-02  0.1068098E+00
        -11   -1    0    0    0    0  0.00000000000E+00  0.00000000000E+00  0.18250000000E+03  0.18250000000E+03  0.00000000000E+00 0. -1.
         11   -1    0    0    0    0 -0.00000000000E+00 -0.00000000000E+00 -0.18250000000E+03  0.18250000000E+03  0.00000000000E+00 0.  1.
        -11    1    1    2    0    0 -0.18736403822E+01 -0.35980844694E+00  0.12403068205E+03  0.12404535493E+03  0.00000000000E+00 0. -1.
         11    1    1    2    0    0 -0.32653482126E+01  0.27976288477E+01 -0.18200072086E+03  0.18205150815E+03  0.00000000000E+00 0.  1.
        -15    1    1    2    0    0  0.21205233757E+01  0.38329871011E+00  0.46485777992E+02  0.46569612644E+02  0.17770000000E+01 0. -1.
         15    1    1    2    0    0  0.30184652190E+01 -0.28211191108E+01  0.11484260821E+02  0.12333524270E+02  0.17770000000E+01 0. -1.
</event>
<event>
 6    1  0.1108180E-002  0.1978673E+03  0.7546771E-02  0.1056841E+00
        -11   -1    0    0    0    0  0.00000000000E+00  0.00000000000E+00  0.18250000000E+03  0.18250000000E+03  0.00000000000E+00 0.  1.
         11   -1    0    0    0    0 -0.00000000000E+00 -0.00000000000E+00 -0.18250000000E+03  0.18250000000E+03  0.00000000000E+00 0. -1.
        -11    1    1    2    0    0  0.23697598065E+01  0.93076496924E+00  0.16711327433E+03  0.16713266749E+03  0.00000000000E+00 0.  1.
         11    1    1    2    0    0  0.37594073816E+01  0.64885832536E+01 -0.69129487127E+02  0.69535033235E+02  0.00000000000E+00 0. -1.
        -15    1    1    2    0    0 -0.26243700807E+01 -0.12474364350E+02 -0.11209761632E+03  0.11283408350E+03  0.17770000000E+01 0. -1.
         15    1    1    2    0    0 -0.35047971074E+01  0.50550161272E+01  0.14113829117E+02  0.15498215774E+02  0.17770000000E+01 0.  1.
</event>
<event>
 6    1  0.1108180E-002  0.1762890E+03  0.7546771E-02  0.1073509E+00
        -11   -1    0    0    0    0  0.00000000000E+00  0.00000000000E+00  0.18250000000E+03  0.18250000000E+03  0.00000000000E+00 0.  1.
         11   -1    0    0    0    0 -0.00000000000E+00 -0.00000000000E+00 -0.18250000000E+03  0.18250000000E+03  0.00000000000E+00 0. -1.
        -11    1    1    2    0    0  0.35251296053E+01  0.72171397209E+00  0.17612884684E+03  0.17616559851E+03  0.00000000000E+00 0.  1.
         11    1    1    2    0    0  0.23592318692E+01  0.69512077015E+01 -0.17639234908E+03  0.17654502564E+03  0.00000000000E+00 0. -1.
        -15    1    1    2    0    0 -0.43188141383E+00 -0.60003319608E+01  0.63056976439E+00  0.63044311736E+01  0.17770000000E+01 0. -1.
         15    1    1    2    0    0 -0.54524800607E+01 -0.16725897128E+01 -0.36706752413E+00  0.59849446720E+01  0.17770000000E+01 0. -1.
</event>
<event>
 6    1  0.1108180E-002  0.1829238E+03  0.7546771E-02  0.1068118E+00
        -11   -1    0    0    0    0  0.00000000000E+00  0.00000000000E+00  0.18250000000E+03  0.18250000000E+03  0.00000000000E+00 0. -1.
         11   -1    0    0    0    0 -0.00000000000E+00 -0.00000000000E+00 -0.18250000000E+03  0.18250000000E+03  0.00000000000E+00 0. -1.
        -11    1    1    2    0    0  0.14222159283E+01  0.88158328902E+00  0.11644205398E+03  0.11645407602E+03  0.00000000000E+00 0. -1.
         11    1    1    2    0    0  0.73440166234E+00 -0.53260209827E+01 -0.18199681981E+03  0.18207621554E+03  0.00000000000E+00 0. -1.
        -15    1    1    2    0    0  0.15720393750E+01  0.60606502038E+01  0.41941654613E+02  0.42443643922E+02  0.17770000000E+01 0.  1.
         15    1    1    2    0    0 -0.37286569657E+01 -0.16162125101E+01  0.23613111219E+02  0.24026064516E+02  0.17770000000E+01 0. -1.
</event>
<event>
 6    1  0.1108180E-002  0.2329756E+03  0.7546771E-02  0.1034144E+00
        -11   -1    0    0    0    0  0.00000000000E+00  0.00000000000E+00  0.18250000000E+03  0.18250000000E+03  0.00000000000E+00 0. -1.
         11   -1    0    0    0    0 -0.00000000000E+00 -0.00000000000E+00 -0.18250000000E+03  0.18250000000E+03  0.00000000000E+00 0.  1.
        -11    1    1    2    0    0 -0.15720468823E+01  0.26683536860E+01  0.11181281676E+03  0.11185569916E+03  0.00000000000E+00 0. -1.
         11    1    1    2    0    0  0.33024295664E+01  0.30677797308E+01 -0.13194744677E+03  0.13202441450E+03  0.00000000000E+00 0.  1.
        -15    1    1    2    0    0  0.78672785002E+01 -0.78613344450E+01  0.69676501925E+02  0.70580927308E+02  0.17770000000E+01 0. -1.
         15    1    1    2    0    0 -0.95976611843E+01  0.21252010283E+01 -0.49541871906E+02  0.50538959037E+02  0.17770000000E+01 0.  1.
</event>
<event>
 6    1  0.1108180E-002  0.1844493E+03  0.7546771E-02  0.1066914E+00
        -11   -1    0    0    0    0  0.00000000000E+00  0.00000000000E+00  0.18250000000E+03  0.18250000000E+03  0.00000000000E+00 0.  1.
         11   -1    0    0    0    0 -0.00000000000E+00 -0.00000000000E+00 -0.18250000000E+03  0.18250000000E+03  0.00000000000E+00 0.  1.
        -11    1    1    2    0    0 -0.63161850664E+00 -0.27450221691E+01  0.16231423507E+03  0.16233867375E+03  0.00000000000E+00 0.  1.
         11    1    1    2    0    0 -0.16368183761E+01 -0.42338677594E+01 -0.18049367271E+03  0.18055074273E+03  0.00000000000E+00 0.  1.
        -15    1    1    2    0    0 -0.17368743555E+01  0.13637015381E+01  0.12996170684E+02  0.13301676430E+02  0.17770000000E+01 0. -1.
         15    1    1    2    0    0  0.40053112383E+01  0.56151883904E+01  0.51832669623E+01  0.88089070933E+01  0.17770000000E+01 0.  1.
</event>
<event>
 6    1  0.1108180E-002  0.1847162E+03  0.7546771E-02  0.1066704E+00
        -11   -1    0    0    0    0  0.00000000000E+00  0.00000000000E+00  0.18250000000E+03  0.18250000000E+03  0.00000000000E+00 0.  1.
         11   -1    0    0    0    0 -0.00000000000E+00 -0.00000000000E+00 -0.18250000000E+03  0.18250000000E+03  0.00000000000E+00 0. -1.
        -11    1    1    2    0    0  0.31993050940E+01 -0.12247898544E+01  0.17660645066E+03  0.17663967301E+03  0.00000000000E+00 0.  1.
         11    1    1    2    0    0 -0.33589991377E+01 -0.86169263396E+00 -0.18025041640E+03  0.18028377077E+03  0.00000000000E+00 0. -1.
        -15    1    1    2    0    0 -0.10870686840E+01  0.64831861699E+00 -0.12634257816E+01  0.25211126628E+01  0.17770000000E+01 0. -1.
         15    1    1    2    0    0  0.12467627278E+01  0.14381638714E+01  0.49073915217E+01  0.55554435617E+01  0.17770000000E+01 0.  1.
</event>
<event>
 6    1  0.1108180E-002  0.1862778E+03  0.7546771E-02  0.1065487E+00
        -11   -1    0    0    0    0  0.00000000000E+00  0.00000000000E+00  0.18250000000E+03  0.18250000000E+03  0.00000000000E+00 0.  1.
         11   -1    0    0    0    0 -0.00000000000E+00 -0.00000000000E+00 -0.18250000000E+03  0.18250000000E+03  0.00000000000E+00 0.  1.
        -11    1    1    2    0    0 -0.35658694975E+01  0.43866696641E+00  0.14417329901E+03  0.14421805713E+03  0.00000000000E+00 0.  1.
         11    1    1    2    0    0  0.51039187292E+01  0.51697757975E+01 -0.17857446608E+03  0.17872217686E+03  0.00000000000E+00 0.  1.
        -15    1    1    2    0    0  0.16248795612E+01 -0.57927697798E+01  0.37041510137E+02  0.37568971473E+02  0.17770000000E+01 0.  1.
         15    1    1    2    0    0 -0.31629287929E+01  0.18432701592E+00 -0.26403430719E+01  0.44907945327E+01  0.17770000000E+01 0. -1.
</event>
<event>
 6    1  0.1108180E-002  0.1685208E+03  0.7546771E-02  0.1080161E+00
        -11   -1    0    0    0    0  0.00000000000E+00  0.00000000000E+00  0.18250000000E+03  0.18250000000E+03  0.00000000000E+00 0. -1.
         11   -1    0    0    0    0 -0.00000000000E+00 -0.00000000000E+00 -0.18250000000E+03  0.18250000000E+03  0.00000000000E+00 0.  1.
        -11    1    1    2    0    0  0.20788491479E+01  0.19898806221E+01  0.17301065511E+03  0.17303458620E+03  0.00000000000E+00 0. -1.
         11    1    1    2    0    0 -0.23266804717E+01  0.10695102270E+02 -0.38895948218E+02  0.40406601470E+02  0.00000000000E+00 0.  1.
        -15    1    1    2    0    0 -0.34123019363E+02 -0.16070399170E+01 -0.59103660523E+02  0.68288823712E+02  0.17770000000E+01 0.  1.
         15    1    1    2    0    0  0.34370850687E+02 -0.11077942976E+02 -0.75011046372E+02  0.83269988618E+02  0.17770000000E+01 0. -1.
</event>
<event>
 6    1  0.1108180E-002  0.1838169E+03  0.7546771E-02  0.1067411E+00
        -11   -1    0    0    0    0  0.00000000000E+00  0.00000000000E+00  0.18250000000E+03  0.18250000000E+03  0.00000000000E+00 0. -1.
         11   -1    0    0    0    0 -0.00000000000E+00 -0.00000000000E+00 -0.18250000000E+03  0.18250000000E+03  0.00000000000E+00 0. -1.
        -11    1    1    2    0    0  0.23788372919E+01 -0.27043999879E+00  0.17427259933E+03  0.17428904407E+03  0.00000000000E+00 0. -1.
         11    1    1    2    0    0 -0.30245435405E+01  0.51491468317E-01 -0.18115779673E+03  0.18118305061E+03  0.00000000000E+00 0. -1.
        -15    1    1    2    0    0 -0.13483050531E+01  0.18918499630E+01  0.14969670281E+01  0.32856752855E+01  0.17770000000E+01 0. -1.
         15    1    1    2    0    0  0.19940113017E+01 -0.16729014325E+01  0.53882303638E+01  0.62422300284E+01  0.17770000000E+01 0.  1.
</event>
<event>
 6    1  0.1108180E-002  0.1796037E+03  0.7546771E-02  0.1070784E+00
        -11   -1    0    0    0    0  0.00000000000E+00  0.00000000000E+00  0.18250000000E+03  0.18250000000E+03  0.00000000000E+00 0.  1.
         11   -1    0    0    0    0 -0.00000000000E+00 -0.00000000000E+00 -0.18250000000E+03  0.18250000000E+03  0.00000000000E+00 0.  1.
        -11    1    1    2    0    0 -0.19448003419E+01  0.26022236421E+01  0.17977852407E+03  0.17980787395E+03  0.00000000000E+00 0.  1.
         11    1    1    2    0    0  0.24370934219E+01  0.60594395010E+00 -0.17939686053E+03  0.17941443688E+03  0.00000000000E+00 0.  1.
        -15    1    1    2    0    0 -0.17663757826E+01 -0.22617445242E+01 -0.36467868286E+00  0.33950392103E+01  0.17770000000E+01 0.  1.
         15    1    1    2    0    0  0.12740827026E+01 -0.94642306799E+00 -0.16984859743E-01  0.23826499622E+01  0.17770000000E+01 0.  1.
</event>
<event>
 6    1  0.1108180E-002  0.1875449E+03  0.7546771E-02  0.1064509E+00
        -11   -1    0    0    0    0  0.00000000000E+00  0.00000000000E+00  0.18250000000E+03  0.18250000000E+03  0.00000000000E+00 0.  1.
         11   -1    0    0    0    0 -0.00000000000E+00 -0.00000000000E+00 -0.18250000000E+03  0.18250000000E+03  0.00000000000E+00 0. -1.
        -11    1    1    2    0    0  0.27112333306E+01  0.80642879592E+00  0.17743254420E+03  0.17745508968E+03  0.00000000000E+00 0.  1.
         11    1    1    2    0    0 -0.33978559309E+01  0.30952812889E+00 -0.17329065690E+03  0.17332424240E+03  0.00000000000E+00 0. -1.
        -15    1    1    2    0    0  0.36798619050E+00 -0.59794159202E+01 -0.60456835869E+01  0.86946447666E+01  0.17770000000E+01 0.  1.
         15    1    1    2    0    0  0.31863640979E+00  0.48634589954E+01  0.19037962913E+01  0.55260231524E+01  0.17770000000E+01 0. -1.
</event>
<event>
 6    1  0.1108180E-002  0.2054470E+03  0.7546771E-02  0.1051527E+00
        -11   -1    0    0    0    0  0.00000000000E+00  0.00000000000E+00  0.18250000000E+03  0.18250000000E+03  0.00000000000E+00 0.  1.
         11   -1    0    0    0    0 -0.00000000000E+00 -0.00000000000E+00 -0.18250000000E+03  0.18250000000E+03  0.00000000000E+00 0. -1.
        -11    1    1    2    0    0 -0.30491447708E+02  0.80339888097E+01  0.15640611455E+03  0.15955295681E+03  0.00000000000E+00 0.  1.
         11    1    1    2    0    0  0.85911944955E+01 -0.26828442678E+02 -0.84505060338E+02  0.89076816188E+02  0.00000000000E+00 0. -1.
        -15    1    1    2    0    0 -0.19575726702E+02 -0.70268751788E+01 -0.63399167330E+02  0.66747271089E+02  0.17770000000E+01 0. -1.
         15    1    1    2    0    0  0.41475979914E+02  0.25821329047E+02 -0.85018868816E+01  0.49622955909E+02  0.17770000000E+01 0.  1.
</event>
<event>
 6    1  0.1108180E-002  0.1827183E+03  0.7546771E-02  0.1068281E+00
        -11   -1    0    0    0    0  0.00000000000E+00  0.00000000000E+00  0.18250000000E+03  0.18250000000E+03  0.00000000000E+00 0.  1.
         11   -1    0    0    0    0 -0.00000000000E+00 -0.00000000000E+00 -0.18250000000E+03  0.18250000000E+03  0.00000000000E+00 0. -1.
        -11    1    1    2    0    0 -0.20549659437E+00 -0.16237158194E+01  0.20366818441E+02  0.20432473549E+02  0.00000000000E+00 0.  1.
         11    1    1    2    0    0  0.47723092459E+01 -0.11186886609E+01 -0.18221581780E+03  0.18228173429E+03  0.00000000000E+00 0. -1.
        -15    1    1    2    0    0  0.21733053652E+01 -0.18789089633E+00  0.89199643631E+02  0.89244006589E+02  0.17770000000E+01 0.  1.
         15    1    1    2    0    0 -0.67401180168E+01  0.29302953766E+01  0.72649355730E+02  0.73041785567E+02  0.17770000000E+01 0. -1.
</event>
<event>
 6    1  0.1108180E-002  0.1827420E+03  0.7546771E-02  0.1068262E+00
        -11   -1    0    0    0    0  0.00000000000E+00  0.00000000000E+00  0.18250000000E+03  0.18250000000E+03  0.00000000000E+00 0. -1.
         11   -1    0    0    0    0 -0.00000000000E+00 -0.00000000000E+00 -0.18250000000E+03  0.18250000000E+03  0.00000000000E+00 0. -1.
        -11    1    1    2    0    0  0.17919138546E+01 -0.22884779975E+01  0.18223480143E+03  0.18225797909E+03  0.00000000000E+00 0. -1.
         11    1    1    2    0    0  0.22147996124E+01  0.28307894805E+01 -0.13209336327E+03  0.13214225413E+03  0.00000000000E+00 0. -1.
        -15    1    1    2    0    0 -0.18114260218E+01  0.11939494341E+00 -0.88725231621E+01  0.92290257150E+01  0.17770000000E+01 0.  1.
         15    1    1    2    0    0 -0.21952874453E+01 -0.66170642642E+00 -0.41268915000E+02  0.41370741070E+02  0.17770000000E+01 0. -1.
</event>
<event>
 6    1  0.1108180E-002  0.1827458E+03  0.7546771E-02  0.1068259E+00
        -11   -1    0    0    0    0  0.00000000000E+00  0.00000000000E+00  0.18250000000E+03  0.18250000000E+03  0.00000000000E+00 0. -1.
         11   -1    0    0    0    0 -0.00000000000E+00 -0.00000000000E+00 -0.18250000000E+03  0.18250000000E+03  0.00000000000E+00 0. -1.
        -11    1    1    2    0    0 -0.35081150506E+01  0.65825599914E+00  0.14956224483E+03  0.14960483030E+03  0.00000000000E+00 0. -1.
         11    1    1    2    0    0  0.27137082804E+01  0.21910072900E+01 -0.18222078540E+03  0.18225416143E+03  0.00000000000E+00 0. -1.
        -15    1    1    2    0    0 -0.10879167957E+01 -0.11322590874E+01  0.10410422364E+02  0.10677087449E+02  0.17770000000E+01 0.  1.
         15    1    1    2    0    0  0.18823235659E+01 -0.17170042017E+01  0.22248118212E+02  0.22463920815E+02  0.17770000000E+01 0. -1.
</event>
<event>
 6    1  0.1108180E-002  0.1836825E+03  0.7546771E-02  0.1067517E+00
        -11   -1    0    0    0    0  0.00000000000E+00  0.00000000000E+00  0.18250000000E+03  0.18250000000E+03  0.00000000000E+00 0.  1.
         11   -1    0    0    0    0 -0.00000000000E+00 -0.00000000000E+00 -0.18250000000E+03  0.18250000000E+03  0.00000000000E+00 0.  1.
        -11    1    1    2    0    0 -0.58393705311E+01  0.11729051497E+01  0.18121966816E+03  0.18131751730E+03  0.00000000000E+00 0.  1.
         11    1    1    2    0    0 -0.11360704802E+01 -0.58299398929E+01 -0.83713492632E+02  0.83923939993E+02  0.00000000000E+00 0.  1.
        -15    1    1    2    0    0  0.21724475411E+01 -0.68074652013E+01 -0.21593274377E+02  0.22814213511E+02  0.17770000000E+01 0. -1.
         15    1    1    2    0    0  0.48029934702E+01  0.11464499945E+02 -0.75912901147E+02  0.76944329192E+02  0.17770000000E+01 0.  1.
</event>
<event>
 6    1  0.1108180E-002  0.1843970E+03  0.7546771E-02  0.1066955E+00
        -11   -1    0    0    0    0  0.00000000000E+00  0.00000000000E+00  0.18250000000E+03  0.18250000000E+03  0.00000000000E+00 0.  1.
         11   -1    0    0    0    0 -0.00000000000E+00 -0.00000000000E+00 -0.18250000000E+03  0.18250000000E+03  0.00000000000E+00 0. -1.
        -11    1    1    2    0    0 -0.10897345239E+01 -0.10107068563E+01  0.99531624240E+02  0.99542720847E+02  0.00000000000E+00 0.  1.
         11    1    1    2    0    0 -0.89498332030E+01 -0.48029010224E+01 -0.18031711671E+03  0.18060296219E+03  0.00000000000E+00 0. -1.
        -15    1    1    2    0    0  0.32504151233E+00  0.77170502411E+01  0.68591082060E+02  0.69047467612E+02  0.17770000000E+01 0.  1.
         15    1    1    2    0    0  0.97145262146E+01 -0.19034423624E+01  0.12194410407E+02  0.15806849356E+02  0.17770000000E+01 0. -1.
</event>
<event>
 6    1  0.1108180E-002  0.1831710E+03  0.7546771E-02  0.1067922E+00
        -11   -1    0    0    0    0  0.00000000000E+00  0.00000000000E+00  0.18250000000E+03  0.18250000000E+03  0.00000000000E+00 0. -1.
         11   -1    0    0    0    0 -0.00000000000E+00 -0.00000000000E+00 -0.18250000000E+03  0.18250000000E+03  0.00000000000E+00 0. -1.
        -11    1    1    2    0    0 -0.17326984759E+01  0.14272981971E+01  0.69821258479E+02  0.69857337194E+02  0.00000000000E+00 0. -1.
         11    1    1    2    0    0  0.17612791253E+01 -0.39908544060E+01 -0.18177662178E+03  0.18182895602E+03  0.00000000000E+00 0. -1.
        -15    1    1    2    0    0 -0.10823673329E+01  0.42406714842E+01  0.77616512941E+01  0.90860207732E+01  0.17770000000E+01 0. -1.
         15    1    1    2    0    0  0.10537866836E+01 -0.16771152754E+01  0.10419371200E+03  0.10422768601E+03  0.17770000000E+01 0. -1.
</event>
<event>
 6    1  0.1108180E-002  0.1934895E+03  0.7546771E-02  0.1060029E+00
        -11   -1    0    0    0    0  0.00000000000E+00  0.00000000000E+00  0.18250000000E+03  0.18250000000E+03  0.00000000000E+00 0. -1.
         11   -1    0    0    0    0 -0.00000000000E+00 -0.00000000000E+00 -0.18250000000E+03  0.18250000000E+03  0.00000000000E+00 0. -1.
        -11    1    1    2    0    0 -0.60800962200E+01 -0.13467799693E+01  0.17139744968E+03  0.17151054529E+03  0.00000000000E+00 0. -1.
         11    1    1    2    0    0 -0.28515771451E+01 -0.21539985190E+01 -0.14346079224E+03  0.14350529646E+03  0.00000000000E+00 0. -1.
        -15    1    1    2    0    0  0.19839854557E+01  0.19511502386E+02 -0.25581729018E+02  0.32283393753E+02  0.17770000000E+01 0.  1.
         15    1    1    2    0    0  0.69476879095E+01 -0.16010723898E+02 -0.23549284236E+01  0.17700764500E+02  0.17770000000E+01 0. -1.
</event>
<event>
 6    1  0.1108180E-002  0.1828761E+03  0.7546771E-02  0.1068156E+00
        -11   -1    0    0    0    0  0.00000000000E+00  0.00000000000E+00  0.18250000000E+03  0.18250000000E+03  0.00000000000E+00 0. -1.
         11   -1    0    0    0    0 -0.00000000000E+00 -0.00000000000E+00 -0.18250000000E+03  0.18250000000E+03  0.00000000000E+00 0.  1.
        -11    1    1    2    0    0  0.25900164631E+01  0.20042667158E+01  0.10904249038E+03  0.10909165861E+03  0.00000000000E+00 0. -1.
         11    1    1    2    0    0 -0.39805120460E+01 -0.21699713902E+01 -0.18206744733E+03  0.18212388264E+03  0.00000000000E+00 0.  1.
        -15    1    1    2    0    0 -0.26129105912E+01 -0.30805066078E+01  0.20061190354E+02  0.20540835186E+02  0.17770000000E+01 0.  1.
         15    1    1    2    0    0  0.40034061741E+01  0.32462112821E+01  0.52963766595E+02  0.53243623558E+02  0.17770000000E+01 0. -1.
</event>
<event>
 6    1  0.1108180E-002  0.1707267E+03  0.7546771E-02  0.1078233E+00
        -11   -1    0    0    0    0  0.00000000000E+00  0.00000000000E+00  0.18250000000E+03  0.18250000000E+03  0.00000000000E+00 0.  1.
         11   -1    0    0    0    0 -0.00000000000E+00 -0.00000000000E+00 -0.18250000000E+03  0.18250000000E+03  0.00000000000E+00 0. -1.
        -11    1    1    2    0    0 -0.71333696416E+00 -0.47614420372E+01  0.16986296674E+03  0.16993118504E+03  0.00000000000E+00 0.  1.
         11    1    1    2    0    0  0.49335227005E+01  0.11079434545E+02 -0.17118020250E+03  0.17160930990E+03  0.00000000000E+00 0. -1.
        -15    1    1    2    0    0 -0.93438438407E+01 -0.95658598404E-01  0.83185262614E+01  0.12636145633E+02  0.17770000000E+01 0.  1.
         15    1    1    2    0    0  0.51236581044E+01 -0.62223339093E+01 -0.70012904955E+01  0.10823359425E+02  0.17770000000E+01 0. -1.
</event>
<event>
 6    1  0.1108180E-002  0.1834964E+03  0.7546771E-02  0.1067664E+00
        -11   -1    0    0    0    0  0.00000000000E+00  0.00000000000E+00  0.18250000000E+03  0.18250000000E+03  0.00000000000E+00 0.  1.
         11   -1    0    0    0    0 -0.00000000000E+00 -0.00000000000E+00 -0.18250000000E+03  0.18250000000E+03  0.00000000000E+00 0.  1.
        -11    1    1    2    0    0 -0.87973728526E+00 -0.16779662727E+01  0.13594821482E+03  0.13596141593E+03  0.00000000000E+00 0.  1.
         11    1    1    2    0    0  0.26628438771E+01  0.99752306929E+00 -0.18148136195E+03  0.18150363777E+03  0.00000000000E+00 0.  1.
        -15    1    1    2    0    0  0.28455357752E+00 -0.41422737371E+01  0.54834530901E+01  0.71038995800E+01  0.17770000000E+01 0.  1.
         15    1    1    2    0    0 -0.20676601694E+01  0.48227169405E+01  0.40049694035E+02  0.40431046716E+02  0.17770000000E+01 0. -1.
</event>
<event>
 6    1  0.1108180E-002  0.1829905E+03  0.7546771E-02  0.1068065E+00
        -11   -1    0    0    0    0  0.00000000000E+00  0.00000000000E+00  0.18250000000E+03  0.18250000000E+03  0.00000000000E+00 0. -1.
         11   -1    0    0    0    0 -0.00000000000E+00 -0.00000000000E+00 -0.18250000000E+03  0.18250000000E+03  0.00000000000E+00 0. -1.
        -11    1    1    2    0    0 -0.22342776975E+01  0.18085046682E+01  0.18198680471E+03  0.18200950462E+03  0.00000000000E+00 0. -1.
         11    1    1    2    0    0  0.13529646596E+01  0.35302055550E+01 -0.15339057642E+03  0.15343715912E+03  0.00000000000E+00 0. -1.
        -15    1    1    2    0    0  0.22849475589E+01 -0.24802188640E+01 -0.14304603895E+02  0.14803779671E+02  0.17770000000E+01 0. -1.
         15    1    1    2    0    0 -0.14036345210E+01 -0.28584913591E+01 -0.14291624394E+02  0.14749556588E+02  0.17770000000E+01 0.  1.
</event>
<event>
 6    1  0.1108180E-002  0.1861131E+03  0.7546771E-02  0.1065615E+00
        -11   -1    0    0    0    0  0.00000000000E+00  0.00000000000E+00  0.18250000000E+03  0.18250000000E+03  0.00000000000E+00 0.  1.
         11   -1    0    0    0    0 -0.00000000000E+00 -0.00000000000E+00 -0.18250000000E+03  0.18250000000E+03  0.00000000000E+00 0.  1.
        -11    1    1    2    0    0  0.44670738064E+01  0.15688341528E+01  0.15831824849E+03  0.15838902675E+03  0.00000000000E+00 0.  1.
         11    1    1    2    0    0  0.22910843846E+01 -0.12242314354E+01 -0.17886807431E+03  0.17888693585E+03  0.00000000000E+00 0.  1.
        -15    1    1    2    0    0 -0.15093131902E+01  0.47544952681E-01 -0.28450437656E+01  0.36786260828E+01  0.17770000000E+01 0.  1.
         15    1    1    2    0    0 -0.52488450009E+01 -0.39214767006E+00  0.23394869581E+02  0.24045411316E+02  0.17770000000E+01 0.  1.
</event>
<event>
 6    1  0.1108180E-002  0.1853241E+03  0.7546771E-02  0.1066229E+00
        -11   -1    0    0    0    0  0.00000000000E+00  0.00000000000E+00  0.18250000000E+03  0.18250000000E+03  0.00000000000E+00 0. -1.
         11   -1    0    0    0    0 -0.00000000000E+00 -0.00000000000E+00 -0.18250000000E+03  0.18250000000E+03  0.00000000000E+00 0.  1.
        -11    1    1    2    0    0  0.11049364845E+02  0.13033744669E+02  0.11862035515E+03  0.11984471461E+03  0.00000000000E+00 0. -1.
         11    1    1    2    0    0 -0.20975313566E+01 -0.15532286276E+01 -0.17965698002E+03  0.17967593781E+03  0.00000000000E+00 0.  1.
        -15    1    1    2    0    0  0.32973363714E+01  0.28076759261E+01  0.96383543144E+01  0.10714992960E+02  0.17770000000E+01 0.  1.
         15    1    1    2    0    0 -0.12249169860E+02 -0.14288191968E+02  0.51398270554E+02  0.54764354620E+02  0.17770000000E+01 0. -1.
</event>
<event>
 6    1  0.1108180E-002  0.1850491E+03  0.7546771E-02  0.1066444E+00
        -11   -1    0    0    0    0  0.00000000000E+00  0.00000000000E+00  0.18250000000E+03  0.18250000000E+03  0.00000000000E+00 0.  1.
         11   -1    0    0    0    0 -0.00000000000E+00 -0.00000000000E+00 -0.18250000000E+03  0.18250000000E+03  0.00000000000E+00 0.  1.
        -11    1    1    2    0    0 -0.28539084870E+00  0.23595506980E+01  0.17322515422E+03  0.17324145861E+03  0.00000000000E+00 0.  1.
         11    1    1    2    0    0 -0.25938500248E+01 -0.64243868753E+01 -0.17981747495E+03  0.17995089637E+03  0.00000000000E+00 0.  1.
        -15    1    1    2    0    0  0.21774158869E+00 -0.19141018323E+01  0.34523309700E+01  0.43344567537E+01  0.17770000000E+01 0.  1.
         15    1    1    2    0    0  0.26614992848E+01  0.59789380096E+01  0.31399897649E+01  0.74731882680E+01  0.17770000000E+01 0.  1.
</event>
<event>
 6    1  0.1108180E-002  0.1915006E+03  0.7546771E-02  0.1061508E+00
        -11   -1    0    0    0    0  0.00000000000E+00  0.00000000000E+00  0.18250000000E+03  0.18250000000E+03  0.00000000000E+00 0.  1.
         11   -1    0    0    0    0 -0.00000000000E+00 -0.00000000000E+00 -0.18250000000E+03  0.18250000000E+03  0.00000000000E+00 0. -1.
        -11    1    1    2    0    0  0.47313901034E+01  0.67541675577E+01  0.17330331798E+03  0.17349940880E+03  0.00000000000E+00 0.  1.
         11    1    1    2    0    0 -0.10167062556E+02 -0.41222039305E+01 -0.11428370891E+03  0.11480909306E+03  0.00000000000E+00 0. -1.
        -15    1    1    2    0    0  0.15893069680E+02 -0.55093555432E+00 -0.63130347405E+02  0.65126735572E+02  0.17770000000E+01 0. -1.
         15    1    1    2    0    0 -0.10457397227E+02 -0.20810280729E+01  0.41107383344E+01  0.11564762568E+02  0.17770000000E+01 0.  1.
</event>
<event>
 6    1  0.1108180E-002  0.1856271E+03  0.7546771E-02  0.1065993E+00
        -11   -1    0    0    0    0  0.00000000000E+00  0.00000000000E+00  0.18250000000E+03  0.18250000000E+03  0.00000000000E+00 0.  1.
         11   -1    0    0    0    0 -0.00000000000E+00 -0.00000000000E+00 -0.18250000000E+03  0.18250000000E+03  0.00000000000E+00 0.  1.
        -11    1    1    2    0    0  0.29371811310E+01 -0.38139369905E+01  0.17930833160E+03  0.17937293812E+03  0.00000000000E+00 0.  1.
         11    1    1    2    0    0  0.11396312225E+01 -0.39348804464E+01 -0.10361909442E+03  0.10370004229E+03  0.00000000000E+00 0.  1.
        -15    1    1    2    0    0 -0.64946642298E+00  0.54325548061E+01  0.34187108826E+00  0.57627305331E+01  0.17770000000E+01 0. -1.
         15    1    1    2    0    0 -0.34273459305E+01  0.23162626307E+01 -0.76031108275E+02  0.76164289055E+02  0.17770000000E+01 0.  1.
</event>
<event>
 6    1  0.1108180E-002  0.1849710E+03  0.7546771E-02  0.1066505E+00
        -11   -1    0    0    0    0  0.00000000000E+00  0.00000000000E+00  0.18250000000E+03  0.18250000000E+03  0.00000000000E+00 0. -1.
         11   -1    0    0    0    0 -0.00000000000E+00 -0.00000000000E+00 -0.18250000000E+03  0.18250000000E+03  0.00000000000E+00 0. -1.
        -11    1    1    2    0    0 -0.30775687555E+01  0.78409620390E+00  0.17009608745E+03  0.17012573351E+03  0.00000000000E+00 0. -1.
         11    1    1    2    0    0  0.12297437859E+01  0.36003908114E+01 -0.17998877072E+03  0.18002897731E+03  0.00000000000E+00 0. -1.
        -15    1    1    2    0    0  0.28706500998E+01 -0.51030908480E+01  0.16731257040E+01  0.63434412443E+01  0.17770000000E+01 0. -1.
         15    1    1    2    0    0 -0.10228251302E+01  0.71860383270E+00  0.82195575678E+01  0.85018479360E+01  0.17770000000E+01 0.  1.
</event>
<event>
 6    1  0.1108180E-002  0.1847081E+03  0.7546771E-02  0.1066711E+00
        -11   -1    0    0    0    0  0.00000000000E+00  0.00000000000E+00  0.18250000000E+03  0.18250000000E+03  0.00000000000E+00 0.  1.
         11   -1    0    0    0    0 -0.00000000000E+00 -0.00000000000E+00 -0.18250000000E+03  0.18250000000E+03  0.00000000000E+00 0.  1.
        -11    1    1    2    0    0 -0.70124666439E+01 -0.10913868303E+01  0.95231720881E+02  0.95495792973E+02  0.00000000000E+00 0.  1.
         11    1    1    2    0    0  0.44513758434E+01 -0.10747272149E+01 -0.18023375613E+03  0.18029192060E+03  0.00000000000E+00 0.  1.
        -15    1    1    2    0    0 -0.45476556653E+01  0.36658138371E+01  0.28805426473E+01  0.67508975759E+01  0.17770000000E+01 0. -1.
         15    1    1    2    0    0  0.71087464658E+01 -0.14996997919E+01  0.82121492599E+02  0.82461388852E+02  0.17770000000E+01 0.  1.
</event>
<event>
 6    1  0.1108180E-002  0.1842841E+03  0.7546771E-02  0.1067043E+00
        -11   -1    0    0    0    0  0.00000000000E+00  0.00000000000E+00  0.18250000000E+03  0.18250000000E+03  0.00000000000E+00 0.  1.
         11   -1    0    0    0    0 -0.00000000000E+00 -0.00000000000E+00 -0.18250000000E+03  0.18250000000E+03  0.00000000000E+00 0.  1.
        -11    1    1    2    0    0 -0.13482464325E+01  0.24450756176E+01  0.18069431891E+03  0.18071589041E+03  0.00000000000E+00 0.  1.
         11    1    1    2    0    0  0.21449590891E+00 -0.49158946903E+01 -0.15717412863E+03  0.15725113272E+03  0.00000000000E+00 0.  1.
        -15    1    1    2    0    0  0.31029808646E+01  0.71138366464E+01 -0.14729570756E+02  0.16743749452E+02  0.17770000000E+01 0.  1.
         15    1    1    2    0    0 -0.19692303410E+01 -0.46430175737E+01 -0.87906195187E+01  0.10289227417E+02  0.17770000000E+01 0. -1.
</event>
<event>
 6    1  0.1108180E-002  0.1846702E+03  0.7546771E-02  0.1066740E+00
        -11   -1    0    0    0    0  0.00000000000E+00  0.00000000000E+00  0.18250000000E+03  0.18250000000E+03  0.00000000000E+00 0. -1.
         11   -1    0    0    0    0 -0.00000000000E+00 -0.00000000000E+00 -0.18250000000E+03  0.18250000000E+03  0.00000000000E+00 0. -1.
        -11    1    1    2    0    0  0.26536824367E+01 -0.80402475053E+01  0.10561152452E+03  0.10595037386E+03  0.00000000000E+00 0. -1.
         11    1    1    2    0    0  0.10728694139E+02  0.95861946430E+01 -0.17975498498E+03  0.18032984953E+03  0.00000000000E+00 0. -1.
        -15    1    1    2    0    0 -0.13961233756E+02 -0.94493876077E+01  0.36994835034E+02  0.40693765153E+02  0.17770000000E+01 0. -1.
         15    1    1    2    0    0  0.57885718122E+00  0.79034404700E+01  0.37148625428E+02  0.38026011454E+02  0.17770000000E+01 0.  1.
</event>
<event>
 6    1  0.1108180E-002  0.1833119E+03  0.7546771E-02  0.1067810E+00
        -11   -1    0    0    0    0  0.00000000000E+00  0.00000000000E+00  0.18250000000E+03  0.18250000000E+03  0.00000000000E+00 0.  1.
         11   -1    0    0    0    0 -0.00000000000E+00 -0.00000000000E+00 -0.18250000000E+03  0.18250000000E+03  0.00000000000E+00 0.  1.
        -11    1    1    2    0    0 -0.49716928990E+01  0.25320034369E+01  0.69493215385E+02  0.69716825489E+02  0.00000000000E+00 0.  1.
         11    1    1    2    0    0  0.51862659309E+01  0.25275703474E+01 -0.18159643890E+03  0.18168806396E+03  0.00000000000E+00 0.  1.
        -15    1    1    2    0    0 -0.19714291886E+01  0.14106635445E+01  0.29158260188E+01  0.41876335864E+01  0.17770000000E+01 0. -1.
         15    1    1    2    0    0  0.17568561567E+01 -0.64702373288E+01  0.10918739749E+03  0.10940747696E+03  0.17770000000E+01 0.  1.
</event>
<event>
 6    1  0.1108180E-002  0.1836316E+03  0.7546771E-02  0.1067558E+00
        -11   -1    0    0    0    0  0.00000000000E+00  0.00000000000E+00  0.18250000000E+03  0.18250000000E+03  0.00000000000E+00 0.  1.
         11   -1    0    0    0    0 -0.00000000000E+00 -0.00000000000E+00 -0.18250000000E+03  0.18250000000E+03  0.00000000000E+00 0. -1.
        -11    1    1    2    0    0 -0.22366574080E+01 -0.21147429881E+01  0.18134228554E+03  0.18136840767E+03  0.00000000000E+00 0.  1.
         11    1    1    2    0    0  0.29732045323E+01  0.18945926433E+01 -0.16631784288E+03  0.16635520517E+03  0.00000000000E+00 0. -1.
        -15    1    1    2    0    0 -0.33350005649E+01 -0.13298472119E+01 -0.11975953492E+02  0.12628218933E+02  0.17770000000E+01 0.  1.
         15    1    1    2    0    0  0.25984534405E+01  0.15499975566E+01 -0.30484891657E+01  0.46481682308E+01  0.17770000000E+01 0.  1.
</event>
<event>
 6    1  0.1108180E-002  0.2019048E+03  0.7546771E-02  0.1053979E+00
        -11   -1    0    0    0    0  0.00000000000E+00  0.00000000000E+00  0.18250000000E+03  0.18250000000E+03  0.00000000000E+00 0. -1.
         11   -1    0    0    0    0 -0.00000000000E+00 -0.00000000000E+00 -0.18250000000E+03  0.18250000000E+03  0.00000000000E+00 0.  1.
        -11    1    1    2    0    0 -0.87170148511E+00 -0.75793983870E+01  0.14669785067E+03  0.14689610796E+03  0.00000000000E+00 0. -1.
         11    1    1    2    0    0 -0.29344396104E+01 -0.36396620053E+01 -0.16302816965E+03  0.16309519360E+03  0.00000000000E+00 0.  1.
        -15    1    1    2    0    0 -0.12956214537E+02 -0.95688082155E+01  0.22321396786E+02  0.27583112030E+02  0.17770000000E+01 0.  1.
         15    1    1    2    0    0  0.16762355633E+02  0.20787868608E+02 -0.59910778000E+01  0.27425586408E+02  0.17770000000E+01 0. -1.
</event>
<event>
 6    1  0.1108180E-002  0.1835806E+03  0.7546771E-02  0.1067598E+00
        -11   -1    0    0    0    0  0.00000000000E+00  0.00000000000E+00  0.18250000000E+03  0.18250000000E+03  0.00000000000E+00 0. -1.
         11   -1    0    0    0    0 -0.00000000000E+00 -0.00000000000E+00 -0.18250000000E+03  0.18250000000E+03  0.00000000000E+00 0. -1.
        -11    1    1    2    0    0  0.25267918117E+01 -0.34429318069E-01  0.87293404631E+02  0.87329973974E+02  0.00000000000E+00 0. -1.
         11    1    1    2    0    0 -0.81527156984E+00 -0.51641589433E+01 -0.18134408298E+03  0.18141943016E+03  0.00000000000E+00 0. -1.
        -15    1    1    2    0    0 -0.30143488229E+01 -0.71267460378E+01  0.36883688532E+02  0.37728517286E+02  0.17770000000E+01 0.  1.
         15    1    1    2    0    0  0.13028285811E+01  0.12325334299E+02  0.57166989819E+02  0.58522078585E+02  0.17770000000E+01 0. -1.
</event>
<event>
 6    1  0.1108180E-002  0.1691593E+03  0.7546771E-02  0.1079600E+00
        -11   -1    0    0    0    0  0.00000000000E+00  0.00000000000E+00  0.18250000000E+03  0.18250000000E+03  0.00000000000E+00 0.  1.
         11   -1    0    0    0    0 -0.00000000000E+00 -0.00000000000E+00 -0.18250000000E+03  0.18250000000E+03  0.00000000000E+00 0. -1.
        -11    1    1    2    0    0  0.56239498346E+01 -0.15446534102E+02  0.17471139332E+03  0.17548303389E+03  0.00000000000E+00 0.  1.
         11    1    1    2    0    0  0.25091424988E+01  0.65281143060E+01 -0.48982830175E+01  0.85384570615E+01  0.00000000000E+00 0. -1.
        -15    1    1    2    0    0  0.10344543236E+02  0.11630018074E+02 -0.71212525464E+01  0.17208627545E+02  0.17770000000E+01 0.  1.
         15    1    1    2    0    0 -0.18477635570E+02 -0.27115982779E+01 -0.16269185775E+03  0.16376988151E+03  0.17770000000E+01 0. -1.
</event>
<event>
 6    1  0.1108180E-002  0.2127944E+03  0.7546771E-02  0.1046610E+00
        -11   -1    0    0    0    0  0.00000000000E+00  0.00000000000E+00  0.18250000000E+03  0.18250000000E+03  0.00000000000E+00 0.  1.
         11   -1    0    0    0    0 -0.00000000000E+00 -0.00000000000E+00 -0.18250000000E+03  0.18250000000E+03  0.00000000000E+00 0. -1.
        -11    1    1    2    0    0 -0.10730040606E+01 -0.47381888907E+01  0.15212806136E+03  0.15220561365E+03  0.00000000000E+00 0.  1.
         11    1    1    2    0    0 -0.57214194317E+01 -0.11362262431E+01 -0.13953014105E+03  0.13965201722E+03  0.00000000000E+00 0. -1.
        -15    1    1    2    0    0  0.40181426408E+01 -0.29212561611E+02  0.10104549645E+02  0.31221449016E+02  0.17770000000E+01 0.  1.
         15    1    1    2    0    0  0.27762808515E+01  0.35086976744E+02 -0.22702469956E+02  0.41920920118E+02  0.17770000000E+01 0. -1.
</event>
<event>
 6    1  0.1108180E-002  0.1886508E+03  0.7546771E-02  0.1063662E+00
        -11   -1    0    0    0    0  0.00000000000E+00  0.00000000000E+00  0.18250000000E+03  0.18250000000E+03  0.00000000000E+00 0. -1.
         11   -1    0    0    0    0 -0.00000000000E+00 -0.00000000000E+00 -0.18250000000E+03  0.18250000000E+03  0.00000000000E+00 0.  1.
        -11    1    1    2    0    0  0.11377560001E+01  0.53942479968E+01  0.16667367212E+03  0.16676482056E+03  0.00000000000E+00 0. -1.
         11    1    1    2    0    0  0.28525183695E+01 -0.27891020323E+01 -0.17630404189E+03  0.17634917390E+03  0.00000000000E+00 0.  1.
        -15    1    1    2    0    0 -0.29570627378E+00 -0.60511197972E+01  0.13749362185E+02  0.15129645816E+02  0.17770000000E+01 0.  1.
         15    1    1    2    0    0 -0.36945680958E+01  0.34459738327E+01 -0.41189924184E+01  0.67563597160E+01  0.17770000000E+01 0.  1.
</event>
<event>
 6    1  0.1108180E-002  0.1894196E+03  0.7546771E-02  0.1063076E+00
        -11   -1    0    0    0    0  0.00000000000E+00  0.00000000000E+00  0.18250000000E+03  0.18250000000E+03  0.00000000000E+00 0. -1.
         11   -1    0    0    0    0 -0.00000000000E+00 -0.00000000000E+00 -0.18250000000E+03  0.18250000000E+03  0.00000000000E+00 0. -1.
        -11    1    1    2    0    0  0.41309680285E+01 -0.90996206108E+00  0.17552940624E+03  0.17558036731E+03  0.00000000000E+00 0. -1.
         11    1    1    2    0    0 -0.71828730180E+01  0.17273978656E+01 -0.17061266695E+03  0.17077253788E+03  0.00000000000E+00 0. -1.
        -15    1    1    2    0    0 -0.93787699488E+00 -0.63392933379E+01 -0.84636630041E+01  0.10763715610E+02  0.17770000000E+01 0.  1.
         15    1    1    2    0    0  0.39897819844E+01  0.55218575334E+01  0.35469237107E+01  0.78833792064E+01  0.17770000000E+01 0. -1.
</event>
<event>
 6    1  0.1108180E-002  0.1667735E+03  0.7546771E-02  0.1081711E+00
        -11   -1    0    0    0    0  0.00000000000E+00  0.00000000000E+00  0.18250000000E+03  0.18250000000E+03  0.00000000000E+00 0.  1.
         11   -1    0    0    0    0 -0.00000000000E+00 -0.00000000000E+00 -0.18250000000E+03  0.18250000000E+03  0.00000000000E+00 0.  1.
        -11    1    1    2    0    0 -0.16522114738E+01  0.45413184270E+01  0.16565724149E+03  0.16572771354E+03  0.00000000000E+00 0.  1.
         11    1    1    2    0    0  0.37197556509E+00  0.86888656365E+01 -0.16786619311E+03  0.16809132500E+03  0.00000000000E+00 0.  1.
        -15    1    1    2    0    0  0.54317400598E+01 -0.26510187361E+01  0.13602578773E+02  0.14990649709E+02  0.17770000000E+01 0.  1.
         15    1    1    2    0    0 -0.41515041511E+01 -0.10579165327E+02 -0.11393627157E+02  0.16190311749E+02  0.17770000000E+01 0. -1.
</event>
<event>
 6    1  0.1108180E-002  0.1912349E+03  0.7546771E-02  0.1061707E+00
        -11   -1    0    0    0    0  0.00000000000E+00  0.00000000000E+00  0.18250000000E+03  0.18250000000E+03  0.00000000000E+00 0.  1.
         11   -1    0    0    0    0 -0.00000000000E+00 -0.00000000000E+00 -0.18250000000E+03  0.18250000000E+03  0.00000000000E+00 0.  1.
        -11    1    1    2    0    0  0.12316532265E+02 -0.14370491002E+02  0.17273134344E+03  0.17376514318E+03  0.00000000000E+00 0.  1.
         11    1    1    2    0    0  0.20916811460E+01 -0.98111013165E+00 -0.15114872038E+03  0.15116637648E+03  0.00000000000E+00 0.  1.
        -15    1    1    2    0    0  0.20972730504E+01  0.36089222207E+00 -0.17014826756E+02  0.17239224344E+02  0.17770000000E+01 0. -1.
         15    1    1    2    0    0 -0.16505486462E+02  0.14990708912E+02 -0.45677963028E+01  0.22829255991E+02  0.17770000000E+01 0.  1.
</event>
<event>
 6    1  0.1108180E-002  0.1847668E+03  0.7546771E-02  0.1066665E+00
        -11   -1    0    0    0    0  0.00000000000E+00  0.00000000000E+00  0.18250000000E+03  0.18250000000E+03  0.00000000000E+00 0. -1.
         11   -1    0    0    0    0 -0.00000000000E+00 -0.00000000000E+00 -0.18250000000E+03  0.18250000000E+03  0.00000000000E+00 0.  1.
        -11    1    1    2    0    0 -0.33223667829E+01  0.27709269785E+01  0.18018127497E+03  0.18023320451E+03  0.00000000000E+00 0. -1.
         11    1    1    2    0    0 -0.25784771468E+00  0.27159960727E+01 -0.15716811856E+03  0.15719179563E+03  0.00000000000E+00 0.  1.
        -15    1    1    2    0    0 -0.38889657825E+00 -0.16204300072E+01 -0.21397621536E+02  0.21535853138E+02  0.17770000000E+01 0. -1.
         15    1    1    2    0    0  0.39691110759E+01 -0.38664930440E+01 -0.16155348735E+01  0.60391467211E+01  0.17770000000E+01 0.  1.
</event>
<event>
 6    1  0.1108180E-002  0.1703418E+03  0.7546771E-02  0.1078567E+00
        -11   -1    0    0    0    0  0.00000000000E+00  0.00000000000E+00  0.18250000000E+03  0.18250000000E+03  0.00000000000E+00 0. -1.
         11   -1    0    0    0    0 -0.00000000000E+00 -0.00000000000E+00 -0.18250000000E+03  0.18250000000E+03  0.00000000000E+00 0. -1.
        -11    1    1    2    0    0  0.75727746820E+01 -0.49012187563E+01  0.16967792625E+03  0.16991753152E+03  0.00000000000E+00 0. -1.
         11    1    1    2    0    0 -0.28889534208E+01  0.10436625681E+01 -0.17079422477E+03  0.17082184432E+03  0.00000000000E+00 0. -1.
        -15    1    1    2    0    0 -0.70684966912E+01  0.46125261174E+01  0.10961624659E+02  0.13948261068E+02  0.17770000000E+01 0.  1.
         15    1    1    2    0    0  0.23846754301E+01 -0.75496992925E+00 -0.98453261442E+01  0.10312363084E+02  0.17770000000E+01 0.  1.
</event>
<event>
 6    1  0.1108180E-002  0.1863464E+03  0.7546771E-02  0.1065434E+00
        -11   -1    0    0    0    0  0.00000000000E+00  0.00000000000E+00  0.18250000000E+03  0.18250000000E+03  0.00000000000E+00 0. -1.
         11   -1    0    0    0    0 -0.00000000000E+00 -0.00000000000E+00 -0.18250000000E+03  0.18250000000E+03  0.00000000000E+00 0. -1.
        -11    1    1    2    0    0 -0.60569152326E+01 -0.33721792157E+01  0.17851904551E+03  0.17865359617E+03  0.00000000000E+00 0. -1.
         11    1    1    2    0    0  0.22384332832E+01 -0.13645225127E+01 -0.15728236236E+03  0.15730420850E+03  0.00000000000E+00 0. -1.
        -15    1    1    2    0    0  0.92825548857E+01  0.41821782938E+01 -0.20832909138E+02  0.23255628838E+02  0.17770000000E+01 0.  1.
         15    1    1    2    0    0 -0.54640729363E+01  0.55452343457E+00 -0.40377401426E+00  0.57865664903E+01  0.17770000000E+01 0. -1.
</event>
<event>
 6    1  0.1108180E-002  0.1836832E+03  0.7546771E-02  0.1067517E+00
        -11   -1    0    0    0    0  0.00000000000E+00  0.00000000000E+00  0.18250000000E+03  0.18250000000E+03  0.00000000000E+00 0. -1.
         11   -1    0    0    0    0 -0.00000000000E+00 -0.00000000000E+00 -0.18250000000E+03  0.18250000000E+03  0.00000000000E+00 0.  1.
        -11    1    1    2    0    0 -0.16257300428E+01 -0.18982870363E+01  0.18129955724E+03  0.18131678341E+03  0.00000000000E+00 0. -1.
         11    1    1    2    0    0 -0.28806028980E+01  0.93177303793E+00 -0.17061580304E+03  0.17064266267E+03  0.00000000000E+00 0.  1.
        -15    1    1    2    0    0  0.17591620796E+01 -0.25042630123E+00 -0.92764389108E+00  0.26787341681E+01  0.17770000000E+01 0.  1.
         15    1    1    2    0    0  0.27471708612E+01  0.12169402996E+01 -0.97561103016E+01  0.10361819756E+02  0.17770000000E+01 0. -1.
</event>
<event>
 6    1  0.1108180E-002  0.1828263E+03  0.7546771E-02  0.1068195E+00
        -11   -1    0    0    0    0  0.00000000000E+00  0.00000000000E+00  0.18250000000E+03  0.18250000000E+03  0.00000000000E+00 0.  1.
         11   -1    0    0    0    0 -0.00000000000E+00 -0.00000000000E+00 -0.18250000000E+03  0.18250000000E+03  0.00000000000E+00 0. -1.
        -11    1    1    2    0    0 -0.33299490212E+01 -0.22870272983E+01  0.18212886121E+03  0.18217365655E+03  0.00000000000E+00 0.  1.
         11    1    1    2    0    0  0.23435169118E+01 -0.50028755592E+00 -0.12552667354E+03  0.12554954452E+03  0.00000000000E+00 0. -1.
        -15    1    1    2    0    0  0.28801097888E+01  0.45169249078E+01 -0.36095202544E+02  0.36533806518E+02  0.17770000000E+01 0. -1.
         15    1    1    2    0    0 -0.18936776794E+01 -0.17296100536E+01 -0.20506985133E+02  0.20742992415E+02  0.17770000000E+01 0. -1.
</event>
<event>
 6    1  0.1108180E-002  0.1878384E+03  0.7546771E-02  0.1064283E+00
        -11   -1    0    0    0    0  0.00000000000E+00  0.00000000000E+00  0.18250000000E+03  0.18250000000E+03  0.00000000000E+00 0. -1.
         11   -1    0    0    0    0 -0.00000000000E+00 -0.00000000000E+00 -0.18250000000E+03  0.18250000000E+03  0.00000000000E+00 0.  1.
        -11    1    1    2    0    0  0.51720773090E+01 -0.30852469977E+00  0.17708584881E+03  0.17716163077E+03  0.00000000000E+00 0. -1.
         11    1    1    2    0    0  0.29816612080E+01 -0.31553112822E+01 -0.15149597701E+03  0.15155816489E+03  0.00000000000E+00 0.  1.
        -15    1    1    2    0    0 -0.13100405905E+01  0.62464810853E+01 -0.27629522653E+02  0.28412725729E+02  0.17770000000E+01 0. -1.
         15    1    1    2    0    0 -0.68436979265E+01 -0.27826451033E+01  0.20396508588E+01  0.78674786118E+01  0.17770000000E+01 0.  1.
</event>
<event>
 6    1  0.1108180E-002  0.1827764E+03  0.7546771E-02  0.1068235E+00
        -11   -1    0    0    0    0  0.00000000000E+00  0.00000000000E+00  0.18250000000E+03  0.18250000000E+03  0.00000000000E+00 0. -1.
         11   -1    0    0    0    0 -0.00000000000E+00 -0.00000000000E+00 -0.18250000000E+03  0.18250000000E+03  0.00000000000E+00 0.  1.
        -11    1    1    2    0    0 -0.59185926499E+01 -0.37124095118E+01  0.18208961235E+03  0.18222359521E+03  0.00000000000E+00 0. -1.
         11    1    1    2    0    0  0.41557017614E+00  0.15232211721E+01 -0.94753318102E+02  0.94766471881E+02  0.00000000000E+00 0.  1.
        -15    1    1    2    0    0 -0.67045328187E+00  0.16483282710E+01 -0.74311536690E+01  0.78451429270E+01  0.17770000000E+01 0. -1.
         15    1    1    2    0    0  0.61734757556E+01  0.54086006865E+00 -0.79905140583E+02  0.80164789984E+02  0.17770000000E+01 0.  1.
</event>
<event>
 6    1  0.1108180E-002  0.1860400E+03  0.7546771E-02  0.1065671E+00
        -11   -1    0    0    0    0  0.00000000000E+00  0.00000000000E+00  0.18250000000E+03  0.18250000000E+03  0.00000000000E+00 0.  1.
         11   -1    0    0    0    0 -0.00000000000E+00 -0.00000000000E+00 -0.18250000000E+03  0.18250000000E+03  0.00000000000E+00 0.  1.
        -11    1    1    2    0    0 -0.17078768314E+01 -0.33001212331E+01  0.17892140704E+03  0.17895998866E+03  0.00000000000E+00 0.  1.
         11    1    1    2    0    0  0.75261195957E+01  0.63089480082E+00 -0.15062934525E+03  0.15081856701E+03  0.00000000000E+00 0.  1.
        -15    1    1    2    0    0 -0.10969483345E+02  0.17753459238E+01 -0.27409094829E+02  0.29629337258E+02  0.17770000000E+01 0.  1.
         15    1    1    2    0    0  0.51512405804E+01  0.89388050847E+00 -0.88296696285E+00  0.55921070750E+01  0.17770000000E+01 0. -1.
</event>
<event>
 6    1  0.1108180E-002  0.1836701E+03  0.7546771E-02  0.1067527E+00
        -11   -1    0    0    0    0  0.00000000000E+00  0.00000000000E+00  0.18250000000E+03  0.18250000000E+03  0.00000000000E+00 0. -1.
         11   -1    0    0    0    0 -0.00000000000E+00 -0.00000000000E+00 -0.18250000000E+03  0.18250000000E+03  0.00000000000E+00 0. -1.
        -11    1    1    2    0    0  0.45119799000E+00  0.34808030312E+00  0.17615966616E+02  0.17625181399E+02  0.00000000000E+00 0. -1.
         11    1    1    2    0    0  0.61593420308E+01  0.92484600513E+01 -0.18098907558E+03  0.18132985685E+03  0.00000000000E+00 0. -1.
        -15    1    1    2    0    0  0.19074376154E+01 -0.73793258392E+01  0.14825371728E+03  0.14846014679E+03  0.17770000000E+01 0. -1.
         15    1    1    2    0    0 -0.85179776362E+01 -0.22172145152E+01  0.15119391683E+02  0.17584814958E+02  0.17770000000E+01 0.  1.
</event>
<event>
 6    1  0.1108180E-002  0.1832430E+03  0.7546771E-02  0.1067865E+00
        -11   -1    0    0    0    0  0.00000000000E+00  0.00000000000E+00  0.18250000000E+03  0.18250000000E+03  0.00000000000E+00 0.  1.
         11   -1    0    0    0    0 -0.00000000000E+00 -0.00000000000E+00 -0.18250000000E+03  0.18250000000E+03  0.00000000000E+00 0.  1.
        -11    1    1    2    0    0 -0.35292227767E+01  0.65817482836E+01  0.18160349809E+03  0.18175699531E+03  0.00000000000E+00 0.  1.
         11    1    1    2    0    0  0.27179791855E+01  0.15740368060E+01 -0.14789628683E+03  0.14792963416E+03  0.00000000000E+00 0.  1.
        -15    1    1    2    0    0 -0.71080772736E+00 -0.10295780407E+01 -0.30065367299E+01  0.37097534521E+01  0.17770000000E+01 0.  1.
         15    1    1    2    0    0  0.15220513185E+01 -0.71262070489E+01 -0.30700674531E+02  0.31603617084E+02  0.17770000000E+01 0.  1.
</event>
<event>
 6    1  0.1108180E-002  0.1841296E+03  0.7546771E-02  0.1067165E+00
        -11   -1    0    0    0    0  0.00000000000E+00  0.00000000000E+00  0.18250000000E+03  0.18250000000E+03  0.00000000000E+00 0. -1.
         11   -1    0    0    0    0 -0.00000000000E+00 -0.00000000000E+00 -0.18250000000E+03  0.18250000000E+03  0.00000000000E+00 0.  1.
        -11    1    1    2    0    0 -0.46850798509E+01  0.15925169904E+00  0.16560258456E+03  0.16566892089E+03  0.00000000000E+00 0. -1.
         11    1    1    2    0    0  0.49019820942E+00 -0.24076140949E+01 -0.18085367213E+03  0.18087036137E+03  0.00000000000E+00 0.  1.
        -15    1    1    2    0    0 -0.25324529167E+00 -0.16728446449E+01  0.10141387668E+02  0.10433983669E+02  0.17770000000E+01 0. -1.
         15    1    1    2    0    0  0.44481269332E+01  0.39212070407E+01  0.51096998951E+01  0.80267340736E+01  0.17770000000E+01 0.  1.
</event>
<event>
 6    1  0.1108180E-002  0.1899192E+03  0.7546771E-02  0.1062698E+00
        -11   -1    0    0    0    0  0.00000000000E+00  0.00000000000E+00  0.18250000000E+03  0.18250000000E+03  0.00000000000E+00 0. -1.
         11   -1    0    0    0    0 -0.00000000000E+00 -0.00000000000E+00 -0.18250000000E+03  0.18250000000E+03  0.00000000000E+00 0. -1.
        -11    1    1    2    0    0 -0.46678341807E+01 -0.96112249453E+00  0.14543249376E+03  0.14551055863E+03  0.00000000000E+00 0. -1.
         11    1    1    2    0    0  0.68711786076E+01  0.39522672785E+01 -0.17490121984E+03  0.17508075340E+03  0.00000000000E+00 0. -1.
        -15    1    1    2    0    0 -0.45201951984E+01  0.44220515245E+01  0.34411344752E+02  0.35032628805E+02  0.17770000000E+01 0.  1.
         15    1    1    2    0    0  0.23168507715E+01 -0.74131963085E+01 -0.49426186765E+01  0.93760591608E+01  0.17770000000E+01 0. -1.
</event>
<event>
 6    1  0.1108180E-002  0.1548378E+03  0.7546771E-02  0.1092891E+00
        -11   -1    0    0    0    0  0.00000000000E+00  0.00000000000E+00  0.18250000000E+03  0.18250000000E+03  0.00000000000E+00 0. -1.
         11   -1    0    0    0    0 -0.00000000000E+00 -0.00000000000E+00 -0.18250000000E+03  0.18250000000E+03  0.00000000000E+00 0.  1.
        -11    1    1    2    0    0  0.50717464556E+01 -0.89355029055E+01  0.15352976858E+03  0.15387318046E+03  0.00000000000E+00 0. -1.
         11    1    1    2    0    0  0.20553489803E+01  0.10401742334E+01 -0.15597773794E+03  0.15599474721E+03  0.00000000000E+00 0.  1.
        -15    1    1    2    0    0 -0.10023283934E+01 -0.18655933876E+01 -0.25082485430E+02  0.25234379430E+02  0.17770000000E+01 0. -1.
         15    1    1    2    0    0 -0.61247670425E+01  0.97609220597E+01  0.27530454794E+02  0.29897692903E+02  0.17770000000E+01 0.  1.
</event>
<event>
 6    1  0.1108180E-002  0.1849109E+03  0.7546771E-02  0.1066552E+00
        -11   -1    0    0    0    0  0.00000000000E+00  0.00000000000E+00  0.18250000000E+03  0.18250000000E+03  0.00000000000E+00 0. -1.
         11   -1    0    0    0    0 -0.00000000000E+00 -0.00000000000E+00 -0.18250000000E+03  0.18250000000E+03  0.00000000000E+00 0.  1.
        -11    1    1    2    0    0 -0.13755881141E+01 -0.55612734842E+01  0.17999797146E+03  0.18008911609E+03  0.00000000000E+00 0. -1.
         11    1    1    2    0    0 -0.99912595345E+00 -0.25723218597E+01 -0.16351799874E+03  0.16354128227E+03  0.00000000000E+00 0.  1.
        -15    1    1    2    0    0 -0.19800359650E-01  0.90546088774E+01 -0.75904696122E+01  0.11948191993E+02  0.17770000000E+01 0.  1.
         15    1    1    2    0    0  0.23945144272E+01 -0.92101353359E+00 -0.88895031052E+01  0.94214096466E+01  0.17770000000E+01 0.  1.
</event>
<event>
 6    1  0.1108180E-002  0.1830166E+03  0.7546771E-02  0.1068044E+00
        -11   -1    0    0    0    0  0.00000000000E+00  0.00000000000E+00  0.18250000000E+03  0.18250000000E+03  0.00000000000E+00 0.  1.
         11   -1    0    0    0    0 -0.00000000000E+00 -0.00000000000E+00 -0.18250000000E+03  0.18250000000E+03  0.00000000000E+00 0.  1.
        -11    1    1    2    0    0  0.52098932754E+01  0.98811145588E+01  0.18164024719E+03  0.18198340257E+03  0.00000000000E+00 0.  1.
         11    1    1    2    0    0  0.45138162939E+00  0.37504085015E+00 -0.16223085540E+02  0.16233696605E+02  0.00000000000E+00 0.  1.
        -15    1    1    2    0    0  0.40044171594E+01  0.21680089904E+01 -0.57766008993E+02  0.57972451593E+02  0.17770000000E+01 0. -1.
         15    1    1    2    0    0 -0.96656920642E+01 -0.12424164399E+02 -0.10765115266E+03  0.10881044923E+03  0.17770000000E+01 0.  1.
</event>
<event>
 6    1  0.1108180E-002  0.1902665E+03  0.7546771E-02  0.1062435E+00
        -11   -1    0    0    0    0  0.00000000000E+00  0.00000000000E+00  0.18250000000E+03  0.18250000000E+03  0.00000000000E+00 0. -1.
         11   -1    0    0    0    0 -0.00000000000E+00 -0.00000000000E+00 -0.18250000000E+03  0.18250000000E+03  0.00000000000E+00 0.  1.
        -11    1    1    2    0    0 -0.79239053107E+01 -0.21096037195E+01  0.17454098050E+03  0.17473349014E+03  0.00000000000E+00 0. -1.
         11    1    1    2    0    0 -0.56999217737E+01 -0.56564633024E+00 -0.14367417503E+03  0.14378830841E+03  0.00000000000E+00 0.  1.
        -15    1    1    2    0    0  0.57062138371E+01 -0.12259692289E+01 -0.35728605224E+02  0.36245756127E+02  0.17770000000E+01 0. -1.
         15    1    1    2    0    0  0.79176132473E+01  0.39012192786E+01  0.48617997578E+01  0.10232445323E+02  0.17770000000E+01 0.  1.
</event>
<event>
 6    1  0.1108180E-002  0.1837874E+03  0.7546771E-02  0.1067435E+00
        -11   -1    0    0    0    0  0.00000000000E+00  0.00000000000E+00  0.18250000000E+03  0.18250000000E+03  0.00000000000E+00 0. -1.
         11   -1    0    0    0    0 -0.00000000000E+00 -0.00000000000E+00 -0.18250000000E+03  0.18250000000E+03  0.00000000000E+00 0.  1.
        -11    1    1    2    0    0  0.32845609250E+01 -0.22244712526E+01  0.18116922309E+03  0.18121264858E+03  0.00000000000E+00 0. -1.
         11    1    1    2    0    0  0.30335042888E+01  0.71435065569E+00 -0.14596777534E+03  0.14600104069E+03  0.00000000000E+00 0.  1.
        -15    1    1    2    0    0  0.20749431565E+01  0.39622043489E+01 -0.12248970855E+02  0.13160526905E+02  0.17770000000E+01 0. -1.
         15    1    1    2    0    0 -0.83930083704E+01 -0.24520837520E+01 -0.22952476895E+02  0.24625783822E+02  0.17770000000E+01 0.  1.
</event>
<event>
 6    1  0.1108180E-002  0.1829324E+03  0.7546771E-02  0.1068111E+00
        -11   -1    0    0    0    0  0.00000000000E+00  0.00000000000E+00  0.18250000000E+03  0.18250000000E+03  0.00000000000E+00 0.  1.
         11   -1    0    0    0    0 -0.00000000000E+00 -0.00000000000E+00 -0.18250000000E+03  0.18250000000E+03  0.00000000000E+00 0.  1.
        -11    1    1    2    0    0  0.49658780647E+00 -0.24745332039E+01  0.18205011906E+03  0.18206761316E+03  0.00000000000E+00 0.  1.
         11    1    1    2    0    0  0.21380876420E+01  0.20342065905E+01 -0.10338560343E+03  0.10342771588E+03  0.00000000000E+00 0.  1.
        -15    1    1    2    0    0 -0.23387050453E+00  0.53426620079E+01 -0.45406556730E+02  0.45754910729E+02  0.17770000000E+01 0.  1.
         15    1    1    2    0    0 -0.24008049440E+01 -0.49023353946E+01 -0.33257958892E+02  0.33749760227E+02  0.17770000000E+01 0. -1.
</event>
<event>
 6    1  0.1108180E-002  0.1826992E+03  0.7546771E-02  0.1068296E+00
        -11   -1    0    0    0    0  0.00000000000E+00  0.00000000000E+00  0.18250000000E+03  0.18250000000E+03  0.00000000000E+00 0. -1.
         11   -1    0    0    0    0 -0.00000000000E+00 -0.00000000000E+00 -0.18250000000E+03  0.18250000000E+03  0.00000000000E+00 0.  1.
        -11    1    1    2    0    0 -0.12714865222E+01  0.28698824714E+01  0.18227373167E+03  0.18230075743E+03  0.00000000000E+00 0. -1.
         11    1    1    2    0    0 -0.17403740561E+01 -0.16475709803E+01 -0.11541674853E+03  0.11544162695E+03  0.00000000000E+00 0.  1.
        -15    1    1    2    0    0  0.20559955998E+01 -0.29870465745E+01 -0.25891694393E+02  0.26204715848E+02  0.17770000000E+01 0. -1.
         15    1    1    2    0    0  0.95586497849E+00  0.17647350834E+01 -0.40965288749E+02  0.41052899764E+02  0.17770000000E+01 0.  1.
</event>
<event>
 6    1  0.1108180E-002  0.1899861E+03  0.7546771E-02  0.1062647E+00
        -11   -1    0    0    0    0  0.00000000000E+00  0.00000000000E+00  0.18250000000E+03  0.18250000000E+03  0.00000000000E+00 0. -1.
         11   -1    0    0    0    0 -0.00000000000E+00 -0.00000000000E+00 -0.18250000000E+03  0.18250000000E+03  0.00000000000E+00 0. -1.
        -11    1    1    2    0    0 -0.94742841142E+00 -0.39202463523E+01  0.11414497012E+03  0.11421619918E+03  0.00000000000E+00 0. -1.
         11    1    1    2    0    0 -0.18016225914E+01  0.91939927210E+01 -0.17476292195E+03  0.17501386870E+03  0.00000000000E+00 0. -1.
        -15    1    1    2    0    0  0.22570879376E+02 -0.42269788505E+01  0.19906208130E+02  0.30442187785E+02  0.17770000000E+01 0.  1.
         15    1    1    2    0    0 -0.19821828373E+02 -0.10467675183E+01  0.40711743706E+02  0.45327744340E+02  0.17770000000E+01 0. -1.
</event>
<event>
 6    1  0.1108180E-002  0.1774835E+03  0.7546771E-02  0.1072520E+00
        -11   -1    0    0    0    0  0.00000000000E+00  0.00000000000E+00  0.18250000000E+03  0.18250000000E+03  0.00000000000E+00 0.  1.
         11   -1    0    0    0    0 -0.00000000000E+00 -0.00000000000E+00 -0.18250000000E+03  0.18250000000E+03  0.00000000000E+00 0. -1.
        -11    1    1    2    0    0  0.32997724752E+01 -0.13997579513E+00  0.17841003312E+03  0.17844060079E+03  0.00000000000E+00 0.  1.
         11    1    1    2    0    0 -0.29103415337E-01  0.36574598237E+01 -0.17652597063E+03  0.17656385861E+03  0.00000000000E+00 0. -1.
        -15    1    1    2    0    0  0.24341661027E+01 -0.48904787478E+00 -0.11248771462E+01  0.32538300560E+01  0.17770000000E+01 0. -1.
         15    1    1    2    0    0 -0.57048351626E+01 -0.30284361537E+01 -0.75918534064E+00  0.67417105508E+01  0.17770000000E+01 0.  1.
</event>
<event>
 6    1  0.1108180E-002  0.1909206E+03  0.7546771E-02  0.1061943E+00
        -11   -1    0    0    0    0  0.00000000000E+00  0.00000000000E+00  0.18250000000E+03  0.18250000000E+03  0.00000000000E+00 0. -1.
         11   -1    0    0    0    0 -0.00000000000E+00 -0.00000000000E+00 -0.18250000000E+03  0.18250000000E+03  0.00000000000E+00 0.  1.
        -11    1    1    2    0    0 -0.44815301089E+01  0.58724464625E+01  0.11152901044E+03  0.11177338641E+03  0.00000000000E+00 0. -1.
         11    1    1    2    0    0  0.17193968070E+01 -0.29355855071E+01 -0.17404619985E+03  0.17407944643E+03  0.00000000000E+00 0.  1.
        -15    1    1    2    0    0 -0.11197137845E+02  0.45355715543E+01 -0.22782488261E+01  0.12421572040E+02  0.17770000000E+01 0.  1.
         15    1    1    2    0    0  0.13959271146E+02 -0.74724325097E+01  0.64795438238E+02  0.66725595119E+02  0.17770000000E+01 0. -1.
</event>
<event>
 6    1  0.1108180E-002  0.1826170E+03  0.7546771E-02  0.1068362E+00
        -11   -1    0    0    0    0  0.00000000000E+00  0.00000000000E+00  0.18250000000E+03  0.18250000000E+03  0.00000000000E+00 0.  1.
         11   -1    0    0    0    0 -0.00000000000E+00 -0.00000000000E+00 -0.18250000000E+03  0.18250000000E+03  0.00000000000E+00 0.  1.
        -11    1    1    2    0    0  0.33776557085E+00 -0.60167250548E+00  0.31485324410E+02  0.31492884095E+02  0.00000000000E+00 0.  1.
         11    1    1    2    0    0  0.16939936493E+01 -0.48280901177E+01 -0.18231125862E+03  0.18238304496E+03  0.00000000000E+00 0.  1.
        -15    1    1    2    0    0  0.15830711485E+01  0.15083961974E+01  0.22599682590E+02  0.22774651601E+02  0.17770000000E+01 0. -1.
         15    1    1    2    0    0 -0.36148303686E+01  0.39213664258E+01  0.12822625162E+03  0.12834941935E+03  0.17770000000E+01 0.  1.
</event>
<event>
 6    1  0.1108180E-002  0.1892451E+03  0.7546771E-02  0.1063209E+00
        -11   -1    0    0    0    0  0.00000000000E+00  0.00000000000E+00  0.18250000000E+03  0.18250000000E+03  0.00000000000E+00 0.  1.
         11   -1    0    0    0    0 -0.00000000000E+00 -0.00000000000E+00 -0.18250000000E+03  0.18250000000E+03  0.00000000000E+00 0. -1.
        -11    1    1    2    0    0  0.36696562109E+01 -0.65681063412E-01  0.17087557235E+03  0.17091498447E+03  0.00000000000E+00 0.  1.
         11    1    1    2    0    0 -0.31303124571E+01 -0.21956043060E+01 -0.17571327367E+03  0.17575486928E+03  0.00000000000E+00 0. -1.
        -15    1    1    2    0    0 -0.26814988942E+01  0.33878521386E+01  0.10737731315E+02  0.11710020548E+02  0.17770000000E+01 0. -1.
         15    1    1    2    0    0  0.21421551404E+01 -0.11265667692E+01 -0.59000299962E+01  0.66201257003E+01  0.17770000000E+01 0. -1.
</event>
<event>
 6    1  0.1108180E-002  0.1852337E+03  0.7546771E-02  0.1066299E+00
        -11   -1    0    0    0    0  0.00000000000E+00  0.00000000000E+00  0.18250000000E+03  0.18250000000E+03  0.00000000000E+00 0. -1.
         11   -1    0    0    0    0 -0.00000000000E+00 -0.00000000000E+00 -0.18250000000E+03  0.18250000000E+03  0.00000000000E+00 0.  1.
        -11    1    1    2    0    0  0.15813010927E+01  0.31903133942E+01  0.15887875068E+03  0.15891864595E+03  0.00000000000E+00 0. -1.
         11    1    1    2    0    0  0.37061218861E+01  0.38495064757E+01 -0.17968685074E+03  0.17976628818E+03  0.00000000000E+00 0.  1.
        -15    1    1    2    0    0  0.35108205115E+00 -0.49201601134E+00  0.16300792845E+02  0.16408501294E+02  0.17770000000E+01 0. -1.
         15    1    1    2    0    0 -0.56385050300E+01 -0.65478038586E+01  0.45073072178E+01  0.99065645760E+01  0.17770000000E+01 0.  1.
</event>
<event>
 6    1  0.1677216E-002  0.1129467E+03  0.7546771E-02  0.1143137E+00
        -11   -1    0    0    0    0  0.00000000000E+00  0.00000000000E+00  0.18250000000E+03  0.18250000000E+03  0.00000000000E+00 0.  1.
         11   -1    0    0    0    0 -0.00000000000E+00 -0.00000000000E+00 -0.18250000000E+03  0.18250000000E+03  0.00000000000E+00 0. -1.
        -11    1    1    2    0    0  0.40963835833E+01  0.58459060736E+01  0.12923738116E+03  0.12943436818E+03  0.00000000000E+00 0.  1.
         11    1    1    2    0    0  0.30362408182E+01  0.90382967827E+01 -0.83873107055E+02  0.84413314436E+02  0.00000000000E+00 0. -1.
        -15    1    1    2    0    0 -0.67663163325E+01 -0.12737934955E+02 -0.97683026588E+02  0.98758136050E+02  0.17770000000E+01 0. -1.
         15    1    1    2    0    0 -0.36630806900E+00 -0.21462679013E+01  0.52318752481E+02  0.52394181334E+02  0.17770000000E+01 0.  1.
</event>
<event>
 6    1  0.1108180E-002  0.1827934E+03  0.7546771E-02  0.1068221E+00
        -11   -1    0    0    0    0  0.00000000000E+00  0.00000000000E+00  0.18250000000E+03  0.18250000000E+03  0.00000000000E+00 0. -1.
         11   -1    0    0    0    0 -0.00000000000E+00 -0.00000000000E+00 -0.18250000000E+03  0.18250000000E+03  0.00000000000E+00 0. -1.
        -11    1    1    2    0    0 -0.24212930223E+01  0.16999587168E+01  0.18218254941E+03  0.18220656912E+03  0.00000000000E+00 0. -1.
         11    1    1    2    0    0 -0.11858376215E+01 -0.19201686917E+01 -0.13937128661E+03  0.13938955768E+03  0.00000000000E+00 0. -1.
        -15    1    1    2    0    0  0.38384787032E+00 -0.72889302122E+00 -0.29377189475E+02  0.29442411835E+02  0.17770000000E+01 0. -1.
         15    1    1    2    0    0  0.32232827735E+01  0.94910299612E+00 -0.13434073328E+02  0.13961461368E+02  0.17770000000E+01 0.  1.
</event>
<event>
 6    1  0.1108180E-002  0.1491846E+03  0.7546771E-02  0.1098579E+00
        -11   -1    0    0    0    0  0.00000000000E+00  0.00000000000E+00  0.18250000000E+03  0.18250000000E+03  0.00000000000E+00 0.  1.
         11   -1    0    0    0    0 -0.00000000000E+00 -0.00000000000E+00 -0.18250000000E+03  0.18250000000E+03  0.00000000000E+00 0.  1.
        -11    1    1    2    0    0  0.11048904625E+01  0.71872440610E+01  0.15202204049E+03  0.15219585426E+03  0.00000000000E+00 0.  1.
         11    1    1    2    0    0 -0.21719967766E+02  0.12501064630E+02 -0.14546091059E+03  0.14760389604E+03  0.00000000000E+00 0.  1.
        -15    1    1    2    0    0  0.22805374677E+01 -0.58182282532E+01  0.25159209137E+02  0.25984537027E+02  0.17770000000E+01 0. -1.
         15    1    1    2    0    0  0.18334539836E+02 -0.13870080438E+02 -0.31720339038E+02  0.39215712668E+02  0.17770000000E+01 0.  1.
</event>
<event>
 6    1  0.1108180E-002  0.1885559E+03  0.7546771E-02  0.1063734E+00
        -11   -1    0    0    0    0  0.00000000000E+00  0.00000000000E+00  0.18250000000E+03  0.18250000000E+03  0.00000000000E+00 0.  1.
         11   -1    0    0    0    0 -0.00000000000E+00 -0.00000000000E+00 -0.18250000000E+03  0.18250000000E+03  0.00000000000E+00 0.  1.
        -11    1    1    2    0    0  0.11477736119E+02  0.33707215437E+01  0.15798722387E+03  0.15843946193E+03  0.00000000000E+00 0.  1.
         11    1    1    2    0    0  0.15460368344E+01  0.32349446046E+01 -0.17640766498E+03  0.17644409698E+03  0.00000000000E+00 0.  1.
        -15    1    1    2    0    0 -0.49486375559E+01 -0.22144320612E+01  0.19842989175E+02  0.20646904645E+02  0.17770000000E+01 0.  1.
         15    1    1    2    0    0 -0.80751353979E+01 -0.43912340871E+01 -0.14225480612E+01  0.94695364453E+01  0.17770000000E+01 0. -1.
</event>
<event>
 6    1  0.1108180E-002  0.1857562E+03  0.7546771E-02  0.1065892E+00
        -11   -1    0    0    0    0  0.00000000000E+00  0.00000000000E+00  0.18250000000E+03  0.18250000000E+03  0.00000000000E+00 0. -1.
         11   -1    0    0    0    0 -0.00000000000E+00 -0.00000000000E+00 -0.18250000000E+03  0.18250000000E+03  0.00000000000E+00 0.  1.
        -11    1    1    2    0    0  0.34459199808E+01 -0.22167141493E+01  0.15894420288E+03  0.15899700568E+03  0.00000000000E+00 0. -1.
         11    1    1    2    0    0  0.54194117312E+01 -0.76040677510E+00 -0.17916022067E+03  0.17924378068E+03  0.00000000000E+00 0.  1.
        -15    1    1    2    0    0  0.31928658600E+00  0.53117085620E+01  0.16647930917E+01  0.58519617915E+01  0.17770000000E+01 0. -1.
         15    1    1    2    0    0 -0.91846182980E+01 -0.23345876376E+01  0.18551224704E+02  0.20907251845E+02  0.17770000000E+01 0.  1.
</event>
<event>
 6    1  0.1108180E-002  0.1835685E+03  0.7546771E-02  0.1067607E+00
        -11   -1    0    0    0    0  0.00000000000E+00  0.00000000000E+00  0.18250000000E+03  0.18250000000E+03  0.00000000000E+00 0.  1.
         11   -1    0    0    0    0 -0.00000000000E+00 -0.00000000000E+00 -0.18250000000E+03  0.18250000000E+03  0.00000000000E+00 0.  1.
        -11    1    1    2    0    0  0.35130685007E-02  0.22585561619E+01  0.16747102493E+03  0.16748625400E+03  0.00000000000E+00 0.  1.
         11    1    1    2    0    0 -0.39964705928E+01  0.21754999790E+01 -0.18137442819E+03  0.18143149611E+03  0.00000000000E+00 0.  1.
        -15    1    1    2    0    0  0.56260121375E+00 -0.24812654103E+01  0.28580422899E+01  0.42189255614E+01  0.17770000000E+01 0.  1.
         15    1    1    2    0    0  0.34303563106E+01 -0.19527907305E+01  0.11045360974E+02  0.11863324328E+02  0.17770000000E+01 0. -1.
</event>
<event>
 6    1  0.1108180E-002  0.1840205E+03  0.7546771E-02  0.1067251E+00
        -11   -1    0    0    0    0  0.00000000000E+00  0.00000000000E+00  0.18250000000E+03  0.18250000000E+03  0.00000000000E+00 0. -1.
         11   -1    0    0    0    0 -0.00000000000E+00 -0.00000000000E+00 -0.18250000000E+03  0.18250000000E+03  0.00000000000E+00 0.  1.
        -11    1    1    2    0    0 -0.12214296755E+01 -0.31851601600E+01  0.18094738063E+03  0.18097953390E+03  0.00000000000E+00 0. -1.
         11    1    1    2    0    0 -0.32202616679E+01  0.34127138131E+01 -0.17229611189E+03  0.17235999209E+03  0.00000000000E+00 0.  1.
        -15    1    1    2    0    0  0.45312788249E+01  0.17278317187E+01 -0.54468815897E+01  0.75062732623E+01  0.17770000000E+01 0. -1.
         15    1    1    2    0    0 -0.89587481457E-01 -0.19553853718E+01 -0.32043871458E+01  0.41542007473E+01  0.17770000000E+01 0.  1.
</event>
<event>
 6    1  0.1108180E-002  0.2230045E+03  0.7546771E-02  0.1040124E+00
        -11   -1    0    0    0    0  0.00000000000E+00  0.00000000000E+00  0.18250000000E+03  0.18250000000E+03  0.00000000000E+00 0. -1.
         11   -1    0    0    0    0 -0.00000000000E+00 -0.00000000000E+00 -0.18250000000E+03  0.18250000000E+03  0.00000000000E+00 0. -1.
        -11    1    1    2    0    0 -0.25177870847E+01  0.30381314597E+01  0.14194066879E+03  0.14199550328E+03  0.00000000000E+00 0. -1.
         11    1    1    2    0    0  0.13855815547E+02  0.44467438075E+01 -0.10103118900E+03  0.10207378853E+03  0.00000000000E+00 0. -1.
        -15    1    1    2    0    0 -0.15638894381E+02 -0.47100391399E+01 -0.79896925688E+02  0.81568596590E+02  0.17770000000E+01 0.  1.
         15    1    1    2    0    0  0.43008659186E+01 -0.27748361274E+01  0.38987445893E+02  0.39362111598E+02  0.17770000000E+01 0. -1.
</event>
<event>
 6    1  0.1108180E-002  0.1645932E+03  0.7546771E-02  0.1083675E+00
        -11   -1    0    0    0    0  0.00000000000E+00  0.00000000000E+00  0.18250000000E+03  0.18250000000E+03  0.00000000000E+00 0. -1.
         11   -1    0    0    0    0 -0.00000000000E+00 -0.00000000000E+00 -0.18250000000E+03  0.18250000000E+03  0.00000000000E+00 0. -1.
        -11    1    1    2    0    0 -0.45183060031E+00  0.28937510750E+01  0.16407601854E+03  0.16410215662E+03  0.00000000000E+00 0. -1.
         11    1    1    2    0    0  0.23915156331E+02 -0.12202610763E+02 -0.16386571350E+03  0.16605062623E+03  0.00000000000E+00 0. -1.
        -15    1    1    2    0    0 -0.69657636573E+00 -0.16890760728E+01  0.78473915405E+01  0.82509078047E+01  0.17770000000E+01 0.  1.
         15    1    1    2    0    0 -0.22766749365E+02  0.10997935760E+02 -0.80576965827E+01  0.26596309346E+02  0.17770000000E+01 0.  1.
</event>
<event>
 6    1  0.1108180E-002  0.1843385E+03  0.7546771E-02  0.1067001E+00
        -11   -1    0    0    0    0  0.00000000000E+00  0.00000000000E+00  0.18250000000E+03  0.18250000000E+03  0.00000000000E+00 0. -1.
         11   -1    0    0    0    0 -0.00000000000E+00 -0.00000000000E+00 -0.18250000000E+03  0.18250000000E+03  0.00000000000E+00 0. -1.
        -11    1    1    2    0    0  0.34506572749E+01 -0.10318669934E+01  0.18062563647E+03  0.18066154083E+03  0.00000000000E+00 0. -1.
         11    1    1    2    0    0 -0.20531174756E+01  0.11356091417E+01 -0.15282905108E+03  0.15284706001E+03  0.00000000000E+00 0. -1.
        -15    1    1    2    0    0 -0.36867299074E+01  0.55505883045E+01 -0.21365966027E+02  0.22451352770E+02  0.17770000000E+01 0. -1.
         15    1    1    2    0    0  0.22891901080E+01 -0.56543304528E+01 -0.64306193627E+01  0.90400463831E+01  0.17770000000E+01 0.  1.
</event>
<event>
 6    1  0.1108180E-002  0.1830260E+03  0.7546771E-02  0.1068037E+00
        -11   -1    0    0    0    0  0.00000000000E+00  0.00000000000E+00  0.18250000000E+03  0.18250000000E+03  0.00000000000E+00 0.  1.
         11   -1    0    0    0    0 -0.00000000000E+00 -0.00000000000E+00 -0.18250000000E+03  0.18250000000E+03  0.00000000000E+00 0. -1.
        -11    1    1    2    0    0 -0.93051790883E+00  0.19083958273E+01  0.14372633940E+03  0.14374202057E+03  0.00000000000E+00 0.  1.
         11    1    1    2    0    0 -0.26242646169E+01 -0.13922278020E+01 -0.18194978381E+03  0.18197403357E+03  0.00000000000E+00 0. -1.
        -15    1    1    2    0    0 -0.89060581326E+00 -0.16273702230E+01  0.25740378804E+02  0.25868249700E+02  0.17770000000E+01 0.  1.
         15    1    1    2    0    0  0.44453883390E+01  0.11112021977E+01  0.12483065602E+02  0.13415696167E+02  0.17770000000E+01 0.  1.
</event>
<event>
 6    1  0.1108180E-002  0.1846874E+03  0.7546771E-02  0.1066727E+00
        -11   -1    0    0    0    0  0.00000000000E+00  0.00000000000E+00  0.18250000000E+03  0.18250000000E+03  0.00000000000E+00 0. -1.
         11   -1    0    0    0    0 -0.00000000000E+00 -0.00000000000E+00 -0.18250000000E+03  0.18250000000E+03  0.00000000000E+00 0. -1.
        -11    1    1    2    0    0  0.33098858659E+01 -0.56458899046E+01  0.18019374544E+03  0.18031255450E+03  0.00000000000E+00 0. -1.
         11    1    1    2    0    0  0.23642795191E+01 -0.13443977223E+01 -0.16085274635E+03  0.16087573848E+03  0.00000000000E+00 0. -1.
        -15    1    1    2    0    0 -0.75039428458E+01  0.49725792303E+01 -0.18169439390E+02  0.20354900127E+02  0.17770000000E+01 0.  1.
         15    1    1    2    0    0  0.18297774608E+01  0.20177083966E+01 -0.11715596919E+01  0.34568068852E+01  0.17770000000E+01 0. -1.
</event>
<event>
 6    1  0.1108180E-002  0.1836455E+03  0.7546771E-02  0.1067547E+00
        -11   -1    0    0    0    0  0.00000000000E+00  0.00000000000E+00  0.18250000000E+03  0.18250000000E+03  0.00000000000E+00 0. -1.
         11   -1    0    0    0    0 -0.00000000000E+00 -0.00000000000E+00 -0.18250000000E+03  0.18250000000E+03  0.00000000000E+00 0.  1.
        -11    1    1    2    0    0  0.82799481881E+01  0.53353330274E+01  0.18108678122E+03  0.18135447514E+03  0.00000000000E+00 0. -1.
         11    1    1    2    0    0  0.20977285185E+01  0.34760756270E-01 -0.13261654953E+03  0.13263314398E+03  0.00000000000E+00 0.  1.
        -15    1    1    2    0    0 -0.85841240662E+01 -0.36116372952E+01 -0.17617646700E+02  0.20006756713E+02  0.17770000000E+01 0. -1.
         15    1    1    2    0    0 -0.17935526404E+01 -0.17584564884E+01 -0.30852584987E+02  0.31005624162E+02  0.17770000000E+01 0.  1.
</event>
<event>
 6    1  0.1108180E-002  0.1830251E+03  0.7546771E-02  0.1068038E+00
        -11   -1    0    0    0    0  0.00000000000E+00  0.00000000000E+00  0.18250000000E+03  0.18250000000E+03  0.00000000000E+00 0.  1.
         11   -1    0    0    0    0 -0.00000000000E+00 -0.00000000000E+00 -0.18250000000E+03  0.18250000000E+03  0.00000000000E+00 0.  1.
        -11    1    1    2    0    0 -0.52447453874E+00  0.44781334910E+01  0.18191905911E+03  0.18197492360E+03  0.00000000000E+00 0.  1.
         11    1    1    2    0    0  0.10584449451E+01  0.13102618544E+01 -0.11935793826E+03  0.11936982248E+03  0.00000000000E+00 0.  1.
        -15    1    1    2    0    0 -0.95362876192E+00 -0.62436885112E+01 -0.19922878455E+02  0.20975506406E+02  0.17770000000E+01 0.  1.
         15    1    1    2    0    0  0.41965835555E+00  0.45529316576E+00 -0.42638242388E+02  0.42679747515E+02  0.17770000000E+01 0.  1.
</event>
<event>
 6    1  0.1108180E-002  0.1835622E+03  0.7546771E-02  0.1067612E+00
        -11   -1    0    0    0    0  0.00000000000E+00  0.00000000000E+00  0.18250000000E+03  0.18250000000E+03  0.00000000000E+00 0. -1.
         11   -1    0    0    0    0 -0.00000000000E+00 -0.00000000000E+00 -0.18250000000E+03  0.18250000000E+03  0.00000000000E+00 0.  1.
        -11    1    1    2    0    0 -0.27856999530E+01  0.10758118074E+01  0.16115268805E+03  0.16118035352E+03  0.00000000000E+00 0. -1.
         11    1    1    2    0    0  0.13585083820E+01  0.27016473554E+01 -0.18141257640E+03  0.18143777809E+03  0.00000000000E+00 0.  1.
        -15    1    1    2    0    0  0.89131930885E+00 -0.27544008810E+01  0.19953418874E+02  0.20240499699E+02  0.17770000000E+01 0. -1.
         15    1    1    2    0    0  0.53587226214E+00 -0.10230582818E+01  0.30646947630E+00  0.21413686906E+01  0.17770000000E+01 0.  1.
</event>
<event>
 6    1  0.1108180E-002  0.1682714E+03  0.7546771E-02  0.1080381E+00
        -11   -1    0    0    0    0  0.00000000000E+00  0.00000000000E+00  0.18250000000E+03  0.18250000000E+03  0.00000000000E+00 0. -1.
         11   -1    0    0    0    0 -0.00000000000E+00 -0.00000000000E+00 -0.18250000000E+03  0.18250000000E+03  0.00000000000E+00 0. -1.
        -11    1    1    2    0    0 -0.11106476425E+01  0.57626021866E+01  0.17080911681E+03  0.17090990465E+03  0.00000000000E+00 0. -1.
         11    1    1    2    0    0 -0.13285012086E+01  0.30478235109E+01 -0.16576161320E+03  0.16579495334E+03  0.00000000000E+00 0. -1.
        -15    1    1    2    0    0  0.70562433037E+01 -0.57750012144E+01 -0.14489528111E+02  0.17211779759E+02  0.17770000000E+01 0.  1.
         15    1    1    2    0    0 -0.46170944527E+01 -0.30354244831E+01  0.94420244990E+01  0.11083362243E+02  0.17770000000E+01 0. -1.
</event>
<event>
 6    1  0.1108180E-002  0.1832519E+03  0.7546771E-02  0.1067858E+00
        -11   -1    0    0    0    0  0.00000000000E+00  0.00000000000E+00  0.18250000000E+03  0.18250000000E+03  0.00000000000E+00 0. -1.
         11   -1    0    0    0    0 -0.00000000000E+00 -0.00000000000E+00 -0.18250000000E+03  0.18250000000E+03  0.00000000000E+00 0.  1.
        -11    1    1    2    0    0  0.21111043853E+01  0.28803408027E+01  0.17167047264E+03  0.17170761282E+03  0.00000000000E+00 0. -1.
         11    1    1    2    0    0 -0.25879843528E+01 -0.20491221882E+01 -0.18171811999E+03  0.18174809957E+03  0.00000000000E+00 0.  1.
        -15    1    1    2    0    0  0.15497789956E+01  0.84969508687E+00  0.25086089079E+01  0.35460744956E+01  0.17770000000E+01 0. -1.
         15    1    1    2    0    0 -0.10728990281E+01 -0.16809137014E+01  0.75390384449E+01  0.79982131048E+01  0.17770000000E+01 0. -1.
</event>
<event>
 6    1  0.1108180E-002  0.1738842E+03  0.7546771E-02  0.1075528E+00
        -11   -1    0    0    0    0  0.00000000000E+00  0.00000000000E+00  0.18250000000E+03  0.18250000000E+03  0.00000000000E+00 0.  1.
         11   -1    0    0    0    0 -0.00000000000E+00 -0.00000000000E+00 -0.18250000000E+03  0.18250000000E+03  0.00000000000E+00 0. -1.
        -11    1    1    2    0    0  0.30813399469E+01  0.99928366702E-01  0.17385486258E+03  0.17388219542E+03  0.00000000000E+00 0.  1.
         11    1    1    2    0    0 -0.31436390469E+01 -0.64064684967E+00 -0.17385713069E+03  0.17388672976E+03  0.00000000000E+00 0. -1.
        -15    1    1    2    0    0  0.40564907774E+01  0.62761600083E+00 -0.73924645543E+01  0.86403287239E+01  0.17770000000E+01 0.  1.
         15    1    1    2    0    0 -0.39941916774E+01 -0.86897517863E-01  0.73947326648E+01  0.85907460979E+01  0.17770000000E+01 0.  1.
</event>
<event>
 6    1  0.1108180E-002  0.1865551E+03  0.7546771E-02  0.1065272E+00
        -11   -1    0    0    0    0  0.00000000000E+00  0.00000000000E+00  0.18250000000E+03  0.18250000000E+03  0.00000000000E+00 0.  1.
         11   -1    0    0    0    0 -0.00000000000E+00 -0.00000000000E+00 -0.18250000000E+03  0.18250000000E+03  0.00000000000E+00 0. -1.
        -11    1    1    2    0    0  0.83116995516E+00 -0.28909460999E+01  0.17841952280E+03  0.17844487812E+03  0.00000000000E+00 0.  1.
         11    1    1    2    0    0  0.33838139137E+01 -0.39973775391E+01 -0.11223328930E+03  0.11235542021E+03  0.00000000000E+00 0. -1.
        -15    1    1    2    0    0  0.72320715476E-01 -0.30725611671E+01 -0.62512001652E+02  0.62612729871E+02  0.17770000000E+01 0. -1.
         15    1    1    2    0    0 -0.42873045843E+01  0.99608848062E+01 -0.36742318468E+01  0.11586971795E+02  0.17770000000E+01 0. -1.
</event>
<event>
 6    1  0.1108180E-002  0.1855168E+03  0.7546771E-02  0.1066078E+00
        -11   -1    0    0    0    0  0.00000000000E+00  0.00000000000E+00  0.18250000000E+03  0.18250000000E+03  0.00000000000E+00 0.  1.
         11   -1    0    0    0    0 -0.00000000000E+00 -0.00000000000E+00 -0.18250000000E+03  0.18250000000E+03  0.00000000000E+00 0. -1.
        -11    1    1    2    0    0 -0.22588491693E+01 -0.20949733245E+01  0.17945672210E+03  0.17948316473E+03  0.00000000000E+00 0.  1.
         11    1    1    2    0    0 -0.18121516771E+01  0.31300577825E+01 -0.15624469391E+03  0.15628654942E+03  0.00000000000E+00 0. -1.
        -15    1    1    2    0    0  0.71702494310E+01 -0.64260148171E+01 -0.19380357276E+02  0.21713178498E+02  0.17770000000E+01 0.  1.
         15    1    1    2    0    0 -0.30992485846E+01  0.53909303591E+01 -0.38316709199E+01  0.75171073535E+01  0.17770000000E+01 0. -1.
</event>
<event>
 6    1  0.1108180E-002  0.1834029E+03  0.7546771E-02  0.1067738E+00
        -11   -1    0    0    0    0  0.00000000000E+00  0.00000000000E+00  0.18250000000E+03  0.18250000000E+03  0.00000000000E+00 0.  1.
         11   -1    0    0    0    0 -0.00000000000E+00 -0.00000000000E+00 -0.18250000000E+03  0.18250000000E+03  0.00000000000E+00 0. -1.
        -11    1    1    2    0    0 -0.60233153700E+01 -0.25319493627E+01  0.12735113060E+03  0.12751863221E+03  0.00000000000E+00 0.  1.
         11    1    1    2    0    0  0.18878218604E+01  0.42473914166E+01 -0.18153759856E+03  0.18159709220E+03  0.00000000000E+00 0. -1.
        -15    1    1    2    0    0  0.38827723863E+01  0.34275186789E+01  0.43940370608E+02  0.44280217974E+02  0.17770000000E+01 0. -1.
         15    1    1    2    0    0  0.25272112326E+00 -0.51429607327E+01  0.10246097352E+02  0.11604057610E+02  0.17770000000E+01 0.  1.
</event>
<event>
 6    1  0.1108180E-002  0.1889632E+03  0.7546771E-02  0.1063423E+00
        -11   -1    0    0    0    0  0.00000000000E+00  0.00000000000E+00  0.18250000000E+03  0.18250000000E+03  0.00000000000E+00 0. -1.
         11   -1    0    0    0    0 -0.00000000000E+00 -0.00000000000E+00 -0.18250000000E+03  0.18250000000E+03  0.00000000000E+00 0.  1.
        -11    1    1    2    0    0  0.11997482095E+02 -0.97797762584E+01  0.17535495209E+03  0.17603676554E+03  0.00000000000E+00 0. -1.
         11    1    1    2    0    0 -0.19502172913E+01  0.11823413152E+01 -0.42755541876E+02  0.42816324452E+02  0.00000000000E+00 0.  1.
        -15    1    1    2    0    0 -0.11851339711E+02  0.17794896016E+02 -0.10881463066E+02  0.24055696719E+02  0.17770000000E+01 0. -1.
         15    1    1    2    0    0  0.18040749075E+01 -0.91974610732E+01 -0.12171794714E+03  0.12209121329E+03  0.17770000000E+01 0.  1.
</event>
<event>
 6    1  0.1108180E-002  0.1916734E+03  0.7546771E-02  0.1061379E+00
        -11   -1    0    0    0    0  0.00000000000E+00  0.00000000000E+00  0.18250000000E+03  0.18250000000E+03  0.00000000000E+00 0. -1.
         11   -1    0    0    0    0 -0.00000000000E+00 -0.00000000000E+00 -0.18250000000E+03  0.18250000000E+03  0.00000000000E+00 0. -1.
        -11    1    1    2    0    0  0.53280745114E+01  0.17203843016E+01  0.16587367794E+03  0.16596814493E+03  0.00000000000E+00 0. -1.
         11    1    1    2    0    0 -0.78351746807E+01 -0.43304966974E+00 -0.17314883027E+03  0.17332655572E+03  0.00000000000E+00 0. -1.
        -15    1    1    2    0    0 -0.68878736229E+01  0.59245191558E+01  0.97834146694E+01  0.13469063140E+02  0.17770000000E+01 0.  1.
         15    1    1    2    0    0  0.93949737922E+01 -0.72118537877E+01 -0.25082623395E+01  0.12236236210E+02  0.17770000000E+01 0. -1.
</event>
<event>
 6    1  0.1273718E-002  0.1660578E+03  0.7546771E-02  0.1082352E+00
        -11   -1    0    0    0    0  0.00000000000E+00  0.00000000000E+00  0.18250000000E+03  0.18250000000E+03  0.00000000000E+00 0.  1.
         11   -1    0    0    0    0 -0.00000000000E+00 -0.00000000000E+00 -0.18250000000E+03  0.18250000000E+03  0.00000000000E+00 0. -1.
        -11    1    1    2    0    0 -0.82512206928E+00  0.28478674004E+01  0.16465746470E+03  0.16468415788E+03  0.00000000000E+00 0.  1.
         11    1    1    2    0    0  0.68027774801E+01  0.14058630652E+02 -0.16719694608E+03  0.16792480953E+03  0.00000000000E+00 0. -1.
        -15    1    1    2    0    0 -0.90153964350E+01 -0.18199648332E+02 -0.74615364785E+01  0.21710293132E+02  0.17770000000E+01 0.  1.
         15    1    1    2    0    0  0.30377410242E+01  0.12931502788E+01  0.10001017861E+02  0.10680739460E+02  0.17770000000E+01 0.  1.
</event>
<event>
 6    1  0.1108180E-002  0.1835539E+03  0.7546771E-02  0.1067619E+00
        -11   -1    0    0    0    0  0.00000000000E+00  0.00000000000E+00  0.18250000000E+03  0.18250000000E+03  0.00000000000E+00 0. -1.
         11   -1    0    0    0    0 -0.00000000000E+00 -0.00000000000E+00 -0.18250000000E+03  0.18250000000E+03  0.00000000000E+00 0.  1.
        -11    1    1    2    0    0  0.16616062198E+01  0.18566421999E+01  0.14079917325E+03  0.14082121731E+03  0.00000000000E+00 0. -1.
         11    1    1    2    0    0 -0.60410415274E+01  0.64216980206E+01 -0.18123179442E+03  0.18144612340E+03  0.00000000000E+00 0.  1.
        -15    1    1    2    0    0  0.47768491573E+01 -0.10701874007E+01  0.86899696986E+01  0.10130986690E+02  0.17770000000E+01 0.  1.
         15    1    1    2    0    0 -0.39741384978E+00 -0.72081528198E+01  0.31742651472E+02  0.32601672600E+02  0.17770000000E+01 0. -1.
</event>
<event>
 6    1  0.1108180E-002  0.1826709E+03  0.7546771E-02  0.1068319E+00
        -11   -1    0    0    0    0  0.00000000000E+00  0.00000000000E+00  0.18250000000E+03  0.18250000000E+03  0.00000000000E+00 0.  1.
         11   -1    0    0    0    0 -0.00000000000E+00 -0.00000000000E+00 -0.18250000000E+03  0.18250000000E+03  0.00000000000E+00 0. -1.
        -11    1    1    2    0    0  0.32349034449E+01  0.17659259271E+01  0.18229189318E+03  0.18232914581E+03  0.00000000000E+00 0.  1.
         11    1    1    2    0    0  0.48299951844E+00  0.14519856221E+01 -0.10327729620E+03  0.10328863181E+03  0.00000000000E+00 0. -1.
        -15    1    1    2    0    0 -0.12149932338E+01 -0.37205679528E+01 -0.54867338856E+02  0.55035456177E+02  0.17770000000E+01 0. -1.
         15    1    1    2    0    0 -0.25029097295E+01  0.50265640368E+00 -0.24147258119E+02  0.24346766197E+02  0.17770000000E+01 0.  1.
</event>
<event>
 6    1  0.1108180E-002  0.1833926E+03  0.7546771E-02  0.1067747E+00
        -11   -1    0    0    0    0  0.00000000000E+00  0.00000000000E+00  0.18250000000E+03  0.18250000000E+03  0.00000000000E+00 0. -1.
         11   -1    0    0    0    0 -0.00000000000E+00 -0.00000000000E+00 -0.18250000000E+03  0.18250000000E+03  0.00000000000E+00 0. -1.
        -11    1    1    2    0    0 -0.72169938203E+01  0.90185664521E+00  0.76372989749E+02  0.76718523894E+02  0.00000000000E+00 0. -1.
         11    1    1    2    0    0 -0.38957993379E+01 -0.22689571193E+01 -0.18155142969E+03  0.18160739810E+03  0.00000000000E+00 0. -1.
        -15    1    1    2    0    0  0.86970094959E+01  0.49976415988E+01  0.93915489819E+02  0.94466350372E+02  0.17770000000E+01 0. -1.
         15    1    1    2    0    0  0.24157836623E+01 -0.36305411248E+01  0.11262950126E+02  0.12207727639E+02  0.17770000000E+01 0.  1.
</event>
<event>
 6    1  0.1108180E-002  0.1857620E+03  0.7546771E-02  0.1065888E+00
        -11   -1    0    0    0    0  0.00000000000E+00  0.00000000000E+00  0.18250000000E+03  0.18250000000E+03  0.00000000000E+00 0. -1.
         11   -1    0    0    0    0 -0.00000000000E+00 -0.00000000000E+00 -0.18250000000E+03  0.18250000000E+03  0.00000000000E+00 0.  1.
        -11    1    1    2    0    0  0.20552165943E+01  0.31159875374E+01  0.17919912780E+03  0.17923800015E+03  0.00000000000E+00 0. -1.
         11    1    1    2    0    0  0.22469999871E+01 -0.31070955068E+01 -0.17281622293E+03  0.17285875725E+03  0.00000000000E+00 0.  1.
        -15    1    1    2    0    0 -0.22461179370E+01  0.45548812108E+01 -0.12650359252E+01  0.55272084747E+01  0.17770000000E+01 0.  1.
         15    1    1    2    0    0 -0.20560986444E+01 -0.45637732414E+01 -0.51178689444E+01  0.73760341219E+01  0.17770000000E+01 0. -1.
</event>
<event>
 6    1  0.1108180E-002  0.1846041E+03  0.7546771E-02  0.1066792E+00
        -11   -1    0    0    0    0  0.00000000000E+00  0.00000000000E+00  0.18250000000E+03  0.18250000000E+03  0.00000000000E+00 0.  1.
         11   -1    0    0    0    0 -0.00000000000E+00 -0.00000000000E+00 -0.18250000000E+03  0.18250000000E+03  0.00000000000E+00 0.  1.
        -11    1    1    2    0    0 -0.21569845416E+01 -0.89699456606E+00  0.13954909715E+03  0.13956864869E+03  0.00000000000E+00 0.  1.
         11    1    1    2    0    0  0.77359178016E+01 -0.85546860277E+01 -0.18002680728E+03  0.18039589357E+03  0.00000000000E+00 0.  1.
        -15    1    1    2    0    0  0.47040619887E+01  0.53132336685E+01  0.24052842456E+02  0.25140716188E+02  0.17770000000E+01 0.  1.
         15    1    1    2    0    0 -0.10282995249E+02  0.41384469253E+01  0.16424867671E+02  0.19894741548E+02  0.17770000000E+01 0. -1.
</event>
<event>
 6    1  0.1108180E-002  0.1846520E+03  0.7546771E-02  0.1066755E+00
        -11   -1    0    0    0    0  0.00000000000E+00  0.00000000000E+00  0.18250000000E+03  0.18250000000E+03  0.00000000000E+00 0. -1.
         11   -1    0    0    0    0 -0.00000000000E+00 -0.00000000000E+00 -0.18250000000E+03  0.18250000000E+03  0.00000000000E+00 0.  1.
        -11    1    1    2    0    0  0.37429758716E-01  0.32704023471E+01  0.85216149925E+02  0.85278890357E+02  0.00000000000E+00 0. -1.
         11    1    1    2    0    0  0.22548779330E+01  0.18731439376E+01 -0.18032414189E+03  0.18034796725E+03  0.00000000000E+00 0.  1.
        -15    1    1    2    0    0  0.43383273061E+01 -0.11295546602E+01  0.89530035801E+02  0.89659812720E+02  0.17770000000E+01 0. -1.
         15    1    1    2    0    0 -0.66306349978E+01 -0.40139916245E+01  0.55779561686E+01  0.97133296688E+01  0.17770000000E+01 0.  1.
</event>
<event>
 6    1  0.1108180E-002  0.1826371E+03  0.7546771E-02  0.1068346E+00
        -11   -1    0    0    0    0  0.00000000000E+00  0.00000000000E+00  0.18250000000E+03  0.18250000000E+03  0.00000000000E+00 0. -1.
         11   -1    0    0    0    0 -0.00000000000E+00 -0.00000000000E+00 -0.18250000000E+03  0.18250000000E+03  0.00000000000E+00 0. -1.
        -11    1    1    2    0    0  0.40153767955E+01  0.61250255574E+01  0.18221575533E+03  0.18236288186E+03  0.00000000000E+00 0. -1.
         11    1    1    2    0    0  0.95186594995E+00 -0.62408755105E+00 -0.11854961026E+02  0.11909476688E+02  0.00000000000E+00 0. -1.
        -15    1    1    2    0    0  0.47585235984E+00  0.10358496463E+01 -0.54763490289E+02  0.54804169710E+02  0.17770000000E+01 0. -1.
         15    1    1    2    0    0 -0.54430951053E+01 -0.65367876527E+01 -0.11559730401E+03  0.11592347175E+03  0.17770000000E+01 0. -1.
</event>
<event>
 6    1  0.1108180E-002  0.1876751E+03  0.7546771E-02  0.1064408E+00
        -11   -1    0    0    0    0  0.00000000000E+00  0.00000000000E+00  0.18250000000E+03  0.18250000000E+03  0.00000000000E+00 0. -1.
         11   -1    0    0    0    0 -0.00000000000E+00 -0.00000000000E+00 -0.18250000000E+03  0.18250000000E+03  0.00000000000E+00 0.  1.
        -11    1    1    2    0    0  0.78180643119E+01 -0.28166646952E+01  0.11060194173E+03  0.11091368375E+03  0.00000000000E+00 0. -1.
         11    1    1    2    0    0  0.58775638345E+01 -0.16956748899E+00 -0.17722739612E+03  0.17732491208E+03  0.00000000000E+00 0.  1.
        -15    1    1    2    0    0 -0.10878315829E+02  0.24229249037E+01  0.13131558106E+01  0.11361796845E+02  0.17770000000E+01 0. -1.
         15    1    1    2    0    0 -0.28173123176E+01  0.56330728045E+00  0.65312298576E+02  0.65399607324E+02  0.17770000000E+01 0.  1.
</event>
<event>
 6    1  0.1108180E-002  0.1852258E+03  0.7546771E-02  0.1066306E+00
        -11   -1    0    0    0    0  0.00000000000E+00  0.00000000000E+00  0.18250000000E+03  0.18250000000E+03  0.00000000000E+00 0. -1.
         11   -1    0    0    0    0 -0.00000000000E+00 -0.00000000000E+00 -0.18250000000E+03  0.18250000000E+03  0.00000000000E+00 0. -1.
        -11    1    1    2    0    0  0.23138866019E+01 -0.40241714286E+01  0.15957109245E+03  0.15963859675E+03  0.00000000000E+00 0. -1.
         11    1    1    2    0    0 -0.23850631835E+01 -0.30575356300E+01 -0.17973236500E+03  0.17977419192E+03  0.00000000000E+00 0. -1.
        -15    1    1    2    0    0  0.29495541592E+01 -0.12244487537E+01  0.14963887219E+00  0.36577678003E+01  0.17770000000E+01 0.  1.
         15    1    1    2    0    0 -0.28783775776E+01  0.83061558123E+01  0.20011633679E+02  0.21929443526E+02  0.17770000000E+01 0. -1.
</event>
<event>
 6    1  0.1108180E-002  0.1849167E+03  0.7546771E-02  0.1066547E+00
        -11   -1    0    0    0    0  0.00000000000E+00  0.00000000000E+00  0.18250000000E+03  0.18250000000E+03  0.00000000000E+00 0. -1.
         11   -1    0    0    0    0 -0.00000000000E+00 -0.00000000000E+00 -0.18250000000E+03  0.18250000000E+03  0.00000000000E+00 0. -1.
        -11    1    1    2    0    0  0.82592885835E+00 -0.23434819626E+01  0.15133649303E+03  0.15135689013E+03  0.00000000000E+00 0. -1.
         11    1    1    2    0    0 -0.13143736535E+01  0.45571964424E+01 -0.18002081828E+03  0.18008328804E+03  0.00000000000E+00 0. -1.
        -15    1    1    2    0    0 -0.54192296031E+01 -0.64138216124E+00  0.26042009775E+02  0.26666897507E+02  0.17770000000E+01 0. -1.
         15    1    1    2    0    0  0.59076743983E+01 -0.15723323186E+01  0.26423154673E+01  0.68929243246E+01  0.17770000000E+01 0.  1.
</event>
<event>
 6    1  0.1108180E-002  0.1830843E+03  0.7546771E-02  0.1067991E+00
        -11   -1    0    0    0    0  0.00000000000E+00  0.00000000000E+00  0.18250000000E+03  0.18250000000E+03  0.00000000000E+00 0. -1.
         11   -1    0    0    0    0 -0.00000000000E+00 -0.00000000000E+00 -0.18250000000E+03  0.18250000000E+03  0.00000000000E+00 0. -1.
        -11    1    1    2    0    0 -0.12880175945E+02 -0.12188829592E+01  0.18145504394E+03  0.18191568811E+03  0.00000000000E+00 0. -1.
         11    1    1    2    0    0  0.30320653600E+00  0.27252111635E+01 -0.53377007237E+02  0.53447391065E+02  0.00000000000E+00 0. -1.
        -15    1    1    2    0    0  0.38457305957E+01 -0.21162040267E+01 -0.10126334396E+03  0.10137401305E+03  0.17770000000E+01 0. -1.
         15    1    1    2    0    0  0.87312388135E+01  0.60987582246E+00 -0.26814692750E+02  0.28262907777E+02  0.17770000000E+01 0.  1.
</event>
<event>
 6    1  0.1108180E-002  0.1776879E+03  0.7546771E-02  0.1072351E+00
        -11   -1    0    0    0    0  0.00000000000E+00  0.00000000000E+00  0.18250000000E+03  0.18250000000E+03  0.00000000000E+00 0.  1.
         11   -1    0    0    0    0 -0.00000000000E+00 -0.00000000000E+00 -0.18250000000E+03  0.18250000000E+03  0.00000000000E+00 0.  1.
        -11    1    1    2    0    0 -0.95844218225E-01 -0.40631194297E+01  0.17782077312E+03  0.17786721306E+03  0.00000000000E+00 0.  1.
         11    1    1    2    0    0  0.17514318413E+01  0.23809559381E+01 -0.17749200160E+03  0.17751661076E+03  0.00000000000E+00 0.  1.
        -15    1    1    2    0    0 -0.91579432705E+00 -0.17018372471E+01 -0.36518627366E+01  0.44976393488E+01  0.17770000000E+01 0. -1.
         15    1    1    2    0    0 -0.73979329602E+00  0.33840007387E+01  0.33230912120E+01  0.51185368342E+01  0.17770000000E+01 0. -1.
</event>
<event>
 6    1  0.1108180E-002  0.1724790E+03  0.7546771E-02  0.1076724E+00
        -11   -1    0    0    0    0  0.00000000000E+00  0.00000000000E+00  0.18250000000E+03  0.18250000000E+03  0.00000000000E+00 0.  1.
         11   -1    0    0    0    0 -0.00000000000E+00 -0.00000000000E+00 -0.18250000000E+03  0.18250000000E+03  0.00000000000E+00 0.  1.
        -11    1    1    2    0    0  0.73675624233E+00  0.40882296059E+01  0.17241508602E+03  0.17246512204E+03  0.00000000000E+00 0.  1.
         11    1    1    2    0    0 -0.22086673852E+01 -0.38210572618E+01 -0.17243955554E+03  0.17249602605E+03  0.00000000000E+00 0.  1.
        -15    1    1    2    0    0  0.33040913599E+01 -0.33779075253E+01  0.89346528874E+01  0.10262213708E+02  0.17770000000E+01 0.  1.
         15    1    1    2    0    0 -0.18321802171E+01  0.31107351813E+01 -0.89101833764E+01  0.97766382012E+01  0.17770000000E+01 0.  1.
</event>
<event>
 6    1  0.1308490E-002  0.1631510E+03  0.7546771E-02  0.1084993E+00
        -11   -1    0    0    0    0  0.00000000000E+00  0.00000000000E+00  0.18250000000E+03  0.18250000000E+03  0.00000000000E+00 0.  1.
         11   -1    0    0    0    0 -0.00000000000E+00 -0.00000000000E+00 -0.18250000000E+03  0.18250000000E+03  0.00000000000E+00 0.  1.
        -11    1    1    2    0    0  0.15069424911E+01  0.24860624462E+01  0.16482441600E+03  0.16485005154E+03  0.00000000000E+00 0.  1.
         11    1    1    2    0    0 -0.52760894442E+00  0.97256093865E+01 -0.16140619014E+03  0.16169979612E+03  0.00000000000E+00 0.  1.
        -15    1    1    2    0    0 -0.21523943986E+01 -0.13778150277E+02 -0.18445638221E+02  0.23192014252E+02  0.17770000000E+01 0.  1.
         15    1    1    2    0    0  0.11730608519E+01  0.15664784439E+01  0.15027412366E+02  0.15258138088E+02  0.17770000000E+01 0. -1.
</event>
<event>
 6    1  0.1108180E-002  0.1827063E+03  0.7546771E-02  0.1068291E+00
        -11   -1    0    0    0    0  0.00000000000E+00  0.00000000000E+00  0.18250000000E+03  0.18250000000E+03  0.00000000000E+00 0.  1.
         11   -1    0    0    0    0 -0.00000000000E+00 -0.00000000000E+00 -0.18250000000E+03  0.18250000000E+03  0.00000000000E+00 0. -1.
        -11    1    1    2    0    0 -0.38449438192E+00  0.12766072918E+01  0.63960507942E+02  0.63974402211E+02  0.00000000000E+00 0.  1.
         11    1    1    2    0    0 -0.25966558844E+01  0.45633804870E+00 -0.18227464250E+03  0.18229370851E+03  0.00000000000E+00 0. -1.
        -15    1    1    2    0    0 -0.84085700525E+00 -0.14053228943E+01  0.95425869310E+02  0.95456462513E+02  0.17770000000E+01 0.  1.
         15    1    1    2    0    0  0.38220072716E+01 -0.32762244620E+00  0.22888265245E+02  0.23275426762E+02  0.17770000000E+01 0.  1.
</event>
<event>
 6    1  0.1108180E-002  0.1839119E+03  0.7546771E-02  0.1067336E+00
        -11   -1    0    0    0    0  0.00000000000E+00  0.00000000000E+00  0.18250000000E+03  0.18250000000E+03  0.00000000000E+00 0.  1.
         11   -1    0    0    0    0 -0.00000000000E+00 -0.00000000000E+00 -0.18250000000E+03  0.18250000000E+03  0.00000000000E+00 0. -1.
        -11    1    1    2    0    0  0.33601565783E+01 -0.53710581542E+00  0.16165543039E+03  0.16169124067E+03  0.00000000000E+00 0.  1.
         11    1    1    2    0    0 -0.66347366084E+00  0.52066367369E+01 -0.18101199692E+03  0.18108807882E+03  0.00000000000E+00 0. -1.
        -15    1    1    2    0    0  0.59999366639E+00 -0.36426651798E+01  0.22407791147E+01  0.46698845867E+01  0.17770000000E+01 0. -1.
         15    1    1    2    0    0 -0.32966765838E+01 -0.10268657416E+01  0.17115787413E+02  0.17550795922E+02  0.17770000000E+01 0.  1.
</event>
<event>
 6    1  0.1108180E-002  0.1839284E+03  0.7546771E-02  0.1067323E+00
        -11   -1    0    0    0    0  0.00000000000E+00  0.00000000000E+00  0.18250000000E+03  0.18250000000E+03  0.00000000000E+00 0.  1.
         11   -1    0    0    0    0 -0.00000000000E+00 -0.00000000000E+00 -0.18250000000E+03  0.18250000000E+03  0.00000000000E+00 0.  1.
        -11    1    1    2    0    0 -0.10039479739E+01 -0.31110157931E+00  0.62750300029E+02  0.62759101726E+02  0.00000000000E+00 0.  1.
         11    1    1    2    0    0  0.42536956375E+01  0.95158876463E+01 -0.18077132914E+03  0.18107158662E+03  0.00000000000E+00 0.  1.
        -15    1    1    2    0    0 -0.59714450838E+01 -0.13110322639E+02  0.11332364344E+03  0.11424948406E+03  0.17770000000E+01 0.  1.
         15    1    1    2    0    0  0.27216974202E+01  0.39055365715E+01  0.46973856645E+01  0.69198275874E+01  0.17770000000E+01 0.  1.
</event>
<event>
 6    1  0.1108180E-002  0.1830203E+03  0.7546771E-02  0.1068041E+00
        -11   -1    0    0    0    0  0.00000000000E+00  0.00000000000E+00  0.18250000000E+03  0.18250000000E+03  0.00000000000E+00 0.  1.
         11   -1    0    0    0    0 -0.00000000000E+00 -0.00000000000E+00 -0.18250000000E+03  0.18250000000E+03  0.00000000000E+00 0.  1.
        -11    1    1    2    0    0  0.32766250490E+01  0.13932199316E+00  0.18195009985E+03  0.18197965413E+03  0.00000000000E+00 0.  1.
         11    1    1    2    0    0  0.25072931681E+01 -0.10231934388E+01 -0.13480799048E+03  0.13483518733E+03  0.00000000000E+00 0.  1.
        -15    1    1    2    0    0 -0.42809925491E+01  0.16928731591E+01 -0.12255559785E+02  0.13211706604E+02  0.17770000000E+01 0.  1.
         15    1    1    2    0    0 -0.15029256680E+01 -0.80900171354E+00 -0.34886549588E+02  0.34973451938E+02  0.17770000000E+01 0.  1.
</event>
<event>
 6    1  0.1108180E-002  0.1825849E+03  0.7546771E-02  0.1068387E+00
        -11   -1    0    0    0    0  0.00000000000E+00  0.00000000000E+00  0.18250000000E+03  0.18250000000E+03  0.00000000000E+00 0. -1.
         11   -1    0    0    0    0 -0.00000000000E+00 -0.00000000000E+00 -0.18250000000E+03  0.18250000000E+03  0.00000000000E+00 0.  1.
        -11    1    1    2    0    0  0.29637878518E+00 -0.98024482442E+00  0.36751940269E+02  0.36766205051E+02  0.00000000000E+00 0. -1.
         11    1    1    2    0    0  0.13170940909E+01  0.35958308323E+01 -0.18237486727E+03  0.18241506776E+03  0.00000000000E+00 0.  1.
        -15    1    1    2    0    0  0.39837373994E+00 -0.39104987454E+01  0.10389019013E+03  0.10397970973E+03  0.17770000000E+01 0. -1.
         15    1    1    2    0    0 -0.20118466161E+01  0.12949127375E+01  0.41732736872E+02  0.41839017456E+02  0.17770000000E+01 0.  1.
</event>
<event>
 6    1  0.1108180E-002  0.1854430E+03  0.7546771E-02  0.1066136E+00
        -11   -1    0    0    0    0  0.00000000000E+00  0.00000000000E+00  0.18250000000E+03  0.18250000000E+03  0.00000000000E+00 0.  1.
         11   -1    0    0    0    0 -0.00000000000E+00 -0.00000000000E+00 -0.18250000000E+03  0.18250000000E+03  0.00000000000E+00 0. -1.
        -11    1    1    2    0    0  0.53707917278E+01 -0.15348488414E-01  0.16737238630E+03  0.16745853617E+03  0.00000000000E+00 0.  1.
         11    1    1    2    0    0 -0.56201505593E+00  0.56437112052E+01 -0.17946742059E+03  0.17955701711E+03  0.00000000000E+00 0. -1.
        -15    1    1    2    0    0 -0.55707426726E+01 -0.64648459319E+01  0.39477642327E+01  0.95692203593E+01  0.17770000000E+01 0.  1.
         15    1    1    2    0    0  0.76196600081E+00  0.83648321513E+00  0.81472700574E+01  0.84152263632E+01  0.17770000000E+01 0.  1.
</event>
<event>
 6    1  0.1108180E-002  0.1873450E+03  0.7546771E-02  0.1064662E+00
        -11   -1    0    0    0    0  0.00000000000E+00  0.00000000000E+00  0.18250000000E+03  0.18250000000E+03  0.00000000000E+00 0. -1.
         11   -1    0    0    0    0 -0.00000000000E+00 -0.00000000000E+00 -0.18250000000E+03  0.18250000000E+03  0.00000000000E+00 0.  1.
        -11    1    1    2    0    0  0.13606824034E+02  0.25305254911E+01  0.17711512159E+03  0.17765504641E+03  0.00000000000E+00 0. -1.
         11    1    1    2    0    0  0.28832665196E+01 -0.55435695299E+01 -0.71367498069E+02  0.71640520445E+02  0.00000000000E+00 0.  1.
        -15    1    1    2    0    0  0.41954204955E+01  0.35176013089E+01 -0.88559654927E+02  0.88746522647E+02  0.17770000000E+01 0. -1.
         15    1    1    2    0    0 -0.20685511050E+02 -0.50455727009E+00 -0.17187968589E+02  0.26957910502E+02  0.17770000000E+01 0.  1.
</event>
<event>
 6    1  0.1108180E-002  0.1830756E+03  0.7546771E-02  0.1067998E+00
        -11   -1    0    0    0    0  0.00000000000E+00  0.00000000000E+00  0.18250000000E+03  0.18250000000E+03  0.00000000000E+00 0.  1.
         11   -1    0    0    0    0 -0.00000000000E+00 -0.00000000000E+00 -0.18250000000E+03  0.18250000000E+03  0.00000000000E+00 0.  1.
        -11    1    1    2    0    0 -0.95932612791E+00  0.15275401211E+01  0.81298703039E+02  0.81318711261E+02  0.00000000000E+00 0.  1.
         11    1    1    2    0    0  0.56110011981E+01  0.38953049693E+00 -0.18183739632E+03  0.18192436277E+03  0.00000000000E+00 0.  1.
        -15    1    1    2    0    0  0.63790621071E+00 -0.19716023156E+00  0.86901351692E+02  0.86922082645E+02  0.17770000000E+01 0.  1.
         15    1    1    2    0    0 -0.52895812809E+01 -0.17199103865E+01  0.13637341589E+02  0.14834843325E+02  0.17770000000E+01 0. -1.
</event>
<event>
 6    1  0.1108180E-002  0.1829721E+03  0.7546771E-02  0.1068080E+00
        -11   -1    0    0    0    0  0.00000000000E+00  0.00000000000E+00  0.18250000000E+03  0.18250000000E+03  0.00000000000E+00 0.  1.
         11   -1    0    0    0    0 -0.00000000000E+00 -0.00000000000E+00 -0.18250000000E+03  0.18250000000E+03  0.00000000000E+00 0.  1.
        -11    1    1    2    0    0  0.15225483337E+01 -0.29412756082E+01  0.13373447343E+03  0.13377547847E+03  0.00000000000E+00 0.  1.
         11    1    1    2    0    0  0.36580206075E+01  0.35277369815E+01 -0.18195698536E+03  0.18202793897E+03  0.00000000000E+00 0.  1.
        -15    1    1    2    0    0 -0.82599327476E+00  0.27277547689E+01  0.26995247652E+02  0.27203382800E+02  0.17770000000E+01 0. -1.
         15    1    1    2    0    0 -0.43545756664E+01 -0.33142161422E+01  0.21227264282E+02  0.21993199762E+02  0.17770000000E+01 0.  1.
</event>
<event>
 6    1  0.1108180E-002  0.1911134E+03  0.7546771E-02  0.1061798E+00
        -11   -1    0    0    0    0  0.00000000000E+00  0.00000000000E+00  0.18250000000E+03  0.18250000000E+03  0.00000000000E+00 0.  1.
         11   -1    0    0    0    0 -0.00000000000E+00 -0.00000000000E+00 -0.18250000000E+03  0.18250000000E+03  0.00000000000E+00 0. -1.
        -11    1    1    2    0    0 -0.53033152171E+01 -0.12786854480E+02  0.13878040964E+03  0.13946910375E+03  0.00000000000E+00 0.  1.
         11    1    1    2    0    0 -0.37044648355E+01  0.31216317168E+01 -0.17381906270E+03  0.17388655555E+03  0.00000000000E+00 0. -1.
        -15    1    1    2    0    0 -0.86305394538E-01 -0.65750656260E+01 -0.43229351007E+01  0.80674923918E+01  0.17770000000E+01 0.  1.
         15    1    1    2    0    0  0.90940854472E+01  0.16240288389E+02  0.39361588156E+02  0.43576848306E+02  0.17770000000E+01 0. -1.
</event>
<event>
 6    1  0.1108180E-002  0.1857820E+03  0.7546771E-02  0.1065872E+00
        -11   -1    0    0    0    0  0.00000000000E+00  0.00000000000E+00  0.18250000000E+03  0.18250000000E+03  0.00000000000E+00 0. -1.
         11   -1    0    0    0    0 -0.00000000000E+00 -0.00000000000E+00 -0.18250000000E+03  0.18250000000E+03  0.00000000000E+00 0. -1.
        -11    1    1    2    0    0  0.28856953240E+01 -0.15763425934E+00  0.17919468682E+03  0.17921798981E+03  0.00000000000E+00 0. -1.
         11    1    1    2    0    0  0.12231301650E+02 -0.22614740436E+00 -0.12501886953E+03  0.12561597677E+03  0.00000000000E+00 0. -1.
        -15    1    1    2    0    0 -0.92659663767E+01 -0.10942517584E+01 -0.52901324083E+02  0.53747217031E+02  0.17770000000E+01 0. -1.
         15    1    1    2    0    0 -0.58510305972E+01  0.14780334221E+01 -0.12744932093E+01  0.64188163852E+01  0.17770000000E+01 0. -1.
</event>
<event>
 6    1  0.1108180E-002  0.1836567E+03  0.7546771E-02  0.1067538E+00
        -11   -1    0    0    0    0  0.00000000000E+00  0.00000000000E+00  0.18250000000E+03  0.18250000000E+03  0.00000000000E+00 0. -1.
         11   -1    0    0    0    0 -0.00000000000E+00 -0.00000000000E+00 -0.18250000000E+03  0.18250000000E+03  0.00000000000E+00 0. -1.
        -11    1    1    2    0    0  0.60661052278E+00  0.29474713322E+01  0.16722395616E+03  0.16725103012E+03  0.00000000000E+00 0. -1.
         11    1    1    2    0    0 -0.35428519679E+00  0.42249743868E+01 -0.18129372355E+03  0.18134329358E+03  0.00000000000E+00 0. -1.
        -15    1    1    2    0    0 -0.73543761949E+00 -0.17765552110E+01  0.32291931688E+01  0.41572147444E+01  0.17770000000E+01 0.  1.
         15    1    1    2    0    0  0.48311229350E+00 -0.53958905080E+01  0.10840574223E+02  0.12248461551E+02  0.17770000000E+01 0. -1.
</event>
<event>
 6    1  0.1108180E-002  0.1825877E+03  0.7546771E-02  0.1068385E+00
        -11   -1    0    0    0    0  0.00000000000E+00  0.00000000000E+00  0.18250000000E+03  0.18250000000E+03  0.00000000000E+00 0. -1.
         11   -1    0    0    0    0 -0.00000000000E+00 -0.00000000000E+00 -0.18250000000E+03  0.18250000000E+03  0.00000000000E+00 0.  1.
        -11    1    1    2    0    0  0.31937428705E+01 -0.43685726427E-01  0.18238432351E+03  0.18241228951E+03  0.00000000000E+00 0. -1.
         11    1    1    2    0    0 -0.73262474947E+00 -0.99955068903E+00 -0.14734413571E+02  0.14786439189E+02  0.00000000000E+00 0.  1.
        -15    1    1    2    0    0 -0.18322543926E+01  0.24596648662E+00 -0.23967005102E+02  0.24103790537E+02  0.17770000000E+01 0. -1.
         15    1    1    2    0    0 -0.62886372840E+00  0.79726992883E+00 -0.14368290483E+03  0.14369748077E+03  0.17770000000E+01 0.  1.
</event>
<event>
 6    1  0.1108180E-002  0.1858885E+03  0.7546771E-02  0.1065789E+00
        -11   -1    0    0    0    0  0.00000000000E+00  0.00000000000E+00  0.18250000000E+03  0.18250000000E+03  0.00000000000E+00 0. -1.
         11   -1    0    0    0    0 -0.00000000000E+00 -0.00000000000E+00 -0.18250000000E+03  0.18250000000E+03  0.00000000000E+00 0.  1.
        -11    1    1    2    0    0 -0.33159013461E+01 -0.26681325040E+01  0.17906090252E+03  0.17911147630E+03  0.00000000000E+00 0. -1.
         11    1    1    2    0    0  0.24380986767E+00 -0.25860047537E+01 -0.17414354476E+03  0.17416291524E+03  0.00000000000E+00 0.  1.
        -15    1    1    2    0    0  0.23134497562E+01  0.62238942529E+01 -0.61617852133E+01  0.92311556947E+01  0.17770000000E+01 0.  1.
         15    1    1    2    0    0  0.75864172218E+00 -0.96975699529E+00  0.12444274532E+01  0.24944527614E+01  0.17770000000E+01 0. -1.
</event>
<event>
 6    1  0.1108180E-002  0.1839048E+03  0.7546771E-02  0.1067342E+00
        -11   -1    0    0    0    0  0.00000000000E+00  0.00000000000E+00  0.18250000000E+03  0.18250000000E+03  0.00000000000E+00 0. -1.
         11   -1    0    0    0    0 -0.00000000000E+00 -0.00000000000E+00 -0.18250000000E+03  0.18250000000E+03  0.00000000000E+00 0. -1.
        -11    1    1    2    0    0 -0.16254678917E+01  0.55424273131E-01  0.10303396707E+03  0.10304680290E+03  0.00000000000E+00 0. -1.
         11    1    1    2    0    0  0.64552176750E+01  0.60725946127E+01 -0.18087825397E+03  0.18109524842E+03  0.00000000000E+00 0. -1.
        -15    1    1    2    0    0 -0.90035015009E+01 -0.72270248955E+01  0.22819248494E+02  0.25635302982E+02  0.17770000000E+01 0. -1.
         15    1    1    2    0    0  0.41737517177E+01  0.10990060096E+01  0.55025038410E+02  0.55222645705E+02  0.17770000000E+01 0. -1.
</event>
<event>
 6    1  0.1108180E-002  0.1833732E+03  0.7546771E-02  0.1067762E+00
        -11   -1    0    0    0    0  0.00000000000E+00  0.00000000000E+00  0.18250000000E+03  0.18250000000E+03  0.00000000000E+00 0. -1.
         11   -1    0    0    0    0 -0.00000000000E+00 -0.00000000000E+00 -0.18250000000E+03  0.18250000000E+03  0.00000000000E+00 0.  1.
        -11    1    1    2    0    0  0.26745088217E+01  0.10676385833E+01  0.17232555634E+03  0.17234961623E+03  0.00000000000E+00 0. -1.
         11    1    1    2    0    0 -0.31842659500E+01 -0.16534171259E+00 -0.18159879682E+03  0.18162678738E+03  0.00000000000E+00 0.  1.
        -15    1    1    2    0    0  0.14200449997E+01  0.61212984753E+00  0.77290941438E+01  0.80800901007E+01  0.17770000000E+01 0. -1.
         15    1    1    2    0    0 -0.91028787144E+00 -0.15144267183E+01  0.15441463436E+01  0.29435062807E+01  0.17770000000E+01 0.  1.
</event>
<event>
 6    1  0.1108180E-002  0.1847779E+03  0.7546771E-02  0.1066656E+00
        -11   -1    0    0    0    0  0.00000000000E+00  0.00000000000E+00  0.18250000000E+03  0.18250000000E+03  0.00000000000E+00 0. -1.
         11   -1    0    0    0    0 -0.00000000000E+00 -0.00000000000E+00 -0.18250000000E+03  0.18250000000E+03  0.00000000000E+00 0. -1.
        -11    1    1    2    0    0  0.35764592039E+01 -0.85215044646E+01  0.15707350859E+03  0.15734514356E+03  0.00000000000E+00 0. -1.
         11    1    1    2    0    0 -0.19697355034E+01 -0.14224332078E+01 -0.18020576858E+03  0.18022214682E+03  0.00000000000E+00 0. -1.
        -15    1    1    2    0    0 -0.22415062730E+01  0.11742928251E+02  0.18085640022E+02  0.21752443961E+02  0.17770000000E+01 0.  1.
         15    1    1    2    0    0  0.63478257258E+00 -0.17989905788E+01  0.50466199624E+01  0.56802656682E+01  0.17770000000E+01 0. -1.
</event>
<event>
 6    1  0.1108180E-002  0.1843968E+03  0.7546771E-02  0.1066955E+00
        -11   -1    0    0    0    0  0.00000000000E+00  0.00000000000E+00  0.18250000000E+03  0.18250000000E+03  0.00000000000E+00 0.  1.
         11   -1    0    0    0    0 -0.00000000000E+00 -0.00000000000E+00 -0.18250000000E+03  0.18250000000E+03  0.00000000000E+00 0. -1.
        -11    1    1    2    0    0  0.19626126972E+01  0.27848391854E+01  0.15309562700E+03  0.15313353057E+03  0.00000000000E+00 0.  1.
         11    1    1    2    0    0 -0.26604995422E+00  0.25680622909E+01 -0.18058478679E+03  0.18060324179E+03  0.00000000000E+00 0. -1.
        -15    1    1    2    0    0  0.32934593155E+01  0.16641164178E+01  0.25616646861E+01  0.48307362460E+01  0.17770000000E+01 0.  1.
         15    1    1    2    0    0 -0.49900220585E+01 -0.70170178941E+01  0.24927495100E+02  0.26432491393E+02  0.17770000000E+01 0. -1.
</event>
<event>
 6    1  0.1108180E-002  0.1832664E+03  0.7546771E-02  0.1067846E+00
        -11   -1    0    0    0    0  0.00000000000E+00  0.00000000000E+00  0.18250000000E+03  0.18250000000E+03  0.00000000000E+00 0. -1.
         11   -1    0    0    0    0 -0.00000000000E+00 -0.00000000000E+00 -0.18250000000E+03  0.18250000000E+03  0.00000000000E+00 0. -1.
        -11    1    1    2    0    0 -0.33833744556E+01 -0.26546882166E+01  0.18168268480E+03  0.18173357573E+03  0.00000000000E+00 0. -1.
         11    1    1    2    0    0  0.13700357549E+01 -0.12175191794E+01 -0.11179042180E+03  0.11180544600E+03  0.00000000000E+00 0. -1.
        -15    1    1    2    0    0 -0.14320023473E+01  0.64445095785E+00 -0.62303277640E+02  0.62348392774E+02  0.17770000000E+01 0. -1.
         15    1    1    2    0    0  0.34453410480E+01  0.32277564381E+01 -0.75889853605E+01  0.91125854928E+01  0.17770000000E+01 0.  1.
</event>
<event>
 6    1  0.1108180E-002  0.1833801E+03  0.7546771E-02  0.1067756E+00
        -11   -1    0    0    0    0  0.00000000000E+00  0.00000000000E+00  0.18250000000E+03  0.18250000000E+03  0.00000000000E+00 0. -1.
         11   -1    0    0    0    0 -0.00000000000E+00 -0.00000000000E+00 -0.18250000000E+03  0.18250000000E+03  0.00000000000E+00 0.  1.
        -11    1    1    2    0    0 -0.12400321014E+01 -0.36196359170E+01  0.18157956493E+03  0.18161987183E+03  0.00000000000E+00 0. -1.
         11    1    1    2    0    0  0.35504270893E+00 -0.23235866473E+01 -0.10325823822E+03  0.10328498860E+03  0.00000000000E+00 0.  1.
        -15    1    1    2    0    0  0.60003592242E+01  0.17452169919E+01 -0.14281177746E+02  0.15689482464E+02  0.17770000000E+01 0. -1.
         15    1    1    2    0    0 -0.51153698317E+01  0.41980055724E+01 -0.64040148959E+02  0.64405657104E+02  0.17770000000E+01 0.  1.
</event>
<event>
 6    1  0.1108180E-002  0.1839832E+03  0.7546771E-02  0.1067280E+00
        -11   -1    0    0    0    0  0.00000000000E+00  0.00000000000E+00  0.18250000000E+03  0.18250000000E+03  0.00000000000E+00 0.  1.
         11   -1    0    0    0    0 -0.00000000000E+00 -0.00000000000E+00 -0.18250000000E+03  0.18250000000E+03  0.00000000000E+00 0.  1.
        -11    1    1    2    0    0 -0.19540367221E+01 -0.29431247950E+01  0.80031336871E+02  0.80109269903E+02  0.00000000000E+00 0.  1.
         11    1    1    2    0    0 -0.35618487109E+01  0.10809250387E+02 -0.18065869797E+03  0.18101682743E+03  0.00000000000E+00 0.  1.
        -15    1    1    2    0    0 -0.21040928098E+01  0.76713675363E+01  0.38728117686E+02  0.39576532377E+02  0.17770000000E+01 0.  1.
         15    1    1    2    0    0  0.76199782428E+01 -0.15537493129E+02  0.61899243418E+02  0.64297370287E+02  0.17770000000E+01 0. -1.
</event>
<event>
 6    1  0.1108180E-002  0.1831971E+03  0.7546771E-02  0.1067901E+00
        -11   -1    0    0    0    0  0.00000000000E+00  0.00000000000E+00  0.18250000000E+03  0.18250000000E+03  0.00000000000E+00 0. -1.
         11   -1    0    0    0    0 -0.00000000000E+00 -0.00000000000E+00 -0.18250000000E+03  0.18250000000E+03  0.00000000000E+00 0.  1.
        -11    1    1    2    0    0 -0.42277866054E+01  0.89464098604E+00  0.18175150470E+03  0.18180287132E+03  0.00000000000E+00 0. -1.
         11    1    1    2    0    0 -0.10351646766E+00  0.16739287852E+01 -0.11395534473E+03  0.11396768553E+03  0.00000000000E+00 0.  1.
        -15    1    1    2    0    0  0.60320579529E+01  0.36845682260E+01 -0.36311440695E+02  0.37035661470E+02  0.17770000000E+01 0.  1.
         15    1    1    2    0    0 -0.17007548799E+01 -0.62531379972E+01 -0.31484719273E+02  0.32193781677E+02  0.17770000000E+01 0. -1.
</event>
<event>
 6    1  0.1108180E-002  0.1835131E+03  0.7546771E-02  0.1067651E+00
        -11   -1    0    0    0    0  0.00000000000E+00  0.00000000000E+00  0.18250000000E+03  0.18250000000E+03  0.00000000000E+00 0.  1.
         11   -1    0    0    0    0 -0.00000000000E+00 -0.00000000000E+00 -0.18250000000E+03  0.18250000000E+03  0.00000000000E+00 0. -1.
        -11    1    1    2    0    0 -0.23537571126E+01 -0.12938180007E+01  0.18146699869E+03  0.18148687488E+03  0.00000000000E+00 0.  1.
         11    1    1    2    0    0 -0.22940859595E+01  0.59649390114E+00 -0.16031103267E+03  0.16032855588E+03  0.00000000000E+00 0. -1.
        -15    1    1    2    0    0  0.10721358766E+01  0.24701981354E+01 -0.26654259314E+01  0.41849227665E+01  0.17770000000E+01 0.  1.
         15    1    1    2    0    0  0.35757071955E+01 -0.17728740358E+01 -0.18490540097E+02  0.18999646480E+02  0.17770000000E+01 0. -1.
</event>
<event>
 6    1  0.1108180E-002  0.1846095E+03  0.7546771E-02  0.1066788E+00
        -11   -1    0    0    0    0  0.00000000000E+00  0.00000000000E+00  0.18250000000E+03  0.18250000000E+03  0.00000000000E+00 0.  1.
         11   -1    0    0    0    0 -0.00000000000E+00 -0.00000000000E+00 -0.18250000000E+03  0.18250000000E+03  0.00000000000E+00 0. -1.
        -11    1    1    2    0    0 -0.46918735848E+00 -0.48167987705E+01  0.16952088474E+03  0.16958995268E+03  0.00000000000E+00 0.  1.
         11    1    1    2    0    0 -0.10599078727E+01  0.33608531786E+01 -0.18035603306E+03  0.18039045818E+03  0.00000000000E+00 0. -1.
        -15    1    1    2    0    0 -0.15425291148E+01 -0.21809931089E+01  0.17835834355E+00  0.32133577003E+01  0.17770000000E+01 0.  1.
         15    1    1    2    0    0  0.30716243460E+01  0.36369387009E+01  0.10656789976E+02  0.11806231441E+02  0.17770000000E+01 0. -1.
</event>
<event>
 6    1  0.1108180E-002  0.1851426E+03  0.7546771E-02  0.1066371E+00
        -11   -1    0    0    0    0  0.00000000000E+00  0.00000000000E+00  0.18250000000E+03  0.18250000000E+03  0.00000000000E+00 0.  1.
         11   -1    0    0    0    0 -0.00000000000E+00 -0.00000000000E+00 -0.18250000000E+03  0.18250000000E+03  0.00000000000E+00 0. -1.
        -11    1    1    2    0    0  0.13542892931E+01  0.48507309008E+01  0.17978689116E+03  0.17985741554E+03  0.00000000000E+00 0.  1.
         11    1    1    2    0    0  0.87439733541E+01  0.97507684975E+00 -0.15328475725E+03  0.15353704651E+03  0.00000000000E+00 0. -1.
        -15    1    1    2    0    0 -0.86059971389E+00 -0.17152209535E+01  0.54859547454E+00  0.26723212347E+01  0.17770000000E+01 0.  1.
         15    1    1    2    0    0 -0.92376629333E+01 -0.41105867970E+01 -0.27050729385E+02  0.28933216716E+02  0.17770000000E+01 0. -1.
</event>
<event>
 6    1  0.1108180E-002  0.2039707E+03  0.7546771E-02  0.1052543E+00
        -11   -1    0    0    0    0  0.00000000000E+00  0.00000000000E+00  0.18250000000E+03  0.18250000000E+03  0.00000000000E+00 0.  1.
         11   -1    0    0    0    0 -0.00000000000E+00 -0.00000000000E+00 -0.18250000000E+03  0.18250000000E+03  0.00000000000E+00 0.  1.
        -11    1    1    2    0    0 -0.39499773123E+00 -0.21716206772E+01  0.13748210261E+03  0.13749981999E+03  0.00000000000E+00 0.  1.
         11    1    1    2    0    0 -0.86664322821E+01  0.55841842458E+01 -0.16069894600E+03  0.16102931848E+03  0.00000000000E+00 0.  1.
        -15    1    1    2    0    0 -0.90775647137E+00 -0.24673539288E+02 -0.91954172614E+01  0.26406836055E+02  0.17770000000E+01 0.  1.
         15    1    1    2    0    0  0.99691864847E+01  0.21260975720E+02  0.32412260658E+02  0.40064025481E+02  0.17770000000E+01 0. -1.
</event>
<event>
 6    1  0.1108180E-002  0.1906061E+03  0.7546771E-02  0.1062179E+00
        -11   -1    0    0    0    0  0.00000000000E+00  0.00000000000E+00  0.18250000000E+03  0.18250000000E+03  0.00000000000E+00 0.  1.
         11   -1    0    0    0    0 -0.00000000000E+00 -0.00000000000E+00 -0.18250000000E+03  0.18250000000E+03  0.00000000000E+00 0.  1.
        -11    1    1    2    0    0  0.35133167144E+01 -0.10484427360E+02  0.14050526164E+03  0.14093968624E+03  0.00000000000E+00 0.  1.
         11    1    1    2    0    0 -0.16824033588E+02  0.49422236613E+01 -0.17351014999E+03  0.17439393863E+03  0.00000000000E+00 0.  1.
        -15    1    1    2    0    0 -0.29553179493E+00  0.12398833977E+02  0.31917301362E+02  0.34288340267E+02  0.17770000000E+01 0.  1.
         15    1    1    2    0    0  0.13606248669E+02 -0.68566302783E+01  0.10875869940E+01  0.15378034858E+02  0.17770000000E+01 0. -1.
</event>
<event>
 6    1  0.1108180E-002  0.1833395E+03  0.7546771E-02  0.1067788E+00
        -11   -1    0    0    0    0  0.00000000000E+00  0.00000000000E+00  0.18250000000E+03  0.18250000000E+03  0.00000000000E+00 0.  1.
         11   -1    0    0    0    0 -0.00000000000E+00 -0.00000000000E+00 -0.18250000000E+03  0.18250000000E+03  0.00000000000E+00 0. -1.
        -11    1    1    2    0    0  0.38703573536E+01  0.13011026502E+01  0.18161455828E+03  0.18166045335E+03  0.00000000000E+00 0.  1.
         11    1    1    2    0    0  0.10858890467E+01  0.12121682642E+01 -0.11898216237E+03  0.11899329170E+03  0.00000000000E+00 0. -1.
        -15    1    1    2    0    0 -0.34422002196E+01 -0.54951792686E+01 -0.13632989826E+02  0.15200719659E+02  0.17770000000E+01 0. -1.
         15    1    1    2    0    0 -0.15140461807E+01  0.29819083542E+01 -0.48999406080E+02  0.49145535286E+02  0.17770000000E+01 0.  1.
</event>
<event>
 6    1  0.1108180E-002  0.1830200E+03  0.7546771E-02  0.1068042E+00
        -11   -1    0    0    0    0  0.00000000000E+00  0.00000000000E+00  0.18250000000E+03  0.18250000000E+03  0.00000000000E+00 0.  1.
         11   -1    0    0    0    0 -0.00000000000E+00 -0.00000000000E+00 -0.18250000000E+03  0.18250000000E+03  0.00000000000E+00 0. -1.
        -11    1    1    2    0    0 -0.21053313178E+01 -0.49134847774E+01  0.18190151570E+03  0.18198004332E+03  0.00000000000E+00 0.  1.
         11    1    1    2    0    0  0.14526970756E+01 -0.31803564215E+00 -0.10797387063E+03  0.10798411093E+03  0.00000000000E+00 0. -1.
        -15    1    1    2    0    0 -0.88671547567E+00  0.52206025785E+01 -0.71265928181E+02  0.71484482261E+02  0.17770000000E+01 0. -1.
         15    1    1    2    0    0  0.15393497179E+01  0.10917841022E-01 -0.26617168967E+01  0.35513634834E+01  0.17770000000E+01 0.  1.
</event>
<event>
 6    1  0.1108180E-002  0.1906804E+03  0.7546771E-02  0.1062123E+00
        -11   -1    0    0    0    0  0.00000000000E+00  0.00000000000E+00  0.18250000000E+03  0.18250000000E+03  0.00000000000E+00 0. -1.
         11   -1    0    0    0    0 -0.00000000000E+00 -0.00000000000E+00 -0.18250000000E+03  0.18250000000E+03  0.00000000000E+00 0.  1.
        -11    1    1    2    0    0  0.22069835711E+01 -0.82645058802E+00  0.17430367663E+03  0.17431960728E+03  0.00000000000E+00 0. -1.
         11    1    1    2    0    0 -0.25267227497E+01 -0.72306496663E+00 -0.17180258652E+03  0.17182268734E+03  0.00000000000E+00 0.  1.
        -15    1    1    2    0    0  0.19613953297E+01  0.48095309184E+01  0.67822386745E+01  0.87255458128E+01  0.17770000000E+01 0. -1.
         15    1    1    2    0    0 -0.16416561511E+01 -0.32600153637E+01 -0.92833287874E+01  0.10132159566E+02  0.17770000000E+01 0.  1.
</event>
<event>
 6    1  0.1108180E-002  0.1948136E+03  0.7546771E-02  0.1059055E+00
        -11   -1    0    0    0    0  0.00000000000E+00  0.00000000000E+00  0.18250000000E+03  0.18250000000E+03  0.00000000000E+00 0. -1.
         11   -1    0    0    0    0 -0.00000000000E+00 -0.00000000000E+00 -0.18250000000E+03  0.18250000000E+03  0.00000000000E+00 0. -1.
        -11    1    1    2    0    0 -0.58642834585E+01  0.48714970575E+01  0.15282680895E+03  0.15301684495E+03  0.00000000000E+00 0. -1.
         11    1    1    2    0    0 -0.23764503426E+01 -0.23819036031E+01 -0.17015309993E+03  0.17018636373E+03  0.00000000000E+00 0. -1.
        -15    1    1    2    0    0 -0.13871967508E+01 -0.33866079722E+00 -0.11268050998E+02  0.11496334558E+02  0.17770000000E+01 0.  1.
         15    1    1    2    0    0  0.96279305520E+01 -0.21509326572E+01  0.28594341978E+02  0.30300456765E+02  0.17770000000E+01 0. -1.
</event>
<event>
 6    1  0.1108180E-002  0.1827513E+03  0.7546771E-02  0.1068255E+00
        -11   -1    0    0    0    0  0.00000000000E+00  0.00000000000E+00  0.18250000000E+03  0.18250000000E+03  0.00000000000E+00 0. -1.
         11   -1    0    0    0    0 -0.00000000000E+00 -0.00000000000E+00 -0.18250000000E+03  0.18250000000E+03  0.00000000000E+00 0.  1.
        -11    1    1    2    0    0  0.47196600929E+01 -0.24017234683E+01  0.18217176246E+03  0.18224871606E+03  0.00000000000E+00 0. -1.
         11    1    1    2    0    0 -0.33297049245E+01  0.13080598881E+01 -0.15291683376E+03  0.15295867417E+03  0.00000000000E+00 0.  1.
        -15    1    1    2    0    0  0.91399237809E+00 -0.75743300139E+00 -0.93450320053E+01  0.95862630361E+01  0.17770000000E+01 0.  1.
         15    1    1    2    0    0 -0.23039475465E+01  0.18510965816E+01 -0.19909896697E+02  0.20206346734E+02  0.17770000000E+01 0.  1.
</event>
<event>
 6    1  0.1108180E-002  0.1734048E+03  0.7546771E-02  0.1075934E+00
        -11   -1    0    0    0    0  0.00000000000E+00  0.00000000000E+00  0.18250000000E+03  0.18250000000E+03  0.00000000000E+00 0.  1.
         11   -1    0    0    0    0 -0.00000000000E+00 -0.00000000000E+00 -0.18250000000E+03  0.18250000000E+03  0.00000000000E+00 0.  1.
        -11    1    1    2    0    0 -0.17815886699E+01  0.18025075052E+01  0.17184141777E+03  0.17186010576E+03  0.00000000000E+00 0.  1.
         11    1    1    2    0    0 -0.49406610477E+01  0.41130200519E+01 -0.17496097977E+03  0.17507904360E+03  0.00000000000E+00 0.  1.
        -15    1    1    2    0    0  0.11140009872E+02 -0.18557420809E+01  0.29232337755E+01  0.11800280646E+02  0.17770000000E+01 0. -1.
         15    1    1    2    0    0 -0.44177601542E+01 -0.40597854762E+01  0.19632822653E+00  0.62605699953E+01  0.17770000000E+01 0.  1.
</event>
<event>
 6    1  0.1108180E-002  0.1834842E+03  0.7546771E-02  0.1067674E+00
        -11   -1    0    0    0    0  0.00000000000E+00  0.00000000000E+00  0.18250000000E+03  0.18250000000E+03  0.00000000000E+00 0. -1.
         11   -1    0    0    0    0 -0.00000000000E+00 -0.00000000000E+00 -0.18250000000E+03  0.18250000000E+03  0.00000000000E+00 0. -1.
        -11    1    1    2    0    0 -0.16396497660E+01  0.28129753440E+01  0.18148658979E+03  0.18151579423E+03  0.00000000000E+00 0. -1.
         11    1    1    2    0    0 -0.31039555705E+01  0.14236041730E+01 -0.15743442841E+03  0.15747145912E+03  0.00000000000E+00 0. -1.
        -15    1    1    2    0    0 -0.12332316610E+00  0.96057150065E+00 -0.23391145730E+01  0.30930716443E+01  0.17770000000E+01 0. -1.
         15    1    1    2    0    0  0.48669285026E+01 -0.51971510176E+01 -0.21713046810E+02  0.22919675009E+02  0.17770000000E+01 0. -1.
</event>
<event>
 6    1  0.1804481E-002  0.1914215E+03  0.7546771E-02  0.1061567E+00
        -11   -1    0    0    0    0  0.00000000000E+00  0.00000000000E+00  0.18250000000E+03  0.18250000000E+03  0.00000000000E+00 0. -1.
         11   -1    0    0    0    0 -0.00000000000E+00 -0.00000000000E+00 -0.18250000000E+03  0.18250000000E+03  0.00000000000E+00 0. -1.
        -11    1    1    2    0    0 -0.42391131828E+01 -0.23719784824E+00  0.17352657731E+03  0.17357851070E+03  0.00000000000E+00 0. -1.
         11    1    1    2    0    0  0.24519549081E+01  0.21355219175E+01 -0.15931109330E+03  0.15934427189E+03  0.00000000000E+00 0. -1.
        -15    1    1    2    0    0 -0.66598224515E+00  0.59425136313E-01 -0.22741028775E+02  0.22820148607E+02  0.17770000000E+01 0. -1.
         15    1    1    2    0    0  0.24531405199E+01 -0.19577492055E+01  0.85255447592E+01  0.92570688020E+01  0.17770000000E+01 0.  1.
</event>
<event>
 6    1  0.1108180E-002  0.1875218E+03  0.7546771E-02  0.1064526E+00
        -11   -1    0    0    0    0  0.00000000000E+00  0.00000000000E+00  0.18250000000E+03  0.18250000000E+03  0.00000000000E+00 0. -1.
         11   -1    0    0    0    0 -0.00000000000E+00 -0.00000000000E+00 -0.18250000000E+03  0.18250000000E+03  0.00000000000E+00 0. -1.
        -11    1    1    2    0    0  0.57778602301E+00  0.29507227861E+01  0.17745270716E+03  0.17747817860E+03  0.00000000000E+00 0. -1.
         11    1    1    2    0    0 -0.17399543688E+00 -0.31865955553E+01 -0.17491988548E+03  0.17494899543E+03  0.00000000000E+00 0. -1.
        -15    1    1    2    0    0 -0.43357026714E+01 -0.39976069197E+01 -0.43622610341E+00  0.61747227429E+01  0.17770000000E+01 0. -1.
         15    1    1    2    0    0  0.39319120853E+01  0.42334796889E+01 -0.20965955772E+01  0.63981032296E+01  0.17770000000E+01 0.  1.
</event>
<event>
 6    1  0.1108180E-002  0.1851866E+03  0.7546771E-02  0.1066336E+00
        -11   -1    0    0    0    0  0.00000000000E+00  0.00000000000E+00  0.18250000000E+03  0.18250000000E+03  0.00000000000E+00 0. -1.
         11   -1    0    0    0    0 -0.00000000000E+00 -0.00000000000E+00 -0.18250000000E+03  0.18250000000E+03  0.00000000000E+00 0.  1.
        -11    1    1    2    0    0 -0.10899303175E+01 -0.46674544590E+01  0.17974949129E+03  0.17981338298E+03  0.00000000000E+00 0. -1.
         11    1    1    2    0    0  0.39945975969E+01 -0.12598429053E+00 -0.17151326981E+03  0.17155982748E+03  0.00000000000E+00 0.  1.
        -15    1    1    2    0    0 -0.16616879845E+01  0.38216393736E+01  0.51421456704E+00  0.45594166382E+01  0.17770000000E+01 0.  1.
         15    1    1    2    0    0 -0.12429792949E+01  0.97179937594E+00 -0.87504360423E+01  0.90673729098E+01  0.17770000000E+01 0. -1.
</event>
<event>
 6    1  0.1108180E-002  0.1727704E+03  0.7546771E-02  0.1076475E+00
        -11   -1    0    0    0    0  0.00000000000E+00  0.00000000000E+00  0.18250000000E+03  0.18250000000E+03  0.00000000000E+00 0.  1.
         11   -1    0    0    0    0 -0.00000000000E+00 -0.00000000000E+00 -0.18250000000E+03  0.18250000000E+03  0.00000000000E+00 0. -1.
        -11    1    1    2    0    0  0.76773646830E+01 -0.45340996390E+01  0.16888053878E+03  0.16911574843E+03  0.00000000000E+00 0.  1.
         11    1    1    2    0    0  0.36767980956E+01 -0.45245401918E+01 -0.17672301911E+03  0.17681916126E+03  0.00000000000E+00 0. -1.
        -15    1    1    2    0    0 -0.10694065718E+02  0.10295820161E+02  0.58671637776E+01  0.16060768791E+02  0.17770000000E+01 0.  1.
         15    1    1    2    0    0 -0.66009706113E+00 -0.12371803304E+01  0.19753165505E+01  0.30043215165E+01  0.17770000000E+01 0. -1.
</event>
<event>
 6    1  0.1108180E-002  0.1833357E+03  0.7546771E-02  0.1067792E+00
        -11   -1    0    0    0    0  0.00000000000E+00  0.00000000000E+00  0.18250000000E+03  0.18250000000E+03  0.00000000000E+00 0.  1.
         11   -1    0    0    0    0 -0.00000000000E+00 -0.00000000000E+00 -0.18250000000E+03  0.18250000000E+03  0.00000000000E+00 0. -1.
        -11    1    1    2    0    0  0.12965511346E+01 -0.32614589141E+01  0.18163039418E+03  0.18166430097E+03  0.00000000000E+00 0.  1.
         11    1    1    2    0    0 -0.78043692161E+00 -0.25459049695E+01 -0.16584317286E+03  0.16586454925E+03  0.00000000000E+00 0. -1.
        -15    1    1    2    0    0 -0.49588702956E+00  0.40665155242E+01 -0.67163262393E+01  0.80653096411E+01  0.17770000000E+01 0. -1.
         15    1    1    2    0    0 -0.20227183443E-01  0.17408483594E+01 -0.90708950794E+01  0.94058401374E+01  0.17770000000E+01 0.  1.
</event>
<event>
 6    1  0.1108180E-002  0.1839060E+03  0.7546771E-02  0.1067341E+00
        -11   -1    0    0    0    0  0.00000000000E+00  0.00000000000E+00  0.18250000000E+03  0.18250000000E+03  0.00000000000E+00 0. -1.
         11   -1    0    0    0    0 -0.00000000000E+00 -0.00000000000E+00 -0.18250000000E+03  0.18250000000E+03  0.00000000000E+00 0.  1.
        -11    1    1    2    0    0  0.31020826713E+01 -0.14261006290E+01  0.10198021675E+03  0.10203735241E+03  0.00000000000E+00 0. -1.
         11    1    1    2    0    0  0.23661543850E+00 -0.26010379470E+01 -0.18107513177E+03  0.18109396658E+03  0.00000000000E+00 0.  1.
        -15    1    1    2    0    0 -0.82228751882E+01  0.55861823826E+01  0.73053614258E+02  0.73748284014E+02  0.17770000000E+01 0.  1.
         15    1    1    2    0    0  0.48841770784E+01 -0.15590438067E+01  0.60413007684E+01  0.81203969914E+01  0.17770000000E+01 0. -1.
</event>
<event>
 6    1  0.1108180E-002  0.1831938E+03  0.7546771E-02  0.1067904E+00
        -11   -1    0    0    0    0  0.00000000000E+00  0.00000000000E+00  0.18250000000E+03  0.18250000000E+03  0.00000000000E+00 0. -1.
         11   -1    0    0    0    0 -0.00000000000E+00 -0.00000000000E+00 -0.18250000000E+03  0.18250000000E+03  0.00000000000E+00 0.  1.
        -11    1    1    2    0    0  0.59710289902E+00  0.15289421399E+01  0.11478135490E+03  0.11479309051E+03  0.00000000000E+00 0. -1.
         11    1    1    2    0    0 -0.27441736741E+01 -0.70177766249E+00 -0.18178418338E+03  0.18180624937E+03  0.00000000000E+00 0.  1.
        -15    1    1    2    0    0 -0.88932597902E+00 -0.18121727854E+01  0.62693092749E+02  0.62750748827E+02  0.17770000000E+01 0.  1.
         15    1    1    2    0    0  0.30363967541E+01  0.98500830802E+00  0.43097357350E+01  0.56499113020E+01  0.17770000000E+01 0.  1.
</event>
<event>
 6    1  0.1108180E-002  0.1884017E+03  0.7546771E-02  0.1063852E+00
        -11   -1    0    0    0    0  0.00000000000E+00  0.00000000000E+00  0.18250000000E+03  0.18250000000E+03  0.00000000000E+00 0. -1.
         11   -1    0    0    0    0 -0.00000000000E+00 -0.00000000000E+00 -0.18250000000E+03  0.18250000000E+03  0.00000000000E+00 0. -1.
        -11    1    1    2    0    0 -0.25856747657E+00  0.29466824905E+01  0.15967294949E+03  0.15970034625E+03  0.00000000000E+00 0. -1.
         11    1    1    2    0    0  0.23871549510E+01 -0.41782698806E+01 -0.17653269423E+03  0.17659826890E+03  0.00000000000E+00 0. -1.
        -15    1    1    2    0    0  0.86460942362E+01 -0.49237466170E+01  0.43884326990E+01  0.11018815583E+02  0.17770000000E+01 0. -1.
         15    1    1    2    0    0 -0.10774681711E+02  0.61553340071E+01  0.12471312041E+02  0.17682569262E+02  0.17770000000E+01 0.  1.
</event>
<event>
 6    1  0.1108180E-002  0.1878242E+03  0.7546771E-02  0.1064294E+00
        -11   -1    0    0    0    0  0.00000000000E+00  0.00000000000E+00  0.18250000000E+03  0.18250000000E+03  0.00000000000E+00 0. -1.
         11   -1    0    0    0    0 -0.00000000000E+00 -0.00000000000E+00 -0.18250000000E+03  0.18250000000E+03  0.00000000000E+00 0.  1.
        -11    1    1    2    0    0  0.36690297834E+00 -0.29605315415E+01  0.17715064150E+03  0.17717575779E+03  0.00000000000E+00 0. -1.
         11    1    1    2    0    0 -0.26323214293E+00  0.30883033131E+01 -0.17681915759E+03  0.17684632141E+03  0.00000000000E+00 0.  1.
        -15    1    1    2    0    0 -0.28679980737E+00  0.31255166779E+01  0.39250183713E+01  0.53305353247E+01  0.17770000000E+01 0.  1.
         15    1    1    2    0    0  0.18312897197E+00 -0.32532884494E+01 -0.42565022850E+01  0.56473854710E+01  0.17770000000E+01 0.  1.
</event>
<event>
 6    1  0.1108180E-002  0.1851769E+03  0.7546771E-02  0.1066344E+00
        -11   -1    0    0    0    0  0.00000000000E+00  0.00000000000E+00  0.18250000000E+03  0.18250000000E+03  0.00000000000E+00 0. -1.
         11   -1    0    0    0    0 -0.00000000000E+00 -0.00000000000E+00 -0.18250000000E+03  0.18250000000E+03  0.00000000000E+00 0. -1.
        -11    1    1    2    0    0 -0.45228372816E+00 -0.33273240604E+01  0.16677126365E+03  0.16680506594E+03  0.00000000000E+00 0. -1.
         11    1    1    2    0    0 -0.30967036192E+01 -0.77884700189E+00 -0.17979474776E+03  0.17982310057E+03  0.00000000000E+00 0. -1.
        -15    1    1    2    0    0  0.25405862958E+01  0.52852705836E+00 -0.13477444264E+01  0.34217047822E+01  0.17770000000E+01 0. -1.
         15    1    1    2    0    0  0.10084010515E+01  0.35776440039E+01  0.14371228545E+02  0.14950128701E+02  0.17770000000E+01 0.  1.
</event>
<event>
 6    1  0.1108180E-002  0.1830968E+03  0.7546771E-02  0.1067981E+00
        -11   -1    0    0    0    0  0.00000000000E+00  0.00000000000E+00  0.18250000000E+03  0.18250000000E+03  0.00000000000E+00 0. -1.
         11   -1    0    0    0    0 -0.00000000000E+00 -0.00000000000E+00 -0.18250000000E+03  0.18250000000E+03  0.00000000000E+00 0. -1.
        -11    1    1    2    0    0 -0.13158311106E+02 -0.26166009181E+01  0.18140781496E+03  0.18190322449E+03  0.00000000000E+00 0. -1.
         11    1    1    2    0    0  0.16873192981E+01  0.54609247759E+00 -0.85699559306E+02  0.85717907864E+02  0.00000000000E+00 0. -1.
        -15    1    1    2    0    0  0.48278381708E+00 -0.43147206196E+01 -0.36202804974E+02  0.36505488783E+02  0.17770000000E+01 0.  1.
         15    1    1    2    0    0  0.10988207991E+02  0.63852290601E+01 -0.59505450678E+02  0.60873378864E+02  0.17770000000E+01 0. -1.
</event>
<event>
 6    1  0.1108180E-002  0.1832765E+03  0.7546771E-02  0.1067838E+00
        -11   -1    0    0    0    0  0.00000000000E+00  0.00000000000E+00  0.18250000000E+03  0.18250000000E+03  0.00000000000E+00 0.  1.
         11   -1    0    0    0    0 -0.00000000000E+00 -0.00000000000E+00 -0.18250000000E+03  0.18250000000E+03  0.00000000000E+00 0. -1.
        -11    1    1    2    0    0  0.31447721240E-01  0.32377276601E+01  0.18169463573E+03  0.18172348368E+03  0.00000000000E+00 0.  1.
         11    1    1    2    0    0  0.98221831622E+00 -0.28152090400E+00 -0.18543791861E+02  0.18571920294E+02  0.00000000000E+00 0. -1.
        -15    1    1    2    0    0 -0.34354270577E+01  0.51900546039E+01 -0.15480485672E+02  0.16779213077E+02  0.17770000000E+01 0. -1.
         15    1    1    2    0    0  0.24217610203E+01 -0.81462613600E+01 -0.14767035820E+03  0.14792538295E+03  0.17770000000E+01 0. -1.
</event>
<event>
 6    1  0.1108180E-002  0.1838092E+03  0.7546771E-02  0.1067417E+00
        -11   -1    0    0    0    0  0.00000000000E+00  0.00000000000E+00  0.18250000000E+03  0.18250000000E+03  0.00000000000E+00 0. -1.
         11   -1    0    0    0    0 -0.00000000000E+00 -0.00000000000E+00 -0.18250000000E+03  0.18250000000E+03  0.00000000000E+00 0. -1.
        -11    1    1    2    0    0 -0.35347484189E+01  0.11526767731E+01  0.18115262063E+03  0.18119076983E+03  0.00000000000E+00 0. -1.
         11    1    1    2    0    0  0.17053271176E+01 -0.21487049936E+01 -0.12150693776E+03  0.12153789942E+03  0.00000000000E+00 0. -1.
        -15    1    1    2    0    0  0.46557142150E+01 -0.72331213102E+01 -0.24714026716E+02  0.26228506711E+02  0.17770000000E+01 0. -1.
         15    1    1    2    0    0 -0.28262929137E+01  0.82291495307E+01 -0.34931656158E+02  0.36042824037E+02  0.17770000000E+01 0.  1.
</event>
<event>
 6    1  0.1108180E-002  0.1847059E+03  0.7546771E-02  0.1066712E+00
        -11   -1    0    0    0    0  0.00000000000E+00  0.00000000000E+00  0.18250000000E+03  0.18250000000E+03  0.00000000000E+00 0.  1.
         11   -1    0    0    0    0 -0.00000000000E+00 -0.00000000000E+00 -0.18250000000E+03  0.18250000000E+03  0.00000000000E+00 0. -1.
        -11    1    1    2    0    0  0.17860577685E+01 -0.95260097925E+01  0.15386546685E+03  0.15417041465E+03  0.00000000000E+00 0.  1.
         11    1    1    2    0    0  0.17729428793E+01 -0.18907409515E+01 -0.18027543001E+03  0.18029406228E+03  0.00000000000E+00 0. -1.
        -15    1    1    2    0    0 -0.20824911327E+01  0.24141427108E+01  0.16700044586E+02  0.17094270166E+02  0.17770000000E+01 0.  1.
         15    1    1    2    0    0 -0.14765095152E+01  0.90026080332E+01  0.97099185796E+01  0.13441252902E+02  0.17770000000E+01 0. -1.
</event>
<event>
 6    1  0.1108180E-002  0.1828393E+03  0.7546771E-02  0.1068185E+00
        -11   -1    0    0    0    0  0.00000000000E+00  0.00000000000E+00  0.18250000000E+03  0.18250000000E+03  0.00000000000E+00 0. -1.
         11   -1    0    0    0    0 -0.00000000000E+00 -0.00000000000E+00 -0.18250000000E+03  0.18250000000E+03  0.00000000000E+00 0.  1.
        -11    1    1    2    0    0 -0.44060051064E+00  0.29197009442E+01  0.18213671701E+03  0.18216065016E+03  0.00000000000E+00 0. -1.
         11    1    1    2    0    0  0.35915704998E+00 -0.57277974429E+00 -0.34229677234E+02  0.34236353106E+02  0.00000000000E+00 0.  1.
        -15    1    1    2    0    0  0.41661719902E+01 -0.18152559859E+01 -0.18956384321E+02  0.19574329590E+02  0.17770000000E+01 0. -1.
         15    1    1    2    0    0 -0.40847285295E+01 -0.53166521395E+00 -0.12895065545E+03  0.12902866715E+03  0.17770000000E+01 0.  1.
</event>
<event>
 6    1  0.1108180E-002  0.2068162E+03  0.7546771E-02  0.1050594E+00
        -11   -1    0    0    0    0  0.00000000000E+00  0.00000000000E+00  0.18250000000E+03  0.18250000000E+03  0.00000000000E+00 0. -1.
         11   -1    0    0    0    0 -0.00000000000E+00 -0.00000000000E+00 -0.18250000000E+03  0.18250000000E+03  0.00000000000E+00 0.  1.
        -11    1    1    2    0    0  0.33515050191E+01  0.58503015977E+01  0.15804003391E+03  0.15818378846E+03  0.00000000000E+00 0. -1.
         11    1    1    2    0    0 -0.13513639624E+02 -0.12259411791E+01 -0.10507660454E+03  0.10594911142E+03  0.00000000000E+00 0.  1.
        -15    1    1    2    0    0  0.27816489128E+02 -0.17557900889E+01 -0.70453969151E+02  0.75787593736E+02  0.17770000000E+01 0.  1.
         15    1    1    2    0    0 -0.17654354523E+02 -0.28685703297E+01  0.17490539787E+02  0.25079506383E+02  0.17770000000E+01 0. -1.
</event>
<event>
 6    1  0.1108180E-002  0.1832966E+03  0.7546771E-02  0.1067822E+00
        -11   -1    0    0    0    0  0.00000000000E+00  0.00000000000E+00  0.18250000000E+03  0.18250000000E+03  0.00000000000E+00 0.  1.
         11   -1    0    0    0    0 -0.00000000000E+00 -0.00000000000E+00 -0.18250000000E+03  0.18250000000E+03  0.00000000000E+00 0. -1.
        -11    1    1    2    0    0  0.41688287156E+01  0.53916746140E-01  0.18165554396E+03  0.18170338106E+03  0.00000000000E+00 0.  1.
         11    1    1    2    0    0 -0.14182107882E+01  0.23854086044E+00 -0.81841410354E+02  0.81854044935E+02  0.00000000000E+00 0. -1.
        -15    1    1    2    0    0  0.27595867821E+01  0.30085626491E+01 -0.64309245116E+01  0.78218468085E+01  0.17770000000E+01 0. -1.
         15    1    1    2    0    0 -0.55102047096E+01 -0.33010202556E+01 -0.93383209092E+02  0.93620727192E+02  0.17770000000E+01 0.  1.
</event>
<event>
 6    1  0.1108180E-002  0.1829299E+03  0.7546771E-02  0.1068113E+00
        -11   -1    0    0    0    0  0.00000000000E+00  0.00000000000E+00  0.18250000000E+03  0.18250000000E+03  0.00000000000E+00 0.  1.
         11   -1    0    0    0    0 -0.00000000000E+00 -0.00000000000E+00 -0.18250000000E+03  0.18250000000E+03  0.00000000000E+00 0. -1.
        -11    1    1    2    0    0  0.26408857323E+01  0.10208412194E+02  0.18176446070E+03  0.18207005556E+03  0.00000000000E+00 0.  1.
         11    1    1    2    0    0 -0.49236696847E+01 -0.15717784187E+01 -0.72096017101E+02  0.72281039647E+02  0.00000000000E+00 0. -1.
        -15    1    1    2    0    0  0.14866349045E+01 -0.56458765380E+01 -0.20021143928E+02  0.20930598138E+02  0.17770000000E+01 0.  1.
         15    1    1    2    0    0  0.79614904790E+00 -0.29907572376E+01 -0.89647299671E+02  0.89718306658E+02  0.17770000000E+01 0. -1.
</event>
<event>
 6    1  0.1108180E-002  0.1801830E+03  0.7546771E-02  0.1070314E+00
        -11   -1    0    0    0    0  0.00000000000E+00  0.00000000000E+00  0.18250000000E+03  0.18250000000E+03  0.00000000000E+00 0. -1.
         11   -1    0    0    0    0 -0.00000000000E+00 -0.00000000000E+00 -0.18250000000E+03  0.18250000000E+03  0.00000000000E+00 0.  1.
        -11    1    1    2    0    0  0.26767551572E+01 -0.89852630957E+00  0.18007807699E+03  0.18010021149E+03  0.00000000000E+00 0. -1.
         11    1    1    2    0    0 -0.32808777914E+01 -0.12857658006E+01 -0.18023858829E+03  0.18027303198E+03  0.00000000000E+00 0.  1.
        -15    1    1    2    0    0 -0.34529389316E+00  0.16177229538E+01 -0.39914454252E+00  0.24603456655E+01  0.17770000000E+01 0. -1.
         15    1    1    2    0    0  0.94941652728E+00  0.56656915633E+00  0.55965584182E+00  0.21664108596E+01  0.17770000000E+01 0.  1.
</event>
<event>
 6    1  0.1108180E-002  0.1825700E+03  0.7546771E-02  0.1068399E+00
        -11   -1    0    0    0    0  0.00000000000E+00  0.00000000000E+00  0.18250000000E+03  0.18250000000E+03  0.00000000000E+00 0. -1.
         11   -1    0    0    0    0 -0.00000000000E+00 -0.00000000000E+00 -0.18250000000E+03  0.18250000000E+03  0.00000000000E+00 0.  1.
        -11    1    1    2    0    0  0.64558191562E+00 -0.48902379611E+01  0.18236333028E+03  0.18243002888E+03  0.00000000000E+00 0. -1.
         11    1    1    2    0    0 -0.12951791818E+01  0.39887046254E+00 -0.58742048156E+02  0.58757678718E+02  0.00000000000E+00 0.  1.
        -15    1    1    2    0    0 -0.40189493778E+00  0.43405658536E+01 -0.94758745792E+02  0.94875600997E+02  0.17770000000E+01 0.  1.
         15    1    1    2    0    0  0.10514922040E+01  0.15080164492E+00 -0.28862536336E+02  0.28936691410E+02  0.17770000000E+01 0. -1.
</event>
<event>
 6    1  0.1108180E-002  0.1939995E+03  0.7546771E-02  0.1059653E+00
        -11   -1    0    0    0    0  0.00000000000E+00  0.00000000000E+00  0.18250000000E+03  0.18250000000E+03  0.00000000000E+00 0. -1.
         11   -1    0    0    0    0 -0.00000000000E+00 -0.00000000000E+00 -0.18250000000E+03  0.18250000000E+03  0.00000000000E+00 0. -1.
        -11    1    1    2    0    0 -0.22469524343E+01 -0.26959206872E+01  0.17096450872E+03  0.17100052639E+03  0.00000000000E+00 0. -1.
         11    1    1    2    0    0 -0.59836193435E+01  0.21706457619E+01 -0.16180158152E+03  0.16192673400E+03  0.00000000000E+00 0. -1.
        -15    1    1    2    0    0  0.78367354232E+01 -0.65640824289E+00 -0.19714984808E+02  0.21299850911E+02  0.17770000000E+01 0. -1.
         15    1    1    2    0    0  0.39383635470E+00  0.11816831682E+01  0.10552057607E+02  0.10772888699E+02  0.17770000000E+01 0.  1.
</event>
<event>
 6    1  0.1108180E-002  0.1830404E+03  0.7546771E-02  0.1068025E+00
        -11   -1    0    0    0    0  0.00000000000E+00  0.00000000000E+00  0.18250000000E+03  0.18250000000E+03  0.00000000000E+00 0. -1.
         11   -1    0    0    0    0 -0.00000000000E+00 -0.00000000000E+00 -0.18250000000E+03  0.18250000000E+03  0.00000000000E+00 0.  1.
        -11    1    1    2    0    0 -0.38348816207E+01  0.60718368358E+01  0.18181781761E+03  0.18195958980E+03  0.00000000000E+00 0. -1.
         11    1    1    2    0    0  0.65676192900E-01 -0.12700815022E+01 -0.59796542380E+02  0.59810065215E+02  0.00000000000E+00 0.  1.
        -15    1    1    2    0    0  0.50136610000E+00 -0.91751217272E+01 -0.43296285489E+02  0.44296278544E+02  0.17770000000E+01 0. -1.
         15    1    1    2    0    0  0.32678393278E+01  0.43733663936E+01 -0.78724989737E+02  0.78934066446E+02  0.17770000000E+01 0.  1.
</event>
<event>
 6    1  0.1108180E-002  0.1833775E+03  0.7546771E-02  0.1067758E+00
        -11   -1    0    0    0    0  0.00000000000E+00  0.00000000000E+00  0.18250000000E+03  0.18250000000E+03  0.00000000000E+00 0. -1.
         11   -1    0    0    0    0 -0.00000000000E+00 -0.00000000000E+00 -0.18250000000E+03  0.18250000000E+03  0.00000000000E+00 0. -1.
        -11    1    1    2    0    0 -0.12496511625E+01  0.51535960582E+01  0.18154510423E+03  0.18162253728E+03  0.00000000000E+00 0. -1.
         11    1    1    2    0    0 -0.49727546204E+01 -0.30128254791E+01 -0.80244266654E+02  0.80454631543E+02  0.00000000000E+00 0. -1.
        -15    1    1    2    0    0  0.39189576441E+01 -0.26308325855E+00 -0.98139644473E+02  0.98234286214E+02  0.17770000000E+01 0. -1.
         15    1    1    2    0    0  0.23034481388E+01 -0.18776873206E+01 -0.31611931016E+01  0.46885449585E+01  0.17770000000E+01 0.  1.
</event>
<event>
 6    1  0.1108180E-002  0.1870912E+03  0.7546771E-02  0.1064858E+00
        -11   -1    0    0    0    0  0.00000000000E+00  0.00000000000E+00  0.18250000000E+03  0.18250000000E+03  0.00000000000E+00 0.  1.
         11   -1    0    0    0    0 -0.00000000000E+00 -0.00000000000E+00 -0.18250000000E+03  0.18250000000E+03  0.00000000000E+00 0.  1.
        -11    1    1    2    0    0 -0.48166534232E-02  0.95283537373E+01  0.37022556832E+02  0.38229036902E+02  0.00000000000E+00 0.  1.
         11    1    1    2    0    0 -0.90346193094E+00 -0.62602835982E+01 -0.17779635626E+03  0.17790882972E+03  0.00000000000E+00 0.  1.
        -15    1    1    2    0    0 -0.28649087329E+01  0.76246287204E+01  0.76874373652E+00  0.83720583553E+01  0.17770000000E+01 0. -1.
         15    1    1    2    0    0  0.37731873172E+01 -0.10892698860E+02  0.14000505569E+03  0.14049007502E+03  0.17770000000E+01 0.  1.
</event>
<event>
 6    1  0.1108180E-002  0.1825509E+03  0.7546771E-02  0.1068414E+00
        -11   -1    0    0    0    0  0.00000000000E+00  0.00000000000E+00  0.18250000000E+03  0.18250000000E+03  0.00000000000E+00 0.  1.
         11   -1    0    0    0    0 -0.00000000000E+00 -0.00000000000E+00 -0.18250000000E+03  0.18250000000E+03  0.00000000000E+00 0.  1.
        -11    1    1    2    0    0 -0.37897998857E+00 -0.44646781163E+00  0.90794834057E+01  0.90983503040E+01  0.00000000000E+00 0.  1.
         11    1    1    2    0    0 -0.18844431798E+01  0.23290263048E+01 -0.18242452433E+03  0.18244912323E+03  0.00000000000E+00 0.  1.
        -15    1    1    2    0    0  0.69729504550E+00 -0.29204699613E+01  0.90889274466E+02  0.90956216429E+02  0.17770000000E+01 0.  1.
         15    1    1    2    0    0  0.15661281229E+01  0.10379114682E+01  0.82455766462E+02  0.82496310035E+02  0.17770000000E+01 0.  1.
</event>
<event>
 6    1  0.1108180E-002  0.1881830E+03  0.7546771E-02  0.1064019E+00
        -11   -1    0    0    0    0  0.00000000000E+00  0.00000000000E+00  0.18250000000E+03  0.18250000000E+03  0.00000000000E+00 0.  1.
         11   -1    0    0    0    0 -0.00000000000E+00 -0.00000000000E+00 -0.18250000000E+03  0.18250000000E+03  0.00000000000E+00 0. -1.
        -11    1    1    2    0    0 -0.10380039723E+02 -0.47758241769E+01  0.16511118287E+03  0.16550606161E+03  0.00000000000E+00 0.  1.
         11    1    1    2    0    0  0.34355339884E-01 -0.35384602812E+01 -0.17678163336E+03  0.17681704606E+03  0.00000000000E+00 0. -1.
        -15    1    1    2    0    0 -0.80682340074E+00 -0.20057085806E+01  0.55193471318E+01  0.61882754198E+01  0.17770000000E+01 0. -1.
         15    1    1    2    0    0  0.11152507784E+02  0.10319993039E+02  0.61511033646E+01  0.16488616916E+02  0.17770000000E+01 0.  1.
</event>
<event>
 6    1  0.1108180E-002  0.1838882E+03  0.7546771E-02  0.1067355E+00
        -11   -1    0    0    0    0  0.00000000000E+00  0.00000000000E+00  0.18250000000E+03  0.18250000000E+03  0.00000000000E+00 0. -1.
         11   -1    0    0    0    0 -0.00000000000E+00 -0.00000000000E+00 -0.18250000000E+03  0.18250000000E+03  0.00000000000E+00 0.  1.
        -11    1    1    2    0    0  0.30561650165E+01 -0.11007542048E+01  0.12833306587E+03  0.12837417030E+03  0.00000000000E+00 0. -1.
         11    1    1    2    0    0  0.49897580327E+01 -0.22621401519E+01 -0.18102889749E+03  0.18111177954E+03  0.00000000000E+00 0.  1.
        -15    1    1    2    0    0 -0.10038110905E+02 -0.56652341441E+00  0.19804082515E+02  0.22281024047E+02  0.17770000000E+01 0.  1.
         15    1    1    2    0    0  0.19921878554E+01  0.39294177711E+01  0.32891749098E+02  0.33233026106E+02  0.17770000000E+01 0. -1.
</event>
<event>
 6    1  0.1108180E-002  0.1828721E+03  0.7546771E-02  0.1068159E+00
        -11   -1    0    0    0    0  0.00000000000E+00  0.00000000000E+00  0.18250000000E+03  0.18250000000E+03  0.00000000000E+00 0. -1.
         11   -1    0    0    0    0 -0.00000000000E+00 -0.00000000000E+00 -0.18250000000E+03  0.18250000000E+03  0.00000000000E+00 0.  1.
        -11    1    1    2    0    0 -0.30860256374E+00  0.15725776792E+01  0.79872679925E+02  0.79888755370E+02  0.00000000000E+00 0. -1.
         11    1    1    2    0    0  0.30609858431E+01  0.39811368141E+01 -0.18205862259E+03  0.18212787031E+03  0.00000000000E+00 0.  1.
        -15    1    1    2    0    0 -0.18157190275E+01  0.29516833116E+01  0.39423507247E+02  0.39615400069E+02  0.17770000000E+01 0. -1.
         15    1    1    2    0    0 -0.93666425186E+00 -0.85053978048E+01  0.62762435419E+02  0.63367974249E+02  0.17770000000E+01 0.  1.
</event>
<event>
 6    1  0.1108180E-002  0.1828791E+03  0.7546771E-02  0.1068153E+00
        -11   -1    0    0    0    0  0.00000000000E+00  0.00000000000E+00  0.18250000000E+03  0.18250000000E+03  0.00000000000E+00 0.  1.
         11   -1    0    0    0    0 -0.00000000000E+00 -0.00000000000E+00 -0.18250000000E+03  0.18250000000E+03  0.00000000000E+00 0.  1.
        -11    1    1    2    0    0 -0.98818936812E+01 -0.22958656663E+01  0.18183812983E+03  0.18212091665E+03  0.00000000000E+00 0.  1.
         11    1    1    2    0    0  0.34862072365E+00 -0.38300705575E+00 -0.85472834013E+01  0.85629600231E+01  0.00000000000E+00 0.  1.
        -15    1    1    2    0    0  0.48698035665E+01  0.60627935698E+01 -0.15140163945E+03  0.15161163085E+03  0.17770000000E+01 0.  1.
         15    1    1    2    0    0  0.46634693911E+01 -0.33839208478E+01 -0.21889206982E+02  0.22704492471E+02  0.17770000000E+01 0. -1.
</event>
<event>
 6    1  0.1108180E-002  0.1910827E+03  0.7546771E-02  0.1061821E+00
        -11   -1    0    0    0    0  0.00000000000E+00  0.00000000000E+00  0.18250000000E+03  0.18250000000E+03  0.00000000000E+00 0.  1.
         11   -1    0    0    0    0 -0.00000000000E+00 -0.00000000000E+00 -0.18250000000E+03  0.18250000000E+03  0.00000000000E+00 0. -1.
        -11    1    1    2    0    0 -0.69219876325E+00  0.35110818489E+01  0.14770338138E+03  0.14774672824E+03  0.00000000000E+00 0.  1.
         11    1    1    2    0    0 -0.12661762225E+02  0.11867619685E+02 -0.17304928960E+03  0.17391727128E+03  0.00000000000E+00 0. -1.
        -15    1    1    2    0    0  0.66925789775E+01 -0.83169245277E+01  0.30385051980E+02  0.32254781968E+02  0.17770000000E+01 0.  1.
         15    1    1    2    0    0  0.66613820110E+01 -0.70617770066E+01 -0.50391437638E+01  0.11081218510E+02  0.17770000000E+01 0. -1.
</event>
<event>
 6    1  0.1108180E-002  0.1834553E+03  0.7546771E-02  0.1067697E+00
        -11   -1    0    0    0    0  0.00000000000E+00  0.00000000000E+00  0.18250000000E+03  0.18250000000E+03  0.00000000000E+00 0. -1.
         11   -1    0    0    0    0 -0.00000000000E+00 -0.00000000000E+00 -0.18250000000E+03  0.18250000000E+03  0.00000000000E+00 0. -1.
        -11    1    1    2    0    0 -0.51795214007E+01 -0.20272464726E+01  0.98607202409E+02  0.98763948570E+02  0.00000000000E+00 0. -1.
         11    1    1    2    0    0 -0.60502358754E+01  0.25296896316E+01 -0.18142625770E+03  0.18154473737E+03  0.00000000000E+00 0. -1.
        -15    1    1    2    0    0  0.56612007796E+01  0.43566152330E+01  0.63586552961E+02  0.64011223524E+02  0.17770000000E+01 0. -1.
         15    1    1    2    0    0  0.55685564965E+01 -0.48590583920E+01  0.19232502327E+02  0.20680090538E+02  0.17770000000E+01 0. -1.
</event>
<event>
 6    1  0.1108180E-002  0.1908289E+03  0.7546771E-02  0.1062012E+00
        -11   -1    0    0    0    0  0.00000000000E+00  0.00000000000E+00  0.18250000000E+03  0.18250000000E+03  0.00000000000E+00 0.  1.
         11   -1    0    0    0    0 -0.00000000000E+00 -0.00000000000E+00 -0.18250000000E+03  0.18250000000E+03  0.00000000000E+00 0. -1.
        -11    1    1    2    0    0 -0.16173111949E+01  0.28706741538E+01  0.17413990198E+03  0.17417107086E+03  0.00000000000E+00 0.  1.
         11    1    1    2    0    0 -0.19054455716E+02  0.61944486601E+01 -0.89831109400E+02  0.92038425089E+02  0.00000000000E+00 0. -1.
        -15    1    1    2    0    0  0.92825588923E+01 -0.25590945336E+02 -0.28482731043E+02  0.39439651107E+02  0.17770000000E+01 0.  1.
         15    1    1    2    0    0  0.11389208018E+02  0.16525822522E+02 -0.55826061534E+02  0.59350852940E+02  0.17770000000E+01 0. -1.
</event>
<event>
 6    1  0.1108180E-002  0.1929944E+03  0.7546771E-02  0.1060395E+00
        -11   -1    0    0    0    0  0.00000000000E+00  0.00000000000E+00  0.18250000000E+03  0.18250000000E+03  0.00000000000E+00 0. -1.
         11   -1    0    0    0    0 -0.00000000000E+00 -0.00000000000E+00 -0.18250000000E+03  0.18250000000E+03  0.00000000000E+00 0. -1.
        -11    1    1    2    0    0  0.75150134050E+01  0.14073732051E+02  0.17126407163E+03  0.17200560337E+03  0.00000000000E+00 0. -1.
         11    1    1    2    0    0  0.13679149290E+02  0.11459829072E+02 -0.97704553818E+02  0.99320826842E+02  0.00000000000E+00 0. -1.
        -15    1    1    2    0    0 -0.19022646074E+02 -0.20984987889E+02 -0.10303063542E+02  0.30191747675E+02  0.17770000000E+01 0.  1.
         15    1    1    2    0    0 -0.21715166211E+01 -0.45485732349E+01 -0.63256454269E+02  0.63481822111E+02  0.17770000000E+01 0. -1.
</event>
<event>
 6    1  0.1108180E-002  0.1846558E+03  0.7546771E-02  0.1066752E+00
        -11   -1    0    0    0    0  0.00000000000E+00  0.00000000000E+00  0.18250000000E+03  0.18250000000E+03  0.00000000000E+00 0. -1.
         11   -1    0    0    0    0 -0.00000000000E+00 -0.00000000000E+00 -0.18250000000E+03  0.18250000000E+03  0.00000000000E+00 0.  1.
        -11    1    1    2    0    0 -0.46676861053E+01 -0.59365172351E+00  0.71838775053E+02  0.71992703221E+02  0.00000000000E+00 0. -1.
         11    1    1    2    0    0  0.50126011045E+01 -0.58471974529E+00 -0.18027352731E+03  0.18034415077E+03  0.00000000000E+00 0.  1.
        -15    1    1    2    0    0 -0.44639958578E+01 -0.16871032022E+00  0.73726036269E+00  0.48638466293E+01  0.17770000000E+01 0. -1.
         15    1    1    2    0    0  0.41190808587E+01  0.13470817890E+01  0.10769749190E+03  0.10779929938E+03  0.17770000000E+01 0.  1.
</event>
<event>
 6    1  0.1108180E-002  0.1833266E+03  0.7546771E-02  0.1067799E+00
        -11   -1    0    0    0    0  0.00000000000E+00  0.00000000000E+00  0.18250000000E+03  0.18250000000E+03  0.00000000000E+00 0.  1.
         11   -1    0    0    0    0 -0.00000000000E+00 -0.00000000000E+00 -0.18250000000E+03  0.18250000000E+03  0.00000000000E+00 0. -1.
        -11    1    1    2    0    0 -0.16283694775E+01  0.23487917294E+01  0.16146861602E+03  0.16149390815E+03  0.00000000000E+00 0.  1.
         11    1    1    2    0    0  0.29830004386E+01  0.30725669248E+01 -0.18162295692E+03  0.18167343625E+03  0.00000000000E+00 0. -1.
        -15    1    1    2    0    0  0.16841239079E+01 -0.31392215867E+01  0.12298786245E+02  0.12927059125E+02  0.17770000000E+01 0. -1.
         15    1    1    2    0    0 -0.30387548689E+01 -0.22821370675E+01  0.78555546497E+01  0.89055964765E+01  0.17770000000E+01 0.  1.
</event>
<event>
 6    1  0.1108180E-002  0.1826394E+03  0.7546771E-02  0.1068344E+00
        -11   -1    0    0    0    0  0.00000000000E+00  0.00000000000E+00  0.18250000000E+03  0.18250000000E+03  0.00000000000E+00 0.  1.
         11   -1    0    0    0    0 -0.00000000000E+00 -0.00000000000E+00 -0.18250000000E+03  0.18250000000E+03  0.00000000000E+00 0. -1.
        -11    1    1    2    0    0 -0.71889141753E+01 -0.15930744138E+01  0.18221191048E+03  0.18236062814E+03  0.00000000000E+00 0.  1.
         11    1    1    2    0    0 -0.11340104762E+01  0.33875041676E+00 -0.16999649777E+02  0.17040798812E+02  0.00000000000E+00 0. -1.
        -15    1    1    2    0    0  0.78295855161E+01 -0.12936778746E+01 -0.11382132256E+03  0.11411146835E+03  0.17770000000E+01 0. -1.
         15    1    1    2    0    0  0.49333913548E+00  0.25480018716E+01 -0.51390938152E+02  0.51487104698E+02  0.17770000000E+01 0.  1.
</event>
<event>
 6    1  0.1108180E-002  0.1833110E+03  0.7546771E-02  0.1067811E+00
        -11   -1    0    0    0    0  0.00000000000E+00  0.00000000000E+00  0.18250000000E+03  0.18250000000E+03  0.00000000000E+00 0. -1.
         11   -1    0    0    0    0 -0.00000000000E+00 -0.00000000000E+00 -0.18250000000E+03  0.18250000000E+03  0.00000000000E+00 0.  1.
        -11    1    1    2    0    0 -0.11514100870E+01  0.30720777539E+01  0.18165940288E+03  0.18168902570E+03  0.00000000000E+00 0. -1.
         11    1    1    2    0    0  0.21237589198E+01  0.48752931340E+00 -0.89068527117E+02  0.89095176971E+02  0.00000000000E+00 0.  1.
        -15    1    1    2    0    0 -0.33764050693E+01  0.36185816987E+01 -0.72221718968E+02  0.72412903991E+02  0.17770000000E+01 0.  1.
         15    1    1    2    0    0  0.24040562365E+01 -0.71781887660E+01 -0.20369156792E+02  0.21802893335E+02  0.17770000000E+01 0.  1.
</event>
<event>
 6    1  0.1108180E-002  0.1827316E+03  0.7546771E-02  0.1068271E+00
        -11   -1    0    0    0    0  0.00000000000E+00  0.00000000000E+00  0.18250000000E+03  0.18250000000E+03  0.00000000000E+00 0. -1.
         11   -1    0    0    0    0 -0.00000000000E+00 -0.00000000000E+00 -0.18250000000E+03  0.18250000000E+03  0.00000000000E+00 0.  1.
        -11    1    1    2    0    0 -0.11260674364E+01  0.32291319521E+01  0.33449867058E+02  0.33624231251E+02  0.00000000000E+00 0. -1.
         11    1    1    2    0    0 -0.31565080369E+00 -0.85297079703E+01 -0.18206846583E+03  0.18226843337E+03  0.00000000000E+00 0.  1.
        -15    1    1    2    0    0 -0.97743374432E+00  0.32663714701E+01  0.13366874851E+03  0.13372403156E+03  0.17770000000E+01 0. -1.
         15    1    1    2    0    0  0.24191519844E+01  0.20342045481E+01  0.14949850268E+02  0.15383303823E+02  0.17770000000E+01 0.  1.
</event>
<event>
 6    1  0.1108180E-002  0.1830773E+03  0.7546771E-02  0.1067996E+00
        -11   -1    0    0    0    0  0.00000000000E+00  0.00000000000E+00  0.18250000000E+03  0.18250000000E+03  0.00000000000E+00 0.  1.
         11   -1    0    0    0    0 -0.00000000000E+00 -0.00000000000E+00 -0.18250000000E+03  0.18250000000E+03  0.00000000000E+00 0. -1.
        -11    1    1    2    0    0  0.23588601893E+01  0.66108527731E+00  0.16545438145E+03  0.16547251613E+03  0.00000000000E+00 0.  1.
         11    1    1    2    0    0  0.13473693127E+01 -0.36293077930E+01 -0.18188153634E+03  0.18192273233E+03  0.00000000000E+00 0. -1.
        -15    1    1    2    0    0 -0.17103907837E+01  0.13421479241E+01  0.10878775103E+02  0.11235313722E+02  0.17770000000E+01 0.  1.
         15    1    1    2    0    0 -0.19958387183E+01  0.16260745916E+01  0.55483797898E+01  0.63694378134E+01  0.17770000000E+01 0. -1.
</event>
<event>
 6    1  0.1108180E-002  0.1833318E+03  0.7546771E-02  0.1067795E+00
        -11   -1    0    0    0    0  0.00000000000E+00  0.00000000000E+00  0.18250000000E+03  0.18250000000E+03  0.00000000000E+00 0. -1.
         11   -1    0    0    0    0 -0.00000000000E+00 -0.00000000000E+00 -0.18250000000E+03  0.18250000000E+03  0.00000000000E+00 0. -1.
        -11    1    1    2    0    0 -0.29876996704E+01 -0.58520155443E+00  0.17507947633E+03  0.17510594462E+03  0.00000000000E+00 0. -1.
         11    1    1    2    0    0  0.21391582886E+01  0.23914489128E+01 -0.18163985464E+03  0.18166819155E+03  0.00000000000E+00 0. -1.
        -15    1    1    2    0    0  0.15459428772E+01 -0.19122145971E+00  0.40079385497E+01  0.46527202199E+01  0.17770000000E+01 0.  1.
         15    1    1    2    0    0 -0.69740149547E+00 -0.16150258987E+01  0.25524397639E+01  0.35731436086E+01  0.17770000000E+01 0. -1.
</event>
<event>
 6    1  0.1108180E-002  0.1834766E+03  0.7546771E-02  0.1067680E+00
        -11   -1    0    0    0    0  0.00000000000E+00  0.00000000000E+00  0.18250000000E+03  0.18250000000E+03  0.00000000000E+00 0. -1.
         11   -1    0    0    0    0 -0.00000000000E+00 -0.00000000000E+00 -0.18250000000E+03  0.18250000000E+03  0.00000000000E+00 0.  1.
        -11    1    1    2    0    0  0.43267590812E+01  0.35557151137E+00  0.18147143689E+03  0.18152335850E+03  0.00000000000E+00 0. -1.
         11    1    1    2    0    0  0.13072859557E+01 -0.13884059782E+01 -0.12936585094E+03  0.12937990592E+03  0.00000000000E+00 0.  1.
        -15    1    1    2    0    0 -0.45464050247E+01 -0.15325659974E+01 -0.60524739749E+01  0.79251957327E+01  0.17770000000E+01 0. -1.
         15    1    1    2    0    0 -0.10876400122E+01  0.25654004642E+01 -0.46053111971E+02  0.46171539844E+02  0.17770000000E+01 0.  1.
</event>
<event>
 6    1  0.1209159E-002  0.1827301E+03  0.7546771E-02  0.1068272E+00
        -11   -1    0    0    0    0  0.00000000000E+00  0.00000000000E+00  0.18250000000E+03  0.18250000000E+03  0.00000000000E+00 0. -1.
         11   -1    0    0    0    0 -0.00000000000E+00 -0.00000000000E+00 -0.18250000000E+03  0.18250000000E+03  0.00000000000E+00 0.  1.
        -11    1    1    2    0    0  0.14877177901E+01  0.31084796832E+01  0.18223729348E+03  0.18226987432E+03  0.00000000000E+00 0. -1.
         11    1    1    2    0    0  0.11285499166E+01  0.63561489321E+00 -0.68321132985E+02  0.68333409424E+02  0.00000000000E+00 0.  1.
        -15    1    1    2    0    0 -0.83236413535E+00  0.52114707821E+00 -0.87301085024E+02  0.87324690664E+02  0.17770000000E+01 0.  1.
         15    1    1    2    0    0 -0.17839035714E+01 -0.42652416547E+01 -0.26615075470E+02  0.27072025591E+02  0.17770000000E+01 0.  1.
</event>
<event>
 6    1  0.1851589E-002  0.1631640E+03  0.7546771E-02  0.1084981E+00
        -11   -1    0    0    0    0  0.00000000000E+00  0.00000000000E+00  0.18250000000E+03  0.18250000000E+03  0.00000000000E+00 0. -1.
         11   -1    0    0    0    0 -0.00000000000E+00 -0.00000000000E+00 -0.18250000000E+03  0.18250000000E+03  0.00000000000E+00 0.  1.
        -11    1    1    2    0    0 -0.22918842442E+01 -0.18003800475E+00  0.16297194636E+03  0.16298816046E+03  0.00000000000E+00 0. -1.
         11    1    1    2    0    0 -0.68773503344E+00 -0.25642149950E+01 -0.16334364082E+03  0.16336521408E+03  0.00000000000E+00 0.  1.
        -15    1    1    2    0    0  0.32702239383E+01  0.34953434724E+01 -0.18746378811E+02  0.19429262418E+02  0.17770000000E+01 0.  1.
         15    1    1    2    0    0 -0.29060466061E+00 -0.75109047263E+00  0.19118073262E+02  0.19217363040E+02  0.17770000000E+01 0.  1.
</event>
<event>
 6    1  0.1108180E-002  0.1669905E+03  0.7546771E-02  0.1081518E+00
        -11   -1    0    0    0    0  0.00000000000E+00  0.00000000000E+00  0.18250000000E+03  0.18250000000E+03  0.00000000000E+00 0.  1.
         11   -1    0    0    0    0 -0.00000000000E+00 -0.00000000000E+00 -0.18250000000E+03  0.18250000000E+03  0.00000000000E+00 0. -1.
        -11    1    1    2    0    0  0.37067484779E+01 -0.68096957780E+01  0.16597532083E+03  0.16615630913E+03  0.00000000000E+00 0.  1.
         11    1    1    2    0    0 -0.46668064909E+01 -0.96448562241E+01 -0.16789511445E+03  0.16823665412E+03  0.00000000000E+00 0. -1.
        -15    1    1    2    0    0 -0.49028269817E+01  0.16758804116E+02  0.10201781889E+02  0.20300968216E+02  0.17770000000E+01 0. -1.
         15    1    1    2    0    0  0.58628849947E+01 -0.30425211354E+00 -0.82819882692E+01  0.10306068528E+02  0.17770000000E+01 0.  1.
</event>
<event>
 6    1  0.1108180E-002  0.1863988E+03  0.7546771E-02  0.1065393E+00
        -11   -1    0    0    0    0  0.00000000000E+00  0.00000000000E+00  0.18250000000E+03  0.18250000000E+03  0.00000000000E+00 0. -1.
         11   -1    0    0    0    0 -0.00000000000E+00 -0.00000000000E+00 -0.18250000000E+03  0.18250000000E+03  0.00000000000E+00 0. -1.
        -11    1    1    2    0    0 -0.22239726414E+01  0.74586746327E+01  0.15519713432E+03  0.15539217606E+03  0.00000000000E+00 0. -1.
         11    1    1    2    0    0  0.72144318423E+01 -0.49997367401E+01 -0.17838538460E+03  0.17860120614E+03  0.00000000000E+00 0. -1.
        -15    1    1    2    0    0  0.32983498530E+01 -0.74121112076E+00  0.21937207105E+02  0.22267179665E+02  0.17770000000E+01 0. -1.
         15    1    1    2    0    0 -0.82888090540E+01 -0.17177267719E+01  0.12510431812E+01  0.87394381305E+01  0.17770000000E+01 0.  1.
</event>
<event>
 6    1  0.1108180E-002  0.1912973E+03  0.7546771E-02  0.1061660E+00
        -11   -1    0    0    0    0  0.00000000000E+00  0.00000000000E+00  0.18250000000E+03  0.18250000000E+03  0.00000000000E+00 0. -1.
         11   -1    0    0    0    0 -0.00000000000E+00 -0.00000000000E+00 -0.18250000000E+03  0.18250000000E+03  0.00000000000E+00 0. -1.
        -11    1    1    2    0    0  0.26387387975E+01 -0.11145843337E+01  0.16564380275E+03  0.16566856863E+03  0.00000000000E+00 0. -1.
         11    1    1    2    0    0 -0.47484062028E+01  0.15243120608E+01 -0.17363105167E+03  0.17370265684E+03  0.00000000000E+00 0. -1.
        -15    1    1    2    0    0  0.97261805929E+01  0.88513093784E-01 -0.45179021098E+01  0.10870859762E+02  0.17770000000E+01 0. -1.
         15    1    1    2    0    0 -0.76165131876E+01 -0.49824082085E+00  0.12505151028E+02  0.14757914767E+02  0.17770000000E+01 0.  1.
</event>
<event>
 6    1  0.1108180E-002  0.1858863E+03  0.7546771E-02  0.1065791E+00
        -11   -1    0    0    0    0  0.00000000000E+00  0.00000000000E+00  0.18250000000E+03  0.18250000000E+03  0.00000000000E+00 0.  1.
         11   -1    0    0    0    0 -0.00000000000E+00 -0.00000000000E+00 -0.18250000000E+03  0.18250000000E+03  0.00000000000E+00 0.  1.
        -11    1    1    2    0    0  0.98828894342E+00  0.31274730424E+01  0.15613685351E+03  0.15617129963E+03  0.00000000000E+00 0.  1.
         11    1    1    2    0    0  0.12075401845E+01 -0.30671527521E+01 -0.17908332550E+03  0.17911365959E+03  0.00000000000E+00 0.  1.
        -15    1    1    2    0    0 -0.59918014695E+01 -0.33234858005E+00  0.24461930937E+02  0.25249869991E+02  0.17770000000E+01 0.  1.
         15    1    1    2    0    0  0.37959723416E+01  0.27202828975E+00 -0.15154589513E+01  0.44651707965E+01  0.17770000000E+01 0. -1.
</event>
<event>
 6    1  0.1108180E-002  0.1857520E+03  0.7546771E-02  0.1065895E+00
        -11   -1    0    0    0    0  0.00000000000E+00  0.00000000000E+00  0.18250000000E+03  0.18250000000E+03  0.00000000000E+00 0. -1.
         11   -1    0    0    0    0 -0.00000000000E+00 -0.00000000000E+00 -0.18250000000E+03  0.18250000000E+03  0.00000000000E+00 0. -1.
        -11    1    1    2    0    0 -0.30215432137E+01 -0.24587048146E+00  0.17922239041E+03  0.17924802760E+03  0.00000000000E+00 0. -1.
         11    1    1    2    0    0  0.15791820741E+01  0.11428789787E+01 -0.12600966249E+03  0.12602473975E+03  0.00000000000E+00 0. -1.
        -15    1    1    2    0    0 -0.49608957360E+01 -0.12428938802E+02 -0.22251402796E+02  0.26026364742E+02  0.17770000000E+01 0.  1.
         15    1    1    2    0    0  0.64032568755E+01  0.11531930305E+02 -0.30961325124E+02  0.33700867906E+02  0.17770000000E+01 0. -1.
</event>
<event>
 6    1  0.1108180E-002  0.1834774E+03  0.7546771E-02  0.1067679E+00
        -11   -1    0    0    0    0  0.00000000000E+00  0.00000000000E+00  0.18250000000E+03  0.18250000000E+03  0.00000000000E+00 0. -1.
         11   -1    0    0    0    0 -0.00000000000E+00 -0.00000000000E+00 -0.18250000000E+03  0.18250000000E+03  0.00000000000E+00 0.  1.
        -11    1    1    2    0    0 -0.16393070891E+01 -0.66748022917E+01  0.18139245545E+03  0.18152262451E+03  0.00000000000E+00 0. -1.
         11    1    1    2    0    0  0.17147820706E+01  0.12425425004E+01 -0.14149560731E+03  0.14151145282E+03  0.00000000000E+00 0.  1.
        -15    1    1    2    0    0 -0.26769079848E+01  0.12550020726E+01 -0.33610831797E+02  0.33787373524E+02  0.17770000000E+01 0. -1.
         15    1    1    2    0    0  0.26014330032E+01  0.41772577187E+01 -0.62860163434E+01  0.81785491493E+01  0.17770000000E+01 0.  1.
</event>
<event>
 6    1  0.1108180E-002  0.1838438E+03  0.7546771E-02  0.1067390E+00
        -11   -1    0    0    0    0  0.00000000000E+00  0.00000000000E+00  0.18250000000E+03  0.18250000000E+03  0.00000000000E+00 0.  1.
         11   -1    0    0    0    0 -0.00000000000E+00 -0.00000000000E+00 -0.18250000000E+03  0.18250000000E+03  0.00000000000E+00 0.  1.
        -11    1    1    2    0    0 -0.44149504584E+01 -0.74371959262E+00  0.18110085364E+03  0.18115618702E+03  0.00000000000E+00 0.  1.
         11    1    1    2    0    0  0.15760740371E+01  0.26645335757E+01 -0.15767227156E+03  0.15770265999E+03  0.00000000000E+00 0.  1.
        -15    1    1    2    0    0  0.54457662532E+01 -0.20983065168E+01 -0.21696071007E+02  0.22537446316E+02  0.17770000000E+01 0.  1.
         15    1    1    2    0    0 -0.26068898319E+01  0.17749253379E+00 -0.17325110732E+01  0.36037066770E+01  0.17770000000E+01 0.  1.
</event>
<event>
 6    1  0.1108180E-002  0.1669815E+03  0.7546771E-02  0.1081526E+00
        -11   -1    0    0    0    0  0.00000000000E+00  0.00000000000E+00  0.18250000000E+03  0.18250000000E+03  0.00000000000E+00 0.  1.
         11   -1    0    0    0    0 -0.00000000000E+00 -0.00000000000E+00 -0.18250000000E+03  0.18250000000E+03  0.00000000000E+00 0.  1.
        -11    1    1    2    0    0 -0.10734267101E+00  0.30533894277E+01  0.16874109107E+03  0.16876874866E+03  0.00000000000E+00 0.  1.
         11    1    1    2    0    0 -0.12406896572E+02 -0.78792682245E+01 -0.16483231232E+03  0.16548626872E+03  0.00000000000E+00 0.  1.
        -15    1    1    2    0    0  0.11557976933E+02  0.52326041338E+01  0.10268836674E+02  0.16418700084E+02  0.17770000000E+01 0.  1.
         15    1    1    2    0    0  0.95626231014E+00 -0.40672533697E+00 -0.14177615424E+02  0.14326282533E+02  0.17770000000E+01 0. -1.
</event>
<event>
 6    1  0.1108180E-002  0.1872407E+03  0.7546771E-02  0.1064743E+00
        -11   -1    0    0    0    0  0.00000000000E+00  0.00000000000E+00  0.18250000000E+03  0.18250000000E+03  0.00000000000E+00 0.  1.
         11   -1    0    0    0    0 -0.00000000000E+00 -0.00000000000E+00 -0.18250000000E+03  0.18250000000E+03  0.00000000000E+00 0.  1.
        -11    1    1    2    0    0  0.93096006061E+00  0.89392591327E+01  0.17753190688E+03  0.17775926136E+03  0.00000000000E+00 0.  1.
         11    1    1    2    0    0  0.64665531677E+01 -0.10850734710E+01 -0.17033260688E+03  0.17045876528E+03  0.00000000000E+00 0.  1.
        -15    1    1    2    0    0 -0.85248431646E+01 -0.49497021470E+01 -0.16162171307E+01  0.10146052885E+02  0.17770000000E+01 0. -1.
         15    1    1    2    0    0  0.11273299364E+01 -0.29044835147E+01 -0.55830828599E+01  0.66359204707E+01  0.17770000000E+01 0.  1.
</event>
<event>
 6    1  0.1108180E-002  0.1828932E+03  0.7546771E-02  0.1068142E+00
        -11   -1    0    0    0    0  0.00000000000E+00  0.00000000000E+00  0.18250000000E+03  0.18250000000E+03  0.00000000000E+00 0.  1.
         11   -1    0    0    0    0 -0.00000000000E+00 -0.00000000000E+00 -0.18250000000E+03  0.18250000000E+03  0.00000000000E+00 0.  1.
        -11    1    1    2    0    0 -0.94906460767E+00  0.29357202647E+01  0.16113497732E+03  0.16116451252E+03  0.00000000000E+00 0.  1.
         11    1    1    2    0    0  0.31904328038E+01 -0.24986080015E+00 -0.18207868627E+03  0.18210680736E+03  0.00000000000E+00 0.  1.
        -15    1    1    2    0    0 -0.27331590918E+01 -0.15513707322E+01  0.13770052724E+02  0.14235483511E+02  0.17770000000E+01 0.  1.
         15    1    1    2    0    0  0.49179089564E+00 -0.11344887323E+01  0.71736562217E+01  0.74931966180E+01  0.17770000000E+01 0.  1.
</event>
<event>
 6    1  0.1108180E-002  0.1840189E+03  0.7546771E-02  0.1067252E+00
        -11   -1    0    0    0    0  0.00000000000E+00  0.00000000000E+00  0.18250000000E+03  0.18250000000E+03  0.00000000000E+00 0.  1.
         11   -1    0    0    0    0 -0.00000000000E+00 -0.00000000000E+00 -0.18250000000E+03  0.18250000000E+03  0.00000000000E+00 0. -1.
        -11    1    1    2    0    0  0.70267755708E+01 -0.31874528953E+01  0.11174877318E+03  0.11201483713E+03  0.00000000000E+00 0.  1.
         11    1    1    2    0    0  0.28844750190E+01  0.52104858652E+01 -0.18088311677E+03  0.18098113518E+03  0.00000000000E+00 0. -1.
        -15    1    1    2    0    0 -0.61452127510E+01 -0.82721682673E+01  0.23040359688E+02  0.25302338057E+02  0.17770000000E+01 0.  1.
         15    1    1    2    0    0 -0.37660378388E+01  0.62491352973E+01  0.46093983902E+02  0.46701689626E+02  0.17770000000E+01 0. -1.
</event>
<event>
 6    1  0.1108180E-002  0.1859207E+03  0.7546771E-02  0.1065764E+00
        -11   -1    0    0    0    0  0.00000000000E+00  0.00000000000E+00  0.18250000000E+03  0.18250000000E+03  0.00000000000E+00 0. -1.
         11   -1    0    0    0    0 -0.00000000000E+00 -0.00000000000E+00 -0.18250000000E+03  0.18250000000E+03  0.00000000000E+00 0. -1.
        -11    1    1    2    0    0  0.38825009415E+00 -0.42722858226E+01  0.17902793654E+03  0.17907932663E+03  0.00000000000E+00 0. -1.
         11    1    1    2    0    0  0.41083329544E+01  0.21029804350E+01 -0.16807684707E+03  0.16814020176E+03  0.00000000000E+00 0. -1.
        -15    1    1    2    0    0 -0.34892129988E+01  0.35299867916E+01  0.11810186018E+01  0.54025871615E+01  0.17770000000E+01 0.  1.
         15    1    1    2    0    0 -0.10073700498E+01 -0.13606814041E+01 -0.12132108070E+02  0.12377884453E+02  0.17770000000E+01 0.  1.
</event>
<event>
 6    1  0.1108180E-002  0.1832068E+03  0.7546771E-02  0.1067894E+00
        -11   -1    0    0    0    0  0.00000000000E+00  0.00000000000E+00  0.18250000000E+03  0.18250000000E+03  0.00000000000E+00 0.  1.
         11   -1    0    0    0    0 -0.00000000000E+00 -0.00000000000E+00 -0.18250000000E+03  0.18250000000E+03  0.00000000000E+00 0.  1.
        -11    1    1    2    0    0 -0.10174809665E+01 -0.39393215358E+01  0.15979293446E+03  0.15984472285E+03  0.00000000000E+00 0.  1.
         11    1    1    2    0    0  0.66602309082E+00  0.44741350996E+01 -0.18173687342E+03  0.18179315893E+03  0.00000000000E+00 0.  1.
        -15    1    1    2    0    0 -0.20812362226E+01  0.78074072159E+00  0.29999970889E+01  0.41350709573E+01  0.17770000000E+01 0. -1.
         15    1    1    2    0    0  0.24326940983E+01 -0.13155542854E+01  0.18943941877E+02  0.19227047264E+02  0.17770000000E+01 0.  1.
</event>
<event>
 6    1  0.1108180E-002  0.1895987E+03  0.7546771E-02  0.1062941E+00
        -11   -1    0    0    0    0  0.00000000000E+00  0.00000000000E+00  0.18250000000E+03  0.18250000000E+03  0.00000000000E+00 0.  1.
         11   -1    0    0    0    0 -0.00000000000E+00 -0.00000000000E+00 -0.18250000000E+03  0.18250000000E+03  0.00000000000E+00 0. -1.
        -11    1    1    2    0    0  0.16627974698E+01  0.19645457115E+01  0.15993183286E+03  0.15995254139E+03  0.00000000000E+00 0.  1.
         11    1    1    2    0    0 -0.44780322661E+01 -0.14716966216E+02 -0.17472544586E+03  0.17540132069E+03  0.00000000000E+00 0. -1.
        -15    1    1    2    0    0 -0.57549794414E+01  0.22909732530E+01  0.14650874870E+02  0.16005443145E+02  0.17770000000E+01 0.  1.
         15    1    1    2    0    0  0.85702142377E+01  0.10461447252E+02  0.14273813177E+00  0.13640694772E+02  0.17770000000E+01 0. -1.
</event>
<event>
 6    1  0.1108180E-002  0.2015693E+03  0.7546771E-02  0.1054214E+00
        -11   -1    0    0    0    0  0.00000000000E+00  0.00000000000E+00  0.18250000000E+03  0.18250000000E+03  0.00000000000E+00 0.  1.
         11   -1    0    0    0    0 -0.00000000000E+00 -0.00000000000E+00 -0.18250000000E+03  0.18250000000E+03  0.00000000000E+00 0. -1.
        -11    1    1    2    0    0 -0.40509141841E+01  0.10787240749E+02  0.11797778749E+03  0.11853916151E+03  0.00000000000E+00 0.  1.
         11    1    1    2    0    0 -0.95808011639E+01 -0.77058328733E+01 -0.16296752029E+03  0.16343067118E+03  0.00000000000E+00 0. -1.
        -15    1    1    2    0    0 -0.17595662502E+02 -0.25196031970E+01 -0.94747682597E+01  0.20220897649E+02  0.17770000000E+01 0. -1.
         15    1    1    2    0    0  0.31227377850E+02 -0.56180467879E+00  0.54464501058E+02  0.62809269669E+02  0.17770000000E+01 0.  1.
</event>
<event>
 6    1  0.1108180E-002  0.1830428E+03  0.7546771E-02  0.1068024E+00
        -11   -1    0    0    0    0  0.00000000000E+00  0.00000000000E+00  0.18250000000E+03  0.18250000000E+03  0.00000000000E+00 0.  1.
         11   -1    0    0    0    0 -0.00000000000E+00 -0.00000000000E+00 -0.18250000000E+03  0.18250000000E+03  0.00000000000E+00 0. -1.
        -11    1    1    2    0    0  0.17104672205E+01 -0.26296433409E+01  0.18193013603E+03  0.18195717935E+03  0.00000000000E+00 0.  1.
         11    1    1    2    0    0 -0.68396613084E+00 -0.30431236392E+01 -0.14434360820E+03  0.14437730306E+03  0.00000000000E+00 0. -1.
        -15    1    1    2    0    0 -0.15699908377E+01  0.44701707296E+01 -0.34490059008E+02  0.34859277058E+02  0.17770000000E+01 0.  1.
         15    1    1    2    0    0  0.54348974801E+00  0.12025962505E+01 -0.30964688168E+01  0.38062405312E+01  0.17770000000E+01 0. -1.
</event>
<event>
 6    1  0.1108180E-002  0.1861794E+03  0.7546771E-02  0.1065563E+00
        -11   -1    0    0    0    0  0.00000000000E+00  0.00000000000E+00  0.18250000000E+03  0.18250000000E+03  0.00000000000E+00 0.  1.
         11   -1    0    0    0    0 -0.00000000000E+00 -0.00000000000E+00 -0.18250000000E+03  0.18250000000E+03  0.00000000000E+00 0.  1.
        -11    1    1    2    0    0 -0.30473999170E+01  0.28212831830E+01  0.17082648226E+03  0.17087695376E+03  0.00000000000E+00 0.  1.
         11    1    1    2    0    0  0.31954995228E+01  0.63595120007E+01 -0.17867893260E+03  0.17882062399E+03  0.00000000000E+00 0.  1.
        -15    1    1    2    0    0  0.14046465437E+01 -0.51797820762E+01 -0.57196210177E+00  0.56822569386E+01  0.17770000000E+01 0. -1.
         15    1    1    2    0    0 -0.15527461496E+01 -0.40010131075E+01  0.84244124389E+01  0.96201653017E+01  0.17770000000E+01 0.  1.
</event>
<event>
 6    1  0.1108180E-002  0.1931428E+03  0.7546771E-02  0.1060285E+00
        -11   -1    0    0    0    0  0.00000000000E+00  0.00000000000E+00  0.18250000000E+03  0.18250000000E+03  0.00000000000E+00 0.  1.
         11   -1    0    0    0    0 -0.00000000000E+00 -0.00000000000E+00 -0.18250000000E+03  0.18250000000E+03  0.00000000000E+00 0.  1.
        -11    1    1    2    0    0  0.27833095847E+01 -0.19378919597E+01  0.17182368449E+03  0.17185715227E+03  0.00000000000E+00 0.  1.
         11    1    1    2    0    0 -0.34033870775E+00 -0.36559241472E+01 -0.16395924557E+03  0.16400035311E+03  0.00000000000E+00 0.  1.
        -15    1    1    2    0    0 -0.64431981778E+01 -0.80505074253E+00  0.86132935977E+01  0.10932038468E+02  0.17770000000E+01 0.  1.
         15    1    1    2    0    0  0.40002273009E+01  0.63988668494E+01 -0.16477732511E+02  0.18210456148E+02  0.17770000000E+01 0.  1.
</event>
<event>
 6    1  0.1368155E-002  0.1897900E+03  0.7546771E-02  0.1062796E+00
        -11   -1    0    0    0    0  0.00000000000E+00  0.00000000000E+00  0.18250000000E+03  0.18250000000E+03  0.00000000000E+00 0. -1.
         11   -1    0    0    0    0 -0.00000000000E+00 -0.00000000000E+00 -0.18250000000E+03  0.18250000000E+03  0.00000000000E+00 0. -1.
        -11    1    1    2    0    0  0.21414637953E+01  0.37472936729E+01  0.17515680308E+03  0.17520997044E+03  0.00000000000E+00 0. -1.
         11    1    1    2    0    0 -0.25571891785E+01  0.13557594838E+01 -0.16041802709E+03  0.16044413581E+03  0.00000000000E+00 0. -1.
        -15    1    1    2    0    0  0.13900683576E+01 -0.17857366950E+01 -0.21421976508E+02  0.21614345979E+02  0.17770000000E+01 0.  1.
         15    1    1    2    0    0 -0.97434297441E+00 -0.33173164617E+01  0.66832005226E+01  0.77315477728E+01  0.17770000000E+01 0.  1.
</event>
<event>
 6    1  0.1108180E-002  0.1750963E+03  0.7546771E-02  0.1074506E+00
        -11   -1    0    0    0    0  0.00000000000E+00  0.00000000000E+00  0.18250000000E+03  0.18250000000E+03  0.00000000000E+00 0.  1.
         11   -1    0    0    0    0 -0.00000000000E+00 -0.00000000000E+00 -0.18250000000E+03  0.18250000000E+03  0.00000000000E+00 0. -1.
        -11    1    1    2    0    0 -0.30865312279E+01 -0.46661834590E+01  0.17509251498E+03  0.17518187333E+03  0.00000000000E+00 0.  1.
         11    1    1    2    0    0 -0.66342588892E+01  0.52213450955E+00 -0.17504371969E+03  0.17517017388E+03  0.00000000000E+00 0. -1.
        -15    1    1    2    0    0  0.55485034178E+01  0.79013929948E+00 -0.45477538563E+01  0.74330346715E+01  0.17770000000E+01 0. -1.
         15    1    1    2    0    0  0.41722866994E+01  0.33539096499E+01  0.44989585672E+01  0.72149181167E+01  0.17770000000E+01 0.  1.
</event>
<event>
 6    1  0.1108180E-002  0.1834654E+03  0.7546771E-02  0.1067689E+00
        -11   -1    0    0    0    0  0.00000000000E+00  0.00000000000E+00  0.18250000000E+03  0.18250000000E+03  0.00000000000E+00 0. -1.
         11   -1    0    0    0    0 -0.00000000000E+00 -0.00000000000E+00 -0.18250000000E+03  0.18250000000E+03  0.00000000000E+00 0.  1.
        -11    1    1    2    0    0 -0.70251042313E+01  0.10178116678E+01  0.18139574751E+03  0.18153458416E+03  0.00000000000E+00 0. -1.
         11    1    1    2    0    0  0.11155777868E+01  0.15580109314E+01 -0.10697220441E+03  0.10698936596E+03  0.00000000000E+00 0.  1.
        -15    1    1    2    0    0  0.56213544587E+01  0.41458868578E+01 -0.60322041054E+02  0.60751085337E+02  0.17770000000E+01 0.  1.
         15    1    1    2    0    0  0.28817198588E+00 -0.67217094571E+01 -0.14101502045E+02  0.15724964548E+02  0.17770000000E+01 0. -1.
</event>
<event>
 6    1  0.1108180E-002  0.1847120E+03  0.7546771E-02  0.1066708E+00
        -11   -1    0    0    0    0  0.00000000000E+00  0.00000000000E+00  0.18250000000E+03  0.18250000000E+03  0.00000000000E+00 0. -1.
         11   -1    0    0    0    0 -0.00000000000E+00 -0.00000000000E+00 -0.18250000000E+03  0.18250000000E+03  0.00000000000E+00 0. -1.
        -11    1    1    2    0    0 -0.75899694639E+00  0.40260232801E+01  0.18024142362E+03  0.18028797999E+03  0.00000000000E+00 0. -1.
         11    1    1    2    0    0 -0.32233513273E+01 -0.33060470250E+00 -0.17429647115E+03  0.17432658761E+03  0.00000000000E+00 0. -1.
        -15    1    1    2    0    0  0.28322608600E+01 -0.38457752351E+01 -0.12707180573E+01  0.52520607497E+01  0.17770000000E+01 0. -1.
         15    1    1    2    0    0  0.11500874138E+01  0.15035665751E+00 -0.46742344151E+01  0.51333716553E+01  0.17770000000E+01 0. -1.
</event>
<event>
 6    1  0.1108180E-002  0.1864614E+03  0.7546771E-02  0.1065345E+00
        -11   -1    0    0    0    0  0.00000000000E+00  0.00000000000E+00  0.18250000000E+03  0.18250000000E+03  0.00000000000E+00 0. -1.
         11   -1    0    0    0    0 -0.00000000000E+00 -0.00000000000E+00 -0.18250000000E+03  0.18250000000E+03  0.00000000000E+00 0.  1.
        -11    1    1    2    0    0  0.10151068341E+02 -0.94472351217E+01  0.17799929070E+03  0.17853862867E+03  0.00000000000E+00 0. -1.
         11    1    1    2    0    0 -0.34360753327E+01  0.88732896421E+00 -0.17058913257E+03  0.17062604173E+03  0.00000000000E+00 0.  1.
        -15    1    1    2    0    0  0.16003757119E+00  0.55931159051E+01 -0.13102781528E+01  0.60152402603E+01  0.17770000000E+01 0.  1.
         15    1    1    2    0    0 -0.68750305791E+01  0.29667902524E+01 -0.60998799732E+01  0.98200893353E+01  0.17770000000E+01 0. -1.
</event>
<event>
 6    1  0.1108180E-002  0.1742032E+03  0.7546771E-02  0.1075258E+00
        -11   -1    0    0    0    0  0.00000000000E+00  0.00000000000E+00  0.18250000000E+03  0.18250000000E+03  0.00000000000E+00 0. -1.
         11   -1    0    0    0    0 -0.00000000000E+00 -0.00000000000E+00 -0.18250000000E+03  0.18250000000E+03  0.00000000000E+00 0.  1.
        -11    1    1    2    0    0 -0.16164666215E+01 -0.66921882330E+01  0.17283923536E+03  0.17297629787E+03  0.00000000000E+00 0. -1.
         11    1    1    2    0    0 -0.42857846015E+01 -0.53974347155E+01 -0.17556524805E+03  0.17570047403E+03  0.00000000000E+00 0.  1.
        -15    1    1    2    0    0  0.13896052337E+01 -0.48724164303E+00  0.15761101942E+01  0.27946841447E+01  0.17770000000E+01 0. -1.
         15    1    1    2    0    0  0.45126459892E+01  0.12576864592E+02  0.11499024976E+01  0.13528543955E+02  0.17770000000E+01 0.  1.
</event>
<event>
 6    1  0.1108180E-002  0.1845018E+03  0.7546771E-02  0.1066872E+00
        -11   -1    0    0    0    0  0.00000000000E+00  0.00000000000E+00  0.18250000000E+03  0.18250000000E+03  0.00000000000E+00 0.  1.
         11   -1    0    0    0    0 -0.00000000000E+00 -0.00000000000E+00 -0.18250000000E+03  0.18250000000E+03  0.00000000000E+00 0.  1.
        -11    1    1    2    0    0 -0.26278564251E+00  0.24070329733E+01  0.14207032273E+03  0.14209095491E+03  0.00000000000E+00 0.  1.
         11    1    1    2    0    0 -0.57133163288E+01 -0.88374834501E+00 -0.18040562396E+03  0.18049823309E+03  0.00000000000E+00 0.  1.
        -15    1    1    2    0    0  0.19783003867E+01 -0.39510705912E+01  0.36899310158E+02  0.37205395447E+02  0.17770000000E+01 0. -1.
         15    1    1    2    0    0  0.39978015846E+01  0.24277859628E+01  0.14359910632E+01  0.52054165563E+01  0.17770000000E+01 0.  1.
</event>
<event>
 6    1  0.1108180E-002  0.1913467E+03  0.7546771E-02  0.1061623E+00
        -11   -1    0    0    0    0  0.00000000000E+00  0.00000000000E+00  0.18250000000E+03  0.18250000000E+03  0.00000000000E+00 0. -1.
         11   -1    0    0    0    0 -0.00000000000E+00 -0.00000000000E+00 -0.18250000000E+03  0.18250000000E+03  0.00000000000E+00 0. -1.
        -11    1    1    2    0    0  0.37591574900E+00 -0.43472235096E+01  0.17016218696E+03  0.17021812341E+03  0.00000000000E+00 0. -1.
         11    1    1    2    0    0 -0.35931182046E+01  0.18230305475E+00 -0.17361603241E+03  0.17365330530E+03  0.00000000000E+00 0. -1.
        -15    1    1    2    0    0  0.29520540231E+01  0.50067373955E+01 -0.76943203025E+01  0.98052198456E+01  0.17770000000E+01 0.  1.
         15    1    1    2    0    0  0.26514843248E+00 -0.84181694068E+00  0.11148165750E+02  0.11323351449E+02  0.17770000000E+01 0. -1.
</event>
<event>
 6    1  0.1108180E-002  0.1843269E+03  0.7546771E-02  0.1067010E+00
        -11   -1    0    0    0    0  0.00000000000E+00  0.00000000000E+00  0.18250000000E+03  0.18250000000E+03  0.00000000000E+00 0.  1.
         11   -1    0    0    0    0 -0.00000000000E+00 -0.00000000000E+00 -0.18250000000E+03  0.18250000000E+03  0.00000000000E+00 0. -1.
        -11    1    1    2    0    0 -0.57590786632E+01 -0.13588903729E+01  0.16254674854E+03  0.16265441596E+03  0.00000000000E+00 0.  1.
         11    1    1    2    0    0 -0.17331860530E+01 -0.31609845275E+01 -0.18063717926E+03  0.18067314767E+03  0.00000000000E+00 0. -1.
        -15    1    1    2    0    0  0.58933698639E+01  0.62528218683E+01  0.15137848299E+02  0.17496907435E+02  0.17770000000E+01 0.  1.
         15    1    1    2    0    0  0.15988948524E+01 -0.17329469678E+01  0.29525824204E+01  0.41755289355E+01  0.17770000000E+01 0. -1.
</event>
<event>
 6    1  0.1108180E-002  0.1846838E+03  0.7546771E-02  0.1066730E+00
        -11   -1    0    0    0    0  0.00000000000E+00  0.00000000000E+00  0.18250000000E+03  0.18250000000E+03  0.00000000000E+00 0.  1.
         11   -1    0    0    0    0 -0.00000000000E+00 -0.00000000000E+00 -0.18250000000E+03  0.18250000000E+03  0.00000000000E+00 0.  1.
        -11    1    1    2    0    0  0.48783440902E+01 -0.12451125674E+01  0.18024587661E+03  0.18031617948E+03  0.00000000000E+00 0.  1.
         11    1    1    2    0    0  0.86849724212E+00  0.14343290826E+00 -0.49352179617E+02  0.49360029310E+02  0.00000000000E+00 0.  1.
        -15    1    1    2    0    0 -0.98899450747E+01 -0.11928601494E+02 -0.33426794349E+02  0.36886458988E+02  0.17770000000E+01 0. -1.
         15    1    1    2    0    0  0.41431037424E+01  0.13030281153E+02 -0.97466902644E+02  0.98437332225E+02  0.17770000000E+01 0.  1.
</event>
<event>
 6    1  0.1108180E-002  0.1612673E+03  0.7546771E-02  0.1086737E+00
        -11   -1    0    0    0    0  0.00000000000E+00  0.00000000000E+00  0.18250000000E+03  0.18250000000E+03  0.00000000000E+00 0.  1.
         11   -1    0    0    0    0 -0.00000000000E+00 -0.00000000000E+00 -0.18250000000E+03  0.18250000000E+03  0.00000000000E+00 0. -1.
        -11    1    1    2    0    0  0.30068323693E+01 -0.71096844523E+00  0.16064054319E+03  0.16067025435E+03  0.00000000000E+00 0.  1.
         11    1    1    2    0    0 -0.40002258573E+00 -0.73139753336E+01 -0.16181114899E+03  0.16197685696E+03  0.00000000000E+00 0. -1.
        -15    1    1    2    0    0 -0.37643695803E+01  0.82445312639E+00  0.20856821860E+02  0.21284147819E+02  0.17770000000E+01 0.  1.
         15    1    1    2    0    0  0.11575597967E+01  0.72004906524E+01 -0.19686216055E+02  0.21068740871E+02  0.17770000000E+01 0.  1.
</event>
<event>
 6    1  0.1108180E-002  0.1803105E+03  0.7546771E-02  0.1070211E+00
        -11   -1    0    0    0    0  0.00000000000E+00  0.00000000000E+00  0.18250000000E+03  0.18250000000E+03  0.00000000000E+00 0. -1.
         11   -1    0    0    0    0 -0.00000000000E+00 -0.00000000000E+00 -0.18250000000E+03  0.18250000000E+03  0.00000000000E+00 0.  1.
        -11    1    1    2    0    0 -0.28512187293E+00 -0.62119959844E+00  0.13329009067E+02  0.13346522623E+02  0.00000000000E+00 0. -1.
         11    1    1    2    0    0 -0.41435516976E+01  0.10676676662E+00 -0.17764833536E+03  0.17769668392E+03  0.00000000000E+00 0.  1.
        -15    1    1    2    0    0  0.52248327153E+01 -0.23816065850E+02  0.37191208944E+02  0.44506714338E+02  0.17770000000E+01 0.  1.
         15    1    1    2    0    0 -0.79615914476E+00  0.24330498682E+02  0.12712811735E+03  0.12945007912E+03  0.17770000000E+01 0. -1.
</event>
<event>
 6    1  0.1108180E-002  0.1865151E+03  0.7546771E-02  0.1065303E+00
        -11   -1    0    0    0    0  0.00000000000E+00  0.00000000000E+00  0.18250000000E+03  0.18250000000E+03  0.00000000000E+00 0. -1.
         11   -1    0    0    0    0 -0.00000000000E+00 -0.00000000000E+00 -0.18250000000E+03  0.18250000000E+03  0.00000000000E+00 0. -1.
        -11    1    1    2    0    0 -0.23283807457E+01  0.45196353190E+01  0.17841249840E+03  0.17848492386E+03  0.00000000000E+00 0. -1.
         11    1    1    2    0    0 -0.24370285221E+01  0.32595766851E+01 -0.17183786201E+03  0.17188605170E+03  0.00000000000E+00 0. -1.
        -15    1    1    2    0    0  0.23087939068E+01  0.10555141846E+01 -0.37626605204E+01  0.48744212672E+01  0.17770000000E+01 0.  1.
         15    1    1    2    0    0  0.24566153610E+01 -0.88347261887E+01 -0.28119758709E+01  0.97546031780E+01  0.17770000000E+01 0.  1.
</event>
<event>
 6    1  0.1108180E-002  0.1840669E+03  0.7546771E-02  0.1067214E+00
        -11   -1    0    0    0    0  0.00000000000E+00  0.00000000000E+00  0.18250000000E+03  0.18250000000E+03  0.00000000000E+00 0.  1.
         11   -1    0    0    0    0 -0.00000000000E+00 -0.00000000000E+00 -0.18250000000E+03  0.18250000000E+03  0.00000000000E+00 0. -1.
        -11    1    1    2    0    0  0.26084603233E+01  0.11408682763E+01  0.18091072271E+03  0.18093312366E+03  0.00000000000E+00 0.  1.
         11    1    1    2    0    0  0.12394960851E+01  0.16105296292E+01 -0.13295898890E+03  0.13297451969E+03  0.00000000000E+00 0. -1.
        -15    1    1    2    0    0 -0.83636416291E+01 -0.35698508307E+01 -0.14016978444E+02  0.16802611403E+02  0.17770000000E+01 0. -1.
         15    1    1    2    0    0  0.45156852206E+01  0.81845292519E+00 -0.33934755367E+02  0.34289745245E+02  0.17770000000E+01 0.  1.
</event>
<event>
 6    1  0.1108180E-002  0.1172567E+03  0.7546771E-02  0.1136926E+00
        -11   -1    0    0    0    0  0.00000000000E+00  0.00000000000E+00  0.18250000000E+03  0.18250000000E+03  0.00000000000E+00 0.  1.
         11   -1    0    0    0    0 -0.00000000000E+00 -0.00000000000E+00 -0.18250000000E+03  0.18250000000E+03  0.00000000000E+00 0. -1.
        -11    1    1    2    0    0 -0.66592256024E+00  0.25672363630E+01  0.16298571386E+03  0.16300729149E+03  0.00000000000E+00 0.  1.
         11    1    1    2    0    0  0.10384648393E+01 -0.15628161362E+01 -0.65666782456E+02  0.65693585087E+02  0.00000000000E+00 0. -1.
        -15    1    1    2    0    0 -0.25951012079E+02  0.33888016602E+02 -0.18887862387E+02  0.46709332811E+02  0.17770000000E+01 0.  1.
         15    1    1    2    0    0  0.25578469800E+02 -0.34892436829E+02 -0.78431069021E+02  0.89589790612E+02  0.17770000000E+01 0. -1.
</event>
<event>
 6    1  0.1108180E-002  0.1892580E+03  0.7546771E-02  0.1063199E+00
        -11   -1    0    0    0    0  0.00000000000E+00  0.00000000000E+00  0.18250000000E+03  0.18250000000E+03  0.00000000000E+00 0.  1.
         11   -1    0    0    0    0 -0.00000000000E+00 -0.00000000000E+00 -0.18250000000E+03  0.18250000000E+03  0.00000000000E+00 0.  1.
        -11    1    1    2    0    0 -0.11252650252E+01  0.45582060942E+01  0.16237268482E+03  0.16244054987E+03  0.00000000000E+00 0.  1.
         11    1    1    2    0    0 -0.20688698716E+01 -0.91814134420E+01 -0.17548977501E+03  0.17574196912E+03  0.00000000000E+00 0.  1.
        -15    1    1    2    0    0  0.79382909247E+01 -0.46477221854E+01  0.13279079274E+02  0.16251444849E+02  0.17770000000E+01 0.  1.
         15    1    1    2    0    0 -0.47441560280E+01  0.92709295332E+01 -0.16198908329E+00  0.10566036167E+02  0.17770000000E+01 0. -1.
</event>
<event>
 6    1  0.1108180E-002  0.1846299E+03  0.7546771E-02  0.1066772E+00
        -11   -1    0    0    0    0  0.00000000000E+00  0.00000000000E+00  0.18250000000E+03  0.18250000000E+03  0.00000000000E+00 0.  1.
         11   -1    0    0    0    0 -0.00000000000E+00 -0.00000000000E+00 -0.18250000000E+03  0.18250000000E+03  0.00000000000E+00 0. -1.
        -11    1    1    2    0    0  0.11524155182E+01 -0.40699006474E+01  0.18032044611E+03  0.18037005139E+03  0.00000000000E+00 0.  1.
         11    1    1    2    0    0 -0.20348495839E+01 -0.18509569311E+01 -0.13871427292E+03  0.13874154449E+03  0.00000000000E+00 0. -1.
        -15    1    1    2    0    0 -0.13839774738E+01 -0.93256044349E+00 -0.37131901572E+02  0.37211838251E+02  0.17770000000E+01 0. -1.
         15    1    1    2    0    0  0.22664115395E+01  0.68534180220E+01 -0.44742716178E+01  0.86765658737E+01  0.17770000000E+01 0.  1.
</event>
<event>
 6    1  0.1108180E-002  0.1829776E+03  0.7546771E-02  0.1068075E+00
        -11   -1    0    0    0    0  0.00000000000E+00  0.00000000000E+00  0.18250000000E+03  0.18250000000E+03  0.00000000000E+00 0. -1.
         11   -1    0    0    0    0 -0.00000000000E+00 -0.00000000000E+00 -0.18250000000E+03  0.18250000000E+03  0.00000000000E+00 0. -1.
        -11    1    1    2    0    0  0.17806004056E+01 -0.48090307833E-01  0.11057262827E+03  0.11058697470E+03  0.00000000000E+00 0. -1.
         11    1    1    2    0    0  0.23542734884E+01 -0.12623493109E+01 -0.18200281688E+03  0.18202242027E+03  0.00000000000E+00 0. -1.
        -15    1    1    2    0    0  0.14185983258E+01  0.13456623100E+00  0.52466583105E+02  0.52516003285E+02  0.17770000000E+01 0.  1.
         15    1    1    2    0    0 -0.55534722198E+01  0.11758733877E+01  0.18963605505E+02  0.19874601749E+02  0.17770000000E+01 0. -1.
</event>
<event>
 6    1  0.1108180E-002  0.1912793E+03  0.7546771E-02  0.1061674E+00
        -11   -1    0    0    0    0  0.00000000000E+00  0.00000000000E+00  0.18250000000E+03  0.18250000000E+03  0.00000000000E+00 0.  1.
         11   -1    0    0    0    0 -0.00000000000E+00 -0.00000000000E+00 -0.18250000000E+03  0.18250000000E+03  0.00000000000E+00 0.  1.
        -11    1    1    2    0    0 -0.62519734146E+00 -0.38552657869E+01  0.16100342259E+03  0.16105078712E+03  0.00000000000E+00 0.  1.
         11    1    1    2    0    0  0.52974701625E+01 -0.39748901907E+01 -0.17359445153E+03  0.17372074299E+03  0.00000000000E+00 0.  1.
        -15    1    1    2    0    0 -0.47430801270E+01  0.50461464957E+01 -0.72098983367E+01  0.10153854764E+02  0.17770000000E+01 0. -1.
         15    1    1    2    0    0  0.70807305940E-01  0.27840094819E+01  0.19800927279E+02  0.20074615129E+02  0.17770000000E+01 0.  1.
</event>
<event>
 6    1  0.1108180E-002  0.1829028E+03  0.7546771E-02  0.1068135E+00
        -11   -1    0    0    0    0  0.00000000000E+00  0.00000000000E+00  0.18250000000E+03  0.18250000000E+03  0.00000000000E+00 0. -1.
         11   -1    0    0    0    0 -0.00000000000E+00 -0.00000000000E+00 -0.18250000000E+03  0.18250000000E+03  0.00000000000E+00 0.  1.
        -11    1    1    2    0    0  0.53359986679E-01 -0.10918650611E+01  0.28188544273E+02  0.28209733158E+02  0.00000000000E+00 0. -1.
         11    1    1    2    0    0 -0.49016300319E+01 -0.23769584250E+01 -0.18201574484E+03  0.18209724676E+03  0.00000000000E+00 0.  1.
        -15    1    1    2    0    0 -0.32560489390E+01 -0.98673706517E-01  0.10319295552E+03  0.10325965034E+03  0.17770000000E+01 0. -1.
         15    1    1    2    0    0  0.81043189842E+01  0.35674971927E+01  0.50634245049E+02  0.51433369743E+02  0.17770000000E+01 0.  1.
</event>
<event>
 6    1  0.1108180E-002  0.1856695E+03  0.7546771E-02  0.1065959E+00
        -11   -1    0    0    0    0  0.00000000000E+00  0.00000000000E+00  0.18250000000E+03  0.18250000000E+03  0.00000000000E+00 0.  1.
         11   -1    0    0    0    0 -0.00000000000E+00 -0.00000000000E+00 -0.18250000000E+03  0.18250000000E+03  0.00000000000E+00 0. -1.
        -11    1    1    2    0    0  0.40629444891E+01 -0.13433914989E+01  0.17927940838E+03  0.17933047284E+03  0.00000000000E+00 0.  1.
         11    1    1    2    0    0 -0.36647516808E+01 -0.12989553733E+02 -0.15614704006E+03  0.15672924753E+03  0.00000000000E+00 0. -1.
        -15    1    1    2    0    0  0.54147347740E-01  0.12617493750E+02 -0.23154693604E+02  0.26429181700E+02  0.17770000000E+01 0. -1.
         15    1    1    2    0    0 -0.45234015596E+00  0.17154514820E+01  0.22325283566E-01  0.25110979316E+01  0.17770000000E+01 0.  1.
</event>
<event>
 6    1  0.1108180E-002  0.1740863E+03  0.7546771E-02  0.1075357E+00
        -11   -1    0    0    0    0  0.00000000000E+00  0.00000000000E+00  0.18250000000E+03  0.18250000000E+03  0.00000000000E+00 0. -1.
         11   -1    0    0    0    0 -0.00000000000E+00 -0.00000000000E+00 -0.18250000000E+03  0.18250000000E+03  0.00000000000E+00 0. -1.
        -11    1    1    2    0    0 -0.14294409196E+01  0.29972679807E+01  0.17618853658E+03  0.17621982675E+03  0.00000000000E+00 0. -1.
         11    1    1    2    0    0 -0.39396210191E+01  0.40084580535E+01 -0.17199795996E+03  0.17208976315E+03  0.00000000000E+00 0. -1.
        -15    1    1    2    0    0  0.71943257430E+01 -0.51471767357E+01  0.24411825517E+01  0.93471307093E+01  0.17770000000E+01 0. -1.
         15    1    1    2    0    0 -0.18252638043E+01 -0.18585492984E+01 -0.66317591750E+01  0.73432793904E+01  0.17770000000E+01 0.  1.
</event>
<event>
 6    1  0.1108180E-002  0.1852460E+03  0.7546771E-02  0.1066290E+00
        -11   -1    0    0    0    0  0.00000000000E+00  0.00000000000E+00  0.18250000000E+03  0.18250000000E+03  0.00000000000E+00 0. -1.
         11   -1    0    0    0    0 -0.00000000000E+00 -0.00000000000E+00 -0.18250000000E+03  0.18250000000E+03  0.00000000000E+00 0. -1.
        -11    1    1    2    0    0  0.28431250981E+01  0.35206105406E+01  0.15308301293E+03  0.15314988380E+03  0.00000000000E+00 0. -1.
         11    1    1    2    0    0 -0.14069809212E+01 -0.21701666834E+01 -0.17973535622E+03  0.17975396377E+03  0.00000000000E+00 0. -1.
        -15    1    1    2    0    0  0.76789099232E+01  0.16921079369E+01  0.13243687967E+02  0.15504253831E+02  0.17770000000E+01 0.  1.
         15    1    1    2    0    0 -0.91150541002E+01 -0.30425517941E+01  0.13408655317E+02  0.16591898598E+02  0.17770000000E+01 0. -1.
</event>
<event>
 6    1  0.1108180E-002  0.1883614E+03  0.7546771E-02  0.1063883E+00
        -11   -1    0    0    0    0  0.00000000000E+00  0.00000000000E+00  0.18250000000E+03  0.18250000000E+03  0.00000000000E+00 0.  1.
         11   -1    0    0    0    0 -0.00000000000E+00 -0.00000000000E+00 -0.18250000000E+03  0.18250000000E+03  0.00000000000E+00 0. -1.
        -11    1    1    2    0    0  0.46691392278E+01  0.68587463555E+00  0.17657555664E+03  0.17663860985E+03  0.00000000000E+00 0.  1.
         11    1    1    2    0    0  0.13820794526E+02 -0.47585000429E+01 -0.15822109716E+03  0.15889484973E+03  0.00000000000E+00 0. -1.
        -15    1    1    2    0    0 -0.16734162461E+02  0.58896066169E+01 -0.19262044848E+02  0.26246976209E+02  0.17770000000E+01 0.  1.
         15    1    1    2    0    0 -0.17557712924E+01 -0.18169812096E+01  0.90758536749E+00  0.32195642169E+01  0.17770000000E+01 0. -1.
</event>
<event>
 6    1  0.1180937E-002  0.1696229E+03  0.7546771E-02  0.1079194E+00
        -11   -1    0    0    0    0  0.00000000000E+00  0.00000000000E+00  0.18250000000E+03  0.18250000000E+03  0.00000000000E+00 0. -1.
         11   -1    0    0    0    0 -0.00000000000E+00 -0.00000000000E+00 -0.18250000000E+03  0.18250000000E+03  0.00000000000E+00 0. -1.
        -11    1    1    2    0    0  0.18308913737E+01 -0.17672853529E+01  0.16732468301E+03  0.16734403188E+03  0.00000000000E+00 0. -1.
         11    1    1    2    0    0 -0.19007474150E+01  0.10377500949E+02 -0.17171563510E+03  0.17203942776E+03  0.00000000000E+00 0. -1.
        -15    1    1    2    0    0  0.30343369738E+01 -0.75030932718E+01 -0.87101836523E+01  0.12022006395E+02  0.17770000000E+01 0. -1.
         15    1    1    2    0    0 -0.29644809325E+01 -0.11071223247E+01  0.13101135738E+02  0.13594533963E+02  0.17770000000E+01 0.  1.
</event>
<event>
 6    1  0.1108180E-002  0.1853369E+03  0.7546771E-02  0.1066219E+00
        -11   -1    0    0    0    0  0.00000000000E+00  0.00000000000E+00  0.18250000000E+03  0.18250000000E+03  0.00000000000E+00 0.  1.
         11   -1    0    0    0    0 -0.00000000000E+00 -0.00000000000E+00 -0.18250000000E+03  0.18250000000E+03  0.00000000000E+00 0. -1.
        -11    1    1    2    0    0  0.13667155818E+01 -0.49421483417E+01  0.16998900100E+03  0.17006632001E+03  0.00000000000E+00 0.  1.
         11    1    1    2    0    0 -0.14646559353E+01 -0.21993849894E+01 -0.17964369225E+03  0.17966312554E+03  0.00000000000E+00 0. -1.
        -15    1    1    2    0    0 -0.27214832237E+01  0.22042731596E+01  0.82697528861E+01  0.91548802775E+01  0.17770000000E+01 0.  1.
         15    1    1    2    0    0  0.28194235771E+01  0.49372601716E+01  0.13849383718E+01  0.61156741740E+01  0.17770000000E+01 0. -1.
</event>
<event>
 6    1  0.1108180E-002  0.1939537E+03  0.7546771E-02  0.1059686E+00
        -11   -1    0    0    0    0  0.00000000000E+00  0.00000000000E+00  0.18250000000E+03  0.18250000000E+03  0.00000000000E+00 0. -1.
         11   -1    0    0    0    0 -0.00000000000E+00 -0.00000000000E+00 -0.18250000000E+03  0.18250000000E+03  0.00000000000E+00 0.  1.
        -11    1    1    2    0    0  0.19031663825E+01  0.42079633505E+01  0.15273974394E+03  0.15280954936E+03  0.00000000000E+00 0. -1.
         11    1    1    2    0    0 -0.15793459715E+01  0.17681619870E+01 -0.17102987113E+03  0.17104630236E+03  0.00000000000E+00 0.  1.
        -15    1    1    2    0    0 -0.11501084402E+01  0.60664360105E+00  0.28638987195E+02  0.28723510970E+02  0.17770000000E+01 0.  1.
         15    1    1    2    0    0  0.82628802923E+00 -0.65827689385E+01 -0.10348860003E+02  0.12420637309E+02  0.17770000000E+01 0. -1.
</event>
<event>
 6    1  0.1108180E-002  0.1845184E+03  0.7546771E-02  0.1066859E+00
        -11   -1    0    0    0    0  0.00000000000E+00  0.00000000000E+00  0.18250000000E+03  0.18250000000E+03  0.00000000000E+00 0.  1.
         11   -1    0    0    0    0 -0.00000000000E+00 -0.00000000000E+00 -0.18250000000E+03  0.18250000000E+03  0.00000000000E+00 0.  1.
        -11    1    1    2    0    0 -0.26865660324E+01 -0.26658426878E+01  0.18044186550E+03  0.18048155357E+03  0.00000000000E+00 0.  1.
         11    1    1    2    0    0 -0.15666249546E+01 -0.23232105350E+01 -0.17019597988E+03  0.17021904473E+03  0.00000000000E+00 0.  1.
        -15    1    1    2    0    0  0.10366352456E+01  0.21229963252E+01  0.94073080029E-01  0.29577533321E+01  0.17770000000E+01 0. -1.
         15    1    1    2    0    0  0.32165557414E+01  0.28660568977E+01 -0.10339958696E+02  0.11341648373E+02  0.17770000000E+01 0.  1.
</event>
<event>
 6    1  0.1108180E-002  0.1956628E+03  0.7546771E-02  0.1058435E+00
        -11   -1    0    0    0    0  0.00000000000E+00  0.00000000000E+00  0.18250000000E+03  0.18250000000E+03  0.00000000000E+00 0. -1.
         11   -1    0    0    0    0 -0.00000000000E+00 -0.00000000000E+00 -0.18250000000E+03  0.18250000000E+03  0.00000000000E+00 0.  1.
        -11    1    1    2    0    0  0.90765931432E+01  0.84292702726E+01  0.15817410717E+03  0.15865839190E+03  0.00000000000E+00 0. -1.
         11    1    1    2    0    0  0.85960672723E+00 -0.50728888547E+01 -0.16925902632E+03  0.16933721126E+03  0.00000000000E+00 0.  1.
        -15    1    1    2    0    0 -0.54237191577E+01 -0.10358076768E+02  0.20896911935E+02  0.24011354424E+02  0.17770000000E+01 0.  1.
         15    1    1    2    0    0 -0.45124807127E+01  0.70016953500E+01 -0.98119927851E+01  0.12993042422E+02  0.17770000000E+01 0. -1.
</event>
<event>
 6    1  0.1108180E-002  0.1501340E+03  0.7546771E-02  0.1097605E+00
        -11   -1    0    0    0    0  0.00000000000E+00  0.00000000000E+00  0.18250000000E+03  0.18250000000E+03  0.00000000000E+00 0.  1.
         11   -1    0    0    0    0 -0.00000000000E+00 -0.00000000000E+00 -0.18250000000E+03  0.18250000000E+03  0.00000000000E+00 0. -1.
        -11    1    1    2    0    0 -0.14900611110E+02  0.11841646585E+02  0.15341683701E+03  0.15459294512E+03  0.00000000000E+00 0.  1.
         11    1    1    2    0    0 -0.14961470724E+01  0.14098332300E+01 -0.14647968910E+03  0.14649411389E+03  0.00000000000E+00 0. -1.
        -15    1    1    2    0    0  0.20449927033E+02 -0.14775499716E+02  0.22653915224E+02  0.33953976373E+02  0.17770000000E+01 0.  1.
         15    1    1    2    0    0 -0.40531688504E+01  0.15240199008E+01 -0.29591063135E+02  0.29958964616E+02  0.17770000000E+01 0. -1.
</event>
<event>
 6    1  0.1108180E-002  0.1835927E+03  0.7546771E-02  0.1067588E+00
        -11   -1    0    0    0    0  0.00000000000E+00  0.00000000000E+00  0.18250000000E+03  0.18250000000E+03  0.00000000000E+00 0. -1.
         11   -1    0    0    0    0 -0.00000000000E+00 -0.00000000000E+00 -0.18250000000E+03  0.18250000000E+03  0.00000000000E+00 0. -1.
        -11    1    1    2    0    0  0.13966340136E+01 -0.44222292167E+01  0.16791749447E+03  0.16798152174E+03  0.00000000000E+00 0. -1.
         11    1    1    2    0    0 -0.28574265657E+01  0.12478273250E+01 -0.18138048466E+03  0.18140728258E+03  0.00000000000E+00 0. -1.
        -15    1    1    2    0    0 -0.37607235576E+00  0.28224901581E+01  0.12356189600E+02  0.12803945936E+02  0.17770000000E+01 0. -1.
         15    1    1    2    0    0  0.18368649079E+01  0.35191173354E+00  0.11068005909E+01  0.28072497406E+01  0.17770000000E+01 0.  1.
</event>
<event>
 6    1  0.1108180E-002  0.1773643E+03  0.7546771E-02  0.1072618E+00
        -11   -1    0    0    0    0  0.00000000000E+00  0.00000000000E+00  0.18250000000E+03  0.18250000000E+03  0.00000000000E+00 0. -1.
         11   -1    0    0    0    0 -0.00000000000E+00 -0.00000000000E+00 -0.18250000000E+03  0.18250000000E+03  0.00000000000E+00 0. -1.
        -11    1    1    2    0    0 -0.39036365160E+01  0.56328384883E+01  0.17825794104E+03  0.17838963197E+03  0.00000000000E+00 0. -1.
         11    1    1    2    0    0  0.20266843785E+01  0.30183848506E+01 -0.17641663474E+03  0.17645409349E+03  0.00000000000E+00 0. -1.
        -15    1    1    2    0    0  0.17374096782E+01 -0.55479548304E+01  0.10993045821E+00  0.60801487561E+01  0.17770000000E+01 0. -1.
         15    1    1    2    0    0  0.13954245937E+00 -0.31032685085E+01 -0.19512367608E+01  0.40761257869E+01  0.17770000000E+01 0.  1.
</event>
<event>
 6    1  0.1108180E-002  0.1827240E+03  0.7546771E-02  0.1068277E+00
        -11   -1    0    0    0    0  0.00000000000E+00  0.00000000000E+00  0.18250000000E+03  0.18250000000E+03  0.00000000000E+00 0. -1.
         11   -1    0    0    0    0 -0.00000000000E+00 -0.00000000000E+00 -0.18250000000E+03  0.18250000000E+03  0.00000000000E+00 0.  1.
        -11    1    1    2    0    0  0.26570167136E+01  0.23432120010E+01  0.18224158613E+03  0.18227601624E+03  0.00000000000E+00 0. -1.
         11    1    1    2    0    0  0.14570172172E+01 -0.19503884315E+01 -0.97475106976E+02  0.97505504431E+02  0.00000000000E+00 0.  1.
        -15    1    1    2    0    0 -0.22429986514E+01  0.31369194008E+01 -0.49553452717E+02  0.49735035050E+02  0.17770000000E+01 0.  1.
         15    1    1    2    0    0 -0.18710352793E+01 -0.35297429703E+01 -0.35213026435E+02  0.35483444283E+02  0.17770000000E+01 0. -1.
</event>
<event>
 6    1  0.1108180E-002  0.1846954E+03  0.7546771E-02  0.1066721E+00
        -11   -1    0    0    0    0  0.00000000000E+00  0.00000000000E+00  0.18250000000E+03  0.18250000000E+03  0.00000000000E+00 0. -1.
         11   -1    0    0    0    0 -0.00000000000E+00 -0.00000000000E+00 -0.18250000000E+03  0.18250000000E+03  0.00000000000E+00 0. -1.
        -11    1    1    2    0    0  0.22206748521E+01 -0.21662078025E+01  0.18027788896E+03  0.18030457870E+03  0.00000000000E+00 0. -1.
         11    1    1    2    0    0 -0.11980676116E+02  0.47805389575E+01 -0.74514750119E+02  0.75623000061E+02  0.00000000000E+00 0. -1.
        -15    1    1    2    0    0  0.15083323717E+02 -0.27235516709E+01 -0.37107001084E+02  0.40187207498E+02  0.17770000000E+01 0. -1.
         15    1    1    2    0    0 -0.53233224527E+01  0.10922051586E+00 -0.68656137758E+02  0.68885213739E+02  0.17770000000E+01 0.  1.
</event>
<event>
 6    1  0.1108180E-002  0.1840865E+03  0.7546771E-02  0.1067199E+00
        -11   -1    0    0    0    0  0.00000000000E+00  0.00000000000E+00  0.18250000000E+03  0.18250000000E+03  0.00000000000E+00 0.  1.
         11   -1    0    0    0    0 -0.00000000000E+00 -0.00000000000E+00 -0.18250000000E+03  0.18250000000E+03  0.00000000000E+00 0.  1.
        -11    1    1    2    0    0  0.40994452316E+01  0.15314074458E+01  0.18086057156E+03  0.18091350698E+03  0.00000000000E+00 0.  1.
         11    1    1    2    0    0  0.22959198906E+01  0.17066497366E+01 -0.45605001881E+02  0.45694639708E+02  0.00000000000E+00 0.  1.
        -15    1    1    2    0    0  0.30632382349E+01 -0.66605561044E+01 -0.90851983597E+01  0.11808683006E+02  0.17770000000E+01 0. -1.
         15    1    1    2    0    0 -0.94586033572E+01  0.34224989219E+01 -0.12617037132E+03  0.12658317031E+03  0.17770000000E+01 0.  1.
</event>
<event>
 6    1  0.1108180E-002  0.1839327E+03  0.7546771E-02  0.1067320E+00
        -11   -1    0    0    0    0  0.00000000000E+00  0.00000000000E+00  0.18250000000E+03  0.18250000000E+03  0.00000000000E+00 0.  1.
         11   -1    0    0    0    0 -0.00000000000E+00 -0.00000000000E+00 -0.18250000000E+03  0.18250000000E+03  0.00000000000E+00 0. -1.
        -11    1    1    2    0    0  0.10459404174E+01  0.19400980151E+01  0.81282911390E+02  0.81312789005E+02  0.00000000000E+00 0.  1.
         11    1    1    2    0    0  0.29220349162E+01 -0.11157624087E+02 -0.18069957906E+03  0.18106730444E+03  0.00000000000E+00 0. -1.
        -15    1    1    2    0    0 -0.34610987875E+00 -0.53586149054E+01  0.62068350103E+02  0.62325535371E+02  0.17770000000E+01 0.  1.
         15    1    1    2    0    0 -0.36218654548E+01  0.14576140977E+02  0.37348317568E+02  0.40294371186E+02  0.17770000000E+01 0.  1.
</event>
<event>
 6    1  0.1108180E-002  0.1867111E+03  0.7546771E-02  0.1065151E+00
        -11   -1    0    0    0    0  0.00000000000E+00  0.00000000000E+00  0.18250000000E+03  0.18250000000E+03  0.00000000000E+00 0.  1.
         11   -1    0    0    0    0 -0.00000000000E+00 -0.00000000000E+00 -0.18250000000E+03  0.18250000000E+03  0.00000000000E+00 0.  1.
        -11    1    1    2    0    0 -0.34679538100E+00 -0.38579007645E+01  0.16756593237E+03  0.16761069583E+03  0.00000000000E+00 0.  1.
         11    1    1    2    0    0 -0.12665621474E+00  0.31270694310E+01 -0.17826146931E+03  0.17828893977E+03  0.00000000000E+00 0.  1.
        -15    1    1    2    0    0 -0.53085583938E+01 -0.43800896436E+01  0.20971541596E+01  0.74109218101E+01  0.17770000000E+01 0. -1.
         15    1    1    2    0    0  0.57820099895E+01  0.51109209770E+01  0.85983827781E+01  0.11689442594E+02  0.17770000000E+01 0.  1.
</event>
<event>
 6    1  0.1108180E-002  0.1842314E+03  0.7546771E-02  0.1067085E+00
        -11   -1    0    0    0    0  0.00000000000E+00  0.00000000000E+00  0.18250000000E+03  0.18250000000E+03  0.00000000000E+00 0.  1.
         11   -1    0    0    0    0 -0.00000000000E+00 -0.00000000000E+00 -0.18250000000E+03  0.18250000000E+03  0.00000000000E+00 0. -1.
        -11    1    1    2    0    0 -0.47896161037E+01  0.12791487511E+01  0.18070057975E+03  0.18076857073E+03  0.00000000000E+00 0.  1.
         11    1    1    2    0    0 -0.15153642180E+01 -0.15759109768E+01 -0.11046818726E+03  0.11048981953E+03  0.00000000000E+00 0. -1.
        -15    1    1    2    0    0 -0.91115039511E+00  0.38334521409E+01 -0.15869424673E+01  0.46045266590E+01  0.17770000000E+01 0. -1.
         15    1    1    2    0    0  0.72161307167E+01 -0.35366899152E+01 -0.68645450022E+02  0.69137083072E+02  0.17770000000E+01 0.  1.
</event>
<event>
 6    1  0.1108180E-002  0.1833752E+03  0.7546771E-02  0.1067760E+00
        -11   -1    0    0    0    0  0.00000000000E+00  0.00000000000E+00  0.18250000000E+03  0.18250000000E+03  0.00000000000E+00 0. -1.
         11   -1    0    0    0    0 -0.00000000000E+00 -0.00000000000E+00 -0.18250000000E+03  0.18250000000E+03  0.00000000000E+00 0.  1.
        -11    1    1    2    0    0  0.18569521515E+01 -0.21488986517E+01  0.80808288199E+02  0.80858181270E+02  0.00000000000E+00 0. -1.
         11    1    1    2    0    0  0.84415437938E+01  0.92453270843E+00 -0.18142614674E+03  0.18162478119E+03  0.00000000000E+00 0.  1.
        -15    1    1    2    0    0 -0.70285666497E+01  0.23043880433E+01  0.15067214356E+02  0.16878673847E+02  0.17770000000E+01 0.  1.
         15    1    1    2    0    0 -0.32699292956E+01 -0.10800221000E+01  0.85550644188E+02  0.85638363689E+02  0.17770000000E+01 0. -1.
</event>
<event>
 6    1  0.1108180E-002  0.1838098E+03  0.7546771E-02  0.1067417E+00
        -11   -1    0    0    0    0  0.00000000000E+00  0.00000000000E+00  0.18250000000E+03  0.18250000000E+03  0.00000000000E+00 0.  1.
         11   -1    0    0    0    0 -0.00000000000E+00 -0.00000000000E+00 -0.18250000000E+03  0.18250000000E+03  0.00000000000E+00 0.  1.
        -11    1    1    2    0    0  0.33613909570E+01  0.49451930995E-01  0.14807599826E+03  0.14811415413E+03  0.00000000000E+00 0.  1.
         11    1    1    2    0    0  0.25636987007E+01 -0.25386548993E+01 -0.18115426458E+03  0.18119018984E+03  0.00000000000E+00 0.  1.
        -15    1    1    2    0    0 -0.47933041336E+01  0.64551834271E+01  0.26347627726E+02  0.27604354246E+02  0.17770000000E+01 0. -1.
         15    1    1    2    0    0 -0.11317855241E+01 -0.39659804588E+01  0.67306385973E+01  0.80913017741E+01  0.17770000000E+01 0.  1.
</event>
<event>
 6    1  0.1108180E-002  0.1844733E+03  0.7546771E-02  0.1066895E+00
        -11   -1    0    0    0    0  0.00000000000E+00  0.00000000000E+00  0.18250000000E+03  0.18250000000E+03  0.00000000000E+00 0.  1.
         11   -1    0    0    0    0 -0.00000000000E+00 -0.00000000000E+00 -0.18250000000E+03  0.18250000000E+03  0.00000000000E+00 0.  1.
        -11    1    1    2    0    0 -0.89915351704E-01 -0.34590651180E+01  0.16737399524E+03  0.16740975927E+03  0.00000000000E+00 0.  1.
         11    1    1    2    0    0  0.23667410219E+01 -0.98459357863E+00 -0.18050849954E+03  0.18052669967E+03  0.00000000000E+00 0.  1.
        -15    1    1    2    0    0 -0.14446532989E+01  0.92683349399E+00 -0.76982821542E+00  0.25877418652E+01  0.17770000000E+01 0.  1.
         15    1    1    2    0    0 -0.83217237127E+00  0.35168252026E+01  0.13904332524E+02  0.14475799193E+02  0.17770000000E+01 0.  1.
</event>
<event>
 6    1  0.1108180E-002  0.1829653E+03  0.7546771E-02  0.1068085E+00
        -11   -1    0    0    0    0  0.00000000000E+00  0.00000000000E+00  0.18250000000E+03  0.18250000000E+03  0.00000000000E+00 0.  1.
         11   -1    0    0    0    0 -0.00000000000E+00 -0.00000000000E+00 -0.18250000000E+03  0.18250000000E+03  0.00000000000E+00 0. -1.
        -11    1    1    2    0    0  0.45822577382E+01  0.60178137811E+00  0.18197597506E+03  0.18203465254E+03  0.00000000000E+00 0.  1.
         11    1    1    2    0    0 -0.25390991612E+01  0.49493655717E+00 -0.16742475514E+03  0.16744473901E+03  0.00000000000E+00 0. -1.
        -15    1    1    2    0    0 -0.20746621228E+01  0.32129480463E+00 -0.10704277177E+02  0.11052001274E+02  0.17770000000E+01 0.  1.
         15    1    1    2    0    0  0.31503545787E-01 -0.14180127399E+01 -0.38469427414E+01  0.44686071722E+01  0.17770000000E+01 0. -1.
</event>
<event>
 6    1  0.1108180E-002  0.1930288E+03  0.7546771E-02  0.1060370E+00
        -11   -1    0    0    0    0  0.00000000000E+00  0.00000000000E+00  0.18250000000E+03  0.18250000000E+03  0.00000000000E+00 0. -1.
         11   -1    0    0    0    0 -0.00000000000E+00 -0.00000000000E+00 -0.18250000000E+03  0.18250000000E+03  0.00000000000E+00 0.  1.
        -11    1    1    2    0    0 -0.10234373184E+02 -0.32615102935E+01  0.16118372964E+03  0.16154124719E+03  0.00000000000E+00 0. -1.
         11    1    1    2    0    0 -0.72008987003E+00 -0.23324566548E+01 -0.17195387988E+03  0.17197120599E+03  0.00000000000E+00 0.  1.
        -15    1    1    2    0    0  0.81962556505E+01 -0.94107873746E+01 -0.20968644645E+00  0.12607268661E+02  0.17770000000E+01 0.  1.
         15    1    1    2    0    0  0.27582074033E+01  0.15004754323E+02  0.10979836690E+02  0.18880278152E+02  0.17770000000E+01 0. -1.
</event>
<event>
 6    1  0.1108180E-002  0.1747604E+03  0.7546771E-02  0.1074788E+00
        -11   -1    0    0    0    0  0.00000000000E+00  0.00000000000E+00  0.18250000000E+03  0.18250000000E+03  0.00000000000E+00 0. -1.
         11   -1    0    0    0    0 -0.00000000000E+00 -0.00000000000E+00 -0.18250000000E+03  0.18250000000E+03  0.00000000000E+00 0.  1.
        -11    1    1    2    0    0  0.59663442481E+01 -0.24846520007E+01  0.17547715260E+03  0.17559613277E+03  0.00000000000E+00 0. -1.
         11    1    1    2    0    0  0.61650296429E+01 -0.47678668790E+00 -0.17404084722E+03  0.17415065724E+03  0.00000000000E+00 0.  1.
        -15    1    1    2    0    0 -0.93379513617E+01  0.14492959345E+01  0.24561938019E+01  0.99241327748E+01  0.17770000000E+01 0. -1.
         15    1    1    2    0    0 -0.27934225293E+01  0.15121427541E+01 -0.38924991772E+01  0.53290772166E+01  0.17770000000E+01 0.  1.
</event>
<event>
 6    1  0.1108180E-002  0.1724583E+03  0.7546771E-02  0.1076741E+00
        -11   -1    0    0    0    0  0.00000000000E+00  0.00000000000E+00  0.18250000000E+03  0.18250000000E+03  0.00000000000E+00 0.  1.
         11   -1    0    0    0    0 -0.00000000000E+00 -0.00000000000E+00 -0.18250000000E+03  0.18250000000E+03  0.00000000000E+00 0. -1.
        -11    1    1    2    0    0 -0.13468097237E+01 -0.54326727111E+00  0.45879302554E+01  0.48122904929E+01  0.00000000000E+00 0.  1.
         11    1    1    2    0    0 -0.14343663449E+01  0.36356339669E+01 -0.17046509576E+03  0.17050989448E+03  0.00000000000E+00 0. -1.
        -15    1    1    2    0    0 -0.66856020666E+01  0.47267442510E+01  0.17441593138E+03  0.17461705024E+03  0.17770000000E+01 0.  1.
         15    1    1    2    0    0  0.94667781352E+01 -0.78191109468E+01 -0.85387658751E+01  0.15060764786E+02  0.17770000000E+01 0. -1.
</event>
<event>
 6    1  0.1108180E-002  0.1830700E+03  0.7546771E-02  0.1068002E+00
        -11   -1    0    0    0    0  0.00000000000E+00  0.00000000000E+00  0.18250000000E+03  0.18250000000E+03  0.00000000000E+00 0.  1.
         11   -1    0    0    0    0 -0.00000000000E+00 -0.00000000000E+00 -0.18250000000E+03  0.18250000000E+03  0.00000000000E+00 0.  1.
        -11    1    1    2    0    0 -0.35911655522E+01  0.41228320793E+01  0.18184778580E+03  0.18192996293E+03  0.00000000000E+00 0.  1.
         11    1    1    2    0    0  0.12519941115E+01  0.38890703346E+01 -0.13614042704E+03  0.13620171890E+03  0.00000000000E+00 0.  1.
        -15    1    1    2    0    0  0.32330664585E+01 -0.28875382506E+01 -0.16698467888E+02  0.17343216388E+02  0.17770000000E+01 0. -1.
         15    1    1    2    0    0 -0.89389501778E+00 -0.51243641633E+01 -0.29008890871E+02  0.29525101777E+02  0.17770000000E+01 0.  1.
</event>
<event>
 6    1  0.1108180E-002  0.1859530E+03  0.7546771E-02  0.1065739E+00
        -11   -1    0    0    0    0  0.00000000000E+00  0.00000000000E+00  0.18250000000E+03  0.18250000000E+03  0.00000000000E+00 0. -1.
         11   -1    0    0    0    0 -0.00000000000E+00 -0.00000000000E+00 -0.18250000000E+03  0.18250000000E+03  0.00000000000E+00 0. -1.
        -11    1    1    2    0    0 -0.10383937155E+00 -0.31783781026E+01  0.17641534278E+03  0.17644400256E+03  0.00000000000E+00 0. -1.
         11    1    1    2    0    0 -0.30843783202E+01  0.64388389715E+00 -0.17901927851E+03  0.17904700516E+03  0.00000000000E+00 0. -1.
        -15    1    1    2    0    0  0.30371787705E+01  0.10620204728E+01  0.49824097199E+01  0.61914843120E+01  0.17770000000E+01 0. -1.
         15    1    1    2    0    0  0.15103892122E+00  0.14724737326E+01 -0.23784739880E+01  0.33175079744E+01  0.17770000000E+01 0.  1.
</event>
<event>
 6    1  0.1108180E-002  0.1843750E+03  0.7546771E-02  0.1066972E+00
        -11   -1    0    0    0    0  0.00000000000E+00  0.00000000000E+00  0.18250000000E+03  0.18250000000E+03  0.00000000000E+00 0.  1.
         11   -1    0    0    0    0 -0.00000000000E+00 -0.00000000000E+00 -0.18250000000E+03  0.18250000000E+03  0.00000000000E+00 0.  1.
        -11    1    1    2    0    0  0.72654334481E+00 -0.19382900385E+01  0.52397859074E+02  0.52438730620E+02  0.00000000000E+00 0.  1.
         11    1    1    2    0    0  0.24910904893E+01 -0.31142492874E+01 -0.18058099146E+03  0.18062502195E+03  0.00000000000E+00 0.  1.
        -15    1    1    2    0    0 -0.62210671223E+01 -0.35047100897E+00  0.12420400206E+03  0.12437289240E+03  0.17770000000E+01 0.  1.
         15    1    1    2    0    0  0.30034332882E+01  0.54030103349E+01  0.39791303167E+01  0.75633550276E+01  0.17770000000E+01 0. -1.
</event>
<event>
 6    1  0.1108180E-002  0.1828242E+03  0.7546771E-02  0.1068197E+00
        -11   -1    0    0    0    0  0.00000000000E+00  0.00000000000E+00  0.18250000000E+03  0.18250000000E+03  0.00000000000E+00 0. -1.
         11   -1    0    0    0    0 -0.00000000000E+00 -0.00000000000E+00 -0.18250000000E+03  0.18250000000E+03  0.00000000000E+00 0.  1.
        -11    1    1    2    0    0  0.12285797469E+01  0.42503852511E+01  0.10484966871E+03  0.10494297600E+03  0.00000000000E+00 0. -1.
         11    1    1    2    0    0 -0.50410810710E+01  0.19058473624E+01 -0.18209606314E+03  0.18217579686E+03  0.00000000000E+00 0.  1.
        -15    1    1    2    0    0  0.10779620198E+01  0.80597546048E+00  0.18554225769E+02  0.18687659603E+02  0.17770000000E+01 0. -1.
         15    1    1    2    0    0  0.27345393043E+01 -0.69622080739E+01  0.58692168663E+02  0.59193567537E+02  0.17770000000E+01 0.  1.
</event>
<event>
 6    1  0.1108180E-002  0.1829163E+03  0.7546771E-02  0.1068124E+00
        -11   -1    0    0    0    0  0.00000000000E+00  0.00000000000E+00  0.18250000000E+03  0.18250000000E+03  0.00000000000E+00 0.  1.
         11   -1    0    0    0    0 -0.00000000000E+00 -0.00000000000E+00 -0.18250000000E+03  0.18250000000E+03  0.00000000000E+00 0. -1.
        -11    1    1    2    0    0  0.24844245070E+01  0.11914026951E+01  0.18206289931E+03  0.18208374752E+03  0.00000000000E+00 0.  1.
         11    1    1    2    0    0 -0.30454399934E+01 -0.16133093856E+00 -0.13847493935E+03  0.13850851801E+03  0.00000000000E+00 0. -1.
        -15    1    1    2    0    0 -0.19499717000E+00 -0.25136349602E+01 -0.60505039066E+01  0.67913703428E+01  0.17770000000E+01 0. -1.
         15    1    1    2    0    0  0.75601265638E+00  0.14835632037E+01 -0.37537456048E+02  0.37616364131E+02  0.17770000000E+01 0.  1.
</event>
<event>
 6    1  0.1108180E-002  0.1888418E+03  0.7546771E-02  0.1063516E+00
        -11   -1    0    0    0    0  0.00000000000E+00  0.00000000000E+00  0.18250000000E+03  0.18250000000E+03  0.00000000000E+00 0.  1.
         11   -1    0    0    0    0 -0.00000000000E+00 -0.00000000000E+00 -0.18250000000E+03  0.18250000000E+03  0.00000000000E+00 0.  1.
        -11    1    1    2    0    0  0.11134565505E+02 -0.35413849031E+01  0.12430918045E+03  0.12485708750E+03  0.00000000000E+00 0.  1.
         11    1    1    2    0    0 -0.24520493855E+02  0.32241972242E+01 -0.17441352721E+03  0.17615824857E+03  0.00000000000E+00 0.  1.
        -15    1    1    2    0    0  0.23811571231E+02  0.81366236139E+01  0.40440812860E+02  0.47663535770E+02  0.17770000000E+01 0. -1.
         15    1    1    2    0    0 -0.10425642882E+02 -0.78194359350E+01  0.96635338986E+01  0.16321128155E+02  0.17770000000E+01 0.  1.
</event>
<event>
 6    1  0.1108180E-002  0.1539809E+03  0.7546771E-02  0.1093735E+00
        -11   -1    0    0    0    0  0.00000000000E+00  0.00000000000E+00  0.18250000000E+03  0.18250000000E+03  0.00000000000E+00 0.  1.
         11   -1    0    0    0    0 -0.00000000000E+00 -0.00000000000E+00 -0.18250000000E+03  0.18250000000E+03  0.00000000000E+00 0.  1.
        -11    1    1    2    0    0 -0.24685412171E+01 -0.12964500996E+00  0.15463755209E+03  0.15465730833E+03  0.00000000000E+00 0.  1.
         11    1    1    2    0    0 -0.48477400978E+01 -0.21747336299E+01 -0.15331083512E+03  0.15340287551E+03  0.00000000000E+00 0.  1.
        -15    1    1    2    0    0  0.22001720694E+02  0.83731723747E+01 -0.20994409951E+02  0.31592858486E+02  0.17770000000E+01 0.  1.
         15    1    1    2    0    0 -0.14685439379E+02 -0.60687937348E+01  0.19667692979E+02  0.25346957673E+02  0.17770000000E+01 0. -1.
</event>
<event>
 6    1  0.1108180E-002  0.1831364E+03  0.7546771E-02  0.1067949E+00
        -11   -1    0    0    0    0  0.00000000000E+00  0.00000000000E+00  0.18250000000E+03  0.18250000000E+03  0.00000000000E+00 0.  1.
         11   -1    0    0    0    0 -0.00000000000E+00 -0.00000000000E+00 -0.18250000000E+03  0.18250000000E+03  0.00000000000E+00 0. -1.
        -11    1    1    2    0    0  0.34292543458E+01 -0.69658826929E+00  0.14770926942E+03  0.14775071335E+03  0.00000000000E+00 0.  1.
         11    1    1    2    0    0 -0.86914614300E+00  0.29450794448E+01 -0.18183763131E+03  0.18186355619E+03  0.00000000000E+00 0. -1.
        -15    1    1    2    0    0 -0.38160545928E+01  0.92954214330E+00  0.26412070797E+02  0.26761568228E+02  0.17770000000E+01 0. -1.
         15    1    1    2    0    0  0.12559463900E+01 -0.31780333188E+01  0.77162910926E+01  0.86241622397E+01  0.17770000000E+01 0.  1.
</event>
<event>
 6    1  0.1108180E-002  0.1826380E+03  0.7546771E-02  0.1068345E+00
        -11   -1    0    0    0    0  0.00000000000E+00  0.00000000000E+00  0.18250000000E+03  0.18250000000E+03  0.00000000000E+00 0. -1.
         11   -1    0    0    0    0 -0.00000000000E+00 -0.00000000000E+00 -0.18250000000E+03  0.18250000000E+03  0.00000000000E+00 0. -1.
        -11    1    1    2    0    0  0.27819227247E+01 -0.20610820863E+01  0.18232915302E+03  0.18236202234E+03  0.00000000000E+00 0. -1.
         11    1    1    2    0    0  0.15529829290E+01  0.11848951664E+01 -0.18586923835E+02  0.18689287578E+02  0.00000000000E+00 0. -1.
        -15    1    1    2    0    0 -0.55630991944E+01  0.68254124408E+00 -0.10293165317E+03  0.10309945144E+03  0.17770000000E+01 0. -1.
         15    1    1    2    0    0  0.12281935407E+01  0.19364567582E+00 -0.60810576016E+02  0.60849238635E+02  0.17770000000E+01 0.  1.
</event>
<event>
 6    1  0.1108180E-002  0.1772765E+03  0.7546771E-02  0.1072690E+00
        -11   -1    0    0    0    0  0.00000000000E+00  0.00000000000E+00  0.18250000000E+03  0.18250000000E+03  0.00000000000E+00 0. -1.
         11   -1    0    0    0    0 -0.00000000000E+00 -0.00000000000E+00 -0.18250000000E+03  0.18250000000E+03  0.00000000000E+00 0.  1.
        -11    1    1    2    0    0  0.12396531533E+01 -0.24437014134E+01  0.17747235529E+03  0.17749350779E+03  0.00000000000E+00 0. -1.
         11    1    1    2    0    0 -0.32301006004E+01  0.33057121391E+01 -0.17700606262E+03  0.17706639288E+03  0.00000000000E+00 0.  1.
        -15    1    1    2    0    0 -0.57804266810E+00  0.14223740626E+01  0.39332450469E+01  0.45809853633E+01  0.17770000000E+01 0. -1.
         15    1    1    2    0    0  0.25684901152E+01 -0.22843847883E+01 -0.43995377119E+01  0.58591139613E+01  0.17770000000E+01 0. -1.
</event>
<event>
 6    1  0.1108180E-002  0.1855332E+03  0.7546771E-02  0.1066066E+00
        -11   -1    0    0    0    0  0.00000000000E+00  0.00000000000E+00  0.18250000000E+03  0.18250000000E+03  0.00000000000E+00 0. -1.
         11   -1    0    0    0    0 -0.00000000000E+00 -0.00000000000E+00 -0.18250000000E+03  0.18250000000E+03  0.00000000000E+00 0.  1.
        -11    1    1    2    0    0 -0.35596734888E+01  0.70131234081E+01  0.12838451762E+03  0.12862519015E+03  0.00000000000E+00 0. -1.
         11    1    1    2    0    0  0.89179290746E+01  0.17740606872E+02 -0.17836504810E+03  0.17946684645E+03  0.00000000000E+00 0.  1.
        -15    1    1    2    0    0 -0.46462380773E+00 -0.55680935985E+01  0.20717210735E+02  0.21530910135E+02  0.17770000000E+01 0. -1.
         15    1    1    2    0    0 -0.48936317781E+01 -0.19185636681E+02  0.29263319738E+02  0.35377053269E+02  0.17770000000E+01 0.  1.
</event>
<event>
 6    1  0.1108180E-002  0.1843670E+03  0.7546771E-02  0.1066978E+00
        -11   -1    0    0    0    0  0.00000000000E+00  0.00000000000E+00  0.18250000000E+03  0.18250000000E+03  0.00000000000E+00 0. -1.
         11   -1    0    0    0    0 -0.00000000000E+00 -0.00000000000E+00 -0.18250000000E+03  0.18250000000E+03  0.00000000000E+00 0.  1.
        -11    1    1    2    0    0  0.61295658345E+00 -0.14502266548E+01  0.10211298198E+03  0.10212511915E+03  0.00000000000E+00 0. -1.
         11    1    1    2    0    0 -0.10769745129E+02  0.40494851014E+01 -0.18026618934E+03  0.18063301126E+03  0.00000000000E+00 0.  1.
        -15    1    1    2    0    0 -0.38048391846E+01 -0.89588999688E-01  0.54085393512E+02  0.54248247417E+02  0.17770000000E+01 0. -1.
         15    1    1    2    0    0  0.13961627731E+02 -0.25096694468E+01  0.24067813844E+02  0.27993622164E+02  0.17770000000E+01 0. -1.
</event>
<event>
 6    1  0.1108180E-002  0.1828025E+03  0.7546771E-02  0.1068214E+00
        -11   -1    0    0    0    0  0.00000000000E+00  0.00000000000E+00  0.18250000000E+03  0.18250000000E+03  0.00000000000E+00 0.  1.
         11   -1    0    0    0    0 -0.00000000000E+00 -0.00000000000E+00 -0.18250000000E+03  0.18250000000E+03  0.00000000000E+00 0. -1.
        -11    1    1    2    0    0  0.24879359571E+01 -0.25314554557E+01  0.18216295489E+03  0.18219753079E+03  0.00000000000E+00 0.  1.
         11    1    1    2    0    0 -0.76163909009E+00  0.19768062835E+01 -0.12802621260E+03  0.12804373850E+03  0.00000000000E+00 0. -1.
        -15    1    1    2    0    0 -0.55524326853E+00  0.13319444963E+01 -0.49914874179E+02  0.49967336976E+02  0.17770000000E+01 0. -1.
         15    1    1    2    0    0 -0.11710535985E+01 -0.77729532412E+00 -0.42218681123E+01  0.47913937335E+01  0.17770000000E+01 0.  1.
</event>
<event>
 6    1  0.1108180E-002  0.1826528E+03  0.7546771E-02  0.1068333E+00
        -11   -1    0    0    0    0  0.00000000000E+00  0.00000000000E+00  0.18250000000E+03  0.18250000000E+03  0.00000000000E+00 0. -1.
         11   -1    0    0    0    0 -0.00000000000E+00 -0.00000000000E+00 -0.18250000000E+03  0.18250000000E+03  0.00000000000E+00 0. -1.
        -11    1    1    2    0    0  0.57826126861E+00  0.14390463769E+01  0.95117080539E+02  0.95129723277E+02  0.00000000000E+00 0. -1.
         11    1    1    2    0    0 -0.25814030190E-01  0.29875510412E+01 -0.18232272756E+03  0.18234720484E+03  0.00000000000E+00 0. -1.
        -15    1    1    2    0    0 -0.16664555879E+01 -0.37655656469E+01  0.37245282718E+02  0.37514335561E+02  0.17770000000E+01 0. -1.
         15    1    1    2    0    0  0.11140083495E+01 -0.66103177120E+00  0.49960364306E+02  0.50008736319E+02  0.17770000000E+01 0.  1.
</event>
<event>
 6    1  0.1108180E-002  0.1853628E+03  0.7546771E-02  0.1066199E+00
        -11   -1    0    0    0    0  0.00000000000E+00  0.00000000000E+00  0.18250000000E+03  0.18250000000E+03  0.00000000000E+00 0. -1.
         11   -1    0    0    0    0 -0.00000000000E+00 -0.00000000000E+00 -0.18250000000E+03  0.18250000000E+03  0.00000000000E+00 0. -1.
        -11    1    1    2    0    0  0.10358540146E+01 -0.32342160744E+01  0.17960510947E+03  0.17963721356E+03  0.00000000000E+00 0. -1.
         11    1    1    2    0    0 -0.48129847263E+01 -0.38251167248E+01 -0.16938100645E+03  0.16949254169E+03  0.00000000000E+00 0. -1.
        -15    1    1    2    0    0 -0.16127923575E+01  0.21677340641E+01 -0.49040625258E-01  0.32342393455E+01  0.17770000000E+01 0. -1.
         15    1    1    2    0    0  0.53899230692E+01  0.48915987352E+01 -0.10175062396E+02  0.12636005406E+02  0.17770000000E+01 0.  1.
</event>
<event>
 6    1  0.1108180E-002  0.1828664E+03  0.7546771E-02  0.1068164E+00
        -11   -1    0    0    0    0  0.00000000000E+00  0.00000000000E+00  0.18250000000E+03  0.18250000000E+03  0.00000000000E+00 0. -1.
         11   -1    0    0    0    0 -0.00000000000E+00 -0.00000000000E+00 -0.18250000000E+03  0.18250000000E+03  0.00000000000E+00 0.  1.
        -11    1    1    2    0    0  0.10268737802E+00  0.41444068633E+01  0.18208640597E+03  0.18213359353E+03  0.00000000000E+00 0. -1.
         11    1    1    2    0    0 -0.35835255177E+00  0.62534895055E+00 -0.28071596510E+02  0.28080847717E+02  0.00000000000E+00 0.  1.
        -15    1    1    2    0    0 -0.60674053768E+00 -0.85139257305E+01 -0.55570454707E+02  0.56250228718E+02  0.17770000000E+01 0.  1.
         15    1    1    2    0    0  0.86240571143E+00  0.37441699166E+01 -0.98444354757E+02  0.98535330032E+02  0.17770000000E+01 0.  1.
</event>
<event>
 6    1  0.1108180E-002  0.1871494E+03  0.7546771E-02  0.1064813E+00
        -11   -1    0    0    0    0  0.00000000000E+00  0.00000000000E+00  0.18250000000E+03  0.18250000000E+03  0.00000000000E+00 0. -1.
         11   -1    0    0    0    0 -0.00000000000E+00 -0.00000000000E+00 -0.18250000000E+03  0.18250000000E+03  0.00000000000E+00 0.  1.
        -11    1    1    2    0    0  0.42121897656E+01  0.27117168628E+01  0.16778046673E+03  0.16785523813E+03  0.00000000000E+00 0. -1.
         11    1    1    2    0    0 -0.37796153741E+01  0.13704598889E+01 -0.17780513773E+03  0.17785058520E+03  0.00000000000E+00 0.  1.
        -15    1    1    2    0    0 -0.24349799179E+01 -0.66578018563E+01  0.12743564206E+02  0.14690527915E+02  0.17770000000E+01 0.  1.
         15    1    1    2    0    0  0.20024055264E+01  0.25756251047E+01 -0.27188932092E+01  0.46036487545E+01  0.17770000000E+01 0. -1.
</event>
<event>
 6    1  0.1108180E-002  0.1827409E+03  0.7546771E-02  0.1068263E+00
        -11   -1    0    0    0    0  0.00000000000E+00  0.00000000000E+00  0.18250000000E+03  0.18250000000E+03  0.00000000000E+00 0.  1.
         11   -1    0    0    0    0 -0.00000000000E+00 -0.00000000000E+00 -0.18250000000E+03  0.18250000000E+03  0.00000000000E+00 0. -1.
        -11    1    1    2    0    0  0.46139245277E-01 -0.37388251334E+01  0.18222074399E+03  0.18225910261E+03  0.00000000000E+00 0.  1.
         11    1    1    2    0    0 -0.36946703327E+00  0.35251524777E+00 -0.13545123777E+02  0.13554746439E+02  0.00000000000E+00 0. -1.
        -15    1    1    2    0    0  0.26447802503E+01 -0.95826186770E+00 -0.13979679917E+03  0.13983638981E+03  0.17770000000E+01 0. -1.
         15    1    1    2    0    0 -0.23214524623E+01  0.43445717533E+01 -0.28878821043E+02  0.29349761142E+02  0.17770000000E+01 0. -1.
</event>
<event>
 6    1  0.1108180E-002  0.1234542E+03  0.7546771E-02  0.1128497E+00
        -11   -1    0    0    0    0  0.00000000000E+00  0.00000000000E+00  0.18250000000E+03  0.18250000000E+03  0.00000000000E+00 0.  1.
         11   -1    0    0    0    0 -0.00000000000E+00 -0.00000000000E+00 -0.18250000000E+03  0.18250000000E+03  0.00000000000E+00 0.  1.
        -11    1    1    2    0    0  0.10632540162E+01 -0.34133886669E+01  0.15339822585E+03  0.15343988212E+03  0.00000000000E+00 0.  1.
         11    1    1    2    0    0 -0.12931933498E+00 -0.16379810343E+01 -0.10095062313E+02  0.10227902447E+02  0.00000000000E+00 0.  1.
        -15    1    1    2    0    0 -0.86192201239E+01 -0.67257768421E+02 -0.58178349377E+02  0.89363171574E+02  0.17770000000E+01 0.  1.
         15    1    1    2    0    0  0.76852854427E+01  0.72309138122E+02 -0.85124814158E+02  0.11196904386E+03  0.17770000000E+01 0. -1.
</event>
<event>
 6    1  0.1108180E-002  0.1833677E+03  0.7546771E-02  0.1067766E+00
        -11   -1    0    0    0    0  0.00000000000E+00  0.00000000000E+00  0.18250000000E+03  0.18250000000E+03  0.00000000000E+00 0. -1.
         11   -1    0    0    0    0 -0.00000000000E+00 -0.00000000000E+00 -0.18250000000E+03  0.18250000000E+03  0.00000000000E+00 0.  1.
        -11    1    1    2    0    0 -0.19488717955E+01  0.28906410194E+01  0.12605681142E+03  0.12610501026E+03  0.00000000000E+00 0. -1.
         11    1    1    2    0    0 -0.75104739717E+01  0.26655307991E+01 -0.18145741190E+03  0.18163233359E+03  0.00000000000E+00 0.  1.
        -15    1    1    2    0    0  0.76375967856E+01 -0.56437328713E+01  0.25748358319E+02  0.27501277979E+02  0.17770000000E+01 0. -1.
         15    1    1    2    0    0  0.18217489816E+01  0.87561052895E-01  0.29652242157E+02  0.29761378164E+02  0.17770000000E+01 0.  1.
</event>
<event>
 6    1  0.1997045E-002  0.1832329E+03  0.7546771E-02  0.1067873E+00
        -11   -1    0    0    0    0  0.00000000000E+00  0.00000000000E+00  0.18250000000E+03  0.18250000000E+03  0.00000000000E+00 0.  1.
         11   -1    0    0    0    0 -0.00000000000E+00 -0.00000000000E+00 -0.18250000000E+03  0.18250000000E+03  0.00000000000E+00 0.  1.
        -11    1    1    2    0    0 -0.29945984092E+01  0.27957161172E+01  0.18172094656E+03  0.18176712043E+03  0.00000000000E+00 0.  1.
         11    1    1    2    0    0  0.37751140932E+00  0.66822794947E+00 -0.27848346228E+02  0.27858920135E+02  0.00000000000E+00 0.  1.
        -15    1    1    2    0    0 -0.74809258918E+00  0.63120874543E+00 -0.14410814858E+03  0.14412242811E+03  0.17770000000E+01 0.  1.
         15    1    1    2    0    0  0.33651795891E+01 -0.40951528121E+01 -0.97644517510E+01  0.11251531328E+02  0.17770000000E+01 0.  1.
</event>
<event>
 6    1  0.1108180E-002  0.1835090E+03  0.7546771E-02  0.1067654E+00
        -11   -1    0    0    0    0  0.00000000000E+00  0.00000000000E+00  0.18250000000E+03  0.18250000000E+03  0.00000000000E+00 0. -1.
         11   -1    0    0    0    0 -0.00000000000E+00 -0.00000000000E+00 -0.18250000000E+03  0.18250000000E+03  0.00000000000E+00 0. -1.
        -11    1    1    2    0    0 -0.98435795559E+00  0.35002637481E+01  0.18145460425E+03  0.18149103066E+03  0.00000000000E+00 0. -1.
         11    1    1    2    0    0 -0.27283689043E+01  0.24213707112E+01 -0.14515135970E+03  0.14519719094E+03  0.00000000000E+00 0. -1.
        -15    1    1    2    0    0  0.17303177501E+01  0.10057377561E+01 -0.23650880369E+01  0.35716772492E+01  0.17770000000E+01 0. -1.
         15    1    1    2    0    0  0.19824091098E+01 -0.69273722153E+01 -0.33938156512E+02  0.34740101153E+02  0.17770000000E+01 0. -1.
</event>
<event>
 6    1  0.1108180E-002  0.1826251E+03  0.7546771E-02  0.1068355E+00
        -11   -1    0    0    0    0  0.00000000000E+00  0.00000000000E+00  0.18250000000E+03  0.18250000000E+03  0.00000000000E+00 0.  1.
         11   -1    0    0    0    0 -0.00000000000E+00 -0.00000000000E+00 -0.18250000000E+03  0.18250000000E+03  0.00000000000E+00 0. -1.
        -11    1    1    2    0    0 -0.32834218421E+00 -0.51756602029E+01  0.18230110085E+03  0.18237485199E+03  0.00000000000E+00 0.  1.
         11    1    1    2    0    0  0.51453214120E+00  0.10114219976E+01 -0.72443854975E+02  0.72452742125E+02  0.00000000000E+00 0. -1.
        -15    1    1    2    0    0  0.15336968534E+01  0.92097802712E+00 -0.79786100923E+02  0.79825935986E+02  0.17770000000E+01 0. -1.
         15    1    1    2    0    0 -0.17198868104E+01  0.32432601781E+01 -0.30071144955E+02  0.30346469896E+02  0.17770000000E+01 0.  1.
</event>
<event>
 6    1  0.1108180E-002  0.2040164E+03  0.7546771E-02  0.1052511E+00
        -11   -1    0    0    0    0  0.00000000000E+00  0.00000000000E+00  0.18250000000E+03  0.18250000000E+03  0.00000000000E+00 0. -1.
         11   -1    0    0    0    0 -0.00000000000E+00 -0.00000000000E+00 -0.18250000000E+03  0.18250000000E+03  0.00000000000E+00 0.  1.
        -11    1    1    2    0    0 -0.23500707293E+01 -0.15879298468E+01  0.16095860567E+03  0.16098359262E+03  0.00000000000E+00 0. -1.
         11    1    1    2    0    0 -0.34768312077E+01 -0.41641100026E+01 -0.99867423578E+02  0.10001465122E+03  0.00000000000E+00 0.  1.
        -15    1    1    2    0    0  0.31073560515E+02 -0.17410237791E+01 -0.69605741722E+02  0.76267387109E+02  0.17770000000E+01 0.  1.
         15    1    1    2    0    0 -0.25246658578E+02  0.74930636286E+01  0.85145596336E+01  0.27734369051E+02  0.17770000000E+01 0. -1.
</event>
<event>
 6    1  0.1108180E-002  0.1840471E+03  0.7546771E-02  0.1067230E+00
        -11   -1    0    0    0    0  0.00000000000E+00  0.00000000000E+00  0.18250000000E+03  0.18250000000E+03  0.00000000000E+00 0. -1.
         11   -1    0    0    0    0 -0.00000000000E+00 -0.00000000000E+00 -0.18250000000E+03  0.18250000000E+03  0.00000000000E+00 0.  1.
        -11    1    1    2    0    0 -0.41113385410E+01  0.97717446869E+00  0.16107408800E+03  0.16112951250E+03  0.00000000000E+00 0. -1.
         11    1    1    2    0    0 -0.32771304715E+01  0.44283894752E+01 -0.18086904706E+03  0.18095292869E+03  0.00000000000E+00 0.  1.
        -15    1    1    2    0    0  0.31810462505E+01  0.74262309816E+00  0.47231851811E+01  0.60113851622E+01  0.17770000000E+01 0. -1.
         15    1    1    2    0    0  0.42074227620E+01 -0.61481870421E+01  0.15071773881E+02  0.16906173640E+02  0.17770000000E+01 0. -1.
</event>
<event>
 6    1  0.1108180E-002  0.1837791E+03  0.7546771E-02  0.1067441E+00
        -11   -1    0    0    0    0  0.00000000000E+00  0.00000000000E+00  0.18250000000E+03  0.18250000000E+03  0.00000000000E+00 0. -1.
         11   -1    0    0    0    0 -0.00000000000E+00 -0.00000000000E+00 -0.18250000000E+03  0.18250000000E+03  0.00000000000E+00 0.  1.
        -11    1    1    2    0    0 -0.20116073995E+01  0.22775482959E+01  0.18119537978E+03  0.18122085819E+03  0.00000000000E+00 0. -1.
         11    1    1    2    0    0 -0.60791249383E+01  0.63231850884E+01 -0.86479847422E+02  0.86923543645E+02  0.00000000000E+00 0.  1.
        -15    1    1    2    0    0  0.63073478764E+01 -0.69085872416E+01 -0.92757886356E+02  0.93245345327E+02  0.17770000000E+01 0. -1.
         15    1    1    2    0    0  0.17833844614E+01 -0.16921461427E+01 -0.19576459975E+01  0.36102528384E+01  0.17770000000E+01 0.  1.
</event>
<event>
 6    1  0.1108180E-002  0.1635811E+03  0.7546771E-02  0.1084599E+00
        -11   -1    0    0    0    0  0.00000000000E+00  0.00000000000E+00  0.18250000000E+03  0.18250000000E+03  0.00000000000E+00 0. -1.
         11   -1    0    0    0    0 -0.00000000000E+00 -0.00000000000E+00 -0.18250000000E+03  0.18250000000E+03  0.00000000000E+00 0. -1.
        -11    1    1    2    0    0 -0.11852240882E+02 -0.65419622231E+01  0.16659060031E+03  0.16713976485E+03  0.00000000000E+00 0. -1.
         11    1    1    2    0    0 -0.53758157180E-01  0.41351105073E+01 -0.16025573347E+03  0.16030908314E+03  0.00000000000E+00 0. -1.
        -15    1    1    2    0    0 -0.58879535589E+01 -0.12568609353E+01 -0.15791263154E+02  0.16993216809E+02  0.17770000000E+01 0.  1.
         15    1    1    2    0    0  0.17793952598E+02  0.36637126511E+01  0.94563963110E+01  0.20557935199E+02  0.17770000000E+01 0. -1.
</event>
<event>
 6    1  0.1108180E-002  0.1827289E+03  0.7546771E-02  0.1068273E+00
        -11   -1    0    0    0    0  0.00000000000E+00  0.00000000000E+00  0.18250000000E+03  0.18250000000E+03  0.00000000000E+00 0.  1.
         11   -1    0    0    0    0 -0.00000000000E+00 -0.00000000000E+00 -0.18250000000E+03  0.18250000000E+03  0.00000000000E+00 0. -1.
        -11    1    1    2    0    0 -0.82809449726E+00  0.25434300862E+01  0.96192526532E+02  0.96229709226E+02  0.00000000000E+00 0.  1.
         11    1    1    2    0    0  0.23865083104E+01  0.70717115376E+00 -0.18225410119E+03  0.18227109731E+03  0.00000000000E+00 0. -1.
        -15    1    1    2    0    0 -0.13989251997E+01  0.13357464514E+01  0.12488676997E+02  0.12761896114E+02  0.17770000000E+01 0. -1.
         15    1    1    2    0    0 -0.15948861345E+00 -0.45863476914E+01  0.73572897660E+02  0.73737297353E+02  0.17770000000E+01 0.  1.
</event>
<event>
 6    1  0.1108180E-002  0.1763126E+03  0.7546771E-02  0.1073490E+00
        -11   -1    0    0    0    0  0.00000000000E+00  0.00000000000E+00  0.18250000000E+03  0.18250000000E+03  0.00000000000E+00 0. -1.
         11   -1    0    0    0    0 -0.00000000000E+00 -0.00000000000E+00 -0.18250000000E+03  0.18250000000E+03  0.00000000000E+00 0.  1.
        -11    1    1    2    0    0 -0.31279916115E+01  0.95801530160E-01  0.17639428662E+03  0.17642204472E+03  0.00000000000E+00 0. -1.
         11    1    1    2    0    0  0.33760984976E+01  0.11430228914E+01 -0.17616936352E+03  0.17620541758E+03  0.00000000000E+00 0.  1.
        -15    1    1    2    0    0  0.17458209344E+01  0.17023168953E+01  0.49811697991E+01  0.58237063040E+01  0.17770000000E+01 0. -1.
         15    1    1    2    0    0 -0.19939278205E+01 -0.29411413169E+01 -0.52060928999E+01  0.65488313982E+01  0.17770000000E+01 0.  1.
</event>
<event>
 6    1  0.1108180E-002  0.1847390E+03  0.7546771E-02  0.1066686E+00
        -11   -1    0    0    0    0  0.00000000000E+00  0.00000000000E+00  0.18250000000E+03  0.18250000000E+03  0.00000000000E+00 0.  1.
         11   -1    0    0    0    0 -0.00000000000E+00 -0.00000000000E+00 -0.18250000000E+03  0.18250000000E+03  0.00000000000E+00 0.  1.
        -11    1    1    2    0    0  0.34276677190E+01 -0.28793015159E+01  0.18020540189E+03  0.18026099455E+03  0.00000000000E+00 0.  1.
         11    1    1    2    0    0 -0.45028669047E+01  0.75126403050E+01 -0.15510063898E+03  0.15534775115E+03  0.00000000000E+00 0.  1.
        -15    1    1    2    0    0 -0.14623852668E+00  0.44209172987E+01 -0.36475837874E+01  0.60023738600E+01  0.17770000000E+01 0. -1.
         15    1    1    2    0    0  0.12214377124E+01 -0.90542560878E+01 -0.21457179126E+02  0.23388880444E+02  0.17770000000E+01 0.  1.
</event>
<event>
 6    1  0.1108180E-002  0.1902458E+03  0.7546771E-02  0.1062451E+00
        -11   -1    0    0    0    0  0.00000000000E+00  0.00000000000E+00  0.18250000000E+03  0.18250000000E+03  0.00000000000E+00 0.  1.
         11   -1    0    0    0    0 -0.00000000000E+00 -0.00000000000E+00 -0.18250000000E+03  0.18250000000E+03  0.00000000000E+00 0. -1.
        -11    1    1    2    0    0 -0.17490440441E+01  0.20892145245E+02  0.17349202151E+03  0.17475417710E+03  0.00000000000E+00 0.  1.
         11    1    1    2    0    0 -0.50405658170E+01 -0.40177637560E+01 -0.10409545779E+03  0.10429484198E+03  0.00000000000E+00 0. -1.
        -15    1    1    2    0    0 -0.12273093155E+02 -0.13644342520E+02 -0.56063351032E+01  0.19271367899E+02  0.17770000000E+01 0.  1.
         15    1    1    2    0    0  0.19062703017E+02 -0.32300389700E+01 -0.63790228608E+02  0.66679613023E+02  0.17770000000E+01 0. -1.
</event>
<event>
 6    1  0.1108180E-002  0.1825581E+03  0.7546771E-02  0.1068409E+00
        -11   -1    0    0    0    0  0.00000000000E+00  0.00000000000E+00  0.18250000000E+03  0.18250000000E+03  0.00000000000E+00 0.  1.
         11   -1    0    0    0    0 -0.00000000000E+00 -0.00000000000E+00 -0.18250000000E+03  0.18250000000E+03  0.00000000000E+00 0. -1.
        -11    1    1    2    0    0  0.40966187017E+00  0.87197233142E+00  0.50205720748E+02  0.50214963451E+02  0.00000000000E+00 0.  1.
         11    1    1    2    0    0  0.30822755121E+01 -0.82138900178E+00 -0.18241403715E+03  0.18244192514E+03  0.00000000000E+00 0. -1.
        -15    1    1    2    0    0 -0.21473894525E+01 -0.84442352978E+00  0.10227950684E+03  0.10232096355E+03  0.17770000000E+01 0.  1.
         15    1    1    2    0    0 -0.13445479298E+01  0.79384020013E+00  0.29928809557E+02  0.30022147856E+02  0.17770000000E+01 0. -1.
</event>
<event>
 6    1  0.1108180E-002  0.1830153E+03  0.7546771E-02  0.1068045E+00
        -11   -1    0    0    0    0  0.00000000000E+00  0.00000000000E+00  0.18250000000E+03  0.18250000000E+03  0.00000000000E+00 0.  1.
         11   -1    0    0    0    0 -0.00000000000E+00 -0.00000000000E+00 -0.18250000000E+03  0.18250000000E+03  0.00000000000E+00 0. -1.
        -11    1    1    2    0    0 -0.41121261786E+00 -0.17797989465E+01  0.12507398985E+03  0.12508732837E+03  0.00000000000E+00 0.  1.
         11    1    1    2    0    0 -0.43430286196E+01 -0.28070586060E+01 -0.18191117641E+03  0.18198466303E+03  0.00000000000E+00 0. -1.
        -15    1    1    2    0    0  0.31550031158E+01  0.35760590635E+01  0.12246625698E+02  0.13261968673E+02  0.17770000000E+01 0. -1.
         15    1    1    2    0    0  0.15992381216E+01  0.10107984890E+01  0.44590560860E+02  0.44666039929E+02  0.17770000000E+01 0. -1.
</event>
<event>
 6    1  0.1108180E-002  0.1841706E+03  0.7546771E-02  0.1067133E+00
        -11   -1    0    0    0    0  0.00000000000E+00  0.00000000000E+00  0.18250000000E+03  0.18250000000E+03  0.00000000000E+00 0.  1.
         11   -1    0    0    0    0 -0.00000000000E+00 -0.00000000000E+00 -0.18250000000E+03  0.18250000000E+03  0.00000000000E+00 0. -1.
        -11    1    1    2    0    0  0.15849235126E+01  0.36315552383E+01  0.16189054921E+03  0.16193903205E+03  0.00000000000E+00 0.  1.
         11    1    1    2    0    0  0.21179818396E+01 -0.18083885606E+01 -0.18080794929E+03  0.18082939651E+03  0.00000000000E+00 0. -1.
        -15    1    1    2    0    0  0.18697829567E+01  0.20351345246E+01  0.18246501414E+01  0.37583158431E+01  0.17770000000E+01 0. -1.
         15    1    1    2    0    0 -0.55726883089E+01 -0.38583012023E+01  0.17092749936E+02  0.18473255602E+02  0.17770000000E+01 0.  1.
</event>
<event>
 6    1  0.1108180E-002  0.1825615E+03  0.7546771E-02  0.1068406E+00
        -11   -1    0    0    0    0  0.00000000000E+00  0.00000000000E+00  0.18250000000E+03  0.18250000000E+03  0.00000000000E+00 0.  1.
         11   -1    0    0    0    0 -0.00000000000E+00 -0.00000000000E+00 -0.18250000000E+03  0.18250000000E+03  0.00000000000E+00 0. -1.
        -11    1    1    2    0    0 -0.38384106642E+00 -0.34136026516E+01  0.18240611705E+03  0.18243845963E+03  0.00000000000E+00 0.  1.
         11    1    1    2    0    0  0.11420032602E+01  0.14731362149E+01 -0.10416204707E+03  0.10417872313E+03  0.00000000000E+00 0. -1.
        -15    1    1    2    0    0 -0.13024882152E+01  0.39791056789E+00 -0.39876250471E+02  0.39939052179E+02  0.17770000000E+01 0. -1.
         15    1    1    2    0    0  0.54432602137E+00  0.15425558688E+01 -0.38367819505E+02  0.38443765061E+02  0.17770000000E+01 0.  1.
</event>
<event>
 6    1  0.1108180E-002  0.1832732E+03  0.7546771E-02  0.1067841E+00
        -11   -1    0    0    0    0  0.00000000000E+00  0.00000000000E+00  0.18250000000E+03  0.18250000000E+03  0.00000000000E+00 0.  1.
         11   -1    0    0    0    0 -0.00000000000E+00 -0.00000000000E+00 -0.18250000000E+03  0.18250000000E+03  0.00000000000E+00 0. -1.
        -11    1    1    2    0    0  0.19470189603E+01 -0.22342368070E+01  0.18170262479E+03  0.18172679096E+03  0.00000000000E+00 0.  1.
         11    1    1    2    0    0  0.15225036203E+01  0.24027320666E+01 -0.12324264144E+03  0.12327546312E+03  0.00000000000E+00 0. -1.
        -15    1    1    2    0    0 -0.67901063739E+01 -0.14791755217E+01 -0.18541941067E+02  0.19881016381E+02  0.17770000000E+01 0.  1.
         15    1    1    2    0    0  0.33205837934E+01  0.13106802621E+01 -0.39918042287E+02  0.40116729534E+02  0.17770000000E+01 0. -1.
</event>
<event>
 6    1  0.1108180E-002  0.1864224E+03  0.7546771E-02  0.1065375E+00
        -11   -1    0    0    0    0  0.00000000000E+00  0.00000000000E+00  0.18250000000E+03  0.18250000000E+03  0.00000000000E+00 0. -1.
         11   -1    0    0    0    0 -0.00000000000E+00 -0.00000000000E+00 -0.18250000000E+03  0.18250000000E+03  0.00000000000E+00 0.  1.
        -11    1    1    2    0    0  0.28033832958E+01  0.44335537261E+01  0.16763034220E+03  0.16771239365E+03  0.00000000000E+00 0. -1.
         11    1    1    2    0    0 -0.52532465216E+01 -0.49675274044E+01 -0.17843118236E+03  0.17857760152E+03  0.00000000000E+00 0.  1.
        -15    1    1    2    0    0  0.67290230011E+01  0.48984203736E+01  0.40290649809E+01  0.94162288803E+01  0.17770000000E+01 0. -1.
         15    1    1    2    0    0 -0.42791597753E+01 -0.43644466953E+01  0.67717751749E+01  0.92937759473E+01  0.17770000000E+01 0. -1.
</event>
<event>
 6    1  0.1108180E-002  0.1674540E+03  0.7546771E-02  0.1081105E+00
        -11   -1    0    0    0    0  0.00000000000E+00  0.00000000000E+00  0.18250000000E+03  0.18250000000E+03  0.00000000000E+00 0. -1.
         11   -1    0    0    0    0 -0.00000000000E+00 -0.00000000000E+00 -0.18250000000E+03  0.18250000000E+03  0.00000000000E+00 0. -1.
        -11    1    1    2    0    0 -0.17948277556E+02  0.22819595647E+01  0.17279263679E+03  0.17373728251E+03  0.00000000000E+00 0. -1.
         11    1    1    2    0    0 -0.44255880447E+01  0.52573124893E+00 -0.16203994612E+03  0.16210122258E+03  0.00000000000E+00 0. -1.
        -15    1    1    2    0    0  0.28202627018E+01  0.16698993943E+01 -0.80127762707E+01  0.88376896449E+01  0.17770000000E+01 0. -1.
         15    1    1    2    0    0  0.19553602899E+02 -0.44775902080E+01 -0.27399143929E+01  0.20323805260E+02  0.17770000000E+01 0.  1.
</event>
<event>
 6    1  0.1108180E-002  0.1857842E+03  0.7546771E-02  0.1065870E+00
        -11   -1    0    0    0    0  0.00000000000E+00  0.00000000000E+00  0.18250000000E+03  0.18250000000E+03  0.00000000000E+00 0. -1.
         11   -1    0    0    0    0 -0.00000000000E+00 -0.00000000000E+00 -0.18250000000E+03  0.18250000000E+03  0.00000000000E+00 0.  1.
        -11    1    1    2    0    0 -0.39080478797E+00 -0.98981350562E+01  0.13773768574E+03  0.13809343170E+03  0.00000000000E+00 0. -1.
         11    1    1    2    0    0  0.54862215004E+01  0.12052717112E+02 -0.17872588080E+03  0.17921581148E+03  0.00000000000E+00 0.  1.
        -15    1    1    2    0    0  0.36721608658E+01  0.85176997703E+01  0.10206768748E+02  0.13905820080E+02  0.17770000000E+01 0.  1.
         15    1    1    2    0    0 -0.87675775783E+01 -0.10672281826E+02  0.30781426308E+02  0.33784936740E+02  0.17770000000E+01 0. -1.
</event>
<event>
 6    1  0.1108180E-002  0.1863843E+03  0.7546771E-02  0.1065404E+00
        -11   -1    0    0    0    0  0.00000000000E+00  0.00000000000E+00  0.18250000000E+03  0.18250000000E+03  0.00000000000E+00 0.  1.
         11   -1    0    0    0    0 -0.00000000000E+00 -0.00000000000E+00 -0.18250000000E+03  0.18250000000E+03  0.00000000000E+00 0. -1.
        -11    1    1    2    0    0 -0.43059965550E+01  0.67241645971E+01  0.17843709414E+03  0.17861565598E+03  0.00000000000E+00 0.  1.
         11    1    1    2    0    0 -0.10005288477E+01 -0.89965979839E+01 -0.14048466219E+03  0.14077599278E+03  0.00000000000E+00 0. -1.
        -15    1    1    2    0    0 -0.38430153692E+01 -0.84493751859E+01 -0.23562028923E+02  0.25386761198E+02  0.17770000000E+01 0. -1.
         15    1    1    2    0    0  0.91495407718E+01  0.10721808573E+02 -0.14390403027E+02  0.20221590038E+02  0.17770000000E+01 0.  1.
</event>
<event>
 6    1  0.1108180E-002  0.1846356E+03  0.7546771E-02  0.1066767E+00
        -11   -1    0    0    0    0  0.00000000000E+00  0.00000000000E+00  0.18250000000E+03  0.18250000000E+03  0.00000000000E+00 0.  1.
         11   -1    0    0    0    0 -0.00000000000E+00 -0.00000000000E+00 -0.18250000000E+03  0.18250000000E+03  0.00000000000E+00 0.  1.
        -11    1    1    2    0    0  0.11380581493E+01  0.16070011848E+01  0.11526731899E+03  0.11528413792E+03  0.00000000000E+00 0.  1.
         11    1    1    2    0    0  0.11526112576E+01 -0.26651518739E+01 -0.18034100098E+03  0.18036437615E+03  0.00000000000E+00 0.  1.
        -15    1    1    2    0    0 -0.12064429802E+02 -0.18833627150E+01  0.23936564954E+02  0.26929804907E+02  0.17770000000E+01 0. -1.
         15    1    1    2    0    0  0.97737603956E+01  0.29415134041E+01  0.41137117039E+02  0.42421681022E+02  0.17770000000E+01 0.  1.
</event>
<event>
 6    1  0.1108180E-002  0.1828131E+03  0.7546771E-02  0.1068206E+00
        -11   -1    0    0    0    0  0.00000000000E+00  0.00000000000E+00  0.18250000000E+03  0.18250000000E+03  0.00000000000E+00 0. -1.
         11   -1    0    0    0    0 -0.00000000000E+00 -0.00000000000E+00 -0.18250000000E+03  0.18250000000E+03  0.00000000000E+00 0. -1.
        -11    1    1    2    0    0 -0.34576607059E+01 -0.25296531857E+01  0.18213653825E+03  0.18218691810E+03  0.00000000000E+00 0. -1.
         11    1    1    2    0    0  0.28166004047E+00 -0.62487765980E+00 -0.46336983923E+02  0.46342053078E+02  0.00000000000E+00 0. -1.
        -15    1    1    2    0    0  0.25386987735E+01  0.63238869233E+01 -0.41050252721E+02  0.41649940153E+02  0.17770000000E+01 0.  1.
         15    1    1    2    0    0  0.63730189196E+00 -0.31693560777E+01 -0.94749301606E+02  0.94821088664E+02  0.17770000000E+01 0. -1.
</event>
<event>
 6    1  0.1310115E-002  0.1855641E+03  0.7546771E-02  0.1066042E+00
        -11   -1    0    0    0    0  0.00000000000E+00  0.00000000000E+00  0.18250000000E+03  0.18250000000E+03  0.00000000000E+00 0.  1.
         11   -1    0    0    0    0 -0.00000000000E+00 -0.00000000000E+00 -0.18250000000E+03  0.18250000000E+03  0.00000000000E+00 0.  1.
        -11    1    1    2    0    0 -0.20918499229E+01  0.22571455096E+01  0.17940947627E+03  0.17943586798E+03  0.00000000000E+00 0.  1.
         11    1    1    2    0    0  0.60247853851E+01  0.31384404292E+01 -0.15199797506E+03  0.15214970348E+03  0.00000000000E+00 0.  1.
        -15    1    1    2    0    0 -0.56667933168E+01 -0.16239319817E+01 -0.28170632773E+02  0.28835602671E+02  0.17770000000E+01 0.  1.
         15    1    1    2    0    0  0.17338578546E+01 -0.37716539571E+01  0.75913156638E+00  0.45788258721E+01  0.17770000000E+01 0.  1.
</event>
<event>
 6    1  0.1108180E-002  0.1860467E+03  0.7546771E-02  0.1065666E+00
        -11   -1    0    0    0    0  0.00000000000E+00  0.00000000000E+00  0.18250000000E+03  0.18250000000E+03  0.00000000000E+00 0.  1.
         11   -1    0    0    0    0 -0.00000000000E+00 -0.00000000000E+00 -0.18250000000E+03  0.18250000000E+03  0.00000000000E+00 0.  1.
        -11    1    1    2    0    0 -0.30695809513E+01  0.92268217803E+01  0.17868887607E+03  0.17895326484E+03  0.00000000000E+00 0.  1.
         11    1    1    2    0    0 -0.18358533539E+01 -0.16117197992E+01 -0.15191074749E+03  0.15193038933E+03  0.00000000000E+00 0.  1.
        -15    1    1    2    0    0  0.62680676394E+01 -0.46814445897E+01 -0.10107830974E+01  0.80860377719E+01  0.17770000000E+01 0. -1.
         15    1    1    2    0    0 -0.13626333342E+01 -0.29336573914E+01 -0.25767345484E+02  0.26030308058E+02  0.17770000000E+01 0.  1.
</event>
<event>
 6    1  0.1108180E-002  0.2012065E+03  0.7546771E-02  0.1054469E+00
        -11   -1    0    0    0    0  0.00000000000E+00  0.00000000000E+00  0.18250000000E+03  0.18250000000E+03  0.00000000000E+00 0. -1.
         11   -1    0    0    0    0 -0.00000000000E+00 -0.00000000000E+00 -0.18250000000E+03  0.18250000000E+03  0.00000000000E+00 0. -1.
        -11    1    1    2    0    0  0.29663526780E+01  0.11759760389E+01  0.71172782063E+02  0.71244277486E+02  0.00000000000E+00 0. -1.
         11    1    1    2    0    0 -0.12313884265E+01 -0.79218359492E+01  0.92201315049E+02  0.92549199343E+02  0.00000000000E+00 0. -1.
        -15    1    1    2    0    0 -0.50069867347E+02  0.26586789011E+02 -0.47118395994E+02  0.73737032325E+02  0.17770000000E+01 0.  1.
         15    1    1    2    0    0  0.48334903096E+02 -0.19840929101E+02 -0.11625570112E+03  0.12746949085E+03  0.17770000000E+01 0. -1.
</event>
<event>
 6    1  0.1108180E-002  0.1833770E+03  0.7546771E-02  0.1067759E+00
        -11   -1    0    0    0    0  0.00000000000E+00  0.00000000000E+00  0.18250000000E+03  0.18250000000E+03  0.00000000000E+00 0.  1.
         11   -1    0    0    0    0 -0.00000000000E+00 -0.00000000000E+00 -0.18250000000E+03  0.18250000000E+03  0.00000000000E+00 0.  1.
        -11    1    1    2    0    0 -0.30368496113E+01 -0.11849139426E+00  0.18159761203E+03  0.18162304147E+03  0.00000000000E+00 0.  1.
         11    1    1    2    0    0  0.13621103794E+01 -0.16002836378E+01 -0.71542866167E+02  0.71573723893E+02  0.00000000000E+00 0.  1.
        -15    1    1    2    0    0 -0.34048049416E+01 -0.47441490989E+00 -0.10080680474E+03  0.10088105560E+03  0.17770000000E+01 0. -1.
         15    1    1    2    0    0  0.50795441735E+01  0.21931899420E+01 -0.92479411200E+01  0.10922179045E+02  0.17770000000E+01 0. -1.
</event>
<event>
 6    1  0.1108180E-002  0.1850294E+03  0.7546771E-02  0.1066459E+00
        -11   -1    0    0    0    0  0.00000000000E+00  0.00000000000E+00  0.18250000000E+03  0.18250000000E+03  0.00000000000E+00 0. -1.
         11   -1    0    0    0    0 -0.00000000000E+00 -0.00000000000E+00 -0.18250000000E+03  0.18250000000E+03  0.00000000000E+00 0.  1.
        -11    1    1    2    0    0 -0.40725918007E+01  0.34707766161E+01  0.16337185588E+03  0.16345946161E+03  0.00000000000E+00 0. -1.
         11    1    1    2    0    0  0.47578813980E+01 -0.35316808865E+01 -0.17987300236E+03  0.17997057310E+03  0.00000000000E+00 0.  1.
        -15    1    1    2    0    0 -0.47337177792E+00  0.41905378460E+01  0.16443971614E+02  0.17068878689E+02  0.17770000000E+01 0. -1.
         15    1    1    2    0    0 -0.21191781938E+00 -0.41296335756E+01  0.57174862865E-01  0.45010866017E+01  0.17770000000E+01 0.  1.
</event>
<event>
 6    1  0.1108180E-002  0.1854073E+03  0.7546771E-02  0.1066164E+00
        -11   -1    0    0    0    0  0.00000000000E+00  0.00000000000E+00  0.18250000000E+03  0.18250000000E+03  0.00000000000E+00 0. -1.
         11   -1    0    0    0    0 -0.00000000000E+00 -0.00000000000E+00 -0.18250000000E+03  0.18250000000E+03  0.00000000000E+00 0. -1.
        -11    1    1    2    0    0 -0.72525192127E+01 -0.34760360218E+01  0.17941250954E+03  0.17959267925E+03  0.00000000000E+00 0. -1.
         11    1    1    2    0    0  0.34723353722E+01 -0.54382595015E+01 -0.14222618741E+03  0.14237246982E+03  0.00000000000E+00 0. -1.
        -15    1    1    2    0    0  0.52345584111E+01  0.68166389369E+01 -0.39006054257E+01  0.96041459716E+01  0.17770000000E+01 0. -1.
         15    1    1    2    0    0 -0.14543745707E+01  0.20976565864E+01 -0.33285716705E+02  0.33430704960E+02  0.17770000000E+01 0.  1.
</event>
<event>
 6    1  0.1108180E-002  0.1853722E+03  0.7546771E-02  0.1066191E+00
        -11   -1    0    0    0    0  0.00000000000E+00  0.00000000000E+00  0.18250000000E+03  0.18250000000E+03  0.00000000000E+00 0. -1.
         11   -1    0    0    0    0 -0.00000000000E+00 -0.00000000000E+00 -0.18250000000E+03  0.18250000000E+03  0.00000000000E+00 0.  1.
        -11    1    1    2    0    0  0.15823126798E+02  0.97636659207E+00  0.17892690791E+03  0.17962784586E+03  0.00000000000E+00 0. -1.
         11    1    1    2    0    0  0.15657718563E+01 -0.76724621042E+00 -0.80690511486E+02  0.80709348604E+02  0.00000000000E+00 0.  1.
        -15    1    1    2    0    0 -0.11464635235E+02  0.11638644291E+02 -0.23111566534E+02  0.28358387449E+02  0.17770000000E+01 0. -1.
         15    1    1    2    0    0 -0.59242634190E+01 -0.11847764673E+02 -0.75124829890E+02  0.76304418089E+02  0.17770000000E+01 0.  1.
</event>
<event>
 6    1  0.1108180E-002  0.1905661E+03  0.7546771E-02  0.1062209E+00
        -11   -1    0    0    0    0  0.00000000000E+00  0.00000000000E+00  0.18250000000E+03  0.18250000000E+03  0.00000000000E+00 0. -1.
         11   -1    0    0    0    0 -0.00000000000E+00 -0.00000000000E+00 -0.18250000000E+03  0.18250000000E+03  0.00000000000E+00 0.  1.
        -11    1    1    2    0    0 -0.33593258233E+01 -0.25239271799E+01  0.15633935090E+03  0.15639580531E+03  0.00000000000E+00 0. -1.
         11    1    1    2    0    0 -0.32593420623E+01  0.35741887422E+01 -0.17436677196E+03  0.17443385365E+03  0.00000000000E+00 0.  1.
        -15    1    1    2    0    0  0.22924690839E+01 -0.69340313389E+01  0.23629513653E+02  0.24796125697E+02  0.17770000000E+01 0.  1.
         15    1    1    2    0    0  0.43261988017E+01  0.58837697767E+01 -0.56020925973E+01  0.93742153445E+01  0.17770000000E+01 0. -1.
</event>
<event>
 6    1  0.1108180E-002  0.1829609E+03  0.7546771E-02  0.1068089E+00
        -11   -1    0    0    0    0  0.00000000000E+00  0.00000000000E+00  0.18250000000E+03  0.18250000000E+03  0.00000000000E+00 0. -1.
         11   -1    0    0    0    0 -0.00000000000E+00 -0.00000000000E+00 -0.18250000000E+03  0.18250000000E+03  0.00000000000E+00 0. -1.
        -11    1    1    2    0    0  0.16784454704E+01  0.32541459353E+01  0.15673220552E+03  0.15677496896E+03  0.00000000000E+00 0. -1.
         11    1    1    2    0    0 -0.20703476473E+01 -0.19380005859E+01 -0.18201701418E+03  0.18203910470E+03  0.00000000000E+00 0. -1.
        -15    1    1    2    0    0 -0.13644490323E+01 -0.96843493461E+00  0.35671377016E+01  0.43222433720E+01  0.17770000000E+01 0.  1.
         15    1    1    2    0    0  0.17563512092E+01 -0.34771041480E+00  0.21717670961E+02  0.21863682971E+02  0.17770000000E+01 0.  1.
</event>
<event>
 6    1  0.1108180E-002  0.1828391E+03  0.7546771E-02  0.1068185E+00
        -11   -1    0    0    0    0  0.00000000000E+00  0.00000000000E+00  0.18250000000E+03  0.18250000000E+03  0.00000000000E+00 0.  1.
         11   -1    0    0    0    0 -0.00000000000E+00 -0.00000000000E+00 -0.18250000000E+03  0.18250000000E+03  0.00000000000E+00 0.  1.
        -11    1    1    2    0    0 -0.10831687039E+01  0.48859157570E+01  0.14032116106E+03  0.14041037593E+03  0.00000000000E+00 0.  1.
         11    1    1    2    0    0 -0.12856990965E+01 -0.34918795209E+01 -0.18212289438E+03  0.18216090387E+03  0.00000000000E+00 0.  1.
        -15    1    1    2    0    0 -0.90687570327E-01  0.15497777884E+01  0.73726310684E+01  0.77410240472E+01  0.17770000000E+01 0. -1.
         15    1    1    2    0    0  0.24595553708E+01 -0.29438140245E+01  0.34429102243E+02  0.34687696145E+02  0.17770000000E+01 0.  1.
</event>
<event>
 6    1  0.1108180E-002  0.1837183E+03  0.7546771E-02  0.1067489E+00
        -11   -1    0    0    0    0  0.00000000000E+00  0.00000000000E+00  0.18250000000E+03  0.18250000000E+03  0.00000000000E+00 0.  1.
         11   -1    0    0    0    0 -0.00000000000E+00 -0.00000000000E+00 -0.18250000000E+03  0.18250000000E+03  0.00000000000E+00 0.  1.
        -11    1    1    2    0    0  0.25233916065E+01 -0.57893693285E+00  0.18126324920E+03  0.18128173704E+03  0.00000000000E+00 0.  1.
         11    1    1    2    0    0  0.29285531595E+01  0.23513285125E+00 -0.17185618469E+03  0.17188129604E+03  0.00000000000E+00 0.  1.
        -15    1    1    2    0    0 -0.98750619401E+00  0.36343155578E+00 -0.45892208274E+01  0.50324872361E+01  0.17770000000E+01 0.  1.
         15    1    1    2    0    0 -0.44644385721E+01 -0.19627474182E-01 -0.48178436832E+01  0.68044796831E+01  0.17770000000E+01 0.  1.
</event>
<event>
 6    1  0.1108180E-002  0.1834716E+03  0.7546771E-02  0.1067684E+00
        -11   -1    0    0    0    0  0.00000000000E+00  0.00000000000E+00  0.18250000000E+03  0.18250000000E+03  0.00000000000E+00 0. -1.
         11   -1    0    0    0    0 -0.00000000000E+00 -0.00000000000E+00 -0.18250000000E+03  0.18250000000E+03  0.00000000000E+00 0. -1.
        -11    1    1    2    0    0  0.51529706097E+00  0.21344424929E+01  0.52558221481E+02  0.52604068484E+02  0.00000000000E+00 0. -1.
         11    1    1    2    0    0 -0.30321610981E+01 -0.15268808369E+02 -0.18085968787E+03  0.18152839229E+03  0.00000000000E+00 0. -1.
        -15    1    1    2    0    0  0.16810670376E+00  0.15259033774E+02  0.46232328407E+02  0.48718089972E+02  0.17770000000E+01 0.  1.
         15    1    1    2    0    0  0.23487573333E+01 -0.21246678976E+01  0.82069137983E+02  0.82149449255E+02  0.17770000000E+01 0. -1.
</event>
<event>
 6    1  0.1108180E-002  0.1890499E+03  0.7546771E-02  0.1063357E+00
        -11   -1    0    0    0    0  0.00000000000E+00  0.00000000000E+00  0.18250000000E+03  0.18250000000E+03  0.00000000000E+00 0. -1.
         11   -1    0    0    0    0 -0.00000000000E+00 -0.00000000000E+00 -0.18250000000E+03  0.18250000000E+03  0.00000000000E+00 0.  1.
        -11    1    1    2    0    0  0.13436800286E+02 -0.75784277336E+01  0.15813962445E+03  0.15889027972E+03  0.00000000000E+00 0. -1.
         11    1    1    2    0    0  0.23789353032E+01 -0.33011507488E+00 -0.17593367553E+03  0.17595006819E+03  0.00000000000E+00 0.  1.
        -15    1    1    2    0    0 -0.30863391577E+01  0.10629180223E+02  0.79362858342E+01  0.13734894374E+02  0.17770000000E+01 0.  1.
         15    1    1    2    0    0 -0.12729396431E+02 -0.27206374147E+01  0.98577652468E+01  0.16424757718E+02  0.17770000000E+01 0. -1.
</event>
<event>
 6    1  0.1108180E-002  0.1889817E+03  0.7546771E-02  0.1063409E+00
        -11   -1    0    0    0    0  0.00000000000E+00  0.00000000000E+00  0.18250000000E+03  0.18250000000E+03  0.00000000000E+00 0.  1.
         11   -1    0    0    0    0 -0.00000000000E+00 -0.00000000000E+00 -0.18250000000E+03  0.18250000000E+03  0.00000000000E+00 0. -1.
        -11    1    1    2    0    0 -0.44772440740E+01 -0.74298117756E+01  0.16742881036E+03  0.16765337562E+03  0.00000000000E+00 0.  1.
         11    1    1    2    0    0  0.33790160294E+01 -0.13088052314E+01 -0.17598100046E+03  0.17601830372E+03  0.00000000000E+00 0. -1.
        -15    1    1    2    0    0  0.90410115016E+01  0.53155943698E+01  0.37619387540E+01  0.11282967015E+02  0.17770000000E+01 0.  1.
         15    1    1    2    0    0 -0.79427834570E+01  0.34230226372E+01  0.47902513440E+01  0.10045353650E+02  0.17770000000E+01 0. -1.
</event>
<event>
 6    1  0.1108180E-002  0.1826041E+03  0.7546771E-02  0.1068372E+00
        -11   -1    0    0    0    0  0.00000000000E+00  0.00000000000E+00  0.18250000000E+03  0.18250000000E+03  0.00000000000E+00 0. -1.
         11   -1    0    0    0    0 -0.00000000000E+00 -0.00000000000E+00 -0.18250000000E+03  0.18250000000E+03  0.00000000000E+00 0.  1.
        -11    1    1    2    0    0  0.37901622966E+01  0.26081888015E+01  0.18233788107E+03  0.18239591786E+03  0.00000000000E+00 0. -1.
         11    1    1    2    0    0 -0.10523201135E+01  0.63675130345E+00 -0.80281010621E+02  0.80290432159E+02  0.00000000000E+00 0.  1.
        -15    1    1    2    0    0 -0.64057060881E-01 -0.26722056704E+01 -0.27707814519E+02  0.27893108484E+02  0.17770000000E+01 0.  1.
         15    1    1    2    0    0 -0.26737851222E+01 -0.57273443464E+00 -0.74349055925E+02  0.74420541502E+02  0.17770000000E+01 0. -1.
</event>
<event>
 6    1  0.1108180E-002  0.1860641E+03  0.7546771E-02  0.1065653E+00
        -11   -1    0    0    0    0  0.00000000000E+00  0.00000000000E+00  0.18250000000E+03  0.18250000000E+03  0.00000000000E+00 0.  1.
         11   -1    0    0    0    0 -0.00000000000E+00 -0.00000000000E+00 -0.18250000000E+03  0.18250000000E+03  0.00000000000E+00 0.  1.
        -11    1    1    2    0    0  0.25222520529E+01  0.50976628251E+00  0.15745284359E+03  0.15747386948E+03  0.00000000000E+00 0.  1.
         11    1    1    2    0    0  0.40338048323E+01  0.42426022319E+01 -0.17884013282E+03  0.17893592250E+03  0.00000000000E+00 0.  1.
        -15    1    1    2    0    0 -0.11846367764E+01 -0.61257548732E+01  0.65356047268E-01  0.64876989350E+01  0.17770000000E+01 0.  1.
         15    1    1    2    0    0 -0.53714201087E+01  0.13733863588E+01  0.21321933183E+02  0.22102509082E+02  0.17770000000E+01 0. -1.
</event>
<event>
 6    1  0.1108180E-002  0.1855304E+03  0.7546771E-02  0.1066068E+00
        -11   -1    0    0    0    0  0.00000000000E+00  0.00000000000E+00  0.18250000000E+03  0.18250000000E+03  0.00000000000E+00 0.  1.
         11   -1    0    0    0    0 -0.00000000000E+00 -0.00000000000E+00 -0.18250000000E+03  0.18250000000E+03  0.00000000000E+00 0.  1.
        -11    1    1    2    0    0  0.15799147045E+01  0.18720978800E+01  0.17945287687E+03  0.17946959603E+03  0.00000000000E+00 0.  1.
         11    1    1    2    0    0 -0.91369120454E+01  0.11566839913E+01 -0.16549380972E+03  0.16574987823E+03  0.00000000000E+00 0.  1.
        -15    1    1    2    0    0 -0.24483684351E+01 -0.23004800301E+01 -0.43422188401E+01  0.57705554168E+01  0.17770000000E+01 0.  1.
         15    1    1    2    0    0  0.10005365776E+02 -0.72830184115E+00 -0.96168483165E+01  0.14009970322E+02  0.17770000000E+01 0.  1.
</event>
<event>
 6    1  0.1108180E-002  0.1713059E+03  0.7546771E-02  0.1077732E+00
        -11   -1    0    0    0    0  0.00000000000E+00  0.00000000000E+00  0.18250000000E+03  0.18250000000E+03  0.00000000000E+00 0. -1.
         11   -1    0    0    0    0 -0.00000000000E+00 -0.00000000000E+00 -0.18250000000E+03  0.18250000000E+03  0.00000000000E+00 0. -1.
        -11    1    1    2    0    0  0.83424683303E+01 -0.41148576491E+01  0.17941610710E+03  0.17965708535E+03  0.00000000000E+00 0. -1.
         11    1    1    2    0    0  0.27749231125E+01  0.17308368122E+01 -0.26074125263E+02  0.26278432270E+02  0.00000000000E+00 0. -1.
        -15    1    1    2    0    0 -0.22199334094E+02  0.93683629343E+01 -0.58306817854E+02  0.63114335896E+02  0.17770000000E+01 0.  1.
         15    1    1    2    0    0  0.11081942652E+02 -0.69843420973E+01 -0.95035163982E+02  0.95950146480E+02  0.17770000000E+01 0. -1.
</event>
<event>
 6    1  0.1108180E-002  0.9665189E+02  0.7546771E-02  0.1169737E+00
        -11   -1    0    0    0    0  0.00000000000E+00  0.00000000000E+00  0.18250000000E+03  0.18250000000E+03  0.00000000000E+00 0.  1.
         11   -1    0    0    0    0 -0.00000000000E+00 -0.00000000000E+00 -0.18250000000E+03  0.18250000000E+03  0.00000000000E+00 0. -1.
        -11    1    1    2    0    0 -0.16584070278E+01 -0.34998708856E+01  0.10308818075E+03  0.10316090549E+03  0.00000000000E+00 0.  1.
         11    1    1    2    0    0 -0.67435881361E+01 -0.18649502261E+01 -0.11819881141E+03  0.11840571371E+03  0.00000000000E+00 0. -1.
        -15    1    1    2    0    0  0.79081438218E+01  0.48222711190E+01 -0.63803014617E+02  0.64496321140E+02  0.17770000000E+01 0. -1.
         15    1    1    2    0    0  0.49385134207E+00  0.54254999265E+00  0.78913645271E+02  0.78937059665E+02  0.17770000000E+01 0.  1.
</event>
<event>
 6    1  0.1108180E-002  0.1827352E+03  0.7546771E-02  0.1068268E+00
        -11   -1    0    0    0    0  0.00000000000E+00  0.00000000000E+00  0.18250000000E+03  0.18250000000E+03  0.00000000000E+00 0. -1.
         11   -1    0    0    0    0 -0.00000000000E+00 -0.00000000000E+00 -0.18250000000E+03  0.18250000000E+03  0.00000000000E+00 0. -1.
        -11    1    1    2    0    0  0.23742940684E+01  0.21588884365E+01  0.11893081705E+03  0.11897410355E+03  0.00000000000E+00 0. -1.
         11    1    1    2    0    0 -0.36939905107E+01  0.51943275993E+00 -0.18222666150E+03  0.18226483901E+03  0.00000000000E+00 0. -1.
        -15    1    1    2    0    0  0.36844595507E+01 -0.90566962295E+00  0.31063904867E+02  0.31345165404E+02  0.17770000000E+01 0. -1.
         15    1    1    2    0    0 -0.23647631084E+01 -0.17726515735E+01  0.32231939588E+02  0.32415892041E+02  0.17770000000E+01 0. -1.
</event>
<event>
 6    1  0.1108180E-002  0.1914351E+03  0.7546771E-02  0.1061557E+00
        -11   -1    0    0    0    0  0.00000000000E+00  0.00000000000E+00  0.18250000000E+03  0.18250000000E+03  0.00000000000E+00 0. -1.
         11   -1    0    0    0    0 -0.00000000000E+00 -0.00000000000E+00 -0.18250000000E+03  0.18250000000E+03  0.00000000000E+00 0. -1.
        -11    1    1    2    0    0  0.73056201477E+00 -0.20728645915E+02  0.60800735613E+02  0.64241263479E+02  0.00000000000E+00 0. -1.
         11    1    1    2    0    0  0.28003750934E+00 -0.37762528747E+01 -0.17352362973E+03  0.17356494053E+03  0.00000000000E+00 0. -1.
        -15    1    1    2    0    0 -0.60849749955E+01  0.10606420939E+02 -0.10946719911E+01  0.12404802361E+02  0.17770000000E+01 0. -1.
         15    1    1    2    0    0  0.50743754714E+01  0.13898477850E+02  0.11381756611E+03  0.11478899363E+03  0.17770000000E+01 0.  1.
</event>
<event>
 6    1  0.1108180E-002  0.1845632E+03  0.7546771E-02  0.1066824E+00
        -11   -1    0    0    0    0  0.00000000000E+00  0.00000000000E+00  0.18250000000E+03  0.18250000000E+03  0.00000000000E+00 0. -1.
         11   -1    0    0    0    0 -0.00000000000E+00 -0.00000000000E+00 -0.18250000000E+03  0.18250000000E+03  0.00000000000E+00 0.  1.
        -11    1    1    2    0    0 -0.64661897495E+00 -0.23817705737E+01  0.18041995182E+03  0.18043683095E+03  0.00000000000E+00 0. -1.
         11    1    1    2    0    0 -0.24242521477E+01 -0.12538663366E+01 -0.17632870723E+03  0.17634982896E+03  0.00000000000E+00 0.  1.
        -15    1    1    2    0    0 -0.54795631686E+00  0.19764543790E+01 -0.11107610770E+01  0.29322597442E+01  0.17770000000E+01 0.  1.
         15    1    1    2    0    0  0.36188274395E+01  0.16591825312E+01 -0.29804835128E+01  0.52810803515E+01  0.17770000000E+01 0. -1.
</event>
<event>
 6    1  0.1108180E-002  0.1831332E+03  0.7546771E-02  0.1067952E+00
        -11   -1    0    0    0    0  0.00000000000E+00  0.00000000000E+00  0.18250000000E+03  0.18250000000E+03  0.00000000000E+00 0.  1.
         11   -1    0    0    0    0 -0.00000000000E+00 -0.00000000000E+00 -0.18250000000E+03  0.18250000000E+03  0.00000000000E+00 0. -1.
        -11    1    1    2    0    0 -0.45343356882E+01 -0.19377654296E+01  0.12061900824E+03  0.12071975929E+03  0.00000000000E+00 0.  1.
         11    1    1    2    0    0  0.52252821689E+01  0.25577774809E+01 -0.18177368158E+03  0.18186675649E+03  0.00000000000E+00 0. -1.
        -15    1    1    2    0    0 -0.46082214569E+01 -0.13730374310E+01  0.11792527090E+02  0.12858552055E+02  0.17770000000E+01 0.  1.
         15    1    1    2    0    0  0.39172749762E+01  0.75302537978E+00  0.49362146252E+02  0.49554932167E+02  0.17770000000E+01 0. -1.
</event>
<event>
 6    1  0.1108180E-002  0.1901427E+03  0.7546771E-02  0.1062529E+00
        -11   -1    0    0    0    0  0.00000000000E+00  0.00000000000E+00  0.18250000000E+03  0.18250000000E+03  0.00000000000E+00 0. -1.
         11   -1    0    0    0    0 -0.00000000000E+00 -0.00000000000E+00 -0.18250000000E+03  0.18250000000E+03  0.00000000000E+00 0.  1.
        -11    1    1    2    0    0 -0.71057983282E+01 -0.24413190265E+01  0.17469579766E+03  0.17485729647E+03  0.00000000000E+00 0. -1.
         11    1    1    2    0    0 -0.16244159561E+01  0.64259616758E+01 -0.14646657863E+03  0.14661647372E+03  0.00000000000E+00 0.  1.
        -15    1    1    2    0    0  0.66952505221E+00 -0.51491682820E+01 -0.33313198892E+02  0.33762244404E+02  0.17770000000E+01 0. -1.
         15    1    1    2    0    0  0.80606892321E+01  0.11645256326E+01  0.50839798538E+01  0.97639854055E+01  0.17770000000E+01 0.  1.
</event>
<event>
 6    1  0.1108180E-002  0.1661670E+03  0.7546771E-02  0.1082254E+00
        -11   -1    0    0    0    0  0.00000000000E+00  0.00000000000E+00  0.18250000000E+03  0.18250000000E+03  0.00000000000E+00 0. -1.
         11   -1    0    0    0    0 -0.00000000000E+00 -0.00000000000E+00 -0.18250000000E+03  0.18250000000E+03  0.00000000000E+00 0. -1.
        -11    1    1    2    0    0  0.15177479593E+02 -0.43766334248E+01  0.16684917712E+03  0.16759522282E+03  0.00000000000E+00 0. -1.
         11    1    1    2    0    0  0.47933269665E+01  0.15453803332E+01 -0.16527724456E+03  0.16535395899E+03  0.00000000000E+00 0. -1.
        -15    1    1    2    0    0 -0.18876529892E+02  0.59404395078E+01  0.82695186290E+01  0.21521033192E+02  0.17770000000E+01 0. -1.
         15    1    1    2    0    0 -0.10942766683E+01 -0.31091864162E+01 -0.98414511882E+01  0.10529784997E+02  0.17770000000E+01 0.  1.
</event>
<event>
 6    1  0.1108180E-002  0.1834093E+03  0.7546771E-02  0.1067733E+00
        -11   -1    0    0    0    0  0.00000000000E+00  0.00000000000E+00  0.18250000000E+03  0.18250000000E+03  0.00000000000E+00 0.  1.
         11   -1    0    0    0    0 -0.00000000000E+00 -0.00000000000E+00 -0.18250000000E+03  0.18250000000E+03  0.00000000000E+00 0.  1.
        -11    1    1    2    0    0  0.24838847910E+01  0.44269157185E+01  0.18151978194E+03  0.18159074454E+03  0.00000000000E+00 0.  1.
         11    1    1    2    0    0  0.31910778756E+01 -0.29396570183E+01 -0.16313577801E+03  0.16319346380E+03  0.00000000000E+00 0.  1.
        -15    1    1    2    0    0 -0.12993468014E+01 -0.27380467250E+01 -0.72084062340E+01  0.80189806966E+01  0.17770000000E+01 0.  1.
         15    1    1    2    0    0 -0.43756158652E+01  0.12507880248E+01 -0.11175597693E+02  0.12196810964E+02  0.17770000000E+01 0. -1.
</event>
<event>
 6    1  0.1108180E-002  0.1840616E+03  0.7546771E-02  0.1067219E+00
        -11   -1    0    0    0    0  0.00000000000E+00  0.00000000000E+00  0.18250000000E+03  0.18250000000E+03  0.00000000000E+00 0. -1.
         11   -1    0    0    0    0 -0.00000000000E+00 -0.00000000000E+00 -0.18250000000E+03  0.18250000000E+03  0.00000000000E+00 0.  1.
        -11    1    1    2    0    0  0.26688675916E+01  0.39694641039E+01  0.18087521014E+03  0.18093844573E+03  0.00000000000E+00 0. -1.
         11    1    1    2    0    0 -0.17626302854E+01 -0.10698381461E+00 -0.27988453482E+02  0.28044105251E+02  0.00000000000E+00 0.  1.
        -15    1    1    2    0    0  0.76439344616E+00 -0.11185092522E+01 -0.15227999791E+03  0.15229639147E+03  0.17770000000E+01 0.  1.
         15    1    1    2    0    0 -0.16706307524E+01 -0.27439710371E+01 -0.60675874412E+00  0.37210575562E+01  0.17770000000E+01 0. -1.
</event>
<event>
 6    1  0.1108180E-002  0.1862873E+03  0.7546771E-02  0.1065479E+00
        -11   -1    0    0    0    0  0.00000000000E+00  0.00000000000E+00  0.18250000000E+03  0.18250000000E+03  0.00000000000E+00 0. -1.
         11   -1    0    0    0    0 -0.00000000000E+00 -0.00000000000E+00 -0.18250000000E+03  0.18250000000E+03  0.00000000000E+00 0.  1.
        -11    1    1    2    0    0  0.37003061011E+01  0.73261861148E+01  0.16290139527E+03  0.16310803122E+03  0.00000000000E+00 0. -1.
         11    1    1    2    0    0 -0.11709069198E+02 -0.32577293426E+01 -0.17829897087E+03  0.17871272510E+03  0.00000000000E+00 0.  1.
        -15    1    1    2    0    0 -0.10583625112E+00 -0.61122214199E+01  0.12705246186E+02  0.14210962728E+02  0.17770000000E+01 0.  1.
         15    1    1    2    0    0  0.81145993482E+01  0.20437646477E+01  0.26923294153E+01  0.89682809500E+01  0.17770000000E+01 0. -1.
</event>
<event>
 6    1  0.1108180E-002  0.1847801E+03  0.7546771E-02  0.1066654E+00
        -11   -1    0    0    0    0  0.00000000000E+00  0.00000000000E+00  0.18250000000E+03  0.18250000000E+03  0.00000000000E+00 0. -1.
         11   -1    0    0    0    0 -0.00000000000E+00 -0.00000000000E+00 -0.18250000000E+03  0.18250000000E+03  0.00000000000E+00 0. -1.
        -11    1    1    2    0    0 -0.27741023156E+00  0.55690880258E+01  0.11840927379E+03  0.11854049021E+03  0.00000000000E+00 0. -1.
         11    1    1    2    0    0  0.76380466516E+00  0.23404734718E+01 -0.18020309311E+03  0.18021991006E+03  0.00000000000E+00 0. -1.
        -15    1    1    2    0    0  0.84638148924E+01 -0.78414330069E+00  0.10356113444E+02  0.13515097407E+02  0.17770000000E+01 0. -1.
         15    1    1    2    0    0 -0.89502093260E+01 -0.71254181969E+01  0.51437705875E+02  0.52724502332E+02  0.17770000000E+01 0. -1.
</event>
<event>
 6    1  0.1108180E-002  0.1833720E+03  0.7546771E-02  0.1067763E+00
        -11   -1    0    0    0    0  0.00000000000E+00  0.00000000000E+00  0.18250000000E+03  0.18250000000E+03  0.00000000000E+00 0. -1.
         11   -1    0    0    0    0 -0.00000000000E+00 -0.00000000000E+00 -0.18250000000E+03  0.18250000000E+03  0.00000000000E+00 0. -1.
        -11    1    1    2    0    0 -0.37472776525E+00 -0.25791306104E+01  0.18160926769E+03  0.18162796714E+03  0.00000000000E+00 0. -1.
         11    1    1    2    0    0  0.37326678445E+01 -0.63969747048E+00 -0.16378646191E+03  0.16383023874E+03  0.00000000000E+00 0. -1.
        -15    1    1    2    0    0 -0.41828316090E+01  0.16202155568E+01 -0.14976694296E+02  0.15734683974E+02  0.17770000000E+01 0.  1.
         15    1    1    2    0    0  0.82489152968E+00  0.15986125241E+01 -0.28461114886E+01  0.38071101433E+01  0.17770000000E+01 0. -1.
</event>
<event>
 6    1  0.3039387E-002  0.1640223E+03  0.7546771E-02  0.1084195E+00
        -11   -1    0    0    0    0  0.00000000000E+00  0.00000000000E+00  0.18250000000E+03  0.18250000000E+03  0.00000000000E+00 0. -1.
         11   -1    0    0    0    0 -0.00000000000E+00 -0.00000000000E+00 -0.18250000000E+03  0.18250000000E+03  0.00000000000E+00 0. -1.
        -11    1    1    2    0    0  0.28645219606E+01  0.53684483098E+01  0.16516736128E+03  0.16527940875E+03  0.00000000000E+00 0. -1.
         11    1    1    2    0    0 -0.17996000574E+02 -0.47967975118E+00 -0.16216791078E+03  0.16316408127E+03  0.00000000000E+00 0. -1.
        -15    1    1    2    0    0 -0.77828266324E+00 -0.17175558569E+01  0.13265161448E+02  0.13515841049E+02  0.17770000000E+01 0. -1.
         15    1    1    2    0    0  0.15909761276E+02 -0.31712127017E+01 -0.16264611947E+02  0.23040668928E+02  0.17770000000E+01 0.  1.
</event>
<event>
 6    1  0.1108180E-002  0.1954268E+03  0.7546771E-02  0.1058607E+00
        -11   -1    0    0    0    0  0.00000000000E+00  0.00000000000E+00  0.18250000000E+03  0.18250000000E+03  0.00000000000E+00 0.  1.
         11   -1    0    0    0    0 -0.00000000000E+00 -0.00000000000E+00 -0.18250000000E+03  0.18250000000E+03  0.00000000000E+00 0.  1.
        -11    1    1    2    0    0 -0.16938854967E+00  0.27481979064E+01  0.16955080245E+03  0.16957315795E+03  0.00000000000E+00 0.  1.
         11    1    1    2    0    0  0.48031289904E+01 -0.17323424706E+01 -0.16424962706E+03  0.16432897203E+03  0.00000000000E+00 0.  1.
        -15    1    1    2    0    0 -0.47380621184E+01  0.59807264366E+00  0.12310311931E+02  0.13323229052E+02  0.17770000000E+01 0.  1.
         15    1    1    2    0    0  0.10432167771E+00 -0.16139280795E+01 -0.17611487326E+02  0.17774640972E+02  0.17770000000E+01 0. -1.
</event>
<event>
 6    1  0.1108180E-002  0.1831688E+03  0.7546771E-02  0.1067924E+00
        -11   -1    0    0    0    0  0.00000000000E+00  0.00000000000E+00  0.18250000000E+03  0.18250000000E+03  0.00000000000E+00 0. -1.
         11   -1    0    0    0    0 -0.00000000000E+00 -0.00000000000E+00 -0.18250000000E+03  0.18250000000E+03  0.00000000000E+00 0. -1.
        -11    1    1    2    0    0 -0.17680335170E+01 -0.40042240726E+01  0.12979701434E+03  0.12987079997E+03  0.00000000000E+00 0. -1.
         11    1    1    2    0    0  0.25515090922E+01  0.58682204351E+01 -0.18171852208E+03  0.18183115101E+03  0.00000000000E+00 0. -1.
        -15    1    1    2    0    0 -0.22421041805E+00 -0.65483820924E+01  0.24823435965E+02  0.25735039935E+02  0.17770000000E+01 0. -1.
         15    1    1    2    0    0 -0.55926515716E+00  0.46843857299E+01  0.27098071775E+02  0.27563009090E+02  0.17770000000E+01 0. -1.
</event>
<event>
 6    1  0.1108180E-002  0.1841612E+03  0.7546771E-02  0.1067140E+00
        -11   -1    0    0    0    0  0.00000000000E+00  0.00000000000E+00  0.18250000000E+03  0.18250000000E+03  0.00000000000E+00 0.  1.
         11   -1    0    0    0    0 -0.00000000000E+00 -0.00000000000E+00 -0.18250000000E+03  0.18250000000E+03  0.00000000000E+00 0. -1.
        -11    1    1    2    0    0  0.10564831559E+01 -0.10545277025E+02  0.18052796567E+03  0.18083878294E+03  0.00000000000E+00 0.  1.
         11    1    1    2    0    0 -0.16630931960E+01  0.64165252656E+01 -0.16281110210E+03  0.16294598075E+03  0.00000000000E+00 0. -1.
        -15    1    1    2    0    0 -0.73362005641E+00  0.27306405539E+01 -0.18233256078E+02  0.18536557189E+02  0.17770000000E+01 0.  1.
         15    1    1    2    0    0  0.13402300965E+01  0.13981112054E+01  0.51639250202E+00  0.26786791280E+01  0.17770000000E+01 0. -1.
</event>
<event>
 6    1  0.1108180E-002  0.1858122E+03  0.7546771E-02  0.1065848E+00
        -11   -1    0    0    0    0  0.00000000000E+00  0.00000000000E+00  0.18250000000E+03  0.18250000000E+03  0.00000000000E+00 0. -1.
         11   -1    0    0    0    0 -0.00000000000E+00 -0.00000000000E+00 -0.18250000000E+03  0.18250000000E+03  0.00000000000E+00 0.  1.
        -11    1    1    2    0    0 -0.77610998774E+01  0.97363705688E+01  0.12407092292E+03  0.12469412776E+03  0.00000000000E+00 0. -1.
         11    1    1    2    0    0  0.24284249420E+00 -0.32443313357E+01 -0.17915826206E+03  0.17918779959E+03  0.00000000000E+00 0.  1.
        -15    1    1    2    0    0  0.10343495742E+02  0.23987824430E+00  0.51908592652E+02  0.52959467197E+02  0.17770000000E+01 0. -1.
         15    1    1    2    0    0 -0.28252383590E+01 -0.67319174775E+01  0.31787464804E+01  0.81586054504E+01  0.17770000000E+01 0.  1.
</event>
<event>
 6    1  0.1108180E-002  0.1896912E+03  0.7546771E-02  0.1062871E+00
        -11   -1    0    0    0    0  0.00000000000E+00  0.00000000000E+00  0.18250000000E+03  0.18250000000E+03  0.00000000000E+00 0.  1.
         11   -1    0    0    0    0 -0.00000000000E+00 -0.00000000000E+00 -0.18250000000E+03  0.18250000000E+03  0.00000000000E+00 0.  1.
        -11    1    1    2    0    0  0.28838322591E+01  0.12928515481E+02  0.17480767983E+03  0.17530883585E+03  0.00000000000E+00 0.  1.
         11    1    1    2    0    0  0.19387384914E+01 -0.11049809361E+01 -0.16233005956E+03  0.16234539700E+03  0.00000000000E+00 0.  1.
        -15    1    1    2    0    0  0.53196501466E+01 -0.12792013534E+02 -0.77603238715E+01  0.15978568257E+02  0.17770000000E+01 0. -1.
         15    1    1    2    0    0 -0.10142220897E+02  0.96847898950E+00 -0.47172963983E+01  0.11367198889E+02  0.17770000000E+01 0.  1.
</event>
<event>
 6    1  0.1108180E-002  0.1836178E+03  0.7546771E-02  0.1067569E+00
        -11   -1    0    0    0    0  0.00000000000E+00  0.00000000000E+00  0.18250000000E+03  0.18250000000E+03  0.00000000000E+00 0.  1.
         11   -1    0    0    0    0 -0.00000000000E+00 -0.00000000000E+00 -0.18250000000E+03  0.18250000000E+03  0.00000000000E+00 0.  1.
        -11    1    1    2    0    0  0.29562971353E+01 -0.54478313201E+00  0.15624999693E+03  0.15627891100E+03  0.00000000000E+00 0.  1.
         11    1    1    2    0    0  0.72776445915E+00 -0.60691340403E+01 -0.18127921182E+03  0.18138223911E+03  0.00000000000E+00 0.  1.
        -15    1    1    2    0    0 -0.74009776126E+00  0.28190435140E+01  0.24901437642E+01  0.42253160824E+01  0.17770000000E+01 0. -1.
         15    1    1    2    0    0 -0.29439638332E+01  0.37948736583E+01  0.22539071118E+02  0.23113533806E+02  0.17770000000E+01 0.  1.
</event>
<event>
 6    1  0.1108180E-002  0.1859308E+03  0.7546771E-02  0.1065756E+00
        -11   -1    0    0    0    0  0.00000000000E+00  0.00000000000E+00  0.18250000000E+03  0.18250000000E+03  0.00000000000E+00 0.  1.
         11   -1    0    0    0    0 -0.00000000000E+00 -0.00000000000E+00 -0.18250000000E+03  0.18250000000E+03  0.00000000000E+00 0.  1.
        -11    1    1    2    0    0 -0.53426812453E+01 -0.81317284253E+00  0.17898767606E+03  0.17906924268E+03  0.00000000000E+00 0.  1.
         11    1    1    2    0    0  0.33015257569E+01 -0.16265733811E+01 -0.15992613827E+03  0.15996848289E+03  0.00000000000E+00 0.  1.
        -15    1    1    2    0    0 -0.20340891518E+01  0.37795373265E+01 -0.20563804917E+02  0.21081988112E+02  0.17770000000E+01 0. -1.
         15    1    1    2    0    0  0.40752446402E+01 -0.13397911029E+01  0.15022671364E+01  0.48802863262E+01  0.17770000000E+01 0. -1.
</event>
<event>
 6    1  0.1108180E-002  0.1831753E+03  0.7546771E-02  0.1067919E+00
        -11   -1    0    0    0    0  0.00000000000E+00  0.00000000000E+00  0.18250000000E+03  0.18250000000E+03  0.00000000000E+00 0. -1.
         11   -1    0    0    0    0 -0.00000000000E+00 -0.00000000000E+00 -0.18250000000E+03  0.18250000000E+03  0.00000000000E+00 0. -1.
        -11    1    1    2    0    0 -0.19309127807E+01 -0.46493628755E+01  0.16727040855E+03  0.16734615196E+03  0.00000000000E+00 0. -1.
         11    1    1    2    0    0  0.65766490337E+00  0.37095351306E+01 -0.18178566966E+03  0.18182470368E+03  0.00000000000E+00 0. -1.
        -15    1    1    2    0    0  0.57848625658E-01 -0.53694944727E+00  0.12197353631E+02  0.12337942526E+02  0.17770000000E+01 0.  1.
         15    1    1    2    0    0  0.12153992517E+01  0.14767771922E+01  0.23179074797E+01  0.34912018419E+01  0.17770000000E+01 0. -1.
</event>
<event>
 6    1  0.1108180E-002  0.1886195E+03  0.7546771E-02  0.1063685E+00
        -11   -1    0    0    0    0  0.00000000000E+00  0.00000000000E+00  0.18250000000E+03  0.18250000000E+03  0.00000000000E+00 0. -1.
         11   -1    0    0    0    0 -0.00000000000E+00 -0.00000000000E+00 -0.18250000000E+03  0.18250000000E+03  0.00000000000E+00 0.  1.
        -11    1    1    2    0    0 -0.48181582660E+01  0.21418459976E+01  0.12239036747E+03  0.12250389464E+03  0.00000000000E+00 0. -1.
         11    1    1    2    0    0 -0.11635605726E+02 -0.28105834625E+01 -0.17597385932E+03  0.17638051441E+03  0.00000000000E+00 0.  1.
        -15    1    1    2    0    0  0.13381225846E+02  0.51890331610E+01  0.24592554714E+01  0.14669319574E+02  0.17770000000E+01 0.  1.
         15    1    1    2    0    0  0.30725381467E+01 -0.45202956961E+01  0.51124236377E+02  0.51446271371E+02  0.17770000000E+01 0.  1.
</event>
<event>
 6    1  0.1108180E-002  0.1837407E+03  0.7546771E-02  0.1067472E+00
        -11   -1    0    0    0    0  0.00000000000E+00  0.00000000000E+00  0.18250000000E+03  0.18250000000E+03  0.00000000000E+00 0.  1.
         11   -1    0    0    0    0 -0.00000000000E+00 -0.00000000000E+00 -0.18250000000E+03  0.18250000000E+03  0.00000000000E+00 0. -1.
        -11    1    1    2    0    0 -0.55258241199E+01  0.15472412802E+00  0.42355774200E+02  0.42714988937E+02  0.00000000000E+00 0.  1.
         11    1    1    2    0    0  0.94093004460E+01  0.65243985816E+01 -0.18089732424E+03  0.18125932977E+03  0.00000000000E+00 0. -1.
        -15    1    1    2    0    0 -0.21633852264E+01 -0.58338885010E+01  0.13824382600E+03  0.13839518650E+03  0.17770000000E+01 0.  1.
         15    1    1    2    0    0 -0.17200910998E+01 -0.84523420861E+00  0.29772404284E+00  0.26304947946E+01  0.17770000000E+01 0. -1.
</event>
<event>
 6    1  0.1108180E-002  0.1843298E+03  0.7546771E-02  0.1067008E+00
        -11   -1    0    0    0    0  0.00000000000E+00  0.00000000000E+00  0.18250000000E+03  0.18250000000E+03  0.00000000000E+00 0. -1.
         11   -1    0    0    0    0 -0.00000000000E+00 -0.00000000000E+00 -0.18250000000E+03  0.18250000000E+03  0.00000000000E+00 0. -1.
        -11    1    1    2    0    0 -0.27851628610E+01 -0.30162433872E+01  0.18062357725E+03  0.18067022863E+03  0.00000000000E+00 0. -1.
         11    1    1    2    0    0  0.58546754888E+00  0.45603867379E+01 -0.17060327042E+03  0.17066521549E+03  0.00000000000E+00 0. -1.
        -15    1    1    2    0    0  0.57588578263E+00  0.31508440550E+01 -0.23399820594E+01  0.43465742524E+01  0.17770000000E+01 0.  1.
         15    1    1    2    0    0  0.16238095295E+01 -0.46949874057E+01 -0.76803247617E+01  0.93179816254E+01  0.17770000000E+01 0. -1.
</event>
<event>
 6    1  0.1108180E-002  0.1842211E+03  0.7546771E-02  0.1067093E+00
        -11   -1    0    0    0    0  0.00000000000E+00  0.00000000000E+00  0.18250000000E+03  0.18250000000E+03  0.00000000000E+00 0. -1.
         11   -1    0    0    0    0 -0.00000000000E+00 -0.00000000000E+00 -0.18250000000E+03  0.18250000000E+03  0.00000000000E+00 0.  1.
        -11    1    1    2    0    0  0.30832704175E+01 -0.10485225396E+00  0.18075260091E+03  0.18077892656E+03  0.00000000000E+00 0. -1.
         11    1    1    2    0    0 -0.25548763880E+01 -0.13207118174E+01 -0.17774817233E+03  0.17777143877E+03  0.00000000000E+00 0.  1.
        -15    1    1    2    0    0  0.63869884206E+00 -0.15840914928E-01  0.63748563411E+00  0.19930639927E+01  0.17770000000E+01 0.  1.
         15    1    1    2    0    0 -0.11670928716E+01  0.14414049863E+01 -0.36419142138E+01  0.44565706823E+01  0.17770000000E+01 0. -1.
</event>
<event>
 6    1  0.1108180E-002  0.1826177E+03  0.7546771E-02  0.1068361E+00
        -11   -1    0    0    0    0  0.00000000000E+00  0.00000000000E+00  0.18250000000E+03  0.18250000000E+03  0.00000000000E+00 0.  1.
         11   -1    0    0    0    0 -0.00000000000E+00 -0.00000000000E+00 -0.18250000000E+03  0.18250000000E+03  0.00000000000E+00 0.  1.
        -11    1    1    2    0    0 -0.52801502797E+00 -0.91788715482E+00  0.42146121060E+02  0.42159421688E+02  0.00000000000E+00 0.  1.
         11    1    1    2    0    0  0.19632536897E+01  0.22812077470E+01 -0.18235744488E+03  0.18238227978E+03  0.00000000000E+00 0.  1.
        -15    1    1    2    0    0  0.36669282354E+00 -0.38303650021E+01  0.50560278204E+02  0.50737615442E+02  0.17770000000E+01 0. -1.
         15    1    1    2    0    0 -0.18019314853E+01  0.24670444099E+01  0.89651045617E+02  0.89720683092E+02  0.17770000000E+01 0.  1.
</event>
<event>
 6    1  0.1108180E-002  0.1839889E+03  0.7546771E-02  0.1067276E+00
        -11   -1    0    0    0    0  0.00000000000E+00  0.00000000000E+00  0.18250000000E+03  0.18250000000E+03  0.00000000000E+00 0.  1.
         11   -1    0    0    0    0 -0.00000000000E+00 -0.00000000000E+00 -0.18250000000E+03  0.18250000000E+03  0.00000000000E+00 0. -1.
        -11    1    1    2    0    0  0.33873837664E+01  0.38179497333E+01  0.18093914493E+03  0.18101111920E+03  0.00000000000E+00 0.  1.
         11    1    1    2    0    0  0.12479671282E+01 -0.22061127955E+01 -0.12051491088E+03  0.12054156171E+03  0.00000000000E+00 0. -1.
        -15    1    1    2    0    0  0.27481954786E+01  0.13524449504E+01 -0.13132008513E+01  0.37767593527E+01  0.17770000000E+01 0. -1.
         15    1    1    2    0    0 -0.73835463733E+01 -0.29642818882E+01 -0.59111033195E+02  0.59670559730E+02  0.17770000000E+01 0. -1.
</event>
<event>
 6    1  0.1108180E-002  0.1863619E+03  0.7546771E-02  0.1065422E+00
        -11   -1    0    0    0    0  0.00000000000E+00  0.00000000000E+00  0.18250000000E+03  0.18250000000E+03  0.00000000000E+00 0.  1.
         11   -1    0    0    0    0 -0.00000000000E+00 -0.00000000000E+00 -0.18250000000E+03  0.18250000000E+03  0.00000000000E+00 0. -1.
        -11    1    1    2    0    0  0.15244186043E+01 -0.22452386206E+01  0.17861746059E+03  0.17863807594E+03  0.00000000000E+00 0.  1.
         11    1    1    2    0    0  0.79408745137E+01 -0.61786005462E+01 -0.16263337272E+03  0.16294430495E+03  0.00000000000E+00 0. -1.
        -15    1    1    2    0    0 -0.10210117576E+02  0.85671274071E+01 -0.16624976481E+02  0.21381995812E+02  0.17770000000E+01 0. -1.
         15    1    1    2    0    0  0.74482445751E+00 -0.14328824040E+00  0.64088861947E+00  0.20356232989E+01  0.17770000000E+01 0. -1.
</event>
<event>
 6    1  0.1108180E-002  0.1895684E+03  0.7546771E-02  0.1062964E+00
        -11   -1    0    0    0    0  0.00000000000E+00  0.00000000000E+00  0.18250000000E+03  0.18250000000E+03  0.00000000000E+00 0. -1.
         11   -1    0    0    0    0 -0.00000000000E+00 -0.00000000000E+00 -0.18250000000E+03  0.18250000000E+03  0.00000000000E+00 0.  1.
        -11    1    1    2    0    0  0.52213357814E+01 -0.26243680092E+01  0.17533421645E+03  0.17543157388E+03  0.00000000000E+00 0. -1.
         11    1    1    2    0    0  0.97129702687E+00  0.13016260050E+02 -0.62452943373E+02  0.63802324249E+02  0.00000000000E+00 0.  1.
        -15    1    1    2    0    0 -0.11529291987E+02  0.19300077984E+01  0.25019938147E+00  0.11826657709E+02  0.17770000000E+01 0. -1.
         15    1    1    2    0    0  0.53366591790E+01 -0.12321899840E+02 -0.11313147246E+03  0.11393944417E+03  0.17770000000E+01 0.  1.
</event>
<event>
 6    1  0.1108180E-002  0.2161195E+03  0.7546771E-02  0.1044455E+00
        -11   -1    0    0    0    0  0.00000000000E+00  0.00000000000E+00  0.18250000000E+03  0.18250000000E+03  0.00000000000E+00 0. -1.
         11   -1    0    0    0    0 -0.00000000000E+00 -0.00000000000E+00 -0.18250000000E+03  0.18250000000E+03  0.00000000000E+00 0.  1.
        -11    1    1    2    0    0  0.54069687335E+00 -0.27777606992E+01  0.14885361403E+03  0.14888051155E+03  0.00000000000E+00 0. -1.
         11    1    1    2    0    0  0.12311566306E+01 -0.25328338458E+01 -0.89027863434E+02  0.89072394498E+02  0.00000000000E+00 0.  1.
        -15    1    1    2    0    0 -0.34392586467E+01  0.11244215054E+01 -0.93218120968E+02  0.93305244384E+02  0.17770000000E+01 0.  1.
         15    1    1    2    0    0  0.16674051428E+01  0.41861730396E+01  0.33392370370E+02  0.33741849572E+02  0.17770000000E+01 0. -1.
</event>
<event>
 6    1  0.1108180E-002  0.1831099E+03  0.7546771E-02  0.1067970E+00
        -11   -1    0    0    0    0  0.00000000000E+00  0.00000000000E+00  0.18250000000E+03  0.18250000000E+03  0.00000000000E+00 0. -1.
         11   -1    0    0    0    0 -0.00000000000E+00 -0.00000000000E+00 -0.18250000000E+03  0.18250000000E+03  0.00000000000E+00 0.  1.
        -11    1    1    2    0    0 -0.26901998524E+01  0.16435100847E+01  0.14542123918E+03  0.14545540590E+03  0.00000000000E+00 0. -1.
         11    1    1    2    0    0  0.89414027387E+01  0.25639530061E+01 -0.18165210275E+03  0.18189010136E+03  0.00000000000E+00 0.  1.
        -15    1    1    2    0    0 -0.23503974807E+01 -0.27297572403E+01  0.27736172491E+02  0.28025505104E+02  0.17770000000E+01 0. -1.
         15    1    1    2    0    0 -0.39008054056E+01 -0.14777058505E+01  0.84946910768E+01  0.96289876355E+01  0.17770000000E+01 0.  1.
</event>
<event>
 6    1  0.1108180E-002  0.1832280E+03  0.7546771E-02  0.1067877E+00
        -11   -1    0    0    0    0  0.00000000000E+00  0.00000000000E+00  0.18250000000E+03  0.18250000000E+03  0.00000000000E+00 0. -1.
         11   -1    0    0    0    0 -0.00000000000E+00 -0.00000000000E+00 -0.18250000000E+03  0.18250000000E+03  0.00000000000E+00 0.  1.
        -11    1    1    2    0    0 -0.46498595525E+01 -0.57321181106E+01  0.18162210707E+03  0.18177202246E+03  0.00000000000E+00 0. -1.
         11    1    1    2    0    0  0.14521065302E+01 -0.14019358294E+01 -0.14590748310E+03  0.14592144346E+03  0.00000000000E+00 0.  1.
        -15    1    1    2    0    0  0.39017227223E+01  0.71758612881E+01 -0.23482972403E+02  0.24926374532E+02  0.17770000000E+01 0.  1.
         15    1    1    2    0    0 -0.70396969995E+00 -0.41807348077E-01 -0.12231651573E+02  0.12380159547E+02  0.17770000000E+01 0.  1.
</event>
<event>
 6    1  0.1108180E-002  0.1865956E+03  0.7546771E-02  0.1065241E+00
        -11   -1    0    0    0    0  0.00000000000E+00  0.00000000000E+00  0.18250000000E+03  0.18250000000E+03  0.00000000000E+00 0.  1.
         11   -1    0    0    0    0 -0.00000000000E+00 -0.00000000000E+00 -0.18250000000E+03  0.18250000000E+03  0.00000000000E+00 0. -1.
        -11    1    1    2    0    0 -0.40549595380E+01 -0.44533888917E+01  0.17830269241E+03  0.17840438753E+03  0.00000000000E+00 0.  1.
         11    1    1    2    0    0 -0.48377030184E+01 -0.95651795236E+00 -0.10352031364E+03  0.10363770372E+03  0.00000000000E+00 0. -1.
        -15    1    1    2    0    0  0.15048776795E+02 -0.50266663967E+01 -0.14906621898E+02  0.21842576852E+02  0.17770000000E+01 0.  1.
         15    1    1    2    0    0 -0.61561142390E+01  0.10436573241E+02 -0.59875756870E+02  0.61115331900E+02  0.17770000000E+01 0. -1.
</event>
<event>
 6    1  0.1108180E-002  0.1828513E+03  0.7546771E-02  0.1068175E+00
        -11   -1    0    0    0    0  0.00000000000E+00  0.00000000000E+00  0.18250000000E+03  0.18250000000E+03  0.00000000000E+00 0. -1.
         11   -1    0    0    0    0 -0.00000000000E+00 -0.00000000000E+00 -0.18250000000E+03  0.18250000000E+03  0.00000000000E+00 0. -1.
        -11    1    1    2    0    0  0.12542523993E+01  0.60619771944E-01  0.25214448671E+02  0.25245697566E+02  0.00000000000E+00 0. -1.
         11    1    1    2    0    0 -0.12934005196E+01  0.25401211700E+01 -0.18212634943E+03  0.18214865428E+03  0.00000000000E+00 0. -1.
        -15    1    1    2    0    0  0.24986764120E+01  0.45997667644E+01  0.34076358891E+02  0.34521836602E+02  0.17770000000E+01 0. -1.
         15    1    1    2    0    0 -0.24595282917E+01 -0.72005077063E+01  0.12283554187E+03  0.12308381155E+03  0.17770000000E+01 0. -1.
</event>
<event>
 6    1  0.1108180E-002  0.1826582E+03  0.7546771E-02  0.1068329E+00
        -11   -1    0    0    0    0  0.00000000000E+00  0.00000000000E+00  0.18250000000E+03  0.18250000000E+03  0.00000000000E+00 0.  1.
         11   -1    0    0    0    0 -0.00000000000E+00 -0.00000000000E+00 -0.18250000000E+03  0.18250000000E+03  0.00000000000E+00 0.  1.
        -11    1    1    2    0    0 -0.31252158041E+00 -0.14299524092E+01  0.46668486999E+02  0.46691435108E+02  0.00000000000E+00 0.  1.
         11    1    1    2    0    0  0.22879572279E+01  0.22821187522E+01 -0.18231314192E+03  0.18234177945E+03  0.00000000000E+00 0.  1.
        -15    1    1    2    0    0 -0.12918585347E+01 -0.43325453942E+00  0.80065753019E+01  0.83138189200E+01  0.17770000000E+01 0. -1.
         15    1    1    2    0    0 -0.68357711274E+00 -0.41891180352E+00  0.12763807962E+03  0.12765296653E+03  0.17770000000E+01 0.  1.
</event>
<event>
 6    1  0.1108180E-002  0.1829341E+03  0.7546771E-02  0.1068110E+00
        -11   -1    0    0    0    0  0.00000000000E+00  0.00000000000E+00  0.18250000000E+03  0.18250000000E+03  0.00000000000E+00 0. -1.
         11   -1    0    0    0    0 -0.00000000000E+00 -0.00000000000E+00 -0.18250000000E+03  0.18250000000E+03  0.00000000000E+00 0. -1.
        -11    1    1    2    0    0 -0.10691494437E+01  0.50222593911E+01  0.18199345715E+03  0.18206587987E+03  0.00000000000E+00 0. -1.
         11    1    1    2    0    0 -0.72313619694E+00 -0.20995904138E+01 -0.13803737158E+03  0.13805523228E+03  0.00000000000E+00 0. -1.
        -15    1    1    2    0    0  0.23916651330E+00 -0.32343293169E+01 -0.40578611594E+02  0.40746773303E+02  0.17770000000E+01 0. -1.
         15    1    1    2    0    0  0.15531191273E+01  0.31166033963E+00 -0.33774739696E+01  0.41321145442E+01  0.17770000000E+01 0. -1.
</event>
<event>
 6    1  0.1108180E-002  0.1926930E+03  0.7546771E-02  0.1060619E+00
        -11   -1    0    0    0    0  0.00000000000E+00  0.00000000000E+00  0.18250000000E+03  0.18250000000E+03  0.00000000000E+00 0. -1.
         11   -1    0    0    0    0 -0.00000000000E+00 -0.00000000000E+00 -0.18250000000E+03  0.18250000000E+03  0.00000000000E+00 0. -1.
        -11    1    1    2    0    0  0.45366607296E+01  0.60919988873E+01  0.16925337673E+03  0.16942372702E+03  0.00000000000E+00 0. -1.
         11    1    1    2    0    0 -0.47705597848E+01 -0.60168103024E+01 -0.17213578773E+03  0.17230696348E+03  0.00000000000E+00 0. -1.
        -15    1    1    2    0    0  0.92964502817E+01  0.42618782610E+01 -0.38214478962E+01  0.11061138602E+02  0.17770000000E+01 0.  1.
         15    1    1    2    0    0 -0.90625512265E+01 -0.43370668459E+01  0.67038588938E+01  0.12208170896E+02  0.17770000000E+01 0. -1.
</event>
<event>
 6    1  0.1108180E-002  0.1838020E+03  0.7546771E-02  0.1067423E+00
        -11   -1    0    0    0    0  0.00000000000E+00  0.00000000000E+00  0.18250000000E+03  0.18250000000E+03  0.00000000000E+00 0. -1.
         11   -1    0    0    0    0 -0.00000000000E+00 -0.00000000000E+00 -0.18250000000E+03  0.18250000000E+03  0.00000000000E+00 0. -1.
        -11    1    1    2    0    0  0.61786092524E+00 -0.82781065305E+01  0.18100779509E+03  0.18119804271E+03  0.00000000000E+00 0. -1.
         11    1    1    2    0    0 -0.33669112945E+01 -0.51731906666E+01 -0.12958165664E+03  0.12972857716E+03  0.00000000000E+00 0. -1.
        -15    1    1    2    0    0 -0.20231861446E+01  0.13400417300E+01 -0.16200993755E+02  0.16477831219E+02  0.17770000000E+01 0.  1.
         15    1    1    2    0    0  0.47722365139E+01  0.12111255467E+02 -0.35225144692E+02  0.37595548911E+02  0.17770000000E+01 0. -1.
</event>
<event>
 6    1  0.1108180E-002  0.1909717E+03  0.7546771E-02  0.1061904E+00
        -11   -1    0    0    0    0  0.00000000000E+00  0.00000000000E+00  0.18250000000E+03  0.18250000000E+03  0.00000000000E+00 0.  1.
         11   -1    0    0    0    0 -0.00000000000E+00 -0.00000000000E+00 -0.18250000000E+03  0.18250000000E+03  0.00000000000E+00 0. -1.
        -11    1    1    2    0    0 -0.18778342989E+01 -0.12253318058E+01  0.15639653063E+03  0.15641260337E+03  0.00000000000E+00 0.  1.
         11    1    1    2    0    0  0.25765530677E+02 -0.17938268494E+01 -0.17210103102E+03  0.17402828869E+03  0.00000000000E+00 0. -1.
        -15    1    1    2    0    0  0.17158637491E+01  0.26267298595E+01  0.62299091206E+01  0.71981521804E+01  0.17770000000E+01 0. -1.
         15    1    1    2    0    0 -0.25603560127E+02  0.39242879572E+00  0.94745912720E+01  0.27360955764E+02  0.17770000000E+01 0. -1.
</event>
<event>
 6    1  0.1108180E-002  0.1832861E+03  0.7546771E-02  0.1067831E+00
        -11   -1    0    0    0    0  0.00000000000E+00  0.00000000000E+00  0.18250000000E+03  0.18250000000E+03  0.00000000000E+00 0. -1.
         11   -1    0    0    0    0 -0.00000000000E+00 -0.00000000000E+00 -0.18250000000E+03  0.18250000000E+03  0.00000000000E+00 0.  1.
        -11    1    1    2    0    0 -0.13126541219E+01  0.18353091745E+01  0.12217239993E+03  0.12219323519E+03  0.00000000000E+00 0. -1.
         11    1    1    2    0    0  0.67090078901E+01  0.29093860700E+01 -0.18156669269E+03  0.18171389383E+03  0.00000000000E+00 0.  1.
        -15    1    1    2    0    0  0.24930277928E+01 -0.31670847521E+01  0.36426687844E+02  0.36692055403E+02  0.17770000000E+01 0. -1.
         15    1    1    2    0    0 -0.78893815610E+01 -0.15776104924E+01  0.22967604921E+02  0.24400815582E+02  0.17770000000E+01 0. -1.
</event>
<event>
 6    1  0.1108180E-002  0.1647554E+03  0.7546771E-02  0.1083528E+00
        -11   -1    0    0    0    0  0.00000000000E+00  0.00000000000E+00  0.18250000000E+03  0.18250000000E+03  0.00000000000E+00 0.  1.
         11   -1    0    0    0    0 -0.00000000000E+00 -0.00000000000E+00 -0.18250000000E+03  0.18250000000E+03  0.00000000000E+00 0.  1.
        -11    1    1    2    0    0 -0.11898310273E+02 -0.27208701821E+02  0.16171758716E+03  0.16442159602E+03  0.00000000000E+00 0.  1.
         11    1    1    2    0    0 -0.16908352182E+01  0.31638931351E+01 -0.16623675614E+03  0.16627545891E+03  0.00000000000E+00 0.  1.
        -15    1    1    2    0    0 -0.65390446117E+00 -0.29050533220E+01  0.58523334722E+00  0.35166963074E+01  0.17770000000E+01 0.  1.
         15    1    1    2    0    0  0.14243049952E+02  0.26949862008E+02  0.39339356384E+01  0.30786248761E+02  0.17770000000E+01 0.  1.
</event>
<event>
 6    1  0.1108180E-002  0.1825818E+03  0.7546771E-02  0.1068390E+00
        -11   -1    0    0    0    0  0.00000000000E+00  0.00000000000E+00  0.18250000000E+03  0.18250000000E+03  0.00000000000E+00 0.  1.
         11   -1    0    0    0    0 -0.00000000000E+00 -0.00000000000E+00 -0.18250000000E+03  0.18250000000E+03  0.00000000000E+00 0. -1.
        -11    1    1    2    0    0  0.23935350418E+01 -0.10301317351E+01  0.18239960351E+03  0.18241821604E+03  0.00000000000E+00 0.  1.
         11    1    1    2    0    0  0.44953865611E+00  0.17343716829E+01 -0.55912967652E+02  0.55941666777E+02  0.00000000000E+00 0. -1.
        -15    1    1    2    0    0 -0.34582871543E+01 -0.10022584328E+01 -0.64920867406E+02  0.65044915449E+02  0.17770000000E+01 0.  1.
         15    1    1    2    0    0  0.61521345636E+00  0.29801848500E+00 -0.61565768453E+02  0.61595201735E+02  0.17770000000E+01 0.  1.
</event>
<event>
 6    1  0.1108180E-002  0.1838172E+03  0.7546771E-02  0.1067411E+00
        -11   -1    0    0    0    0  0.00000000000E+00  0.00000000000E+00  0.18250000000E+03  0.18250000000E+03  0.00000000000E+00 0.  1.
         11   -1    0    0    0    0 -0.00000000000E+00 -0.00000000000E+00 -0.18250000000E+03  0.18250000000E+03  0.00000000000E+00 0. -1.
        -11    1    1    2    0    0  0.39732343732E+01 -0.18173790309E+01  0.18113015491E+03  0.18118284267E+03  0.00000000000E+00 0.  1.
         11    1    1    2    0    0 -0.34004154871E+01 -0.42056495045E+01 -0.14919070578E+03  0.14928870354E+03  0.00000000000E+00 0. -1.
        -15    1    1    2    0    0 -0.35736475025E+01  0.12111372608E+01 -0.34121364720E+01  0.53887117422E+01  0.17770000000E+01 0.  1.
         15    1    1    2    0    0  0.30008286163E+01  0.48118912746E+01 -0.28527312662E+02  0.29139742050E+02  0.17770000000E+01 0.  1.
</event>
<event>
 6    1  0.1108180E-002  0.1875129E+03  0.7546771E-02  0.1064533E+00
        -11   -1    0    0    0    0  0.00000000000E+00  0.00000000000E+00  0.18250000000E+03  0.18250000000E+03  0.00000000000E+00 0.  1.
         11   -1    0    0    0    0 -0.00000000000E+00 -0.00000000000E+00 -0.18250000000E+03  0.18250000000E+03  0.00000000000E+00 0.  1.
        -11    1    1    2    0    0 -0.38802170863E+01 -0.68975129426E+00  0.16475262282E+03  0.16479975293E+03  0.00000000000E+00 0.  1.
         11    1    1    2    0    0  0.40720431475E+01 -0.40383322196E+01 -0.17739438831E+03  0.17748706619E+03  0.00000000000E+00 0.  1.
        -15    1    1    2    0    0 -0.18636952756E+01  0.58646195587E+01 -0.28347689680E+01  0.70043391373E+01  0.17770000000E+01 0. -1.
         15    1    1    2    0    0  0.16718692145E+01 -0.11365360448E+01  0.15476534460E+02  0.15708841738E+02  0.17770000000E+01 0. -1.
</event>
<event>
 6    1  0.1108180E-002  0.1930968E+03  0.7546771E-02  0.1060319E+00
        -11   -1    0    0    0    0  0.00000000000E+00  0.00000000000E+00  0.18250000000E+03  0.18250000000E+03  0.00000000000E+00 0. -1.
         11   -1    0    0    0    0 -0.00000000000E+00 -0.00000000000E+00 -0.18250000000E+03  0.18250000000E+03  0.00000000000E+00 0. -1.
        -11    1    1    2    0    0 -0.91659290587E+00  0.23504699880E+01  0.15349416131E+03  0.15351489312E+03  0.00000000000E+00 0. -1.
         11    1    1    2    0    0  0.13674831425E+02  0.51351710828E+00 -0.17135760422E+03  0.17190315075E+03  0.00000000000E+00 0. -1.
        -15    1    1    2    0    0  0.34971515554E+01  0.38292697390E+01  0.20941231222E+02  0.21646853578E+02  0.17770000000E+01 0. -1.
         15    1    1    2    0    0 -0.16255390075E+02 -0.66932568353E+01 -0.30777883127E+01  0.17935102549E+02  0.17770000000E+01 0.  1.
</event>
<event>
 6    1  0.1108180E-002  0.1878003E+03  0.7546771E-02  0.1064312E+00
        -11   -1    0    0    0    0  0.00000000000E+00  0.00000000000E+00  0.18250000000E+03  0.18250000000E+03  0.00000000000E+00 0. -1.
         11   -1    0    0    0    0 -0.00000000000E+00 -0.00000000000E+00 -0.18250000000E+03  0.18250000000E+03  0.00000000000E+00 0.  1.
        -11    1    1    2    0    0  0.19656636748E+01 -0.51823603614E+01  0.17711304022E+03  0.17719974522E+03  0.00000000000E+00 0. -1.
         11    1    1    2    0    0 -0.49044163944E+00  0.27361699786E+01 -0.16873537645E+03  0.16875827217E+03  0.00000000000E+00 0.  1.
        -15    1    1    2    0    0  0.31482460318E+01 -0.35294411218E+01 -0.99164358662E+01  0.11129323295E+02  0.17770000000E+01 0. -1.
         15    1    1    2    0    0 -0.46234680671E+01  0.59756315046E+01  0.15387720984E+01  0.79126593138E+01  0.17770000000E+01 0.  1.
</event>
<event>
 6    1  0.1108180E-002  0.1846576E+03  0.7546771E-02  0.1066750E+00
        -11   -1    0    0    0    0  0.00000000000E+00  0.00000000000E+00  0.18250000000E+03  0.18250000000E+03  0.00000000000E+00 0.  1.
         11   -1    0    0    0    0 -0.00000000000E+00 -0.00000000000E+00 -0.18250000000E+03  0.18250000000E+03  0.00000000000E+00 0. -1.
        -11    1    1    2    0    0 -0.16039163172E+02  0.13600521669E+02  0.17911211115E+03  0.18034238910E+03  0.00000000000E+00 0.  1.
         11    1    1    2    0    0 -0.49568934280E+00 -0.15413625503E+01 -0.44999675547E+02  0.45028794185E+02  0.00000000000E+00 0. -1.
        -15    1    1    2    0    0  0.19875379836E+02  0.44543842322E+01 -0.53916955671E+02  0.57663403476E+02  0.17770000000E+01 0.  1.
         15    1    1    2    0    0 -0.33405273213E+01 -0.16513543351E+02 -0.80195479933E+02  0.81965413239E+02  0.17770000000E+01 0. -1.
</event>
<event>
 6    1  0.1108180E-002  0.1840267E+03  0.7546771E-02  0.1067246E+00
        -11   -1    0    0    0    0  0.00000000000E+00  0.00000000000E+00  0.18250000000E+03  0.18250000000E+03  0.00000000000E+00 0. -1.
         11   -1    0    0    0    0 -0.00000000000E+00 -0.00000000000E+00 -0.18250000000E+03  0.18250000000E+03  0.00000000000E+00 0. -1.
        -11    1    1    2    0    0  0.25526524917E+01  0.94000217534E+00  0.17107827460E+03  0.17109989971E+03  0.00000000000E+00 0. -1.
         11    1    1    2    0    0 -0.54471683714E-01  0.40933818654E+01 -0.18092701713E+03  0.18097332474E+03  0.00000000000E+00 0. -1.
        -15    1    1    2    0    0 -0.10541592088E+01 -0.37079144813E+00  0.62877328858E+01  0.66288801300E+01  0.17770000000E+01 0.  1.
         15    1    1    2    0    0 -0.14440215992E+01 -0.46625925926E+01  0.35610096359E+01  0.62978954176E+01  0.17770000000E+01 0. -1.
</event>
<event>
 6    1  0.1108180E-002  0.1776663E+03  0.7546771E-02  0.1072369E+00
        -11   -1    0    0    0    0  0.00000000000E+00  0.00000000000E+00  0.18250000000E+03  0.18250000000E+03  0.00000000000E+00 0. -1.
         11   -1    0    0    0    0 -0.00000000000E+00 -0.00000000000E+00 -0.18250000000E+03  0.18250000000E+03  0.00000000000E+00 0. -1.
        -11    1    1    2    0    0  0.10677979282E+00 -0.33558928778E+01  0.17709132693E+03  0.17712315347E+03  0.00000000000E+00 0. -1.
         11    1    1    2    0    0  0.50237703258E+01  0.33409963787E+01 -0.17814595645E+03  0.17824809207E+03  0.00000000000E+00 0. -1.
        -15    1    1    2    0    0 -0.61698041970E+01  0.73592158941E+00  0.25889823549E+01  0.69619410403E+01  0.17770000000E+01 0. -1.
         15    1    1    2    0    0  0.10392540784E+01 -0.72102509034E+00 -0.15343528375E+01  0.26668134263E+01  0.17770000000E+01 0.  1.
</event>
<event>
 6    1  0.1108180E-002  0.1857045E+03  0.7546771E-02  0.1065932E+00
        -11   -1    0    0    0    0  0.00000000000E+00  0.00000000000E+00  0.18250000000E+03  0.18250000000E+03  0.00000000000E+00 0. -1.
         11   -1    0    0    0    0 -0.00000000000E+00 -0.00000000000E+00 -0.18250000000E+03  0.18250000000E+03  0.00000000000E+00 0. -1.
        -11    1    1    2    0    0 -0.14128339784E+02  0.21422350309E+01  0.17555324084E+03  0.17613386820E+03  0.00000000000E+00 0. -1.
         11    1    1    2    0    0 -0.27403410090E-01 -0.33802919227E+01 -0.33822104795E+01  0.47818900194E+01  0.00000000000E+00 0. -1.
        -15    1    1    2    0    0 -0.20281344614E+02  0.76152102103E+01 -0.26614214957E+02  0.34362749202E+02  0.17770000000E+01 0.  1.
         15    1    1    2    0    0  0.34437087809E+02 -0.63771533185E+01 -0.14555681540E+03  0.14972149258E+03  0.17770000000E+01 0. -1.
</event>
<event>
 6    1  0.1108180E-002  0.1879166E+03  0.7546771E-02  0.1064223E+00
        -11   -1    0    0    0    0  0.00000000000E+00  0.00000000000E+00  0.18250000000E+03  0.18250000000E+03  0.00000000000E+00 0. -1.
         11   -1    0    0    0    0 -0.00000000000E+00 -0.00000000000E+00 -0.18250000000E+03  0.18250000000E+03  0.00000000000E+00 0. -1.
        -11    1    1    2    0    0 -0.15900107767E+01  0.29529823308E+01  0.17705167648E+03  0.17708343904E+03  0.00000000000E+00 0. -1.
         11    1    1    2    0    0  0.26982465080E+01 -0.57379243665E+01 -0.16701599915E+03  0.16713631646E+03  0.00000000000E+00 0. -1.
        -15    1    1    2    0    0  0.11166664730E+00 -0.68252838691E+01 -0.49994503773E+00  0.70713961404E+01  0.17770000000E+01 0. -1.
         15    1    1    2    0    0 -0.12199023786E+01  0.96102259048E+01 -0.95357322955E+01  0.13708848353E+02  0.17770000000E+01 0. -1.
</event>
<event>
 6    1  0.1108180E-002  0.1830503E+03  0.7546771E-02  0.1068018E+00
        -11   -1    0    0    0    0  0.00000000000E+00  0.00000000000E+00  0.18250000000E+03  0.18250000000E+03  0.00000000000E+00 0.  1.
         11   -1    0    0    0    0 -0.00000000000E+00 -0.00000000000E+00 -0.18250000000E+03  0.18250000000E+03  0.00000000000E+00 0. -1.
        -11    1    1    2    0    0  0.38812509242E+00  0.11464892663E+01  0.82763859922E+02  0.82772710405E+02  0.00000000000E+00 0.  1.
         11    1    1    2    0    0  0.19530219550E+01  0.26008132854E+01 -0.18192065410E+03  0.18194972634E+03  0.00000000000E+00 0. -1.
        -15    1    1    2    0    0  0.87293242560E+00 -0.72937818216E+01  0.82758651751E+02  0.83103029023E+02  0.17770000000E+01 0.  1.
         15    1    1    2    0    0 -0.32140794730E+01  0.35464792699E+01  0.16398142430E+02  0.17174534236E+02  0.17770000000E+01 0.  1.
</event>
<event>
 6    1  0.1108180E-002  0.1855558E+03  0.7546771E-02  0.1066048E+00
        -11   -1    0    0    0    0  0.00000000000E+00  0.00000000000E+00  0.18250000000E+03  0.18250000000E+03  0.00000000000E+00 0.  1.
         11   -1    0    0    0    0 -0.00000000000E+00 -0.00000000000E+00 -0.18250000000E+03  0.18250000000E+03  0.00000000000E+00 0. -1.
        -11    1    1    2    0    0  0.56594798364E+01  0.18883694553E+01  0.16965560694E+03  0.16976048014E+03  0.00000000000E+00 0.  1.
         11    1    1    2    0    0  0.12562070838E+01  0.54514586199E+01 -0.17935698468E+03  0.17944420975E+03  0.00000000000E+00 0. -1.
        -15    1    1    2    0    0 -0.11593640065E+01 -0.33155227574E+01  0.33013117578E+00  0.39501305861E+01  0.17770000000E+01 0. -1.
         15    1    1    2    0    0 -0.57563229137E+01 -0.40243053178E+01  0.93712465679E+01  0.11845179526E+02  0.17770000000E+01 0. -1.
</event>
<event>
 6    1  0.1108180E-002  0.1869954E+03  0.7546771E-02  0.1064932E+00
        -11   -1    0    0    0    0  0.00000000000E+00  0.00000000000E+00  0.18250000000E+03  0.18250000000E+03  0.00000000000E+00 0. -1.
         11   -1    0    0    0    0 -0.00000000000E+00 -0.00000000000E+00 -0.18250000000E+03  0.18250000000E+03  0.00000000000E+00 0. -1.
        -11    1    1    2    0    0  0.24815106483E+01 -0.55229872434E+00  0.17798642660E+03  0.17800458135E+03  0.00000000000E+00 0. -1.
         11    1    1    2    0    0 -0.17817938652E+01  0.18202374114E+01 -0.17681635294E+03  0.17683469886E+03  0.00000000000E+00 0. -1.
        -15    1    1    2    0    0 -0.27514338435E+01  0.17295107452E+01  0.26842451769E+01  0.45743302004E+01  0.17770000000E+01 0. -1.
         15    1    1    2    0    0  0.20517170603E+01 -0.29974494323E+01 -0.38543188317E+01  0.55863895900E+01  0.17770000000E+01 0. -1.
</event>
<event>
 6    1  0.1108180E-002  0.1828621E+03  0.7546771E-02  0.1068167E+00
        -11   -1    0    0    0    0  0.00000000000E+00  0.00000000000E+00  0.18250000000E+03  0.18250000000E+03  0.00000000000E+00 0.  1.
         11   -1    0    0    0    0 -0.00000000000E+00 -0.00000000000E+00 -0.18250000000E+03  0.18250000000E+03  0.00000000000E+00 0. -1.
        -11    1    1    2    0    0  0.33644492453E+00 -0.15626810515E+01  0.11248868197E+03  0.11250003883E+03  0.00000000000E+00 0.  1.
         11    1    1    2    0    0  0.24049494008E+01 -0.18828935173E+01 -0.18211224582E+03  0.18213785754E+03  0.00000000000E+00 0. -1.
        -15    1    1    2    0    0  0.11759576983E+01  0.15227347539E+01  0.57890099531E+01  0.63538935210E+01  0.17770000000E+01 0. -1.
         15    1    1    2    0    0 -0.39173520237E+01  0.19228398148E+01  0.63834553905E+02  0.64008210107E+02  0.17770000000E+01 0.  1.
</event>
<event>
 6    1  0.1108180E-002  0.1834780E+03  0.7546771E-02  0.1067679E+00
        -11   -1    0    0    0    0  0.00000000000E+00  0.00000000000E+00  0.18250000000E+03  0.18250000000E+03  0.00000000000E+00 0. -1.
         11   -1    0    0    0    0 -0.00000000000E+00 -0.00000000000E+00 -0.18250000000E+03  0.18250000000E+03  0.00000000000E+00 0. -1.
        -11    1    1    2    0    0 -0.20054217096E+01 -0.23692733170E+01  0.18149541422E+03  0.18152195612E+03  0.00000000000E+00 0. -1.
         11    1    1    2    0    0  0.15361384809E+01  0.16324399290E+01 -0.16223592094E+03  0.16225140562E+03  0.00000000000E+00 0. -1.
        -15    1    1    2    0    0  0.70989956129E+00 -0.24682625850E+01 -0.23120539949E+01  0.38858204090E+01  0.17770000000E+01 0.  1.
         15    1    1    2    0    0 -0.24061633254E+00  0.32050959730E+01 -0.16947439281E+02  0.17340817847E+02  0.17770000000E+01 0.  1.
</event>
<event>
 6    1  0.1108180E-002  0.1836315E+03  0.7546771E-02  0.1067558E+00
        -11   -1    0    0    0    0  0.00000000000E+00  0.00000000000E+00  0.18250000000E+03  0.18250000000E+03  0.00000000000E+00 0. -1.
         11   -1    0    0    0    0 -0.00000000000E+00 -0.00000000000E+00 -0.18250000000E+03  0.18250000000E+03  0.00000000000E+00 0. -1.
        -11    1    1    2    0    0 -0.33891779608E+00 -0.25678394779E+01  0.19647957904E+02  0.19817944259E+02  0.00000000000E+00 0. -1.
         11    1    1    2    0    0 -0.25849236309E+00 -0.40778273271E+01 -0.18132247038E+03  0.18136850267E+03  0.00000000000E+00 0. -1.
        -15    1    1    2    0    0 -0.69146292361E+00  0.32877906219E+01  0.15887760076E+03  0.15892305510E+03  0.17770000000E+01 0. -1.
         15    1    1    2    0    0  0.12888730828E+01  0.33578761830E+01  0.27969117164E+01  0.48904979740E+01  0.17770000000E+01 0. -1.
</event>
<event>
 6    1  0.1108180E-002  0.1846043E+03  0.7546771E-02  0.1066792E+00
        -11   -1    0    0    0    0  0.00000000000E+00  0.00000000000E+00  0.18250000000E+03  0.18250000000E+03  0.00000000000E+00 0.  1.
         11   -1    0    0    0    0 -0.00000000000E+00 -0.00000000000E+00 -0.18250000000E+03  0.18250000000E+03  0.00000000000E+00 0. -1.
        -11    1    1    2    0    0  0.84076324475E+01 -0.30018563437E+01  0.58005937799E+02  0.58688910749E+02  0.00000000000E+00 0.  1.
         11    1    1    2    0    0 -0.18772185331E+01  0.15753611639E+01 -0.18037903825E+03  0.18039568496E+03  0.00000000000E+00 0. -1.
        -15    1    1    2    0    0 -0.12579571761E+01 -0.27527879630E+01  0.11718010841E+03  0.11723265686E+03  0.17770000000E+01 0.  1.
         15    1    1    2    0    0 -0.52724567383E+01  0.41792831427E+01  0.51929920395E+01  0.86827474319E+01  0.17770000000E+01 0. -1.
</event>
<event>
 6    1  0.1108180E-002  0.1827545E+03  0.7546771E-02  0.1068252E+00
        -11   -1    0    0    0    0  0.00000000000E+00  0.00000000000E+00  0.18250000000E+03  0.18250000000E+03  0.00000000000E+00 0.  1.
         11   -1    0    0    0    0 -0.00000000000E+00 -0.00000000000E+00 -0.18250000000E+03  0.18250000000E+03  0.00000000000E+00 0.  1.
        -11    1    1    2    0    0  0.23359534601E+01  0.10564888468E+01  0.10819910714E+03  0.10822947673E+03  0.00000000000E+00 0.  1.
         11    1    1    2    0    0  0.15881602607E+00  0.36167557987E+01 -0.18220955127E+03  0.18224551221E+03  0.00000000000E+00 0.  1.
        -15    1    1    2    0    0  0.75840895348E+00  0.33475052550E+00  0.31432287126E+02  0.31493390498E+02  0.17770000000E+01 0.  1.
         15    1    1    2    0    0 -0.32531784396E+01 -0.50079951710E+01  0.42578157006E+02  0.43031620567E+02  0.17770000000E+01 0. -1.
</event>
<event>
 6    1  0.1108180E-002  0.1830895E+03  0.7546771E-02  0.1067987E+00
        -11   -1    0    0    0    0  0.00000000000E+00  0.00000000000E+00  0.18250000000E+03  0.18250000000E+03  0.00000000000E+00 0.  1.
         11   -1    0    0    0    0 -0.00000000000E+00 -0.00000000000E+00 -0.18250000000E+03  0.18250000000E+03  0.00000000000E+00 0. -1.
        -11    1    1    2    0    0  0.43354869619E+01 -0.26342377514E+01  0.18183977549E+03  0.18191052638E+03  0.00000000000E+00 0.  1.
         11    1    1    2    0    0  0.38557017686E+01 -0.57803892456E+00 -0.94113338667E+02  0.94194060748E+02  0.00000000000E+00 0. -1.
        -15    1    1    2    0    0 -0.58379316994E+00  0.10165448912E+01 -0.59171865168E+02  0.59210147225E+02  0.17770000000E+01 0.  1.
         15    1    1    2    0    0 -0.76073955605E+01  0.21957317847E+01 -0.28554571657E+02  0.29685265651E+02  0.17770000000E+01 0.  1.
</event>
<event>
 6    1  0.1108180E-002  0.1832055E+03  0.7546771E-02  0.1067895E+00
        -11   -1    0    0    0    0  0.00000000000E+00  0.00000000000E+00  0.18250000000E+03  0.18250000000E+03  0.00000000000E+00 0. -1.
         11   -1    0    0    0    0 -0.00000000000E+00 -0.00000000000E+00 -0.18250000000E+03  0.18250000000E+03  0.00000000000E+00 0. -1.
        -11    1    1    2    0    0  0.10764462116E+01 -0.23025758981E+01  0.18177671150E+03  0.18179448132E+03  0.00000000000E+00 0. -1.
         11    1    1    2    0    0  0.27568518167E+00  0.23996506196E+01 -0.11213504596E+03  0.11216105767E+03  0.00000000000E+00 0. -1.
        -15    1    1    2    0    0 -0.40061957107E+00  0.56469695643E+01 -0.52875553520E+02  0.53207430406E+02  0.17770000000E+01 0.  1.
         15    1    1    2    0    0 -0.95151182223E+00 -0.57440442858E+01 -0.16766112024E+02  0.17837030608E+02  0.17770000000E+01 0. -1.
</event>
<event>
 6    1  0.1108180E-002  0.1866886E+03  0.7546771E-02  0.1065169E+00
        -11   -1    0    0    0    0  0.00000000000E+00  0.00000000000E+00  0.18250000000E+03  0.18250000000E+03  0.00000000000E+00 0.  1.
         11   -1    0    0    0    0 -0.00000000000E+00 -0.00000000000E+00 -0.18250000000E+03  0.18250000000E+03  0.00000000000E+00 0.  1.
        -11    1    1    2    0    0  0.13565810562E+01  0.40958620089E+01  0.67063448666E+02  0.67202102235E+02  0.00000000000E+00 0.  1.
         11    1    1    2    0    0  0.26099932206E+01  0.24726524133E+01 -0.17827514419E+03  0.17831139367E+03  0.00000000000E+00 0.  1.
        -15    1    1    2    0    0  0.44599706891E+01 -0.16585249097E+02  0.16581635710E+02  0.23938884644E+02  0.17770000000E+01 0. -1.
         15    1    1    2    0    0 -0.84265449659E+01  0.10016734675E+02  0.94630059816E+02  0.95547619455E+02  0.17770000000E+01 0.  1.
</event>
<event>
 6    1  0.1108180E-002  0.1857971E+03  0.7546771E-02  0.1065860E+00
        -11   -1    0    0    0    0  0.00000000000E+00  0.00000000000E+00  0.18250000000E+03  0.18250000000E+03  0.00000000000E+00 0.  1.
         11   -1    0    0    0    0 -0.00000000000E+00 -0.00000000000E+00 -0.18250000000E+03  0.18250000000E+03  0.00000000000E+00 0.  1.
        -11    1    1    2    0    0  0.55083170516E+01  0.28492773351E+01  0.17909558535E+03  0.17920292584E+03  0.00000000000E+00 0.  1.
         11    1    1    2    0    0  0.15629928449E+01 -0.30364458476E+01 -0.16884941771E+03  0.16888395072E+03  0.00000000000E+00 0.  1.
        -15    1    1    2    0    0 -0.54422291651E+01  0.91667829539E+00  0.55290050296E+00  0.58242240126E+01  0.17770000000E+01 0.  1.
         15    1    1    2    0    0 -0.16290807313E+01 -0.72950978293E+00 -0.10799068148E+02  0.11088899423E+02  0.17770000000E+01 0.  1.
</event>
<event>
 6    1  0.1108180E-002  0.1863831E+03  0.7546771E-02  0.1065405E+00
        -11   -1    0    0    0    0  0.00000000000E+00  0.00000000000E+00  0.18250000000E+03  0.18250000000E+03  0.00000000000E+00 0. -1.
         11   -1    0    0    0    0 -0.00000000000E+00 -0.00000000000E+00 -0.18250000000E+03  0.18250000000E+03  0.00000000000E+00 0.  1.
        -11    1    1    2    0    0 -0.28178340209E+01  0.25064073756E+00  0.17859446304E+03  0.17861686717E+03  0.00000000000E+00 0. -1.
         11    1    1    2    0    0 -0.12197439333E+01  0.20734469107E+01 -0.17491070416E+03  0.17492724598E+03  0.00000000000E+00 0.  1.
        -15    1    1    2    0    0  0.53024530795E+00 -0.10638053741E+01  0.29493650584E+01  0.36427084989E+01  0.17770000000E+01 0. -1.
         15    1    1    2    0    0  0.35073326463E+01 -0.12602822742E+01 -0.66331239407E+01  0.78131783491E+01  0.17770000000E+01 0.  1.
</event>
<event>
 6    1  0.1108180E-002  0.1830165E+03  0.7546771E-02  0.1068044E+00
        -11   -1    0    0    0    0  0.00000000000E+00  0.00000000000E+00  0.18250000000E+03  0.18250000000E+03  0.00000000000E+00 0.  1.
         11   -1    0    0    0    0 -0.00000000000E+00 -0.00000000000E+00 -0.18250000000E+03  0.18250000000E+03  0.00000000000E+00 0.  1.
        -11    1    1    2    0    0  0.30397512118E+01 -0.22275125123E+01  0.18194445949E+03  0.18198348342E+03  0.00000000000E+00 0.  1.
         11    1    1    2    0    0 -0.16166871648E+01  0.13023758709E+01 -0.14778411989E+03  0.14779870078E+03  0.00000000000E+00 0.  1.
        -15    1    1    2    0    0 -0.92187312266E+00  0.93969488779E+00 -0.19317191229E+01  0.29363488053E+01  0.17770000000E+01 0.  1.
         15    1    1    2    0    0 -0.50119092435E+00 -0.14558246430E-01 -0.32228620481E+02  0.32281466995E+02  0.17770000000E+01 0. -1.
</event>
<event>
 6    1  0.1108180E-002  0.1792823E+03  0.7546771E-02  0.1071045E+00
        -11   -1    0    0    0    0  0.00000000000E+00  0.00000000000E+00  0.18250000000E+03  0.18250000000E+03  0.00000000000E+00 0.  1.
         11   -1    0    0    0    0 -0.00000000000E+00 -0.00000000000E+00 -0.18250000000E+03  0.18250000000E+03  0.00000000000E+00 0.  1.
        -11    1    1    2    0    0  0.26716924557E+01 -0.10595666998E+01  0.17972598461E+03  0.17974896430E+03  0.00000000000E+00 0.  1.
         11    1    1    2    0    0 -0.49910947906E+01 -0.25553097671E+01 -0.17875472580E+03  0.17884264769E+03  0.00000000000E+00 0.  1.
        -15    1    1    2    0    0  0.74272580275E-01  0.18627288767E+01  0.68526669267E+00  0.26650693657E+01  0.17770000000E+01 0. -1.
         15    1    1    2    0    0  0.22451297547E+01  0.17521475902E+01 -0.16565254951E+01  0.37433186492E+01  0.17770000000E+01 0.  1.
</event>
<event>
 6    1  0.1108180E-002  0.1833024E+03  0.7546771E-02  0.1067818E+00
        -11   -1    0    0    0    0  0.00000000000E+00  0.00000000000E+00  0.18250000000E+03  0.18250000000E+03  0.00000000000E+00 0.  1.
         11   -1    0    0    0    0 -0.00000000000E+00 -0.00000000000E+00 -0.18250000000E+03  0.18250000000E+03  0.00000000000E+00 0. -1.
        -11    1    1    2    0    0  0.64115085823E+00 -0.83567979461E+00  0.77097363661E+02  0.77104558351E+02  0.00000000000E+00 0.  1.
         11    1    1    2    0    0  0.42960764930E+01  0.55729694376E+01 -0.18156128423E+03  0.18169758995E+03  0.00000000000E+00 0. -1.
        -15    1    1    2    0    0  0.42792741135E+01  0.30902013089E+01  0.17123960507E+02  0.18006923210E+02  0.17770000000E+01 0.  1.
         15    1    1    2    0    0 -0.92165014647E+01 -0.78274909519E+01  0.87339960067E+02  0.88190928486E+02  0.17770000000E+01 0.  1.
</event>
<event>
 6    1  0.1108180E-002  0.1840866E+03  0.7546771E-02  0.1067199E+00
        -11   -1    0    0    0    0  0.00000000000E+00  0.00000000000E+00  0.18250000000E+03  0.18250000000E+03  0.00000000000E+00 0. -1.
         11   -1    0    0    0    0 -0.00000000000E+00 -0.00000000000E+00 -0.18250000000E+03  0.18250000000E+03  0.00000000000E+00 0.  1.
        -11    1    1    2    0    0 -0.26274917173E+01  0.15742609272E+01  0.17386658874E+03  0.17389356714E+03  0.00000000000E+00 0. -1.
         11    1    1    2    0    0  0.25501802142E+01 -0.52856571618E+00 -0.18089469256E+03  0.18091343951E+03  0.00000000000E+00 0.  1.
        -15    1    1    2    0    0  0.30421596959E+01  0.29374716559E+00  0.44221564932E+01  0.56616446429E+01  0.17770000000E+01 0.  1.
         15    1    1    2    0    0 -0.29648481928E+01 -0.13394423766E+01  0.26059473202E+01  0.45313487089E+01  0.17770000000E+01 0. -1.
</event>
<event>
 6    1  0.1108180E-002  0.1839893E+03  0.7546771E-02  0.1067275E+00
        -11   -1    0    0    0    0  0.00000000000E+00  0.00000000000E+00  0.18250000000E+03  0.18250000000E+03  0.00000000000E+00 0. -1.
         11   -1    0    0    0    0 -0.00000000000E+00 -0.00000000000E+00 -0.18250000000E+03  0.18250000000E+03  0.00000000000E+00 0.  1.
        -11    1    1    2    0    0  0.15006841782E+01  0.30342725734E+01  0.28774056242E+02  0.28972489980E+02  0.00000000000E+00 0. -1.
         11    1    1    2    0    0  0.60563212946E+01 -0.79711549957E+01 -0.18073366816E+03  0.18101071003E+03  0.00000000000E+00 0.  1.
        -15    1    1    2    0    0 -0.24120515489E+01  0.98723742069E+01  0.17199145391E+02  0.20056173522E+02  0.17770000000E+01 0.  1.
         15    1    1    2    0    0 -0.51449539239E+01 -0.49354917846E+01  0.13476046652E+03  0.13496062647E+03  0.17770000000E+01 0. -1.
</event>
<event>
 6    1  0.1108180E-002  0.1327227E+03  0.7546771E-02  0.1116862E+00
        -11   -1    0    0    0    0  0.00000000000E+00  0.00000000000E+00  0.18250000000E+03  0.18250000000E+03  0.00000000000E+00 0. -1.
         11   -1    0    0    0    0 -0.00000000000E+00 -0.00000000000E+00 -0.18250000000E+03  0.18250000000E+03  0.00000000000E+00 0. -1.
        -11    1    1    2    0    0  0.12617001477E+01 -0.36286458309E+01  0.48890107759E+02  0.49040815598E+02  0.00000000000E+00 0. -1.
         11    1    1    2    0    0  0.32679485810E+02 -0.30708180224E+02 -0.14751483797E+03  0.15418031180E+03  0.00000000000E+00 0. -1.
        -15    1    1    2    0    0 -0.31184489971E+02  0.28753432704E+02 -0.17175853960E+02  0.45797379786E+02  0.17770000000E+01 0.  1.
         15    1    1    2    0    0 -0.27566959867E+01  0.55833933512E+01  0.11580058417E+03  0.11598149282E+03  0.17770000000E+01 0. -1.
</event>
<event>
 6    1  0.1108180E-002  0.1469334E+03  0.7546771E-02  0.1100922E+00
        -11   -1    0    0    0    0  0.00000000000E+00  0.00000000000E+00  0.18250000000E+03  0.18250000000E+03  0.00000000000E+00 0.  1.
         11   -1    0    0    0    0 -0.00000000000E+00 -0.00000000000E+00 -0.18250000000E+03  0.18250000000E+03  0.00000000000E+00 0. -1.
        -11    1    1    2    0    0 -0.22979629288E+01  0.28345035751E+01  0.35201808707E+02  0.35390427807E+02  0.00000000000E+00 0.  1.
         11    1    1    2    0    0 -0.25938735459E+01 -0.52388386477E+01 -0.14821577117E+03  0.14833100968E+03  0.00000000000E+00 0. -1.
        -15    1    1    2    0    0  0.20088825250E+02  0.56522922565E+01  0.14455909162E+03  0.14606847026E+03  0.17770000000E+01 0.  1.
         15    1    1    2    0    0 -0.15196988775E+02 -0.32479571838E+01 -0.31545129156E+02  0.35210092249E+02  0.17770000000E+01 0. -1.
</event>
<event>
 6    1  0.1108180E-002  0.1846875E+03  0.7546771E-02  0.1066727E+00
        -11   -1    0    0    0    0  0.00000000000E+00  0.00000000000E+00  0.18250000000E+03  0.18250000000E+03  0.00000000000E+00 0. -1.
         11   -1    0    0    0    0 -0.00000000000E+00 -0.00000000000E+00 -0.18250000000E+03  0.18250000000E+03  0.00000000000E+00 0. -1.
        -11    1    1    2    0    0 -0.22331613813E+01  0.81771402817E+00  0.16566991608E+03  0.16568698428E+03  0.00000000000E+00 0. -1.
         11    1    1    2    0    0  0.15507747893E+00 -0.35364949819E+01 -0.18027772926E+03  0.18031248019E+03  0.00000000000E+00 0. -1.
        -15    1    1    2    0    0  0.53531817991E+00 -0.41469845729E+01  0.35148921370E+01  0.57442355746E+01  0.17770000000E+01 0. -1.
         15    1    1    2    0    0  0.15427657224E+01  0.68657655267E+01  0.11092921037E+02  0.13256299954E+02  0.17770000000E+01 0. -1.
</event>
<event>
 6    1  0.1108180E-002  0.1962074E+03  0.7546771E-02  0.1058039E+00
        -11   -1    0    0    0    0  0.00000000000E+00  0.00000000000E+00  0.18250000000E+03  0.18250000000E+03  0.00000000000E+00 0. -1.
         11   -1    0    0    0    0 -0.00000000000E+00 -0.00000000000E+00 -0.18250000000E+03  0.18250000000E+03  0.00000000000E+00 0. -1.
        -11    1    1    2    0    0 -0.13137843851E+01 -0.28968784306E+01  0.13147420397E+03  0.13151267712E+03  0.00000000000E+00 0. -1.
         11    1    1    2    0    0  0.26234811222E+01  0.11709109995E+01 -0.16876816016E+03  0.16879261112E+03  0.00000000000E+00 0. -1.
        -15    1    1    2    0    0  0.36768521419E+01  0.51463004711E+01  0.50043259555E+02  0.50472658006E+02  0.17770000000E+01 0.  1.
         15    1    1    2    0    0 -0.49865488790E+01 -0.34203330400E+01 -0.12749303360E+02  0.14222053754E+02  0.17770000000E+01 0.  1.
</event>
<event>
 6    1  0.1108180E-002  0.1867931E+03  0.7546771E-02  0.1065088E+00
        -11   -1    0    0    0    0  0.00000000000E+00  0.00000000000E+00  0.18250000000E+03  0.18250000000E+03  0.00000000000E+00 0.  1.
         11   -1    0    0    0    0 -0.00000000000E+00 -0.00000000000E+00 -0.18250000000E+03  0.18250000000E+03  0.00000000000E+00 0. -1.
        -11    1    1    2    0    0 -0.72215601527E+01  0.11875826956E+02  0.16130263629E+03  0.16190036031E+03  0.00000000000E+00 0.  1.
         11    1    1    2    0    0 -0.10956885658E+01  0.29713397740E+01 -0.17817871700E+03  0.17820685897E+03  0.00000000000E+00 0. -1.
        -15    1    1    2    0    0  0.52643039822E+00 -0.28161006757E+01  0.57332235154E+01  0.66509497711E+01  0.17770000000E+01 0.  1.
         15    1    1    2    0    0  0.77908183203E+01 -0.12031066055E+02  0.11142857198E+02  0.18241830940E+02  0.17770000000E+01 0. -1.
</event>
<event>
 6    1  0.1108180E-002  0.1878138E+03  0.7546771E-02  0.1064302E+00
        -11   -1    0    0    0    0  0.00000000000E+00  0.00000000000E+00  0.18250000000E+03  0.18250000000E+03  0.00000000000E+00 0.  1.
         11   -1    0    0    0    0 -0.00000000000E+00 -0.00000000000E+00 -0.18250000000E+03  0.18250000000E+03  0.00000000000E+00 0.  1.
        -11    1    1    2    0    0  0.16755425712E+01  0.16556884014E+01  0.16733378775E+03  0.16735036681E+03  0.00000000000E+00 0.  1.
         11    1    1    2    0    0  0.16880350508E+01  0.37983420911E+01 -0.17713744292E+03  0.17718620305E+03  0.00000000000E+00 0.  1.
        -15    1    1    2    0    0 -0.22896637080E+01 -0.88924037892E+01  0.12510297952E+02  0.15619945227E+02  0.17770000000E+01 0.  1.
         15    1    1    2    0    0 -0.10739139140E+01  0.34383732968E+01 -0.27066427824E+01  0.48434849204E+01  0.17770000000E+01 0. -1.
</event>
<event>
 6    1  0.1108180E-002  0.1872784E+03  0.7546771E-02  0.1064714E+00
        -11   -1    0    0    0    0  0.00000000000E+00  0.00000000000E+00  0.18250000000E+03  0.18250000000E+03  0.00000000000E+00 0. -1.
         11   -1    0    0    0    0 -0.00000000000E+00 -0.00000000000E+00 -0.18250000000E+03  0.18250000000E+03  0.00000000000E+00 0. -1.
        -11    1    1    2    0    0 -0.11378824866E+02 -0.94282758206E+00  0.16266802011E+03  0.16306824138E+03  0.00000000000E+00 0. -1.
         11    1    1    2    0    0  0.22140773478E+01 -0.95632312843E+00 -0.17770519872E+03  0.17772156409E+03  0.00000000000E+00 0. -1.
        -15    1    1    2    0    0  0.10475118145E+02 -0.33106388311E+01  0.14839029984E+02  0.18548395335E+02  0.17770000000E+01 0. -1.
         15    1    1    2    0    0 -0.13103706270E+01  0.52097895416E+01  0.19814862482E+00  0.56617991951E+01  0.17770000000E+01 0.  1.
</event>
<event>
 6    1  0.1108180E-002  0.1861155E+03  0.7546771E-02  0.1065613E+00
        -11   -1    0    0    0    0  0.00000000000E+00  0.00000000000E+00  0.18250000000E+03  0.18250000000E+03  0.00000000000E+00 0. -1.
         11   -1    0    0    0    0 -0.00000000000E+00 -0.00000000000E+00 -0.18250000000E+03  0.18250000000E+03  0.00000000000E+00 0. -1.
        -11    1    1    2    0    0  0.14513553863E+01 -0.47543521294E+01  0.17881539836E+03  0.17888447944E+03  0.00000000000E+00 0. -1.
         11    1    1    2    0    0  0.24183594774E+01 -0.24588303719E+01 -0.15212502830E+03  0.15216411714E+03  0.00000000000E+00 0. -1.
        -15    1    1    2    0    0 -0.34204014568E+01 -0.30016216557E+01 -0.22047433729E+02  0.22582204094E+02  0.17770000000E+01 0.  1.
         15    1    1    2    0    0 -0.44931340690E+00  0.10214804157E+02 -0.46429363229E+01  0.11369199321E+02  0.17770000000E+01 0. -1.
</event>
<event>
 6    1  0.1108180E-002  0.1856198E+03  0.7546771E-02  0.1065998E+00
        -11   -1    0    0    0    0  0.00000000000E+00  0.00000000000E+00  0.18250000000E+03  0.18250000000E+03  0.00000000000E+00 0.  1.
         11   -1    0    0    0    0 -0.00000000000E+00 -0.00000000000E+00 -0.18250000000E+03  0.18250000000E+03  0.00000000000E+00 0.  1.
        -11    1    1    2    0    0  0.18421209490E+01  0.28826843847E+01  0.17934754834E+03  0.17938017275E+03  0.00000000000E+00 0.  1.
         11    1    1    2    0    0 -0.14681293095E+01  0.20369984448E+01 -0.14951237653E+03  0.14953345947E+03  0.00000000000E+00 0.  1.
        -15    1    1    2    0    0  0.22396710547E+00 -0.26297355403E+01  0.22296856413E+01  0.38852152238E+01  0.17770000000E+01 0. -1.
         15    1    1    2    0    0 -0.59795874497E+00 -0.22899472892E+01 -0.32064857456E+02  0.32201152556E+02  0.17770000000E+01 0.  1.
</event>
<event>
 6    1  0.1108180E-002  0.1833281E+03  0.7546771E-02  0.1067798E+00
        -11   -1    0    0    0    0  0.00000000000E+00  0.00000000000E+00  0.18250000000E+03  0.18250000000E+03  0.00000000000E+00 0.  1.
         11   -1    0    0    0    0 -0.00000000000E+00 -0.00000000000E+00 -0.18250000000E+03  0.18250000000E+03  0.00000000000E+00 0.  1.
        -11    1    1    2    0    0  0.11243705139E+01 -0.13382616342E+01  0.22437511500E+02  0.22505489899E+02  0.00000000000E+00 0.  1.
         11    1    1    2    0    0  0.27937871370E+01  0.95857752587E+01 -0.18139732475E+03  0.18167190691E+03  0.00000000000E+00 0.  1.
        -15    1    1    2    0    0  0.37972950120E+01  0.17310342909E+00  0.54496257925E+01  0.68779040764E+01  0.17770000000E+01 0. -1.
         15    1    1    2    0    0 -0.77154526629E+01 -0.84206170536E+01  0.15351018746E+03  0.15394469911E+03  0.17770000000E+01 0.  1.
</event>
<event>
 6    1  0.1108180E-002  0.1899240E+03  0.7546771E-02  0.1062694E+00
        -11   -1    0    0    0    0  0.00000000000E+00  0.00000000000E+00  0.18250000000E+03  0.18250000000E+03  0.00000000000E+00 0.  1.
         11   -1    0    0    0    0 -0.00000000000E+00 -0.00000000000E+00 -0.18250000000E+03  0.18250000000E+03  0.00000000000E+00 0. -1.
        -11    1    1    2    0    0 -0.27035319948E+02  0.10495285171E+02  0.17265729866E+03  0.17507599012E+03  0.00000000000E+00 0.  1.
         11    1    1    2    0    0  0.22056907936E+01  0.10992256403E+01 -0.72409038430E+02  0.72450964212E+02  0.00000000000E+00 0. -1.
        -15    1    1    2    0    0  0.72190498069E+01 -0.87498261695E+01 -0.98824708104E+02  0.99489470795E+02  0.17770000000E+01 0. -1.
         15    1    1    2    0    0  0.17610579348E+02 -0.28446846420E+01 -0.14235521237E+01  0.17983574876E+02  0.17770000000E+01 0.  1.
</event>
<event>
 6    1  0.1108180E-002  0.1947229E+03  0.7546771E-02  0.1059121E+00
        -11   -1    0    0    0    0  0.00000000000E+00  0.00000000000E+00  0.18250000000E+03  0.18250000000E+03  0.00000000000E+00 0.  1.
         11   -1    0    0    0    0 -0.00000000000E+00 -0.00000000000E+00 -0.18250000000E+03  0.18250000000E+03  0.00000000000E+00 0. -1.
        -11    1    1    2    0    0 -0.16233057602E+01  0.53717456897E+01  0.17018462500E+03  0.17027711930E+03  0.00000000000E+00 0.  1.
         11    1    1    2    0    0 -0.22088034784E+01  0.62257640962E+00 -0.10688135573E+03  0.10690598962E+03  0.00000000000E+00 0. -1.
        -15    1    1    2    0    0  0.63235364351E+00  0.11596553153E+02 -0.68191481562E+02  0.69196212344E+02  0.17770000000E+01 0. -1.
         15    1    1    2    0    0  0.31997555951E+01 -0.17590875253E+02  0.48882122932E+01  0.18620678732E+02  0.17770000000E+01 0.  1.
</event>
<event>
 6    1  0.1108180E-002  0.1483952E+03  0.7546771E-02  0.1099395E+00
        -11   -1    0    0    0    0  0.00000000000E+00  0.00000000000E+00  0.18250000000E+03  0.18250000000E+03  0.00000000000E+00 0.  1.
         11   -1    0    0    0    0 -0.00000000000E+00 -0.00000000000E+00 -0.18250000000E+03  0.18250000000E+03  0.00000000000E+00 0. -1.
        -11    1    1    2    0    0  0.17696645292E+01  0.28238301508E+00  0.15560262704E+02  0.15663116808E+02  0.00000000000E+00 0.  1.
         11    1    1    2    0    0 -0.73815283617E+01 -0.52836291595E+01 -0.13621993038E+03  0.13652206097E+03  0.00000000000E+00 0. -1.
        -15    1    1    2    0    0  0.13664837788E+01 -0.24219932315E+02  0.16097984927E+03  0.16280706987E+03  0.17770000000E+01 0.  1.
         15    1    1    2    0    0  0.42453800538E+01  0.29221178459E+02 -0.40320181593E+02  0.50007752349E+02  0.17770000000E+01 0. -1.
</event>
<event>
 6    1  0.1108180E-002  0.1780198E+03  0.7546771E-02  0.1072078E+00
        -11   -1    0    0    0    0  0.00000000000E+00  0.00000000000E+00  0.18250000000E+03  0.18250000000E+03  0.00000000000E+00 0. -1.
         11   -1    0    0    0    0 -0.00000000000E+00 -0.00000000000E+00 -0.18250000000E+03  0.18250000000E+03  0.00000000000E+00 0. -1.
        -11    1    1    2    0    0 -0.48596329274E+01  0.42504304137E+01  0.17865668275E+03  0.17877329913E+03  0.00000000000E+00 0. -1.
         11    1    1    2    0    0  0.29507137908E+01  0.47339815498E+00 -0.17728021775E+03  0.17730540438E+03  0.00000000000E+00 0. -1.
        -15    1    1    2    0    0  0.78719781894E+00 -0.60304068694E+01 -0.11119561449E+01  0.64327026113E+01  0.17770000000E+01 0. -1.
         15    1    1    2    0    0  0.11217213177E+01  0.13065783007E+01 -0.26450885833E+00  0.24885938814E+01  0.17770000000E+01 0. -1.
</event>
<event>
 6    1  0.1108180E-002  0.1441101E+03  0.7546771E-02  0.1103926E+00
        -11   -1    0    0    0    0  0.00000000000E+00  0.00000000000E+00  0.18250000000E+03  0.18250000000E+03  0.00000000000E+00 0.  1.
         11   -1    0    0    0    0 -0.00000000000E+00 -0.00000000000E+00 -0.18250000000E+03  0.18250000000E+03  0.00000000000E+00 0.  1.
        -11    1    1    2    0    0 -0.46273641562E+01 -0.18092214977E+02  0.14165096222E+03  0.14287664554E+03  0.00000000000E+00 0.  1.
         11    1    1    2    0    0 -0.14446275122E+02  0.61273898592E+01 -0.14540173003E+03  0.14624603539E+03  0.00000000000E+00 0.  1.
        -15    1    1    2    0    0  0.35894696933E+01  0.71973377196E+01 -0.33880882153E+02  0.34867719561E+02  0.17770000000E+01 0. -1.
         15    1    1    2    0    0  0.15484169585E+02  0.47674873985E+01  0.37631649963E+02  0.41009599508E+02  0.17770000000E+01 0.  1.
</event>
<event>
 6    1  0.1108180E-002  0.1832856E+03  0.7546771E-02  0.1067831E+00
        -11   -1    0    0    0    0  0.00000000000E+00  0.00000000000E+00  0.18250000000E+03  0.18250000000E+03  0.00000000000E+00 0. -1.
         11   -1    0    0    0    0 -0.00000000000E+00 -0.00000000000E+00 -0.18250000000E+03  0.18250000000E+03  0.00000000000E+00 0. -1.
        -11    1    1    2    0    0  0.29084708365E+01 -0.44550458786E+00  0.18169062378E+03  0.18171444755E+03  0.00000000000E+00 0. -1.
         11    1    1    2    0    0 -0.21050145999E+01  0.79243417328E+00 -0.12544893588E+03  0.12546909799E+03  0.00000000000E+00 0. -1.
        -15    1    1    2    0    0 -0.33878969557E+01  0.52287542668E+01 -0.36303834745E+02  0.36877416710E+02  0.17770000000E+01 0.  1.
         15    1    1    2    0    0  0.25844407191E+01 -0.55756838522E+01 -0.19937853160E+02  0.20939037750E+02  0.17770000000E+01 0.  1.
</event>
<event>
 6    1  0.1108180E-002  0.1847881E+03  0.7546771E-02  0.1066648E+00
        -11   -1    0    0    0    0  0.00000000000E+00  0.00000000000E+00  0.18250000000E+03  0.18250000000E+03  0.00000000000E+00 0.  1.
         11   -1    0    0    0    0 -0.00000000000E+00 -0.00000000000E+00 -0.18250000000E+03  0.18250000000E+03  0.00000000000E+00 0. -1.
        -11    1    1    2    0    0  0.58040084352E+01  0.39966251618E+01  0.16365334439E+03  0.16380499582E+03  0.00000000000E+00 0.  1.
         11    1    1    2    0    0  0.38643599178E+01 -0.25682747665E+00 -0.18017026776E+03  0.18021188813E+03  0.00000000000E+00 0. -1.
        -15    1    1    2    0    0 -0.72271890639E+01 -0.34335211727E+01  0.15896903129E+02  0.17885485386E+02  0.17770000000E+01 0.  1.
         15    1    1    2    0    0 -0.24411792890E+01 -0.30627651243E+00  0.62002023982E+00  0.30976306625E+01  0.17770000000E+01 0. -1.
</event>
<event>
 6    1  0.1317780E-002  0.1831464E+03  0.7546771E-02  0.1067941E+00
        -11   -1    0    0    0    0  0.00000000000E+00  0.00000000000E+00  0.18250000000E+03  0.18250000000E+03  0.00000000000E+00 0.  1.
         11   -1    0    0    0    0 -0.00000000000E+00 -0.00000000000E+00 -0.18250000000E+03  0.18250000000E+03  0.00000000000E+00 0. -1.
        -11    1    1    2    0    0 -0.32641901785E+01 -0.19899258538E+00  0.18182414965E+03  0.18185355628E+03  0.00000000000E+00 0.  1.
         11    1    1    2    0    0  0.77858184531E+01 -0.10513103242E+01 -0.90381073717E+02  0.90721897624E+02  0.00000000000E+00 0. -1.
        -15    1    1    2    0    0 -0.70926199910E+01  0.15513009876E+00 -0.83487525835E+02  0.83807243259E+02  0.17770000000E+01 0. -1.
         15    1    1    2    0    0  0.25709917164E+01  0.10951728109E+01 -0.79555500961E+01  0.86173028392E+01  0.17770000000E+01 0.  1.
</event>
<event>
 6    1  0.1108180E-002  0.1843699E+03  0.7546771E-02  0.1066976E+00
        -11   -1    0    0    0    0  0.00000000000E+00  0.00000000000E+00  0.18250000000E+03  0.18250000000E+03  0.00000000000E+00 0.  1.
         11   -1    0    0    0    0 -0.00000000000E+00 -0.00000000000E+00 -0.18250000000E+03  0.18250000000E+03  0.00000000000E+00 0. -1.
        -11    1    1    2    0    0 -0.10911903892E+01 -0.22767021207E+01  0.15110789851E+03  0.15112898816E+03  0.00000000000E+00 0.  1.
         11    1    1    2    0    0 -0.39693371733E+01  0.48380949750E+01 -0.18052161817E+03  0.18063005683E+03  0.00000000000E+00 0. -1.
        -15    1    1    2    0    0  0.31898095352E+01 -0.56423420699E+01  0.46963825746E+01  0.81990637997E+01  0.17770000000E+01 0.  1.
         15    1    1    2    0    0  0.18707180273E+01  0.30809492156E+01  0.24717337090E+02  0.25041891219E+02  0.17770000000E+01 0.  1.
</event>
<event>
 6    1  0.1108180E-002  0.1839321E+03  0.7546771E-02  0.1067321E+00
        -11   -1    0    0    0    0  0.00000000000E+00  0.00000000000E+00  0.18250000000E+03  0.18250000000E+03  0.00000000000E+00 0. -1.
         11   -1    0    0    0    0 -0.00000000000E+00 -0.00000000000E+00 -0.18250000000E+03  0.18250000000E+03  0.00000000000E+00 0. -1.
        -11    1    1    2    0    0 -0.15000111156E+00 -0.31979684369E+01  0.18103956631E+03  0.18106787146E+03  0.00000000000E+00 0. -1.
         11    1    1    2    0    0 -0.23568499982E+01  0.33237658828E+01 -0.17840974437E+03  0.17845626648E+03  0.00000000000E+00 0. -1.
        -15    1    1    2    0    0  0.62383165816E+00  0.26498734905E+00 -0.21514896832E+00  0.19140016488E+01  0.17770000000E+01 0.  1.
         15    1    1    2    0    0  0.18830194516E+01 -0.39078479495E+00 -0.24146729790E+01  0.35618604137E+01  0.17770000000E+01 0. -1.
</event>
<event>
 6    1  0.1108180E-002  0.1829574E+03  0.7546771E-02  0.1068091E+00
        -11   -1    0    0    0    0  0.00000000000E+00  0.00000000000E+00  0.18250000000E+03  0.18250000000E+03  0.00000000000E+00 0. -1.
         11   -1    0    0    0    0 -0.00000000000E+00 -0.00000000000E+00 -0.18250000000E+03  0.18250000000E+03  0.00000000000E+00 0.  1.
        -11    1    1    2    0    0 -0.19764464019E+01  0.40316771216E+01  0.88713859379E+02  0.88827414725E+02  0.00000000000E+00 0. -1.
         11    1    1    2    0    0 -0.24989546757E+01  0.82124004231E+00 -0.18202357802E+03  0.18204258338E+03  0.00000000000E+00 0.  1.
        -15    1    1    2    0    0  0.63084918454E+01 -0.53179775958E+01  0.47297189976E+02  0.48044353089E+02  0.17770000000E+01 0.  1.
         15    1    1    2    0    0 -0.18330907679E+01  0.46506043194E+00  0.46012528662E+02  0.46085648806E+02  0.17770000000E+01 0. -1.
</event>
<event>
 6    1  0.1108180E-002  0.1914283E+03  0.7546771E-02  0.1061562E+00
        -11   -1    0    0    0    0  0.00000000000E+00  0.00000000000E+00  0.18250000000E+03  0.18250000000E+03  0.00000000000E+00 0. -1.
         11   -1    0    0    0    0 -0.00000000000E+00 -0.00000000000E+00 -0.18250000000E+03  0.18250000000E+03  0.00000000000E+00 0.  1.
        -11    1    1    2    0    0 -0.26544319244E+01 -0.43128210438E+00  0.17355089236E+03  0.17357172654E+03  0.00000000000E+00 0. -1.
         11    1    1    2    0    0  0.79044433308E+00 -0.13158957801E+01 -0.83570872540E+02  0.83584969469E+02  0.00000000000E+00 0.  1.
        -15    1    1    2    0    0  0.15982844141E+02 -0.24387066138E+01 -0.91498241501E+02  0.92932688132E+02  0.17770000000E+01 0.  1.
         15    1    1    2    0    0 -0.14118856549E+02  0.41858844983E+01  0.15182216768E+01  0.14910615861E+02  0.17770000000E+01 0. -1.
</event>
<event>
 6    1  0.1108180E-002  0.1836919E+03  0.7546771E-02  0.1067510E+00
        -11   -1    0    0    0    0  0.00000000000E+00  0.00000000000E+00  0.18250000000E+03  0.18250000000E+03  0.00000000000E+00 0.  1.
         11   -1    0    0    0    0 -0.00000000000E+00 -0.00000000000E+00 -0.18250000000E+03  0.18250000000E+03  0.00000000000E+00 0.  1.
        -11    1    1    2    0    0 -0.64495946139E+00  0.34825252377E+01  0.18127355061E+03  0.18130814683E+03  0.00000000000E+00 0.  1.
         11    1    1    2    0    0  0.11692874702E+01 -0.29492218168E+01 -0.15055008711E+03  0.15058351129E+03  0.00000000000E+00 0.  1.
        -15    1    1    2    0    0  0.20994205046E+01  0.33291437930E+01 -0.25564822609E+02  0.25926986884E+02  0.17770000000E+01 0.  1.
         15    1    1    2    0    0 -0.26237485134E+01 -0.38624472139E+01 -0.51586408926E+01  0.71813549975E+01  0.17770000000E+01 0. -1.
</event>
<event>
 6    1  0.1108180E-002  0.1886579E+03  0.7546771E-02  0.1063656E+00
        -11   -1    0    0    0    0  0.00000000000E+00  0.00000000000E+00  0.18250000000E+03  0.18250000000E+03  0.00000000000E+00 0.  1.
         11   -1    0    0    0    0 -0.00000000000E+00 -0.00000000000E+00 -0.18250000000E+03  0.18250000000E+03  0.00000000000E+00 0. -1.
        -11    1    1    2    0    0 -0.27823598017E+00 -0.27543108757E+01  0.12611827455E+03  0.12614865365E+03  0.00000000000E+00 0.  1.
         11    1    1    2    0    0  0.20774213802E+01  0.11928405258E+01 -0.17632580265E+03  0.17634207447E+03  0.00000000000E+00 0. -1.
        -15    1    1    2    0    0 -0.15866721447E+00  0.68330887469E+00  0.56072342831E+02  0.56104878985E+02  0.17770000000E+01 0.  1.
         15    1    1    2    0    0 -0.16405181856E+01  0.87816147516E+00 -0.58648147304E+01  0.64043928920E+01  0.17770000000E+01 0.  1.
</event>
<event>
 6    1  0.1108180E-002  0.1827221E+03  0.7546771E-02  0.1068278E+00
        -11   -1    0    0    0    0  0.00000000000E+00  0.00000000000E+00  0.18250000000E+03  0.18250000000E+03  0.00000000000E+00 0. -1.
         11   -1    0    0    0    0 -0.00000000000E+00 -0.00000000000E+00 -0.18250000000E+03  0.18250000000E+03  0.00000000000E+00 0.  1.
        -11    1    1    2    0    0  0.89014844239E-01 -0.14045078510E+01  0.10353702452E+03  0.10354658861E+03  0.00000000000E+00 0. -1.
         11    1    1    2    0    0 -0.21655390160E+01  0.38204550416E+01 -0.18222494743E+03  0.18227785631E+03  0.00000000000E+00 0.  1.
        -15    1    1    2    0    0  0.19629308468E+01  0.62996596298E+00  0.64434234578E+02  0.64491691475E+02  0.17770000000E+01 0. -1.
         15    1    1    2    0    0  0.11359332495E+00 -0.30459131536E+01  0.14253688327E+02  0.14683863603E+02  0.17770000000E+01 0.  1.
</event>
<event>
 6    1  0.1108180E-002  0.1829716E+03  0.7546771E-02  0.1068080E+00
        -11   -1    0    0    0    0  0.00000000000E+00  0.00000000000E+00  0.18250000000E+03  0.18250000000E+03  0.00000000000E+00 0.  1.
         11   -1    0    0    0    0 -0.00000000000E+00 -0.00000000000E+00 -0.18250000000E+03  0.18250000000E+03  0.00000000000E+00 0.  1.
        -11    1    1    2    0    0  0.39510187388E+01 -0.80622986414E+01  0.18180686575E+03  0.18202842537E+03  0.00000000000E+00 0.  1.
         11    1    1    2    0    0 -0.11066995555E+01 -0.22582209301E+01 -0.98832018703E+02  0.98864008955E+02  0.00000000000E+00 0.  1.
        -15    1    1    2    0    0 -0.50734281939E+01  0.38252250382E+01 -0.35887123162E+02  0.36488564757E+02  0.17770000000E+01 0. -1.
         15    1    1    2    0    0  0.22291090106E+01  0.64952945333E+01 -0.47087723889E+02  0.47619000915E+02  0.17770000000E+01 0.  1.
</event>
<event>
 6    1  0.1108180E-002  0.1832405E+03  0.7546771E-02  0.1067867E+00
        -11   -1    0    0    0    0  0.00000000000E+00  0.00000000000E+00  0.18250000000E+03  0.18250000000E+03  0.00000000000E+00 0.  1.
         11   -1    0    0    0    0 -0.00000000000E+00 -0.00000000000E+00 -0.18250000000E+03  0.18250000000E+03  0.00000000000E+00 0.  1.
        -11    1    1    2    0    0 -0.26209214550E+01  0.28019408483E-01  0.15378334380E+03  0.15380567885E+03  0.00000000000E+00 0.  1.
         11    1    1    2    0    0  0.59184002475E+01  0.53831198994E+00 -0.18166229574E+03  0.18175947550E+03  0.00000000000E+00 0.  1.
        -15    1    1    2    0    0 -0.46212028569E+01 -0.24684115185E+00  0.26124111034E+02  0.26590286811E+02  0.17770000000E+01 0. -1.
         15    1    1    2    0    0  0.13237240644E+01 -0.31949024658E+00  0.17548408988E+01  0.28445588404E+01  0.17770000000E+01 0. -1.
</event>
<event>
 6    1  0.1108180E-002  0.1869339E+03  0.7546771E-02  0.1064979E+00
        -11   -1    0    0    0    0  0.00000000000E+00  0.00000000000E+00  0.18250000000E+03  0.18250000000E+03  0.00000000000E+00 0. -1.
         11   -1    0    0    0    0 -0.00000000000E+00 -0.00000000000E+00 -0.18250000000E+03  0.18250000000E+03  0.00000000000E+00 0.  1.
        -11    1    1    2    0    0  0.26814444396E+01  0.37739268517E+01  0.16350711591E+03  0.16357264326E+03  0.00000000000E+00 0. -1.
         11    1    1    2    0    0  0.88057810917E+01 -0.70386772777E+00 -0.17784688771E+03  0.17806614692E+03  0.00000000000E+00 0.  1.
        -15    1    1    2    0    0 -0.44874477610E+01  0.54393182934E+01  0.52924359711E+01  0.89939412057E+01  0.17770000000E+01 0. -1.
         15    1    1    2    0    0 -0.69997777703E+01 -0.85093774173E+01  0.90473358303E+01  0.14367268616E+02  0.17770000000E+01 0.  1.
</event>
<event>
 6    1  0.1108180E-002  0.1846630E+03  0.7546771E-02  0.1066746E+00
        -11   -1    0    0    0    0  0.00000000000E+00  0.00000000000E+00  0.18250000000E+03  0.18250000000E+03  0.00000000000E+00 0.  1.
         11   -1    0    0    0    0 -0.00000000000E+00 -0.00000000000E+00 -0.18250000000E+03  0.18250000000E+03  0.00000000000E+00 0. -1.
        -11    1    1    2    0    0 -0.62438978433E+00 -0.59422161266E+01  0.18023803430E+03  0.18033704224E+03  0.00000000000E+00 0.  1.
         11    1    1    2    0    0  0.26056154291E+01  0.73646629845E+01 -0.17222374282E+03  0.17240082681E+03  0.00000000000E+00 0. -1.
        -15    1    1    2    0    0 -0.43579698727E+01 -0.29723227157E+01 -0.32709627970E+01  0.64562783673E+01  0.17770000000E+01 0. -1.
         15    1    1    2    0    0  0.23767442279E+01  0.15498758578E+01 -0.47433286815E+01  0.58058525886E+01  0.17770000000E+01 0.  1.
</event>
<event>
 6    1  0.1108180E-002  0.1845815E+03  0.7546771E-02  0.1066810E+00
        -11   -1    0    0    0    0  0.00000000000E+00  0.00000000000E+00  0.18250000000E+03  0.18250000000E+03  0.00000000000E+00 0. -1.
         11   -1    0    0    0    0 -0.00000000000E+00 -0.00000000000E+00 -0.18250000000E+03  0.18250000000E+03  0.00000000000E+00 0. -1.
        -11    1    1    2    0    0 -0.41483904694E+01 -0.72720688990E+01  0.18022411697E+03  0.18041847041E+03  0.00000000000E+00 0. -1.
         11    1    1    2    0    0  0.20394897088E+01 -0.11763086240E+01 -0.16870812067E+03  0.16872454830E+03  0.00000000000E+00 0. -1.
        -15    1    1    2    0    0  0.19476924406E+01  0.73352807312E+01 -0.56546578427E+01  0.96297836718E+01  0.17770000000E+01 0.  1.
         15    1    1    2    0    0  0.16120831997E+00  0.11130967918E+01 -0.58613384556E+01  0.62271976106E+01  0.17770000000E+01 0. -1.
</event>
<event>
 6    1  0.1108180E-002  0.1947986E+03  0.7546771E-02  0.1059066E+00
        -11   -1    0    0    0    0  0.00000000000E+00  0.00000000000E+00  0.18250000000E+03  0.18250000000E+03  0.00000000000E+00 0.  1.
         11   -1    0    0    0    0 -0.00000000000E+00 -0.00000000000E+00 -0.18250000000E+03  0.18250000000E+03  0.00000000000E+00 0. -1.
        -11    1    1    2    0    0 -0.42617492182E+01 -0.58015514067E-01  0.92930385447E+02  0.93028073244E+02  0.00000000000E+00 0.  1.
         11    1    1    2    0    0 -0.12163239328E+02 -0.10376182131E+02 -0.16944884655E+03  0.17020141346E+03  0.00000000000E+00 0. -1.
        -15    1    1    2    0    0  0.15663234385E+02  0.63362662620E+01 -0.68212522568E+01  0.18307714027E+02  0.17770000000E+01 0.  1.
         15    1    1    2    0    0  0.76175416067E+00  0.40979313834E+01  0.83339713357E+02  0.83462799272E+02  0.17770000000E+01 0. -1.
</event>
<event>
 6    1  0.1108180E-002  0.1770437E+03  0.7546771E-02  0.1072883E+00
        -11   -1    0    0    0    0  0.00000000000E+00  0.00000000000E+00  0.18250000000E+03  0.18250000000E+03  0.00000000000E+00 0. -1.
         11   -1    0    0    0    0 -0.00000000000E+00 -0.00000000000E+00 -0.18250000000E+03  0.18250000000E+03  0.00000000000E+00 0.  1.
        -11    1    1    2    0    0 -0.13313964958E+01 -0.24597187204E+01  0.17881982786E+03  0.17884170003E+03  0.00000000000E+00 0. -1.
         11    1    1    2    0    0  0.45631142952E-01 -0.49008777876E+01 -0.17527378075E+03  0.17534229069E+03  0.00000000000E+00 0.  1.
        -15    1    1    2    0    0 -0.17350588087E+01  0.59131097178E+00 -0.13245430395E+01  0.28761469014E+01  0.17770000000E+01 0. -1.
         15    1    1    2    0    0  0.30208241615E+01  0.67692855362E+01 -0.22215040761E+01  0.79398623821E+01  0.17770000000E+01 0.  1.
</event>
<event>
 6    1  0.1108180E-002  0.1725814E+03  0.7546771E-02  0.1076636E+00
        -11   -1    0    0    0    0  0.00000000000E+00  0.00000000000E+00  0.18250000000E+03  0.18250000000E+03  0.00000000000E+00 0.  1.
         11   -1    0    0    0    0 -0.00000000000E+00 -0.00000000000E+00 -0.18250000000E+03  0.18250000000E+03  0.00000000000E+00 0. -1.
        -11    1    1    2    0    0  0.11829961353E+01 -0.17480649136E+01  0.37724321372E+02  0.37783324811E+02  0.00000000000E+00 0.  1.
         11    1    1    2    0    0 -0.10160773111E+02 -0.27034447389E+02 -0.16825650565E+03  0.17071717649E+03  0.00000000000E+00 0. -1.
        -15    1    1    2    0    0  0.26075796966E+02 -0.21083116353E+02  0.49734329649E+02  0.60009218102E+02  0.17770000000E+01 0.  1.
         15    1    1    2    0    0 -0.17098019991E+02  0.49865628655E+02  0.80797854626E+02  0.96490280598E+02  0.17770000000E+01 0. -1.
</event>
<event>
 6    1  0.1108180E-002  0.1983493E+03  0.7546771E-02  0.1056495E+00
        -11   -1    0    0    0    0  0.00000000000E+00  0.00000000000E+00  0.18250000000E+03  0.18250000000E+03  0.00000000000E+00 0. -1.
         11   -1    0    0    0    0 -0.00000000000E+00 -0.00000000000E+00 -0.18250000000E+03  0.18250000000E+03  0.00000000000E+00 0. -1.
        -11    1    1    2    0    0 -0.63298915048E+01  0.78829117001E+01  0.16634374260E+03  0.16665067814E+03  0.00000000000E+00 0. -1.
         11    1    1    2    0    0  0.63772407016E+01  0.15829554716E+02 -0.14248353534E+03  0.14350192279E+03  0.00000000000E+00 0. -1.
        -15    1    1    2    0    0  0.15911974849E+02 -0.20830890238E+02 -0.27604457873E+02  0.38108801544E+02  0.17770000000E+01 0. -1.
         15    1    1    2    0    0 -0.15959324046E+02 -0.28815761783E+01  0.37442506197E+01  0.16738597521E+02  0.17770000000E+01 0.  1.
</event>
<event>
 6    1  0.1108180E-002  0.1837564E+03  0.7546771E-02  0.1067459E+00
        -11   -1    0    0    0    0  0.00000000000E+00  0.00000000000E+00  0.18250000000E+03  0.18250000000E+03  0.00000000000E+00 0. -1.
         11   -1    0    0    0    0 -0.00000000000E+00 -0.00000000000E+00 -0.18250000000E+03  0.18250000000E+03  0.00000000000E+00 0. -1.
        -11    1    1    2    0    0  0.33870218624E+01  0.28415223779E+01  0.14959584301E+03  0.14966115867E+03  0.00000000000E+00 0. -1.
         11    1    1    2    0    0 -0.36042610955E+01  0.23861236491E+01 -0.18119206560E+03  0.18124361760E+03  0.00000000000E+00 0. -1.
        -15    1    1    2    0    0 -0.25046993010E+00 -0.43758143363E+01  0.31715644349E+02  0.32066342351E+02  0.17770000000E+01 0. -1.
         15    1    1    2    0    0  0.46770916316E+00 -0.85183169072E+00 -0.11942176010E+00  0.20288813783E+01  0.17770000000E+01 0.  1.
</event>
<event>
 6    1  0.1108180E-002  0.1855389E+03  0.7546771E-02  0.1066061E+00
        -11   -1    0    0    0    0  0.00000000000E+00  0.00000000000E+00  0.18250000000E+03  0.18250000000E+03  0.00000000000E+00 0.  1.
         11   -1    0    0    0    0 -0.00000000000E+00 -0.00000000000E+00 -0.18250000000E+03  0.18250000000E+03  0.00000000000E+00 0.  1.
        -11    1    1    2    0    0  0.13884639630E+00  0.88101127404E+01  0.17924470648E+03  0.17946114389E+03  0.00000000000E+00 0.  1.
         11    1    1    2    0    0  0.30766355749E+00 -0.86355552079E+01 -0.15234579064E+03  0.15259065305E+03  0.00000000000E+00 0.  1.
        -15    1    1    2    0    0  0.26877461846E+01 -0.59429182463E+01 -0.18733568192E+01  0.70149448755E+01  0.17770000000E+01 0.  1.
         15    1    1    2    0    0 -0.31342561384E+01  0.57683607139E+01 -0.25025559019E+02  0.25933258185E+02  0.17770000000E+01 0. -1.
</event>
<event>
 6    1  0.1108180E-002  0.1851253E+03  0.7546771E-02  0.1066384E+00
        -11   -1    0    0    0    0  0.00000000000E+00  0.00000000000E+00  0.18250000000E+03  0.18250000000E+03  0.00000000000E+00 0.  1.
         11   -1    0    0    0    0 -0.00000000000E+00 -0.00000000000E+00 -0.18250000000E+03  0.18250000000E+03  0.00000000000E+00 0.  1.
        -11    1    1    2    0    0  0.19337592654E+01  0.15142467195E+01  0.17985796222E+03  0.17987473125E+03  0.00000000000E+00 0.  1.
         11    1    1    2    0    0  0.20091821192E+01 -0.20100598705E+01 -0.17728730118E+03  0.17731007956E+03  0.00000000000E+00 0.  1.
        -15    1    1    2    0    0 -0.13184213993E+01  0.48107698478E+00 -0.37935039816E+01  0.44179261549E+01  0.17770000000E+01 0.  1.
         15    1    1    2    0    0 -0.26245199852E+01  0.14736166318E-01  0.12228429403E+01  0.33972630402E+01  0.17770000000E+01 0.  1.
</event>
<event>
 6    1  0.1108180E-002  0.1831807E+03  0.7546771E-02  0.1067914E+00
        -11   -1    0    0    0    0  0.00000000000E+00  0.00000000000E+00  0.18250000000E+03  0.18250000000E+03  0.00000000000E+00 0.  1.
         11   -1    0    0    0    0 -0.00000000000E+00 -0.00000000000E+00 -0.18250000000E+03  0.18250000000E+03  0.00000000000E+00 0.  1.
        -11    1    1    2    0    0 -0.25700875398E+01  0.23366906679E+01  0.13813428449E+03  0.13817795057E+03  0.00000000000E+00 0.  1.
         11    1    1    2    0    0 -0.12448847652E+01  0.22261725998E+01 -0.18180143262E+03  0.18181932374E+03  0.00000000000E+00 0.  1.
        -15    1    1    2    0    0 -0.15195091785E+01 -0.53153061423E+00  0.34903370122E+01  0.42345736971E+01  0.17770000000E+01 0.  1.
         15    1    1    2    0    0  0.53344814835E+01 -0.40313326535E+01  0.40176811122E+02  0.40768151989E+02  0.17770000000E+01 0. -1.
</event>
<event>
 6    1  0.1108180E-002  0.1859504E+03  0.7546771E-02  0.1065741E+00
        -11   -1    0    0    0    0  0.00000000000E+00  0.00000000000E+00  0.18250000000E+03  0.18250000000E+03  0.00000000000E+00 0.  1.
         11   -1    0    0    0    0 -0.00000000000E+00 -0.00000000000E+00 -0.18250000000E+03  0.18250000000E+03  0.00000000000E+00 0.  1.
        -11    1    1    2    0    0 -0.73370817010E-01  0.25575008318E+01  0.17102429151E+03  0.17104342864E+03  0.00000000000E+00 0.  1.
         11    1    1    2    0    0  0.13809138116E+01  0.43862208788E+01 -0.17899057895E+03  0.17904963896E+03  0.00000000000E+00 0.  1.
        -15    1    1    2    0    0 -0.29406162907E+01 -0.50866655506E+01 -0.25107535421E+00  0.61434646924E+01  0.17770000000E+01 0. -1.
         15    1    1    2    0    0  0.16330732961E+01 -0.18570561600E+01  0.82173627943E+01  0.87634677077E+01  0.17770000000E+01 0.  1.
</event>
<event>
 6    1  0.1108180E-002  0.1834819E+03  0.7546771E-02  0.1067676E+00
        -11   -1    0    0    0    0  0.00000000000E+00  0.00000000000E+00  0.18250000000E+03  0.18250000000E+03  0.00000000000E+00 0. -1.
         11   -1    0    0    0    0 -0.00000000000E+00 -0.00000000000E+00 -0.18250000000E+03  0.18250000000E+03  0.00000000000E+00 0.  1.
        -11    1    1    2    0    0  0.23295630540E+01 -0.34595602691E+01  0.13017824685E+03  0.13024504356E+03  0.00000000000E+00 0. -1.
         11    1    1    2    0    0  0.38223236280E+01 -0.22312246260E+01 -0.18146412763E+03  0.18151809315E+03  0.00000000000E+00 0.  1.
        -15    1    1    2    0    0  0.24628390438E+01  0.38061177543E+01  0.12348778373E+02  0.13274116348E+02  0.17770000000E+01 0.  1.
         15    1    1    2    0    0 -0.86147257257E+01  0.18846671409E+01  0.38937102416E+02  0.39962746942E+02  0.17770000000E+01 0. -1.
</event>
<event>
 6    1  0.1108180E-002  0.1849950E+03  0.7546771E-02  0.1066486E+00
        -11   -1    0    0    0    0  0.00000000000E+00  0.00000000000E+00  0.18250000000E+03  0.18250000000E+03  0.00000000000E+00 0.  1.
         11   -1    0    0    0    0 -0.00000000000E+00 -0.00000000000E+00 -0.18250000000E+03  0.18250000000E+03  0.00000000000E+00 0. -1.
        -11    1    1    2    0    0 -0.34336430661E+01 -0.18247877547E+01  0.17996299101E+03  0.18000499407E+03  0.00000000000E+00 0.  1.
         11    1    1    2    0    0  0.43412330151E+01 -0.19973251360E+01 -0.17560257061E+03  0.17566757930E+03  0.00000000000E+00 0. -1.
        -15    1    1    2    0    0  0.11898615051E+01  0.40539248318E-01 -0.41246822675E+01  0.46463046219E+01  0.17770000000E+01 0. -1.
         15    1    1    2    0    0 -0.20974514541E+01  0.37815736424E+01 -0.23573813817E+00  0.46811220113E+01  0.17770000000E+01 0.  1.
</event>
<event>
 6    1  0.1112657E-002  0.1827319E+03  0.7546771E-02  0.1068270E+00
        -11   -1    0    0    0    0  0.00000000000E+00  0.00000000000E+00  0.18250000000E+03  0.18250000000E+03  0.00000000000E+00 0. -1.
         11   -1    0    0    0    0 -0.00000000000E+00 -0.00000000000E+00 -0.18250000000E+03  0.18250000000E+03  0.00000000000E+00 0. -1.
        -11    1    1    2    0    0 -0.90159684331E+00  0.25559631212E+01  0.18224797337E+03  0.18226812563E+03  0.00000000000E+00 0. -1.
         11    1    1    2    0    0 -0.94608869916E+00 -0.24522650890E+00 -0.72408394191E+02  0.72414989948E+02  0.00000000000E+00 0. -1.
        -15    1    1    2    0    0 -0.35117922795E+01 -0.22863264845E+01 -0.43524022596E+02  0.43761378472E+02  0.17770000000E+01 0.  1.
         15    1    1    2    0    0  0.53594778220E+01 -0.24410127814E-01 -0.66315556581E+02  0.66555505948E+02  0.17770000000E+01 0. -1.
</event>
<event>
 6    1  0.1108180E-002  0.1827386E+03  0.7546771E-02  0.1068265E+00
        -11   -1    0    0    0    0  0.00000000000E+00  0.00000000000E+00  0.18250000000E+03  0.18250000000E+03  0.00000000000E+00 0. -1.
         11   -1    0    0    0    0 -0.00000000000E+00 -0.00000000000E+00 -0.18250000000E+03  0.18250000000E+03  0.00000000000E+00 0.  1.
        -11    1    1    2    0    0  0.33610393096E+01 -0.78220401594E-01  0.18223041878E+03  0.18226142826E+03  0.00000000000E+00 0. -1.
         11    1    1    2    0    0 -0.20474045016E+01 -0.25707648644E+01 -0.11336695759E+03  0.11341458359E+03  0.00000000000E+00 0.  1.
        -15    1    1    2    0    0 -0.16120301149E+00  0.38694537884E+01 -0.22738494401E+02  0.23134293066E+02  0.17770000000E+01 0.  1.
         15    1    1    2    0    0 -0.11524317965E+01 -0.12204685224E+01 -0.46124966786E+02  0.46189695089E+02  0.17770000000E+01 0. -1.
</event>
<event>
 6    1  0.1108180E-002  0.1909632E+03  0.7546771E-02  0.1061911E+00
        -11   -1    0    0    0    0  0.00000000000E+00  0.00000000000E+00  0.18250000000E+03  0.18250000000E+03  0.00000000000E+00 0. -1.
         11   -1    0    0    0    0 -0.00000000000E+00 -0.00000000000E+00 -0.18250000000E+03  0.18250000000E+03  0.00000000000E+00 0. -1.
        -11    1    1    2    0    0  0.29395115135E+01 -0.46970256481E+01  0.97984321410E+02  0.98140868246E+02  0.00000000000E+00 0. -1.
         11    1    1    2    0    0  0.30370601296E+02  0.14268606466E+02 -0.17077128346E+03  0.17403677142E+03  0.00000000000E+00 0. -1.
        -15    1    1    2    0    0 -0.31029019856E+02 -0.24552999156E+02  0.38237526552E+02  0.55053755609E+02  0.17770000000E+01 0. -1.
         15    1    1    2    0    0 -0.22810929539E+01  0.14981418338E+02  0.34549435496E+02  0.37768604721E+02  0.17770000000E+01 0.  1.
</event>
<event>
 6    1  0.1108180E-002  0.1870780E+03  0.7546771E-02  0.1064868E+00
        -11   -1    0    0    0    0  0.00000000000E+00  0.00000000000E+00  0.18250000000E+03  0.18250000000E+03  0.00000000000E+00 0.  1.
         11   -1    0    0    0    0 -0.00000000000E+00 -0.00000000000E+00 -0.18250000000E+03  0.18250000000E+03  0.00000000000E+00 0. -1.
        -11    1    1    2    0    0 -0.15588034417E+01 -0.37916566588E+01  0.14658880193E+03  0.14664611614E+03  0.00000000000E+00 0.  1.
         11    1    1    2    0    0  0.22828610652E+01  0.38511956022E+01 -0.17786562561E+03  0.17792196024E+03  0.00000000000E+00 0. -1.
        -15    1    1    2    0    0  0.80361667299E+01 -0.22339954529E+01  0.29946222411E+02  0.31136870059E+02  0.17770000000E+01 0. -1.
         15    1    1    2    0    0 -0.87602243534E+01  0.21744565095E+01  0.13306012706E+01  0.92950535542E+01  0.17770000000E+01 0.  1.
</event>
<event>
 6    1  0.1108180E-002  0.1834320E+03  0.7546771E-02  0.1067715E+00
        -11   -1    0    0    0    0  0.00000000000E+00  0.00000000000E+00  0.18250000000E+03  0.18250000000E+03  0.00000000000E+00 0. -1.
         11   -1    0    0    0    0 -0.00000000000E+00 -0.00000000000E+00 -0.18250000000E+03  0.18250000000E+03  0.00000000000E+00 0. -1.
        -11    1    1    2    0    0  0.43487170844E+01  0.26332789015E+01  0.18149684007E+03  0.18156802707E+03  0.00000000000E+00 0. -1.
         11    1    1    2    0    0 -0.17683595218E+01  0.11992137281E+01 -0.27962156984E+02  0.28043670091E+02  0.00000000000E+00 0. -1.
        -15    1    1    2    0    0 -0.84628169578E+01 -0.80603736443E+01 -0.13329085036E+03  0.13381404042E+03  0.17770000000E+01 0. -1.
         15    1    1    2    0    0  0.58824593952E+01  0.42278810148E+01 -0.20243832731E+02  0.21574262422E+02  0.17770000000E+01 0.  1.
</event>
<event>
 6    1  0.1108180E-002  0.1825925E+03  0.7546771E-02  0.1068381E+00
        -11   -1    0    0    0    0  0.00000000000E+00  0.00000000000E+00  0.18250000000E+03  0.18250000000E+03  0.00000000000E+00 0. -1.
         11   -1    0    0    0    0 -0.00000000000E+00 -0.00000000000E+00 -0.18250000000E+03  0.18250000000E+03  0.00000000000E+00 0.  1.
        -11    1    1    2    0    0  0.20370080087E+01 -0.15029731373E+01  0.18238991687E+03  0.18240748369E+03  0.00000000000E+00 0. -1.
         11    1    1    2    0    0  0.10582764374E+01  0.10799344271E+01 -0.70415180151E+02  0.70431412048E+02  0.00000000000E+00 0.  1.
        -15    1    1    2    0    0 -0.33054087738E+01 -0.11954338018E+01 -0.58886144021E+02  0.59017713237E+02  0.17770000000E+01 0. -1.
         15    1    1    2    0    0  0.21012432759E+00  0.16184725120E+01 -0.53088592700E+02  0.53143391023E+02  0.17770000000E+01 0.  1.
</event>
<event>
 6    1  0.1108180E-002  0.1837760E+03  0.7546771E-02  0.1067444E+00
        -11   -1    0    0    0    0  0.00000000000E+00  0.00000000000E+00  0.18250000000E+03  0.18250000000E+03  0.00000000000E+00 0.  1.
         11   -1    0    0    0    0 -0.00000000000E+00 -0.00000000000E+00 -0.18250000000E+03  0.18250000000E+03  0.00000000000E+00 0. -1.
        -11    1    1    2    0    0  0.10226398649E+00 -0.61327910275E+01  0.33996157575E+02  0.34545047599E+02  0.00000000000E+00 0.  1.
         11    1    1    2    0    0  0.78941704672E+01 -0.27056360531E+01 -0.18103177050E+03  0.18122400593E+03  0.00000000000E+00 0. -1.
        -15    1    1    2    0    0 -0.50053309593E+01  0.14949851059E+02  0.65558610008E+02  0.67451022674E+02  0.17770000000E+01 0. -1.
         15    1    1    2    0    0 -0.29911034944E+01 -0.61114239782E+01  0.81477002918E+02  0.81779923799E+02  0.17770000000E+01 0.  1.
</event>
<event>
 6    1  0.1108180E-002  0.1830922E+03  0.7546771E-02  0.1067984E+00
        -11   -1    0    0    0    0  0.00000000000E+00  0.00000000000E+00  0.18250000000E+03  0.18250000000E+03  0.00000000000E+00 0.  1.
         11   -1    0    0    0    0 -0.00000000000E+00 -0.00000000000E+00 -0.18250000000E+03  0.18250000000E+03  0.00000000000E+00 0.  1.
        -11    1    1    2    0    0  0.74850749064E+01  0.10867731643E+01  0.11289475391E+03  0.11314783640E+03  0.00000000000E+00 0.  1.
         11    1    1    2    0    0 -0.29498976662E+01  0.12324639854E+01 -0.18187967369E+03  0.18190776939E+03  0.00000000000E+00 0.  1.
        -15    1    1    2    0    0 -0.65989271014E+01 -0.13742738293E+01  0.61961940422E+02  0.62352820764E+02  0.17770000000E+01 0. -1.
         15    1    1    2    0    0  0.20637498611E+01 -0.94496332038E+00  0.70229793649E+01  0.75915734420E+01  0.17770000000E+01 0.  1.
</event>
<event>
 6    1  0.1108180E-002  0.1827213E+03  0.7546771E-02  0.1068279E+00
        -11   -1    0    0    0    0  0.00000000000E+00  0.00000000000E+00  0.18250000000E+03  0.18250000000E+03  0.00000000000E+00 0.  1.
         11   -1    0    0    0    0 -0.00000000000E+00 -0.00000000000E+00 -0.18250000000E+03  0.18250000000E+03  0.00000000000E+00 0. -1.
        -11    1    1    2    0    0  0.13624310918E+00 -0.41257005228E+01  0.18223190583E+03  0.18227865336E+03  0.00000000000E+00 0.  1.
         11    1    1    2    0    0  0.53623597261E+00  0.14399019989E+01 -0.83447268548E+02  0.83461413210E+02  0.00000000000E+00 0. -1.
        -15    1    1    2    0    0  0.35662090795E+01  0.16900250268E+01 -0.29490174391E+02  0.29806075662E+02  0.17770000000E+01 0. -1.
         15    1    1    2    0    0 -0.42386881613E+01  0.99577349709E+00 -0.69294462894E+02  0.69453857768E+02  0.17770000000E+01 0.  1.
</event>
<event>
 6    1  0.1108180E-002  0.1888880E+03  0.7546771E-02  0.1063481E+00
        -11   -1    0    0    0    0  0.00000000000E+00  0.00000000000E+00  0.18250000000E+03  0.18250000000E+03  0.00000000000E+00 0.  1.
         11   -1    0    0    0    0 -0.00000000000E+00 -0.00000000000E+00 -0.18250000000E+03  0.18250000000E+03  0.00000000000E+00 0. -1.
        -11    1    1    2    0    0  0.23583779016E+00  0.10288702996E+02  0.17581103856E+03  0.17611199365E+03  0.00000000000E+00 0.  1.
         11    1    1    2    0    0 -0.37648819233E+01 -0.65005768008E+01 -0.16588886069E+03  0.16605886286E+03  0.00000000000E+00 0. -1.
        -15    1    1    2    0    0 -0.45104396608E+00 -0.78035853539E+01  0.30425766334E+01  0.85740531025E+01  0.17770000000E+01 0.  1.
         15    1    1    2    0    0  0.39800880992E+01  0.40154591584E+01 -0.12964754504E+02  0.14255090384E+02  0.17770000000E+01 0. -1.
</event>
<event>
 6    1  0.1108180E-002  0.1947838E+03  0.7546771E-02  0.1059077E+00
        -11   -1    0    0    0    0  0.00000000000E+00  0.00000000000E+00  0.18250000000E+03  0.18250000000E+03  0.00000000000E+00 0.  1.
         11   -1    0    0    0    0 -0.00000000000E+00 -0.00000000000E+00 -0.18250000000E+03  0.18250000000E+03  0.00000000000E+00 0. -1.
        -11    1    1    2    0    0  0.18603859972E+01 -0.16012783148E+01  0.16017654898E+03  0.16019535565E+03  0.00000000000E+00 0.  1.
         11    1    1    2    0    0 -0.33448954768E+00  0.55267323023E+01 -0.17012615740E+03  0.17021623332E+03  0.00000000000E+00 0. -1.
        -15    1    1    2    0    0 -0.25452347442E+01 -0.15270849907E+01 -0.11961353002E+02  0.12451582353E+02  0.17770000000E+01 0.  1.
         15    1    1    2    0    0  0.10193382947E+01 -0.23983689968E+01  0.21910961423E+02  0.22136828677E+02  0.17770000000E+01 0. -1.
</event>
<event>
 6    1  0.1108180E-002  0.1828564E+03  0.7546771E-02  0.1068171E+00
        -11   -1    0    0    0    0  0.00000000000E+00  0.00000000000E+00  0.18250000000E+03  0.18250000000E+03  0.00000000000E+00 0.  1.
         11   -1    0    0    0    0 -0.00000000000E+00 -0.00000000000E+00 -0.18250000000E+03  0.18250000000E+03  0.00000000000E+00 0.  1.
        -11    1    1    2    0    0 -0.14469914518E+01 -0.11304010703E+01  0.13050157400E+03  0.13051449118E+03  0.00000000000E+00 0.  1.
         11    1    1    2    0    0  0.56270370290E+01 -0.20261932297E+01 -0.18204542516E+03  0.18214364064E+03  0.00000000000E+00 0.  1.
        -15    1    1    2    0    0 -0.10051372993E+01  0.16137776214E+01  0.50568097794E+01  0.56871463272E+01  0.17770000000E+01 0.  1.
         15    1    1    2    0    0 -0.31749082779E+01  0.15428166787E+01  0.46487041381E+02  0.46654721853E+02  0.17770000000E+01 0.  1.
</event>
<event>
 6    1  0.1108180E-002  0.1853870E+03  0.7546771E-02  0.1066180E+00
        -11   -1    0    0    0    0  0.00000000000E+00  0.00000000000E+00  0.18250000000E+03  0.18250000000E+03  0.00000000000E+00 0.  1.
         11   -1    0    0    0    0 -0.00000000000E+00 -0.00000000000E+00 -0.18250000000E+03  0.18250000000E+03  0.00000000000E+00 0.  1.
        -11    1    1    2    0    0  0.25254183862E+00  0.67254499540E+01  0.17948691008E+03  0.17961304614E+03  0.00000000000E+00 0.  1.
         11    1    1    2    0    0  0.58996014296E+00  0.78845468110E+01 -0.15450460324E+03  0.15470677604E+03  0.00000000000E+00 0.  1.
        -15    1    1    2    0    0 -0.17287104997E+00 -0.14727463016E+02 -0.17414444423E+02  0.22876814788E+02  0.17770000000E+01 0. -1.
         15    1    1    2    0    0 -0.66963093161E+00  0.11746625110E+00 -0.75678624217E+01  0.78033630274E+01  0.17770000000E+01 0.  1.
</event>
<event>
 6    1  0.1108180E-002  0.1841309E+03  0.7546771E-02  0.1067164E+00
        -11   -1    0    0    0    0  0.00000000000E+00  0.00000000000E+00  0.18250000000E+03  0.18250000000E+03  0.00000000000E+00 0.  1.
         11   -1    0    0    0    0 -0.00000000000E+00 -0.00000000000E+00 -0.18250000000E+03  0.18250000000E+03  0.00000000000E+00 0.  1.
        -11    1    1    2    0    0  0.13543316224E+01  0.23253421482E+01  0.35844434305E+02  0.35945304296E+02  0.00000000000E+00 0.  1.
         11    1    1    2    0    0  0.40455771133E+01 -0.12364748472E+01 -0.18081965014E+03  0.18086912794E+03  0.00000000000E+00 0.  1.
        -15    1    1    2    0    0 -0.32829882822E+01 -0.36075000413E+01  0.14429075304E+03  0.14438410997E+03  0.17770000000E+01 0. -1.
         15    1    1    2    0    0 -0.21169204535E+01  0.25186327404E+01  0.68446279054E+00  0.38014577992E+01  0.17770000000E+01 0.  1.
</event>
<event>
 6    1  0.1108180E-002  0.1852259E+03  0.7546771E-02  0.1066305E+00
        -11   -1    0    0    0    0  0.00000000000E+00  0.00000000000E+00  0.18250000000E+03  0.18250000000E+03  0.00000000000E+00 0.  1.
         11   -1    0    0    0    0 -0.00000000000E+00 -0.00000000000E+00 -0.18250000000E+03  0.18250000000E+03  0.00000000000E+00 0.  1.
        -11    1    1    2    0    0  0.23082410968E+01 -0.42250024301E+01  0.17970960352E+03  0.17977408106E+03  0.00000000000E+00 0.  1.
         11    1    1    2    0    0  0.66900614394E+01 -0.34324523715E+01 -0.13716717443E+03  0.13737311379E+03  0.00000000000E+00 0.  1.
        -15    1    1    2    0    0 -0.43525400343E+01  0.13329538899E+02 -0.24295441476E+02  0.28107782152E+02  0.17770000000E+01 0.  1.
         15    1    1    2    0    0 -0.46457625018E+01 -0.56720840974E+01 -0.18246987619E+02  0.19745023003E+02  0.17770000000E+01 0. -1.
</event>
<event>
 6    1  0.1108180E-002  0.1873546E+03  0.7546771E-02  0.1064655E+00
        -11   -1    0    0    0    0  0.00000000000E+00  0.00000000000E+00  0.18250000000E+03  0.18250000000E+03  0.00000000000E+00 0.  1.
         11   -1    0    0    0    0 -0.00000000000E+00 -0.00000000000E+00 -0.18250000000E+03  0.18250000000E+03  0.00000000000E+00 0.  1.
        -11    1    1    2    0    0 -0.87028184785E+01 -0.18113725595E+01  0.17742282820E+03  0.17764537733E+03  0.00000000000E+00 0.  1.
         11    1    1    2    0    0  0.17499894905E+01 -0.17263708419E+01 -0.11669807793E+03  0.11672396589E+03  0.00000000000E+00 0.  1.
        -15    1    1    2    0    0  0.15148612080E+02 -0.99065172569E+01 -0.43903626881E+02  0.47521634173E+02  0.17770000000E+01 0. -1.
         15    1    1    2    0    0 -0.81957830922E+01  0.13444260658E+02 -0.16821123387E+02  0.23109022613E+02  0.17770000000E+01 0.  1.
</event>
<event>
 6    1  0.1108180E-002  0.1835236E+03  0.7546771E-02  0.1067643E+00
        -11   -1    0    0    0    0  0.00000000000E+00  0.00000000000E+00  0.18250000000E+03  0.18250000000E+03  0.00000000000E+00 0.  1.
         11   -1    0    0    0    0 -0.00000000000E+00 -0.00000000000E+00 -0.18250000000E+03  0.18250000000E+03  0.00000000000E+00 0. -1.
        -11    1    1    2    0    0 -0.17471655156E+01 -0.63250532543E+00  0.13215565988E+03  0.13216872206E+03  0.00000000000E+00 0.  1.
         11    1    1    2    0    0 -0.14824459941E+01 -0.25663228566E+01 -0.18145223462E+03  0.18147643678E+03  0.00000000000E+00 0. -1.
        -15    1    1    2    0    0 -0.32618466787E+01  0.26081552919E+01  0.37394220828E+02  0.37668655380E+02  0.17770000000E+01 0. -1.
         15    1    1    2    0    0  0.64914581885E+01  0.59067289010E+00  0.11902353904E+02  0.13686185785E+02  0.17770000000E+01 0.  1.
</event>
<event>
 6    1  0.1108180E-002  0.1839069E+03  0.7546771E-02  0.1067340E+00
        -11   -1    0    0    0    0  0.00000000000E+00  0.00000000000E+00  0.18250000000E+03  0.18250000000E+03  0.00000000000E+00 0. -1.
         11   -1    0    0    0    0 -0.00000000000E+00 -0.00000000000E+00 -0.18250000000E+03  0.18250000000E+03  0.00000000000E+00 0.  1.
        -11    1    1    2    0    0  0.27398262871E+01 -0.18216104150E+01  0.11522053958E+03  0.11526750476E+03  0.00000000000E+00 0. -1.
         11    1    1    2    0    0 -0.21386099768E+01  0.13884776000E+02 -0.18054739836E+03  0.18109313546E+03  0.00000000000E+00 0.  1.
        -15    1    1    2    0    0  0.71924608288E+01 -0.86032342158E+01  0.46941625495E+02  0.48295145355E+02  0.17770000000E+01 0. -1.
         15    1    1    2    0    0 -0.77936771390E+01 -0.34599313696E+01  0.18385233285E+02  0.20344214420E+02  0.17770000000E+01 0.  1.
</event>
<event>
 6    1  0.1108180E-002  0.1831986E+03  0.7546771E-02  0.1067900E+00
        -11   -1    0    0    0    0  0.00000000000E+00  0.00000000000E+00  0.18250000000E+03  0.18250000000E+03  0.00000000000E+00 0. -1.
         11   -1    0    0    0    0 -0.00000000000E+00 -0.00000000000E+00 -0.18250000000E+03  0.18250000000E+03  0.00000000000E+00 0.  1.
        -11    1    1    2    0    0  0.29948092349E+01 -0.49713361037E-01  0.18177667560E+03  0.18180135078E+03  0.00000000000E+00 0. -1.
         11    1    1    2    0    0  0.10028391379E+00 -0.28664847627E+01 -0.61522576615E+02  0.61589400265E+02  0.00000000000E+00 0.  1.
        -15    1    1    2    0    0 -0.55072945394E+01  0.50984797869E+01 -0.11453296526E+03  0.11479234578E+03  0.17770000000E+01 0.  1.
         15    1    1    2    0    0  0.24122013908E+01 -0.21822816632E+01 -0.57211337235E+01  0.68169031744E+01  0.17770000000E+01 0. -1.
</event>
<event>
 6    1  0.1108180E-002  0.1844376E+03  0.7546771E-02  0.1066923E+00
        -11   -1    0    0    0    0  0.00000000000E+00  0.00000000000E+00  0.18250000000E+03  0.18250000000E+03  0.00000000000E+00 0. -1.
         11   -1    0    0    0    0 -0.00000000000E+00 -0.00000000000E+00 -0.18250000000E+03  0.18250000000E+03  0.00000000000E+00 0. -1.
        -11    1    1    2    0    0 -0.60324464538E+01  0.39230618679E+01  0.18041899823E+03  0.18056244279E+03  0.00000000000E+00 0. -1.
         11    1    1    2    0    0  0.49949228556E+01 -0.46248538317E+01 -0.10172429679E+03  0.10195180766E+03  0.00000000000E+00 0. -1.
        -15    1    1    2    0    0  0.75570755707E+01  0.37789863904E+01 -0.71913931709E+02  0.72430390253E+02  0.17770000000E+01 0. -1.
         15    1    1    2    0    0 -0.65195519725E+01 -0.30771944265E+01 -0.67807697334E+01  0.10055359299E+02  0.17770000000E+01 0.  1.
</event>
<event>
 6    1  0.1108180E-002  0.1828407E+03  0.7546771E-02  0.1068184E+00
        -11   -1    0    0    0    0  0.00000000000E+00  0.00000000000E+00  0.18250000000E+03  0.18250000000E+03  0.00000000000E+00 0.  1.
         11   -1    0    0    0    0 -0.00000000000E+00 -0.00000000000E+00 -0.18250000000E+03  0.18250000000E+03  0.00000000000E+00 0. -1.
        -11    1    1    2    0    0  0.46062668681E+01  0.35494002917E+01  0.18206644945E+03  0.18215929280E+03  0.00000000000E+00 0.  1.
         11    1    1    2    0    0  0.32815756280E+01 -0.16887926212E+01 -0.11086066004E+03  0.11092207491E+03  0.00000000000E+00 0. -1.
        -15    1    1    2    0    0 -0.70069116028E+01 -0.15874949797E+01 -0.64417433985E+02  0.64841194319E+02  0.17770000000E+01 0.  1.
         15    1    1    2    0    0 -0.88093089331E+00 -0.27311269081E+00 -0.67883554298E+01  0.70774379702E+01  0.17770000000E+01 0.  1.
</event>
<event>
 6    1  0.1108180E-002  0.1826106E+03  0.7546771E-02  0.1068367E+00
        -11   -1    0    0    0    0  0.00000000000E+00  0.00000000000E+00  0.18250000000E+03  0.18250000000E+03  0.00000000000E+00 0.  1.
         11   -1    0    0    0    0 -0.00000000000E+00 -0.00000000000E+00 -0.18250000000E+03  0.18250000000E+03  0.00000000000E+00 0.  1.
        -11    1    1    2    0    0  0.20395636016E+01 -0.34679235071E+01  0.18234497308E+03  0.18238935145E+03  0.00000000000E+00 0.  1.
         11    1    1    2    0    0 -0.16563497174E+01  0.71279459022E+00 -0.11861035087E+03  0.11862405702E+03  0.00000000000E+00 0.  1.
        -15    1    1    2    0    0  0.14643170721E+01  0.76137200845E+00 -0.26977780956E+02  0.27086570586E+02  0.17770000000E+01 0. -1.
         15    1    1    2    0    0 -0.18475309563E+01  0.19937569085E+01 -0.36756841257E+02  0.36900020941E+02  0.17770000000E+01 0.  1.
</event>
<event>
 6    1  0.1108180E-002  0.1827468E+03  0.7546771E-02  0.1068259E+00
        -11   -1    0    0    0    0  0.00000000000E+00  0.00000000000E+00  0.18250000000E+03  0.18250000000E+03  0.00000000000E+00 0.  1.
         11   -1    0    0    0    0 -0.00000000000E+00 -0.00000000000E+00 -0.18250000000E+03  0.18250000000E+03  0.00000000000E+00 0.  1.
        -11    1    1    2    0    0 -0.41484160723E-01 -0.16913611769E+01  0.11181134267E+03  0.11182414218E+03  0.00000000000E+00 0.  1.
         11    1    1    2    0    0  0.44110522093E+01 -0.32568917064E+01 -0.18217067225E+03  0.18225317159E+03  0.00000000000E+00 0.  1.
        -15    1    1    2    0    0 -0.34980967781E+00  0.14326701806E+01  0.85079467370E+01  0.88157698096E+01  0.17770000000E+01 0.  1.
         15    1    1    2    0    0 -0.40197583708E+01  0.35155827027E+01  0.61851382844E+02  0.62106916424E+02  0.17770000000E+01 0. -1.
</event>
<event>
 6    1  0.1108180E-002  0.1837053E+03  0.7546771E-02  0.1067499E+00
        -11   -1    0    0    0    0  0.00000000000E+00  0.00000000000E+00  0.18250000000E+03  0.18250000000E+03  0.00000000000E+00 0. -1.
         11   -1    0    0    0    0 -0.00000000000E+00 -0.00000000000E+00 -0.18250000000E+03  0.18250000000E+03  0.00000000000E+00 0.  1.
        -11    1    1    2    0    0  0.25843367657E+01  0.69558390817E+00  0.16186590416E+03  0.16188802785E+03  0.00000000000E+00 0. -1.
         11    1    1    2    0    0  0.23247970623E+01  0.20769329885E+01 -0.18126792289E+03  0.18129472745E+03  0.00000000000E+00 0.  1.
        -15    1    1    2    0    0 -0.42672593454E+01 -0.21504347473E+00  0.40815592263E+01  0.61702998902E+01  0.17770000000E+01 0. -1.
         15    1    1    2    0    0 -0.64187448254E+00 -0.25574734219E+01  0.15320459509E+02  0.15646944804E+02  0.17770000000E+01 0.  1.
</event>
<event>
 6    1  0.1108180E-002  0.1774858E+03  0.7546771E-02  0.1072518E+00
        -11   -1    0    0    0    0  0.00000000000E+00  0.00000000000E+00  0.18250000000E+03  0.18250000000E+03  0.00000000000E+00 0. -1.
         11   -1    0    0    0    0 -0.00000000000E+00 -0.00000000000E+00 -0.18250000000E+03  0.18250000000E+03  0.00000000000E+00 0. -1.
        -11    1    1    2    0    0  0.29118761921E+01  0.60079308646E+00  0.17701332105E+03  0.17703828909E+03  0.00000000000E+00 0. -1.
         11    1    1    2    0    0  0.10514179621E+00 -0.61156932090E+01 -0.17788499358E+03  0.17799012247E+03  0.00000000000E+00 0. -1.
        -15    1    1    2    0    0 -0.38226173461E+01  0.61385711613E+01  0.18919628167E+01  0.76832097185E+01  0.17770000000E+01 0. -1.
         15    1    1    2    0    0  0.80559935787E+00 -0.62367103885E+00 -0.10202902882E+01  0.22883787191E+01  0.17770000000E+01 0.  1.
</event>
<event>
 6    1  0.1108180E-002  0.1898665E+03  0.7546771E-02  0.1062738E+00
        -11   -1    0    0    0    0  0.00000000000E+00  0.00000000000E+00  0.18250000000E+03  0.18250000000E+03  0.00000000000E+00 0. -1.
         11   -1    0    0    0    0 -0.00000000000E+00 -0.00000000000E+00 -0.18250000000E+03  0.18250000000E+03  0.00000000000E+00 0.  1.
        -11    1    1    2    0    0  0.88435113870E+00  0.66849377923E+01  0.17500366154E+03  0.17513352626E+03  0.00000000000E+00 0. -1.
         11    1    1    2    0    0 -0.37824018228E+00  0.13855356209E+01 -0.72639136450E+02  0.72653333845E+02  0.00000000000E+00 0.  1.
        -15    1    1    2    0    0 -0.40641180500E+01 -0.83889819936E+01  0.43394573536E+01  0.10434591201E+02  0.17770000000E+01 0. -1.
         15    1    1    2    0    0  0.35580070936E+01  0.31850858041E+00 -0.10670398244E+03  0.10677854869E+03  0.17770000000E+01 0.  1.
</event>
<event>
 6    1  0.1108180E-002  0.1834327E+03  0.7546771E-02  0.1067715E+00
        -11   -1    0    0    0    0  0.00000000000E+00  0.00000000000E+00  0.18250000000E+03  0.18250000000E+03  0.00000000000E+00 0. -1.
         11   -1    0    0    0    0 -0.00000000000E+00 -0.00000000000E+00 -0.18250000000E+03  0.18250000000E+03  0.00000000000E+00 0. -1.
        -11    1    1    2    0    0 -0.14922402134E+01  0.30383429546E+01  0.12924588577E+03  0.12929020573E+03  0.00000000000E+00 0. -1.
         11    1    1    2    0    0 -0.65658102404E+01 -0.54209537293E+01 -0.18136751802E+03  0.18156726907E+03  0.00000000000E+00 0. -1.
        -15    1    1    2    0    0  0.40435338017E+01  0.46379952101E+01  0.11022706529E+02  0.12748292175E+02  0.17770000000E+01 0. -1.
         15    1    1    2    0    0  0.40145166522E+01 -0.22553844355E+01  0.41098925726E+02  0.41394233025E+02  0.17770000000E+01 0.  1.
</event>
<event>
 6    1  0.1108180E-002  0.1827928E+03  0.7546771E-02  0.1068222E+00
        -11   -1    0    0    0    0  0.00000000000E+00  0.00000000000E+00  0.18250000000E+03  0.18250000000E+03  0.00000000000E+00 0. -1.
         11   -1    0    0    0    0 -0.00000000000E+00 -0.00000000000E+00 -0.18250000000E+03  0.18250000000E+03  0.00000000000E+00 0.  1.
        -11    1    1    2    0    0 -0.18123243505E+01 -0.46624490906E+00  0.94046776817E+02  0.94065392858E+02  0.00000000000E+00 0. -1.
         11    1    1    2    0    0  0.13364740597E+01  0.28491503584E+01 -0.18218001755E+03  0.18220719693E+03  0.00000000000E+00 0.  1.
        -15    1    1    2    0    0  0.90293124062E+00 -0.13354094981E+01  0.84452024910E+02  0.84486098524E+02  0.17770000000E+01 0. -1.
         15    1    1    2    0    0 -0.42708094981E+00 -0.10474959512E+01  0.36812158195E+01  0.42413116857E+01  0.17770000000E+01 0. -1.
</event>
<event>
 6    1  0.1108180E-002  0.1844052E+03  0.7546771E-02  0.1066948E+00
        -11   -1    0    0    0    0  0.00000000000E+00  0.00000000000E+00  0.18250000000E+03  0.18250000000E+03  0.00000000000E+00 0. -1.
         11   -1    0    0    0    0 -0.00000000000E+00 -0.00000000000E+00 -0.18250000000E+03  0.18250000000E+03  0.00000000000E+00 0. -1.
        -11    1    1    2    0    0  0.18258710322E+01  0.18665907656E+01  0.18057591768E+03  0.18059479509E+03  0.00000000000E+00 0. -1.
         11    1    1    2    0    0 -0.29753825300E+01  0.36433405690E+01 -0.17467705465E+03  0.17474037957E+03  0.00000000000E+00 0. -1.
        -15    1    1    2    0    0  0.12181249845E+01 -0.80482303678E+00 -0.63891540782E+00  0.23869458512E+01  0.17770000000E+01 0.  1.
         15    1    1    2    0    0 -0.68613486710E-01 -0.47051082978E+01 -0.52599476264E+01  0.72778794945E+01  0.17770000000E+01 0.  1.
</event>
<event>
 6    1  0.1108180E-002  0.1915724E+03  0.7546771E-02  0.1061454E+00
        -11   -1    0    0    0    0  0.00000000000E+00  0.00000000000E+00  0.18250000000E+03  0.18250000000E+03  0.00000000000E+00 0. -1.
         11   -1    0    0    0    0 -0.00000000000E+00 -0.00000000000E+00 -0.18250000000E+03  0.18250000000E+03  0.00000000000E+00 0.  1.
        -11    1    1    2    0    0  0.16034058212E+01 -0.13284377954E+01  0.83371595711E+02  0.83397593662E+02  0.00000000000E+00 0. -1.
         11    1    1    2    0    0  0.33927595228E+01 -0.10555145816E+01 -0.17339117519E+03  0.17342757728E+03  0.00000000000E+00 0.  1.
        -15    1    1    2    0    0  0.26834302273E+01 -0.16359672570E+02  0.85803795855E+02  0.87408745538E+02  0.17770000000E+01 0. -1.
         15    1    1    2    0    0 -0.76795955712E+01  0.18743624947E+02  0.42157836212E+01  0.20766083521E+02  0.17770000000E+01 0.  1.
</event>
<event>
 6    1  0.1108180E-002  0.1842706E+03  0.7546771E-02  0.1067054E+00
        -11   -1    0    0    0    0  0.00000000000E+00  0.00000000000E+00  0.18250000000E+03  0.18250000000E+03  0.00000000000E+00 0.  1.
         11   -1    0    0    0    0 -0.00000000000E+00 -0.00000000000E+00 -0.18250000000E+03  0.18250000000E+03  0.00000000000E+00 0. -1.
        -11    1    1    2    0    0  0.18344621752E+01 -0.29672529363E+01  0.17106376641E+03  0.17109933378E+03  0.00000000000E+00 0.  1.
         11    1    1    2    0    0 -0.12354878924E+00 -0.28724002781E+01 -0.18070652896E+03  0.18072939871E+03  0.00000000000E+00 0. -1.
        -15    1    1    2    0    0 -0.17802031603E+01 -0.32343862862E+00  0.23305580069E+01  0.34442655911E+01  0.17770000000E+01 0.  1.
         15    1    1    2    0    0  0.69289774346E-01  0.61630918430E+01  0.73122045471E+01  0.97270019264E+01  0.17770000000E+01 0. -1.
</event>
<event>
 6    1  0.1108180E-002  0.1838752E+03  0.7546771E-02  0.1067365E+00
        -11   -1    0    0    0    0  0.00000000000E+00  0.00000000000E+00  0.18250000000E+03  0.18250000000E+03  0.00000000000E+00 0. -1.
         11   -1    0    0    0    0 -0.00000000000E+00 -0.00000000000E+00 -0.18250000000E+03  0.18250000000E+03  0.00000000000E+00 0. -1.
        -11    1    1    2    0    0  0.19810825521E+01 -0.17843663914E+01  0.33178345882E+02  0.33285301366E+02  0.00000000000E+00 0. -1.
         11    1    1    2    0    0  0.25765253460E+01 -0.14799534579E+01 -0.18110040750E+03  0.18112478113E+03  0.00000000000E+00 0. -1.
        -15    1    1    2    0    0  0.53037698433E+01  0.31637594138E+01  0.12915791382E+03  0.12931768549E+03  0.17770000000E+01 0. -1.
         15    1    1    2    0    0 -0.98613777414E+01  0.10056043563E+00  0.18764147794E+02  0.21272232012E+02  0.17770000000E+01 0.  1.
</event>
<event>
 6    1  0.1108180E-002  0.1825667E+03  0.7546771E-02  0.1068402E+00
        -11   -1    0    0    0    0  0.00000000000E+00  0.00000000000E+00  0.18250000000E+03  0.18250000000E+03  0.00000000000E+00 0.  1.
         11   -1    0    0    0    0 -0.00000000000E+00 -0.00000000000E+00 -0.18250000000E+03  0.18250000000E+03  0.00000000000E+00 0.  1.
        -11    1    1    2    0    0 -0.30925447461E+01 -0.12121526345E+00  0.18240706295E+03  0.18243331697E+03  0.00000000000E+00 0.  1.
         11    1    1    2    0    0  0.66083824798E+00 -0.74270630053E+00 -0.57075963471E+02  0.57084620749E+02  0.00000000000E+00 0.  1.
        -15    1    1    2    0    0  0.13823534429E+01  0.26119167369E+01 -0.71054815281E+02  0.71138439072E+02  0.17770000000E+01 0.  1.
         15    1    1    2    0    0  0.10493530553E+01 -0.17479951729E+01 -0.54276284195E+02  0.54343623214E+02  0.17770000000E+01 0. -1.
</event>
<event>
 6    1  0.1108180E-002  0.1969787E+03  0.7546771E-02  0.1057480E+00
        -11   -1    0    0    0    0  0.00000000000E+00  0.00000000000E+00  0.18250000000E+03  0.18250000000E+03  0.00000000000E+00 0. -1.
         11   -1    0    0    0    0 -0.00000000000E+00 -0.00000000000E+00 -0.18250000000E+03  0.18250000000E+03  0.00000000000E+00 0. -1.
        -11    1    1    2    0    0  0.14185492492E+00  0.46125351213E+01  0.15119258880E+03  0.15126299782E+03  0.00000000000E+00 0. -1.
         11    1    1    2    0    0  0.20319134866E+02 -0.34093274301E+00 -0.16678776396E+03  0.16802125367E+03  0.00000000000E+00 0. -1.
        -15    1    1    2    0    0  0.20058277066E+01  0.12237988406E+00  0.21773180264E+02  0.21937808218E+02  0.17770000000E+01 0.  1.
         15    1    1    2    0    0 -0.22466817497E+02 -0.43939822623E+01 -0.61780051002E+01  0.23777940293E+02  0.17770000000E+01 0. -1.
</event>
<event>
 6    1  0.1108180E-002  0.1831790E+03  0.7546771E-02  0.1067916E+00
        -11   -1    0    0    0    0  0.00000000000E+00  0.00000000000E+00  0.18250000000E+03  0.18250000000E+03  0.00000000000E+00 0. -1.
         11   -1    0    0    0    0 -0.00000000000E+00 -0.00000000000E+00 -0.18250000000E+03  0.18250000000E+03  0.00000000000E+00 0.  1.
        -11    1    1    2    0    0  0.45916804673E+00 -0.28435471092E+01  0.15022604914E+03  0.15025366031E+03  0.00000000000E+00 0. -1.
         11    1    1    2    0    0 -0.20207873040E+01 -0.15472417545E+01 -0.18180313742E+03  0.18182095125E+03  0.00000000000E+00 0.  1.
        -15    1    1    2    0    0  0.20367171906E+01  0.36714293692E+01  0.75676883192E+01  0.88348880029E+01  0.17770000000E+01 0.  1.
         15    1    1    2    0    0 -0.47509793332E+00  0.71935949456E+00  0.24009399956E+02  0.24090500438E+02  0.17770000000E+01 0.  1.
</event>
<event>
 6    1  0.1108180E-002  0.2000291E+03  0.7546771E-02  0.1055299E+00
        -11   -1    0    0    0    0  0.00000000000E+00  0.00000000000E+00  0.18250000000E+03  0.18250000000E+03  0.00000000000E+00 0.  1.
         11   -1    0    0    0    0 -0.00000000000E+00 -0.00000000000E+00 -0.18250000000E+03  0.18250000000E+03  0.00000000000E+00 0.  1.
        -11    1    1    2    0    0 -0.22058511420E+01  0.18646156495E+01  0.16494557421E+03  0.16497086113E+03  0.00000000000E+00 0.  1.
         11    1    1    2    0    0  0.21872675066E+01  0.18525525238E+01 -0.14836890832E+03  0.14839659378E+03  0.00000000000E+00 0.  1.
        -15    1    1    2    0    0  0.11499526133E+01 -0.59482062369E+01  0.16886922230E+02  0.18028572318E+02  0.17770000000E+01 0.  1.
         15    1    1    2    0    0 -0.11313689779E+01  0.22310380636E+01 -0.33463588127E+02  0.33603972770E+02  0.17770000000E+01 0. -1.
</event>
<event>
 6    1  0.1108180E-002  0.1818692E+03  0.7546771E-02  0.1068958E+00
        -11   -1    0    0    0    0  0.00000000000E+00  0.00000000000E+00  0.18250000000E+03  0.18250000000E+03  0.00000000000E+00 0.  1.
         11   -1    0    0    0    0 -0.00000000000E+00 -0.00000000000E+00 -0.18250000000E+03  0.18250000000E+03  0.00000000000E+00 0.  1.
        -11    1    1    2    0    0 -0.25506319959E+00  0.45495016609E+00  0.20206394836E+01  0.20868686619E+01  0.00000000000E+00 0.  1.
         11    1    1    2    0    0  0.47327061141E+00  0.59480621507E+01 -0.18194300193E+03  0.18204081789E+03  0.00000000000E+00 0.  1.
        -15    1    1    2    0    0  0.74637134492E+01 -0.42442872815E+01  0.12902867522E+03  0.12932624540E+03  0.17770000000E+01 0. -1.
         15    1    1    2    0    0 -0.76819208610E+01 -0.21587250353E+01  0.50893687228E+02  0.51546068042E+02  0.17770000000E+01 0.  1.
</event>
<event>
 6    1  0.1108180E-002  0.1828969E+03  0.7546771E-02  0.1068139E+00
        -11   -1    0    0    0    0  0.00000000000E+00  0.00000000000E+00  0.18250000000E+03  0.18250000000E+03  0.00000000000E+00 0.  1.
         11   -1    0    0    0    0 -0.00000000000E+00 -0.00000000000E+00 -0.18250000000E+03  0.18250000000E+03  0.00000000000E+00 0. -1.
        -11    1    1    2    0    0 -0.23140011886E+01  0.19896341176E+01  0.18207749228E+03  0.18210306543E+03  0.00000000000E+00 0.  1.
         11    1    1    2    0    0  0.95416462055E+00  0.15484294325E+01 -0.13171615057E+03  0.13172870752E+03  0.00000000000E+00 0. -1.
        -15    1    1    2    0    0  0.84334951751E+00  0.13360162848E+00 -0.39586183514E+02  0.39635246209E+02  0.17770000000E+01 0.  1.
         15    1    1    2    0    0  0.51648705050E+00 -0.36716651786E+01 -0.10775158193E+02  0.11532980844E+02  0.17770000000E+01 0. -1.
</event>
<event>
 6    1  0.1108180E-002  0.1828106E+03  0.7546771E-02  0.1068208E+00
        -11   -1    0    0    0    0  0.00000000000E+00  0.00000000000E+00  0.18250000000E+03  0.18250000000E+03  0.00000000000E+00 0. -1.
         11   -1    0    0    0    0 -0.00000000000E+00 -0.00000000000E+00 -0.18250000000E+03  0.18250000000E+03  0.00000000000E+00 0. -1.
        -11    1    1    2    0    0 -0.45039629910E+01  0.39689827044E+01  0.18209043260E+03  0.18218936344E+03  0.00000000000E+00 0. -1.
         11    1    1    2    0    0  0.18633200218E+01 -0.29992688832E+00 -0.10824826008E+03  0.10826471137E+03  0.00000000000E+00 0. -1.
        -15    1    1    2    0    0 -0.23482115819E+01 -0.39301728606E+01 -0.36751084367E+02  0.37077760012E+02  0.17770000000E+01 0. -1.
         15    1    1    2    0    0  0.49888545511E+01  0.26111704453E+00 -0.37091088155E+02  0.37468165172E+02  0.17770000000E+01 0.  1.
</event>
<event>
 6    1  0.2553478E-002  0.1890429E+03  0.7546771E-02  0.1063363E+00
        -11   -1    0    0    0    0  0.00000000000E+00  0.00000000000E+00  0.18250000000E+03  0.18250000000E+03  0.00000000000E+00 0. -1.
         11   -1    0    0    0    0 -0.00000000000E+00 -0.00000000000E+00 -0.18250000000E+03  0.18250000000E+03  0.00000000000E+00 0.  1.
        -11    1    1    2    0    0 -0.56214981243E+00  0.77684952313E+00  0.69134272412E+02  0.69140922250E+02  0.00000000000E+00 0. -1.
         11    1    1    2    0    0  0.22765566806E+01  0.20751339396E+02 -0.17471438401E+03  0.17595714471E+03  0.00000000000E+00 0.  1.
        -15    1    1    2    0    0 -0.37212989227E+01 -0.14785754148E+01  0.98309336631E+02  0.98406898380E+02  0.17770000000E+01 0. -1.
         15    1    1    2    0    0  0.20068920545E+01 -0.20049613505E+02  0.72707749627E+01  0.21495034658E+02  0.17770000000E+01 0.  1.
</event>
<event>
 6    1  0.1108180E-002  0.1837054E+03  0.7546771E-02  0.1067499E+00
        -11   -1    0    0    0    0  0.00000000000E+00  0.00000000000E+00  0.18250000000E+03  0.18250000000E+03  0.00000000000E+00 0.  1.
         11   -1    0    0    0    0 -0.00000000000E+00 -0.00000000000E+00 -0.18250000000E+03  0.18250000000E+03  0.00000000000E+00 0. -1.
        -11    1    1    2    0    0  0.74717105182E+00  0.10080752086E+01  0.82439205674E+02  0.82448754462E+02  0.00000000000E+00 0.  1.
         11    1    1    2    0    0 -0.11267858222E+02 -0.10019273116E+02 -0.18066651278E+03  0.18129462017E+03  0.00000000000E+00 0. -1.
        -15    1    1    2    0    0  0.13930187837E+02  0.55924199301E+01  0.39324578980E+02  0.42129627755E+02  0.17770000000E+01 0. -1.
         15    1    1    2    0    0 -0.34095006668E+01  0.34187779775E+01  0.58902728123E+02  0.59126997615E+02  0.17770000000E+01 0.  1.
</event>
<event>
 6    1  0.1108180E-002  0.1826059E+03  0.7546771E-02  0.1068371E+00
        -11   -1    0    0    0    0  0.00000000000E+00  0.00000000000E+00  0.18250000000E+03  0.18250000000E+03  0.00000000000E+00 0.  1.
         11   -1    0    0    0    0 -0.00000000000E+00 -0.00000000000E+00 -0.18250000000E+03  0.18250000000E+03  0.00000000000E+00 0. -1.
        -11    1    1    2    0    0 -0.17618944256E+01  0.19208106915E+01  0.18237548277E+03  0.18239410764E+03  0.00000000000E+00 0.  1.
         11    1    1    2    0    0  0.83653794934E+00  0.96295956332E+00 -0.67684410739E+02  0.67696429329E+02  0.00000000000E+00 0. -1.
        -15    1    1    2    0    0  0.25149398694E+01 -0.26978041318E-01 -0.36407400648E+02  0.36537408246E+02  0.17770000000E+01 0.  1.
         15    1    1    2    0    0 -0.15895833931E+01 -0.28567922135E+01 -0.78283671383E+02  0.78372054786E+02  0.17770000000E+01 0. -1.
</event>
<event>
 6    1  0.1108180E-002  0.1828547E+03  0.7546771E-02  0.1068173E+00
        -11   -1    0    0    0    0  0.00000000000E+00  0.00000000000E+00  0.18250000000E+03  0.18250000000E+03  0.00000000000E+00 0.  1.
         11   -1    0    0    0    0 -0.00000000000E+00 -0.00000000000E+00 -0.18250000000E+03  0.18250000000E+03  0.00000000000E+00 0.  1.
        -11    1    1    2    0    0  0.49307033108E+01  0.40333310583E+01  0.12425132789E+03  0.12441451714E+03  0.00000000000E+00 0.  1.
         11    1    1    2    0    0  0.14498425199E+00 -0.27269885824E+01 -0.18212480147E+03  0.18214527388E+03  0.00000000000E+00 0.  1.
        -15    1    1    2    0    0 -0.52917225658E+01 -0.23128785216E+01  0.41193898771E+02  0.41634682174E+02  0.17770000000E+01 0.  1.
         15    1    1    2    0    0  0.21603500308E+00  0.10065360457E+01  0.16679574816E+02  0.16805526798E+02  0.17770000000E+01 0. -1.
</event>
<event>
 6    1  0.1108180E-002  0.1827234E+03  0.7546771E-02  0.1068277E+00
        -11   -1    0    0    0    0  0.00000000000E+00  0.00000000000E+00  0.18250000000E+03  0.18250000000E+03  0.00000000000E+00 0. -1.
         11   -1    0    0    0    0 -0.00000000000E+00 -0.00000000000E+00 -0.18250000000E+03  0.18250000000E+03  0.00000000000E+00 0.  1.
        -11    1    1    2    0    0  0.24268671909E+01  0.19938230569E+01  0.18224956400E+03  0.18227662657E+03  0.00000000000E+00 0. -1.
         11    1    1    2    0    0  0.79122043929E+00  0.84711993676E-01 -0.27650309082E+02  0.27661756962E+02  0.00000000000E+00 0.  1.
        -15    1    1    2    0    0 -0.16901421272E+01  0.14170781148E+01 -0.13433989638E+03  0.13436975173E+03  0.17770000000E+01 0.  1.
         15    1    1    2    0    0 -0.15279455030E+01 -0.34956131655E+01 -0.20259358541E+02  0.20691864738E+02  0.17770000000E+01 0. -1.
</event>
<event>
 6    1  0.1108180E-002  0.1744336E+03  0.7546771E-02  0.1075063E+00
        -11   -1    0    0    0    0  0.00000000000E+00  0.00000000000E+00  0.18250000000E+03  0.18250000000E+03  0.00000000000E+00 0.  1.
         11   -1    0    0    0    0 -0.00000000000E+00 -0.00000000000E+00 -0.18250000000E+03  0.18250000000E+03  0.00000000000E+00 0. -1.
        -11    1    1    2    0    0 -0.15879615424E+01  0.32503931094E+01  0.17593484902E+03  0.17597203692E+03  0.00000000000E+00 0.  1.
         11    1    1    2    0    0 -0.45544747771E+01 -0.22962960022E+01 -0.17288868797E+03  0.17296391139E+03  0.00000000000E+00 0. -1.
        -15    1    1    2    0    0  0.62875470076E+00 -0.69970007493E+01 -0.25361474008E+01  0.76774425819E+01  0.17770000000E+01 0. -1.
         15    1    1    2    0    0  0.55136816187E+01  0.60429036422E+01 -0.51001365247E+00  0.83866091090E+01  0.17770000000E+01 0.  1.
</event>
<event>
 6    1  0.1108180E-002  0.1839341E+03  0.7546771E-02  0.1067319E+00
        -11   -1    0    0    0    0  0.00000000000E+00  0.00000000000E+00  0.18250000000E+03  0.18250000000E+03  0.00000000000E+00 0. -1.
         11   -1    0    0    0    0 -0.00000000000E+00 -0.00000000000E+00 -0.18250000000E+03  0.18250000000E+03  0.00000000000E+00 0. -1.
        -11    1    1    2    0    0 -0.23025623318E+01  0.63396786220E+01  0.14580557297E+03  0.14596149639E+03  0.00000000000E+00 0. -1.
         11    1    1    2    0    0 -0.28807289441E+01  0.21145288448E+01 -0.18103062409E+03  0.18106589047E+03  0.00000000000E+00 0. -1.
        -15    1    1    2    0    0  0.43445129766E+00 -0.86187317711E+00  0.52169191026E+00  0.20884120170E+01  0.17770000000E+01 0. -1.
         15    1    1    2    0    0  0.47488399782E+01 -0.75923342896E+01  0.34703359213E+02  0.35884201131E+02  0.17770000000E+01 0.  1.
</event>
<event>
 6    1  0.1108180E-002  0.1833448E+03  0.7546771E-02  0.1067784E+00
        -11   -1    0    0    0    0  0.00000000000E+00  0.00000000000E+00  0.18250000000E+03  0.18250000000E+03  0.00000000000E+00 0.  1.
         11   -1    0    0    0    0 -0.00000000000E+00 -0.00000000000E+00 -0.18250000000E+03  0.18250000000E+03  0.00000000000E+00 0. -1.
        -11    1    1    2    0    0 -0.34348738212E+00 -0.56924291736E+01  0.13567223552E+03  0.13579203668E+03  0.00000000000E+00 0.  1.
         11    1    1    2    0    0  0.71545808517E+01 -0.88837082581E-01 -0.18151420704E+03  0.18165517685E+03  0.00000000000E+00 0. -1.
        -15    1    1    2    0    0 -0.62966210009E+01 -0.89392999491E-02  0.25074446557E+02  0.25913955991E+02  0.17770000000E+01 0.  1.
         15    1    1    2    0    0 -0.51447246873E+00  0.57902055561E+01  0.20767524964E+02  0.21638830477E+02  0.17770000000E+01 0.  1.
</event>
<event>
 6    1  0.1108180E-002  0.1853080E+03  0.7546771E-02  0.1066241E+00
        -11   -1    0    0    0    0  0.00000000000E+00  0.00000000000E+00  0.18250000000E+03  0.18250000000E+03  0.00000000000E+00 0.  1.
         11   -1    0    0    0    0 -0.00000000000E+00 -0.00000000000E+00 -0.18250000000E+03  0.18250000000E+03  0.00000000000E+00 0.  1.
        -11    1    1    2    0    0 -0.21594193581E+01 -0.32986868910E+01  0.17964871558E+03  0.17969197376E+03  0.00000000000E+00 0.  1.
         11    1    1    2    0    0 -0.67432809224E-01 -0.23507536741E+01 -0.16676843618E+03  0.16678501700E+03  0.00000000000E+00 0.  1.
        -15    1    1    2    0    0 -0.34583486475E+01  0.17977376233E+01 -0.57828606662E+00  0.43225200642E+01  0.17770000000E+01 0.  1.
         15    1    1    2    0    0  0.56852008148E+01  0.38517029418E+01 -0.12301993327E+02  0.14200489170E+02  0.17770000000E+01 0. -1.
</event>
<event>
 6    1  0.1108180E-002  0.1829439E+03  0.7546771E-02  0.1068102E+00
        -11   -1    0    0    0    0  0.00000000000E+00  0.00000000000E+00  0.18250000000E+03  0.18250000000E+03  0.00000000000E+00 0. -1.
         11   -1    0    0    0    0 -0.00000000000E+00 -0.00000000000E+00 -0.18250000000E+03  0.18250000000E+03  0.00000000000E+00 0. -1.
        -11    1    1    2    0    0  0.27703487296E+01 -0.65024041273E+00  0.16043973668E+03  0.16046497048E+03  0.00000000000E+00 0. -1.
         11    1    1    2    0    0 -0.26006865612E+01 -0.25702334004E+01 -0.18201934765E+03  0.18205606990E+03  0.00000000000E+00 0. -1.
        -15    1    1    2    0    0 -0.55262358814E+00  0.26554155643E+01  0.18990635126E+02  0.19265476276E+02  0.17770000000E+01 0.  1.
         15    1    1    2    0    0  0.38296141974E+00  0.56505824892E+00  0.25889758461E+01  0.32134833445E+01  0.17770000000E+01 0.  1.
</event>
<event>
 6    1  0.1108180E-002  0.1837341E+03  0.7546771E-02  0.1067477E+00
        -11   -1    0    0    0    0  0.00000000000E+00  0.00000000000E+00  0.18250000000E+03  0.18250000000E+03  0.00000000000E+00 0.  1.
         11   -1    0    0    0    0 -0.00000000000E+00 -0.00000000000E+00 -0.18250000000E+03  0.18250000000E+03  0.00000000000E+00 0.  1.
        -11    1    1    2    0    0  0.12001350439E+01 -0.45593032287E+01  0.18120462179E+03  0.18126594420E+03  0.00000000000E+00 0.  1.
         11    1    1    2    0    0 -0.68807739806E+00  0.10724468957E+01 -0.33061979985E+02  0.33086524650E+02  0.00000000000E+00 0.  1.
        -15    1    1    2    0    0 -0.23213381337E+01 -0.11428642425E+02 -0.51965106035E+02  0.53287263512E+02  0.17770000000E+01 0.  1.
         15    1    1    2    0    0  0.18092804879E+01  0.14915498758E+02 -0.96177535767E+02  0.97360267637E+02  0.17770000000E+01 0. -1.
</event>
<event>
 6    1  0.1108180E-002  0.1827818E+03  0.7546771E-02  0.1068231E+00
        -11   -1    0    0    0    0  0.00000000000E+00  0.00000000000E+00  0.18250000000E+03  0.18250000000E+03  0.00000000000E+00 0. -1.
         11   -1    0    0    0    0 -0.00000000000E+00 -0.00000000000E+00 -0.18250000000E+03  0.18250000000E+03  0.00000000000E+00 0.  1.
        -11    1    1    2    0    0  0.11365489063E+01  0.41469883173E+01  0.18216748550E+03  0.18221822639E+03  0.00000000000E+00 0. -1.
         11    1    1    2    0    0 -0.17080811825E+01 -0.22090748053E+01 -0.81893931647E+02  0.81941525452E+02  0.00000000000E+00 0.  1.
        -15    1    1    2    0    0 -0.28696241866E+01 -0.16746114664E+01 -0.14585611334E+02  0.15064423438E+02  0.17770000000E+01 0. -1.
         15    1    1    2    0    0  0.34411564628E+01 -0.26330204558E+00 -0.85687942514E+02  0.85775824724E+02  0.17770000000E+01 0.  1.
</event>
<event>
 6    1  0.1108180E-002  0.1934286E+03  0.7546771E-02  0.1060074E+00
        -11   -1    0    0    0    0  0.00000000000E+00  0.00000000000E+00  0.18250000000E+03  0.18250000000E+03  0.00000000000E+00 0.  1.
         11   -1    0    0    0    0 -0.00000000000E+00 -0.00000000000E+00 -0.18250000000E+03  0.18250000000E+03  0.00000000000E+00 0. -1.
        -11    1    1    2    0    0 -0.31818324010E+01 -0.12686988783E+02  0.15880110534E+03  0.15933886783E+03  0.00000000000E+00 0.  1.
         11    1    1    2    0    0  0.13522290663E+00  0.11430851478E+02 -0.17119018090E+03  0.17157144485E+03  0.00000000000E+00 0. -1.
        -15    1    1    2    0    0  0.12490144600E+02  0.95550150035E+00 -0.54883294976E+01  0.13791163291E+02  0.17770000000E+01 0.  1.
         15    1    1    2    0    0 -0.94435351053E+01  0.30063580482E+00  0.17877405058E+02  0.20298524030E+02  0.17770000000E+01 0. -1.
</event>
<event>
 6    1  0.1108180E-002  0.1855749E+03  0.7546771E-02  0.1066033E+00
        -11   -1    0    0    0    0  0.00000000000E+00  0.00000000000E+00  0.18250000000E+03  0.18250000000E+03  0.00000000000E+00 0.  1.
         11   -1    0    0    0    0 -0.00000000000E+00 -0.00000000000E+00 -0.18250000000E+03  0.18250000000E+03  0.00000000000E+00 0.  1.
        -11    1    1    2    0    0  0.15535589661E+01  0.23081933983E+01  0.17261517110E+03  0.17263759323E+03  0.00000000000E+00 0.  1.
         11    1    1    2    0    0  0.62908028155E+00  0.27897472041E+01 -0.17940230053E+03  0.17942509264E+03  0.00000000000E+00 0.  1.
        -15    1    1    2    0    0 -0.59749809351E+00 -0.32954842462E+01 -0.15389162529E+01  0.40918470918E+01  0.17770000000E+01 0.  1.
         15    1    1    2    0    0 -0.15851411541E+01 -0.18024563562E+01  0.83260456860E+01  0.88454670402E+01  0.17770000000E+01 0.  1.
</event>
<event>
 6    1  0.1108180E-002  0.1831030E+03  0.7546771E-02  0.1067976E+00
        -11   -1    0    0    0    0  0.00000000000E+00  0.00000000000E+00  0.18250000000E+03  0.18250000000E+03  0.00000000000E+00 0.  1.
         11   -1    0    0    0    0 -0.00000000000E+00 -0.00000000000E+00 -0.18250000000E+03  0.18250000000E+03  0.00000000000E+00 0.  1.
        -11    1    1    2    0    0 -0.51004514742E+00  0.33912598910E+00  0.31269486375E+02  0.31275484499E+02  0.00000000000E+00 0.  1.
         11    1    1    2    0    0 -0.10310723391E+02 -0.92967826544E+01 -0.18136637385E+03  0.18189695640E+03  0.00000000000E+00 0.  1.
        -15    1    1    2    0    0  0.81100290826E+01 -0.39513520349E+01  0.48648115465E+02  0.49509419527E+02  0.17770000000E+01 0. -1.
         15    1    1    2    0    0  0.27107394559E+01  0.12909008700E+02  0.10144877201E+03  0.10231813957E+03  0.17770000000E+01 0.  1.
</event>
<event>
 6    1  0.1108180E-002  0.1854557E+03  0.7546771E-02  0.1066126E+00
        -11   -1    0    0    0    0  0.00000000000E+00  0.00000000000E+00  0.18250000000E+03  0.18250000000E+03  0.00000000000E+00 0. -1.
         11   -1    0    0    0    0 -0.00000000000E+00 -0.00000000000E+00 -0.18250000000E+03  0.18250000000E+03  0.00000000000E+00 0. -1.
        -11    1    1    2    0    0 -0.24594003912E+01  0.23593984069E+01  0.17255414761E+03  0.17258780163E+03  0.00000000000E+00 0. -1.
         11    1    1    2    0    0  0.80102192718E+00  0.30026757926E+01 -0.17951737897E+03  0.17954427602E+03  0.00000000000E+00 0. -1.
        -15    1    1    2    0    0 -0.35041575275E+01 -0.22612604547E+01  0.31794108583E+01  0.55370390307E+01  0.17770000000E+01 0.  1.
         15    1    1    2    0    0  0.51625359916E+01 -0.31008137448E+01  0.37838205004E+01  0.73308833249E+01  0.17770000000E+01 0. -1.
</event>
<event>
 6    1  0.1108180E-002  0.1838678E+03  0.7546771E-02  0.1067371E+00
        -11   -1    0    0    0    0  0.00000000000E+00  0.00000000000E+00  0.18250000000E+03  0.18250000000E+03  0.00000000000E+00 0. -1.
         11   -1    0    0    0    0 -0.00000000000E+00 -0.00000000000E+00 -0.18250000000E+03  0.18250000000E+03  0.00000000000E+00 0.  1.
        -11    1    1    2    0    0  0.26914640765E+01 -0.15966919615E+01  0.18110516285E+03  0.18113219872E+03  0.00000000000E+00 0. -1.
         11    1    1    2    0    0  0.28926776600E+01 -0.29394674822E+01 -0.11262067053E+03  0.11269615558E+03  0.00000000000E+00 0.  1.
        -15    1    1    2    0    0 -0.31349861897E+01  0.36356305122E+00 -0.64640273315E+02  0.64741663400E+02  0.17770000000E+01 0.  1.
         15    1    1    2    0    0 -0.24491555468E+01  0.41725963925E+01 -0.38442190076E+01  0.64299822959E+01  0.17770000000E+01 0. -1.
</event>
<event>
 6    1  0.1108180E-002  0.1890523E+03  0.7546771E-02  0.1063356E+00
        -11   -1    0    0    0    0  0.00000000000E+00  0.00000000000E+00  0.18250000000E+03  0.18250000000E+03  0.00000000000E+00 0. -1.
         11   -1    0    0    0    0 -0.00000000000E+00 -0.00000000000E+00 -0.18250000000E+03  0.18250000000E+03  0.00000000000E+00 0.  1.
        -11    1    1    2    0    0  0.48075761486E+01 -0.12025198805E+01  0.11386699045E+03  0.11397477948E+03  0.00000000000E+00 0. -1.
         11    1    1    2    0    0  0.23058058310E+01 -0.19177619070E+02 -0.17488423672E+03  0.17594770264E+03  0.00000000000E+00 0.  1.
        -15    1    1    2    0    0  0.13987557510E+02  0.49142380681E+01  0.35394303489E+02  0.38415048475E+02  0.17770000000E+01 0. -1.
         15    1    1    2    0    0 -0.21100939489E+02  0.15465900882E+02  0.25622942777E+02  0.36662469407E+02  0.17770000000E+01 0.  1.
</event>
<event>
 6    1  0.1108180E-002  0.1837490E+03  0.7546771E-02  0.1067465E+00
        -11   -1    0    0    0    0  0.00000000000E+00  0.00000000000E+00  0.18250000000E+03  0.18250000000E+03  0.00000000000E+00 0. -1.
         11   -1    0    0    0    0 -0.00000000000E+00 -0.00000000000E+00 -0.18250000000E+03  0.18250000000E+03  0.00000000000E+00 0.  1.
        -11    1    1    2    0    0  0.38282510773E+00  0.25921445473E+01  0.18123209674E+03  0.18125103767E+03  0.00000000000E+00 0. -1.
         11    1    1    2    0    0  0.23247843018E+01 -0.25404148818E+01 -0.16194186766E+03  0.16197847645E+03  0.00000000000E+00 0.  1.
        -15    1    1    2    0    0 -0.20622345965E+01 -0.44966567382E+01 -0.10390645545E+02  0.11644568570E+02  0.17770000000E+01 0. -1.
         15    1    1    2    0    0 -0.64537481302E+00  0.44449270728E+01 -0.88995835343E+01  0.10125917312E+02  0.17770000000E+01 0.  1.
</event>
<event>
 6    1  0.1108180E-002  0.1901645E+03  0.7546771E-02  0.1062512E+00
        -11   -1    0    0    0    0  0.00000000000E+00  0.00000000000E+00  0.18250000000E+03  0.18250000000E+03  0.00000000000E+00 0. -1.
         11   -1    0    0    0    0 -0.00000000000E+00 -0.00000000000E+00 -0.18250000000E+03  0.18250000000E+03  0.00000000000E+00 0. -1.
        -11    1    1    2    0    0 -0.29786493758E+01 -0.35479603147E+00  0.16525119759E+03  0.16527842127E+03  0.00000000000E+00 0. -1.
         11    1    1    2    0    0  0.43004325363E+01  0.59905469172E+01 -0.17467992386E+03  0.17483551176E+03  0.00000000000E+00 0. -1.
        -15    1    1    2    0    0  0.71880140486E+01 -0.26093956439E+00 -0.36728234838E+01  0.82694012336E+01  0.17770000000E+01 0. -1.
         15    1    1    2    0    0 -0.85097972091E+01 -0.53748113213E+01  0.13101549754E+02  0.16616665738E+02  0.17770000000E+01 0.  1.
</event>
<event>
 6    1  0.1108180E-002  0.1864862E+03  0.7546771E-02  0.1065325E+00
        -11   -1    0    0    0    0  0.00000000000E+00  0.00000000000E+00  0.18250000000E+03  0.18250000000E+03  0.00000000000E+00 0.  1.
         11   -1    0    0    0    0 -0.00000000000E+00 -0.00000000000E+00 -0.18250000000E+03  0.18250000000E+03  0.00000000000E+00 0.  1.
        -11    1    1    2    0    0  0.56094403145E+01  0.37983689524E+01  0.17838518141E+03  0.17851377082E+03  0.00000000000E+00 0.  1.
         11    1    1    2    0    0  0.34932832335E+01 -0.20736603422E+01 -0.15109404933E+03  0.15114865146E+03  0.00000000000E+00 0.  1.
        -15    1    1    2    0    0 -0.10175203447E+02 -0.42460017907E+01 -0.29400324705E+02  0.31449962133E+02  0.17770000000E+01 0. -1.
         15    1    1    2    0    0  0.10724798993E+01  0.25212931805E+01  0.21091926211E+01  0.38876155866E+01  0.17770000000E+01 0.  1.
</event>
<event>
 6    1  0.1108180E-002  0.1669039E+03  0.7546771E-02  0.1081595E+00
        -11   -1    0    0    0    0  0.00000000000E+00  0.00000000000E+00  0.18250000000E+03  0.18250000000E+03  0.00000000000E+00 0.  1.
         11   -1    0    0    0    0 -0.00000000000E+00 -0.00000000000E+00 -0.18250000000E+03  0.18250000000E+03  0.00000000000E+00 0. -1.
        -11    1    1    2    0    0 -0.10949753815E+02  0.48739414234E+01  0.16078431414E+03  0.16123041924E+03  0.00000000000E+00 0.  1.
         11    1    1    2    0    0 -0.66115790518E+00  0.12593528471E+02 -0.17299969208E+03  0.17345872002E+03  0.00000000000E+00 0. -1.
        -15    1    1    2    0    0 -0.40364219936E+01 -0.19772364867E+01 -0.43966829451E+00  0.48531643125E+01  0.17770000000E+01 0.  1.
         15    1    1    2    0    0  0.15647333714E+02 -0.15490233408E+02  0.12655046237E+02  0.25457696432E+02  0.17770000000E+01 0. -1.
</event>
<event>
 6    1  0.1108180E-002  0.1919809E+03  0.7546771E-02  0.1061149E+00
        -11   -1    0    0    0    0  0.00000000000E+00  0.00000000000E+00  0.18250000000E+03  0.18250000000E+03  0.00000000000E+00 0.  1.
         11   -1    0    0    0    0 -0.00000000000E+00 -0.00000000000E+00 -0.18250000000E+03  0.18250000000E+03  0.00000000000E+00 0.  1.
        -11    1    1    2    0    0  0.82474560031E+01 -0.11383519484E+02  0.17244709251E+03  0.17301908785E+03  0.00000000000E+00 0.  1.
         11    1    1    2    0    0  0.15453057810E+02  0.39200766792E+01 -0.20536671134E+02  0.25998439533E+02  0.00000000000E+00 0.  1.
        -15    1    1    2    0    0  0.13520308962E+02  0.30024930268E+01 -0.57840771958E+01  0.15113801534E+02  0.17770000000E+01 0. -1.
         15    1    1    2    0    0 -0.37220822775E+02  0.44609497778E+01 -0.14612634418E+03  0.15086867108E+03  0.17770000000E+01 0.  1.
</event>
<event>
 6    1  0.1108180E-002  0.1748114E+03  0.7546771E-02  0.1074745E+00
        -11   -1    0    0    0    0  0.00000000000E+00  0.00000000000E+00  0.18250000000E+03  0.18250000000E+03  0.00000000000E+00 0.  1.
         11   -1    0    0    0    0 -0.00000000000E+00 -0.00000000000E+00 -0.18250000000E+03  0.18250000000E+03  0.00000000000E+00 0.  1.
        -11    1    1    2    0    0 -0.11785697366E+00 -0.91086151174E+01  0.17648106660E+03  0.17671600841E+03  0.00000000000E+00 0.  1.
         11    1    1    2    0    0  0.13417975595E+01  0.10692153385E+01 -0.61307369258E+01  0.63662844253E+01  0.00000000000E+00 0.  1.
        -15    1    1    2    0    0  0.11503233588E+01  0.81906512104E+01  0.26706033697E+01  0.88712942933E+01  0.17770000000E+01 0. -1.
         15    1    1    2    0    0 -0.23742639446E+01 -0.15125143156E+00 -0.17302093305E+03  0.17304641287E+03  0.17770000000E+01 0.  1.
</event>
<event>
 6    1  0.1108180E-002  0.1935012E+03  0.7546771E-02  0.1060020E+00
        -11   -1    0    0    0    0  0.00000000000E+00  0.00000000000E+00  0.18250000000E+03  0.18250000000E+03  0.00000000000E+00 0. -1.
         11   -1    0    0    0    0 -0.00000000000E+00 -0.00000000000E+00 -0.18250000000E+03  0.18250000000E+03  0.00000000000E+00 0. -1.
        -11    1    1    2    0    0  0.27185002636E+00 -0.26970795874E+01  0.17147739452E+03  0.17149881915E+03  0.00000000000E+00 0. -1.
         11    1    1    2    0    0 -0.53940119679E+00  0.69230251009E+01 -0.15656272650E+03  0.15671664417E+03  0.00000000000E+00 0. -1.
        -15    1    1    2    0    0  0.96625280356E+01 -0.48548140295E+01 -0.22193246044E+02  0.24751395239E+02  0.17770000000E+01 0. -1.
         15    1    1    2    0    0 -0.93949768652E+01  0.62886851592E+00  0.72785780264E+01  0.12033141443E+02  0.17770000000E+01 0.  1.
</event>
<event>
 6    1  0.1108180E-002  0.1836151E+03  0.7546771E-02  0.1067571E+00
        -11   -1    0    0    0    0  0.00000000000E+00  0.00000000000E+00  0.18250000000E+03  0.18250000000E+03  0.00000000000E+00 0. -1.
         11   -1    0    0    0    0 -0.00000000000E+00 -0.00000000000E+00 -0.18250000000E+03  0.18250000000E+03  0.00000000000E+00 0.  1.
        -11    1    1    2    0    0 -0.28828604084E+01 -0.21845520774E+00  0.18136188014E+03  0.18138492268E+03  0.00000000000E+00 0. -1.
         11    1    1    2    0    0 -0.32755836083E+01 -0.64850064359E+01 -0.15233908053E+03  0.15251222971E+03  0.00000000000E+00 0.  1.
        -15    1    1    2    0    0  0.63629839025E+01  0.44964892404E+01 -0.17554409761E+02  0.19287846191E+02  0.17770000000E+01 0. -1.
         15    1    1    2    0    0 -0.20453988582E+00  0.22069724033E+01 -0.11468389850E+02  0.11815001418E+02  0.17770000000E+01 0. -1.
</event>
<event>
 6    1  0.1108180E-002  0.1848734E+03  0.7546771E-02  0.1066581E+00
        -11   -1    0    0    0    0  0.00000000000E+00  0.00000000000E+00  0.18250000000E+03  0.18250000000E+03  0.00000000000E+00 0.  1.
         11   -1    0    0    0    0 -0.00000000000E+00 -0.00000000000E+00 -0.18250000000E+03  0.18250000000E+03  0.00000000000E+00 0. -1.
        -11    1    1    2    0    0 -0.15708183315E+01  0.18101170387E+01  0.17252744672E+03  0.17254409253E+03  0.00000000000E+00 0.  1.
         11    1    1    2    0    0  0.14961136554E+00 -0.54634675121E+01 -0.18004368384E+03  0.18012662200E+03  0.00000000000E+00 0. -1.
        -15    1    1    2    0    0  0.13100262023E+01  0.42419311559E+01  0.21044477324E+00  0.47866652886E+01  0.17770000000E+01 0.  1.
         15    1    1    2    0    0  0.11118076370E+00 -0.58858068253E+00  0.73057923479E+01  0.75426201822E+01  0.17770000000E+01 0.  1.
</event>
<event>
 6    1  0.1108180E-002  0.1585634E+03  0.7546771E-02  0.1089286E+00
        -11   -1    0    0    0    0  0.00000000000E+00  0.00000000000E+00  0.18250000000E+03  0.18250000000E+03  0.00000000000E+00 0. -1.
         11   -1    0    0    0    0 -0.00000000000E+00 -0.00000000000E+00 -0.18250000000E+03  0.18250000000E+03  0.00000000000E+00 0.  1.
        -11    1    1    2    0    0 -0.54150020132E+01 -0.30058021462E-01  0.15893560065E+03  0.15902782243E+03  0.00000000000E+00 0. -1.
         11    1    1    2    0    0  0.47857854931E+01  0.66123539693E+01 -0.15795865023E+03  0.15816940966E+03  0.00000000000E+00 0.  1.
        -15    1    1    2    0    0  0.49554558226E+01  0.54666082402E+01  0.20987596443E+02  0.22317645071E+02  0.17770000000E+01 0. -1.
         15    1    1    2    0    0 -0.43262393025E+01 -0.12048904188E+02 -0.21964546862E+02  0.25485122846E+02  0.17770000000E+01 0.  1.
</event>
<event>
 6    1  0.1108180E-002  0.1826172E+03  0.7546771E-02  0.1068362E+00
        -11   -1    0    0    0    0  0.00000000000E+00  0.00000000000E+00  0.18250000000E+03  0.18250000000E+03  0.00000000000E+00 0.  1.
         11   -1    0    0    0    0 -0.00000000000E+00 -0.00000000000E+00 -0.18250000000E+03  0.18250000000E+03  0.00000000000E+00 0. -1.
        -11    1    1    2    0    0 -0.29549485036E+01 -0.21376075002E+01  0.75530599255E+02  0.75618598971E+02  0.00000000000E+00 0.  1.
         11    1    1    2    0    0  0.29618467168E+01  0.19206947911E+01 -0.18234864629E+03  0.18238281281E+03  0.00000000000E+00 0. -1.
        -15    1    1    2    0    0  0.75028110762E+00 -0.23159926551E+01  0.55486298607E+02  0.55568100613E+02  0.17770000000E+01 0. -1.
         15    1    1    2    0    0 -0.75717932074E+00  0.25329053642E+01  0.51331748427E+02  0.51430487608E+02  0.17770000000E+01 0.  1.
</event>
<event>
 6    1  0.1108180E-002  0.1828306E+03  0.7546771E-02  0.1068192E+00
        -11   -1    0    0    0    0  0.00000000000E+00  0.00000000000E+00  0.18250000000E+03  0.18250000000E+03  0.00000000000E+00 0. -1.
         11   -1    0    0    0    0 -0.00000000000E+00 -0.00000000000E+00 -0.18250000000E+03  0.18250000000E+03  0.00000000000E+00 0. -1.
        -11    1    1    2    0    0 -0.76607672696E-01 -0.52192391177E+00  0.23683031741E+02  0.23688905964E+02  0.00000000000E+00 0. -1.
         11    1    1    2    0    0 -0.55157501531E+01 -0.35437836586E+01 -0.18205138078E+03  0.18216939135E+03  0.00000000000E+00 0. -1.
        -15    1    1    2    0    0  0.65398191922E+01  0.29997498757E+01  0.36137788654E+02  0.36889906915E+02  0.17770000000E+01 0. -1.
         15    1    1    2    0    0 -0.94746136648E+00  0.10659576946E+01  0.12223056038E+03  0.12225179577E+03  0.17770000000E+01 0. -1.
</event>
<event>
 6    1  0.1108180E-002  0.1844391E+03  0.7546771E-02  0.1066922E+00
        -11   -1    0    0    0    0  0.00000000000E+00  0.00000000000E+00  0.18250000000E+03  0.18250000000E+03  0.00000000000E+00 0. -1.
         11   -1    0    0    0    0 -0.00000000000E+00 -0.00000000000E+00 -0.18250000000E+03  0.18250000000E+03  0.00000000000E+00 0.  1.
        -11    1    1    2    0    0 -0.17551507186E+01 -0.96349749946E+00  0.13295327474E+03  0.13296835017E+03  0.00000000000E+00 0. -1.
         11    1    1    2    0    0  0.22345218140E+00  0.42999897349E+01 -0.18050951081E+03  0.18056085771E+03  0.00000000000E+00 0.  1.
        -15    1    1    2    0    0 -0.33467797524E+01 -0.93650127432E+01  0.15963816044E+02  0.18891944053E+02  0.17770000000E+01 0. -1.
         15    1    1    2    0    0  0.48784782896E+01  0.60285205078E+01  0.31592420024E+02  0.32578848076E+02  0.17770000000E+01 0. -1.
</event>
<event>
 6    1  0.1108180E-002  0.1832879E+03  0.7546771E-02  0.1067829E+00
        -11   -1    0    0    0    0  0.00000000000E+00  0.00000000000E+00  0.18250000000E+03  0.18250000000E+03  0.00000000000E+00 0. -1.
         11   -1    0    0    0    0 -0.00000000000E+00 -0.00000000000E+00 -0.18250000000E+03  0.18250000000E+03  0.00000000000E+00 0.  1.
        -11    1    1    2    0    0 -0.50334427112E+01 -0.31288920441E+01  0.18161538660E+03  0.18171206389E+03  0.00000000000E+00 0. -1.
         11    1    1    2    0    0 -0.10196649963E-02  0.26658931617E+01 -0.15437876297E+03  0.15440177928E+03  0.00000000000E+00 0.  1.
        -15    1    1    2    0    0  0.48274480816E+00  0.33806870222E+01 -0.91994277798E+01  0.99724263731E+01  0.17770000000E+01 0. -1.
         15    1    1    2    0    0  0.45517175680E+01 -0.29176881397E+01 -0.18037195852E+02  0.18913730465E+02  0.17770000000E+01 0.  1.
</event>
<event>
 6    1  0.1108180E-002  0.1830332E+03  0.7546771E-02  0.1068031E+00
        -11   -1    0    0    0    0  0.00000000000E+00  0.00000000000E+00  0.18250000000E+03  0.18250000000E+03  0.00000000000E+00 0.  1.
         11   -1    0    0    0    0 -0.00000000000E+00 -0.00000000000E+00 -0.18250000000E+03  0.18250000000E+03  0.00000000000E+00 0.  1.
        -11    1    1    2    0    0 -0.29910733871E+01  0.96006119256E+00  0.18193966875E+03  0.18196678626E+03  0.00000000000E+00 0.  1.
         11    1    1    2    0    0  0.40069597109E+01  0.19716574428E+01 -0.16527253058E+03  0.16533285373E+03  0.00000000000E+00 0.  1.
        -15    1    1    2    0    0  0.13252146191E+01 -0.14420375995E+01 -0.67179591912E+01  0.72197209725E+01  0.17770000000E+01 0.  1.
         15    1    1    2    0    0 -0.23411009429E+01 -0.14896810359E+01 -0.99491789826E+01  0.10480639038E+02  0.17770000000E+01 0. -1.
</event>
<event>
 6    1  0.1108180E-002  0.1834524E+03  0.7546771E-02  0.1067699E+00
        -11   -1    0    0    0    0  0.00000000000E+00  0.00000000000E+00  0.18250000000E+03  0.18250000000E+03  0.00000000000E+00 0. -1.
         11   -1    0    0    0    0 -0.00000000000E+00 -0.00000000000E+00 -0.18250000000E+03  0.18250000000E+03  0.00000000000E+00 0.  1.
        -11    1    1    2    0    0 -0.49048771764E+01 -0.47779054073E+00  0.18148074949E+03  0.18154764812E+03  0.00000000000E+00 0. -1.
         11    1    1    2    0    0  0.11742860002E+01  0.56341789247E+01 -0.12597353006E+03  0.12610492930E+03  0.00000000000E+00 0.  1.
        -15    1    1    2    0    0  0.35057562288E+01 -0.19764090019E+01 -0.48079303541E+01  0.65169350594E+01  0.17770000000E+01 0. -1.
         15    1    1    2    0    0  0.22483494741E+00 -0.31799793820E+01 -0.50699289075E+02  0.50830487518E+02  0.17770000000E+01 0.  1.
</event>
<event>
 6    1  0.1108180E-002  0.1732821E+03  0.7546771E-02  0.1076039E+00
        -11   -1    0    0    0    0  0.00000000000E+00  0.00000000000E+00  0.18250000000E+03  0.18250000000E+03  0.00000000000E+00 0.  1.
         11   -1    0    0    0    0 -0.00000000000E+00 -0.00000000000E+00 -0.18250000000E+03  0.18250000000E+03  0.00000000000E+00 0. -1.
        -11    1    1    2    0    0  0.12331088580E+02  0.50448653965E+01  0.16913848149E+03  0.16966240695E+03  0.00000000000E+00 0.  1.
         11    1    1    2    0    0 -0.98095019728E+00  0.26480300820E+01 -0.17724521507E+03  0.17726770882E+03  0.00000000000E+00 0. -1.
        -15    1    1    2    0    0 -0.11625395722E+02 -0.48857591244E+01  0.71348724815E+01  0.14597417657E+02  0.17770000000E+01 0.  1.
         15    1    1    2    0    0  0.27525733883E+00 -0.28071363541E+01  0.97186109762E+00  0.34724665738E+01  0.17770000000E+01 0. -1.
</event>
<event>
 6    1  0.1108180E-002  0.1845627E+03  0.7546771E-02  0.1066825E+00
        -11   -1    0    0    0    0  0.00000000000E+00  0.00000000000E+00  0.18250000000E+03  0.18250000000E+03  0.00000000000E+00 0. -1.
         11   -1    0    0    0    0 -0.00000000000E+00 -0.00000000000E+00 -0.18250000000E+03  0.18250000000E+03  0.00000000000E+00 0. -1.
        -11    1    1    2    0    0 -0.88363132666E+00 -0.27497225668E+01  0.18041421291E+03  0.18043732983E+03  0.00000000000E+00 0. -1.
         11    1    1    2    0    0 -0.37180860351E+01 -0.98640742946E+00 -0.17051467252E+03  0.17055805671E+03  0.00000000000E+00 0. -1.
        -15    1    1    2    0    0  0.23076244729E+01  0.53457253200E+01 -0.41547818638E+01  0.73703358975E+01  0.17770000000E+01 0.  1.
         15    1    1    2    0    0  0.22940928888E+01 -0.16095953238E+01 -0.57447585242E+01  0.66342775636E+01  0.17770000000E+01 0. -1.
</event>
<event>
 6    1  0.1108180E-002  0.1694466E+03  0.7546771E-02  0.1079348E+00
        -11   -1    0    0    0    0  0.00000000000E+00  0.00000000000E+00  0.18250000000E+03  0.18250000000E+03  0.00000000000E+00 0.  1.
         11   -1    0    0    0    0 -0.00000000000E+00 -0.00000000000E+00 -0.18250000000E+03  0.18250000000E+03  0.00000000000E+00 0.  1.
        -11    1    1    2    0    0  0.84577309758E+01  0.14592015703E+02  0.17204567656E+03  0.17287039931E+03  0.00000000000E+00 0.  1.
         11    1    1    2    0    0  0.18878528240E+01 -0.26318412782E+01 -0.16640689664E+03  0.16643841451E+03  0.00000000000E+00 0.  1.
        -15    1    1    2    0    0 -0.15763714510E+01 -0.45571371607E+01 -0.11563587429E+02  0.12654119064E+02  0.17770000000E+01 0. -1.
         15    1    1    2    0    0 -0.87692123488E+01 -0.74030372636E+01  0.59248075045E+01  0.13037067113E+02  0.17770000000E+01 0.  1.
</event>
<event>
 6    1  0.1108180E-002  0.1871098E+03  0.7546771E-02  0.1064844E+00
        -11   -1    0    0    0    0  0.00000000000E+00  0.00000000000E+00  0.18250000000E+03  0.18250000000E+03  0.00000000000E+00 0. -1.
         11   -1    0    0    0    0 -0.00000000000E+00 -0.00000000000E+00 -0.18250000000E+03  0.18250000000E+03  0.00000000000E+00 0. -1.
        -11    1    1    2    0    0  0.10000739726E+01  0.73904973613E+00  0.83762573570E+02  0.83771803571E+02  0.00000000000E+00 0. -1.
         11    1    1    2    0    0 -0.14009339163E+01  0.24446401985E+01 -0.17786793055E+03  0.17789024594E+03  0.00000000000E+00 0. -1.
        -15    1    1    2    0    0  0.16740854480E+02 -0.14836438971E+01  0.15229339984E+02  0.22749679850E+02  0.17770000000E+01 0.  1.
         15    1    1    2    0    0 -0.16339994536E+02 -0.17000460375E+01  0.78876016998E+02  0.80588270638E+02  0.17770000000E+01 0. -1.
</event>
<event>
 6    1  0.1108180E-002  0.1826768E+03  0.7546771E-02  0.1068314E+00
        -11   -1    0    0    0    0  0.00000000000E+00  0.00000000000E+00  0.18250000000E+03  0.18250000000E+03  0.00000000000E+00 0.  1.
         11   -1    0    0    0    0 -0.00000000000E+00 -0.00000000000E+00 -0.18250000000E+03  0.18250000000E+03  0.00000000000E+00 0.  1.
        -11    1    1    2    0    0 -0.21582536096E+01 -0.10125554691E+01  0.11545224897E+03  0.11547685967E+03  0.00000000000E+00 0.  1.
         11    1    1    2    0    0  0.29315446404E+01  0.40054920474E+00 -0.18229920741E+03  0.18232321689E+03  0.00000000000E+00 0.  1.
        -15    1    1    2    0    0  0.18652572907E+01  0.12256401360E+01  0.47328967260E+02  0.47414873715E+02  0.17770000000E+01 0. -1.
         15    1    1    2    0    0 -0.26385483215E+01 -0.61363387167E+00  0.19517991187E+02  0.19785049729E+02  0.17770000000E+01 0. -1.
</event>
<event>
 6    1  0.1108180E-002  0.1875670E+03  0.7546771E-02  0.1064492E+00
        -11   -1    0    0    0    0  0.00000000000E+00  0.00000000000E+00  0.18250000000E+03  0.18250000000E+03  0.00000000000E+00 0. -1.
         11   -1    0    0    0    0 -0.00000000000E+00 -0.00000000000E+00 -0.18250000000E+03  0.18250000000E+03  0.00000000000E+00 0. -1.
        -11    1    1    2    0    0  0.81482586285E+00 -0.58670014434E+01  0.16183813613E+03  0.16194649719E+03  0.00000000000E+00 0. -1.
         11    1    1    2    0    0 -0.13591623372E+01  0.49120877279E+01 -0.17735976793E+03  0.17743298230E+03  0.00000000000E+00 0. -1.
        -15    1    1    2    0    0 -0.39558259560E+01  0.20867205412E+01  0.18970860968E+02  0.19571771930E+02  0.17770000000E+01 0. -1.
         15    1    1    2    0    0  0.45001624303E+01 -0.11318068257E+01 -0.34492291673E+01  0.60487485845E+01  0.17770000000E+01 0.  1.
</event>
<event>
 6    1  0.1108180E-002  0.1837836E+03  0.7546771E-02  0.1067438E+00
        -11   -1    0    0    0    0  0.00000000000E+00  0.00000000000E+00  0.18250000000E+03  0.18250000000E+03  0.00000000000E+00 0.  1.
         11   -1    0    0    0    0 -0.00000000000E+00 -0.00000000000E+00 -0.18250000000E+03  0.18250000000E+03  0.00000000000E+00 0.  1.
        -11    1    1    2    0    0  0.28781266151E+01 -0.72200534151E+01  0.18104962023E+03  0.18121638383E+03  0.00000000000E+00 0.  1.
         11    1    1    2    0    0  0.24382173374E+01  0.14424352961E+01 -0.13780542612E+03  0.13783454208E+03  0.00000000000E+00 0.  1.
        -15    1    1    2    0    0 -0.21395079352E+01  0.24438086162E+00 -0.36097300803E+02  0.36205111110E+02  0.17770000000E+01 0.  1.
         15    1    1    2    0    0 -0.31768360172E+01  0.55332372574E+01 -0.71468933066E+01  0.97439629804E+01  0.17770000000E+01 0. -1.
</event>
<event>
 6    1  0.1566459E-002  0.1841037E+03  0.7546771E-02  0.1067185E+00
        -11   -1    0    0    0    0  0.00000000000E+00  0.00000000000E+00  0.18250000000E+03  0.18250000000E+03  0.00000000000E+00 0.  1.
         11   -1    0    0    0    0 -0.00000000000E+00 -0.00000000000E+00 -0.18250000000E+03  0.18250000000E+03  0.00000000000E+00 0. -1.
        -11    1    1    2    0    0 -0.70242425257E+00  0.25012507193E+01  0.13408541727E+03  0.13411058415E+03  0.00000000000E+00 0.  1.
         11    1    1    2    0    0  0.81669303504E+01 -0.71409837810E+01 -0.18057066380E+03  0.18089626040E+03  0.00000000000E+00 0. -1.
        -15    1    1    2    0    0 -0.84233965060E+01  0.58096677327E+01  0.14038619082E+02  0.17462714639E+02  0.17770000000E+01 0. -1.
         15    1    1    2    0    0  0.95889040813E+00 -0.11699346710E+01  0.32446627445E+02  0.32530440813E+02  0.17770000000E+01 0. -1.
</event>
<event>
 6    1  0.1108180E-002  0.1915015E+03  0.7546771E-02  0.1061507E+00
        -11   -1    0    0    0    0  0.00000000000E+00  0.00000000000E+00  0.18250000000E+03  0.18250000000E+03  0.00000000000E+00 0. -1.
         11   -1    0    0    0    0 -0.00000000000E+00 -0.00000000000E+00 -0.18250000000E+03  0.18250000000E+03  0.00000000000E+00 0.  1.
        -11    1    1    2    0    0 -0.78657507684E+00  0.47062990505E+01  0.15866656588E+03  0.15873829746E+03  0.00000000000E+00 0. -1.
         11    1    1    2    0    0 -0.29707625258E+01  0.61903418730E+01 -0.17336259108E+03  0.17349851224E+03  0.00000000000E+00 0.  1.
        -15    1    1    2    0    0 -0.59522321552E+00  0.15928388970E+01  0.18676053041E+02  0.18837306405E+02  0.17770000000E+01 0.  1.
         15    1    1    2    0    0  0.43525608182E+01 -0.12489479821E+02 -0.39800278417E+01  0.13925883903E+02  0.17770000000E+01 0. -1.
</event>
<event>
 6    1  0.1108180E-002  0.1831609E+03  0.7546771E-02  0.1067930E+00
        -11   -1    0    0    0    0  0.00000000000E+00  0.00000000000E+00  0.18250000000E+03  0.18250000000E+03  0.00000000000E+00 0. -1.
         11   -1    0    0    0    0 -0.00000000000E+00 -0.00000000000E+00 -0.18250000000E+03  0.18250000000E+03  0.00000000000E+00 0.  1.
        -11    1    1    2    0    0 -0.87699591139E-02 -0.31166954844E+01  0.18181237160E+03  0.18183908362E+03  0.00000000000E+00 0. -1.
         11    1    1    2    0    0  0.21095218055E+01 -0.59087690080E+01 -0.13626332109E+03  0.13640768419E+03  0.00000000000E+00 0.  1.
        -15    1    1    2    0    0 -0.11590948219E+01  0.75750533888E+01 -0.38057265076E+02  0.38861781852E+02  0.17770000000E+01 0.  1.
         15    1    1    2    0    0 -0.94165702447E+00  0.14504111036E+01 -0.74917854348E+01  0.78914503307E+01  0.17770000000E+01 0. -1.
</event>
<event>
 6    1  0.1108180E-002  0.1829214E+03  0.7546771E-02  0.1068120E+00
        -11   -1    0    0    0    0  0.00000000000E+00  0.00000000000E+00  0.18250000000E+03  0.18250000000E+03  0.00000000000E+00 0.  1.
         11   -1    0    0    0    0 -0.00000000000E+00 -0.00000000000E+00 -0.18250000000E+03  0.18250000000E+03  0.00000000000E+00 0. -1.
        -11    1    1    2    0    0 -0.29598049725E+00 -0.29532739001E+01  0.11804107918E+03  0.11807838839E+03  0.00000000000E+00 0.  1.
         11    1    1    2    0    0 -0.74531718539E+01  0.14483875365E+01 -0.18192024777E+03  0.18207862078E+03  0.00000000000E+00 0. -1.
        -15    1    1    2    0    0  0.23817602467E+01 -0.60324222288E+00  0.43069936501E+02  0.43176542731E+02  0.17770000000E+01 0. -1.
         15    1    1    2    0    0  0.53673921045E+01  0.21081285864E+01  0.20809232084E+02  0.21666448095E+02  0.17770000000E+01 0.  1.
</event>
<event>
 6    1  0.1108180E-002  0.1836252E+03  0.7546771E-02  0.1067563E+00
        -11   -1    0    0    0    0  0.00000000000E+00  0.00000000000E+00  0.18250000000E+03  0.18250000000E+03  0.00000000000E+00 0. -1.
         11   -1    0    0    0    0 -0.00000000000E+00 -0.00000000000E+00 -0.18250000000E+03  0.18250000000E+03  0.00000000000E+00 0. -1.
        -11    1    1    2    0    0  0.10702757769E+01  0.12314977320E+01  0.11286601302E+03  0.11287780548E+03  0.00000000000E+00 0. -1.
         11    1    1    2    0    0 -0.57410987582E+01 -0.32111436920E+00 -0.18128365044E+03  0.18137481977E+03  0.00000000000E+00 0. -1.
        -15    1    1    2    0    0  0.28837961139E+01  0.42835631241E+01  0.61479299975E+02  0.61721367836E+02  0.17770000000E+01 0. -1.
         15    1    1    2    0    0  0.17870268674E+01 -0.51939464868E+01  0.69383374520E+01  0.90260069095E+01  0.17770000000E+01 0.  1.
</event>
<event>
 6    1  0.1108180E-002  0.1854430E+03  0.7546771E-02  0.1066136E+00
        -11   -1    0    0    0    0  0.00000000000E+00  0.00000000000E+00  0.18250000000E+03  0.18250000000E+03  0.00000000000E+00 0. -1.
         11   -1    0    0    0    0 -0.00000000000E+00 -0.00000000000E+00 -0.18250000000E+03  0.18250000000E+03  0.00000000000E+00 0.  1.
        -11    1    1    2    0    0 -0.31829982469E+01 -0.91505929628E+00  0.14146985550E+03  0.14150861750E+03  0.00000000000E+00 0. -1.
         11    1    1    2    0    0  0.33824930637E+01  0.11177731433E+01 -0.17952169447E+03  0.17955703679E+03  0.00000000000E+00 0.  1.
        -15    1    1    2    0    0 -0.10358087819E+02  0.16842029388E+01  0.13164729820E+02  0.16929098117E+02  0.17770000000E+01 0.  1.
         15    1    1    2    0    0  0.10158593002E+02 -0.18869167858E+01  0.24887109149E+02  0.27005247593E+02  0.17770000000E+01 0. -1.
</event>
<event>
 6    1  0.1108180E-002  0.1841031E+03  0.7546771E-02  0.1067186E+00
        -11   -1    0    0    0    0  0.00000000000E+00  0.00000000000E+00  0.18250000000E+03  0.18250000000E+03  0.00000000000E+00 0.  1.
         11   -1    0    0    0    0 -0.00000000000E+00 -0.00000000000E+00 -0.18250000000E+03  0.18250000000E+03  0.00000000000E+00 0. -1.
        -11    1    1    2    0    0  0.11094279353E+01  0.30529499325E+01  0.16511340044E+03  0.16514534913E+03  0.00000000000E+00 0.  1.
         11    1    1    2    0    0 -0.23814706760E+01  0.77940790151E+00 -0.18087956458E+03  0.18089692027E+03  0.00000000000E+00 0. -1.
        -15    1    1    2    0    0  0.99602761235E+00  0.26831983090E+01  0.29927457320E+01  0.45062046321E+01  0.17770000000E+01 0.  1.
         15    1    1    2    0    0  0.27601512835E+00 -0.65155561430E+01  0.12773418403E+02  0.14451525971E+02  0.17770000000E+01 0. -1.
</event>
<event>
 6    1  0.1108180E-002  0.1840147E+03  0.7546771E-02  0.1067255E+00
        -11   -1    0    0    0    0  0.00000000000E+00  0.00000000000E+00  0.18250000000E+03  0.18250000000E+03  0.00000000000E+00 0.  1.
         11   -1    0    0    0    0 -0.00000000000E+00 -0.00000000000E+00 -0.18250000000E+03  0.18250000000E+03  0.00000000000E+00 0.  1.
        -11    1    1    2    0    0 -0.35286406305E+01 -0.26687400583E+01  0.18093116912E+03  0.18098525199E+03  0.00000000000E+00 0.  1.
         11    1    1    2    0    0  0.37555388566E+01  0.21795158253E+01 -0.11742642634E+03  0.11750668051E+03  0.00000000000E+00 0.  1.
        -15    1    1    2    0    0  0.24832240051E+01 -0.56168671784E+01 -0.55766550433E+02  0.56131822299E+02  0.17770000000E+01 0. -1.
         15    1    1    2    0    0 -0.27101222312E+01  0.61060914113E+01 -0.77381923482E+01  0.10376245210E+02  0.17770000000E+01 0.  1.
</event>
<event>
 6    1  0.1108180E-002  0.1887794E+03  0.7546771E-02  0.1063563E+00
        -11   -1    0    0    0    0  0.00000000000E+00  0.00000000000E+00  0.18250000000E+03  0.18250000000E+03  0.00000000000E+00 0.  1.
         11   -1    0    0    0    0 -0.00000000000E+00 -0.00000000000E+00 -0.18250000000E+03  0.18250000000E+03  0.00000000000E+00 0. -1.
        -11    1    1    2    0    0  0.12453808283E+01  0.84960176234E+01  0.17601124471E+03  0.17622057641E+03  0.00000000000E+00 0.  1.
         11    1    1    2    0    0  0.17190093981E+01  0.47038320393E+01 -0.16244415260E+03  0.16252133320E+03  0.00000000000E+00 0. -1.
        -15    1    1    2    0    0 -0.48308631970E+00 -0.30740003731E+01  0.42374205897E+01  0.55494425792E+01  0.17770000000E+01 0.  1.
         15    1    1    2    0    0 -0.24813039066E+01 -0.10125849290E+02 -0.17804512691E+02  0.20708647809E+02  0.17770000000E+01 0. -1.
</event>
<event>
 6    1  0.1108180E-002  0.1858687E+03  0.7546771E-02  0.1065805E+00
        -11   -1    0    0    0    0  0.00000000000E+00  0.00000000000E+00  0.18250000000E+03  0.18250000000E+03  0.00000000000E+00 0.  1.
         11   -1    0    0    0    0 -0.00000000000E+00 -0.00000000000E+00 -0.18250000000E+03  0.18250000000E+03  0.00000000000E+00 0.  1.
        -11    1    1    2    0    0 -0.40380352338E+00  0.23344745894E+01  0.16877494219E+03  0.16879156952E+03  0.00000000000E+00 0.  1.
         11    1    1    2    0    0 -0.34953536092E+01 -0.11807495908E+01 -0.17909334176E+03  0.17913133932E+03  0.00000000000E+00 0.  1.
        -15    1    1    2    0    0 -0.20247589837E+01  0.40398468259E+01  0.14174919178E+01  0.50583617561E+01  0.17770000000E+01 0. -1.
         15    1    1    2    0    0  0.59239161163E+01 -0.51935718245E+01  0.89009076478E+01  0.12018729401E+02  0.17770000000E+01 0. -1.
</event>
<event>
 6    1  0.1108180E-002  0.1864981E+03  0.7546771E-02  0.1065316E+00
        -11   -1    0    0    0    0  0.00000000000E+00  0.00000000000E+00  0.18250000000E+03  0.18250000000E+03  0.00000000000E+00 0.  1.
         11   -1    0    0    0    0 -0.00000000000E+00 -0.00000000000E+00 -0.18250000000E+03  0.18250000000E+03  0.00000000000E+00 0.  1.
        -11    1    1    2    0    0 -0.21788721020E+01 -0.76345893227E+01  0.16999345329E+03  0.17017875484E+03  0.00000000000E+00 0.  1.
         11    1    1    2    0    0  0.29843900512E+01  0.13738318113E+00 -0.17847689826E+03  0.17850190103E+03  0.00000000000E+00 0.  1.
        -15    1    1    2    0    0 -0.21361946550E+01 -0.48026763462E+00 -0.16231565421E+01  0.32536672794E+01  0.17770000000E+01 0. -1.
         15    1    1    2    0    0  0.13306767058E+01  0.79774737762E+01  0.10106601513E+02  0.13065676848E+02  0.17770000000E+01 0. -1.
</event>
<event>
 6    1  0.1108180E-002  0.1833466E+03  0.7546771E-02  0.1067783E+00
        -11   -1    0    0    0    0  0.00000000000E+00  0.00000000000E+00  0.18250000000E+03  0.18250000000E+03  0.00000000000E+00 0. -1.
         11   -1    0    0    0    0 -0.00000000000E+00 -0.00000000000E+00 -0.18250000000E+03  0.18250000000E+03  0.00000000000E+00 0. -1.
        -11    1    1    2    0    0 -0.17681457444E+02  0.11512556795E+02  0.18042387020E+03  0.18165336727E+03  0.00000000000E+00 0. -1.
         11    1    1    2    0    0 -0.11973223559E+01 -0.84434590689E+00 -0.63457246182E+02  0.63474156898E+02  0.00000000000E+00 0. -1.
        -15    1    1    2    0    0  0.15159164198E+02 -0.42948285244E+01 -0.49432819783E+02  0.51913458871E+02  0.17770000000E+01 0. -1.
         15    1    1    2    0    0  0.37196156019E+01 -0.63733823637E+01 -0.67533804236E+02  0.67959016963E+02  0.17770000000E+01 0.  1.
</event>
<event>
 6    1  0.1108180E-002  0.1894869E+03  0.7546771E-02  0.1063025E+00
        -11   -1    0    0    0    0  0.00000000000E+00  0.00000000000E+00  0.18250000000E+03  0.18250000000E+03  0.00000000000E+00 0. -1.
         11   -1    0    0    0    0 -0.00000000000E+00 -0.00000000000E+00 -0.18250000000E+03  0.18250000000E+03  0.00000000000E+00 0. -1.
        -11    1    1    2    0    0 -0.53921502506E+00 -0.30947804808E+01  0.16028330069E+03  0.16031408204E+03  0.00000000000E+00 0. -1.
         11    1    1    2    0    0 -0.51263646863E+01 -0.22703531517E+01 -0.17542357281E+03  0.17551314485E+03  0.00000000000E+00 0. -1.
        -15    1    1    2    0    0 -0.33866867358E+01  0.59164093880E+01  0.18137295113E+02  0.19457460012E+02  0.17770000000E+01 0.  1.
         15    1    1    2    0    0  0.90522664472E+01 -0.55127575545E+00 -0.29970229903E+01  0.97153130981E+01  0.17770000000E+01 0. -1.
</event>
<event>
 6    1  0.1108180E-002  0.1739774E+03  0.7546771E-02  0.1075449E+00
        -11   -1    0    0    0    0  0.00000000000E+00  0.00000000000E+00  0.18250000000E+03  0.18250000000E+03  0.00000000000E+00 0.  1.
         11   -1    0    0    0    0 -0.00000000000E+00 -0.00000000000E+00 -0.18250000000E+03  0.18250000000E+03  0.00000000000E+00 0. -1.
        -11    1    1    2    0    0  0.57668425885E+01 -0.12193256074E+00  0.17455964368E+03  0.17465491846E+03  0.00000000000E+00 0.  1.
         11    1    1    2    0    0  0.58748694311E+00 -0.25299844217E+01 -0.17335072621E+03  0.17337018267E+03  0.00000000000E+00 0. -1.
        -15    1    1    2    0    0 -0.63316973419E+01  0.19196222445E+01 -0.76405949594E+01  0.10262151876E+02  0.17770000000E+01 0. -1.
         15    1    1    2    0    0 -0.22632189660E-01  0.73229473793E+00  0.64316774891E+01  0.67127469878E+01  0.17770000000E+01 0.  1.
</event>
<event>
 6    1  0.1108180E-002  0.1883829E+03  0.7546771E-02  0.1063866E+00
        -11   -1    0    0    0    0  0.00000000000E+00  0.00000000000E+00  0.18250000000E+03  0.18250000000E+03  0.00000000000E+00 0. -1.
         11   -1    0    0    0    0 -0.00000000000E+00 -0.00000000000E+00 -0.18250000000E+03  0.18250000000E+03  0.00000000000E+00 0. -1.
        -11    1    1    2    0    0  0.50624838075E+01 -0.13603754927E+00  0.16751079799E+03  0.16758733452E+03  0.00000000000E+00 0. -1.
         11    1    1    2    0    0  0.18594804764E+01  0.36353371622E+01 -0.17656985424E+03  0.17661706251E+03  0.00000000000E+00 0. -1.
        -15    1    1    2    0    0  0.12975176748E+01  0.53933098371E+01  0.55926304918E+01  0.80750596241E+01  0.17770000000E+01 0.  1.
         15    1    1    2    0    0 -0.82194819587E+01 -0.88926094500E+01  0.34664257516E+01  0.12720543345E+02  0.17770000000E+01 0. -1.
</event>
<event>
 6    1  0.1108180E-002  0.1726339E+03  0.7546771E-02  0.1076591E+00
        -11   -1    0    0    0    0  0.00000000000E+00  0.00000000000E+00  0.18250000000E+03  0.18250000000E+03  0.00000000000E+00 0. -1.
         11   -1    0    0    0    0 -0.00000000000E+00 -0.00000000000E+00 -0.18250000000E+03  0.18250000000E+03  0.00000000000E+00 0. -1.
        -11    1    1    2    0    0  0.66031380390E+01  0.97660572469E+01  0.17547367054E+03  0.17586923084E+03  0.00000000000E+00 0. -1.
         11    1    1    2    0    0  0.44971303961E+01 -0.77322427863E+01 -0.16940029829E+03  0.16963629571E+03  0.00000000000E+00 0. -1.
        -15    1    1    2    0    0 -0.80345548958E+01 -0.65842170091E+01  0.74387297475E+00  0.10564897633E+02  0.17770000000E+01 0.  1.
         15    1    1    2    0    0 -0.30657135392E+01  0.45504025485E+01 -0.68172452174E+01  0.89295758136E+01  0.17770000000E+01 0. -1.
</event>
<event>
 6    1  0.1108180E-002  0.1995128E+03  0.7546771E-02  0.1055665E+00
        -11   -1    0    0    0    0  0.00000000000E+00  0.00000000000E+00  0.18250000000E+03  0.18250000000E+03  0.00000000000E+00 0. -1.
         11   -1    0    0    0    0 -0.00000000000E+00 -0.00000000000E+00 -0.18250000000E+03  0.18250000000E+03  0.00000000000E+00 0. -1.
        -11    1    1    2    0    0 -0.13388348065E+02 -0.97515773151E+01  0.16465626635E+03  0.16548724172E+03  0.00000000000E+00 0. -1.
         11    1    1    2    0    0  0.81532700107E+00  0.58685558190E+01 -0.77730546424E+02  0.77956029612E+02  0.00000000000E+00 0. -1.
        -15    1    1    2    0    0 -0.22816284623E+02 -0.28593824908E+02 -0.32742325643E+02  0.49126441805E+02  0.17770000000E+01 0.  1.
         15    1    1    2    0    0  0.35389305687E+02  0.32476846404E+02 -0.54183394285E+02  0.72430286860E+02  0.17770000000E+01 0. -1.
</event>
<event>
 6    1  0.1108180E-002  0.1836127E+03  0.7546771E-02  0.1067573E+00
        -11   -1    0    0    0    0  0.00000000000E+00  0.00000000000E+00  0.18250000000E+03  0.18250000000E+03  0.00000000000E+00 0. -1.
         11   -1    0    0    0    0 -0.00000000000E+00 -0.00000000000E+00 -0.18250000000E+03  0.18250000000E+03  0.00000000000E+00 0. -1.
        -11    1    1    2    0    0 -0.81139071875E+00  0.27721806272E+01  0.14999628501E+03  0.15002409425E+03  0.00000000000E+00 0. -1.
         11    1    1    2    0    0  0.13827614727E+01 -0.53686981434E+01 -0.18130258610E+03  0.18138732777E+03  0.00000000000E+00 0. -1.
        -15    1    1    2    0    0  0.22888235547E+01 -0.20216357303E+01  0.24259150292E+02  0.24515093844E+02  0.17770000000E+01 0. -1.
         15    1    1    2    0    0 -0.28601943086E+01  0.46181532465E+01  0.70471508029E+01  0.90734841340E+01  0.17770000000E+01 0. -1.
</event>
<event>
 6    1  0.1108180E-002  0.1827827E+03  0.7546771E-02  0.1068230E+00
        -11   -1    0    0    0    0  0.00000000000E+00  0.00000000000E+00  0.18250000000E+03  0.18250000000E+03  0.00000000000E+00 0. -1.
         11   -1    0    0    0    0 -0.00000000000E+00 -0.00000000000E+00 -0.18250000000E+03  0.18250000000E+03  0.00000000000E+00 0. -1.
        -11    1    1    2    0    0  0.13503366165E+00 -0.29900388893E+01  0.18219270355E+03  0.18221728731E+03  0.00000000000E+00 0. -1.
         11    1    1    2    0    0 -0.21369325413E+01  0.77757261304E+00 -0.14794495860E+03  0.14796243400E+03  0.00000000000E+00 0. -1.
        -15    1    1    2    0    0  0.18896395135E+01  0.12108785834E+01 -0.29665032673E+02  0.29802833035E+02  0.17770000000E+01 0. -1.
         15    1    1    2    0    0  0.11225936622E+00  0.10015876929E+01 -0.45827122755E+01  0.50174456521E+01  0.17770000000E+01 0.  1.
</event>
<event>
 6    1  0.1108180E-002  0.1887499E+03  0.7546771E-02  0.1063586E+00
        -11   -1    0    0    0    0  0.00000000000E+00  0.00000000000E+00  0.18250000000E+03  0.18250000000E+03  0.00000000000E+00 0.  1.
         11   -1    0    0    0    0 -0.00000000000E+00 -0.00000000000E+00 -0.18250000000E+03  0.18250000000E+03  0.00000000000E+00 0.  1.
        -11    1    1    2    0    0 -0.96038101447E+01  0.50999943530E+01  0.17591433158E+03  0.17625009268E+03  0.00000000000E+00 0.  1.
         11    1    1    2    0    0  0.38406834626E+01 -0.33573044096E+00 -0.16015537223E+03  0.16020176908E+03  0.00000000000E+00 0.  1.
        -15    1    1    2    0    0 -0.59223041105E+01 -0.56889595138E+01  0.50994168674E+00  0.84175837299E+01  0.17770000000E+01 0.  1.
         15    1    1    2    0    0  0.11685430793E+02  0.92469560169E+00 -0.16268901043E+02  0.20130554511E+02  0.17770000000E+01 0. -1.
</event>
<event>
 6    1  0.1108180E-002  0.1868787E+03  0.7546771E-02  0.1065022E+00
        -11   -1    0    0    0    0  0.00000000000E+00  0.00000000000E+00  0.18250000000E+03  0.18250000000E+03  0.00000000000E+00 0. -1.
         11   -1    0    0    0    0 -0.00000000000E+00 -0.00000000000E+00 -0.18250000000E+03  0.18250000000E+03  0.00000000000E+00 0. -1.
        -11    1    1    2    0    0 -0.45733259395E+01 -0.22176797473E+01  0.17804881683E+03  0.17812134793E+03  0.00000000000E+00 0. -1.
         11    1    1    2    0    0 -0.21454316732E+00  0.34356628530E+01 -0.15345668036E+03  0.15349528512E+03  0.00000000000E+00 0. -1.
        -15    1    1    2    0    0  0.11909413061E+02  0.21510512747E+01 -0.71651779191E+01  0.14175988314E+02  0.17770000000E+01 0. -1.
         15    1    1    2    0    0 -0.71215439547E+01 -0.33690343803E+01 -0.17426958546E+02  0.19207378637E+02  0.17770000000E+01 0. -1.
</event>
<event>
 6    1  0.1108180E-002  0.1900808E+03  0.7546771E-02  0.1062576E+00
        -11   -1    0    0    0    0  0.00000000000E+00  0.00000000000E+00  0.18250000000E+03  0.18250000000E+03  0.00000000000E+00 0.  1.
         11   -1    0    0    0    0 -0.00000000000E+00 -0.00000000000E+00 -0.18250000000E+03  0.18250000000E+03  0.00000000000E+00 0.  1.
        -11    1    1    2    0    0  0.19525604257E+01 -0.40559790717E+01  0.13565048773E+03  0.13572515714E+03  0.00000000000E+00 0.  1.
         11    1    1    2    0    0 -0.54303023045E+01  0.58428613093E+01 -0.17473722375E+03  0.17491919441E+03  0.00000000000E+00 0.  1.
        -15    1    1    2    0    0  0.53243689877E+01  0.29816669248E+01  0.45512085630E+02  0.45953747509E+02  0.17770000000E+01 0.  1.
         15    1    1    2    0    0 -0.18466271088E+01 -0.47685491624E+01 -0.64253496101E+01  0.84019009400E+01  0.17770000000E+01 0. -1.
</event>
<event>
 6    1  0.1108180E-002  0.1831973E+03  0.7546771E-02  0.1067901E+00
        -11   -1    0    0    0    0  0.00000000000E+00  0.00000000000E+00  0.18250000000E+03  0.18250000000E+03  0.00000000000E+00 0.  1.
         11   -1    0    0    0    0 -0.00000000000E+00 -0.00000000000E+00 -0.18250000000E+03  0.18250000000E+03  0.00000000000E+00 0.  1.
        -11    1    1    2    0    0 -0.24443261978E+01  0.48032670876E+01  0.16314680410E+03  0.16323579813E+03  0.00000000000E+00 0.  1.
         11    1    1    2    0    0  0.43328351456E+01 -0.64763068833E+00 -0.18174988597E+03  0.18180267857E+03  0.00000000000E+00 0.  1.
        -15    1    1    2    0    0  0.13201561302E+01 -0.19214173342E+01  0.69903929516E+01  0.75801041812E+01  0.17770000000E+01 0.  1.
         15    1    1    2    0    0 -0.32086650779E+01 -0.22342190651E+01  0.11612688920E+02  0.12381419118E+02  0.17770000000E+01 0.  1.
</event>
<event>
 6    1  0.1108180E-002  0.1827311E+03  0.7546771E-02  0.1068271E+00
        -11   -1    0    0    0    0  0.00000000000E+00  0.00000000000E+00  0.18250000000E+03  0.18250000000E+03  0.00000000000E+00 0. -1.
         11   -1    0    0    0    0 -0.00000000000E+00 -0.00000000000E+00 -0.18250000000E+03  0.18250000000E+03  0.00000000000E+00 0.  1.
        -11    1    1    2    0    0 -0.43004297791E+00 -0.49061829254E+00  0.27935664528E+02  0.27943281767E+02  0.00000000000E+00 0. -1.
         11    1    1    2    0    0 -0.14286475764E+01  0.62434910114E+01 -0.18215629933E+03  0.18226886623E+03  0.00000000000E+00 0.  1.
        -15    1    1    2    0    0  0.17321189361E+01 -0.31285147191E+01  0.14744710284E+02  0.15275864975E+02  0.17770000000E+01 0.  1.
         15    1    1    2    0    0  0.12657161815E+00 -0.26243579998E+01  0.13947592451E+03  0.13951198702E+03  0.17770000000E+01 0. -1.
</event>
<event>
 6    1  0.1108180E-002  0.1860152E+03  0.7546771E-02  0.1065691E+00
        -11   -1    0    0    0    0  0.00000000000E+00  0.00000000000E+00  0.18250000000E+03  0.18250000000E+03  0.00000000000E+00 0.  1.
         11   -1    0    0    0    0 -0.00000000000E+00 -0.00000000000E+00 -0.18250000000E+03  0.18250000000E+03  0.00000000000E+00 0.  1.
        -11    1    1    2    0    0 -0.30889596836E+01 -0.24993121712E+01  0.17160721316E+03  0.17165320807E+03  0.00000000000E+00 0.  1.
         11    1    1    2    0    0 -0.33248964499E+01  0.23451444932E+01 -0.17893858758E+03  0.17898483948E+03  0.00000000000E+00 0.  1.
        -15    1    1    2    0    0  0.60956583363E+01  0.28948591083E+01  0.76354197952E+00  0.70198280011E+01  0.17770000000E+01 0. -1.
         15    1    1    2    0    0  0.31819779712E+00 -0.27406914304E+01  0.65678324441E+01  0.73421244452E+01  0.17770000000E+01 0.  1.
</event>
<event>
 6    1  0.1108180E-002  0.1854548E+03  0.7546771E-02  0.1066127E+00
        -11   -1    0    0    0    0  0.00000000000E+00  0.00000000000E+00  0.18250000000E+03  0.18250000000E+03  0.00000000000E+00 0.  1.
         11   -1    0    0    0    0 -0.00000000000E+00 -0.00000000000E+00 -0.18250000000E+03  0.18250000000E+03  0.00000000000E+00 0. -1.
        -11    1    1    2    0    0  0.14925236811E+00  0.24632209668E+01  0.17952822887E+03  0.17954518845E+03  0.00000000000E+00 0.  1.
         11    1    1    2    0    0 -0.75942569984E+00 -0.23950832262E+01 -0.17805182814E+03  0.17806955567E+03  0.00000000000E+00 0. -1.
        -15    1    1    2    0    0  0.11834952016E+01 -0.12986400142E+01 -0.35461593292E+01  0.43382141218E+01  0.17770000000E+01 0.  1.
         15    1    1    2    0    0 -0.57332186984E+00  0.12305022736E+01  0.20697586047E+01  0.30470417610E+01  0.17770000000E+01 0. -1.
</event>
<event>
 6    1  0.1108180E-002  0.1853955E+03  0.7546771E-02  0.1066173E+00
        -11   -1    0    0    0    0  0.00000000000E+00  0.00000000000E+00  0.18250000000E+03  0.18250000000E+03  0.00000000000E+00 0. -1.
         11   -1    0    0    0    0 -0.00000000000E+00 -0.00000000000E+00 -0.18250000000E+03  0.18250000000E+03  0.00000000000E+00 0. -1.
        -11    1    1    2    0    0 -0.37694305805E+01 -0.75253258997E+01  0.17940716451E+03  0.17960448161E+03  0.00000000000E+00 0. -1.
         11    1    1    2    0    0  0.19511204425E+01  0.17091117340E+01 -0.13859305943E+03  0.13861732956E+03  0.00000000000E+00 0. -1.
        -15    1    1    2    0    0  0.83264849182E+00  0.18466892054E+01  0.22336501157E+01  0.35000694810E+01  0.17770000000E+01 0.  1.
         15    1    1    2    0    0  0.98566164611E+00  0.39695249604E+01 -0.43047755200E+02  0.43278119345E+02  0.17770000000E+01 0. -1.
</event>
<event>
 6    1  0.1108180E-002  0.1833792E+03  0.7546771E-02  0.1067757E+00
        -11   -1    0    0    0    0  0.00000000000E+00  0.00000000000E+00  0.18250000000E+03  0.18250000000E+03  0.00000000000E+00 0.  1.
         11   -1    0    0    0    0 -0.00000000000E+00 -0.00000000000E+00 -0.18250000000E+03  0.18250000000E+03  0.00000000000E+00 0.  1.
        -11    1    1    2    0    0 -0.49870496649E+01 -0.55565284481E+01  0.18146725258E+03  0.18162078469E+03  0.00000000000E+00 0.  1.
         11    1    1    2    0    0  0.16056479568E+01 -0.60206672867E+00 -0.12551722797E+03  0.12552894131E+03  0.00000000000E+00 0.  1.
        -15    1    1    2    0    0  0.31381973851E+01  0.36812469082E+01 -0.64502730440E+01  0.82561257845E+01  0.17770000000E+01 0.  1.
         15    1    1    2    0    0  0.24320432304E+00  0.24773482686E+01 -0.49499751564E+02  0.49594148210E+02  0.17770000000E+01 0. -1.
</event>
<event>
 6    1  0.1108180E-002  0.1828091E+03  0.7546771E-02  0.1068209E+00
        -11   -1    0    0    0    0  0.00000000000E+00  0.00000000000E+00  0.18250000000E+03  0.18250000000E+03  0.00000000000E+00 0. -1.
         11   -1    0    0    0    0 -0.00000000000E+00 -0.00000000000E+00 -0.18250000000E+03  0.18250000000E+03  0.00000000000E+00 0.  1.
        -11    1    1    2    0    0  0.23587734213E+01 -0.73439311206E+00  0.13986758001E+03  0.13988939589E+03  0.00000000000E+00 0. -1.
         11    1    1    2    0    0  0.16188589926E+01  0.30884561433E+01 -0.18215755770E+03  0.18219093032E+03  0.00000000000E+00 0.  1.
        -15    1    1    2    0    0 -0.48175883727E+00  0.10603408378E+01  0.12004905138E+02  0.12191467945E+02  0.17770000000E+01 0. -1.
         15    1    1    2    0    0 -0.34958735767E+01 -0.34144038690E+01  0.30285072551E+02  0.30728205842E+02  0.17770000000E+01 0.  1.
</event>
<event>
 6    1  0.1108180E-002  0.1838665E+03  0.7546771E-02  0.1067372E+00
        -11   -1    0    0    0    0  0.00000000000E+00  0.00000000000E+00  0.18250000000E+03  0.18250000000E+03  0.00000000000E+00 0. -1.
         11   -1    0    0    0    0 -0.00000000000E+00 -0.00000000000E+00 -0.18250000000E+03  0.18250000000E+03  0.00000000000E+00 0.  1.
        -11    1    1    2    0    0 -0.25630964647E+01 -0.90035876717E+00  0.18111313688E+03  0.18113351004E+03  0.00000000000E+00 0. -1.
         11    1    1    2    0    0  0.40176142305E+01  0.36403892360E+01 -0.17378820030E+03  0.17387274721E+03  0.00000000000E+00 0.  1.
        -15    1    1    2    0    0  0.15179716803E+01  0.69525457143E-01 -0.24409803981E+01  0.33801162872E+01  0.17770000000E+01 0. -1.
         15    1    1    2    0    0 -0.29724894461E+01 -0.28095559260E+01 -0.48839561822E+01  0.66136264635E+01  0.17770000000E+01 0. -1.
</event>
<event>
 6    1  0.1108180E-002  0.1836376E+03  0.7546771E-02  0.1067553E+00
        -11   -1    0    0    0    0  0.00000000000E+00  0.00000000000E+00  0.18250000000E+03  0.18250000000E+03  0.00000000000E+00 0.  1.
         11   -1    0    0    0    0 -0.00000000000E+00 -0.00000000000E+00 -0.18250000000E+03  0.18250000000E+03  0.00000000000E+00 0. -1.
        -11    1    1    2    0    0  0.48392323154E+01 -0.13283812498E+01  0.18129291594E+03  0.18136235590E+03  0.00000000000E+00 0.  1.
         11    1    1    2    0    0 -0.30331540335E+01  0.39977356927E+00 -0.15248988231E+03  0.15252056927E+03  0.00000000000E+00 0. -1.
        -15    1    1    2    0    0 -0.10004047691E+01 -0.18408189171E+01 -0.27253837334E+02  0.27391947766E+02  0.17770000000E+01 0.  1.
         15    1    1    2    0    0 -0.80567351278E+00  0.27694265976E+01 -0.15491963006E+01  0.37251270672E+01  0.17770000000E+01 0. -1.
</event>
<event>
 6    1  0.1108180E-002  0.1746111E+03  0.7546771E-02  0.1074914E+00
        -11   -1    0    0    0    0  0.00000000000E+00  0.00000000000E+00  0.18250000000E+03  0.18250000000E+03  0.00000000000E+00 0.  1.
         11   -1    0    0    0    0 -0.00000000000E+00 -0.00000000000E+00 -0.18250000000E+03  0.18250000000E+03  0.00000000000E+00 0.  1.
        -11    1    1    2    0    0 -0.25859458891E+01 -0.27246201574E+01  0.17313368300E+03  0.17317442900E+03  0.00000000000E+00 0.  1.
         11    1    1    2    0    0 -0.19455707244E+01 -0.22543411970E+01 -0.17610016463E+03  0.17612533969E+03  0.00000000000E+00 0.  1.
        -15    1    1    2    0    0  0.63823853773E+01  0.85841973794E+01  0.11052034395E+01  0.10899655563E+02  0.17770000000E+01 0. -1.
         15    1    1    2    0    0 -0.18508687639E+01 -0.36052360250E+01  0.18612781881E+01  0.48005757437E+01  0.17770000000E+01 0.  1.
</event>
<event>
 6    1  0.1108180E-002  0.1842410E+03  0.7546771E-02  0.1067077E+00
        -11   -1    0    0    0    0  0.00000000000E+00  0.00000000000E+00  0.18250000000E+03  0.18250000000E+03  0.00000000000E+00 0.  1.
         11   -1    0    0    0    0 -0.00000000000E+00 -0.00000000000E+00 -0.18250000000E+03  0.18250000000E+03  0.00000000000E+00 0. -1.
        -11    1    1    2    0    0  0.74036493422E+01 -0.31270005002E+01  0.18058026479E+03  0.18075902242E+03  0.00000000000E+00 0.  1.
         11    1    1    2    0    0  0.34527165940E+01  0.36239815966E+01 -0.16109139431E+03  0.16116914039E+03  0.00000000000E+00 0. -1.
        -15    1    1    2    0    0 -0.57937679825E+01  0.13479332654E+01 -0.70113137549E+01  0.93648769930E+01  0.17770000000E+01 0. -1.
         15    1    1    2    0    0 -0.50625979536E+01 -0.18449143618E+01 -0.12477556722E+02  0.13706960195E+02  0.17770000000E+01 0.  1.
</event>
<event>
 6    1  0.1108180E-002  0.1837790E+03  0.7546771E-02  0.1067441E+00
        -11   -1    0    0    0    0  0.00000000000E+00  0.00000000000E+00  0.18250000000E+03  0.18250000000E+03  0.00000000000E+00 0. -1.
         11   -1    0    0    0    0 -0.00000000000E+00 -0.00000000000E+00 -0.18250000000E+03  0.18250000000E+03  0.00000000000E+00 0.  1.
        -11    1    1    2    0    0  0.28317836991E+01 -0.55475882870E+01  0.15777185357E+03  0.15789475138E+03  0.00000000000E+00 0. -1.
         11    1    1    2    0    0  0.22680083274E+01  0.28764364040E+01 -0.18118395122E+03  0.18122097541E+03  0.00000000000E+00 0.  1.
        -15    1    1    2    0    0 -0.22175747326E+01  0.15357405815E+01  0.21672392201E+02  0.21911787913E+02  0.17770000000E+01 0.  1.
         15    1    1    2    0    0 -0.28822172939E+01  0.11354113015E+01  0.17397054479E+01  0.39724852924E+01  0.17770000000E+01 0. -1.
</event>
<event>
 6    1  0.1108180E-002  0.1911155E+03  0.7546771E-02  0.1061796E+00
        -11   -1    0    0    0    0  0.00000000000E+00  0.00000000000E+00  0.18250000000E+03  0.18250000000E+03  0.00000000000E+00 0.  1.
         11   -1    0    0    0    0 -0.00000000000E+00 -0.00000000000E+00 -0.18250000000E+03  0.18250000000E+03  0.00000000000E+00 0. -1.
        -11    1    1    2    0    0 -0.98378074492E+01 -0.35295593534E+01  0.13109786710E+03  0.13151384339E+03  0.00000000000E+00 0.  1.
         11    1    1    2    0    0 -0.84729882304E+00 -0.27358029074E+01 -0.17386092109E+03  0.17388450884E+03  0.00000000000E+00 0. -1.
        -15    1    1    2    0    0  0.38016252386E+01  0.97541537577E+01 -0.46065176920E+01  0.11574696723E+02  0.17770000000E+01 0. -1.
         15    1    1    2    0    0  0.68834810336E+01 -0.34887914969E+01  0.47369571678E+02  0.48026951051E+02  0.17770000000E+01 0.  1.
</event>
<event>
 6    1  0.1108180E-002  0.1904596E+03  0.7546771E-02  0.1062290E+00
        -11   -1    0    0    0    0  0.00000000000E+00  0.00000000000E+00  0.18250000000E+03  0.18250000000E+03  0.00000000000E+00 0.  1.
         11   -1    0    0    0    0 -0.00000000000E+00 -0.00000000000E+00 -0.18250000000E+03  0.18250000000E+03  0.00000000000E+00 0. -1.
        -11    1    1    2    0    0  0.32301952065E+01 -0.30921375756E+01  0.17448311770E+03  0.17454040746E+03  0.00000000000E+00 0.  1.
         11    1    1    2    0    0  0.33776334365E+00 -0.17832943193E+01 -0.13158156080E+03  0.13159407801E+03  0.00000000000E+00 0. -1.
        -15    1    1    2    0    0 -0.36686205237E+01  0.27165344361E+01 -0.50516165639E+02  0.50753118680E+02  0.17770000000E+01 0.  1.
         15    1    1    2    0    0  0.10066197355E+00  0.21588974588E+01  0.76146087464E+01  0.81123958503E+01  0.17770000000E+01 0. -1.
</event>
<event>
 6    1  0.1108180E-002  0.1844231E+03  0.7546771E-02  0.1066934E+00
        -11   -1    0    0    0    0  0.00000000000E+00  0.00000000000E+00  0.18250000000E+03  0.18250000000E+03  0.00000000000E+00 0. -1.
         11   -1    0    0    0    0 -0.00000000000E+00 -0.00000000000E+00 -0.18250000000E+03  0.18250000000E+03  0.00000000000E+00 0.  1.
        -11    1    1    2    0    0 -0.43257424501E+01  0.35705694306E+01  0.18048972994E+03  0.18057686348E+03  0.00000000000E+00 0. -1.
         11    1    1    2    0    0  0.99818092790E+00  0.26050579231E+01 -0.17200291204E+03  0.17202553428E+03  0.00000000000E+00 0.  1.
        -15    1    1    2    0    0  0.40816948137E+01 -0.48412400537E+01 -0.70711589769E+01  0.96569589461E+01  0.17770000000E+01 0. -1.
         15    1    1    2    0    0 -0.75413329146E+00 -0.13343872999E+01 -0.14156589145E+01  0.27406432912E+01  0.17770000000E+01 0.  1.
</event>
<event>
 6    1  0.1108180E-002  0.1842655E+03  0.7546771E-02  0.1067058E+00
        -11   -1    0    0    0    0  0.00000000000E+00  0.00000000000E+00  0.18250000000E+03  0.18250000000E+03  0.00000000000E+00 0.  1.
         11   -1    0    0    0    0 -0.00000000000E+00 -0.00000000000E+00 -0.18250000000E+03  0.18250000000E+03  0.00000000000E+00 0.  1.
        -11    1    1    2    0    0  0.11458075332E+00 -0.35881319061E+01  0.16599899122E+03  0.16603780565E+03  0.00000000000E+00 0.  1.
         11    1    1    2    0    0  0.38766888559E+00 -0.28454481622E+01 -0.18071168145E+03  0.18073449775E+03  0.00000000000E+00 0.  1.
        -15    1    1    2    0    0 -0.11682900649E+01  0.53963058693E+01  0.34277183029E+01  0.67373585681E+01  0.17770000000E+01 0.  1.
         15    1    1    2    0    0  0.66604042600E+00  0.10372741990E+01  0.11284971934E+02  0.11490338035E+02  0.17770000000E+01 0. -1.
</event>
<event>
 6    1  0.1108180E-002  0.1829641E+03  0.7546771E-02  0.1068086E+00
        -11   -1    0    0    0    0  0.00000000000E+00  0.00000000000E+00  0.18250000000E+03  0.18250000000E+03  0.00000000000E+00 0.  1.
         11   -1    0    0    0    0 -0.00000000000E+00 -0.00000000000E+00 -0.18250000000E+03  0.18250000000E+03  0.00000000000E+00 0. -1.
        -11    1    1    2    0    0  0.60261568392E+00 -0.15884561241E+01  0.57297994447E+02  0.57323175995E+02  0.00000000000E+00 0.  1.
         11    1    1    2    0    0  0.66419126140E+01  0.74765099329E+01 -0.18176101088E+03  0.18203592579E+03  0.00000000000E+00 0. -1.
        -15    1    1    2    0    0 -0.28203012398E+01 -0.41623407909E+01  0.12847276908E+02  0.13910047911E+02  0.17770000000E+01 0. -1.
         15    1    1    2    0    0 -0.44242270582E+01 -0.17257130179E+01  0.11161573952E+03  0.11173085030E+03  0.17770000000E+01 0.  1.
</event>
<event>
 6    1  0.1108180E-002  0.1832395E+03  0.7546771E-02  0.1067868E+00
        -11   -1    0    0    0    0  0.00000000000E+00  0.00000000000E+00  0.18250000000E+03  0.18250000000E+03  0.00000000000E+00 0. -1.
         11   -1    0    0    0    0 -0.00000000000E+00 -0.00000000000E+00 -0.18250000000E+03  0.18250000000E+03  0.00000000000E+00 0.  1.
        -11    1    1    2    0    0 -0.30252842143E+01  0.25059019039E+01  0.18171809332E+03  0.18176054942E+03  0.00000000000E+00 0. -1.
         11    1    1    2    0    0 -0.11881867957E+00  0.16193018187E+01 -0.10579153372E+03  0.10580399266E+03  0.00000000000E+00 0.  1.
        -15    1    1    2    0    0  0.73128702113E+01 -0.43315235864E+01 -0.28525332289E+02  0.29817653806E+02  0.17770000000E+01 0.  1.
         15    1    1    2    0    0 -0.41687673174E+01  0.20631986384E+00 -0.47401227308E+02  0.47617804108E+02  0.17770000000E+01 0. -1.
</event>
<event>
 6    1  0.1108180E-002  0.1826319E+03  0.7546771E-02  0.1068350E+00
        -11   -1    0    0    0    0  0.00000000000E+00  0.00000000000E+00  0.18250000000E+03  0.18250000000E+03  0.00000000000E+00 0. -1.
         11   -1    0    0    0    0 -0.00000000000E+00 -0.00000000000E+00 -0.18250000000E+03  0.18250000000E+03  0.00000000000E+00 0.  1.
        -11    1    1    2    0    0  0.53849417517E+01 -0.31671034114E+00  0.18228830138E+03  0.18236809678E+03  0.00000000000E+00 0. -1.
         11    1    1    2    0    0  0.22856788360E+00 -0.15001190113E+01 -0.41606640320E+02  0.41634302192E+02  0.00000000000E+00 0.  1.
        -15    1    1    2    0    0 -0.49317249674E+01  0.30381504499E+01 -0.12572805078E+03  0.12587395581E+03  0.17770000000E+01 0.  1.
         15    1    1    2    0    0 -0.68178466797E+00 -0.12213210974E+01 -0.14953610276E+02  0.15123645223E+02  0.17770000000E+01 0. -1.
</event>
<event>
 6    1  0.1108180E-002  0.2097606E+03  0.7546771E-02  0.1048614E+00
        -11   -1    0    0    0    0  0.00000000000E+00  0.00000000000E+00  0.18250000000E+03  0.18250000000E+03  0.00000000000E+00 0. -1.
         11   -1    0    0    0    0 -0.00000000000E+00 -0.00000000000E+00 -0.18250000000E+03  0.18250000000E+03  0.00000000000E+00 0.  1.
        -11    1    1    2    0    0 -0.89307439757E+01  0.24305224924E+02  0.15306454211E+03  0.15523935132E+03  0.00000000000E+00 0. -1.
         11    1    1    2    0    0 -0.38779034747E+00  0.12110344659E+01 -0.93478330684E+02  0.93486979272E+02  0.00000000000E+00 0.  1.
        -15    1    1    2    0    0  0.10714818089E+02 -0.10326934691E+02  0.25627101883E+02  0.29687690829E+02  0.17770000000E+01 0. -1.
         15    1    1    2    0    0 -0.13962837653E+01 -0.15189324699E+02 -0.85213313308E+02  0.86585978582E+02  0.17770000000E+01 0.  1.
</event>
<event>
 6    1  0.1108180E-002  0.1833873E+03  0.7546771E-02  0.1067751E+00
        -11   -1    0    0    0    0  0.00000000000E+00  0.00000000000E+00  0.18250000000E+03  0.18250000000E+03  0.00000000000E+00 0. -1.
         11   -1    0    0    0    0 -0.00000000000E+00 -0.00000000000E+00 -0.18250000000E+03  0.18250000000E+03  0.00000000000E+00 0. -1.
        -11    1    1    2    0    0 -0.84205933469E+00  0.27123387756E+01  0.18159052573E+03  0.18161273326E+03  0.00000000000E+00 0. -1.
         11    1    1    2    0    0 -0.23703784640E+01 -0.38826742333E+01 -0.13179495378E+03  0.13187343817E+03  0.00000000000E+00 0. -1.
        -15    1    1    2    0    0  0.22075622613E+01 -0.97840953631E+00 -0.19497489540E+01  0.35762922618E+01  0.17770000000E+01 0.  1.
         15    1    1    2    0    0  0.10048755375E+01  0.21487449939E+01 -0.47845823001E+02  0.47937536311E+02  0.17770000000E+01 0. -1.
</event>
<event>
 6    1  0.1108180E-002  0.1827087E+03  0.7546771E-02  0.1068289E+00
        -11   -1    0    0    0    0  0.00000000000E+00  0.00000000000E+00  0.18250000000E+03  0.18250000000E+03  0.00000000000E+00 0. -1.
         11   -1    0    0    0    0 -0.00000000000E+00 -0.00000000000E+00 -0.18250000000E+03  0.18250000000E+03  0.00000000000E+00 0. -1.
        -11    1    1    2    0    0 -0.17934698352E+01 -0.69390480791E+00  0.51099971229E+02  0.51136142772E+02  0.00000000000E+00 0. -1.
         11    1    1    2    0    0  0.49644822523E+01 -0.21923105813E+00 -0.18222357821E+03  0.18229132344E+03  0.00000000000E+00 0. -1.
        -15    1    1    2    0    0 -0.31841831528E+01  0.23874107605E+01  0.22164769291E+02  0.22589233701E+02  0.17770000000E+01 0.  1.
         15    1    1    2    0    0  0.13170735723E-01 -0.14742748945E+01  0.10895883769E+03  0.10898330009E+03  0.17770000000E+01 0. -1.
</event>
<event>
 6    1  0.1108180E-002  0.1863735E+03  0.7546771E-02  0.1065413E+00
        -11   -1    0    0    0    0  0.00000000000E+00  0.00000000000E+00  0.18250000000E+03  0.18250000000E+03  0.00000000000E+00 0. -1.
         11   -1    0    0    0    0 -0.00000000000E+00 -0.00000000000E+00 -0.18250000000E+03  0.18250000000E+03  0.00000000000E+00 0. -1.
        -11    1    1    2    0    0 -0.37355508775E+01  0.41700495964E+00  0.17858690021E+03  0.17862645146E+03  0.00000000000E+00 0. -1.
         11    1    1    2    0    0  0.16965203658E+01  0.13774349910E+01 -0.16149182394E+03  0.16150660887E+03  0.00000000000E+00 0. -1.
        -15    1    1    2    0    0  0.52316989051E+01  0.55632555869E+01 -0.14080234613E+02  0.16116178887E+02  0.17770000000E+01 0. -1.
         15    1    1    2    0    0 -0.31926683934E+01 -0.73576955375E+01 -0.30148416548E+01  0.87507607839E+01  0.17770000000E+01 0.  1.
</event>
<event>
 6    1  0.1108180E-002  0.1839435E+03  0.7546771E-02  0.1067312E+00
        -11   -1    0    0    0    0  0.00000000000E+00  0.00000000000E+00  0.18250000000E+03  0.18250000000E+03  0.00000000000E+00 0. -1.
         11   -1    0    0    0    0 -0.00000000000E+00 -0.00000000000E+00 -0.18250000000E+03  0.18250000000E+03  0.00000000000E+00 0. -1.
        -11    1    1    2    0    0 -0.15397446911E+01  0.16083678130E+01  0.16498112500E+03  0.16499614925E+03  0.00000000000E+00 0. -1.
         11    1    1    2    0    0 -0.37395901421E+00 -0.61692414741E+01 -0.18095094092E+03  0.18105646192E+03  0.00000000000E+00 0. -1.
        -15    1    1    2    0    0  0.28509305366E+01 -0.14528098959E+01  0.41426033230E+01  0.55278705494E+01  0.17770000000E+01 0. -1.
         15    1    1    2    0    0 -0.93722683130E+00  0.60136835570E+01  0.11827212594E+02  0.13419518277E+02  0.17770000000E+01 0.  1.
</event>
<event>
 6    1  0.1108180E-002  0.2009799E+03  0.7546771E-02  0.1054628E+00
        -11   -1    0    0    0    0  0.00000000000E+00  0.00000000000E+00  0.18250000000E+03  0.18250000000E+03  0.00000000000E+00 0. -1.
         11   -1    0    0    0    0 -0.00000000000E+00 -0.00000000000E+00 -0.18250000000E+03  0.18250000000E+03  0.00000000000E+00 0.  1.
        -11    1    1    2    0    0  0.57412411032E+01 -0.12631235226E+02  0.14322004574E+03  0.14389055373E+03  0.00000000000E+00 0. -1.
         11    1    1    2    0    0 -0.33240532603E+01  0.30455436133E+01 -0.16395809069E+03  0.16402006026E+03  0.00000000000E+00 0.  1.
        -15    1    1    2    0    0 -0.50534340519E+01  0.13211766819E+02  0.37251418945E+02  0.39886262304E+02  0.17770000000E+01 0. -1.
         15    1    1    2    0    0  0.26362462090E+01 -0.36260752058E+01 -0.16513373994E+02  0.17203123703E+02  0.17770000000E+01 0. -1.
</event>
<event>
 6    1  0.1108180E-002  0.1842705E+03  0.7546771E-02  0.1067054E+00
        -11   -1    0    0    0    0  0.00000000000E+00  0.00000000000E+00  0.18250000000E+03  0.18250000000E+03  0.00000000000E+00 0.  1.
         11   -1    0    0    0    0 -0.00000000000E+00 -0.00000000000E+00 -0.18250000000E+03  0.18250000000E+03  0.00000000000E+00 0. -1.
        -11    1    1    2    0    0  0.31043521174E+01  0.21122235807E+01  0.13515044000E+03  0.13520258845E+03  0.00000000000E+00 0.  1.
         11    1    1    2    0    0 -0.85523325065E-01 -0.49705655966E+01 -0.18066114872E+03  0.18072953410E+03  0.00000000000E+00 0. -1.
        -15    1    1    2    0    0 -0.27400606173E+01  0.27801305842E+00  0.45792711680E+02  0.45909861636E+02  0.17770000000E+01 0.  1.
         15    1    1    2    0    0 -0.27876817501E+00  0.25803289575E+01 -0.28200296069E+00  0.31580158160E+01  0.17770000000E+01 0. -1.
</event>
<event>
 6    1  0.1108180E-002  0.1828262E+03  0.7546771E-02  0.1068195E+00
        -11   -1    0    0    0    0  0.00000000000E+00  0.00000000000E+00  0.18250000000E+03  0.18250000000E+03  0.00000000000E+00 0.  1.
         11   -1    0    0    0    0 -0.00000000000E+00 -0.00000000000E+00 -0.18250000000E+03  0.18250000000E+03  0.00000000000E+00 0. -1.
        -11    1    1    2    0    0  0.70853849483E+01 -0.62227688364E+01  0.18192953944E+03  0.18217377104E+03  0.00000000000E+00 0.  1.
         11    1    1    2    0    0 -0.96506975634E+00 -0.66492409778E+00 -0.77564172904E+02  0.77573026253E+02  0.00000000000E+00 0. -1.
        -15    1    1    2    0    0 -0.24433028738E+01  0.85535408856E+01 -0.77357159662E+02  0.77887230472E+02  0.17770000000E+01 0. -1.
         15    1    1    2    0    0 -0.36770123181E+01 -0.16658479514E+01 -0.27008206876E+02  0.27365972240E+02  0.17770000000E+01 0.  1.
</event>
<event>
 6    1  0.1108180E-002  0.1839788E+03  0.7546771E-02  0.1067284E+00
        -11   -1    0    0    0    0  0.00000000000E+00  0.00000000000E+00  0.18250000000E+03  0.18250000000E+03  0.00000000000E+00 0. -1.
         11   -1    0    0    0    0 -0.00000000000E+00 -0.00000000000E+00 -0.18250000000E+03  0.18250000000E+03  0.00000000000E+00 0.  1.
        -11    1    1    2    0    0  0.18324331279E+01  0.47103639097E+01  0.18095063346E+03  0.18102120618E+03  0.00000000000E+00 0. -1.
         11    1    1    2    0    0  0.71458689224E+00 -0.29524916579E+01 -0.16059784437E+03  0.16062657146E+03  0.00000000000E+00 0.  1.
        -15    1    1    2    0    0 -0.11295518217E+00  0.23728043658E+01 -0.16956022239E+02  0.17213581225E+02  0.17770000000E+01 0. -1.
         15    1    1    2    0    0 -0.24340648380E+01 -0.41306766175E+01 -0.33967668466E+01  0.61386411334E+01  0.17770000000E+01 0.  1.
</event>
<event>
 6    1  0.1108180E-002  0.1848372E+03  0.7546771E-02  0.1066609E+00
        -11   -1    0    0    0    0  0.00000000000E+00  0.00000000000E+00  0.18250000000E+03  0.18250000000E+03  0.00000000000E+00 0.  1.
         11   -1    0    0    0    0 -0.00000000000E+00 -0.00000000000E+00 -0.18250000000E+03  0.18250000000E+03  0.00000000000E+00 0.  1.
        -11    1    1    2    0    0 -0.93968306519E+00  0.59539972550E+01  0.18006190863E+03  0.18016277093E+03  0.00000000000E+00 0.  1.
         11    1    1    2    0    0 -0.15395850993E+01 -0.13583306032E+01 -0.10159994999E+03  0.10162069289E+03  0.00000000000E+00 0.  1.
        -15    1    1    2    0    0 -0.24838555075E+01  0.32717910789E+01 -0.71049263989E+02  0.71190096204E+02  0.17770000000E+01 0.  1.
         15    1    1    2    0    0  0.49631236720E+01 -0.78674577308E+01 -0.74126946474E+01  0.12026439983E+02  0.17770000000E+01 0.  1.
</event>
<event>
 6    1  0.1108180E-002  0.1841693E+03  0.7546771E-02  0.1067134E+00
        -11   -1    0    0    0    0  0.00000000000E+00  0.00000000000E+00  0.18250000000E+03  0.18250000000E+03  0.00000000000E+00 0. -1.
         11   -1    0    0    0    0 -0.00000000000E+00 -0.00000000000E+00 -0.18250000000E+03  0.18250000000E+03  0.00000000000E+00 0. -1.
        -11    1    1    2    0    0 -0.13815218424E+01 -0.55349827422E+01  0.18074065618E+03  0.18083066508E+03  0.00000000000E+00 0. -1.
         11    1    1    2    0    0  0.18730257130E+01 -0.23200969997E+01 -0.15830495031E+03  0.15833302994E+03  0.00000000000E+00 0. -1.
        -15    1    1    2    0    0  0.66716131230E+00  0.57810888985E+00  0.17210496512E+00  0.19916483686E+01  0.17770000000E+01 0. -1.
         15    1    1    2    0    0 -0.11586651829E+01  0.72769708520E+01 -0.22607810829E+02  0.23844656619E+02  0.17770000000E+01 0.  1.
</event>
<event>
 6    1  0.1108180E-002  0.1857989E+03  0.7546771E-02  0.1065859E+00
        -11   -1    0    0    0    0  0.00000000000E+00  0.00000000000E+00  0.18250000000E+03  0.18250000000E+03  0.00000000000E+00 0. -1.
         11   -1    0    0    0    0 -0.00000000000E+00 -0.00000000000E+00 -0.18250000000E+03  0.18250000000E+03  0.00000000000E+00 0. -1.
        -11    1    1    2    0    0 -0.35823819547E+01  0.28664427224E+01  0.17914238300E+03  0.17920112539E+03  0.00000000000E+00 0. -1.
         11    1    1    2    0    0 -0.70168504135E+00 -0.67382157430E+01 -0.16763287146E+03  0.16776970974E+03  0.00000000000E+00 0. -1.
        -15    1    1    2    0    0  0.24272009963E+01 -0.16925615179E+01  0.14107372129E+01  0.37288037831E+01  0.17770000000E+01 0.  1.
         15    1    1    2    0    0  0.18568659997E+01  0.55643345385E+01 -0.12920248753E+02  0.14300361080E+02  0.17770000000E+01 0. -1.
</event>
<event>
 6    1  0.1108180E-002  0.1845977E+03  0.7546771E-02  0.1066797E+00
        -11   -1    0    0    0    0  0.00000000000E+00  0.00000000000E+00  0.18250000000E+03  0.18250000000E+03  0.00000000000E+00 0. -1.
         11   -1    0    0    0    0 -0.00000000000E+00 -0.00000000000E+00 -0.18250000000E+03  0.18250000000E+03  0.00000000000E+00 0.  1.
        -11    1    1    2    0    0 -0.18693433378E+01  0.39346720223E+01  0.15565896146E+03  0.15571990358E+03  0.00000000000E+00 0. -1.
         11    1    1    2    0    0 -0.27059674653E+01  0.54979245554E+00 -0.18038115919E+03  0.18040229245E+03  0.00000000000E+00 0.  1.
        -15    1    1    2    0    0  0.11544473466E+01  0.95105134027E-01  0.22331528838E+02  0.22432046338E+02  0.17770000000E+01 0. -1.
         15    1    1    2    0    0  0.34208634565E+01 -0.45795696118E+01  0.23906688923E+01  0.64457576258E+01  0.17770000000E+01 0.  1.
</event>
<event>
 6    1  0.1108180E-002  0.1855678E+03  0.7546771E-02  0.1066039E+00
        -11   -1    0    0    0    0  0.00000000000E+00  0.00000000000E+00  0.18250000000E+03  0.18250000000E+03  0.00000000000E+00 0.  1.
         11   -1    0    0    0    0 -0.00000000000E+00 -0.00000000000E+00 -0.18250000000E+03  0.18250000000E+03  0.00000000000E+00 0.  1.
        -11    1    1    2    0    0  0.76388165484E+01 -0.48438998193E+01  0.16718958374E+03  0.16743408194E+03  0.00000000000E+00 0.  1.
         11    1    1    2    0    0  0.31469738798E+01  0.40321712466E+01 -0.17935926213E+03  0.17943217872E+03  0.00000000000E+00 0.  1.
        -15    1    1    2    0    0 -0.83617124657E+01  0.29653622169E+00  0.12412861171E+02  0.15074581936E+02  0.17770000000E+01 0. -1.
         15    1    1    2    0    0 -0.24240779625E+01  0.51519235106E+00 -0.24318278144E+00  0.30591573990E+01  0.17770000000E+01 0.  1.
</event>
<event>
 6    1  0.1108180E-002  0.1842031E+03  0.7546771E-02  0.1067107E+00
        -11   -1    0    0    0    0  0.00000000000E+00  0.00000000000E+00  0.18250000000E+03  0.18250000000E+03  0.00000000000E+00 0.  1.
         11   -1    0    0    0    0 -0.00000000000E+00 -0.00000000000E+00 -0.18250000000E+03  0.18250000000E+03  0.00000000000E+00 0. -1.
        -11    1    1    2    0    0 -0.32159242850E+01 -0.17422565921E+01  0.18075985299E+03  0.18079685307E+03  0.00000000000E+00 0.  1.
         11    1    1    2    0    0 -0.27054482540E+01  0.18972943903E+01 -0.16367157787E+03  0.16370493144E+03  0.00000000000E+00 0. -1.
        -15    1    1    2    0    0  0.54234332797E+00 -0.16045502332E+01 -0.13314116206E+02  0.13538542649E+02  0.17770000000E+01 0. -1.
         15    1    1    2    0    0  0.53790292111E+01  0.14495124351E+01 -0.37741589153E+01  0.69596728422E+01  0.17770000000E+01 0. -1.
</event>
<event>
 6    1  0.1108180E-002  0.1828670E+03  0.7546771E-02  0.1068163E+00
        -11   -1    0    0    0    0  0.00000000000E+00  0.00000000000E+00  0.18250000000E+03  0.18250000000E+03  0.00000000000E+00 0. -1.
         11   -1    0    0    0    0 -0.00000000000E+00 -0.00000000000E+00 -0.18250000000E+03  0.18250000000E+03  0.00000000000E+00 0.  1.
        -11    1    1    2    0    0  0.13223850484E+01 -0.23168903643E+01  0.18211341940E+03  0.18213295751E+03  0.00000000000E+00 0. -1.
         11    1    1    2    0    0  0.14302317817E+00  0.18185259225E+01 -0.72408242741E+02  0.72431216399E+02  0.00000000000E+00 0.  1.
        -15    1    1    2    0    0 -0.56163528915E+01  0.38555449099E+01 -0.58242596501E+02  0.58666569889E+02  0.17770000000E+01 0. -1.
         15    1    1    2    0    0  0.41509446649E+01 -0.33571804681E+01 -0.51462580161E+02  0.51769256206E+02  0.17770000000E+01 0.  1.
</event>
<event>
 6    1  0.1108180E-002  0.1827358E+03  0.7546771E-02  0.1068267E+00
        -11   -1    0    0    0    0  0.00000000000E+00  0.00000000000E+00  0.18250000000E+03  0.18250000000E+03  0.00000000000E+00 0. -1.
         11   -1    0    0    0    0 -0.00000000000E+00 -0.00000000000E+00 -0.18250000000E+03  0.18250000000E+03  0.00000000000E+00 0.  1.
        -11    1    1    2    0    0 -0.37718867582E-02 -0.11240003227E+01  0.55812130785E+02  0.55823447885E+02  0.00000000000E+00 0. -1.
         11    1    1    2    0    0  0.23325758643E+01 -0.19791063051E+01 -0.18223853180E+03  0.18226420451E+03  0.00000000000E+00 0.  1.
        -15    1    1    2    0    0  0.12937321264E+01  0.56804833020E+01  0.58098715906E+02  0.58417122082E+02  0.17770000000E+01 0.  1.
         15    1    1    2    0    0 -0.36225361039E+01 -0.25773766742E+01  0.68327685109E+02  0.68495225525E+02  0.17770000000E+01 0. -1.
</event>
<event>
 6    1  0.1108180E-002  0.1839950E+03  0.7546771E-02  0.1067271E+00
        -11   -1    0    0    0    0  0.00000000000E+00  0.00000000000E+00  0.18250000000E+03  0.18250000000E+03  0.00000000000E+00 0. -1.
         11   -1    0    0    0    0 -0.00000000000E+00 -0.00000000000E+00 -0.18250000000E+03  0.18250000000E+03  0.00000000000E+00 0.  1.
        -11    1    1    2    0    0  0.25805145306E+01  0.13583753489E+00  0.16958278750E+03  0.16960247440E+03  0.00000000000E+00 0. -1.
         11    1    1    2    0    0 -0.34599384987E+01 -0.15829993813E+00 -0.18097189659E+03  0.18100503746E+03  0.00000000000E+00 0.  1.
        -15    1    1    2    0    0 -0.24195390762E+01 -0.75025437586E+00  0.97517190304E+01  0.10230875037E+02  0.17770000000E+01 0. -1.
         15    1    1    2    0    0  0.32989630442E+01  0.77271677910E+00  0.16373900589E+01  0.41616130999E+01  0.17770000000E+01 0. -1.
</event>
<event>
 6    1  0.1108180E-002  0.1829734E+03  0.7546771E-02  0.1068079E+00
        -11   -1    0    0    0    0  0.00000000000E+00  0.00000000000E+00  0.18250000000E+03  0.18250000000E+03  0.00000000000E+00 0.  1.
         11   -1    0    0    0    0 -0.00000000000E+00 -0.00000000000E+00 -0.18250000000E+03  0.18250000000E+03  0.00000000000E+00 0. -1.
        -11    1    1    2    0    0 -0.95930178222E+00  0.23226982776E+01  0.18200925056E+03  0.18202659827E+03  0.00000000000E+00 0.  1.
         11    1    1    2    0    0 -0.27335651241E+01  0.29384216605E+00 -0.12864650856E+03  0.12867588308E+03  0.00000000000E+00 0. -1.
        -15    1    1    2    0    0  0.11457318682E+01 -0.31667117471E+01 -0.47393479305E+02  0.47546192008E+02  0.17770000000E+01 0. -1.
         15    1    1    2    0    0  0.25471350382E+01  0.55017130348E+00 -0.59692626987E+01  0.67513266497E+01  0.17770000000E+01 0.  1.
</event>
<event>
 6    1  0.1108180E-002  0.1925728E+03  0.7546771E-02  0.1060708E+00
        -11   -1    0    0    0    0  0.00000000000E+00  0.00000000000E+00  0.18250000000E+03  0.18250000000E+03  0.00000000000E+00 0.  1.
         11   -1    0    0    0    0 -0.00000000000E+00 -0.00000000000E+00 -0.18250000000E+03  0.18250000000E+03  0.00000000000E+00 0. -1.
        -11    1    1    2    0    0 -0.15296351760E+00  0.10565778934E+01  0.40468169012E+02  0.40482248676E+02  0.00000000000E+00 0.  1.
         11    1    1    2    0    0  0.19288459156E+02 -0.75326744055E+01 -0.17117930255E+03  0.17242720047E+03  0.00000000000E+00 0. -1.
        -15    1    1    2    0    0  0.29014628605E+01 -0.68394016166E+01  0.12553591046E+03  0.12576811379E+03  0.17770000000E+01 0.  1.
         15    1    1    2    0    0 -0.22036958499E+02  0.13315498129E+02  0.51752230759E+01  0.26322437067E+02  0.17770000000E+01 0. -1.
</event>
<event>
 6    1  0.1108180E-002  0.1827796E+03  0.7546771E-02  0.1068232E+00
        -11   -1    0    0    0    0  0.00000000000E+00  0.00000000000E+00  0.18250000000E+03  0.18250000000E+03  0.00000000000E+00 0. -1.
         11   -1    0    0    0    0 -0.00000000000E+00 -0.00000000000E+00 -0.18250000000E+03  0.18250000000E+03  0.00000000000E+00 0.  1.
        -11    1    1    2    0    0  0.40843869254E+00 -0.28505558427E+01  0.11406812875E+03  0.11410447181E+03  0.00000000000E+00 0. -1.
         11    1    1    2    0    0 -0.24887091871E+01  0.11375119722E+01 -0.18219984353E+03  0.18222039016E+03  0.00000000000E+00 0.  1.
        -15    1    1    2    0    0  0.18086722744E+01 -0.27302966398E+01  0.24648238012E+02  0.24928280751E+02  0.17770000000E+01 0. -1.
         15    1    1    2    0    0  0.27159822017E+00  0.44433405102E+01  0.43483476768E+02  0.43746857274E+02  0.17770000000E+01 0. -1.
</event>
<event>
 6    1  0.1108180E-002  0.1868252E+03  0.7546771E-02  0.1065063E+00
        -11   -1    0    0    0    0  0.00000000000E+00  0.00000000000E+00  0.18250000000E+03  0.18250000000E+03  0.00000000000E+00 0.  1.
         11   -1    0    0    0    0 -0.00000000000E+00 -0.00000000000E+00 -0.18250000000E+03  0.18250000000E+03  0.00000000000E+00 0.  1.
        -11    1    1    2    0    0 -0.48994550508E+01  0.54213986886E+00  0.15459940524E+03  0.15467797088E+03  0.00000000000E+00 0.  1.
         11    1    1    2    0    0 -0.63209379035E+01 -0.53880156815E+01 -0.17798115416E+03  0.17817484729E+03  0.00000000000E+00 0.  1.
        -15    1    1    2    0    0 -0.39693902955E+00 -0.27950360033E+01  0.15922425431E+02  0.16268102146E+02  0.17770000000E+01 0.  1.
         15    1    1    2    0    0  0.11617331984E+02  0.76409118160E+01  0.74593234907E+01  0.15879079688E+02  0.17770000000E+01 0. -1.
</event>
<event>
 6    1  0.1108180E-002  0.1830483E+03  0.7546771E-02  0.1068019E+00
        -11   -1    0    0    0    0  0.00000000000E+00  0.00000000000E+00  0.18250000000E+03  0.18250000000E+03  0.00000000000E+00 0.  1.
         11   -1    0    0    0    0 -0.00000000000E+00 -0.00000000000E+00 -0.18250000000E+03  0.18250000000E+03  0.00000000000E+00 0.  1.
        -11    1    1    2    0    0 -0.28593914311E+01 -0.48514564570E+00  0.18192858765E+03  0.18195170373E+03  0.00000000000E+00 0.  1.
         11    1    1    2    0    0 -0.71372175326E+00  0.24942432504E+01 -0.13686487444E+03  0.13688946090E+03  0.00000000000E+00 0.  1.
        -15    1    1    2    0    0  0.19457870733E+01 -0.40137253786E+01 -0.39350080821E+02  0.39641930684E+02  0.17770000000E+01 0.  1.
         15    1    1    2    0    0  0.16273261111E+01  0.20046277739E+01 -0.57136323837E+01  0.65169046947E+01  0.17770000000E+01 0. -1.
</event>
<event>
 6    1  0.1108180E-002  0.1861834E+03  0.7546771E-02  0.1065560E+00
        -11   -1    0    0    0    0  0.00000000000E+00  0.00000000000E+00  0.18250000000E+03  0.18250000000E+03  0.00000000000E+00 0.  1.
         11   -1    0    0    0    0 -0.00000000000E+00 -0.00000000000E+00 -0.18250000000E+03  0.18250000000E+03  0.00000000000E+00 0. -1.
        -11    1    1    2    0    0  0.43806717914E+01  0.48424186416E+00  0.17356203349E+03  0.17361798365E+03  0.00000000000E+00 0.  1.
         11    1    1    2    0    0 -0.17405065681E+01 -0.43363124496E+01 -0.17875558594E+03  0.17881664484E+03  0.00000000000E+00 0. -1.
        -15    1    1    2    0    0 -0.37655494300E+00  0.58533722051E+01 -0.20097463054E+00  0.61320371492E+01  0.17770000000E+01 0. -1.
         15    1    1    2    0    0 -0.22636102804E+01 -0.20013016197E+01  0.53945270722E+01  0.64333343616E+01  0.17770000000E+01 0. -1.
</event>
<event>
 6    1  0.1108180E-002  0.1852646E+03  0.7546771E-02  0.1066275E+00
        -11   -1    0    0    0    0  0.00000000000E+00  0.00000000000E+00  0.18250000000E+03  0.18250000000E+03  0.00000000000E+00 0.  1.
         11   -1    0    0    0    0 -0.00000000000E+00 -0.00000000000E+00 -0.18250000000E+03  0.18250000000E+03  0.00000000000E+00 0.  1.
        -11    1    1    2    0    0  0.68014401757E+01  0.19447048543E+01  0.15859083627E+03  0.15874852696E+03  0.00000000000E+00 0.  1.
         11    1    1    2    0    0  0.22623031641E+01  0.90075854842E+00 -0.17971894924E+03  0.17973544475E+03  0.00000000000E+00 0.  1.
        -15    1    1    2    0    0 -0.26919544391E+01  0.45268938159E+01  0.44584475285E+01  0.71256487204E+01  0.17770000000E+01 0. -1.
         15    1    1    2    0    0 -0.63717889007E+01 -0.73723572186E+01  0.16669665448E+02  0.19390379570E+02  0.17770000000E+01 0.  1.
</event>
<event>
 6    1  0.1108180E-002  0.1828300E+03  0.7546771E-02  0.1068192E+00
        -11   -1    0    0    0    0  0.00000000000E+00  0.00000000000E+00  0.18250000000E+03  0.18250000000E+03  0.00000000000E+00 0.  1.
         11   -1    0    0    0    0 -0.00000000000E+00 -0.00000000000E+00 -0.18250000000E+03  0.18250000000E+03  0.00000000000E+00 0.  1.
        -11    1    1    2    0    0 -0.24656877421E+01  0.31682134866E+01  0.11880240950E+03  0.11887022208E+03  0.00000000000E+00 0.  1.
         11    1    1    2    0    0 -0.35542495254E+01 -0.70688630206E+00 -0.18213390576E+03  0.18216995363E+03  0.00000000000E+00 0.  1.
        -15    1    1    2    0    0  0.39487931502E+01 -0.17913430714E+01  0.20180813811E+02  0.20717742455E+02  0.17770000000E+01 0.  1.
         15    1    1    2    0    0  0.20711441173E+01 -0.66998411318E+00  0.43150682448E+02  0.43242081835E+02  0.17770000000E+01 0. -1.
</event>
<event>
 6    1  0.1108180E-002  0.1830792E+03  0.7546771E-02  0.1067995E+00
        -11   -1    0    0    0    0  0.00000000000E+00  0.00000000000E+00  0.18250000000E+03  0.18250000000E+03  0.00000000000E+00 0.  1.
         11   -1    0    0    0    0 -0.00000000000E+00 -0.00000000000E+00 -0.18250000000E+03  0.18250000000E+03  0.00000000000E+00 0. -1.
        -11    1    1    2    0    0  0.42250690759E+00 -0.27861032782E+01  0.18189896714E+03  0.18192079357E+03  0.00000000000E+00 0.  1.
         11    1    1    2    0    0  0.73615456063E+00 -0.41741657697E+01 -0.14142947473E+03  0.14149297476E+03  0.00000000000E+00 0. -1.
        -15    1    1    2    0    0 -0.15070701239E+01  0.61728484710E+01 -0.37088788297E+02  0.37671093227E+02  0.17770000000E+01 0.  1.
         15    1    1    2    0    0  0.34840865565E+00  0.78742057688E+00 -0.33807041170E+01  0.39151384500E+01  0.17770000000E+01 0. -1.
</event>
<event>
 6    1  0.1108180E-002  0.1841150E+03  0.7546771E-02  0.1067176E+00
        -11   -1    0    0    0    0  0.00000000000E+00  0.00000000000E+00  0.18250000000E+03  0.18250000000E+03  0.00000000000E+00 0.  1.
         11   -1    0    0    0    0 -0.00000000000E+00 -0.00000000000E+00 -0.18250000000E+03  0.18250000000E+03  0.00000000000E+00 0.  1.
        -11    1    1    2    0    0 -0.18890929159E+01  0.74803809273E+01  0.18072036786E+03  0.18088498039E+03  0.00000000000E+00 0.  1.
         11    1    1    2    0    0  0.18381081055E+01  0.32714892371E+01 -0.15228534436E+03  0.15233157057E+03  0.00000000000E+00 0.  1.
        -15    1    1    2    0    0  0.24473301123E+01 -0.38747344862E+01 -0.19550355644E+02  0.20158797752E+02  0.17770000000E+01 0.  1.
         15    1    1    2    0    0 -0.23963453019E+01 -0.68771356782E+01 -0.88846678503E+01  0.11624651296E+02  0.17770000000E+01 0. -1.
</event>
<event>
 6    1  0.1108180E-002  0.1849825E+03  0.7546771E-02  0.1066496E+00
        -11   -1    0    0    0    0  0.00000000000E+00  0.00000000000E+00  0.18250000000E+03  0.18250000000E+03  0.00000000000E+00 0. -1.
         11   -1    0    0    0    0 -0.00000000000E+00 -0.00000000000E+00 -0.18250000000E+03  0.18250000000E+03  0.00000000000E+00 0. -1.
        -11    1    1    2    0    0  0.51275655824E+01 -0.18882724816E+01  0.15763591926E+03  0.15773059482E+03  0.00000000000E+00 0. -1.
         11    1    1    2    0    0 -0.17517613695E+01  0.88883318457E+01 -0.17978943313E+03  0.18001753075E+03  0.00000000000E+00 0. -1.
        -15    1    1    2    0    0 -0.57996597894E+01  0.12727608150E+01  0.13751261775E+02  0.15083464561E+02  0.17770000000E+01 0.  1.
         15    1    1    2    0    0  0.24238555766E+01 -0.82728201790E+01  0.84022520946E+01  0.12168409873E+02  0.17770000000E+01 0. -1.
</event>
<event>
 6    1  0.1108180E-002  0.1899920E+03  0.7546771E-02  0.1062643E+00
        -11   -1    0    0    0    0  0.00000000000E+00  0.00000000000E+00  0.18250000000E+03  0.18250000000E+03  0.00000000000E+00 0.  1.
         11   -1    0    0    0    0 -0.00000000000E+00 -0.00000000000E+00 -0.18250000000E+03  0.18250000000E+03  0.00000000000E+00 0.  1.
        -11    1    1    2    0    0  0.23302132312E+01  0.91108454968E+00  0.13826984174E+03  0.13829247667E+03  0.00000000000E+00 0.  1.
         11    1    1    2    0    0 -0.31493996253E+01  0.17777423932E+01 -0.17497064789E+03  0.17500801898E+03  0.00000000000E+00 0.  1.
        -15    1    1    2    0    0 -0.96866460076E+00 -0.71698414406E+01  0.42958997926E+02  0.43600208362E+02  0.17770000000E+01 0.  1.
         15    1    1    2    0    0  0.17878509949E+01  0.44810144977E+01 -0.62581917795E+01  0.80992959853E+01  0.17770000000E+01 0. -1.
</event>
<event>
 6    1  0.1108180E-002  0.1827431E+03  0.7546771E-02  0.1068261E+00
        -11   -1    0    0    0    0  0.00000000000E+00  0.00000000000E+00  0.18250000000E+03  0.18250000000E+03  0.00000000000E+00 0.  1.
         11   -1    0    0    0    0 -0.00000000000E+00 -0.00000000000E+00 -0.18250000000E+03  0.18250000000E+03  0.00000000000E+00 0.  1.
        -11    1    1    2    0    0 -0.64095154841E-01 -0.33910090867E+01  0.18222530671E+03  0.18225686669E+03  0.00000000000E+00 0.  1.
         11    1    1    2    0    0  0.10722701925E+01 -0.13979985320E+01 -0.94473291379E+02  0.94489718738E+02  0.00000000000E+00 0.  1.
        -15    1    1    2    0    0  0.74212741358E+00 -0.76147492931E+00 -0.47393953228E+02  0.47439172935E+02  0.17770000000E+01 0.  1.
         15    1    1    2    0    0 -0.17503024512E+01  0.55504825480E+01 -0.40358062099E+02  0.40814241639E+02  0.17770000000E+01 0. -1.
</event>
<event>
 6    1  0.1108180E-002  0.1837186E+03  0.7546771E-02  0.1067489E+00
        -11   -1    0    0    0    0  0.00000000000E+00  0.00000000000E+00  0.18250000000E+03  0.18250000000E+03  0.00000000000E+00 0. -1.
         11   -1    0    0    0    0 -0.00000000000E+00 -0.00000000000E+00 -0.18250000000E+03  0.18250000000E+03  0.00000000000E+00 0. -1.
        -11    1    1    2    0    0 -0.61060514129E+01  0.15600710675E+02  0.18050559038E+03  0.18128136748E+03  0.00000000000E+00 0. -1.
         11    1    1    2    0    0 -0.32625109961E+00 -0.11181122000E+01 -0.60657727791E+02  0.60668909298E+02  0.00000000000E+00 0. -1.
        -15    1    1    2    0    0  0.76360283299E+01 -0.10083814940E+02 -0.11631299740E+03  0.11701223588E+03  0.17770000000E+01 0. -1.
         15    1    1    2    0    0 -0.12037258174E+01 -0.43987835347E+01 -0.35348651919E+01  0.60374873378E+01  0.17770000000E+01 0.  1.
</event>
<event>
 6    1  0.1108180E-002  0.1839563E+03  0.7546771E-02  0.1067301E+00
        -11   -1    0    0    0    0  0.00000000000E+00  0.00000000000E+00  0.18250000000E+03  0.18250000000E+03  0.00000000000E+00 0.  1.
         11   -1    0    0    0    0 -0.00000000000E+00 -0.00000000000E+00 -0.18250000000E+03  0.18250000000E+03  0.00000000000E+00 0. -1.
        -11    1    1    2    0    0  0.26064333339E+01 -0.11646192330E+01  0.17827601215E+03  0.17829886803E+03  0.00000000000E+00 0.  1.
         11    1    1    2    0    0 -0.48612390268E+00  0.25200411124E+01 -0.18102551649E+03  0.18104370893E+03  0.00000000000E+00 0. -1.
        -15    1    1    2    0    0 -0.96802481099E+00  0.49962006977E+00  0.15481997411E+01  0.25964097687E+01  0.17770000000E+01 0. -1.
         15    1    1    2    0    0 -0.11522846202E+01 -0.18550419492E+01  0.12013045954E+01  0.30610132653E+01  0.17770000000E+01 0. -1.
</event>
<event>
 6    1  0.1108180E-002  0.1880244E+03  0.7546771E-02  0.1064140E+00
        -11   -1    0    0    0    0  0.00000000000E+00  0.00000000000E+00  0.18250000000E+03  0.18250000000E+03  0.00000000000E+00 0.  1.
         11   -1    0    0    0    0 -0.00000000000E+00 -0.00000000000E+00 -0.18250000000E+03  0.18250000000E+03  0.00000000000E+00 0. -1.
        -11    1    1    2    0    0 -0.25128867182E+01  0.18485596918E+01  0.17694806232E+03  0.17697555914E+03  0.00000000000E+00 0.  1.
         11    1    1    2    0    0 -0.40330509900E+01 -0.11282678919E+01 -0.17032285566E+03  0.17037433389E+03  0.00000000000E+00 0. -1.
        -15    1    1    2    0    0 -0.35951630498E+01 -0.38707424476E+01 -0.18591238456E+01  0.58755352883E+01  0.17770000000E+01 0.  1.
         15    1    1    2    0    0  0.10141100758E+02  0.31504506478E+01 -0.47660828125E+01  0.11774571680E+02  0.17770000000E+01 0. -1.
</event>
<event>
 6    1  0.1108180E-002  0.1836278E+03  0.7546771E-02  0.1067561E+00
        -11   -1    0    0    0    0  0.00000000000E+00  0.00000000000E+00  0.18250000000E+03  0.18250000000E+03  0.00000000000E+00 0.  1.
         11   -1    0    0    0    0 -0.00000000000E+00 -0.00000000000E+00 -0.18250000000E+03  0.18250000000E+03  0.00000000000E+00 0.  1.
        -11    1    1    2    0    0 -0.33795215196E+01 -0.14136692139E+01  0.18133521332E+03  0.18137221181E+03  0.00000000000E+00 0.  1.
         11    1    1    2    0    0 -0.44937919784E+00  0.29084200760E+01 -0.49336077507E+02  0.49423773559E+02  0.00000000000E+00 0.  1.
        -15    1    1    2    0    0  0.36147773461E+01 -0.28170724463E+01 -0.44347352461E+01  0.66202052939E+01  0.17770000000E+01 0. -1.
         15    1    1    2    0    0  0.21412337127E+00  0.13223215842E+01 -0.12756440057E+03  0.12758380934E+03  0.17770000000E+01 0.  1.
</event>
<event>
 6    1  0.1108180E-002  0.1848764E+03  0.7546771E-02  0.1066579E+00
        -11   -1    0    0    0    0  0.00000000000E+00  0.00000000000E+00  0.18250000000E+03  0.18250000000E+03  0.00000000000E+00 0. -1.
         11   -1    0    0    0    0 -0.00000000000E+00 -0.00000000000E+00 -0.18250000000E+03  0.18250000000E+03  0.00000000000E+00 0. -1.
        -11    1    1    2    0    0 -0.22230580669E+01  0.25746083428E+01  0.61740201554E+02  0.61833834453E+02  0.00000000000E+00 0. -1.
         11    1    1    2    0    0 -0.11624077144E+02 -0.91883897053E+01 -0.17951317826E+03  0.18012364321E+03  0.00000000000E+00 0. -1.
        -15    1    1    2    0    0  0.14098929027E+02 -0.22157674704E+01  0.11058550624E+03  0.11151682090E+03  0.17770000000E+01 0. -1.
         15    1    1    2    0    0 -0.25179381664E+00  0.88295488328E+01  0.71874704720E+01  0.11525701432E+02  0.17770000000E+01 0.  1.
</event>
<event>
 6    1  0.1108180E-002  0.1862581E+03  0.7546771E-02  0.1065502E+00
        -11   -1    0    0    0    0  0.00000000000E+00  0.00000000000E+00  0.18250000000E+03  0.18250000000E+03  0.00000000000E+00 0.  1.
         11   -1    0    0    0    0 -0.00000000000E+00 -0.00000000000E+00 -0.18250000000E+03  0.18250000000E+03  0.00000000000E+00 0.  1.
        -11    1    1    2    0    0  0.40493062672E+01  0.38700202199E+01  0.16343547144E+03  0.16353142592E+03  0.00000000000E+00 0.  1.
         11    1    1    2    0    0 -0.65598527188E+01 -0.13190029186E+01 -0.17861659663E+03  0.17874188101E+03  0.00000000000E+00 0.  1.
        -15    1    1    2    0    0 -0.32438868303E+01 -0.75405109267E+01  0.46218947125E+01  0.95865398625E+01  0.17770000000E+01 0.  1.
         15    1    1    2    0    0  0.57544332819E+01  0.49894936253E+01  0.10559230474E+02  0.13140153204E+02  0.17770000000E+01 0. -1.
</event>
<event>
 6    1  0.1108180E-002  0.1845124E+03  0.7546771E-02  0.1066864E+00
        -11   -1    0    0    0    0  0.00000000000E+00  0.00000000000E+00  0.18250000000E+03  0.18250000000E+03  0.00000000000E+00 0.  1.
         11   -1    0    0    0    0 -0.00000000000E+00 -0.00000000000E+00 -0.18250000000E+03  0.18250000000E+03  0.00000000000E+00 0.  1.
        -11    1    1    2    0    0 -0.62363421573E+00 -0.33051781298E+01  0.18045629785E+03  0.18048764100E+03  0.00000000000E+00 0.  1.
         11    1    1    2    0    0 -0.37490897808E-01 -0.28754302181E+01 -0.15015520489E+03  0.15018273889E+03  0.00000000000E+00 0.  1.
        -15    1    1    2    0    0 -0.38310637352E+01 -0.53557044668E+00 -0.22697046062E+02  0.23092802212E+02  0.17770000000E+01 0. -1.
         15    1    1    2    0    0  0.44921888488E+01  0.67161787946E+01 -0.76040468911E+01  0.11236817894E+02  0.17770000000E+01 0.  1.
</event>
<event>
 6    1  0.1108180E-002  0.1856378E+03  0.7546771E-02  0.1065984E+00
        -11   -1    0    0    0    0  0.00000000000E+00  0.00000000000E+00  0.18250000000E+03  0.18250000000E+03  0.00000000000E+00 0. -1.
         11   -1    0    0    0    0 -0.00000000000E+00 -0.00000000000E+00 -0.18250000000E+03  0.18250000000E+03  0.00000000000E+00 0.  1.
        -11    1    1    2    0    0  0.27603787791E+01  0.81344547704E+01  0.17915643071E+03  0.17936224717E+03  0.00000000000E+00 0. -1.
         11    1    1    2    0    0 -0.44982554627E+00  0.18248502830E+01 -0.13286249690E+03  0.13287578976E+03  0.00000000000E+00 0.  1.
        -15    1    1    2    0    0 -0.11356601406E+02 -0.10416252234E+02 -0.23371717551E+02  0.28051125047E+02  0.17770000000E+01 0.  1.
         15    1    1    2    0    0  0.90460481734E+01  0.45694718035E+00 -0.22922216259E+02  0.24710838017E+02  0.17770000000E+01 0. -1.
</event>
<event>
 6    1  0.1108180E-002  0.1840622E+03  0.7546771E-02  0.1067218E+00
        -11   -1    0    0    0    0  0.00000000000E+00  0.00000000000E+00  0.18250000000E+03  0.18250000000E+03  0.00000000000E+00 0. -1.
         11   -1    0    0    0    0 -0.00000000000E+00 -0.00000000000E+00 -0.18250000000E+03  0.18250000000E+03  0.00000000000E+00 0. -1.
        -11    1    1    2    0    0  0.48884468113E+01  0.14561043679E+01  0.16924499145E+03  0.16932183641E+03  0.00000000000E+00 0. -1.
         11    1    1    2    0    0 -0.26051514199E+01  0.34350168801E+01 -0.18088639007E+03  0.18093775799E+03  0.00000000000E+00 0. -1.
        -15    1    1    2    0    0  0.44388466342E+00  0.99442428960E+00  0.14854074351E+01  0.25593119213E+01  0.17770000000E+01 0.  1.
         15    1    1    2    0    0 -0.27271800548E+01 -0.58855455376E+01  0.10155991181E+02  0.12181093678E+02  0.17770000000E+01 0.  1.
</event>
<event>
 6    1  0.1108180E-002  0.1852802E+03  0.7546771E-02  0.1066263E+00
        -11   -1    0    0    0    0  0.00000000000E+00  0.00000000000E+00  0.18250000000E+03  0.18250000000E+03  0.00000000000E+00 0. -1.
         11   -1    0    0    0    0 -0.00000000000E+00 -0.00000000000E+00 -0.18250000000E+03  0.18250000000E+03  0.00000000000E+00 0.  1.
        -11    1    1    2    0    0 -0.26682648270E+00 -0.33968860243E+01  0.16459393505E+03  0.16462919998E+03  0.00000000000E+00 0. -1.
         11    1    1    2    0    0  0.78595926588E+00 -0.25290994150E+01 -0.17970028913E+03  0.17971980411E+03  0.00000000000E+00 0.  1.
        -15    1    1    2    0    0 -0.26080712011E+01  0.73622921376E+01  0.36843869049E+01  0.88169051699E+01  0.17770000000E+01 0.  1.
         15    1    1    2    0    0  0.20889384179E+01 -0.14363066983E+01  0.11421967170E+02  0.11834090742E+02  0.17770000000E+01 0.  1.
</event>
<event>
 6    1  0.1108180E-002  0.1772810E+03  0.7546771E-02  0.1072687E+00
        -11   -1    0    0    0    0  0.00000000000E+00  0.00000000000E+00  0.18250000000E+03  0.18250000000E+03  0.00000000000E+00 0.  1.
         11   -1    0    0    0    0 -0.00000000000E+00 -0.00000000000E+00 -0.18250000000E+03  0.18250000000E+03  0.00000000000E+00 0. -1.
        -11    1    1    2    0    0 -0.12550944471E+01  0.45604123618E+01  0.17743521958E+03  0.17749825287E+03  0.00000000000E+00 0.  1.
         11    1    1    2    0    0  0.74300333812E+01 -0.67163279996E+01 -0.17684124342E+03  0.17712464491E+03  0.00000000000E+00 0. -1.
        -15    1    1    2    0    0 -0.25055014407E+01 -0.23179307712E+01  0.12557919402E+01  0.40478491729E+01  0.17770000000E+01 0. -1.
         15    1    1    2    0    0 -0.36694374935E+01  0.44738464091E+01 -0.18497680979E+01  0.63292530544E+01  0.17770000000E+01 0.  1.
</event>
<event>
 6    1  0.1108180E-002  0.1834132E+03  0.7546771E-02  0.1067730E+00
        -11   -1    0    0    0    0  0.00000000000E+00  0.00000000000E+00  0.18250000000E+03  0.18250000000E+03  0.00000000000E+00 0.  1.
         11   -1    0    0    0    0 -0.00000000000E+00 -0.00000000000E+00 -0.18250000000E+03  0.18250000000E+03  0.00000000000E+00 0.  1.
        -11    1    1    2    0    0 -0.35789914235E+01 -0.41169785490E-02  0.18155148048E+03  0.18158675409E+03  0.00000000000E+00 0.  1.
         11    1    1    2    0    0  0.33006784987E+01 -0.34577520877E+00 -0.17472801429E+03  0.17475952911E+03  0.00000000000E+00 0.  1.
        -15    1    1    2    0    0  0.47092085589E+00 -0.19330939483E+00 -0.30578947419E+00  0.18735984568E+01  0.17770000000E+01 0. -1.
         15    1    1    2    0    0 -0.19260793113E+00  0.54320158215E+00 -0.65176767238E+01  0.67801183360E+01  0.17770000000E+01 0.  1.
</event>
<event>
 6    1  0.1108180E-002  0.1908342E+03  0.7546771E-02  0.1062008E+00
        -11   -1    0    0    0    0  0.00000000000E+00  0.00000000000E+00  0.18250000000E+03  0.18250000000E+03  0.00000000000E+00 0. -1.
         11   -1    0    0    0    0 -0.00000000000E+00 -0.00000000000E+00 -0.18250000000E+03  0.18250000000E+03  0.00000000000E+00 0.  1.
        -11    1    1    2    0    0  0.48485409525E+01  0.39277330468E+01  0.17405397536E+03  0.17416578819E+03  0.00000000000E+00 0. -1.
         11    1    1    2    0    0  0.28048768090E+01 -0.83944326920E+00 -0.15969985573E+03  0.15972669131E+03  0.00000000000E+00 0.  1.
        -15    1    1    2    0    0 -0.20514513081E+01 -0.17997893846E+01  0.76400950141E+01  0.83052077110E+01  0.17770000000E+01 0. -1.
         15    1    1    2    0    0 -0.56019664534E+01 -0.12885003931E+01 -0.21994214649E+02  0.22802312787E+02  0.17770000000E+01 0.  1.
</event>
<event>
 6    1  0.1108180E-002  0.1839940E+03  0.7546771E-02  0.1067272E+00
        -11   -1    0    0    0    0  0.00000000000E+00  0.00000000000E+00  0.18250000000E+03  0.18250000000E+03  0.00000000000E+00 0. -1.
         11   -1    0    0    0    0 -0.00000000000E+00 -0.00000000000E+00 -0.18250000000E+03  0.18250000000E+03  0.00000000000E+00 0. -1.
        -11    1    1    2    0    0 -0.11638519454E+01 -0.12737983338E+01  0.63867810665E+02  0.63891113253E+02  0.00000000000E+00 0. -1.
         11    1    1    2    0    0  0.31596381021E+01 -0.78843024978E+00 -0.18097665542E+03  0.18100595223E+03  0.00000000000E+00 0. -1.
        -15    1    1    2    0    0  0.16437983881E+01  0.65789249097E-01  0.11515890564E+03  0.11518436387E+03  0.17770000000E+01 0.  1.
         15    1    1    2    0    0 -0.36395845448E+01  0.19964393345E+01  0.19499391162E+01  0.49185706493E+01  0.17770000000E+01 0.  1.
</event>
<event>
 6    1  0.1108180E-002  0.1825769E+03  0.7546771E-02  0.1068394E+00
        -11   -1    0    0    0    0  0.00000000000E+00  0.00000000000E+00  0.18250000000E+03  0.18250000000E+03  0.00000000000E+00 0.  1.
         11   -1    0    0    0    0 -0.00000000000E+00 -0.00000000000E+00 -0.18250000000E+03  0.18250000000E+03  0.00000000000E+00 0. -1.
        -11    1    1    2    0    0 -0.98690584332E+00  0.23627484648E+01  0.18240514194E+03  0.18242311359E+03  0.00000000000E+00 0.  1.
         11    1    1    2    0    0  0.27270202493E+00 -0.18086549865E+01 -0.26636481809E+02  0.26699209022E+02  0.00000000000E+00 0. -1.
        -15    1    1    2    0    0  0.13438932562E+01  0.15668308990E+01 -0.99760675076E+02  0.99797850823E+02  0.17770000000E+01 0. -1.
         15    1    1    2    0    0 -0.62968943778E+00 -0.21209243773E+01 -0.56007985057E+02  0.56079826570E+02  0.17770000000E+01 0. -1.
</event>
<event>
 6    1  0.1108180E-002  0.1828054E+03  0.7546771E-02  0.1068212E+00
        -11   -1    0    0    0    0  0.00000000000E+00  0.00000000000E+00  0.18250000000E+03  0.18250000000E+03  0.00000000000E+00 0. -1.
         11   -1    0    0    0    0 -0.00000000000E+00 -0.00000000000E+00 -0.18250000000E+03  0.18250000000E+03  0.00000000000E+00 0.  1.
        -11    1    1    2    0    0  0.84966033771E+00 -0.23091281336E+01  0.18217799321E+03  0.18219460805E+03  0.00000000000E+00 0. -1.
         11    1    1    2    0    0  0.23844613427E+01 -0.12701298405E+01 -0.11684595413E+03  0.11687718290E+03  0.00000000000E+00 0.  1.
        -15    1    1    2    0    0 -0.50070025829E+01  0.16456879221E+01 -0.46501610562E+02  0.46833063934E+02  0.17770000000E+01 0. -1.
         15    1    1    2    0    0  0.17728809025E+01  0.19335700519E+01 -0.18830428518E+02  0.19095145116E+02  0.17770000000E+01 0.  1.
</event>
<event>
 6    1  0.1108180E-002  0.1832516E+03  0.7546771E-02  0.1067858E+00
        -11   -1    0    0    0    0  0.00000000000E+00  0.00000000000E+00  0.18250000000E+03  0.18250000000E+03  0.00000000000E+00 0. -1.
         11   -1    0    0    0    0 -0.00000000000E+00 -0.00000000000E+00 -0.18250000000E+03  0.18250000000E+03  0.00000000000E+00 0.  1.
        -11    1    1    2    0    0  0.28250553480E+01 -0.23010046756E+01  0.18171183863E+03  0.18174836411E+03  0.00000000000E+00 0. -1.
         11    1    1    2    0    0  0.12132167572E+01  0.19520782746E+01 -0.16750487165E+03  0.16752063912E+03  0.00000000000E+00 0.  1.
        -15    1    1    2    0    0 -0.32570943419E+00 -0.13097914478E+01 -0.59932544497E+01  0.63951910191E+01  0.17770000000E+01 0.  1.
         15    1    1    2    0    0 -0.37125626711E+01  0.16587178489E+01 -0.82137125299E+01  0.93358057506E+01  0.17770000000E+01 0. -1.
</event>
<event>
 6    1  0.1108180E-002  0.1958203E+03  0.7546771E-02  0.1058320E+00
        -11   -1    0    0    0    0  0.00000000000E+00  0.00000000000E+00  0.18250000000E+03  0.18250000000E+03  0.00000000000E+00 0. -1.
         11   -1    0    0    0    0 -0.00000000000E+00 -0.00000000000E+00 -0.18250000000E+03  0.18250000000E+03  0.00000000000E+00 0.  1.
        -11    1    1    2    0    0  0.42695013213E+01  0.23144913483E+01  0.67819707489E+02  0.67993369056E+02  0.00000000000E+00 0. -1.
         11    1    1    2    0    0 -0.29683576931E+01 -0.42208395610E+01 -0.16910102231E+03  0.16917973395E+03  0.00000000000E+00 0.  1.
        -15    1    1    2    0    0  0.77265494801E+00 -0.84361349513E+01  0.11220474735E+03  0.11253811988E+03  0.17770000000E+01 0. -1.
         15    1    1    2    0    0 -0.20737985763E+01  0.10342483164E+02 -0.10923432532E+02  0.15288777120E+02  0.17770000000E+01 0.  1.
</event>
<event>
 6    1  0.1108180E-002  0.1906564E+03  0.7546771E-02  0.1062141E+00
        -11   -1    0    0    0    0  0.00000000000E+00  0.00000000000E+00  0.18250000000E+03  0.18250000000E+03  0.00000000000E+00 0. -1.
         11   -1    0    0    0    0 -0.00000000000E+00 -0.00000000000E+00 -0.18250000000E+03  0.18250000000E+03  0.00000000000E+00 0.  1.
        -11    1    1    2    0    0  0.59322994184E+00  0.25403281426E+01  0.17432403273E+03  0.17434355043E+03  0.00000000000E+00 0. -1.
         11    1    1    2    0    0 -0.46654683239E+01 -0.18116098420E+02 -0.11754102654E+03  0.11902038707E+03  0.00000000000E+00 0.  1.
        -15    1    1    2    0    0 -0.31730594510E+01  0.21543834149E+02 -0.58025017331E+02  0.62002140781E+02  0.17770000000E+01 0. -1.
         15    1    1    2    0    0  0.72452978331E+01 -0.59680638714E+01  0.12420111412E+01  0.96339217216E+01  0.17770000000E+01 0.  1.
</event>
<event>
 6    1  0.1108180E-002  0.2035209E+03  0.7546771E-02  0.1052854E+00
        -11   -1    0    0    0    0  0.00000000000E+00  0.00000000000E+00  0.18250000000E+03  0.18250000000E+03  0.00000000000E+00 0. -1.
         11   -1    0    0    0    0 -0.00000000000E+00 -0.00000000000E+00 -0.18250000000E+03  0.18250000000E+03  0.00000000000E+00 0.  1.
        -11    1    1    2    0    0  0.54972312562E+01  0.22400128520E+02  0.14516980346E+03  0.14699067026E+03  0.00000000000E+00 0. -1.
         11    1    1    2    0    0  0.98132702428E+01 -0.10899879953E+02 -0.16081169815E+03  0.16147913152E+03  0.00000000000E+00 0.  1.
        -15    1    1    2    0    0 -0.24974963154E+02  0.65106983841E+01  0.23116487313E+02  0.34693914347E+02  0.17770000000E+01 0.  1.
         15    1    1    2    0    0  0.96644616552E+01 -0.18010946951E+02 -0.74745926201E+01  0.21836283864E+02  0.17770000000E+01 0. -1.
</event>
<event>
 6    1  0.1108180E-002  0.1827084E+03  0.7546771E-02  0.1068289E+00
        -11   -1    0    0    0    0  0.00000000000E+00  0.00000000000E+00  0.18250000000E+03  0.18250000000E+03  0.00000000000E+00 0.  1.
         11   -1    0    0    0    0 -0.00000000000E+00 -0.00000000000E+00 -0.18250000000E+03  0.18250000000E+03  0.00000000000E+00 0. -1.
        -11    1    1    2    0    0 -0.20734622154E+01 -0.27194017741E+01  0.18225951092E+03  0.18229158980E+03  0.00000000000E+00 0.  1.
         11    1    1    2    0    0 -0.19355811216E+01  0.10482920665E+01 -0.83933867173E+02  0.83962726547E+02  0.00000000000E+00 0. -1.
        -15    1    1    2    0    0  0.47230514298E+00 -0.18194955931E+01 -0.60314024586E+02  0.60369470157E+02  0.17770000000E+01 0.  1.
         15    1    1    2    0    0  0.35367381940E+01  0.34906053007E+01 -0.38011619158E+02  0.38376213498E+02  0.17770000000E+01 0. -1.
</event>
<event>
 6    1  0.1108180E-002  0.1852125E+03  0.7546771E-02  0.1066316E+00
        -11   -1    0    0    0    0  0.00000000000E+00  0.00000000000E+00  0.18250000000E+03  0.18250000000E+03  0.00000000000E+00 0. -1.
         11   -1    0    0    0    0 -0.00000000000E+00 -0.00000000000E+00 -0.18250000000E+03  0.18250000000E+03  0.00000000000E+00 0. -1.
        -11    1    1    2    0    0  0.16852185695E+01 -0.26058382778E+01  0.17976076175E+03  0.17978754635E+03  0.00000000000E+00 0. -1.
         11    1    1    2    0    0 -0.16943412340E+01  0.18412822958E+01 -0.17895217398E+03  0.17896966694E+03  0.00000000000E+00 0. -1.
        -15    1    1    2    0    0  0.10329037588E+01  0.22095919889E+01 -0.18353150863E+01  0.35320387028E+01  0.17770000000E+01 0. -1.
         15    1    1    2    0    0 -0.10237810943E+01 -0.14450360070E+01  0.10267273138E+01  0.27107480088E+01  0.17770000000E+01 0.  1.
</event>
<event>
 6    1  0.1108180E-002  0.1828037E+03  0.7546771E-02  0.1068213E+00
        -11   -1    0    0    0    0  0.00000000000E+00  0.00000000000E+00  0.18250000000E+03  0.18250000000E+03  0.00000000000E+00 0.  1.
         11   -1    0    0    0    0 -0.00000000000E+00 -0.00000000000E+00 -0.18250000000E+03  0.18250000000E+03  0.00000000000E+00 0. -1.
        -11    1    1    2    0    0 -0.75342178381E+00  0.14171216706E+01  0.59759308385E+02  0.59780856608E+02  0.00000000000E+00 0.  1.
         11    1    1    2    0    0 -0.88006698682E+00 -0.86594853214E+01 -0.18198828511E+03  0.18219631479E+03  0.00000000000E+00 0. -1.
        -15    1    1    2    0    0 -0.37466158976E+01 -0.68856287107E+00  0.37985382628E+02  0.38217250972E+02  0.17770000000E+01 0.  1.
         15    1    1    2    0    0  0.53801046682E+01  0.79309265218E+01  0.84243594100E+02  0.84805577633E+02  0.17770000000E+01 0. -1.
</event>
<event>
 6    1  0.1108180E-002  0.1856881E+03  0.7546771E-02  0.1065945E+00
        -11   -1    0    0    0    0  0.00000000000E+00  0.00000000000E+00  0.18250000000E+03  0.18250000000E+03  0.00000000000E+00 0.  1.
         11   -1    0    0    0    0 -0.00000000000E+00 -0.00000000000E+00 -0.18250000000E+03  0.18250000000E+03  0.00000000000E+00 0. -1.
        -11    1    1    2    0    0 -0.36978121006E+01  0.65234196620E-01  0.17927372860E+03  0.17931187310E+03  0.00000000000E+00 0.  1.
         11    1    1    2    0    0  0.92502835014E+01 -0.54092317546E+01 -0.17265600000E+03  0.17298821309E+03  0.00000000000E+00 0. -1.
        -15    1    1    2    0    0  0.95305090490E+00  0.37957398830E+00 -0.41470654766E-01  0.20522746539E+01  0.17770000000E+01 0. -1.
         15    1    1    2    0    0 -0.65055223057E+01  0.49644235696E+01 -0.65762579457E+01  0.10647639148E+02  0.17770000000E+01 0.  1.
</event>
<event>
 6    1  0.1108180E-002  0.1875001E+03  0.7546771E-02  0.1064543E+00
        -11   -1    0    0    0    0  0.00000000000E+00  0.00000000000E+00  0.18250000000E+03  0.18250000000E+03  0.00000000000E+00 0.  1.
         11   -1    0    0    0    0 -0.00000000000E+00 -0.00000000000E+00 -0.18250000000E+03  0.18250000000E+03  0.00000000000E+00 0. -1.
        -11    1    1    2    0    0 -0.31657159340E+01 -0.30174032465E+01  0.17744598895E+03  0.17749987457E+03  0.00000000000E+00 0.  1.
         11    1    1    2    0    0  0.12936167025E+00 -0.49368883841E+01 -0.17045197316E+03  0.17052350206E+03  0.00000000000E+00 0. -1.
        -15    1    1    2    0    0  0.76456540535E+01  0.34014315403E+01 -0.52451337582E+01  0.10034685823E+02  0.17770000000E+01 0.  1.
         15    1    1    2    0    0 -0.46092997897E+01  0.45528600902E+01 -0.17488820332E+01  0.69419375479E+01  0.17770000000E+01 0.  1.
</event>
<event>
 6    1  0.1108180E-002  0.1837090E+03  0.7546771E-02  0.1067497E+00
        -11   -1    0    0    0    0  0.00000000000E+00  0.00000000000E+00  0.18250000000E+03  0.18250000000E+03  0.00000000000E+00 0. -1.
         11   -1    0    0    0    0 -0.00000000000E+00 -0.00000000000E+00 -0.18250000000E+03  0.18250000000E+03  0.00000000000E+00 0.  1.
        -11    1    1    2    0    0 -0.44567562780E+01 -0.12681103932E+01  0.18123178233E+03  0.18129100834E+03  0.00000000000E+00 0. -1.
         11    1    1    2    0    0  0.20815036739E+01  0.83046122312E+00 -0.15961417777E+03  0.15962990969E+03  0.00000000000E+00 0.  1.
        -15    1    1    2    0    0 -0.11759001309E+01 -0.28795827306E+01 -0.16185061405E+02  0.16576751175E+02  0.17770000000E+01 0. -1.
         15    1    1    2    0    0  0.35511527350E+01  0.33172319007E+01 -0.54325431511E+01  0.75023307924E+01  0.17770000000E+01 0.  1.
</event>
<event>
 6    1  0.1108180E-002  0.1868116E+03  0.7546771E-02  0.1065074E+00
        -11   -1    0    0    0    0  0.00000000000E+00  0.00000000000E+00  0.18250000000E+03  0.18250000000E+03  0.00000000000E+00 0. -1.
         11   -1    0    0    0    0 -0.00000000000E+00 -0.00000000000E+00 -0.18250000000E+03  0.18250000000E+03  0.00000000000E+00 0. -1.
        -11    1    1    2    0    0  0.10627501732E+01 -0.60790848694E+01  0.17808145521E+03  0.17818835372E+03  0.00000000000E+00 0. -1.
         11    1    1    2    0    0  0.20705703882E+01  0.19337788058E+01 -0.16978228117E+03  0.16980591793E+03  0.00000000000E+00 0. -1.
        -15    1    1    2    0    0 -0.17511233788E+00 -0.41214688455E+01 -0.64481585627E+01  0.78583489122E+01  0.17770000000E+01 0.  1.
         15    1    1    2    0    0 -0.29582082235E+01  0.82667749091E+01 -0.18510154774E+01  0.91473794383E+01  0.17770000000E+01 0. -1.
</event>
<event>
 6    1  0.1108180E-002  0.1899999E+03  0.7546771E-02  0.1062637E+00
        -11   -1    0    0    0    0  0.00000000000E+00  0.00000000000E+00  0.18250000000E+03  0.18250000000E+03  0.00000000000E+00 0. -1.
         11   -1    0    0    0    0 -0.00000000000E+00 -0.00000000000E+00 -0.18250000000E+03  0.18250000000E+03  0.00000000000E+00 0. -1.
        -11    1    1    2    0    0 -0.55167845818E+01 -0.49884354109E+01  0.16716132675E+03  0.16732671203E+03  0.00000000000E+00 0. -1.
         11    1    1    2    0    0  0.10273750730E+02  0.12516683125E+00 -0.17469823261E+03  0.17500010885E+03  0.00000000000E+00 0. -1.
        -15    1    1    2    0    0 -0.27713661008E+01  0.17291661523E+01  0.14289915794E+02  0.14765835840E+02  0.17770000000E+01 0.  1.
         15    1    1    2    0    0 -0.19856000473E+01  0.31341024273E+01 -0.67530099279E+01  0.79073432744E+01  0.17770000000E+01 0. -1.
</event>
<event>
 6    1  0.1108180E-002  0.1840530E+03  0.7546771E-02  0.1067225E+00
        -11   -1    0    0    0    0  0.00000000000E+00  0.00000000000E+00  0.18250000000E+03  0.18250000000E+03  0.00000000000E+00 0. -1.
         11   -1    0    0    0    0 -0.00000000000E+00 -0.00000000000E+00 -0.18250000000E+03  0.18250000000E+03  0.00000000000E+00 0.  1.
        -11    1    1    2    0    0  0.25799443283E+01 -0.25483897178E+00  0.17310680790E+03  0.17312621984E+03  0.00000000000E+00 0. -1.
         11    1    1    2    0    0 -0.33327654423E+01  0.17670102845E+01 -0.18090767790E+03  0.18094700211E+03  0.00000000000E+00 0.  1.
        -15    1    1    2    0    0 -0.27059541987E+01  0.31981293749E+00  0.42452089047E+01  0.53482703826E+01  0.17770000000E+01 0. -1.
         15    1    1    2    0    0  0.34587753128E+01 -0.18319842502E+01  0.35556610895E+01  0.55785076625E+01  0.17770000000E+01 0. -1.
</event>
<event>
 6    1  0.1108180E-002  0.1863294E+03  0.7546771E-02  0.1065447E+00
        -11   -1    0    0    0    0  0.00000000000E+00  0.00000000000E+00  0.18250000000E+03  0.18250000000E+03  0.00000000000E+00 0. -1.
         11   -1    0    0    0    0 -0.00000000000E+00 -0.00000000000E+00 -0.18250000000E+03  0.18250000000E+03  0.00000000000E+00 0.  1.
        -11    1    1    2    0    0 -0.57551596627E+00 -0.35238470790E+01  0.14136550049E+03  0.14141058463E+03  0.00000000000E+00 0. -1.
         11    1    1    2    0    0 -0.13758192628E+01 -0.56332128545E+01 -0.17857651260E+03  0.17867063782E+03  0.00000000000E+00 0.  1.
        -15    1    1    2    0    0  0.55178352220E+01  0.91446719910E+01  0.41135876898E+01  0.11582351404E+02  0.17770000000E+01 0.  1.
         15    1    1    2    0    0 -0.35664999930E+01  0.12387942491E-01  0.33097424426E+02  0.33336426148E+02  0.17770000000E+01 0.  1.
</event>
<event>
 6    1  0.1108180E-002  0.1837952E+03  0.7546771E-02  0.1067428E+00
        -11   -1    0    0    0    0  0.00000000000E+00  0.00000000000E+00  0.18250000000E+03  0.18250000000E+03  0.00000000000E+00 0.  1.
         11   -1    0    0    0    0 -0.00000000000E+00 -0.00000000000E+00 -0.18250000000E+03  0.18250000000E+03  0.00000000000E+00 0. -1.
        -11    1    1    2    0    0 -0.38775002925E+01  0.49089315313E+01  0.12537641028E+03  0.12553237381E+03  0.00000000000E+00 0.  1.
         11    1    1    2    0    0  0.24180613555E+01  0.77610956021E+00 -0.18118695856E+03  0.18120475524E+03  0.00000000000E+00 0. -1.
        -15    1    1    2    0    0  0.56744330084E+01 -0.21479473646E+01  0.84640844966E+01  0.10564626033E+02  0.17770000000E+01 0. -1.
         15    1    1    2    0    0 -0.42149940714E+01 -0.35370937269E+01  0.47346463784E+02  0.47698244924E+02  0.17770000000E+01 0.  1.
</event>
<event>
 6    1  0.1108180E-002  0.1836592E+03  0.7546771E-02  0.1067536E+00
        -11   -1    0    0    0    0  0.00000000000E+00  0.00000000000E+00  0.18250000000E+03  0.18250000000E+03  0.00000000000E+00 0. -1.
         11   -1    0    0    0    0 -0.00000000000E+00 -0.00000000000E+00 -0.18250000000E+03  0.18250000000E+03  0.00000000000E+00 0.  1.
        -11    1    1    2    0    0 -0.15127054583E+01  0.44716442130E+00  0.10968594081E+03  0.10969728276E+03  0.00000000000E+00 0. -1.
         11    1    1    2    0    0 -0.12842920752E+01 -0.64204407276E+01 -0.18122256747E+03  0.18134081291E+03  0.00000000000E+00 0.  1.
        -15    1    1    2    0    0  0.87562249800E+01  0.14731425598E+00  0.50155057266E+02  0.50944878798E+02  0.17770000000E+01 0.  1.
         15    1    1    2    0    0 -0.59592274465E+01  0.58259620503E+01  0.21381569393E+02  0.23017025531E+02  0.17770000000E+01 0. -1.
</event>
<event>
 6    1  0.1108180E-002  0.2103151E+03  0.7546771E-02  0.1048245E+00
        -11   -1    0    0    0    0  0.00000000000E+00  0.00000000000E+00  0.18250000000E+03  0.18250000000E+03  0.00000000000E+00 0. -1.
         11   -1    0    0    0    0 -0.00000000000E+00 -0.00000000000E+00 -0.18250000000E+03  0.18250000000E+03  0.00000000000E+00 0. -1.
        -11    1    1    2    0    0 -0.22211500624E+01 -0.17101046654E+01  0.11775582823E+03  0.11778918901E+03  0.00000000000E+00 0. -1.
         11    1    1    2    0    0  0.17094661281E+01  0.13043925361E+01 -0.15466994130E+03  0.15468488761E+03  0.00000000000E+00 0. -1.
        -15    1    1    2    0    0  0.15992268166E+02  0.67811257219E+01  0.60825398504E+02  0.63282091774E+02  0.17770000000E+01 0.  1.
         15    1    1    2    0    0 -0.15480584232E+02 -0.63754135926E+01 -0.23911285439E+02  0.29243831606E+02  0.17770000000E+01 0. -1.
</event>
<event>
 6    1  0.1108180E-002  0.1871287E+03  0.7546771E-02  0.1064829E+00
        -11   -1    0    0    0    0  0.00000000000E+00  0.00000000000E+00  0.18250000000E+03  0.18250000000E+03  0.00000000000E+00 0. -1.
         11   -1    0    0    0    0 -0.00000000000E+00 -0.00000000000E+00 -0.18250000000E+03  0.18250000000E+03  0.00000000000E+00 0.  1.
        -11    1    1    2    0    0  0.58338425989E+01 -0.30903780171E+00  0.17777534305E+03  0.17787130690E+03  0.00000000000E+00 0. -1.
         11    1    1    2    0    0 -0.99739177884E+00 -0.17727037847E+01 -0.10948182442E+03  0.10950071756E+03  0.00000000000E+00 0.  1.
        -15    1    1    2    0    0  0.27845369646E-01  0.33117122598E+01 -0.71377456909E+02  0.71476340822E+02  0.17770000000E+01 0.  1.
         15    1    1    2    0    0 -0.48642961897E+01 -0.12299706734E+01  0.30839382801E+01  0.61516347091E+01  0.17770000000E+01 0.  1.
</event>
<event>
 6    1  0.1108180E-002  0.1841016E+03  0.7546771E-02  0.1067187E+00
        -11   -1    0    0    0    0  0.00000000000E+00  0.00000000000E+00  0.18250000000E+03  0.18250000000E+03  0.00000000000E+00 0. -1.
         11   -1    0    0    0    0 -0.00000000000E+00 -0.00000000000E+00 -0.18250000000E+03  0.18250000000E+03  0.00000000000E+00 0.  1.
        -11    1    1    2    0    0  0.66608988982E+00 -0.40540216238E+01  0.18085170729E+03  0.18089836593E+03  0.00000000000E+00 0. -1.
         11    1    1    2    0    0  0.28857792171E+01  0.65453437221E+00 -0.17009858311E+03  0.17012431958E+03  0.00000000000E+00 0.  1.
        -15    1    1    2    0    0 -0.30442005836E+01  0.15896009883E+01 -0.10713871110E+02  0.11390291991E+02  0.17770000000E+01 0.  1.
         15    1    1    2    0    0 -0.50766852335E+00  0.18098862633E+01 -0.39253074532E-01  0.25870225008E+01  0.17770000000E+01 0. -1.
</event>
<event>
 6    1  0.1108180E-002  0.1861623E+03  0.7546771E-02  0.1065576E+00
        -11   -1    0    0    0    0  0.00000000000E+00  0.00000000000E+00  0.18250000000E+03  0.18250000000E+03  0.00000000000E+00 0. -1.
         11   -1    0    0    0    0 -0.00000000000E+00 -0.00000000000E+00 -0.18250000000E+03  0.18250000000E+03  0.00000000000E+00 0.  1.
        -11    1    1    2    0    0  0.90586922057E+00  0.24549975932E+01  0.17881857725E+03  0.17883772304E+03  0.00000000000E+00 0. -1.
         11    1    1    2    0    0  0.38587446474E+01 -0.32297523267E+01 -0.14875276244E+03  0.14883784984E+03  0.00000000000E+00 0.  1.
        -15    1    1    2    0    0  0.47895747044E+01  0.41776418522E+01 -0.12399130423E+01  0.67147472512E+01  0.17770000000E+01 0. -1.
         15    1    1    2    0    0 -0.95541885724E+01 -0.34028871188E+01 -0.28825901767E+02  0.30609679869E+02  0.17770000000E+01 0.  1.
</event>
<event>
 6    1  0.1108180E-002  0.1902759E+03  0.7546771E-02  0.1062428E+00
        -11   -1    0    0    0    0  0.00000000000E+00  0.00000000000E+00  0.18250000000E+03  0.18250000000E+03  0.00000000000E+00 0. -1.
         11   -1    0    0    0    0 -0.00000000000E+00 -0.00000000000E+00 -0.18250000000E+03  0.18250000000E+03  0.00000000000E+00 0. -1.
        -11    1    1    2    0    0 -0.26590593526E+01 -0.45669877034E+01  0.17464419061E+03  0.17472412909E+03  0.00000000000E+00 0. -1.
         11    1    1    2    0    0  0.79079198684E+00 -0.52421751240E+01 -0.16499701564E+03  0.16508216415E+03  0.00000000000E+00 0. -1.
        -15    1    1    2    0    0  0.79298683483E+01 -0.20023843078E+01  0.50763381389E+00  0.83849732276E+01  0.17770000000E+01 0. -1.
         15    1    1    2    0    0 -0.60616009826E+01  0.11811547135E+02 -0.10154808787E+02  0.16808733525E+02  0.17770000000E+01 0.  1.
</event>
<event>
 6    1  0.1108180E-002  0.1761798E+03  0.7546771E-02  0.1073600E+00
        -11   -1    0    0    0    0  0.00000000000E+00  0.00000000000E+00  0.18250000000E+03  0.18250000000E+03  0.00000000000E+00 0. -1.
         11   -1    0    0    0    0 -0.00000000000E+00 -0.00000000000E+00 -0.18250000000E+03  0.18250000000E+03  0.00000000000E+00 0. -1.
        -11    1    1    2    0    0  0.21478022288E+00  0.30392668053E+01  0.17626952366E+03  0.17629585430E+03  0.00000000000E+00 0. -1.
         11    1    1    2    0    0  0.26011866184E+00  0.26278723310E+01 -0.17608981964E+03  0.17610961915E+03  0.00000000000E+00 0. -1.
        -15    1    1    2    0    0 -0.21818952433E+01  0.19431228509E+01 -0.25338120492E+01  0.42560927818E+01  0.17770000000E+01 0. -1.
         15    1    1    2    0    0  0.17069963586E+01 -0.76102619873E+01  0.23541080351E+01  0.83384337692E+01  0.17770000000E+01 0.  1.
</event>
<event>
 6    1  0.1108180E-002  0.1826886E+03  0.7546771E-02  0.1068305E+00
        -11   -1    0    0    0    0  0.00000000000E+00  0.00000000000E+00  0.18250000000E+03  0.18250000000E+03  0.00000000000E+00 0.  1.
         11   -1    0    0    0    0 -0.00000000000E+00 -0.00000000000E+00 -0.18250000000E+03  0.18250000000E+03  0.00000000000E+00 0. -1.
        -11    1    1    2    0    0 -0.31609266077E+01  0.19172754827E+01  0.85768903162E+02  0.85848541932E+02  0.00000000000E+00 0.  1.
         11    1    1    2    0    0  0.11754494893E+01  0.24988526316E+01 -0.18229050216E+03  0.18231141798E+03  0.00000000000E+00 0. -1.
        -15    1    1    2    0    0 -0.84097274657E+00 -0.21518841523E+01  0.19900240591E+02  0.20112561874E+02  0.17770000000E+01 0. -1.
         15    1    1    2    0    0  0.28264498650E+01 -0.22642439620E+01  0.76621358411E+02  0.76727478216E+02  0.17770000000E+01 0.  1.
</event>
<event>
 6    1  0.1108180E-002  0.9604509E+02  0.7546771E-02  0.1170839E+00
        -11   -1    0    0    0    0  0.00000000000E+00  0.00000000000E+00  0.18250000000E+03  0.18250000000E+03  0.00000000000E+00 0. -1.
         11   -1    0    0    0    0 -0.00000000000E+00 -0.00000000000E+00 -0.18250000000E+03  0.18250000000E+03  0.00000000000E+00 0.  1.
        -11    1    1    2    0    0  0.12137196977E+02 -0.90683510139E+01  0.78164846630E+02  0.79619657053E+02  0.00000000000E+00 0. -1.
         11    1    1    2    0    0 -0.97047314419E+01 -0.11786283796E+02 -0.90475225644E+02  0.91754371849E+02  0.00000000000E+00 0.  1.
        -15    1    1    2    0    0 -0.20413926592E+02  0.16010796713E+01  0.99977731217E+02  0.10206858637E+03  0.17770000000E+01 0. -1.
         15    1    1    2    0    0  0.17981461057E+02  0.19253555138E+02 -0.87667352203E+02  0.91557384729E+02  0.17770000000E+01 0.  1.
</event>
<event>
 6    1  0.1108180E-002  0.1870635E+03  0.7546771E-02  0.1064879E+00
        -11   -1    0    0    0    0  0.00000000000E+00  0.00000000000E+00  0.18250000000E+03  0.18250000000E+03  0.00000000000E+00 0. -1.
         11   -1    0    0    0    0 -0.00000000000E+00 -0.00000000000E+00 -0.18250000000E+03  0.18250000000E+03  0.00000000000E+00 0.  1.
        -11    1    1    2    0    0 -0.93760857701E+01  0.48666022842E+01  0.17762268212E+03  0.17793653927E+03  0.00000000000E+00 0. -1.
         11    1    1    2    0    0  0.21913966678E+01 -0.27843991457E+01 -0.16816159182E+03  0.16819891814E+03  0.00000000000E+00 0.  1.
        -15    1    1    2    0    0  0.22644897030E+01  0.50035773906E+01  0.21974063552E+00  0.57766526004E+01  0.17770000000E+01 0. -1.
         15    1    1    2    0    0  0.49201993993E+01 -0.70857805291E+01 -0.96808309380E+01  0.13087889994E+02  0.17770000000E+01 0.  1.
</event>
<event>
 6    1  0.1108180E-002  0.1782036E+03  0.7546771E-02  0.1071927E+00
        -11   -1    0    0    0    0  0.00000000000E+00  0.00000000000E+00  0.18250000000E+03  0.18250000000E+03  0.00000000000E+00 0. -1.
         11   -1    0    0    0    0 -0.00000000000E+00 -0.00000000000E+00 -0.18250000000E+03  0.18250000000E+03  0.00000000000E+00 0.  1.
        -11    1    1    2    0    0  0.36777457704E+01 -0.32909623573E+01  0.17926935400E+03  0.17933727312E+03  0.00000000000E+00 0. -1.
         11    1    1    2    0    0  0.16081322046E+01  0.22579299078E+01 -0.17709549501E+03  0.17711718914E+03  0.00000000000E+00 0.  1.
        -15    1    1    2    0    0 -0.13664647928E+01 -0.12254833669E+01 -0.26269567816E+01  0.36643780434E+01  0.17770000000E+01 0.  1.
         15    1    1    2    0    0 -0.39194131822E+01  0.22585158163E+01  0.45309779075E+00  0.48811596976E+01  0.17770000000E+01 0. -1.
</event>
<event>
 6    1  0.1108180E-002  0.1826262E+03  0.7546771E-02  0.1068354E+00
        -11   -1    0    0    0    0  0.00000000000E+00  0.00000000000E+00  0.18250000000E+03  0.18250000000E+03  0.00000000000E+00 0. -1.
         11   -1    0    0    0    0 -0.00000000000E+00 -0.00000000000E+00 -0.18250000000E+03  0.18250000000E+03  0.00000000000E+00 0. -1.
        -11    1    1    2    0    0 -0.32212502232E+01 -0.63087027208E+00  0.18234426893E+03  0.18237381079E+03  0.00000000000E+00 0. -1.
         11    1    1    2    0    0  0.59376173257E+00  0.22979423573E+01 -0.10757856065E+03  0.10760473876E+03  0.00000000000E+00 0. -1.
        -15    1    1    2    0    0  0.24468750835E+01 -0.84084934342E+00 -0.64027849266E+02  0.64104738015E+02  0.17770000000E+01 0.  1.
         15    1    1    2    0    0  0.18061340715E+00 -0.82622274179E+00 -0.10737859012E+02  0.10916712434E+02  0.17770000000E+01 0. -1.
</event>
<event>
 6    1  0.1108180E-002  0.1830290E+03  0.7546771E-02  0.1068035E+00
        -11   -1    0    0    0    0  0.00000000000E+00  0.00000000000E+00  0.18250000000E+03  0.18250000000E+03  0.00000000000E+00 0. -1.
         11   -1    0    0    0    0 -0.00000000000E+00 -0.00000000000E+00 -0.18250000000E+03  0.18250000000E+03  0.00000000000E+00 0. -1.
        -11    1    1    2    0    0 -0.13869768958E+01 -0.24290007564E+01  0.18194954111E+03  0.18197103962E+03  0.00000000000E+00 0. -1.
         11    1    1    2    0    0  0.27376721331E+01 -0.47448731023E+01 -0.11940542031E+03  0.11953101300E+03  0.00000000000E+00 0. -1.
        -15    1    1    2    0    0 -0.90245996121E+00  0.66620131071E+01 -0.59521173577E+02  0.59925993405E+02  0.17770000000E+01 0. -1.
         15    1    1    2    0    0 -0.44823527608E+00  0.51186075157E+00 -0.30229472213E+01  0.35719539743E+01  0.17770000000E+01 0. -1.
</event>
<event>
 6    1  0.1108180E-002  0.1828083E+03  0.7546771E-02  0.1068210E+00
        -11   -1    0    0    0    0  0.00000000000E+00  0.00000000000E+00  0.18250000000E+03  0.18250000000E+03  0.00000000000E+00 0. -1.
         11   -1    0    0    0    0 -0.00000000000E+00 -0.00000000000E+00 -0.18250000000E+03  0.18250000000E+03  0.00000000000E+00 0. -1.
        -11    1    1    2    0    0  0.26086497672E+01  0.32065866839E+01  0.18214478942E+03  0.18219168906E+03  0.00000000000E+00 0. -1.
         11    1    1    2    0    0  0.27865968272E+01 -0.16003439816E+01 -0.13130600776E+03  0.13134532309E+03  0.00000000000E+00 0. -1.
        -15    1    1    2    0    0 -0.51302070968E+01 -0.20695471127E+01 -0.43802501625E+02  0.44186184806E+02  0.17770000000E+01 0. -1.
         15    1    1    2    0    0 -0.26503949756E+00  0.46330441043E+00 -0.70362800309E+01  0.72768030470E+01  0.17770000000E+01 0. -1.
</event>
<event>
 6    1  0.1108180E-002  0.1831968E+03  0.7546771E-02  0.1067901E+00
        -11   -1    0    0    0    0  0.00000000000E+00  0.00000000000E+00  0.18250000000E+03  0.18250000000E+03  0.00000000000E+00 0. -1.
         11   -1    0    0    0    0 -0.00000000000E+00 -0.00000000000E+00 -0.18250000000E+03  0.18250000000E+03  0.00000000000E+00 0.  1.
        -11    1    1    2    0    0  0.33852629059E+00  0.26510402158E+01  0.77532945436E+01  0.82009871696E+01  0.00000000000E+00 0. -1.
         11    1    1    2    0    0 -0.19931652211E+01 -0.26640782229E+01 -0.18177273182E+03  0.18180317943E+03  0.00000000000E+00 0.  1.
        -15    1    1    2    0    0  0.42628207802E+01  0.13876773392E+01  0.16794177421E+03  0.16801099530E+03  0.17770000000E+01 0. -1.
         15    1    1    2    0    0 -0.26081818497E+01 -0.13746393322E+01  0.60776630672E+01  0.69848380950E+01  0.17770000000E+01 0. -1.
</event>
<event>
 6    1  0.1108180E-002  0.1863244E+03  0.7546771E-02  0.1065451E+00
        -11   -1    0    0    0    0  0.00000000000E+00  0.00000000000E+00  0.18250000000E+03  0.18250000000E+03  0.00000000000E+00 0.  1.
         11   -1    0    0    0    0 -0.00000000000E+00 -0.00000000000E+00 -0.18250000000E+03  0.18250000000E+03  0.00000000000E+00 0. -1.
        -11    1    1    2    0    0 -0.20152023159E+01 -0.48646655337E+01  0.16815983924E+03  0.16824225850E+03  0.00000000000E+00 0.  1.
         11    1    1    2    0    0  0.74322584430E+01 -0.13186306103E+01 -0.17851606204E+03  0.17867557656E+03  0.00000000000E+00 0. -1.
        -15    1    1    2    0    0 -0.18084774635E+01  0.78649098022E+01  0.10911241159E+02  0.13687231625E+02  0.17770000000E+01 0. -1.
         15    1    1    2    0    0 -0.36085786635E+01 -0.16816136582E+01 -0.55501836560E+00  0.43949333160E+01  0.17770000000E+01 0.  1.
</event>
<event>
 6    1  0.1108180E-002  0.1855840E+03  0.7546771E-02  0.1066026E+00
        -11   -1    0    0    0    0  0.00000000000E+00  0.00000000000E+00  0.18250000000E+03  0.18250000000E+03  0.00000000000E+00 0.  1.
         11   -1    0    0    0    0 -0.00000000000E+00 -0.00000000000E+00 -0.18250000000E+03  0.18250000000E+03  0.00000000000E+00 0. -1.
        -11    1    1    2    0    0  0.24062667070E+02  0.80941029732E+01  0.17761078347E+03  0.17941604402E+03  0.00000000000E+00 0.  1.
         11    1    1    2    0    0 -0.47223508269E+00  0.25776964438E+00 -0.25667818627E+02  0.25673456414E+02  0.00000000000E+00 0. -1.
        -15    1    1    2    0    0 -0.16894356438E+02 -0.76352023773E+01 -0.18382250054E+02  0.26168309858E+02  0.17770000000E+01 0.  1.
         15    1    1    2    0    0 -0.66960755498E+01 -0.71667024033E+00 -0.13356071479E+03  0.13374218970E+03  0.17770000000E+01 0. -1.
</event>
<event>
 6    1  0.1108180E-002  0.1878843E+03  0.7546771E-02  0.1064248E+00
        -11   -1    0    0    0    0  0.00000000000E+00  0.00000000000E+00  0.18250000000E+03  0.18250000000E+03  0.00000000000E+00 0.  1.
         11   -1    0    0    0    0 -0.00000000000E+00 -0.00000000000E+00 -0.18250000000E+03  0.18250000000E+03  0.00000000000E+00 0. -1.
        -11    1    1    2    0    0  0.53170510264E+01  0.43219744588E+01  0.17698306616E+03  0.17711565770E+03  0.00000000000E+00 0.  1.
         11    1    1    2    0    0 -0.18400844967E+00 -0.45883600782E+01 -0.16551972267E+03  0.16558340949E+03  0.00000000000E+00 0. -1.
        -15    1    1    2    0    0 -0.67803472081E+01 -0.53349406020E+01  0.55047870359E+00  0.88258402032E+01  0.17770000000E+01 0. -1.
         15    1    1    2    0    0  0.16473046314E+01  0.56013262214E+01 -0.12013822196E+02  0.13475092606E+02  0.17770000000E+01 0.  1.
</event>
<event>
 6    1  0.1108180E-002  0.1855247E+03  0.7546771E-02  0.1066072E+00
        -11   -1    0    0    0    0  0.00000000000E+00  0.00000000000E+00  0.18250000000E+03  0.18250000000E+03  0.00000000000E+00 0.  1.
         11   -1    0    0    0    0 -0.00000000000E+00 -0.00000000000E+00 -0.18250000000E+03  0.18250000000E+03  0.00000000000E+00 0.  1.
        -11    1    1    2    0    0 -0.99832787237E+00 -0.75147174039E+00  0.69812801652E+02  0.69823983292E+02  0.00000000000E+00 0.  1.
         11    1    1    2    0    0 -0.26031351589E+02 -0.46047461000E+01 -0.17751771273E+03  0.17947527207E+03  0.00000000000E+00 0.  1.
        -15    1    1    2    0    0  0.21995078423E+02  0.10469836733E+02  0.35338826833E+02  0.42958018657E+02  0.17770000000E+01 0. -1.
         15    1    1    2    0    0  0.50346010384E+01 -0.51136188921E+01  0.72366084242E+02  0.72742725982E+02  0.17770000000E+01 0.  1.
</event>
<event>
 6    1  0.1108180E-002  0.1834776E+03  0.7546771E-02  0.1067679E+00
        -11   -1    0    0    0    0  0.00000000000E+00  0.00000000000E+00  0.18250000000E+03  0.18250000000E+03  0.00000000000E+00 0. -1.
         11   -1    0    0    0    0 -0.00000000000E+00 -0.00000000000E+00 -0.18250000000E+03  0.18250000000E+03  0.00000000000E+00 0. -1.
        -11    1    1    2    0    0  0.38002936506E+01 -0.48159653900E+01  0.15663442963E+03  0.15675452242E+03  0.00000000000E+00 0. -1.
         11    1    1    2    0    0 -0.24827522307E+01 -0.20584921097E+01 -0.18149373639E+03  0.18152238924E+03  0.00000000000E+00 0. -1.
        -15    1    1    2    0    0 -0.10144814029E+01  0.47465198216E+01  0.22450980016E+02  0.23038291074E+02  0.17770000000E+01 0. -1.
         15    1    1    2    0    0 -0.30306001702E+00  0.21279376780E+01  0.24083267412E+01  0.36847972573E+01  0.17770000000E+01 0.  1.
</event>
<event>
 6    1  0.1108180E-002  0.1830039E+03  0.7546771E-02  0.1068054E+00
        -11   -1    0    0    0    0  0.00000000000E+00  0.00000000000E+00  0.18250000000E+03  0.18250000000E+03  0.00000000000E+00 0.  1.
         11   -1    0    0    0    0 -0.00000000000E+00 -0.00000000000E+00 -0.18250000000E+03  0.18250000000E+03  0.00000000000E+00 0.  1.
        -11    1    1    2    0    0  0.45477491543E+01 -0.52156925634E+01  0.18186452152E+03  0.18199612539E+03  0.00000000000E+00 0.  1.
         11    1    1    2    0    0 -0.14817876037E+01 -0.12501782767E+01 -0.12102957105E+03  0.12104509783E+03  0.00000000000E+00 0.  1.
        -15    1    1    2    0    0  0.10832324495E+01  0.17636223153E+01 -0.40781424780E+02  0.40872559160E+02  0.17770000000E+01 0.  1.
         15    1    1    2    0    0 -0.41491940001E+01  0.47022485249E+01 -0.20053525683E+02  0.21086217616E+02  0.17770000000E+01 0.  1.
</event>
<event>
 6    1  0.1341484E-002  0.1910796E+03  0.7546771E-02  0.1061823E+00
        -11   -1    0    0    0    0  0.00000000000E+00  0.00000000000E+00  0.18250000000E+03  0.18250000000E+03  0.00000000000E+00 0. -1.
         11   -1    0    0    0    0 -0.00000000000E+00 -0.00000000000E+00 -0.18250000000E+03  0.18250000000E+03  0.00000000000E+00 0.  1.
        -11    1    1    2    0    0  0.75794935124E+00 -0.39503014331E+01  0.17387387359E+03  0.17392039353E+03  0.00000000000E+00 0. -1.
         11    1    1    2    0    0  0.54300080739E+01  0.39938220405E+01 -0.14609337280E+03  0.14624879205E+03  0.00000000000E+00 0.  1.
        -15    1    1    2    0    0 -0.19265953667E+01 -0.25605861529E+01 -0.35391060777E+02  0.35580237255E+02  0.17770000000E+01 0.  1.
         15    1    1    2    0    0 -0.42613620584E+01  0.25170655455E+01  0.76105599813E+01  0.92505771594E+01  0.17770000000E+01 0. -1.
</event>
<event>
 6    1  0.1108180E-002  0.1826404E+03  0.7546771E-02  0.1068343E+00
        -11   -1    0    0    0    0  0.00000000000E+00  0.00000000000E+00  0.18250000000E+03  0.18250000000E+03  0.00000000000E+00 0.  1.
         11   -1    0    0    0    0 -0.00000000000E+00 -0.00000000000E+00 -0.18250000000E+03  0.18250000000E+03  0.00000000000E+00 0. -1.
        -11    1    1    2    0    0 -0.21216561669E+01 -0.21638854167E+00  0.95253825053E+02  0.95277696425E+02  0.00000000000E+00 0.  1.
         11    1    1    2    0    0  0.16901236441E+01 -0.20865876756E+01 -0.18233980603E+03  0.18235957674E+03  0.00000000000E+00 0. -1.
        -15    1    1    2    0    0 -0.84460213561E-03  0.26041664638E+01  0.19652053185E+02  0.19903331557E+02  0.17770000000E+01 0. -1.
         15    1    1    2    0    0  0.43237712501E+00 -0.30119024658E+00  0.67433927789E+02  0.67459395280E+02  0.17770000000E+01 0.  1.
</event>
<event>
 6    1  0.1108180E-002  0.1741404E+03  0.7546771E-02  0.1075311E+00
        -11   -1    0    0    0    0  0.00000000000E+00  0.00000000000E+00  0.18250000000E+03  0.18250000000E+03  0.00000000000E+00 0.  1.
         11   -1    0    0    0    0 -0.00000000000E+00 -0.00000000000E+00 -0.18250000000E+03  0.18250000000E+03  0.00000000000E+00 0. -1.
        -11    1    1    2    0    0 -0.45101985408E+00 -0.27087105061E+01  0.17213114516E+03  0.17215304721E+03  0.00000000000E+00 0.  1.
         11    1    1    2    0    0  0.55141139846E+00 -0.74543556145E+01 -0.17614052401E+03  0.17629905181E+03  0.00000000000E+00 0. -1.
        -15    1    1    2    0    0  0.30319206438E+01 -0.69267829454E+00  0.36364956386E+01  0.51043290979E+01  0.17770000000E+01 0. -1.
         15    1    1    2    0    0 -0.31323121882E+01  0.10855744415E+02  0.37288321313E+00  0.11443571879E+02  0.17770000000E+01 0.  1.
</event>
<event>
 6    1  0.1108180E-002  0.1853414E+03  0.7546771E-02  0.1066215E+00
        -11   -1    0    0    0    0  0.00000000000E+00  0.00000000000E+00  0.18250000000E+03  0.18250000000E+03  0.00000000000E+00 0.  1.
         11   -1    0    0    0    0 -0.00000000000E+00 -0.00000000000E+00 -0.18250000000E+03  0.18250000000E+03  0.00000000000E+00 0.  1.
        -11    1    1    2    0    0  0.12617257928E+01 -0.22959090736E+02  0.17818104753E+03  0.17965855810E+03  0.00000000000E+00 0.  1.
         11    1    1    2    0    0 -0.71956036669E+00 -0.26541078203E+01 -0.55822876243E+02  0.55890567786E+02  0.00000000000E+00 0.  1.
        -15    1    1    2    0    0 -0.78939200776E+01 -0.57167191097E+01 -0.24751110142E+02  0.26660270701E+02  0.17770000000E+01 0. -1.
         15    1    1    2    0    0  0.73517546514E+01  0.31329917666E+02 -0.97607061142E+02  0.10279060342E+03  0.17770000000E+01 0.  1.
</event>
<event>
 6    1  0.1108180E-002  0.1842641E+03  0.7546771E-02  0.1067059E+00
        -11   -1    0    0    0    0  0.00000000000E+00  0.00000000000E+00  0.18250000000E+03  0.18250000000E+03  0.00000000000E+00 0. -1.
         11   -1    0    0    0    0 -0.00000000000E+00 -0.00000000000E+00 -0.18250000000E+03  0.18250000000E+03  0.00000000000E+00 0. -1.
        -11    1    1    2    0    0 -0.19427351310E+01 -0.48135359590E+01  0.15559468376E+03  0.15568124473E+03  0.00000000000E+00 0. -1.
         11    1    1    2    0    0 -0.35369973577E+00  0.30696578682E+01 -0.18070946833E+03  0.18073588422E+03  0.00000000000E+00 0. -1.
        -15    1    1    2    0    0  0.70710733942E+00 -0.16710614118E+01 -0.53642995632E+00  0.25957529022E+01  0.17770000000E+01 0.  1.
         15    1    1    2    0    0  0.15893275273E+01  0.34149395025E+01  0.25651214526E+02  0.25987118145E+02  0.17770000000E+01 0. -1.
</event>
<event>
 6    1  0.1108180E-002  0.1897569E+03  0.7546771E-02  0.1062821E+00
        -11   -1    0    0    0    0  0.00000000000E+00  0.00000000000E+00  0.18250000000E+03  0.18250000000E+03  0.00000000000E+00 0.  1.
         11   -1    0    0    0    0 -0.00000000000E+00 -0.00000000000E+00 -0.18250000000E+03  0.18250000000E+03  0.00000000000E+00 0.  1.
        -11    1    1    2    0    0 -0.60901447745E+00  0.48809812411E+01  0.17517400922E+03  0.17524305516E+03  0.00000000000E+00 0.  1.
         11    1    1    2    0    0  0.34085540421E+01  0.20717756409E+01 -0.16841422976E+03  0.16846145933E+03  0.00000000000E+00 0.  1.
        -15    1    1    2    0    0 -0.26762463568E+01 -0.26814281134E+01 -0.12925622653E+02  0.13586088520E+02  0.17770000000E+01 0. -1.
         15    1    1    2    0    0 -0.12329320783E+00 -0.42713287686E+01  0.61658431900E+01  0.77093969874E+01  0.17770000000E+01 0. -1.
</event>
<event>
 6    1  0.1108180E-002  0.1879032E+03  0.7546771E-02  0.1064233E+00
        -11   -1    0    0    0    0  0.00000000000E+00  0.00000000000E+00  0.18250000000E+03  0.18250000000E+03  0.00000000000E+00 0.  1.
         11   -1    0    0    0    0 -0.00000000000E+00 -0.00000000000E+00 -0.18250000000E+03  0.18250000000E+03  0.00000000000E+00 0. -1.
        -11    1    1    2    0    0 -0.10541310166E+01  0.27025121947E+01  0.17707302034E+03  0.17709677947E+03  0.00000000000E+00 0.  1.
         11    1    1    2    0    0 -0.19707291832E+01 -0.28934337836E+01 -0.11960682324E+03  0.11965804569E+03  0.00000000000E+00 0. -1.
        -15    1    1    2    0    0  0.51782178588E+00 -0.14529459007E+02 -0.83095168544E+01  0.16839807534E+02  0.17770000000E+01 0.  1.
         15    1    1    2    0    0  0.25070384139E+01  0.14720380596E+02 -0.49156680246E+02  0.51405367310E+02  0.17770000000E+01 0. -1.
</event>
<event>
 6    1  0.1108180E-002  0.1836015E+03  0.7546771E-02  0.1067581E+00
        -11   -1    0    0    0    0  0.00000000000E+00  0.00000000000E+00  0.18250000000E+03  0.18250000000E+03  0.00000000000E+00 0. -1.
         11   -1    0    0    0    0 -0.00000000000E+00 -0.00000000000E+00 -0.18250000000E+03  0.18250000000E+03  0.00000000000E+00 0.  1.
        -11    1    1    2    0    0 -0.81414926767E+01  0.86222056150E+01  0.18101047123E+03  0.18139850337E+03  0.00000000000E+00 0. -1.
         11    1    1    2    0    0  0.16684349593E+01 -0.91655286580E+01 -0.99669924918E+02  0.10010436816E+03  0.00000000000E+00 0.  1.
        -15    1    1    2    0    0 -0.27902739683E+01  0.40544101359E+01 -0.86238905424E+01  0.10087273539E+02  0.17770000000E+01 0.  1.
         15    1    1    2    0    0  0.92633316856E+01 -0.35110870929E+01 -0.72716655765E+02  0.73409854932E+02  0.17770000000E+01 0. -1.
</event>
<event>
 6    1  0.1108180E-002  0.1859490E+03  0.7546771E-02  0.1065742E+00
        -11   -1    0    0    0    0  0.00000000000E+00  0.00000000000E+00  0.18250000000E+03  0.18250000000E+03  0.00000000000E+00 0. -1.
         11   -1    0    0    0    0 -0.00000000000E+00 -0.00000000000E+00 -0.18250000000E+03  0.18250000000E+03  0.00000000000E+00 0.  1.
        -11    1    1    2    0    0  0.18119178970E+02  0.17682148542E+01  0.78812284468E+02  0.80887622127E+02  0.00000000000E+00 0. -1.
         11    1    1    2    0    0 -0.27795963747E+01  0.17009204886E+00 -0.17902930145E+03  0.17905095885E+03  0.00000000000E+00 0.  1.
        -15    1    1    2    0    0  0.45067974122E+01  0.61541615767E+00  0.59078936232E+02  0.59280421686E+02  0.17770000000E+01 0.  1.
         15    1    1    2    0    0 -0.19846380007E+02 -0.25537230607E+01  0.41138080747E+02  0.45780997340E+02  0.17770000000E+01 0. -1.
</event>
<event>
 6    1  0.1108180E-002  0.1843672E+03  0.7546771E-02  0.1066978E+00
        -11   -1    0    0    0    0  0.00000000000E+00  0.00000000000E+00  0.18250000000E+03  0.18250000000E+03  0.00000000000E+00 0.  1.
         11   -1    0    0    0    0 -0.00000000000E+00 -0.00000000000E+00 -0.18250000000E+03  0.18250000000E+03  0.00000000000E+00 0. -1.
        -11    1    1    2    0    0 -0.53478331458E+01 -0.30017034715E+01  0.15625852905E+03  0.15637882671E+03  0.00000000000E+00 0.  1.
         11    1    1    2    0    0  0.39043119942E+01  0.25288852556E+01 -0.18057291165E+03  0.18063281910E+03  0.00000000000E+00 0. -1.
        -15    1    1    2    0    0  0.40682645989E+00  0.30804565084E+01  0.24404544228E+02  0.24665648746E+02  0.17770000000E+01 0.  1.
         15    1    1    2    0    0  0.10366946918E+01 -0.26076382924E+01 -0.90161622370E-01  0.33227054438E+01  0.17770000000E+01 0. -1.
</event>
<event>
 6    1  0.1108180E-002  0.1826999E+03  0.7546771E-02  0.1068296E+00
        -11   -1    0    0    0    0  0.00000000000E+00  0.00000000000E+00  0.18250000000E+03  0.18250000000E+03  0.00000000000E+00 0.  1.
         11   -1    0    0    0    0 -0.00000000000E+00 -0.00000000000E+00 -0.18250000000E+03  0.18250000000E+03  0.00000000000E+00 0. -1.
        -11    1    1    2    0    0  0.23822255554E+01 -0.29006699913E+01  0.11049160364E+03  0.11055534071E+03  0.00000000000E+00 0.  1.
         11    1    1    2    0    0  0.23602592489E+01  0.37298930433E+01 -0.18224663097E+03  0.18230007522E+03  0.00000000000E+00 0. -1.
        -15    1    1    2    0    0 -0.16344221467E+01 -0.42410198822E+00  0.10445558148E+02  0.10729334195E+02  0.17770000000E+01 0.  1.
         15    1    1    2    0    0 -0.31080626577E+01 -0.40512106382E+00  0.61309469184E+02  0.61415249875E+02  0.17770000000E+01 0. -1.
</event>
<event>
 6    1  0.1108180E-002  0.1840075E+03  0.7546771E-02  0.1067261E+00
        -11   -1    0    0    0    0  0.00000000000E+00  0.00000000000E+00  0.18250000000E+03  0.18250000000E+03  0.00000000000E+00 0.  1.
         11   -1    0    0    0    0 -0.00000000000E+00 -0.00000000000E+00 -0.18250000000E+03  0.18250000000E+03  0.00000000000E+00 0.  1.
        -11    1    1    2    0    0  0.26917649577E+01 -0.17334673525E+01  0.15906389128E+03  0.15909610937E+03  0.00000000000E+00 0.  1.
         11    1    1    2    0    0  0.13443838328E+01  0.23961798152E+01 -0.18097163962E+03  0.18099249541E+03  0.00000000000E+00 0.  1.
        -15    1    1    2    0    0 -0.31789476751E+01  0.86780357233E+00  0.22092587712E+02  0.22407564620E+02  0.17770000000E+01 0. -1.
         15    1    1    2    0    0 -0.85720111546E+00 -0.15305160350E+01 -0.18483936816E+00  0.25038306008E+01  0.17770000000E+01 0.  1.
</event>
<event>
 6    1  0.1108180E-002  0.1846646E+03  0.7546771E-02  0.1066745E+00
        -11   -1    0    0    0    0  0.00000000000E+00  0.00000000000E+00  0.18250000000E+03  0.18250000000E+03  0.00000000000E+00 0.  1.
         11   -1    0    0    0    0 -0.00000000000E+00 -0.00000000000E+00 -0.18250000000E+03  0.18250000000E+03  0.00000000000E+00 0.  1.
        -11    1    1    2    0    0  0.19924431777E+01 -0.88812785973E+00  0.11546420255E+03  0.11548480710E+03  0.00000000000E+00 0.  1.
         11    1    1    2    0    0 -0.44919655475E+01 -0.18055577585E+00 -0.18027937765E+03  0.18033542181E+03  0.00000000000E+00 0.  1.
        -15    1    1    2    0    0 -0.26099375463E+01 -0.24960558663E+00  0.63340762557E+02  0.63419902296E+02  0.17770000000E+01 0.  1.
         15    1    1    2    0    0  0.51094599161E+01  0.13182892222E+01  0.14744125394E+01  0.57598687871E+01  0.17770000000E+01 0.  1.
</event>
<event>
 6    1  0.1108180E-002  0.1864941E+03  0.7546771E-02  0.1065319E+00
        -11   -1    0    0    0    0  0.00000000000E+00  0.00000000000E+00  0.18250000000E+03  0.18250000000E+03  0.00000000000E+00 0.  1.
         11   -1    0    0    0    0 -0.00000000000E+00 -0.00000000000E+00 -0.18250000000E+03  0.18250000000E+03  0.00000000000E+00 0.  1.
        -11    1    1    2    0    0 -0.48085324401E+00  0.38369841152E+00  0.41517558703E+02  0.41522116094E+02  0.00000000000E+00 0.  1.
         11    1    1    2    0    0  0.13851224903E+02 -0.58577720019E-01 -0.17796763654E+03  0.17850585290E+03  0.00000000000E+00 0.  1.
        -15    1    1    2    0    0 -0.96433741025E+01  0.93039470490E+01  0.72327096975E+01  0.15330620123E+02  0.17770000000E+01 0.  1.
         15    1    1    2    0    0 -0.37269975564E+01 -0.96290677405E+01  0.12921736814E+03  0.12964141088E+03  0.17770000000E+01 0.  1.
</event>
<event>
 6    1  0.1108180E-002  0.1832469E+03  0.7546771E-02  0.1067862E+00
        -11   -1    0    0    0    0  0.00000000000E+00  0.00000000000E+00  0.18250000000E+03  0.18250000000E+03  0.00000000000E+00 0. -1.
         11   -1    0    0    0    0 -0.00000000000E+00 -0.00000000000E+00 -0.18250000000E+03  0.18250000000E+03  0.00000000000E+00 0. -1.
        -11    1    1    2    0    0  0.47855626556E+00  0.14453091771E+01  0.96638456658E+02  0.96650448731E+02  0.00000000000E+00 0. -1.
         11    1    1    2    0    0  0.51322754851E+01 -0.24912393969E+01 -0.18166349616E+03  0.18175305324E+03  0.00000000000E+00 0. -1.
        -15    1    1    2    0    0 -0.67460566098E+01 -0.38621397888E+01  0.23022943070E+02  0.24364708907E+02  0.17770000000E+01 0.  1.
         15    1    1    2    0    0  0.11352248592E+01  0.49080700087E+01  0.62002096430E+02  0.62231789123E+02  0.17770000000E+01 0. -1.
</event>
<event>
 6    1  0.1108180E-002  0.1839819E+03  0.7546771E-02  0.1067281E+00
        -11   -1    0    0    0    0  0.00000000000E+00  0.00000000000E+00  0.18250000000E+03  0.18250000000E+03  0.00000000000E+00 0. -1.
         11   -1    0    0    0    0 -0.00000000000E+00 -0.00000000000E+00 -0.18250000000E+03  0.18250000000E+03  0.00000000000E+00 0. -1.
        -11    1    1    2    0    0 -0.16855566026E+01  0.18895028163E+01  0.18100040633E+03  0.18101811626E+03  0.00000000000E+00 0. -1.
         11    1    1    2    0    0 -0.48145117398E+01 -0.33010751113E+01 -0.15139326913E+03  0.15150577071E+03  0.00000000000E+00 0. -1.
        -15    1    1    2    0    0 -0.82367510449E+00 -0.37184647580E+01 -0.84105084361E+01  0.94021168886E+01  0.17770000000E+01 0.  1.
         15    1    1    2    0    0  0.73237434469E+01  0.51300370530E+01 -0.21196628758E+02  0.23073996141E+02  0.17770000000E+01 0. -1.
</event>
<event>
 6    1  0.1108180E-002  0.1474938E+03  0.7546771E-02  0.1100334E+00
        -11   -1    0    0    0    0  0.00000000000E+00  0.00000000000E+00  0.18250000000E+03  0.18250000000E+03  0.00000000000E+00 0. -1.
         11   -1    0    0    0    0 -0.00000000000E+00 -0.00000000000E+00 -0.18250000000E+03  0.18250000000E+03  0.00000000000E+00 0.  1.
        -11    1    1    2    0    0  0.22805624556E+01 -0.10386464037E+01  0.23958405242E+02  0.24089104035E+02  0.00000000000E+00 0. -1.
         11    1    1    2    0    0  0.35775661726E+02 -0.18148883958E+02 -0.16170392624E+03  0.16660564133E+03  0.00000000000E+00 0.  1.
        -15    1    1    2    0    0  0.27196498769E+01  0.11915462338E+02  0.13185425027E+03  0.13243140028E+03  0.17770000000E+01 0. -1.
         15    1    1    2    0    0 -0.40775874058E+02  0.72720680236E+01  0.58912707343E+01  0.41873854353E+02  0.17770000000E+01 0.  1.
</event>
<event>
 6    1  0.1108180E-002  0.1832681E+03  0.7546771E-02  0.1067845E+00
        -11   -1    0    0    0    0  0.00000000000E+00  0.00000000000E+00  0.18250000000E+03  0.18250000000E+03  0.00000000000E+00 0. -1.
         11   -1    0    0    0    0 -0.00000000000E+00 -0.00000000000E+00 -0.18250000000E+03  0.18250000000E+03  0.00000000000E+00 0. -1.
        -11    1    1    2    0    0 -0.19944818868E+01  0.44361331568E+01  0.18166684071E+03  0.18173194064E+03  0.00000000000E+00 0. -1.
         11    1    1    2    0    0  0.12513408401E+00 -0.19440735990E+01 -0.12651878866E+03  0.12653378586E+03  0.00000000000E+00 0. -1.
        -15    1    1    2    0    0  0.57358630975E+01 -0.37213450191E+01 -0.46338432555E+02  0.46873836997E+02  0.17770000000E+01 0. -1.
         15    1    1    2    0    0 -0.38665152947E+01  0.12292854613E+01 -0.88096194979E+01  0.98604364999E+01  0.17770000000E+01 0.  1.
</event>
<event>
 6    1  0.1108180E-002  0.1843666E+03  0.7546771E-02  0.1066979E+00
        -11   -1    0    0    0    0  0.00000000000E+00  0.00000000000E+00  0.18250000000E+03  0.18250000000E+03  0.00000000000E+00 0. -1.
         11   -1    0    0    0    0 -0.00000000000E+00 -0.00000000000E+00 -0.18250000000E+03  0.18250000000E+03  0.00000000000E+00 0.  1.
        -11    1    1    2    0    0 -0.17634625228E+01  0.70804254119E+01  0.13509831932E+03  0.13529522574E+03  0.00000000000E+00 0. -1.
         11    1    1    2    0    0  0.23733130967E+01 -0.11417946882E+01 -0.18061423219E+03  0.18063343317E+03  0.00000000000E+00 0.  1.
        -15    1    1    2    0    0  0.44089092212E+01 -0.61721728608E+01  0.41931026098E+02  0.42648597597E+02  0.17770000000E+01 0. -1.
         15    1    1    2    0    0 -0.50187597952E+01  0.23354213715E+00  0.35848867738E+01  0.64227434942E+01  0.17770000000E+01 0.  1.
</event>
<event>
 6    1  0.1108180E-002  0.1740774E+03  0.7546771E-02  0.1075364E+00
        -11   -1    0    0    0    0  0.00000000000E+00  0.00000000000E+00  0.18250000000E+03  0.18250000000E+03  0.00000000000E+00 0.  1.
         11   -1    0    0    0    0 -0.00000000000E+00 -0.00000000000E+00 -0.18250000000E+03  0.18250000000E+03  0.00000000000E+00 0. -1.
        -11    1    1    2    0    0  0.43548756980E+00 -0.41300622390E+01  0.17584784318E+03  0.17589687608E+03  0.00000000000E+00 0.  1.
         11    1    1    2    0    0  0.11979450767E+02  0.22933790265E+01 -0.17207268653E+03  0.17250442394E+03  0.00000000000E+00 0. -1.
        -15    1    1    2    0    0 -0.11795207651E+01  0.26285074254E+01  0.18786713311E+01  0.38713635183E+01  0.17770000000E+01 0. -1.
         15    1    1    2    0    0 -0.11235417571E+02 -0.79182421289E+00 -0.56538279818E+01  0.12727336463E+02  0.17770000000E+01 0.  1.
</event>
<event>
 6    1  0.1108180E-002  0.1854683E+03  0.7546771E-02  0.1066116E+00
        -11   -1    0    0    0    0  0.00000000000E+00  0.00000000000E+00  0.18250000000E+03  0.18250000000E+03  0.00000000000E+00 0. -1.
         11   -1    0    0    0    0 -0.00000000000E+00 -0.00000000000E+00 -0.18250000000E+03  0.18250000000E+03  0.00000000000E+00 0. -1.
        -11    1    1    2    0    0 -0.26008444970E+01  0.44543561034E+00  0.17951229308E+03  0.17953168570E+03  0.00000000000E+00 0. -1.
         11    1    1    2    0    0 -0.20375204492E+01  0.33932525028E+01 -0.17556607726E+03  0.17561068629E+03  0.00000000000E+00 0. -1.
        -15    1    1    2    0    0  0.26463782773E+01 -0.11245129880E+01 -0.48814627546E+01  0.59375293743E+01  0.17770000000E+01 0.  1.
         15    1    1    2    0    0  0.19919866688E+01 -0.27141751252E+01  0.93524694293E+00  0.39200986395E+01  0.17770000000E+01 0. -1.
</event>
<event>
 6    1  0.1108180E-002  0.1647511E+03  0.7546771E-02  0.1083532E+00
        -11   -1    0    0    0    0  0.00000000000E+00  0.00000000000E+00  0.18250000000E+03  0.18250000000E+03  0.00000000000E+00 0.  1.
         11   -1    0    0    0    0 -0.00000000000E+00 -0.00000000000E+00 -0.18250000000E+03  0.18250000000E+03  0.00000000000E+00 0. -1.
        -11    1    1    2    0    0  0.13130548138E+02 -0.52144922615E+01  0.16720267665E+03  0.16779850209E+03  0.00000000000E+00 0.  1.
         11    1    1    2    0    0 -0.55189111627E+01 -0.11095718523E+01 -0.16179869650E+03  0.16189659576E+03  0.00000000000E+00 0. -1.
        -15    1    1    2    0    0  0.85835626678E+01  0.65384783498E+01 -0.13283585559E+02  0.17205831032E+02  0.17770000000E+01 0.  1.
         15    1    1    2    0    0 -0.16195199643E+02 -0.21441423610E+00  0.78796054057E+01  0.18099071117E+02  0.17770000000E+01 0. -1.
</event>
<event>
 6    1  0.1108180E-002  0.1985449E+03  0.7546771E-02  0.1056355E+00
        -11   -1    0    0    0    0  0.00000000000E+00  0.00000000000E+00  0.18250000000E+03  0.18250000000E+03  0.00000000000E+00 0.  1.
         11   -1    0    0    0    0 -0.00000000000E+00 -0.00000000000E+00 -0.18250000000E+03  0.18250000000E+03  0.00000000000E+00 0. -1.
        -11    1    1    2    0    0 -0.36756024316E+01  0.38294012766E+01  0.16637047825E+03  0.16645513029E+03  0.00000000000E+00 0.  1.
         11    1    1    2    0    0  0.23722111960E+01  0.13122547823E+01 -0.15571346030E+03  0.15573705763E+03  0.00000000000E+00 0. -1.
        -15    1    1    2    0    0 -0.38678657912E+01  0.11633162111E+01 -0.25446372753E+02  0.25826136097E+02  0.17770000000E+01 0.  1.
         15    1    1    2    0    0  0.51712570267E+01 -0.63049722699E+01  0.14789354809E+02  0.16981675984E+02  0.17770000000E+01 0. -1.
</event>
<event>
 6    1  0.1108180E-002  0.1842833E+03  0.7546771E-02  0.1067044E+00
        -11   -1    0    0    0    0  0.00000000000E+00  0.00000000000E+00  0.18250000000E+03  0.18250000000E+03  0.00000000000E+00 0.  1.
         11   -1    0    0    0    0 -0.00000000000E+00 -0.00000000000E+00 -0.18250000000E+03  0.18250000000E+03  0.00000000000E+00 0. -1.
        -11    1    1    2    0    0 -0.21013069354E+01 -0.21722608016E+01  0.11403436152E+03  0.11407440473E+03  0.00000000000E+00 0.  1.
         11    1    1    2    0    0 -0.97952520559E+01  0.43092084263E+01 -0.18039955085E+03  0.18071666826E+03  0.00000000000E+00 0. -1.
        -15    1    1    2    0    0 -0.21002930707E+01 -0.10679333184E+01  0.69534100182E+00  0.30319862573E+01  0.17770000000E+01 0.  1.
         15    1    1    2    0    0  0.13996852062E+02 -0.10690143063E+01  0.65669848332E+02  0.67176940747E+02  0.17770000000E+01 0.  1.
</event>
<event>
 6    1  0.1108180E-002  0.1791926E+03  0.7546771E-02  0.1071118E+00
        -11   -1    0    0    0    0  0.00000000000E+00  0.00000000000E+00  0.18250000000E+03  0.18250000000E+03  0.00000000000E+00 0.  1.
         11   -1    0    0    0    0 -0.00000000000E+00 -0.00000000000E+00 -0.18250000000E+03  0.18250000000E+03  0.00000000000E+00 0. -1.
        -11    1    1    2    0    0 -0.30717318651E+01  0.11707781836E+01  0.17930238715E+03  0.17933251879E+03  0.00000000000E+00 0.  1.
         11    1    1    2    0    0  0.84428642154E+00  0.30540774186E+01 -0.17905648987E+03  0.17908452410E+03  0.00000000000E+00 0. -1.
        -15    1    1    2    0    0  0.24209662056E+01 -0.35164579570E+01 -0.46555727675E+00  0.46476904490E+01  0.17770000000E+01 0.  1.
         15    1    1    2    0    0 -0.19352076199E+00 -0.70839764514E+00  0.21965999675E+00  0.19352666543E+01  0.17770000000E+01 0.  1.
</event>
<event>
 6    1  0.1108180E-002  0.1828903E+03  0.7546771E-02  0.1068145E+00
        -11   -1    0    0    0    0  0.00000000000E+00  0.00000000000E+00  0.18250000000E+03  0.18250000000E+03  0.00000000000E+00 0. -1.
         11   -1    0    0    0    0 -0.00000000000E+00 -0.00000000000E+00 -0.18250000000E+03  0.18250000000E+03  0.00000000000E+00 0. -1.
        -11    1    1    2    0    0  0.23565677805E+01  0.25832138814E+01  0.47557345135E+02  0.47685715701E+02  0.00000000000E+00 0. -1.
         11    1    1    2    0    0 -0.28894607969E+01  0.23081835914E+01 -0.18207217965E+03  0.18210973422E+03  0.00000000000E+00 0. -1.
        -15    1    1    2    0    0  0.56878126145E+01 -0.25387295126E+00  0.43230754207E+02  0.43640250940E+02  0.17770000000E+01 0.  1.
         15    1    1    2    0    0 -0.51549195981E+01 -0.46375245216E+01  0.91284080309E+02  0.91564299138E+02  0.17770000000E+01 0. -1.
</event>
<event>
 6    1  0.1108180E-002  0.1565225E+03  0.7546771E-02  0.1091247E+00
        -11   -1    0    0    0    0  0.00000000000E+00  0.00000000000E+00  0.18250000000E+03  0.18250000000E+03  0.00000000000E+00 0. -1.
         11   -1    0    0    0    0 -0.00000000000E+00 -0.00000000000E+00 -0.18250000000E+03  0.18250000000E+03  0.00000000000E+00 0.  1.
        -11    1    1    2    0    0 -0.37909540777E+01 -0.45523077585E+01  0.15272866608E+03  0.15284351567E+03  0.00000000000E+00 0. -1.
         11    1    1    2    0    0  0.13741532354E+02 -0.49882086729E+01 -0.15992059401E+03  0.16058738533E+03  0.00000000000E+00 0.  1.
        -15    1    1    2    0    0 -0.14577449484E+01  0.12600193259E+02 -0.19503276337E+02  0.23332925392E+02  0.17770000000E+01 0. -1.
         15    1    1    2    0    0 -0.84928333275E+01 -0.30596768277E+01  0.26695204266E+02  0.28236173608E+02  0.17770000000E+01 0.  1.
</event>
<event>
 6    1  0.1108180E-002  0.1826296E+03  0.7546771E-02  0.1068352E+00
        -11   -1    0    0    0    0  0.00000000000E+00  0.00000000000E+00  0.18250000000E+03  0.18250000000E+03  0.00000000000E+00 0.  1.
         11   -1    0    0    0    0 -0.00000000000E+00 -0.00000000000E+00 -0.18250000000E+03  0.18250000000E+03  0.00000000000E+00 0. -1.
        -11    1    1    2    0    0 -0.13065412296E+01  0.11211170871E+01  0.96052884552E+02  0.96068312071E+02  0.00000000000E+00 0.  1.
         11    1    1    2    0    0 -0.22396991728E+01 -0.10306575021E+01 -0.18235368525E+03  0.18237035129E+03  0.00000000000E+00 0. -1.
        -15    1    1    2    0    0  0.32640038171E+01 -0.13451799834E+01  0.70282153666E+02  0.70393196284E+02  0.17770000000E+01 0. -1.
         15    1    1    2    0    0  0.28223658530E+00  0.12547203985E+01  0.16018647030E+02  0.16168140352E+02  0.17770000000E+01 0.  1.
</event>
<event>
 6    1  0.1108180E-002  0.1854108E+03  0.7546771E-02  0.1066161E+00
        -11   -1    0    0    0    0  0.00000000000E+00  0.00000000000E+00  0.18250000000E+03  0.18250000000E+03  0.00000000000E+00 0.  1.
         11   -1    0    0    0    0 -0.00000000000E+00 -0.00000000000E+00 -0.18250000000E+03  0.18250000000E+03  0.00000000000E+00 0. -1.
        -11    1    1    2    0    0 -0.34174116817E+01  0.43460414407E+00  0.17955611296E+03  0.17958915693E+03  0.00000000000E+00 0.  1.
         11    1    1    2    0    0 -0.19265872270E+01 -0.80637321199E+00 -0.14345787846E+03  0.14347308064E+03  0.00000000000E+00 0. -1.
        -15    1    1    2    0    0  0.35314174101E+01  0.15311823050E+01 -0.38206070743E+02  0.38440564496E+02  0.17770000000E+01 0.  1.
         15    1    1    2    0    0  0.18125814986E+01 -0.11594132371E+01  0.21078362436E+01  0.34971979316E+01  0.17770000000E+01 0.  1.
</event>
<event>
 6    1  0.1108180E-002  0.1828027E+03  0.7546771E-02  0.1068214E+00
        -11   -1    0    0    0    0  0.00000000000E+00  0.00000000000E+00  0.18250000000E+03  0.18250000000E+03  0.00000000000E+00 0.  1.
         11   -1    0    0    0    0 -0.00000000000E+00 -0.00000000000E+00 -0.18250000000E+03  0.18250000000E+03  0.00000000000E+00 0. -1.
        -11    1    1    2    0    0  0.29104409853E+01  0.95925497863E-01  0.18217400677E+03  0.18219727937E+03  0.00000000000E+00 0.  1.
         11    1    1    2    0    0  0.13645996728E+01  0.24436073698E+01 -0.10969860175E+03  0.10973429990E+03  0.00000000000E+00 0. -1.
        -15    1    1    2    0    0  0.11729864378E+01 -0.28132409787E+01 -0.25038328835E+02  0.25285684919E+02  0.17770000000E+01 0. -1.
         15    1    1    2    0    0 -0.54480270958E+01  0.27370811101E+00 -0.47437076185E+02  0.47782735808E+02  0.17770000000E+01 0. -1.
</event>
<event>
 6    1  0.1108180E-002  0.1881386E+03  0.7546771E-02  0.1064053E+00
        -11   -1    0    0    0    0  0.00000000000E+00  0.00000000000E+00  0.18250000000E+03  0.18250000000E+03  0.00000000000E+00 0. -1.
         11   -1    0    0    0    0 -0.00000000000E+00 -0.00000000000E+00 -0.18250000000E+03  0.18250000000E+03  0.00000000000E+00 0.  1.
        -11    1    1    2    0    0  0.17806276658E+02 -0.14056772609E+02  0.17540037913E+03  0.17686138455E+03  0.00000000000E+00 0. -1.
         11    1    1    2    0    0 -0.45062442908E+01 -0.35937308451E+01 -0.86848997907E+02  0.87040045821E+02  0.00000000000E+00 0.  1.
        -15    1    1    2    0    0 -0.13160967021E+02  0.41260420305E+01 -0.26951069662E+01  0.14165331141E+02  0.17770000000E+01 0. -1.
         15    1    1    2    0    0 -0.13906534626E+00  0.13524461424E+02 -0.85856274258E+02  0.86933238491E+02  0.17770000000E+01 0.  1.
</event>
<event>
 6    1  0.1108180E-002  0.1631150E+03  0.7546771E-02  0.1085026E+00
        -11   -1    0    0    0    0  0.00000000000E+00  0.00000000000E+00  0.18250000000E+03  0.18250000000E+03  0.00000000000E+00 0. -1.
         11   -1    0    0    0    0 -0.00000000000E+00 -0.00000000000E+00 -0.18250000000E+03  0.18250000000E+03  0.00000000000E+00 0.  1.
        -11    1    1    2    0    0 -0.77745282612E+01 -0.25466043913E+01  0.16288774697E+03  0.16309306115E+03  0.00000000000E+00 0. -1.
         11    1    1    2    0    0 -0.96713452150E+01  0.57922604789E+01 -0.16323048262E+03  0.16361930099E+03  0.00000000000E+00 0.  1.
        -15    1    1    2    0    0 -0.83654862690E+01 -0.83069232521E+01  0.22306855760E+00  0.11924505148E+02  0.17770000000E+01 0. -1.
         15    1    1    2    0    0  0.25811359745E+02  0.50612671645E+01  0.11966709514E+00  0.26363132713E+02  0.17770000000E+01 0.  1.
</event>
<event>
 6    1  0.1108180E-002  0.2006831E+03  0.7546771E-02  0.1054837E+00
        -11   -1    0    0    0    0  0.00000000000E+00  0.00000000000E+00  0.18250000000E+03  0.18250000000E+03  0.00000000000E+00 0.  1.
         11   -1    0    0    0    0 -0.00000000000E+00 -0.00000000000E+00 -0.18250000000E+03  0.18250000000E+03  0.00000000000E+00 0.  1.
        -11    1    1    2    0    0  0.62532225546E+00  0.19891236915E+01  0.14945606946E+03  0.14947061363E+03  0.00000000000E+00 0.  1.
         11    1    1    2    0    0  0.86930049022E+01 -0.10807820102E+02 -0.16373049965E+03  0.16431693103E+03  0.00000000000E+00 0.  1.
        -15    1    1    2    0    0 -0.17833936559E+02  0.15618797978E+02  0.25915606627E+02  0.35167777003E+02  0.17770000000E+01 0.  1.
         15    1    1    2    0    0  0.85156094018E+01 -0.68001015669E+01 -0.11641176440E+02  0.16044678330E+02  0.17770000000E+01 0. -1.
</event>
<event>
 6    1  0.1108180E-002  0.1853283E+03  0.7546771E-02  0.1066226E+00
        -11   -1    0    0    0    0  0.00000000000E+00  0.00000000000E+00  0.18250000000E+03  0.18250000000E+03  0.00000000000E+00 0. -1.
         11   -1    0    0    0    0 -0.00000000000E+00 -0.00000000000E+00 -0.18250000000E+03  0.18250000000E+03  0.00000000000E+00 0. -1.
        -11    1    1    2    0    0  0.25854025447E+01 -0.37216548377E+01  0.17961459487E+03  0.17967174990E+03  0.00000000000E+00 0. -1.
         11    1    1    2    0    0 -0.10706511563E+01  0.32745589947E+01 -0.13570692301E+03  0.13575064635E+03  0.00000000000E+00 0. -1.
        -15    1    1    2    0    0  0.12972385550E+01  0.33741616870E+00 -0.45729327726E+02  0.45783466676E+02  0.17770000000E+01 0.  1.
         15    1    1    2    0    0 -0.28119899434E+01  0.10967967431E+00  0.18216558692E+01  0.37941370796E+01  0.17770000000E+01 0. -1.
</event>
<event>
 6    1  0.1108180E-002  0.1831477E+03  0.7546771E-02  0.1067940E+00
        -11   -1    0    0    0    0  0.00000000000E+00  0.00000000000E+00  0.18250000000E+03  0.18250000000E+03  0.00000000000E+00 0. -1.
         11   -1    0    0    0    0 -0.00000000000E+00 -0.00000000000E+00 -0.18250000000E+03  0.18250000000E+03  0.00000000000E+00 0.  1.
        -11    1    1    2    0    0  0.35424450628E+01 -0.39487670212E+01  0.84398401704E+02  0.84564956620E+02  0.00000000000E+00 0. -1.
         11    1    1    2    0    0 -0.49161679620E+01  0.39074213149E+01 -0.18174383181E+03  0.18185229460E+03  0.00000000000E+00 0.  1.
        -15    1    1    2    0    0 -0.13184368353E+01 -0.11755481787E+00  0.93644716397E+02  0.93670927896E+02  0.17770000000E+01 0. -1.
         15    1    1    2    0    0  0.26921597346E+01  0.15890052411E+00  0.37007137127E+01  0.49118208840E+01  0.17770000000E+01 0.  1.
</event>
<event>
 6    1  0.1108180E-002  0.1870316E+03  0.7546771E-02  0.1064904E+00
        -11   -1    0    0    0    0  0.00000000000E+00  0.00000000000E+00  0.18250000000E+03  0.18250000000E+03  0.00000000000E+00 0.  1.
         11   -1    0    0    0    0 -0.00000000000E+00 -0.00000000000E+00 -0.18250000000E+03  0.18250000000E+03  0.00000000000E+00 0.  1.
        -11    1    1    2    0    0 -0.32377157836E+01  0.53109045118E+01  0.14740412311E+03  0.14753529754E+03  0.00000000000E+00 0.  1.
         11    1    1    2    0    0 -0.29332736623E+01  0.26713096292E+01 -0.17792414583E+03  0.17796837264E+03  0.00000000000E+00 0.  1.
        -15    1    1    2    0    0  0.31036986640E+01 -0.15777827285E+02  0.16801373053E+02  0.23324164395E+02  0.17770000000E+01 0.  1.
         15    1    1    2    0    0  0.30672907820E+01  0.77956131440E+01  0.13718649663E+02  0.16172165427E+02  0.17770000000E+01 0. -1.
</event>
<event>
 6    1  0.1108180E-002  0.1840172E+03  0.7546771E-02  0.1067253E+00
        -11   -1    0    0    0    0  0.00000000000E+00  0.00000000000E+00  0.18250000000E+03  0.18250000000E+03  0.00000000000E+00 0. -1.
         11   -1    0    0    0    0 -0.00000000000E+00 -0.00000000000E+00 -0.18250000000E+03  0.18250000000E+03  0.00000000000E+00 0. -1.
        -11    1    1    2    0    0 -0.21986889033E+00 -0.81044454416E+01  0.15164293439E+03  0.15185950720E+03  0.00000000000E+00 0. -1.
         11    1    1    2    0    0  0.30469398018E+01  0.55029894843E+00 -0.18095628757E+03  0.18098277454E+03  0.00000000000E+00 0. -1.
        -15    1    1    2    0    0 -0.85286080191E-01  0.81002378311E+01  0.26639676211E+02  0.27900738418E+02  0.17770000000E+01 0. -1.
         15    1    1    2    0    0 -0.27417848312E+01 -0.54609133792E+00  0.26736769672E+01  0.42569798373E+01  0.17770000000E+01 0.  1.
</event>
<event>
 6    1  0.1108180E-002  0.1836872E+03  0.7546771E-02  0.1067514E+00
        -11   -1    0    0    0    0  0.00000000000E+00  0.00000000000E+00  0.18250000000E+03  0.18250000000E+03  0.00000000000E+00 0.  1.
         11   -1    0    0    0    0 -0.00000000000E+00 -0.00000000000E+00 -0.18250000000E+03  0.18250000000E+03  0.00000000000E+00 0. -1.
        -11    1    1    2    0    0  0.20029558410E+01 -0.50715444947E+00  0.13526657365E+03  0.13528235282E+03  0.00000000000E+00 0.  1.
         11    1    1    2    0    0  0.29103946137E+01 -0.44765537419E+01 -0.18123414531E+03  0.18131278321E+03  0.00000000000E+00 0. -1.
        -15    1    1    2    0    0 -0.11510321755E+01 -0.15821762810E+00  0.37957036533E+02  0.38016368307E+02  0.17770000000E+01 0. -1.
         15    1    1    2    0    0 -0.37623182792E+01  0.51419258194E+01  0.80105351257E+01  0.10388495655E+02  0.17770000000E+01 0.  1.
</event>
<event>
 6    1  0.1108180E-002  0.1829163E+03  0.7546771E-02  0.1068124E+00
        -11   -1    0    0    0    0  0.00000000000E+00  0.00000000000E+00  0.18250000000E+03  0.18250000000E+03  0.00000000000E+00 0. -1.
         11   -1    0    0    0    0 -0.00000000000E+00 -0.00000000000E+00 -0.18250000000E+03  0.18250000000E+03  0.00000000000E+00 0.  1.
        -11    1    1    2    0    0 -0.34335429918E+00 -0.69715573333E+00  0.24291872625E+02  0.24304299906E+02  0.00000000000E+00 0. -1.
         11    1    1    2    0    0  0.82962391429E+01 -0.16387179958E+02 -0.18115497207E+03  0.18208374765E+03  0.00000000000E+00 0.  1.
        -15    1    1    2    0    0 -0.23031546000E+01  0.47225332659E+01  0.98689698816E+02  0.98845441083E+02  0.17770000000E+01 0. -1.
         15    1    1    2    0    0 -0.56497302437E+01  0.12361802425E+02  0.58173400629E+02  0.59766511365E+02  0.17770000000E+01 0.  1.
</event>
<event>
 6    1  0.1108180E-002  0.1836574E+03  0.7546771E-02  0.1067537E+00
        -11   -1    0    0    0    0  0.00000000000E+00  0.00000000000E+00  0.18250000000E+03  0.18250000000E+03  0.00000000000E+00 0.  1.
         11   -1    0    0    0    0 -0.00000000000E+00 -0.00000000000E+00 -0.18250000000E+03  0.18250000000E+03  0.00000000000E+00 0.  1.
        -11    1    1    2    0    0  0.14018267237E+01  0.54239593044E+01  0.18125609194E+03  0.18134264617E+03  0.00000000000E+00 0.  1.
         11    1    1    2    0    0 -0.40032361971E+01  0.43558195052E+01 -0.14302843225E+03  0.14315072998E+03  0.00000000000E+00 0.  1.
        -15    1    1    2    0    0  0.23547661925E+01 -0.93387338898E+01 -0.20900806982E+02  0.23081558353E+02  0.17770000000E+01 0.  1.
         15    1    1    2    0    0  0.24664328090E+00 -0.44104491977E+00 -0.17326852716E+02  0.17425065496E+02  0.17770000000E+01 0. -1.
</event>
<event>
 6    1  0.1108180E-002  0.1845224E+03  0.7546771E-02  0.1066856E+00
        -11   -1    0    0    0    0  0.00000000000E+00  0.00000000000E+00  0.18250000000E+03  0.18250000000E+03  0.00000000000E+00 0. -1.
         11   -1    0    0    0    0 -0.00000000000E+00 -0.00000000000E+00 -0.18250000000E+03  0.18250000000E+03  0.00000000000E+00 0.  1.
        -11    1    1    2    0    0  0.35176376218E+01 -0.85756947613E+00  0.16201494422E+03  0.16205539593E+03  0.00000000000E+00 0. -1.
         11    1    1    2    0    0 -0.67172797982E+01 -0.17656132289E+01 -0.18034389995E+03  0.18047759275E+03  0.00000000000E+00 0.  1.
        -15    1    1    2    0    0  0.30566783588E+01  0.79857169630E+00  0.19374094690E+02  0.19710258076E+02  0.17770000000E+01 0. -1.
         15    1    1    2    0    0  0.14296381762E+00  0.18246110087E+01 -0.10451389598E+01  0.27567532409E+01  0.17770000000E+01 0.  1.
</event>
<event>
 6    1  0.1108180E-002  0.1831786E+03  0.7546771E-02  0.1067916E+00
        -11   -1    0    0    0    0  0.00000000000E+00  0.00000000000E+00  0.18250000000E+03  0.18250000000E+03  0.00000000000E+00 0.  1.
         11   -1    0    0    0    0 -0.00000000000E+00 -0.00000000000E+00 -0.18250000000E+03  0.18250000000E+03  0.00000000000E+00 0.  1.
        -11    1    1    2    0    0 -0.11723712801E+01 -0.18635383247E+01  0.14646491150E+03  0.14648145797E+03  0.00000000000E+00 0.  1.
         11    1    1    2    0    0 -0.54972727845E+01 -0.86272851248E+00 -0.18173627395E+03  0.18182144422E+03  0.00000000000E+00 0.  1.
        -15    1    1    2    0    0  0.78159449222E+00 -0.16727383081E+01  0.94572753551E+01  0.97983023805E+01  0.17770000000E+01 0. -1.
         15    1    1    2    0    0  0.58880495723E+01  0.43990051452E+01  0.25814087097E+02  0.26898795432E+02  0.17770000000E+01 0.  1.
</event>
<event>
 6    1  0.1108180E-002  0.1851084E+03  0.7546771E-02  0.1066397E+00
        -11   -1    0    0    0    0  0.00000000000E+00  0.00000000000E+00  0.18250000000E+03  0.18250000000E+03  0.00000000000E+00 0. -1.
         11   -1    0    0    0    0 -0.00000000000E+00 -0.00000000000E+00 -0.18250000000E+03  0.18250000000E+03  0.00000000000E+00 0.  1.
        -11    1    1    2    0    0 -0.39770518948E+00 -0.90791437230E+00  0.67016840038E+02  0.67024169720E+02  0.00000000000E+00 0. -1.
         11    1    1    2    0    0 -0.14925968580E+00 -0.32530343734E+01 -0.17986214858E+03  0.17989162572E+03  0.00000000000E+00 0.  1.
        -15    1    1    2    0    0 -0.95277305697E+01 -0.89296569710E+01  0.21327706043E+02  0.25070803686E+02  0.17770000000E+01 0.  1.
         15    1    1    2    0    0  0.10074695445E+02  0.13090605717E+02  0.91517602500E+02  0.93013400877E+02  0.17770000000E+01 0. -1.
</event>
<event>
 6    1  0.1108180E-002  0.1828749E+03  0.7546771E-02  0.1068157E+00
        -11   -1    0    0    0    0  0.00000000000E+00  0.00000000000E+00  0.18250000000E+03  0.18250000000E+03  0.00000000000E+00 0. -1.
         11   -1    0    0    0    0 -0.00000000000E+00 -0.00000000000E+00 -0.18250000000E+03  0.18250000000E+03  0.00000000000E+00 0. -1.
        -11    1    1    2    0    0 -0.48453111836E+01  0.48766803214E+01  0.18199530882E+03  0.18212509845E+03  0.00000000000E+00 0. -1.
         11    1    1    2    0    0  0.14881409786E+01 -0.26679209642E+00 -0.10034797015E+03  0.10035935858E+03  0.00000000000E+00 0. -1.
        -15    1    1    2    0    0 -0.27034726068E+01 -0.15820134110E+01 -0.48646556397E+02  0.48779675161E+02  0.17770000000E+01 0. -1.
         15    1    1    2    0    0  0.60606428118E+01 -0.30278748140E+01 -0.33000782275E+02  0.33735867810E+02  0.17770000000E+01 0.  1.
</event>
<event>
 6    1  0.1108180E-002  0.1862960E+03  0.7546771E-02  0.1065473E+00
        -11   -1    0    0    0    0  0.00000000000E+00  0.00000000000E+00  0.18250000000E+03  0.18250000000E+03  0.00000000000E+00 0.  1.
         11   -1    0    0    0    0 -0.00000000000E+00 -0.00000000000E+00 -0.18250000000E+03  0.18250000000E+03  0.00000000000E+00 0.  1.
        -11    1    1    2    0    0  0.32985898485E+01 -0.13795996792E+00  0.15549940279E+03  0.15553444633E+03  0.00000000000E+00 0.  1.
         11    1    1    2    0    0 -0.29770251165E+01 -0.12359972721E+01 -0.17867491746E+03  0.17870399127E+03  0.00000000000E+00 0.  1.
        -15    1    1    2    0    0  0.41558515061E+01  0.55089614910E+01  0.42124991296E+00  0.71382728261E+01  0.17770000000E+01 0. -1.
         15    1    1    2    0    0 -0.44774162381E+01 -0.41350042510E+01  0.22754264759E+02  0.23623289569E+02  0.17770000000E+01 0.  1.
</event>
<event>
 6    1  0.1108180E-002  0.1920741E+03  0.7546771E-02  0.1061079E+00
        -11   -1    0    0    0    0  0.00000000000E+00  0.00000000000E+00  0.18250000000E+03  0.18250000000E+03  0.00000000000E+00 0. -1.
         11   -1    0    0    0    0 -0.00000000000E+00 -0.00000000000E+00 -0.18250000000E+03  0.18250000000E+03  0.00000000000E+00 0. -1.
        -11    1    1    2    0    0 -0.71445951885E+01 -0.34330610286E+01  0.13250848254E+03  0.13274535432E+03  0.00000000000E+00 0. -1.
         11    1    1    2    0    0 -0.54667784162E+01 -0.18692301023E+02 -0.17182575798E+03  0.17292593469E+03  0.00000000000E+00 0. -1.
        -15    1    1    2    0    0 -0.61355236414E+01  0.18090420405E+02  0.34502349928E+02  0.39477561225E+02  0.17770000000E+01 0. -1.
         15    1    1    2    0    0  0.18746897246E+02  0.40349416464E+01  0.48149255108E+01  0.19851149768E+02  0.17770000000E+01 0.  1.
</event>
<event>
 6    1  0.1108180E-002  0.1831257E+03  0.7546771E-02  0.1067958E+00
        -11   -1    0    0    0    0  0.00000000000E+00  0.00000000000E+00  0.18250000000E+03  0.18250000000E+03  0.00000000000E+00 0. -1.
         11   -1    0    0    0    0 -0.00000000000E+00 -0.00000000000E+00 -0.18250000000E+03  0.18250000000E+03  0.00000000000E+00 0. -1.
        -11    1    1    2    0    0  0.25425141391E+01 -0.65018761300E+01  0.18174029040E+03  0.18187433004E+03  0.00000000000E+00 0. -1.
         11    1    1    2    0    0  0.17618791377E+01  0.61973779473E+01 -0.76135050873E+02  0.76407183451E+02  0.00000000000E+00 0. -1.
        -15    1    1    2    0    0 -0.14881102005E+01 -0.40568341286E+01 -0.90945270101E+02  0.91065208822E+02  0.17770000000E+01 0. -1.
         15    1    1    2    0    0 -0.28162830763E+01  0.43613323113E+01 -0.14659969427E+02  0.15653277691E+02  0.17770000000E+01 0. -1.
</event>
<event>
 6    1  0.1108180E-002  0.1831545E+03  0.7546771E-02  0.1067935E+00
        -11   -1    0    0    0    0  0.00000000000E+00  0.00000000000E+00  0.18250000000E+03  0.18250000000E+03  0.00000000000E+00 0. -1.
         11   -1    0    0    0    0 -0.00000000000E+00 -0.00000000000E+00 -0.18250000000E+03  0.18250000000E+03  0.00000000000E+00 0. -1.
        -11    1    1    2    0    0 -0.55327816736E+01 -0.14191793868E+00  0.18176128399E+03  0.18184552832E+03  0.00000000000E+00 0. -1.
         11    1    1    2    0    0 -0.30702488255E+01  0.86551095798E+00 -0.12226448262E+03  0.12230608835E+03  0.00000000000E+00 0. -1.
        -15    1    1    2    0    0  0.75107679705E+01  0.16469090083E+01 -0.53423990980E+02  0.54003745111E+02  0.17770000000E+01 0. -1.
         15    1    1    2    0    0  0.10922625286E+01 -0.23705020276E+01 -0.60728103887E+01  0.68446382163E+01  0.17770000000E+01 0. -1.
</event>
<event>
 6    1  0.1108180E-002  0.1837641E+03  0.7546771E-02  0.1067453E+00
        -11   -1    0    0    0    0  0.00000000000E+00  0.00000000000E+00  0.18250000000E+03  0.18250000000E+03  0.00000000000E+00 0. -1.
         11   -1    0    0    0    0 -0.00000000000E+00 -0.00000000000E+00 -0.18250000000E+03  0.18250000000E+03  0.00000000000E+00 0. -1.
        -11    1    1    2    0    0 -0.24418099366E+00  0.45361793964E+01  0.18117896074E+03  0.18123590252E+03  0.00000000000E+00 0. -1.
         11    1    1    2    0    0 -0.33765213706E+01 -0.13443772861E+01 -0.15193265623E+03  0.15197611745E+03  0.00000000000E+00 0. -1.
        -15    1    1    2    0    0 -0.42603656489E+00 -0.23011509476E+01 -0.88254781221E+00  0.30681301275E+01  0.17770000000E+01 0.  1.
         15    1    1    2    0    0  0.40467389291E+01 -0.89065116267E+00 -0.28363756699E+02  0.28719849904E+02  0.17770000000E+01 0. -1.
</event>
<event>
 6    1  0.1108180E-002  0.1831689E+03  0.7546771E-02  0.1067924E+00
        -11   -1    0    0    0    0  0.00000000000E+00  0.00000000000E+00  0.18250000000E+03  0.18250000000E+03  0.00000000000E+00 0. -1.
         11   -1    0    0    0    0 -0.00000000000E+00 -0.00000000000E+00 -0.18250000000E+03  0.18250000000E+03  0.00000000000E+00 0. -1.
        -11    1    1    2    0    0  0.34311854993E+01 -0.16896227984E+01  0.16509058725E+03  0.16513488384E+03  0.00000000000E+00 0. -1.
         11    1    1    2    0    0 -0.38203918454E+01  0.17106115020E+01 -0.18178288378E+03  0.18183107111E+03  0.00000000000E+00 0. -1.
        -15    1    1    2    0    0  0.10454079450E+01 -0.22478663574E+01  0.12843784081E+02  0.13200996154E+02  0.17770000000E+01 0.  1.
         15    1    1    2    0    0 -0.65620159890E+00  0.22268776538E+01  0.38485124460E+01  0.48330489000E+01  0.17770000000E+01 0.  1.
</event>
<event>
 6    1  0.1108180E-002  0.1854265E+03  0.7546771E-02  0.1066149E+00
        -11   -1    0    0    0    0  0.00000000000E+00  0.00000000000E+00  0.18250000000E+03  0.18250000000E+03  0.00000000000E+00 0.  1.
         11   -1    0    0    0    0 -0.00000000000E+00 -0.00000000000E+00 -0.18250000000E+03  0.18250000000E+03  0.00000000000E+00 0. -1.
        -11    1    1    2    0    0 -0.77959897839E+00  0.22392906015E+01  0.17338944268E+03  0.17340565455E+03  0.00000000000E+00 0.  1.
         11    1    1    2    0    0  0.17864474352E+01  0.16341298457E+01 -0.17955719304E+03  0.17957351516E+03  0.00000000000E+00 0. -1.
        -15    1    1    2    0    0  0.87077592618E+00 -0.37284325225E+01  0.78641435806E+01  0.89253539451E+01  0.17770000000E+01 0.  1.
         15    1    1    2    0    0 -0.18776243830E+01 -0.14498792470E+00 -0.16963932240E+01  0.30954763433E+01  0.17770000000E+01 0. -1.
</event>
<event>
 6    1  0.1108180E-002  0.1827574E+03  0.7546771E-02  0.1068250E+00
        -11   -1    0    0    0    0  0.00000000000E+00  0.00000000000E+00  0.18250000000E+03  0.18250000000E+03  0.00000000000E+00 0. -1.
         11   -1    0    0    0    0 -0.00000000000E+00 -0.00000000000E+00 -0.18250000000E+03  0.18250000000E+03  0.00000000000E+00 0. -1.
        -11    1    1    2    0    0 -0.55231453174E+01  0.37766032063E+01  0.18211975809E+03  0.18224262441E+03  0.00000000000E+00 0. -1.
         11    1    1    2    0    0 -0.82054238948E+00  0.15389558907E+01 -0.61516713377E+02  0.61541430758E+02  0.00000000000E+00 0. -1.
        -15    1    1    2    0    0  0.27249268696E+01  0.17730542779E+01 -0.26091636545E+02  0.26353371217E+02  0.17770000000E+01 0.  1.
         15    1    1    2    0    0  0.36187608373E+01 -0.70886133749E+01 -0.94511408168E+02  0.94862573613E+02  0.17770000000E+01 0. -1.
</event>
<event>
 6    1  0.1108180E-002  0.1834190E+03  0.7546771E-02  0.1067726E+00
        -11   -1    0    0    0    0  0.00000000000E+00  0.00000000000E+00  0.18250000000E+03  0.18250000000E+03  0.00000000000E+00 0. -1.
         11   -1    0    0    0    0 -0.00000000000E+00 -0.00000000000E+00 -0.18250000000E+03  0.18250000000E+03  0.00000000000E+00 0. -1.
        -11    1    1    2    0    0  0.17265349676E+01  0.23794693222E+01  0.13950235575E+03  0.13953332955E+03  0.00000000000E+00 0. -1.
         11    1    1    2    0    0  0.26619953243E+01  0.13895554373E+00 -0.18156146024E+03  0.18158102702E+03  0.00000000000E+00 0. -1.
        -15    1    1    2    0    0 -0.59706871661E+01 -0.87164345110E+00  0.10840894470E+02  0.12533618370E+02  0.17770000000E+01 0.  1.
         15    1    1    2    0    0  0.15821568742E+01 -0.16467814148E+01  0.31218210021E+02  0.31352025060E+02  0.17770000000E+01 0.  1.
</event>
<event>
 6    1  0.1108180E-002  0.1876142E+03  0.7546771E-02  0.1064455E+00
        -11   -1    0    0    0    0  0.00000000000E+00  0.00000000000E+00  0.18250000000E+03  0.18250000000E+03  0.00000000000E+00 0.  1.
         11   -1    0    0    0    0 -0.00000000000E+00 -0.00000000000E+00 -0.18250000000E+03  0.18250000000E+03  0.00000000000E+00 0. -1.
        -11    1    1    2    0    0 -0.38008329895E+01 -0.31376234726E+01  0.17731735637E+03  0.17738583901E+03  0.00000000000E+00 0.  1.
         11    1    1    2    0    0 -0.17121391040E+01 -0.23252874604E+01 -0.12856243791E+03  0.12859486313E+03  0.00000000000E+00 0. -1.
        -15    1    1    2    0    0  0.35264999450E+01  0.11583243869E+02 -0.50627929348E+02  0.52086012512E+02  0.17770000000E+01 0. -1.
         15    1    1    2    0    0  0.19864721485E+01 -0.61203329355E+01  0.18730108921E+01  0.69332853424E+01  0.17770000000E+01 0.  1.
</event>
<event>
 6    1  0.1108180E-002  0.1891314E+03  0.7546771E-02  0.1063295E+00
        -11   -1    0    0    0    0  0.00000000000E+00  0.00000000000E+00  0.18250000000E+03  0.18250000000E+03  0.00000000000E+00 0.  1.
         11   -1    0    0    0    0 -0.00000000000E+00 -0.00000000000E+00 -0.18250000000E+03  0.18250000000E+03  0.00000000000E+00 0.  1.
        -11    1    1    2    0    0  0.56444567860E+01 -0.39408279199E+01  0.17573385646E+03  0.17586863940E+03  0.00000000000E+00 0.  1.
         11    1    1    2    0    0 -0.16700480326E+01 -0.10437010410E+02 -0.17367868309E+02  0.20331332872E+02  0.00000000000E+00 0.  1.
        -15    1    1    2    0    0 -0.28136369102E+01  0.10618073441E+02 -0.77972287987E+00  0.11154628323E+02  0.17770000000E+01 0.  1.
         15    1    1    2    0    0 -0.11607718432E+01  0.37597648895E+01 -0.15758626527E+03  0.15764539941E+03  0.17770000000E+01 0.  1.
</event>
<event>
 6    1  0.1108180E-002  0.1829958E+03  0.7546771E-02  0.1068061E+00
        -11   -1    0    0    0    0  0.00000000000E+00  0.00000000000E+00  0.18250000000E+03  0.18250000000E+03  0.00000000000E+00 0.  1.
         11   -1    0    0    0    0 -0.00000000000E+00 -0.00000000000E+00 -0.18250000000E+03  0.18250000000E+03  0.00000000000E+00 0.  1.
        -11    1    1    2    0    0 -0.30148209761E+01 -0.12150147624E+01  0.18197516938E+03  0.18200419687E+03  0.00000000000E+00 0.  1.
         11    1    1    2    0    0  0.50022128558E+01  0.13512448369E+01 -0.14238665460E+03  0.14248090189E+03  0.00000000000E+00 0.  1.
        -15    1    1    2    0    0  0.21274279370E+01 -0.18990973627E+00 -0.58089129886E+01  0.64391936175E+01  0.17770000000E+01 0.  1.
         15    1    1    2    0    0 -0.41148198166E+01  0.53679661706E-01 -0.33779601791E+02  0.34075707620E+02  0.17770000000E+01 0. -1.
</event>
<event>
 6    1  0.1108180E-002  0.1835588E+03  0.7546771E-02  0.1067615E+00
        -11   -1    0    0    0    0  0.00000000000E+00  0.00000000000E+00  0.18250000000E+03  0.18250000000E+03  0.00000000000E+00 0.  1.
         11   -1    0    0    0    0 -0.00000000000E+00 -0.00000000000E+00 -0.18250000000E+03  0.18250000000E+03  0.00000000000E+00 0. -1.
        -11    1    1    2    0    0  0.32830051315E+01  0.96076510582E+00  0.16933557808E+03  0.16937012486E+03  0.00000000000E+00 0.  1.
         11    1    1    2    0    0 -0.24536931672E+01 -0.23043825668E+01 -0.18140992524E+03  0.18144115235E+03  0.00000000000E+00 0. -1.
        -15    1    1    2    0    0 -0.31913195328E+01 -0.83618064593E+00  0.67541054388E+01  0.77239489713E+01  0.17770000000E+01 0. -1.
         15    1    1    2    0    0  0.23620075686E+01  0.21797981069E+01  0.53202417199E+01  0.64647738166E+01  0.17770000000E+01 0. -1.
</event>
<event>
 6    1  0.1108180E-002  0.1888761E+03  0.7546771E-02  0.1063490E+00
        -11   -1    0    0    0    0  0.00000000000E+00  0.00000000000E+00  0.18250000000E+03  0.18250000000E+03  0.00000000000E+00 0.  1.
         11   -1    0    0    0    0 -0.00000000000E+00 -0.00000000000E+00 -0.18250000000E+03  0.18250000000E+03  0.00000000000E+00 0. -1.
        -11    1    1    2    0    0 -0.70278789882E+01 -0.16416480768E+01  0.99117317920E+02  0.99379720281E+02  0.00000000000E+00 0.  1.
         11    1    1    2    0    0 -0.33068841773E+01 -0.41076932691E+01 -0.17604492019E+03  0.17612388411E+03  0.00000000000E+00 0. -1.
        -15    1    1    2    0    0  0.30132111870E+01 -0.15257856201E+02  0.91336729710E+01  0.18123557279E+02  0.17770000000E+01 0. -1.
         15    1    1    2    0    0  0.73215519786E+01  0.21007197547E+02  0.67793929303E+02  0.71372838332E+02  0.17770000000E+01 0.  1.
</event>
<event>
 6    1  0.1108180E-002  0.1875032E+03  0.7546771E-02  0.1064541E+00
        -11   -1    0    0    0    0  0.00000000000E+00  0.00000000000E+00  0.18250000000E+03  0.18250000000E+03  0.00000000000E+00 0.  1.
         11   -1    0    0    0    0 -0.00000000000E+00 -0.00000000000E+00 -0.18250000000E+03  0.18250000000E+03  0.00000000000E+00 0. -1.
        -11    1    1    2    0    0 -0.69351428849E+00  0.24811779012E+01  0.17747808070E+03  0.17749677838E+03  0.00000000000E+00 0.  1.
         11    1    1    2    0    0 -0.40834727215E+01  0.62676877997E+00 -0.16596687942E+03  0.16601829012E+03  0.00000000000E+00 0. -1.
        -15    1    1    2    0    0 -0.20352067243E+01 -0.59630100561E+01 -0.12211566022E+02  0.13855671368E+02  0.17770000000E+01 0.  1.
         15    1    1    2    0    0  0.68121937343E+01  0.28550633749E+01  0.70036474222E+00  0.76292601293E+01  0.17770000000E+01 0. -1.
</event>
<event>
 6    1  0.1108180E-002  0.1858378E+03  0.7546771E-02  0.1065829E+00
        -11   -1    0    0    0    0  0.00000000000E+00  0.00000000000E+00  0.18250000000E+03  0.18250000000E+03  0.00000000000E+00 0. -1.
         11   -1    0    0    0    0 -0.00000000000E+00 -0.00000000000E+00 -0.18250000000E+03  0.18250000000E+03  0.00000000000E+00 0.  1.
        -11    1    1    2    0    0 -0.58082916555E+01 -0.13295272340E+01  0.17106894397E+03  0.17117268323E+03  0.00000000000E+00 0. -1.
         11    1    1    2    0    0  0.30297117458E+01  0.47328824145E+01 -0.17907400138E+03  0.17916215365E+03  0.00000000000E+00 0.  1.
        -15    1    1    2    0    0 -0.35114361448E+01 -0.29838128748E+01  0.93302235049E+00  0.50260902078E+01  0.17770000000E+01 0. -1.
         15    1    1    2    0    0  0.62900160544E+01 -0.41954230571E+00  0.70720350617E+01  0.96390729131E+01  0.17770000000E+01 0.  1.
</event>
<event>
 6    1  0.1108180E-002  0.1833430E+03  0.7546771E-02  0.1067786E+00
        -11   -1    0    0    0    0  0.00000000000E+00  0.00000000000E+00  0.18250000000E+03  0.18250000000E+03  0.00000000000E+00 0.  1.
         11   -1    0    0    0    0 -0.00000000000E+00 -0.00000000000E+00 -0.18250000000E+03  0.18250000000E+03  0.00000000000E+00 0. -1.
        -11    1    1    2    0    0  0.10896501262E+01 -0.12334733798E+01  0.67943087225E+02  0.67963018588E+02  0.00000000000E+00 0.  1.
         11    1    1    2    0    0  0.74567512723E+01  0.10620996478E+02 -0.18119282367E+03  0.18165695157E+03  0.00000000000E+00 0. -1.
        -15    1    1    2    0    0  0.18049820820E+01 -0.10621671892E+01  0.71052716507E+02  0.71105783250E+02  0.17770000000E+01 0.  1.
         15    1    1    2    0    0 -0.10351383481E+02 -0.83253559090E+01  0.42197019934E+02  0.44274246592E+02  0.17770000000E+01 0. -1.
</event>
<event>
 6    1  0.1108180E-002  0.1830116E+03  0.7546771E-02  0.1068048E+00
        -11   -1    0    0    0    0  0.00000000000E+00  0.00000000000E+00  0.18250000000E+03  0.18250000000E+03  0.00000000000E+00 0. -1.
         11   -1    0    0    0    0 -0.00000000000E+00 -0.00000000000E+00 -0.18250000000E+03  0.18250000000E+03  0.00000000000E+00 0. -1.
        -11    1    1    2    0    0  0.24196286239E+01  0.11393945047E+01  0.11159889408E+03  0.11163093649E+03  0.00000000000E+00 0. -1.
         11    1    1    2    0    0 -0.56941723732E+00 -0.41593575350E+01 -0.18194001272E+03  0.18198844117E+03  0.00000000000E+00 0. -1.
        -15    1    1    2    0    0 -0.44651125371E+01  0.37298948269E+01  0.19283734635E+02  0.20220521652E+02  0.17770000000E+01 0.  1.
         15    1    1    2    0    0  0.26149011505E+01 -0.70993179672E+00  0.51057384007E+02  0.51160100683E+02  0.17770000000E+01 0. -1.
</event>
<event>
 6    1  0.1108180E-002  0.1827976E+03  0.7546771E-02  0.1068218E+00
        -11   -1    0    0    0    0  0.00000000000E+00  0.00000000000E+00  0.18250000000E+03  0.18250000000E+03  0.00000000000E+00 0. -1.
         11   -1    0    0    0    0 -0.00000000000E+00 -0.00000000000E+00 -0.18250000000E+03  0.18250000000E+03  0.00000000000E+00 0.  1.
        -11    1    1    2    0    0  0.13053777659E+01  0.29912187058E+01  0.40255232699E+02  0.40387314346E+02  0.00000000000E+00 0. -1.
         11    1    1    2    0    0  0.21363339372E+00  0.31143427290E+01 -0.18217570170E+03  0.18220244527E+03  0.00000000000E+00 0.  1.
        -15    1    1    2    0    0  0.16153438908E+01 -0.31394365572E+01  0.11636675347E+03  0.11643386294E+03  0.17770000000E+01 0. -1.
         15    1    1    2    0    0 -0.31343550505E+01 -0.29661248776E+01  0.25553715539E+02  0.25976377446E+02  0.17770000000E+01 0.  1.
</event>
<event>
 6    1  0.1108180E-002  0.1854703E+03  0.7546771E-02  0.1066115E+00
        -11   -1    0    0    0    0  0.00000000000E+00  0.00000000000E+00  0.18250000000E+03  0.18250000000E+03  0.00000000000E+00 0.  1.
         11   -1    0    0    0    0 -0.00000000000E+00 -0.00000000000E+00 -0.18250000000E+03  0.18250000000E+03  0.00000000000E+00 0. -1.
        -11    1    1    2    0    0  0.25691729183E+01  0.15662866422E+01  0.50694142833E+02  0.50783363623E+02  0.00000000000E+00 0.  1.
         11    1    1    2    0    0 -0.15501761488E+01 -0.39196625196E+01 -0.17948018796E+03  0.17952967629E+03  0.00000000000E+00 0. -1.
        -15    1    1    2    0    0  0.14206083187E+02  0.85083249591E+01  0.28175681212E+02  0.32729667488E+02  0.17770000000E+01 0. -1.
         15    1    1    2    0    0 -0.15225079957E+02 -0.61549490817E+01  0.10061036391E+03  0.10195729260E+03  0.17770000000E+01 0.  1.
</event>
<event>
 6    1  0.1108180E-002  0.2051890E+03  0.7546771E-02  0.1051704E+00
        -11   -1    0    0    0    0  0.00000000000E+00  0.00000000000E+00  0.18250000000E+03  0.18250000000E+03  0.00000000000E+00 0.  1.
         11   -1    0    0    0    0 -0.00000000000E+00 -0.00000000000E+00 -0.18250000000E+03  0.18250000000E+03  0.00000000000E+00 0. -1.
        -11    1    1    2    0    0 -0.24942903905E+02 -0.30172987304E+02  0.15494191101E+03  0.15981099275E+03  0.00000000000E+00 0.  1.
         11    1    1    2    0    0  0.12941327011E+01 -0.48670170644E+01 -0.11367183824E+03  0.11378334431E+03  0.00000000000E+00 0. -1.
        -15    1    1    2    0    0 -0.32155503067E+00  0.14745463783E+01 -0.49293966886E+02  0.49349068735E+02  0.17770000000E+01 0.  1.
         15    1    1    2    0    0  0.23970326234E+02  0.33565457990E+02  0.80238941158E+01  0.42056594199E+02  0.17770000000E+01 0. -1.
</event>
<event>
 6    1  0.1108180E-002  0.1844645E+03  0.7546771E-02  0.1066902E+00
        -11   -1    0    0    0    0  0.00000000000E+00  0.00000000000E+00  0.18250000000E+03  0.18250000000E+03  0.00000000000E+00 0. -1.
         11   -1    0    0    0    0 -0.00000000000E+00 -0.00000000000E+00 -0.18250000000E+03  0.18250000000E+03  0.00000000000E+00 0.  1.
        -11    1    1    2    0    0  0.11004008638E+01  0.47646119734E+01  0.18046926320E+03  0.18053550169E+03  0.00000000000E+00 0. -1.
         11    1    1    2    0    0 -0.18842439567E+01 -0.36118732029E+01 -0.15379818791E+03  0.15385213229E+03  0.00000000000E+00 0.  1.
        -15    1    1    2    0    0  0.21536535345E+01  0.98614883823E+00  0.71919807967E+00  0.30472426808E+01  0.17770000000E+01 0. -1.
         15    1    1    2    0    0 -0.13698104415E+01 -0.21388876087E+01 -0.27390273367E+02  0.27565123344E+02  0.17770000000E+01 0.  1.
</event>
<event>
 6    1  0.1108180E-002  0.1827933E+03  0.7546771E-02  0.1068222E+00
        -11   -1    0    0    0    0  0.00000000000E+00  0.00000000000E+00  0.18250000000E+03  0.18250000000E+03  0.00000000000E+00 0. -1.
         11   -1    0    0    0    0 -0.00000000000E+00 -0.00000000000E+00 -0.18250000000E+03  0.18250000000E+03  0.00000000000E+00 0. -1.
        -11    1    1    2    0    0 -0.47639331657E+01 -0.51925896558E+00  0.18214362228E+03  0.18220665143E+03  0.00000000000E+00 0. -1.
         11    1    1    2    0    0  0.16452741916E+01 -0.18384634593E+01 -0.14318529449E+03  0.14320654815E+03  0.00000000000E+00 0. -1.
        -15    1    1    2    0    0  0.92525751971E+00 -0.10505205451E+01 -0.19543075083E+02  0.19673566214E+02  0.17770000000E+01 0. -1.
         15    1    1    2    0    0  0.21934014544E+01  0.34082429700E+01 -0.19415252704E+02  0.19913234208E+02  0.17770000000E+01 0. -1.
</event>
<event>
 6    1  0.1108180E-002  0.1831427E+03  0.7546771E-02  0.1067944E+00
        -11   -1    0    0    0    0  0.00000000000E+00  0.00000000000E+00  0.18250000000E+03  0.18250000000E+03  0.00000000000E+00 0. -1.
         11   -1    0    0    0    0 -0.00000000000E+00 -0.00000000000E+00 -0.18250000000E+03  0.18250000000E+03  0.00000000000E+00 0.  1.
        -11    1    1    2    0    0  0.98364626692E+01 -0.72780081561E+01  0.18144520530E+03  0.18185732850E+03  0.00000000000E+00 0. -1.
         11    1    1    2    0    0 -0.14976521267E+00 -0.81218473638E+00 -0.53756998585E+02  0.53763342256E+02  0.00000000000E+00 0.  1.
        -15    1    1    2    0    0 -0.86623538567E+01  0.52294867779E+01 -0.12342011173E+03  0.12384694431E+03  0.17770000000E+01 0.  1.
         15    1    1    2    0    0 -0.10243435999E+01  0.28607061147E+01 -0.42680949868E+01  0.55323849379E+01  0.17770000000E+01 0. -1.
</event>
<event>
 6    1  0.1108180E-002  0.1830536E+03  0.7546771E-02  0.1068015E+00
        -11   -1    0    0    0    0  0.00000000000E+00  0.00000000000E+00  0.18250000000E+03  0.18250000000E+03  0.00000000000E+00 0. -1.
         11   -1    0    0    0    0 -0.00000000000E+00 -0.00000000000E+00 -0.18250000000E+03  0.18250000000E+03  0.00000000000E+00 0.  1.
        -11    1    1    2    0    0 -0.20106327917E+01 -0.29343417977E+00  0.13648202470E+03  0.13649714948E+03  0.00000000000E+00 0. -1.
         11    1    1    2    0    0  0.83814688502E+00  0.38409858019E+01 -0.18190389706E+03  0.18194637515E+03  0.00000000000E+00 0.  1.
        -15    1    1    2    0    0 -0.10323231561E+01  0.17011143672E+01  0.28304047847E+02  0.28429497616E+02  0.17770000000E+01 0. -1.
         15    1    1    2    0    0  0.22048090627E+01 -0.52486659894E+01  0.17117824513E+02  0.18126977760E+02  0.17770000000E+01 0. -1.
</event>
<event>
 6    1  0.1108180E-002  0.1832550E+03  0.7546771E-02  0.1067855E+00
        -11   -1    0    0    0    0  0.00000000000E+00  0.00000000000E+00  0.18250000000E+03  0.18250000000E+03  0.00000000000E+00 0. -1.
         11   -1    0    0    0    0 -0.00000000000E+00 -0.00000000000E+00 -0.18250000000E+03  0.18250000000E+03  0.00000000000E+00 0. -1.
        -11    1    1    2    0    0  0.22813344560E+01 -0.12434974609E+01  0.18172640473E+03  0.18174497778E+03  0.00000000000E+00 0. -1.
         11    1    1    2    0    0 -0.18031364312E+01  0.14167596192E+01 -0.14834856527E+03  0.14836628771E+03  0.00000000000E+00 0. -1.
        -15    1    1    2    0    0 -0.20069546494E+01 -0.12971415181E+01 -0.24622620977E+01  0.38640531467E+01  0.17770000000E+01 0.  1.
         15    1    1    2    0    0  0.15287566247E+01  0.11238793597E+01 -0.30915577356E+02  0.31024681366E+02  0.17770000000E+01 0. -1.
</event>
<event>
 6    1  0.1108180E-002  0.1891349E+03  0.7546771E-02  0.1063293E+00
        -11   -1    0    0    0    0  0.00000000000E+00  0.00000000000E+00  0.18250000000E+03  0.18250000000E+03  0.00000000000E+00 0.  1.
         11   -1    0    0    0    0 -0.00000000000E+00 -0.00000000000E+00 -0.18250000000E+03  0.18250000000E+03  0.00000000000E+00 0. -1.
        -11    1    1    2    0    0  0.83882795353E+01  0.15841180722E+02  0.17494920934E+03  0.17586509628E+03  0.00000000000E+00 0.  1.
         11    1    1    2    0    0  0.10684076784E+00 -0.58066553098E+00 -0.28930501357E+02  0.28936525295E+02  0.00000000000E+00 0. -1.
        -15    1    1    2    0    0 -0.18328907286E+02 -0.18597505340E+02 -0.14728028561E+03  0.14958762083E+03  0.17770000000E+01 0. -1.
         15    1    1    2    0    0  0.98337869825E+01  0.33369901496E+01  0.12615776315E+01  0.10610757598E+02  0.17770000000E+01 0.  1.
</event>
<event>
 6    1  0.1108180E-002  0.1852832E+03  0.7546771E-02  0.1066261E+00
        -11   -1    0    0    0    0  0.00000000000E+00  0.00000000000E+00  0.18250000000E+03  0.18250000000E+03  0.00000000000E+00 0.  1.
         11   -1    0    0    0    0 -0.00000000000E+00 -0.00000000000E+00 -0.18250000000E+03  0.18250000000E+03  0.00000000000E+00 0.  1.
        -11    1    1    2    0    0 -0.16344502517E+01  0.51820914847E+01  0.17963466161E+03  0.17971682490E+03  0.00000000000E+00 0.  1.
         11    1    1    2    0    0 -0.67002214906E+01 -0.13922590342E+01 -0.14854072310E+03  0.14869827764E+03  0.00000000000E+00 0.  1.
        -15    1    1    2    0    0 -0.18803866518E+01  0.27275310598E+01 -0.19017198397E+02  0.19385222297E+02  0.17770000000E+01 0.  1.
         15    1    1    2    0    0  0.10215058394E+02 -0.65173635103E+01 -0.12076740115E+02  0.17199675169E+02  0.17770000000E+01 0.  1.
</event>
<event>
 6    1  0.1108180E-002  0.2207472E+03  0.7546771E-02  0.1041525E+00
        -11   -1    0    0    0    0  0.00000000000E+00  0.00000000000E+00  0.18250000000E+03  0.18250000000E+03  0.00000000000E+00 0.  1.
         11   -1    0    0    0    0 -0.00000000000E+00 -0.00000000000E+00 -0.18250000000E+03  0.18250000000E+03  0.00000000000E+00 0.  1.
        -11    1    1    2    0    0 -0.46679559618E+01  0.27978418732E+01  0.14415012912E+03  0.14425282478E+03  0.00000000000E+00 0.  1.
         11    1    1    2    0    0 -0.48067758588E+01  0.77199045046E+01 -0.10739121732E+03  0.10777557969E+03  0.00000000000E+00 0.  1.
        -15    1    1    2    0    0  0.41974068890E+01 -0.52043944417E+01  0.37592037290E+02  0.38223329823E+02  0.17770000000E+01 0.  1.
         15    1    1    2    0    0  0.52773249316E+01 -0.53133519360E+01 -0.74350949086E+02  0.74748265707E+02  0.17770000000E+01 0.  1.
</event>
<event>
 6    1  0.1108180E-002  0.1849299E+03  0.7546771E-02  0.1066537E+00
        -11   -1    0    0    0    0  0.00000000000E+00  0.00000000000E+00  0.18250000000E+03  0.18250000000E+03  0.00000000000E+00 0. -1.
         11   -1    0    0    0    0 -0.00000000000E+00 -0.00000000000E+00 -0.18250000000E+03  0.18250000000E+03  0.00000000000E+00 0.  1.
        -11    1    1    2    0    0 -0.83992321339E+01  0.47701913274E+01  0.17981085383E+03  0.18007011129E+03  0.00000000000E+00 0. -1.
         11    1    1    2    0    0 -0.20979327967E+01  0.34977019110E+01 -0.15218781420E+03  0.15224245805E+03  0.00000000000E+00 0.  1.
        -15    1    1    2    0    0  0.20474308526E+01 -0.30542384056E+01 -0.98113644335E+00  0.42000836962E+01  0.17770000000E+01 0.  1.
         15    1    1    2    0    0  0.84497340780E+01 -0.52136548328E+01 -0.26641903186E+02  0.28487346964E+02  0.17770000000E+01 0. -1.
</event>
<event>
 6    1  0.1108180E-002  0.1939037E+03  0.7546771E-02  0.1059723E+00
        -11   -1    0    0    0    0  0.00000000000E+00  0.00000000000E+00  0.18250000000E+03  0.18250000000E+03  0.00000000000E+00 0.  1.
         11   -1    0    0    0    0 -0.00000000000E+00 -0.00000000000E+00 -0.18250000000E+03  0.18250000000E+03  0.00000000000E+00 0.  1.
        -11    1    1    2    0    0 -0.66039353511E+01 -0.37498012199E+01  0.16167007525E+03  0.16184834322E+03  0.00000000000E+00 0.  1.
         11    1    1    2    0    0 -0.22856769910E+01 -0.36996103490E+01 -0.17104107130E+03  0.17109634568E+03  0.00000000000E+00 0.  1.
        -15    1    1    2    0    0  0.25416225480E+00  0.45154901498E+01 -0.96956063044E+01  0.10845126111E+02  0.17770000000E+01 0. -1.
         15    1    1    2    0    0  0.86354500873E+01  0.29339214190E+01  0.19066602353E+02  0.21210184992E+02  0.17770000000E+01 0. -1.
</event>
<event>
 6    1  0.1108180E-002  0.1841320E+03  0.7546771E-02  0.1067163E+00
        -11   -1    0    0    0    0  0.00000000000E+00  0.00000000000E+00  0.18250000000E+03  0.18250000000E+03  0.00000000000E+00 0. -1.
         11   -1    0    0    0    0 -0.00000000000E+00 -0.00000000000E+00 -0.18250000000E+03  0.18250000000E+03  0.00000000000E+00 0. -1.
        -11    1    1    2    0    0  0.58946565592E-01  0.25926958882E+01  0.17764691264E+03  0.17766584117E+03  0.00000000000E+00 0. -1.
         11    1    1    2    0    0  0.29534559842E+01 -0.39392097481E+00 -0.18084346136E+03  0.18086800600E+03  0.00000000000E+00 0. -1.
        -15    1    1    2    0    0 -0.22492661362E+01 -0.22357644662E+01  0.16627027919E+01  0.39975180392E+01  0.17770000000E+01 0. -1.
         15    1    1    2    0    0 -0.76313641354E+00  0.36989552848E-01  0.15338459320E+01  0.24686347960E+01  0.17770000000E+01 0.  1.
</event>
<event>
 6    1  0.1108180E-002  0.1826714E+03  0.7546771E-02  0.1068318E+00
        -11   -1    0    0    0    0  0.00000000000E+00  0.00000000000E+00  0.18250000000E+03  0.18250000000E+03  0.00000000000E+00 0.  1.
         11   -1    0    0    0    0 -0.00000000000E+00 -0.00000000000E+00 -0.18250000000E+03  0.18250000000E+03  0.00000000000E+00 0. -1.
        -11    1    1    2    0    0  0.29207887802E+01  0.48334199798E+00  0.18230452460E+03  0.18232856143E+03  0.00000000000E+00 0.  1.
         11    1    1    2    0    0 -0.19866956276E+01  0.17192148175E+01 -0.13309746065E+03  0.13312338897E+03  0.00000000000E+00 0. -1.
        -15    1    1    2    0    0  0.58232752001E+00 -0.25809734785E+01 -0.35043568884E+02  0.35188207948E+02  0.17770000000E+01 0. -1.
         15    1    1    2    0    0 -0.15164206727E+01  0.37841666299E+00 -0.14163495058E+02  0.14359841646E+02  0.17770000000E+01 0.  1.
</event>
<event>
 6    1  0.1108180E-002  0.1845044E+03  0.7546771E-02  0.1066870E+00
        -11   -1    0    0    0    0  0.00000000000E+00  0.00000000000E+00  0.18250000000E+03  0.18250000000E+03  0.00000000000E+00 0.  1.
         11   -1    0    0    0    0 -0.00000000000E+00 -0.00000000000E+00 -0.18250000000E+03  0.18250000000E+03  0.00000000000E+00 0. -1.
        -11    1    1    2    0    0  0.10084551441E+02  0.96148966974E+00  0.18021104891E+03  0.18049555338E+03  0.00000000000E+00 0.  1.
         11    1    1    2    0    0  0.36116104685E+01  0.23983266052E+01 -0.14627612634E+03  0.14634035956E+03  0.00000000000E+00 0. -1.
        -15    1    1    2    0    0 -0.36241757143E+01 -0.20653790441E+01 -0.21682918878E+02  0.22151910533E+02  0.17770000000E+01 0. -1.
         15    1    1    2    0    0 -0.10071986195E+02 -0.12944372308E+01 -0.12252003692E+02  0.16012176526E+02  0.17770000000E+01 0. -1.
</event>
<event>
 6    1  0.1108180E-002  0.1830573E+03  0.7546771E-02  0.1068012E+00
        -11   -1    0    0    0    0  0.00000000000E+00  0.00000000000E+00  0.18250000000E+03  0.18250000000E+03  0.00000000000E+00 0.  1.
         11   -1    0    0    0    0 -0.00000000000E+00 -0.00000000000E+00 -0.18250000000E+03  0.18250000000E+03  0.00000000000E+00 0. -1.
        -11    1    1    2    0    0  0.15756377187E+01  0.12780462351E+01  0.10347274418E+03  0.10349263174E+03  0.00000000000E+00 0.  1.
         11    1    1    2    0    0 -0.58741009601E+01  0.56339133962E+01 -0.18176054727E+03  0.18194269039E+03  0.00000000000E+00 0. -1.
        -15    1    1    2    0    0  0.35118012339E+01 -0.76780842462E+01  0.29594200090E+02  0.30826289650E+02  0.17770000000E+01 0. -1.
         15    1    1    2    0    0  0.78666200754E+00  0.76612461494E+00  0.48693602997E+02  0.48738388216E+02  0.17770000000E+01 0.  1.
</event>
<event>
 6    1  0.1108180E-002  0.1834578E+03  0.7546771E-02  0.1067695E+00
        -11   -1    0    0    0    0  0.00000000000E+00  0.00000000000E+00  0.18250000000E+03  0.18250000000E+03  0.00000000000E+00 0.  1.
         11   -1    0    0    0    0 -0.00000000000E+00 -0.00000000000E+00 -0.18250000000E+03  0.18250000000E+03  0.00000000000E+00 0.  1.
        -11    1    1    2    0    0 -0.36938549602E+01  0.10880835209E+01  0.18150133011E+03  0.18154217505E+03  0.00000000000E+00 0.  1.
         11    1    1    2    0    0  0.22507967503E+01  0.42163284035E+01 -0.15173914965E+03  0.15181440330E+03  0.00000000000E+00 0.  1.
        -15    1    1    2    0    0 -0.54592291207E-01 -0.17185536701E+01 -0.11732293895E+01  0.27368966432E+01  0.17770000000E+01 0. -1.
         15    1    1    2    0    0  0.14976505011E+01 -0.35858582543E+01 -0.28588951061E+02  0.28906525011E+02  0.17770000000E+01 0.  1.
</event>
<event>
 6    1  0.1108180E-002  0.1825731E+03  0.7546771E-02  0.1068397E+00
        -11   -1    0    0    0    0  0.00000000000E+00  0.00000000000E+00  0.18250000000E+03  0.18250000000E+03  0.00000000000E+00 0.  1.
         11   -1    0    0    0    0 -0.00000000000E+00 -0.00000000000E+00 -0.18250000000E+03  0.18250000000E+03  0.00000000000E+00 0. -1.
        -11    1    1    2    0    0  0.25895015830E+01 -0.19736310585E+00  0.25326184078E+02  0.25458988012E+02  0.00000000000E+00 0.  1.
         11    1    1    2    0    0 -0.87538220017E+01  0.40814443329E+01 -0.18217102778E+03  0.18242689207E+03  0.00000000000E+00 0. -1.
        -15    1    1    2    0    0  0.49324119300E+01 -0.17319642186E+01  0.12543716768E+03  0.12555862834E+03  0.17770000000E+01 0.  1.
         15    1    1    2    0    0  0.12319084887E+01 -0.21521170084E+01  0.31407676026E+02  0.31555491575E+02  0.17770000000E+01 0. -1.
</event>
<event>
 6    1  0.1108180E-002  0.1828607E+03  0.7546771E-02  0.1068168E+00
        -11   -1    0    0    0    0  0.00000000000E+00  0.00000000000E+00  0.18250000000E+03  0.18250000000E+03  0.00000000000E+00 0.  1.
         11   -1    0    0    0    0 -0.00000000000E+00 -0.00000000000E+00 -0.18250000000E+03  0.18250000000E+03  0.00000000000E+00 0.  1.
        -11    1    1    2    0    0 -0.18590232924E+01  0.18393393502E+01  0.15752951207E+03  0.15755121805E+03  0.00000000000E+00 0.  1.
         11    1    1    2    0    0  0.18490999968E+00 -0.26253340256E+01 -0.18212029272E+03  0.18213930820E+03  0.00000000000E+00 0.  1.
        -15    1    1    2    0    0 -0.68643129023E+00 -0.27798364221E+00  0.35753656789E+01  0.40607181088E+01  0.17770000000E+01 0. -1.
         15    1    1    2    0    0  0.23605445829E+01  0.10639783176E+01  0.21015414973E+02  0.21248755635E+02  0.17770000000E+01 0. -1.
</event>
<event>
 6    1  0.1108180E-002  0.1839083E+03  0.7546771E-02  0.1067339E+00
        -11   -1    0    0    0    0  0.00000000000E+00  0.00000000000E+00  0.18250000000E+03  0.18250000000E+03  0.00000000000E+00 0. -1.
         11   -1    0    0    0    0 -0.00000000000E+00 -0.00000000000E+00 -0.18250000000E+03  0.18250000000E+03  0.00000000000E+00 0.  1.
        -11    1    1    2    0    0  0.79435800536E+00 -0.26698344403E+01  0.18107029025E+03  0.18109171442E+03  0.00000000000E+00 0. -1.
         11    1    1    2    0    0  0.25211349267E+01  0.18845289617E+01 -0.15954031515E+03  0.15957136249E+03  0.00000000000E+00 0.  1.
        -15    1    1    2    0    0 -0.11797870361E+01 -0.16431982687E+01 -0.20254434851E+02  0.20432617505E+02  0.17770000000E+01 0.  1.
         15    1    1    2    0    0 -0.21357058960E+01  0.24285037473E+01 -0.12755402554E+01  0.39043055808E+01  0.17770000000E+01 0. -1.
</event>
<event>
 6    1  0.1108180E-002  0.1867628E+03  0.7546771E-02  0.1065111E+00
        -11   -1    0    0    0    0  0.00000000000E+00  0.00000000000E+00  0.18250000000E+03  0.18250000000E+03  0.00000000000E+00 0.  1.
         11   -1    0    0    0    0 -0.00000000000E+00 -0.00000000000E+00 -0.18250000000E+03  0.18250000000E+03  0.00000000000E+00 0. -1.
        -11    1    1    2    0    0 -0.41726126644E+01  0.21664538581E+01  0.16889491307E+03  0.16896033818E+03  0.00000000000E+00 0.  1.
         11    1    1    2    0    0 -0.78182053844E+01 -0.10987577966E+00 -0.17806558423E+03  0.17823716979E+03  0.00000000000E+00 0. -1.
        -15    1    1    2    0    0  0.63795084874E-01 -0.69483350431E+00  0.43394852029E+01  0.47408569096E+01  0.17770000000E+01 0. -1.
         15    1    1    2    0    0  0.11927022964E+02 -0.13617445741E+01  0.48311859586E+01  0.13061635113E+02  0.17770000000E+01 0. -1.
</event>
<event>
 6    1  0.1108180E-002  0.1830770E+03  0.7546771E-02  0.1067996E+00
        -11   -1    0    0    0    0  0.00000000000E+00  0.00000000000E+00  0.18250000000E+03  0.18250000000E+03  0.00000000000E+00 0. -1.
         11   -1    0    0    0    0 -0.00000000000E+00 -0.00000000000E+00 -0.18250000000E+03  0.18250000000E+03  0.00000000000E+00 0. -1.
        -11    1    1    2    0    0 -0.22058412883E+01  0.27970974792E+01  0.18188816774E+03  0.18192304707E+03  0.00000000000E+00 0. -1.
         11    1    1    2    0    0 -0.11857793547E+01 -0.16914252196E+00 -0.86662144061E+02  0.86670421109E+02  0.00000000000E+00 0. -1.
        -15    1    1    2    0    0 -0.54348075744E+00  0.24142010798E+01 -0.44782593731E+01  0.54162970931E+01  0.17770000000E+01 0. -1.
         15    1    1    2    0    0  0.39351014005E+01 -0.50421560370E+01 -0.90747764307E+02  0.90990234730E+02  0.17770000000E+01 0.  1.
</event>
<event>
 6    1  0.1108180E-002  0.1877077E+03  0.7546771E-02  0.1064383E+00
        -11   -1    0    0    0    0  0.00000000000E+00  0.00000000000E+00  0.18250000000E+03  0.18250000000E+03  0.00000000000E+00 0. -1.
         11   -1    0    0    0    0 -0.00000000000E+00 -0.00000000000E+00 -0.18250000000E+03  0.18250000000E+03  0.00000000000E+00 0. -1.
        -11    1    1    2    0    0  0.22299308821E+00  0.39870650741E+01  0.16816473590E+03  0.16821214229E+03  0.00000000000E+00 0. -1.
         11    1    1    2    0    0  0.61430428874E+01  0.72680813197E+01 -0.17703669126E+03  0.17729227855E+03  0.00000000000E+00 0. -1.
        -15    1    1    2    0    0 -0.69898181231E+01 -0.88916895467E+01  0.15233067567E+01  0.11549800555E+02  0.17770000000E+01 0.  1.
         15    1    1    2    0    0  0.62378214757E+00 -0.23634568471E+01  0.73486486024E+01  0.79457786099E+01  0.17770000000E+01 0. -1.
</event>
<event>
 6    1  0.1108180E-002  0.1859893E+03  0.7546771E-02  0.1065711E+00
        -11   -1    0    0    0    0  0.00000000000E+00  0.00000000000E+00  0.18250000000E+03  0.18250000000E+03  0.00000000000E+00 0.  1.
         11   -1    0    0    0    0 -0.00000000000E+00 -0.00000000000E+00 -0.18250000000E+03  0.18250000000E+03  0.00000000000E+00 0.  1.
        -11    1    1    2    0    0  0.40085021469E+01 -0.24457592568E+01  0.92810403668E+02  0.92929117379E+02  0.00000000000E+00 0.  1.
         11    1    1    2    0    0 -0.22223423502E+01  0.25862674668E+01 -0.17897826931E+03  0.17901074960E+03  0.00000000000E+00 0.  1.
        -15    1    1    2    0    0  0.16793845950E+01  0.72238421564E+00  0.88435082007E+02  0.88471823934E+02  0.17770000000E+01 0.  1.
         15    1    1    2    0    0 -0.34655443917E+01 -0.86289242563E+00 -0.22672163616E+01  0.45883090894E+01  0.17770000000E+01 0. -1.
</event>
<event>
 6    1  0.1108180E-002  0.1948447E+03  0.7546771E-02  0.1059032E+00
        -11   -1    0    0    0    0  0.00000000000E+00  0.00000000000E+00  0.18250000000E+03  0.18250000000E+03  0.00000000000E+00 0.  1.
         11   -1    0    0    0    0 -0.00000000000E+00 -0.00000000000E+00 -0.18250000000E+03  0.18250000000E+03  0.00000000000E+00 0. -1.
        -11    1    1    2    0    0  0.23992709578E+01 -0.20782473840E+01  0.13489309216E+03  0.13493043365E+03  0.00000000000E+00 0.  1.
         11    1    1    2    0    0 -0.97717735680E+01 -0.80194494744E+01 -0.16968509922E+03  0.17015531736E+03  0.00000000000E+00 0. -1.
        -15    1    1    2    0    0  0.23143739035E+02  0.19290210753E+02  0.24565650193E+02  0.38914955812E+02  0.17770000000E+01 0. -1.
         15    1    1    2    0    0 -0.15771236424E+02 -0.91925138951E+01  0.10226356871E+02  0.20999293177E+02  0.17770000000E+01 0. -1.
</event>
<event>
 6    1  0.1108180E-002  0.1847975E+03  0.7546771E-02  0.1066641E+00
        -11   -1    0    0    0    0  0.00000000000E+00  0.00000000000E+00  0.18250000000E+03  0.18250000000E+03  0.00000000000E+00 0.  1.
         11   -1    0    0    0    0 -0.00000000000E+00 -0.00000000000E+00 -0.18250000000E+03  0.18250000000E+03  0.00000000000E+00 0. -1.
        -11    1    1    2    0    0  0.10457138856E+01 -0.64362257510E+01  0.16294916103E+03  0.16307957444E+03  0.00000000000E+00 0.  1.
         11    1    1    2    0    0  0.28930324523E+01  0.58713815384E+01 -0.18008361382E+03  0.18020252696E+03  0.00000000000E+00 0. -1.
        -15    1    1    2    0    0  0.18460932280E+01 -0.21378207081E+01  0.13989256405E+02  0.14381771843E+02  0.17770000000E+01 0.  1.
         15    1    1    2    0    0 -0.57848395660E+01  0.27026649206E+01  0.31451963880E+01  0.73361267571E+01  0.17770000000E+01 0. -1.
</event>
<event>
 6    1  0.1108180E-002  0.1883044E+03  0.7546771E-02  0.1063926E+00
        -11   -1    0    0    0    0  0.00000000000E+00  0.00000000000E+00  0.18250000000E+03  0.18250000000E+03  0.00000000000E+00 0. -1.
         11   -1    0    0    0    0 -0.00000000000E+00 -0.00000000000E+00 -0.18250000000E+03  0.18250000000E+03  0.00000000000E+00 0.  1.
        -11    1    1    2    0    0  0.19300841036E+01 -0.15256587597E+01  0.17667849854E+03  0.17669562730E+03  0.00000000000E+00 0. -1.
         11    1    1    2    0    0 -0.10880527058E+02 -0.51271711935E+01 -0.13610911200E+03  0.13663954084E+03  0.00000000000E+00 0.  1.
        -15    1    1    2    0    0  0.10368329575E+02  0.91460845839E+00 -0.43549192512E+02  0.44811032841E+02  0.17770000000E+01 0. -1.
         15    1    1    2    0    0 -0.14178866204E+01  0.57382214948E+01  0.29798059670E+01  0.68537990190E+01  0.17770000000E+01 0.  1.
</event>
<event>
 6    1  0.1108180E-002  0.1914716E+03  0.7546771E-02  0.1061530E+00
        -11   -1    0    0    0    0  0.00000000000E+00  0.00000000000E+00  0.18250000000E+03  0.18250000000E+03  0.00000000000E+00 0.  1.
         11   -1    0    0    0    0 -0.00000000000E+00 -0.00000000000E+00 -0.18250000000E+03  0.18250000000E+03  0.00000000000E+00 0. -1.
        -11    1    1    2    0    0 -0.15332551970E+01 -0.27403912833E+01  0.12673108845E+03  0.12676998618E+03  0.00000000000E+00 0.  1.
         11    1    1    2    0    0  0.92651478563E+01  0.82842308786E+01 -0.17308272314E+03  0.17352838528E+03  0.00000000000E+00 0. -1.
        -15    1    1    2    0    0 -0.23819520935E+02  0.14628497232E+01  0.13656978021E+02  0.27553226391E+02  0.17770000000E+01 0.  1.
         15    1    1    2    0    0  0.16087628275E+02 -0.70066893185E+01  0.32694656672E+02  0.37148402154E+02  0.17770000000E+01 0. -1.
</event>
<event>
 6    1  0.1108180E-002  0.1827906E+03  0.7546771E-02  0.1068224E+00
        -11   -1    0    0    0    0  0.00000000000E+00  0.00000000000E+00  0.18250000000E+03  0.18250000000E+03  0.00000000000E+00 0. -1.
         11   -1    0    0    0    0 -0.00000000000E+00 -0.00000000000E+00 -0.18250000000E+03  0.18250000000E+03  0.00000000000E+00 0.  1.
        -11    1    1    2    0    0 -0.11680281000E+01  0.29971222011E+01  0.18218100960E+03  0.18220940505E+03  0.00000000000E+00 0. -1.
         11    1    1    2    0    0  0.76697484853E+00  0.10715362517E+01 -0.89488947618E+02  0.89498649075E+02  0.00000000000E+00 0.  1.
        -15    1    1    2    0    0  0.32056527346E+01 -0.50864113083E+01 -0.75046559281E+02  0.75307978186E+02  0.17770000000E+01 0.  1.
         15    1    1    2    0    0 -0.28045994831E+01  0.10177528554E+01 -0.17645502701E+02  0.17983967685E+02  0.17770000000E+01 0. -1.
</event>
<event>
 6    1  0.1108180E-002  0.1928185E+03  0.7546771E-02  0.1060526E+00
        -11   -1    0    0    0    0  0.00000000000E+00  0.00000000000E+00  0.18250000000E+03  0.18250000000E+03  0.00000000000E+00 0.  1.
         11   -1    0    0    0    0 -0.00000000000E+00 -0.00000000000E+00 -0.18250000000E+03  0.18250000000E+03  0.00000000000E+00 0.  1.
        -11    1    1    2    0    0  0.28866588564E+02 -0.10707287416E+02  0.16940649323E+03  0.17218154921E+03  0.00000000000E+00 0.  1.
         11    1    1    2    0    0 -0.16187350660E+01  0.18926695742E+01 -0.12211986447E+03  0.12214525697E+03  0.00000000000E+00 0.  1.
        -15    1    1    2    0    0 -0.27026128271E+00  0.12141818705E+01 -0.42048984404E+02  0.42104893981E+02  0.17770000000E+01 0.  1.
         15    1    1    2    0    0 -0.26977592215E+02  0.76004359717E+01 -0.52376443578E+01  0.28568299846E+02  0.17770000000E+01 0.  1.
</event>
<event>
 6    1  0.1108180E-002  0.1831531E+03  0.7546771E-02  0.1067936E+00
        -11   -1    0    0    0    0  0.00000000000E+00  0.00000000000E+00  0.18250000000E+03  0.18250000000E+03  0.00000000000E+00 0.  1.
         11   -1    0    0    0    0 -0.00000000000E+00 -0.00000000000E+00 -0.18250000000E+03  0.18250000000E+03  0.00000000000E+00 0.  1.
        -11    1    1    2    0    0  0.28056199212E+01 -0.64160158551E+01  0.12006911553E+03  0.12027314441E+03  0.00000000000E+00 0.  1.
         11    1    1    2    0    0 -0.19215627199E+01 -0.42181894129E+01 -0.18178784686E+03  0.18184693231E+03  0.00000000000E+00 0.  1.
        -15    1    1    2    0    0 -0.84741174888E+00  0.13616643424E+01  0.17618790267E+02  0.17780656229E+02  0.17770000000E+01 0. -1.
         15    1    1    2    0    0 -0.36645452462E-01  0.92725409256E+01  0.44099941064E+02  0.45099267056E+02  0.17770000000E+01 0. -1.
</event>
<event>
 6    1  0.1108180E-002  0.1859624E+03  0.7546771E-02  0.1065732E+00
        -11   -1    0    0    0    0  0.00000000000E+00  0.00000000000E+00  0.18250000000E+03  0.18250000000E+03  0.00000000000E+00 0.  1.
         11   -1    0    0    0    0 -0.00000000000E+00 -0.00000000000E+00 -0.18250000000E+03  0.18250000000E+03  0.00000000000E+00 0. -1.
        -11    1    1    2    0    0  0.14335685208E+01  0.81192666743E+01  0.17884767635E+03  0.17903761880E+03  0.00000000000E+00 0.  1.
         11    1    1    2    0    0  0.72875572961E+00 -0.36308596686E+01 -0.95391247408E+02  0.95463104438E+02  0.00000000000E+00 0. -1.
        -15    1    1    2    0    0  0.14638211725E+02 -0.92958381166E+01 -0.40739016819E+02  0.44311568119E+02  0.17770000000E+01 0. -1.
         15    1    1    2    0    0 -0.16800535976E+02  0.48074311110E+01 -0.42717412119E+02  0.46187708647E+02  0.17770000000E+01 0.  1.
</event>
<event>
 6    1  0.1108180E-002  0.1829948E+03  0.7546771E-02  0.1068062E+00
        -11   -1    0    0    0    0  0.00000000000E+00  0.00000000000E+00  0.18250000000E+03  0.18250000000E+03  0.00000000000E+00 0. -1.
         11   -1    0    0    0    0 -0.00000000000E+00 -0.00000000000E+00 -0.18250000000E+03  0.18250000000E+03  0.00000000000E+00 0.  1.
        -11    1    1    2    0    0  0.30450191361E+01  0.98532793297E-01  0.14550892546E+03  0.14554081640E+03  0.00000000000E+00 0. -1.
         11    1    1    2    0    0  0.12825360356E+01 -0.21720131349E+01 -0.18198775559E+03  0.18200523543E+03  0.00000000000E+00 0.  1.
        -15    1    1    2    0    0 -0.35534862210E+01  0.24540978733E+01  0.33824198324E+02  0.34145043300E+02  0.17770000000E+01 0. -1.
         15    1    1    2    0    0 -0.77406895071E+00 -0.38061753168E+00  0.26546317997E+01  0.33089048699E+01  0.17770000000E+01 0.  1.
</event>
<event>
 6    1  0.1108180E-002  0.1830315E+03  0.7546771E-02  0.1068032E+00
        -11   -1    0    0    0    0  0.00000000000E+00  0.00000000000E+00  0.18250000000E+03  0.18250000000E+03  0.00000000000E+00 0.  1.
         11   -1    0    0    0    0 -0.00000000000E+00 -0.00000000000E+00 -0.18250000000E+03  0.18250000000E+03  0.00000000000E+00 0. -1.
        -11    1    1    2    0    0 -0.49259506528E+01 -0.40582995528E+00  0.18190132576E+03  0.18196846430E+03  0.00000000000E+00 0.  1.
         11    1    1    2    0    0  0.16359627927E+01 -0.47479721219E+00 -0.43904152126E+02  0.43937186762E+02  0.00000000000E+00 0. -1.
        -15    1    1    2    0    0 -0.50025210958E+01  0.35727087063E-01 -0.10052889863E+03  0.10066898073E+03  0.17770000000E+01 0.  1.
         15    1    1    2    0    0  0.82925089559E+01  0.84490008041E+00 -0.37468275003E+02  0.38425368204E+02  0.17770000000E+01 0. -1.
</event>
<event>
 6    1  0.1108180E-002  0.1845812E+03  0.7546771E-02  0.1066810E+00
        -11   -1    0    0    0    0  0.00000000000E+00  0.00000000000E+00  0.18250000000E+03  0.18250000000E+03  0.00000000000E+00 0.  1.
         11   -1    0    0    0    0 -0.00000000000E+00 -0.00000000000E+00 -0.18250000000E+03  0.18250000000E+03  0.00000000000E+00 0. -1.
        -11    1    1    2    0    0  0.64975260240E+01 -0.93226636604E+01  0.18006055692E+03  0.18041877414E+03  0.00000000000E+00 0.  1.
         11    1    1    2    0    0 -0.30083996269E+01  0.50173887878E+01 -0.16531290995E+03  0.16541639234E+03  0.00000000000E+00 0. -1.
        -15    1    1    2    0    0  0.14865105383E+01  0.16591665459E+01 -0.12535486216E+02  0.12855298164E+02  0.17770000000E+01 0. -1.
         15    1    1    2    0    0 -0.49756369354E+01  0.26461083267E+01 -0.22121607571E+01  0.63095353557E+01  0.17770000000E+01 0.  1.
</event>
<event>
 6    1  0.1108180E-002  0.1854718E+03  0.7546771E-02  0.1066114E+00
        -11   -1    0    0    0    0  0.00000000000E+00  0.00000000000E+00  0.18250000000E+03  0.18250000000E+03  0.00000000000E+00 0. -1.
         11   -1    0    0    0    0 -0.00000000000E+00 -0.00000000000E+00 -0.18250000000E+03  0.18250000000E+03  0.00000000000E+00 0. -1.
        -11    1    1    2    0    0  0.44534316344E+01 -0.69150657277E+01  0.16641299601E+03  0.16661613496E+03  0.00000000000E+00 0. -1.
         11    1    1    2    0    0 -0.80612944627E+01  0.13669686613E+01 -0.17934189841E+03  0.17952818608E+03  0.00000000000E+00 0. -1.
        -15    1    1    2    0    0  0.10083986520E+01 -0.21596999412E+01 -0.53936711201E+00  0.30215587962E+01  0.17770000000E+01 0. -1.
         15    1    1    2    0    0  0.25994641762E+01  0.77077970076E+01  0.13468269509E+02  0.15834120161E+02  0.17770000000E+01 0.  1.
</event>
<event>
 6    1  0.1108180E-002  0.1842127E+03  0.7546771E-02  0.1067100E+00
        -11   -1    0    0    0    0  0.00000000000E+00  0.00000000000E+00  0.18250000000E+03  0.18250000000E+03  0.00000000000E+00 0.  1.
         11   -1    0    0    0    0 -0.00000000000E+00 -0.00000000000E+00 -0.18250000000E+03  0.18250000000E+03  0.00000000000E+00 0.  1.
        -11    1    1    2    0    0 -0.18731000590E+00  0.40714167208E+01  0.18074135916E+03  0.18078730716E+03  0.00000000000E+00 0.  1.
         11    1    1    2    0    0  0.31138849383E+01 -0.76897454291E+00 -0.14973944822E+03  0.14977379596E+03  0.00000000000E+00 0.  1.
        -15    1    1    2    0    0 -0.22761221089E+01 -0.47235303504E+01 -0.29231577255E+01  0.62605950926E+01  0.17770000000E+01 0. -1.
         15    1    1    2    0    0 -0.65045282344E+00  0.14210881725E+01 -0.28078753216E+02  0.28178301787E+02  0.17770000000E+01 0.  1.
</event>
<event>
 6    1  0.1108180E-002  0.1923232E+03  0.7546771E-02  0.1060894E+00
        -11   -1    0    0    0    0  0.00000000000E+00  0.00000000000E+00  0.18250000000E+03  0.18250000000E+03  0.00000000000E+00 0.  1.
         11   -1    0    0    0    0 -0.00000000000E+00 -0.00000000000E+00 -0.18250000000E+03  0.18250000000E+03  0.00000000000E+00 0. -1.
        -11    1    1    2    0    0 -0.67700444041E+01  0.96358624844E+01  0.14753775112E+03  0.14800699764E+03  0.00000000000E+00 0.  1.
         11    1    1    2    0    0  0.19951079606E+01 -0.26003499112E+01 -0.17264568673E+03  0.17267679468E+03  0.00000000000E+00 0. -1.
        -15    1    1    2    0    0 -0.69585559450E+01 -0.16853421890E+02  0.21955597766E+02  0.28594848007E+02  0.17770000000E+01 0. -1.
         15    1    1    2    0    0  0.11733492388E+02  0.98179093170E+01  0.31523378455E+01  0.15721359670E+02  0.17770000000E+01 0.  1.
</event>
<event>
 6    1  0.1108180E-002  0.1834459E+03  0.7546771E-02  0.1067704E+00
        -11   -1    0    0    0    0  0.00000000000E+00  0.00000000000E+00  0.18250000000E+03  0.18250000000E+03  0.00000000000E+00 0.  1.
         11   -1    0    0    0    0 -0.00000000000E+00 -0.00000000000E+00 -0.18250000000E+03  0.18250000000E+03  0.00000000000E+00 0. -1.
        -11    1    1    2    0    0  0.54651981182E+01 -0.22115425090E+01  0.10366571665E+03  0.10383323225E+03  0.00000000000E+00 0.  1.
         11    1    1    2    0    0 -0.33348726346E+01  0.69284427827E-01 -0.18152347849E+03  0.18155412256E+03  0.00000000000E+00 0. -1.
        -15    1    1    2    0    0 -0.54003068257E+01 -0.46247286262E+01  0.21200479669E+02  0.22431439897E+02  0.17770000000E+01 0. -1.
         15    1    1    2    0    0  0.32699813421E+01  0.67669867074E+01  0.56657282169E+02  0.57181205293E+02  0.17770000000E+01 0.  1.
</event>
<event>
 6    1  0.1108180E-002  0.1845527E+03  0.7546771E-02  0.1066832E+00
        -11   -1    0    0    0    0  0.00000000000E+00  0.00000000000E+00  0.18250000000E+03  0.18250000000E+03  0.00000000000E+00 0.  1.
         11   -1    0    0    0    0 -0.00000000000E+00 -0.00000000000E+00 -0.18250000000E+03  0.18250000000E+03  0.00000000000E+00 0.  1.
        -11    1    1    2    0    0  0.22497473378E+00 -0.17642421972E+01  0.82875098842E+02  0.82894180570E+02  0.00000000000E+00 0.  1.
         11    1    1    2    0    0 -0.18768532058E+01 -0.15904817122E+01 -0.18043051793E+03  0.18044728873E+03  0.00000000000E+00 0.  1.
        -15    1    1    2    0    0 -0.12091098474E+02  0.52357062842E+01  0.62863420339E+02  0.64253985311E+02  0.17770000000E+01 0. -1.
         15    1    1    2    0    0  0.13742976946E+02 -0.18809823749E+01  0.34691998745E+02  0.37404545391E+02  0.17770000000E+01 0.  1.
</event>
<event>
 6    1  0.1108180E-002  0.1760526E+03  0.7546771E-02  0.1073706E+00
        -11   -1    0    0    0    0  0.00000000000E+00  0.00000000000E+00  0.18250000000E+03  0.18250000000E+03  0.00000000000E+00 0. -1.
         11   -1    0    0    0    0 -0.00000000000E+00 -0.00000000000E+00 -0.18250000000E+03  0.18250000000E+03  0.00000000000E+00 0. -1.
        -11    1    1    2    0    0  0.30675083430E+01  0.73276619326E-01  0.17475390507E+03  0.17478084081E+03  0.00000000000E+00 0. -1.
         11    1    1    2    0    0  0.67007258513E+01  0.24093092740E+01 -0.17733517426E+03  0.17747807900E+03  0.00000000000E+00 0. -1.
        -15    1    1    2    0    0 -0.25999104749E+01 -0.21900771716E+01 -0.17042909751E+01  0.41974169703E+01  0.17770000000E+01 0.  1.
         15    1    1    2    0    0 -0.71683237194E+01 -0.29250872174E+00  0.42855601649E+01  0.85436632205E+01  0.17770000000E+01 0.  1.
</event>
<event>
 6    1  0.1108180E-002  0.1850080E+03  0.7546771E-02  0.1066476E+00
        -11   -1    0    0    0    0  0.00000000000E+00  0.00000000000E+00  0.18250000000E+03  0.18250000000E+03  0.00000000000E+00 0. -1.
         11   -1    0    0    0    0 -0.00000000000E+00 -0.00000000000E+00 -0.18250000000E+03  0.18250000000E+03  0.00000000000E+00 0.  1.
        -11    1    1    2    0    0 -0.26475373249E+01 -0.11318858026E+01  0.17996892787E+03  0.17999195987E+03  0.00000000000E+00 0. -1.
         11    1    1    2    0    0 -0.38187411750E+00 -0.26870131934E+01 -0.13815023294E+03  0.13817688927E+03  0.00000000000E+00 0.  1.
        -15    1    1    2    0    0  0.21952344557E+01  0.32130164634E+01 -0.43781381744E+02  0.43989881172E+02  0.17770000000E+01 0. -1.
         15    1    1    2    0    0  0.83417698664E+00  0.60588253265E+00  0.19626868121E+01  0.28412696829E+01  0.17770000000E+01 0.  1.
</event>
<event>
 6    1  0.1108180E-002  0.1892616E+03  0.7546771E-02  0.1063196E+00
        -11   -1    0    0    0    0  0.00000000000E+00  0.00000000000E+00  0.18250000000E+03  0.18250000000E+03  0.00000000000E+00 0. -1.
         11   -1    0    0    0    0 -0.00000000000E+00 -0.00000000000E+00 -0.18250000000E+03  0.18250000000E+03  0.00000000000E+00 0. -1.
        -11    1    1    2    0    0  0.82222615556E+01 -0.13601398987E+02  0.17501826196E+03  0.17573842966E+03  0.00000000000E+00 0. -1.
         11    1    1    2    0    0  0.34969533489E+01  0.68736148170E+01 -0.14851690748E+03  0.14871700331E+03  0.00000000000E+00 0. -1.
        -15    1    1    2    0    0 -0.68174083262E+00 -0.31938690947E+01  0.46732200103E+01  0.59717907383E+01  0.17770000000E+01 0. -1.
         15    1    1    2    0    0 -0.11037474072E+02  0.99216532645E+01 -0.31174574487E+02  0.34572776296E+02  0.17770000000E+01 0.  1.
</event>
<event>
 6    1  0.1108180E-002  0.1844754E+03  0.7546771E-02  0.1066893E+00
        -11   -1    0    0    0    0  0.00000000000E+00  0.00000000000E+00  0.18250000000E+03  0.18250000000E+03  0.00000000000E+00 0. -1.
         11   -1    0    0    0    0 -0.00000000000E+00 -0.00000000000E+00 -0.18250000000E+03  0.18250000000E+03  0.00000000000E+00 0.  1.
        -11    1    1    2    0    0  0.16147335700E+01 -0.41854369664E+01  0.18046883992E+03  0.18052458954E+03  0.00000000000E+00 0. -1.
         11    1    1    2    0    0  0.15723681759E+01  0.29523524562E+01 -0.16707298663E+03  0.16710646782E+03  0.00000000000E+00 0.  1.
        -15    1    1    2    0    0 -0.19183633050E+01 -0.37124774466E+01 -0.24473691722E+01  0.51584834425E+01  0.17770000000E+01 0.  1.
         15    1    1    2    0    0 -0.12687384409E+01  0.49455619567E+01 -0.10948484115E+02  0.12210459194E+02  0.17770000000E+01 0.  1.
</event>
<event>
 6    1  0.1108180E-002  0.1852151E+03  0.7546771E-02  0.1066314E+00
        -11   -1    0    0    0    0  0.00000000000E+00  0.00000000000E+00  0.18250000000E+03  0.18250000000E+03  0.00000000000E+00 0.  1.
         11   -1    0    0    0    0 -0.00000000000E+00 -0.00000000000E+00 -0.18250000000E+03  0.18250000000E+03  0.00000000000E+00 0. -1.
        -11    1    1    2    0    0 -0.14467385602E+01  0.20428285053E+01  0.17976746543E+03  0.17978489321E+03  0.00000000000E+00 0.  1.
         11    1    1    2    0    0 -0.55333515114E+01  0.61445896764E+00 -0.16091337934E+03  0.16100966178E+03  0.00000000000E+00 0. -1.
        -15    1    1    2    0    0  0.34876196816E+01  0.45687058654E+01 -0.39875191030E+01  0.72176590336E+01  0.17770000000E+01 0.  1.
         15    1    1    2    0    0  0.34924703900E+01 -0.72259933384E+01 -0.14866566989E+02  0.16987785971E+02  0.17770000000E+01 0.  1.
</event>
<event>
 6    1  0.1108180E-002  0.1828063E+03  0.7546771E-02  0.1068211E+00
        -11   -1    0    0    0    0  0.00000000000E+00  0.00000000000E+00  0.18250000000E+03  0.18250000000E+03  0.00000000000E+00 0.  1.
         11   -1    0    0    0    0 -0.00000000000E+00 -0.00000000000E+00 -0.18250000000E+03  0.18250000000E+03  0.00000000000E+00 0. -1.
        -11    1    1    2    0    0  0.60762957578E+01  0.27733546353E+01  0.18207127240E+03  0.18219374605E+03  0.00000000000E+00 0.  1.
         11    1    1    2    0    0  0.16271275574E+01  0.55850479670E-02 -0.97806919259E+02  0.97820453026E+02  0.00000000000E+00 0. -1.
        -15    1    1    2    0    0  0.46455265651E+00  0.25020206306E+00 -0.23691938954E+02  0.23764345365E+02  0.17770000000E+01 0. -1.
         15    1    1    2    0    0 -0.81679759717E+01 -0.30291417463E+01 -0.60572414188E+02  0.61221455558E+02  0.17770000000E+01 0. -1.
</event>
<event>
 6    1  0.1108180E-002  0.1825677E+03  0.7546771E-02  0.1068401E+00
        -11   -1    0    0    0    0  0.00000000000E+00  0.00000000000E+00  0.18250000000E+03  0.18250000000E+03  0.00000000000E+00 0. -1.
         11   -1    0    0    0    0 -0.00000000000E+00 -0.00000000000E+00 -0.18250000000E+03  0.18250000000E+03  0.00000000000E+00 0. -1.
        -11    1    1    2    0    0 -0.26552838586E+01 -0.13522951315E+01  0.18240792133E+03  0.18243225866E+03  0.00000000000E+00 0. -1.
         11    1    1    2    0    0 -0.53356363867E+00  0.57945750155E+00 -0.52259672848E+02  0.52265608839E+02  0.00000000000E+00 0. -1.
        -15    1    1    2    0    0  0.39111856561E+01  0.13337390574E+00 -0.91981675151E+02  0.92082036546E+02  0.17770000000E+01 0. -1.
         15    1    1    2    0    0 -0.72233815881E+00  0.63946372421E+00 -0.38166573331E+02  0.38220095959E+02  0.17770000000E+01 0. -1.
</event>
<event>
 6    1  0.1108180E-002  0.1836387E+03  0.7546771E-02  0.1067552E+00
        -11   -1    0    0    0    0  0.00000000000E+00  0.00000000000E+00  0.18250000000E+03  0.18250000000E+03  0.00000000000E+00 0.  1.
         11   -1    0    0    0    0 -0.00000000000E+00 -0.00000000000E+00 -0.18250000000E+03  0.18250000000E+03  0.00000000000E+00 0.  1.
        -11    1    1    2    0    0 -0.38260074506E+01  0.30496649614E+01  0.13712288532E+03  0.13721014711E+03  0.00000000000E+00 0.  1.
         11    1    1    2    0    0  0.30932137290E+01  0.66881820416E+00 -0.18133372070E+03  0.18136133423E+03  0.00000000000E+00 0.  1.
        -15    1    1    2    0    0 -0.61555927629E+00 -0.85333323500E+01  0.30486017575E+02  0.31713588110E+02  0.17770000000E+01 0.  1.
         15    1    1    2    0    0  0.13483529979E+01  0.48148491844E+01  0.13724817805E+02  0.14714930555E+02  0.17770000000E+01 0.  1.
</event>
<event>
 6    1  0.1108180E-002  0.1828867E+03  0.7546771E-02  0.1068147E+00
        -11   -1    0    0    0    0  0.00000000000E+00  0.00000000000E+00  0.18250000000E+03  0.18250000000E+03  0.00000000000E+00 0. -1.
         11   -1    0    0    0    0 -0.00000000000E+00 -0.00000000000E+00 -0.18250000000E+03  0.18250000000E+03  0.00000000000E+00 0.  1.
        -11    1    1    2    0    0 -0.14061142796E+01 -0.67618552124E+00  0.77974269126E+02  0.77989877741E+02  0.00000000000E+00 0. -1.
         11    1    1    2    0    0  0.16157782928E+01 -0.31150706302E+01 -0.18207945127E+03  0.18211326415E+03  0.00000000000E+00 0.  1.
        -15    1    1    2    0    0  0.11833857880E+01  0.60651579160E-01  0.92091033597E+02  0.92115798202E+02  0.17770000000E+01 0. -1.
         15    1    1    2    0    0 -0.13930498012E+01  0.37306045722E+01  0.12014148543E+02  0.12781059911E+02  0.17770000000E+01 0. -1.
</event>
<event>
 6    1  0.1108180E-002  0.1913227E+03  0.7546771E-02  0.1061641E+00
        -11   -1    0    0    0    0  0.00000000000E+00  0.00000000000E+00  0.18250000000E+03  0.18250000000E+03  0.00000000000E+00 0.  1.
         11   -1    0    0    0    0 -0.00000000000E+00 -0.00000000000E+00 -0.18250000000E+03  0.18250000000E+03  0.00000000000E+00 0. -1.
        -11    1    1    2    0    0  0.20191776837E+01 -0.33490778287E+01  0.17363326728E+03  0.17367730107E+03  0.00000000000E+00 0.  1.
         11    1    1    2    0    0  0.14636674710E+01  0.53453219530E+01 -0.16698961227E+03  0.16708155313E+03  0.00000000000E+00 0. -1.
        -15    1    1    2    0    0  0.25862759811E+00  0.41045932648E+01  0.72438065074E+01  0.85173373668E+01  0.17770000000E+01 0.  1.
         15    1    1    2    0    0 -0.37414727527E+01 -0.61008373891E+01 -0.13887461517E+02  0.15723808432E+02  0.17770000000E+01 0. -1.
</event>
<event>
 6    1  0.1108180E-002  0.1828833E+03  0.7546771E-02  0.1068150E+00
        -11   -1    0    0    0    0  0.00000000000E+00  0.00000000000E+00  0.18250000000E+03  0.18250000000E+03  0.00000000000E+00 0.  1.
         11   -1    0    0    0    0 -0.00000000000E+00 -0.00000000000E+00 -0.18250000000E+03  0.18250000000E+03  0.00000000000E+00 0.  1.
        -11    1    1    2    0    0 -0.12283111095E+01  0.74662113169E+00  0.85153568017E+02  0.85165699301E+02  0.00000000000E+00 0.  1.
         11    1    1    2    0    0  0.25850005158E+00  0.43040891248E+01 -0.18206568477E+03  0.18211673612E+03  0.00000000000E+00 0.  1.
        -15    1    1    2    0    0  0.13135764165E+01 -0.20223499929E+01  0.89047550211E+02  0.89097919785E+02  0.17770000000E+01 0.  1.
         15    1    1    2    0    0 -0.34376535861E+00 -0.30283602635E+01  0.78645665395E+01  0.86196447932E+01  0.17770000000E+01 0. -1.
</event>
<event>
 6    1  0.1108180E-002  0.1838804E+03  0.7546771E-02  0.1067361E+00
        -11   -1    0    0    0    0  0.00000000000E+00  0.00000000000E+00  0.18250000000E+03  0.18250000000E+03  0.00000000000E+00 0. -1.
         11   -1    0    0    0    0 -0.00000000000E+00 -0.00000000000E+00 -0.18250000000E+03  0.18250000000E+03  0.00000000000E+00 0.  1.
        -11    1    1    2    0    0  0.47418178181E+01 -0.22695385707E+00  0.14445458133E+03  0.14453256522E+03  0.00000000000E+00 0. -1.
         11    1    1    2    0    0  0.42968366371E+01 -0.32212043670E+01 -0.18104000646E+03  0.18111963699E+03  0.00000000000E+00 0.  1.
        -15    1    1    2    0    0 -0.70255702473E+01  0.49323429599E+01  0.13746368358E+02  0.16303589065E+02  0.17770000000E+01 0.  1.
         15    1    1    2    0    0 -0.20130842080E+01 -0.14841847359E+01  0.22839056776E+02  0.23044208725E+02  0.17770000000E+01 0. -1.
</event>
<event>
 6    1  0.1113157E-002  0.1446118E+03  0.7546771E-02  0.1103387E+00
        -11   -1    0    0    0    0  0.00000000000E+00  0.00000000000E+00  0.18250000000E+03  0.18250000000E+03  0.00000000000E+00 0. -1.
         11   -1    0    0    0    0 -0.00000000000E+00 -0.00000000000E+00 -0.18250000000E+03  0.18250000000E+03  0.00000000000E+00 0.  1.
        -11    1    1    2    0    0 -0.44367764870E+02 -0.16904244582E+02  0.12599054851E+03  0.13463978000E+03  0.00000000000E+00 0. -1.
         11    1    1    2    0    0 -0.28374674509E+01 -0.11585313964E+02 -0.10429446080E+03  0.10497430768E+03  0.00000000000E+00 0.  1.
        -15    1    1    2    0    0 -0.78058145082E+01  0.11958540414E+02 -0.56430044372E+02  0.58236114790E+02  0.17770000000E+01 0. -1.
         15    1    1    2    0    0  0.55011046829E+02  0.16531018132E+02  0.34733956658E+02  0.67149797527E+02  0.17770000000E+01 0.  1.
</event>
<event>
 6    1  0.1108180E-002  0.1846738E+03  0.7546771E-02  0.1066738E+00
        -11   -1    0    0    0    0  0.00000000000E+00  0.00000000000E+00  0.18250000000E+03  0.18250000000E+03  0.00000000000E+00 0. -1.
         11   -1    0    0    0    0 -0.00000000000E+00 -0.00000000000E+00 -0.18250000000E+03  0.18250000000E+03  0.00000000000E+00 0. -1.
        -11    1    1    2    0    0 -0.92921994887E+00  0.86164371004E+00  0.73863684657E+02  0.73874554420E+02  0.00000000000E+00 0. -1.
         11    1    1    2    0    0 -0.86757494764E+01 -0.11200172493E+01 -0.18011393505E+03  0.18032623954E+03  0.00000000000E+00 0. -1.
        -15    1    1    2    0    0  0.55274786538E+01 -0.12254174136E+02  0.24723426345E+02  0.28197931542E+02  0.17770000000E+01 0.  1.
         15    1    1    2    0    0  0.40774907714E+01  0.12512547675E+02  0.81526824048E+02  0.82601274498E+02  0.17770000000E+01 0. -1.
</event>
<event>
 6    1  0.1108180E-002  0.1853281E+03  0.7546771E-02  0.1066226E+00
        -11   -1    0    0    0    0  0.00000000000E+00  0.00000000000E+00  0.18250000000E+03  0.18250000000E+03  0.00000000000E+00 0. -1.
         11   -1    0    0    0    0 -0.00000000000E+00 -0.00000000000E+00 -0.18250000000E+03  0.18250000000E+03  0.00000000000E+00 0. -1.
        -11    1    1    2    0    0 -0.17195076167E+01 -0.21700617479E+01  0.17965053667E+03  0.17967187092E+03  0.00000000000E+00 0. -1.
         11    1    1    2    0    0  0.34017618082E+01 -0.77570309423E+00 -0.16499289356E+03  0.16502978102E+03  0.00000000000E+00 0. -1.
        -15    1    1    2    0    0 -0.34356134792E+01 -0.37855977347E+01 -0.20452738789E+01  0.57857639449E+01  0.17770000000E+01 0.  1.
         15    1    1    2    0    0  0.17533592877E+01  0.67313625768E+01 -0.12612369236E+02  0.14512584115E+02  0.17770000000E+01 0. -1.
</event>
<event>
 6    1  0.1108180E-002  0.1834691E+03  0.7546771E-02  0.1067686E+00
        -11   -1    0    0    0    0  0.00000000000E+00  0.00000000000E+00  0.18250000000E+03  0.18250000000E+03  0.00000000000E+00 0.  1.
         11   -1    0    0    0    0 -0.00000000000E+00 -0.00000000000E+00 -0.18250000000E+03  0.18250000000E+03  0.00000000000E+00 0.  1.
        -11    1    1    2    0    0  0.24960915398E+01 -0.35868321436E+01  0.47437083400E+02  0.47637933617E+02  0.00000000000E+00 0.  1.
         11    1    1    2    0    0  0.20280807372E+01  0.16360550945E+01 -0.18151222380E+03  0.18153092623E+03  0.00000000000E+00 0.  1.
        -15    1    1    2    0    0 -0.77311514553E+01 -0.10767806078E+01  0.18494992075E+02  0.20153228529E+02  0.17770000000E+01 0. -1.
         15    1    1    2    0    0  0.32069791783E+01  0.30275576568E+01  0.11558014833E+03  0.11567791162E+03  0.17770000000E+01 0. -1.
</event>
<event>
 6    1  0.1108180E-002  0.1837331E+03  0.7546771E-02  0.1067478E+00
        -11   -1    0    0    0    0  0.00000000000E+00  0.00000000000E+00  0.18250000000E+03  0.18250000000E+03  0.00000000000E+00 0.  1.
         11   -1    0    0    0    0 -0.00000000000E+00 -0.00000000000E+00 -0.18250000000E+03  0.18250000000E+03  0.00000000000E+00 0.  1.
        -11    1    1    2    0    0  0.67463301069E+01 -0.52501034276E+01  0.11123070445E+03  0.11155871176E+03  0.00000000000E+00 0.  1.
         11    1    1    2    0    0 -0.29000912860E+01  0.26552267433E+01 -0.18122429457E+03  0.18126694597E+03  0.00000000000E+00 0.  1.
        -15    1    1    2    0    0 -0.34428482302E-02 -0.55964830009E+01  0.11043723689E+02  0.12507685467E+02  0.17770000000E+01 0. -1.
         15    1    1    2    0    0 -0.38427959727E+01  0.81913596851E+01  0.58949866427E+02  0.59666656812E+02  0.17770000000E+01 0.  1.
</event>
<event>
 6    1  0.1108180E-002  0.1879110E+03  0.7546771E-02  0.1064227E+00
        -11   -1    0    0    0    0  0.00000000000E+00  0.00000000000E+00  0.18250000000E+03  0.18250000000E+03  0.00000000000E+00 0. -1.
         11   -1    0    0    0    0 -0.00000000000E+00 -0.00000000000E+00 -0.18250000000E+03  0.18250000000E+03  0.00000000000E+00 0. -1.
        -11    1    1    2    0    0 -0.11431083180E+02  0.44142895443E+01  0.10946899612E+03  0.11015269732E+03  0.00000000000E+00 0. -1.
         11    1    1    2    0    0  0.21381741523E+00 -0.11096246548E+02 -0.17674084503E+03  0.17708895704E+03  0.00000000000E+00 0. -1.
        -15    1    1    2    0    0 -0.13146839899E+02 -0.29953967082E+00  0.18519035991E+02  0.22782483323E+02  0.17770000000E+01 0.  1.
         15    1    1    2    0    0  0.24364105664E+02  0.69814966745E+01  0.48752812916E+02  0.54975862311E+02  0.17770000000E+01 0. -1.
</event>
<event>
 6    1  0.1108180E-002  0.1918264E+03  0.7546771E-02  0.1061264E+00
        -11   -1    0    0    0    0  0.00000000000E+00  0.00000000000E+00  0.18250000000E+03  0.18250000000E+03  0.00000000000E+00 0. -1.
         11   -1    0    0    0    0 -0.00000000000E+00 -0.00000000000E+00 -0.18250000000E+03  0.18250000000E+03  0.00000000000E+00 0. -1.
        -11    1    1    2    0    0 -0.51604933461E+01  0.56461681688E+01  0.17300458825E+03  0.17317360498E+03  0.00000000000E+00 0. -1.
         11    1    1    2    0    0 -0.96924421171E+01 -0.15581596453E+02 -0.15876913510E+03  0.15982605495E+03  0.00000000000E+00 0. -1.
        -15    1    1    2    0    0  0.42593719495E+01 -0.64477400589E+01 -0.25589098656E+00  0.79333984186E+01  0.17770000000E+01 0. -1.
         15    1    1    2    0    0  0.10593563514E+02  0.16383168343E+02 -0.13979562169E+02  0.24066941649E+02  0.17770000000E+01 0.  1.
</event>
<event>
 6    1  0.1412345E-002  0.1835934E+03  0.7546771E-02  0.1067588E+00
        -11   -1    0    0    0    0  0.00000000000E+00  0.00000000000E+00  0.18250000000E+03  0.18250000000E+03  0.00000000000E+00 0.  1.
         11   -1    0    0    0    0 -0.00000000000E+00 -0.00000000000E+00 -0.18250000000E+03  0.18250000000E+03  0.00000000000E+00 0.  1.
        -11    1    1    2    0    0  0.20757921085E+01  0.12937258311E+01  0.18139008596E+03  0.18140657630E+03  0.00000000000E+00 0.  1.
         11    1    1    2    0    0 -0.69059526820E+00  0.44201399722E+01 -0.16391239379E+03  0.16397343504E+03  0.00000000000E+00 0.  1.
        -15    1    1    2    0    0 -0.53719317344E+00 -0.56934025447E+01 -0.16203311826E+02  0.17274502950E+02  0.17770000000E+01 0. -1.
         15    1    1    2    0    0 -0.84800366687E+00 -0.20463258534E-01 -0.12743803426E+01  0.23454857112E+01  0.17770000000E+01 0. -1.
</event>
<event>
 6    1  0.1108180E-002  0.1871583E+03  0.7546771E-02  0.1064806E+00
        -11   -1    0    0    0    0  0.00000000000E+00  0.00000000000E+00  0.18250000000E+03  0.18250000000E+03  0.00000000000E+00 0. -1.
         11   -1    0    0    0    0 -0.00000000000E+00 -0.00000000000E+00 -0.18250000000E+03  0.18250000000E+03  0.00000000000E+00 0.  1.
        -11    1    1    2    0    0 -0.15124110973E+01  0.58822807239E+01  0.14916304327E+03  0.14928664405E+03  0.00000000000E+00 0. -1.
         11    1    1    2    0    0  0.15403812778E+02  0.71850563944E+01 -0.17702755906E+03  0.17784166877E+03  0.00000000000E+00 0.  1.
        -15    1    1    2    0    0 -0.10276302656E+01 -0.85134711835E+01  0.20436134477E+02  0.22233500330E+02  0.17770000000E+01 0. -1.
         15    1    1    2    0    0 -0.12863771415E+02 -0.45538659349E+01  0.74283813144E+01  0.15638186849E+02  0.17770000000E+01 0.  1.
</event>
<event>
 6    1  0.1108180E-002  0.1972940E+03  0.7546771E-02  0.1057253E+00
        -11   -1    0    0    0    0  0.00000000000E+00  0.00000000000E+00  0.18250000000E+03  0.18250000000E+03  0.00000000000E+00 0.  1.
         11   -1    0    0    0    0 -0.00000000000E+00 -0.00000000000E+00 -0.18250000000E+03  0.18250000000E+03  0.00000000000E+00 0.  1.
        -11    1    1    2    0    0 -0.24951651605E+01  0.10254073741E+01  0.16768433034E+03  0.16770602836E+03  0.00000000000E+00 0.  1.
         11    1    1    2    0    0 -0.22371519010E+02  0.11045346430E+02 -0.11935000804E+03  0.12192993463E+03  0.00000000000E+00 0.  1.
        -15    1    1    2    0    0  0.97846689439E+00 -0.18554731857E+02  0.24648131672E+01  0.18827333977E+02  0.17770000000E+01 0. -1.
         15    1    1    2    0    0  0.23888217276E+02  0.64839780525E+01 -0.50799135468E+02  0.56536703028E+02  0.17770000000E+01 0.  1.
</event>
<event>
 6    1  0.1108180E-002  0.1036693E+03  0.7546771E-02  0.1157615E+00
        -11   -1    0    0    0    0  0.00000000000E+00  0.00000000000E+00  0.18250000000E+03  0.18250000000E+03  0.00000000000E+00 0. -1.
         11   -1    0    0    0    0 -0.00000000000E+00 -0.00000000000E+00 -0.18250000000E+03  0.18250000000E+03  0.00000000000E+00 0. -1.
        -11    1    1    2    0    0 -0.29597386461E+01  0.50229634180E+01  0.90595568884E+02  0.90782968203E+02  0.00000000000E+00 0. -1.
         11    1    1    2    0    0  0.14228513058E+01 -0.85515317481E+00 -0.11739729815E+03  0.11740903460E+03  0.00000000000E+00 0. -1.
        -15    1    1    2    0    0  0.44059757231E+01 -0.10850074246E+02  0.91205100286E+02  0.91970999671E+02  0.17770000000E+01 0. -1.
         15    1    1    2    0    0 -0.28690883828E+01  0.66822640032E+01 -0.64403371020E+02  0.64836997526E+02  0.17770000000E+01 0.  1.
</event>
<event>
 6    1  0.1108180E-002  0.1841838E+03  0.7546771E-02  0.1067122E+00
        -11   -1    0    0    0    0  0.00000000000E+00  0.00000000000E+00  0.18250000000E+03  0.18250000000E+03  0.00000000000E+00 0.  1.
         11   -1    0    0    0    0 -0.00000000000E+00 -0.00000000000E+00 -0.18250000000E+03  0.18250000000E+03  0.00000000000E+00 0.  1.
        -11    1    1    2    0    0  0.35356739228E+01  0.10186468631E+01  0.14197608801E+03  0.14202375927E+03  0.00000000000E+00 0.  1.
         11    1    1    2    0    0  0.55935895488E+01  0.14071877300E+01 -0.18072419977E+03  0.18081621831E+03  0.00000000000E+00 0.  1.
        -15    1    1    2    0    0  0.60571685256E+00 -0.30617710644E+01  0.24728244614E+02  0.24987699887E+02  0.17770000000E+01 0.  1.
         15    1    1    2    0    0 -0.97349803241E+01  0.63593647120E+00  0.14019867154E+02  0.17172322532E+02  0.17770000000E+01 0. -1.
</event>
<event>
 6    1  0.1108180E-002  0.1831029E+03  0.7546771E-02  0.1067976E+00
        -11   -1    0    0    0    0  0.00000000000E+00  0.00000000000E+00  0.18250000000E+03  0.18250000000E+03  0.00000000000E+00 0. -1.
         11   -1    0    0    0    0 -0.00000000000E+00 -0.00000000000E+00 -0.18250000000E+03  0.18250000000E+03  0.00000000000E+00 0.  1.
        -11    1    1    2    0    0  0.58448969970E+00  0.60319196630E+01  0.13617175274E+03  0.13630653663E+03  0.00000000000E+00 0. -1.
         11    1    1    2    0    0 -0.35604636326E+01 -0.85309859454E-01 -0.18186223256E+03  0.18189710226E+03  0.00000000000E+00 0.  1.
        -15    1    1    2    0    0  0.14660720792E+01  0.54891116225E-01  0.25504936655E+02  0.25608824712E+02  0.17770000000E+01 0. -1.
         15    1    1    2    0    0  0.15099018537E+01 -0.60015009198E+01  0.20185543166E+02  0.21187536402E+02  0.17770000000E+01 0.  1.
</event>
<event>
 6    1  0.1108180E-002  0.1685186E+03  0.7546771E-02  0.1080163E+00
        -11   -1    0    0    0    0  0.00000000000E+00  0.00000000000E+00  0.18250000000E+03  0.18250000000E+03  0.00000000000E+00 0. -1.
         11   -1    0    0    0    0 -0.00000000000E+00 -0.00000000000E+00 -0.18250000000E+03  0.18250000000E+03  0.00000000000E+00 0. -1.
        -11    1    1    2    0    0  0.25954473808E+01  0.19683467588E+01  0.17077949572E+03  0.17081055850E+03  0.00000000000E+00 0. -1.
         11    1    1    2    0    0 -0.36540299040E+01  0.74858824264E+01 -0.16618348229E+03  0.16639212769E+03  0.00000000000E+00 0. -1.
        -15    1    1    2    0    0 -0.49246185853E+01 -0.16075341813E+01  0.92216138444E+01  0.10725293714E+02  0.17770000000E+01 0. -1.
         15    1    1    2    0    0  0.59832011086E+01 -0.78466950039E+01 -0.13817627268E+02  0.17072020100E+02  0.17770000000E+01 0. -1.
</event>
<event>
 6    1  0.1108180E-002  0.2285395E+03  0.7546771E-02  0.1036764E+00
        -11   -1    0    0    0    0  0.00000000000E+00  0.00000000000E+00  0.18250000000E+03  0.18250000000E+03  0.00000000000E+00 0.  1.
         11   -1    0    0    0    0 -0.00000000000E+00 -0.00000000000E+00 -0.18250000000E+03  0.18250000000E+03  0.00000000000E+00 0.  1.
        -11    1    1    2    0    0  0.17310184747E+01 -0.23984401505E+01  0.13642840925E+03  0.13646046970E+03  0.00000000000E+00 0.  1.
         11    1    1    2    0    0 -0.20466504486E+02  0.13520362072E+02 -0.11090332211E+03  0.11358355890E+03  0.00000000000E+00 0.  1.
        -15    1    1    2    0    0  0.18357098536E+02 -0.20819699841E+02 -0.66883901436E+02  0.72436572037E+02  0.17770000000E+01 0. -1.
         15    1    1    2    0    0  0.37838747539E+00  0.96977779191E+01  0.41358814296E+02  0.42519399369E+02  0.17770000000E+01 0.  1.
</event>
<event>
 6    1  0.1108180E-002  0.1899774E+03  0.7546771E-02  0.1062654E+00
        -11   -1    0    0    0    0  0.00000000000E+00  0.00000000000E+00  0.18250000000E+03  0.18250000000E+03  0.00000000000E+00 0. -1.
         11   -1    0    0    0    0 -0.00000000000E+00 -0.00000000000E+00 -0.18250000000E+03  0.18250000000E+03  0.00000000000E+00 0. -1.
        -11    1    1    2    0    0  0.29191252021E+01 -0.16536108882E+02  0.15311048925E+03  0.15402852368E+03  0.00000000000E+00 0. -1.
         11    1    1    2    0    0 -0.10514047230E+02 -0.28289501876E+01 -0.17468357865E+03  0.17502257225E+03  0.00000000000E+00 0. -1.
        -15    1    1    2    0    0  0.21723775091E+01  0.15481997459E+02  0.23943831547E+02  0.28650938336E+02  0.17770000000E+01 0. -1.
         15    1    1    2    0    0  0.54225445191E+01  0.38830616100E+01 -0.23707421481E+01  0.72979657345E+01  0.17770000000E+01 0.  1.
</event>
<event>
 6    1  0.1108180E-002  0.1837639E+03  0.7546771E-02  0.1067453E+00
        -11   -1    0    0    0    0  0.00000000000E+00  0.00000000000E+00  0.18250000000E+03  0.18250000000E+03  0.00000000000E+00 0. -1.
         11   -1    0    0    0    0 -0.00000000000E+00 -0.00000000000E+00 -0.18250000000E+03  0.18250000000E+03  0.00000000000E+00 0. -1.
        -11    1    1    2    0    0  0.34915887619E+01 -0.13741242509E+01  0.18119724562E+03  0.18123609252E+03  0.00000000000E+00 0. -1.
         11    1    1    2    0    0  0.20421064043E+01 -0.23416517783E+01 -0.15811446225E+03  0.15814498634E+03  0.00000000000E+00 0. -1.
        -15    1    1    2    0    0 -0.32251419083E+01  0.34602961511E+01 -0.21881494160E+02  0.22457353038E+02  0.17770000000E+01 0. -1.
         15    1    1    2    0    0 -0.23085532579E+01  0.25547987810E+00 -0.12012892132E+01  0.31615681056E+01  0.17770000000E+01 0.  1.
</event>
<event>
 6    1  0.1508766E-002  0.1940466E+03  0.7546771E-02  0.1059618E+00
        -11   -1    0    0    0    0  0.00000000000E+00  0.00000000000E+00  0.18250000000E+03  0.18250000000E+03  0.00000000000E+00 0. -1.
         11   -1    0    0    0    0 -0.00000000000E+00 -0.00000000000E+00 -0.18250000000E+03  0.18250000000E+03  0.00000000000E+00 0. -1.
        -11    1    1    2    0    0 -0.95822053590E+00 -0.23456289800E+01  0.10366437310E+03  0.10369533457E+03  0.00000000000E+00 0. -1.
         11    1    1    2    0    0 -0.11335123650E+01  0.22285105544E+01 -0.17093512737E+03  0.17095341142E+03  0.00000000000E+00 0. -1.
        -15    1    1    2    0    0  0.17434924407E+01 -0.85125313409E+00 -0.11376717693E+02  0.11676978730E+02  0.17770000000E+01 0. -1.
         15    1    1    2    0    0  0.34824046016E+00  0.96837155968E+00  0.78647471961E+02  0.78674275273E+02  0.17770000000E+01 0. -1.
</event>
<event>
 6    1  0.1108180E-002  0.1837321E+03  0.7546771E-02  0.1067478E+00
        -11   -1    0    0    0    0  0.00000000000E+00  0.00000000000E+00  0.18250000000E+03  0.18250000000E+03  0.00000000000E+00 0.  1.
         11   -1    0    0    0    0 -0.00000000000E+00 -0.00000000000E+00 -0.18250000000E+03  0.18250000000E+03  0.00000000000E+00 0.  1.
        -11    1    1    2    0    0  0.89940747164E+00 -0.78814997863E+01  0.28780272388E+02  0.29853493119E+02  0.00000000000E+00 0.  1.
         11    1    1    2    0    0  0.12647918774E+00  0.72875788525E+01 -0.18112134652E+03  0.18126794248E+03  0.00000000000E+00 0.  1.
        -15    1    1    2    0    0  0.90321097650E+01 -0.45121567210E+01  0.75946352232E+02  0.76635140186E+02  0.17770000000E+01 0. -1.
         15    1    1    2    0    0 -0.10057996424E+02  0.51060776548E+01  0.76394721905E+02  0.77243424219E+02  0.17770000000E+01 0.  1.
</event>
<event>
 6    1  0.1108180E-002  0.1871036E+03  0.7546771E-02  0.1064848E+00
        -11   -1    0    0    0    0  0.00000000000E+00  0.00000000000E+00  0.18250000000E+03  0.18250000000E+03  0.00000000000E+00 0.  1.
         11   -1    0    0    0    0 -0.00000000000E+00 -0.00000000000E+00 -0.18250000000E+03  0.18250000000E+03  0.00000000000E+00 0. -1.
        -11    1    1    2    0    0  0.28076211921E+01  0.27101044445E+01  0.17785361760E+03  0.17789642126E+03  0.00000000000E+00 0.  1.
         11    1    1    2    0    0  0.38155785376E+01 -0.33296346565E+01 -0.14181925835E+03  0.14190964431E+03  0.00000000000E+00 0. -1.
        -15    1    1    2    0    0 -0.12532268822E+02  0.89237608432E+01 -0.14109009396E+02  0.20950254045E+02  0.17770000000E+01 0. -1.
         15    1    1    2    0    0  0.59090690920E+01 -0.83042306312E+01 -0.21925349850E+02  0.24243680392E+02  0.17770000000E+01 0.  1.
</event>
<event>
 6    1  0.1108180E-002  0.1849563E+03  0.7546771E-02  0.1066516E+00
        -11   -1    0    0    0    0  0.00000000000E+00  0.00000000000E+00  0.18250000000E+03  0.18250000000E+03  0.00000000000E+00 0.  1.
         11   -1    0    0    0    0 -0.00000000000E+00 -0.00000000000E+00 -0.18250000000E+03  0.18250000000E+03  0.00000000000E+00 0. -1.
        -11    1    1    2    0    0  0.29906111360E+01 -0.27560621237E+01  0.16554778892E+03  0.16559773564E+03  0.00000000000E+00 0.  1.
         11    1    1    2    0    0  0.26163586781E+01  0.20081041871E+01 -0.18001344184E+03  0.18004365320E+03  0.00000000000E+00 0. -1.
        -15    1    1    2    0    0 -0.26159574464E+01  0.38698754860E+01  0.98940209109E+00  0.50946849889E+01  0.17770000000E+01 0. -1.
         15    1    1    2    0    0 -0.29910123678E+01 -0.31219175494E+01  0.13476250832E+02  0.14263926166E+02  0.17770000000E+01 0.  1.
</event>
<event>
 6    1  0.1108180E-002  0.1840103E+03  0.7546771E-02  0.1067259E+00
        -11   -1    0    0    0    0  0.00000000000E+00  0.00000000000E+00  0.18250000000E+03  0.18250000000E+03  0.00000000000E+00 0.  1.
         11   -1    0    0    0    0 -0.00000000000E+00 -0.00000000000E+00 -0.18250000000E+03  0.18250000000E+03  0.00000000000E+00 0. -1.
        -11    1    1    2    0    0 -0.28680999721E+01 -0.36357145559E+01  0.18093040962E+03  0.18098966143E+03  0.00000000000E+00 0.  1.
         11    1    1    2    0    0 -0.91358518805E-01  0.24716745444E+01 -0.15405455296E+03  0.15407440673E+03  0.00000000000E+00 0. -1.
        -15    1    1    2    0    0  0.55520638970E+01  0.22373359809E+01 -0.25644416356E+02  0.26393652742E+02  0.17770000000E+01 0. -1.
         15    1    1    2    0    0 -0.25926054061E+01 -0.10732959694E+01 -0.12314403056E+01  0.35422791047E+01  0.17770000000E+01 0.  1.
</event>
<event>
 6    1  0.1108180E-002  0.1828994E+03  0.7546771E-02  0.1068137E+00
        -11   -1    0    0    0    0  0.00000000000E+00  0.00000000000E+00  0.18250000000E+03  0.18250000000E+03  0.00000000000E+00 0. -1.
         11   -1    0    0    0    0 -0.00000000000E+00 -0.00000000000E+00 -0.18250000000E+03  0.18250000000E+03  0.00000000000E+00 0. -1.
        -11    1    1    2    0    0  0.29763546291E+00  0.27431882673E+01  0.18207965182E+03  0.18210055814E+03  0.00000000000E+00 0. -1.
         11    1    1    2    0    0 -0.12853334887E+01 -0.68859522058E+00 -0.18904042005E+02  0.18960196457E+02  0.00000000000E+00 0. -1.
        -15    1    1    2    0    0  0.53657064544E+01 -0.23440557665E+01 -0.27138579024E+02  0.27819877851E+02  0.17770000000E+01 0.  1.
         15    1    1    2    0    0 -0.43780084286E+01  0.28946271975E+00 -0.13603703079E+03  0.13611936755E+03  0.17770000000E+01 0. -1.
</event>
<event>
 6    1  0.1108180E-002  0.1782868E+03  0.7546771E-02  0.1071859E+00
        -11   -1    0    0    0    0  0.00000000000E+00  0.00000000000E+00  0.18250000000E+03  0.18250000000E+03  0.00000000000E+00 0.  1.
         11   -1    0    0    0    0 -0.00000000000E+00 -0.00000000000E+00 -0.18250000000E+03  0.18250000000E+03  0.00000000000E+00 0. -1.
        -11    1    1    2    0    0  0.26044102726E+00 -0.57488344918E+00  0.12409000710E+02  0.12425040005E+02  0.00000000000E+00 0.  1.
         11    1    1    2    0    0  0.15784482074E+02 -0.20931765756E+02 -0.17827228164E+03  0.18018960873E+03  0.00000000000E+00 0. -1.
        -15    1    1    2    0    0 -0.15220982722E+02  0.14035294563E+02  0.31116630708E+02  0.37417512532E+02  0.17770000000E+01 0. -1.
         15    1    1    2    0    0 -0.82394038000E+00  0.74713546421E+01  0.13474665022E+03  0.13496783874E+03  0.17770000000E+01 0.  1.
</event>
<event>
 6    1  0.1108180E-002  0.1885751E+03  0.7546771E-02  0.1063719E+00
        -11   -1    0    0    0    0  0.00000000000E+00  0.00000000000E+00  0.18250000000E+03  0.18250000000E+03  0.00000000000E+00 0.  1.
         11   -1    0    0    0    0 -0.00000000000E+00 -0.00000000000E+00 -0.18250000000E+03  0.18250000000E+03  0.00000000000E+00 0.  1.
        -11    1    1    2    0    0  0.50100777659E+01 -0.51696779801E+01  0.17627792517E+03  0.17642486602E+03  0.00000000000E+00 0.  1.
         11    1    1    2    0    0  0.45708410136E+01  0.38849279525E+01 -0.43543747139E+02  0.43955012998E+02  0.00000000000E+00 0.  1.
        -15    1    1    2    0    0 -0.73361408539E+01  0.17431822320E+02 -0.12509522375E+03  0.12652928564E+03  0.17770000000E+01 0.  1.
         15    1    1    2    0    0 -0.22447779256E+01 -0.16147072292E+02 -0.76389542839E+01  0.18090835335E+02  0.17770000000E+01 0. -1.
</event>
<event>
 6    1  0.1108180E-002  0.1843137E+03  0.7546771E-02  0.1067020E+00
        -11   -1    0    0    0    0  0.00000000000E+00  0.00000000000E+00  0.18250000000E+03  0.18250000000E+03  0.00000000000E+00 0.  1.
         11   -1    0    0    0    0 -0.00000000000E+00 -0.00000000000E+00 -0.18250000000E+03  0.18250000000E+03  0.00000000000E+00 0.  1.
        -11    1    1    2    0    0  0.11275752087E+01  0.25246929650E+01  0.97653161945E+02  0.97692300302E+02  0.00000000000E+00 0.  1.
         11    1    1    2    0    0  0.19479706861E+01  0.39634373769E+01 -0.18063230456E+03  0.18068628304E+03  0.00000000000E+00 0.  1.
        -15    1    1    2    0    0 -0.16701916092E+01 -0.26758682249E+01  0.82000097870E+02  0.82079982886E+02  0.17770000000E+01 0.  1.
         15    1    1    2    0    0 -0.14053542856E+01 -0.38122621170E+01  0.97904474917E+00  0.45414337756E+01  0.17770000000E+01 0.  1.
</event>
<event>
 6    1  0.1108180E-002  0.1757913E+03  0.7546771E-02  0.1073924E+00
        -11   -1    0    0    0    0  0.00000000000E+00  0.00000000000E+00  0.18250000000E+03  0.18250000000E+03  0.00000000000E+00 0. -1.
         11   -1    0    0    0    0 -0.00000000000E+00 -0.00000000000E+00 -0.18250000000E+03  0.18250000000E+03  0.00000000000E+00 0. -1.
        -11    1    1    2    0    0 -0.16476671954E+01 -0.20577641167E+01  0.17600774004E+03  0.17602748012E+03  0.00000000000E+00 0. -1.
         11    1    1    2    0    0  0.23080888794E+01 -0.18239892385E+01 -0.17555272218E+03  0.17557736891E+03  0.00000000000E+00 0. -1.
        -15    1    1    2    0    0  0.16797947158E+01  0.13035539518E+01  0.55652990767E+01  0.62170126271E+01  0.17770000000E+01 0.  1.
         15    1    1    2    0    0 -0.23402163998E+01  0.25781994033E+01 -0.60203169458E+01  0.71781383442E+01  0.17770000000E+01 0.  1.
</event>
<event>
 6    1  0.1108180E-002  0.1829671E+03  0.7546771E-02  0.1068084E+00
        -11   -1    0    0    0    0  0.00000000000E+00  0.00000000000E+00  0.18250000000E+03  0.18250000000E+03  0.00000000000E+00 0.  1.
         11   -1    0    0    0    0 -0.00000000000E+00 -0.00000000000E+00 -0.18250000000E+03  0.18250000000E+03  0.00000000000E+00 0.  1.
        -11    1    1    2    0    0 -0.58434528137E+00 -0.19712868498E+00  0.26020377286E+02  0.26027684362E+02  0.00000000000E+00 0.  1.
         11    1    1    2    0    0  0.19007520387E+01 -0.37193781311E+01 -0.18198502087E+03  0.18203294881E+03  0.00000000000E+00 0.  1.
        -15    1    1    2    0    0 -0.40775270300E+01  0.96399364817E+01  0.82817636053E+02  0.83495348209E+02  0.17770000000E+01 0.  1.
         15    1    1    2    0    0  0.27611202727E+01 -0.57234296656E+01  0.73147007526E+02  0.73444018622E+02  0.17770000000E+01 0. -1.
</event>
<event>
 6    1  0.1108180E-002  0.1829543E+03  0.7546771E-02  0.1068094E+00
        -11   -1    0    0    0    0  0.00000000000E+00  0.00000000000E+00  0.18250000000E+03  0.18250000000E+03  0.00000000000E+00 0.  1.
         11   -1    0    0    0    0 -0.00000000000E+00 -0.00000000000E+00 -0.18250000000E+03  0.18250000000E+03  0.00000000000E+00 0.  1.
        -11    1    1    2    0    0  0.40939472106E+00 -0.84023073308E+00  0.46457303204E+02  0.46466704345E+02  0.00000000000E+00 0.  1.
         11    1    1    2    0    0 -0.32796701641E+01  0.78833810857E+00 -0.18201443387E+03  0.18204568616E+03  0.00000000000E+00 0.  1.
        -15    1    1    2    0    0  0.91728205316E+01 -0.34256167824E+00  0.79219766224E+02  0.79769587404E+02  0.17770000000E+01 0.  1.
         15    1    1    2    0    0 -0.63025450885E+01  0.39445430275E+00  0.56337364440E+02  0.56718022091E+02  0.17770000000E+01 0. -1.
</event>
<event>
 6    1  0.1108180E-002  0.1830667E+03  0.7546771E-02  0.1068005E+00
        -11   -1    0    0    0    0  0.00000000000E+00  0.00000000000E+00  0.18250000000E+03  0.18250000000E+03  0.00000000000E+00 0.  1.
         11   -1    0    0    0    0 -0.00000000000E+00 -0.00000000000E+00 -0.18250000000E+03  0.18250000000E+03  0.00000000000E+00 0.  1.
        -11    1    1    2    0    0  0.10467404469E+02  0.35676996184E+01  0.18159685547E+03  0.18193326511E+03  0.00000000000E+00 0.  1.
         11    1    1    2    0    0 -0.71870430347E+00  0.26072464054E+00 -0.16242801544E+02  0.16260784582E+02  0.00000000000E+00 0.  1.
        -15    1    1    2    0    0  0.56257427054E+00 -0.95669765934E+00 -0.12503263841E+03  0.12505019055E+03  0.17770000000E+01 0.  1.
         15    1    1    2    0    0 -0.10311274436E+02 -0.28717265996E+01 -0.40321415521E+02  0.41755759756E+02  0.17770000000E+01 0.  1.
</event>
<event>
 6    1  0.1108180E-002  0.1826461E+03  0.7546771E-02  0.1068339E+00
        -11   -1    0    0    0    0  0.00000000000E+00  0.00000000000E+00  0.18250000000E+03  0.18250000000E+03  0.00000000000E+00 0.  1.
         11   -1    0    0    0    0 -0.00000000000E+00 -0.00000000000E+00 -0.18250000000E+03  0.18250000000E+03  0.00000000000E+00 0. -1.
        -11    1    1    2    0    0 -0.49872161538E+00 -0.12368067699E+01  0.61353594284E+02  0.61368085727E+02  0.00000000000E+00 0.  1.
         11    1    1    2    0    0  0.63524317016E+01 -0.30403571203E+01 -0.18221790226E+03  0.18235394447E+03  0.00000000000E+00 0. -1.
        -15    1    1    2    0    0 -0.28057394398E+01  0.45071949416E+01  0.47551085001E+02  0.47879540451E+02  0.17770000000E+01 0.  1.
         15    1    1    2    0    0 -0.30479706464E+01 -0.23003105139E+00  0.73313222975E+02  0.73398429352E+02  0.17770000000E+01 0. -1.
</event>
<event>
 6    1  0.1108180E-002  0.1878781E+03  0.7546771E-02  0.1064253E+00
        -11   -1    0    0    0    0  0.00000000000E+00  0.00000000000E+00  0.18250000000E+03  0.18250000000E+03  0.00000000000E+00 0. -1.
         11   -1    0    0    0    0 -0.00000000000E+00 -0.00000000000E+00 -0.18250000000E+03  0.18250000000E+03  0.00000000000E+00 0.  1.
        -11    1    1    2    0    0 -0.17531831244E+01  0.68696040171E+00  0.13613080748E+03  0.13614382950E+03  0.00000000000E+00 0. -1.
         11    1    1    2    0    0 -0.98631476945E+01  0.54363345098E+01 -0.17676349949E+03  0.17712190764E+03  0.00000000000E+00 0.  1.
        -15    1    1    2    0    0 -0.37782157315E+01  0.24946727902E+01 -0.22285087518E+01  0.53499800654E+01  0.17770000000E+01 0. -1.
         15    1    1    2    0    0  0.15394546550E+02 -0.86179677017E+01  0.42861200762E+02  0.46384282796E+02  0.17770000000E+01 0.  1.
</event>
<event>
 6    1  0.1108180E-002  0.1828933E+03  0.7546771E-02  0.1068142E+00
        -11   -1    0    0    0    0  0.00000000000E+00  0.00000000000E+00  0.18250000000E+03  0.18250000000E+03  0.00000000000E+00 0. -1.
         11   -1    0    0    0    0 -0.00000000000E+00 -0.00000000000E+00 -0.18250000000E+03  0.18250000000E+03  0.00000000000E+00 0. -1.
        -11    1    1    2    0    0 -0.59273182340E+01  0.23224603627E+01  0.18199537953E+03  0.18210668602E+03  0.00000000000E+00 0. -1.
         11    1    1    2    0    0  0.38902160233E+01  0.18059947847E+00 -0.13068523664E+03  0.13074325019E+03  0.00000000000E+00 0. -1.
        -15    1    1    2    0    0  0.11061225280E+01 -0.33731603105E+01 -0.96782264130E+01  0.10460760633E+02  0.17770000000E+01 0.  1.
         15    1    1    2    0    0  0.93097968281E+00  0.87010046937E+00 -0.41631916483E+02  0.41689303149E+02  0.17770000000E+01 0. -1.
</event>
<event>
 6    1  0.1108180E-002  0.1910631E+03  0.7546771E-02  0.1061836E+00
        -11   -1    0    0    0    0  0.00000000000E+00  0.00000000000E+00  0.18250000000E+03  0.18250000000E+03  0.00000000000E+00 0. -1.
         11   -1    0    0    0    0 -0.00000000000E+00 -0.00000000000E+00 -0.18250000000E+03  0.18250000000E+03  0.00000000000E+00 0.  1.
        -11    1    1    2    0    0  0.78324582240E+01  0.35535055033E+01  0.14680500573E+03  0.14705673908E+03  0.00000000000E+00 0. -1.
         11    1    1    2    0    0  0.82950361428E+01  0.87499932031E+00 -0.17373675160E+03  0.17393686241E+03  0.00000000000E+00 0.  1.
        -15    1    1    2    0    0 -0.34299330939E+01  0.60500326450E+00  0.29700624161E+02  0.29956890268E+02  0.17770000000E+01 0. -1.
         15    1    1    2    0    0 -0.12697561273E+02 -0.50335080881E+01 -0.27688782910E+01  0.14049508246E+02  0.17770000000E+01 0.  1.
</event>
<event>
 6    1  0.1108180E-002  0.1744825E+03  0.7546771E-02  0.1075022E+00
        -11   -1    0    0    0    0  0.00000000000E+00  0.00000000000E+00  0.18250000000E+03  0.18250000000E+03  0.00000000000E+00 0. -1.
         11   -1    0    0    0    0 -0.00000000000E+00 -0.00000000000E+00 -0.18250000000E+03  0.18250000000E+03  0.00000000000E+00 0. -1.
        -11    1    1    2    0    0 -0.30128411223E+01  0.27796937126E+01  0.17594237708E+03  0.17599012461E+03  0.00000000000E+00 0. -1.
         11    1    1    2    0    0 -0.20029349703E+01 -0.51263873648E+01 -0.17294411254E+03  0.17303166663E+03  0.00000000000E+00 0. -1.
        -15    1    1    2    0    0  0.57273677801E+01 -0.37281453987E+01  0.25738220234E+01  0.75155903701E+01  0.17770000000E+01 0.  1.
         15    1    1    2    0    0 -0.71159168749E+00  0.60748390508E+01 -0.55720865641E+01  0.84626183833E+01  0.17770000000E+01 0. -1.
</event>
<event>
 6    1  0.1108180E-002  0.1830911E+03  0.7546771E-02  0.1067985E+00
        -11   -1    0    0    0    0  0.00000000000E+00  0.00000000000E+00  0.18250000000E+03  0.18250000000E+03  0.00000000000E+00 0.  1.
         11   -1    0    0    0    0 -0.00000000000E+00 -0.00000000000E+00 -0.18250000000E+03  0.18250000000E+03  0.00000000000E+00 0. -1.
        -11    1    1    2    0    0 -0.24305601697E+01 -0.11774785220E+01  0.18188885559E+03  0.18190890541E+03  0.00000000000E+00 0.  1.
         11    1    1    2    0    0  0.26012645339E+01 -0.31309967566E+01 -0.92000240833E+02  0.92090249382E+02  0.00000000000E+00 0. -1.
        -15    1    1    2    0    0  0.17200620777E+01  0.29891199651E+01 -0.65595288813E+01  0.76209316925E+01  0.17770000000E+01 0.  1.
         15    1    1    2    0    0 -0.18907664420E+01  0.13193553136E+01 -0.83329085877E+02  0.83379913518E+02  0.17770000000E+01 0. -1.
</event>
<event>
 6    1  0.1108180E-002  0.1754515E+03  0.7546771E-02  0.1074208E+00
        -11   -1    0    0    0    0  0.00000000000E+00  0.00000000000E+00  0.18250000000E+03  0.18250000000E+03  0.00000000000E+00 0.  1.
         11   -1    0    0    0    0 -0.00000000000E+00 -0.00000000000E+00 -0.18250000000E+03  0.18250000000E+03  0.00000000000E+00 0.  1.
        -11    1    1    2    0    0 -0.35396359563E+01 -0.88408648240E+00  0.17646364751E+03  0.17650135842E+03  0.00000000000E+00 0.  1.
         11    1    1    2    0    0  0.66789026759E+01 -0.40618915327E+01 -0.17428210257E+03  0.17445732424E+03  0.00000000000E+00 0.  1.
        -15    1    1    2    0    0  0.44304739354E+01  0.17891011163E+01 -0.24264101710E+01  0.56458106074E+01  0.17770000000E+01 0. -1.
         15    1    1    2    0    0 -0.75697406550E+01  0.31568768988E+01  0.24486523768E+00  0.83955067341E+01  0.17770000000E+01 0.  1.
</event>
<event>
 6    1  0.1108180E-002  0.1865529E+03  0.7546771E-02  0.1065274E+00
        -11   -1    0    0    0    0  0.00000000000E+00  0.00000000000E+00  0.18250000000E+03  0.18250000000E+03  0.00000000000E+00 0.  1.
         11   -1    0    0    0    0 -0.00000000000E+00 -0.00000000000E+00 -0.18250000000E+03  0.18250000000E+03  0.00000000000E+00 0. -1.
        -11    1    1    2    0    0 -0.14325898429E-01  0.84128307019E+01  0.15992445581E+03  0.16014558218E+03  0.00000000000E+00 0.  1.
         11    1    1    2    0    0  0.96129135218E+00  0.60384348473E+01 -0.17834227040E+03  0.17844705711E+03  0.00000000000E+00 0. -1.
        -15    1    1    2    0    0  0.30861953523E+01 -0.55381673446E+01  0.14520541410E+01  0.67425580841E+01  0.17770000000E+01 0. -1.
         15    1    1    2    0    0 -0.40331608060E+01 -0.89130982047E+01  0.16965760449E+02  0.19664802626E+02  0.17770000000E+01 0.  1.
</event>
<event>
 6    1  0.1108180E-002  0.1830709E+03  0.7546771E-02  0.1068001E+00
        -11   -1    0    0    0    0  0.00000000000E+00  0.00000000000E+00  0.18250000000E+03  0.18250000000E+03  0.00000000000E+00 0. -1.
         11   -1    0    0    0    0 -0.00000000000E+00 -0.00000000000E+00 -0.18250000000E+03  0.18250000000E+03  0.00000000000E+00 0. -1.
        -11    1    1    2    0    0  0.34992507829E+01 -0.35459854461E+01  0.12014018080E+03  0.12024342731E+03  0.00000000000E+00 0. -1.
         11    1    1    2    0    0 -0.10970732132E+01  0.29497544865E+01 -0.18190187479E+03  0.18192909793E+03  0.00000000000E+00 0. -1.
        -15    1    1    2    0    0  0.25614911510E+01 -0.34058983151E+01  0.32509186436E+02  0.32835442923E+02  0.17770000000E+01 0.  1.
         15    1    1    2    0    0 -0.49636687208E+01  0.40021292747E+01  0.29252507558E+02  0.29992031831E+02  0.17770000000E+01 0. -1.
</event>
<event>
 6    1  0.1108180E-002  0.1828170E+03  0.7546771E-02  0.1068203E+00
        -11   -1    0    0    0    0  0.00000000000E+00  0.00000000000E+00  0.18250000000E+03  0.18250000000E+03  0.00000000000E+00 0. -1.
         11   -1    0    0    0    0 -0.00000000000E+00 -0.00000000000E+00 -0.18250000000E+03  0.18250000000E+03  0.00000000000E+00 0.  1.
        -11    1    1    2    0    0  0.40510550530E+00  0.23366304416E+01  0.12258478269E+03  0.12260771958E+03  0.00000000000E+00 0. -1.
         11    1    1    2    0    0  0.24785495002E+00  0.26498146709E+01 -0.18216353543E+03  0.18218297558E+03  0.00000000000E+00 0.  1.
        -15    1    1    2    0    0 -0.82649497752E+00 -0.21479952840E+01  0.78373121213E+01  0.83593162384E+01  0.17770000000E+01 0.  1.
         15    1    1    2    0    0  0.17353452220E+00 -0.28384498286E+01  0.51741440620E+02  0.51849988603E+02  0.17770000000E+01 0. -1.
</event>
<event>
 6    1  0.1108180E-002  0.1851239E+03  0.7546771E-02  0.1066385E+00
        -11   -1    0    0    0    0  0.00000000000E+00  0.00000000000E+00  0.18250000000E+03  0.18250000000E+03  0.00000000000E+00 0. -1.
         11   -1    0    0    0    0 -0.00000000000E+00 -0.00000000000E+00 -0.18250000000E+03  0.18250000000E+03  0.00000000000E+00 0. -1.
        -11    1    1    2    0    0  0.53280676674E+01  0.20220171546E+01  0.17978575905E+03  0.17987605737E+03  0.00000000000E+00 0. -1.
         11    1    1    2    0    0 -0.27548359445E+01 -0.82123918021E+00 -0.17278463678E+03  0.17280854800E+03  0.00000000000E+00 0. -1.
        -15    1    1    2    0    0 -0.29613309572E+01 -0.33647004679E+01 -0.61434898823E-01  0.48220528329E+01  0.17770000000E+01 0.  1.
         15    1    1    2    0    0  0.38809923438E+00  0.21639224935E+01 -0.69396873677E+01  0.74933418002E+01  0.17770000000E+01 0. -1.
</event>
<event>
 6    1  0.1108180E-002  0.1884891E+03  0.7546771E-02  0.1063785E+00
        -11   -1    0    0    0    0  0.00000000000E+00  0.00000000000E+00  0.18250000000E+03  0.18250000000E+03  0.00000000000E+00 0. -1.
         11   -1    0    0    0    0 -0.00000000000E+00 -0.00000000000E+00 -0.18250000000E+03  0.18250000000E+03  0.00000000000E+00 0.  1.
        -11    1    1    2    0    0 -0.89201353504E-01  0.29767486736E+01  0.17648576152E+03  0.17651088638E+03  0.00000000000E+00 0. -1.
         11    1    1    2    0    0 -0.16569459342E+01 -0.11860691217E+02 -0.12519801159E+03  0.12576948585E+03  0.00000000000E+00 0.  1.
        -15    1    1    2    0    0  0.92839984268E+01  0.15417984852E+02 -0.49139472217E+02  0.52361745029E+02  0.17770000000E+01 0. -1.
         15    1    1    2    0    0 -0.75378511390E+01 -0.65340423093E+01 -0.21482777202E+01  0.10357882740E+02  0.17770000000E+01 0.  1.
</event>
<event>
 6    1  0.1108180E-002  0.1826489E+03  0.7546771E-02  0.1068336E+00
        -11   -1    0    0    0    0  0.00000000000E+00  0.00000000000E+00  0.18250000000E+03  0.18250000000E+03  0.00000000000E+00 0.  1.
         11   -1    0    0    0    0 -0.00000000000E+00 -0.00000000000E+00 -0.18250000000E+03  0.18250000000E+03  0.00000000000E+00 0. -1.
        -11    1    1    2    0    0  0.33250207422E+01  0.14217067340E+01  0.18231527844E+03  0.18235113865E+03  0.00000000000E+00 0.  1.
         11    1    1    2    0    0 -0.52324802846E+00 -0.20673537588E+01 -0.13443370638E+03  0.13445061975E+03  0.00000000000E+00 0. -1.
        -15    1    1    2    0    0 -0.14083186725E+01  0.52631329947E+00 -0.37550480558E+02  0.37622555553E+02  0.17770000000E+01 0.  1.
         15    1    1    2    0    0 -0.13934540412E+01  0.11933372530E+00 -0.10331091502E+02  0.10575686045E+02  0.17770000000E+01 0. -1.
</event>
<event>
 6    1  0.1108180E-002  0.1825929E+03  0.7546771E-02  0.1068381E+00
        -11   -1    0    0    0    0  0.00000000000E+00  0.00000000000E+00  0.18250000000E+03  0.18250000000E+03  0.00000000000E+00 0. -1.
         11   -1    0    0    0    0 -0.00000000000E+00 -0.00000000000E+00 -0.18250000000E+03  0.18250000000E+03  0.00000000000E+00 0. -1.
        -11    1    1    2    0    0 -0.27910351726E+00  0.11726263406E+01  0.19170790376E+02  0.19208647921E+02  0.00000000000E+00 0. -1.
         11    1    1    2    0    0 -0.39568024177E+01 -0.28501690962E+01 -0.18234191334E+03  0.18240710817E+03  0.00000000000E+00 0. -1.
        -15    1    1    2    0    0  0.22471218560E+01  0.31017497729E+01  0.51702485687E+02  0.51874610008E+02  0.17770000000E+01 0.  1.
         15    1    1    2    0    0  0.19887840789E+01 -0.14242070173E+01  0.11146863728E+03  0.11150963390E+03  0.17770000000E+01 0. -1.
</event>
<event>
 6    1  0.1108180E-002  0.1831242E+03  0.7546771E-02  0.1067959E+00
        -11   -1    0    0    0    0  0.00000000000E+00  0.00000000000E+00  0.18250000000E+03  0.18250000000E+03  0.00000000000E+00 0.  1.
         11   -1    0    0    0    0 -0.00000000000E+00 -0.00000000000E+00 -0.18250000000E+03  0.18250000000E+03  0.00000000000E+00 0. -1.
        -11    1    1    2    0    0  0.24887860193E+01  0.25247914585E+00  0.23021515119E+02  0.23157028305E+02  0.00000000000E+00 0.  1.
         11    1    1    2    0    0 -0.47357433935E+01 -0.44328599849E+01 -0.18176009048E+03  0.18187580379E+03  0.00000000000E+00 0. -1.
        -15    1    1    2    0    0 -0.49976250630E+01 -0.50128874909E+01  0.41953159197E+02  0.42583219616E+02  0.17770000000E+01 0.  1.
         15    1    1    2    0    0  0.72445824372E+01  0.91932683300E+01  0.11678541617E+03  0.11738394829E+03  0.17770000000E+01 0. -1.
</event>
<event>
 6    1  0.1108180E-002  0.1310684E+03  0.7546771E-02  0.1118860E+00
        -11   -1    0    0    0    0  0.00000000000E+00  0.00000000000E+00  0.18250000000E+03  0.18250000000E+03  0.00000000000E+00 0. -1.
         11   -1    0    0    0    0 -0.00000000000E+00 -0.00000000000E+00 -0.18250000000E+03  0.18250000000E+03  0.00000000000E+00 0.  1.
        -11    1    1    2    0    0  0.15809228448E+01 -0.92695677462E+00  0.11917673420E+03  0.11919082406E+03  0.00000000000E+00 0. -1.
         11    1    1    2    0    0  0.39244104007E+02  0.46643222832E+02 -0.13777558276E+03  0.15065789439E+03  0.00000000000E+00 0.  1.
        -15    1    1    2    0    0 -0.21441292433E+01  0.82341404270E+01  0.26859993920E+02  0.28231460486E+02  0.17770000000E+01 0. -1.
         15    1    1    2    0    0 -0.38680897608E+02 -0.53950406484E+02 -0.82611453592E+01  0.66919821064E+02  0.17770000000E+01 0.  1.
</event>
<event>
 6    1  0.1108180E-002  0.1839734E+03  0.7546771E-02  0.1067288E+00
        -11   -1    0    0    0    0  0.00000000000E+00  0.00000000000E+00  0.18250000000E+03  0.18250000000E+03  0.00000000000E+00 0.  1.
         11   -1    0    0    0    0 -0.00000000000E+00 -0.00000000000E+00 -0.18250000000E+03  0.18250000000E+03  0.00000000000E+00 0. -1.
        -11    1    1    2    0    0  0.37822281693E+01  0.42108367468E+01  0.18093812449E+03  0.18102663144E+03  0.00000000000E+00 0.  1.
         11    1    1    2    0    0 -0.20759732823E+01 -0.47591930232E+01 -0.14121707373E+03  0.14131249590E+03  0.00000000000E+00 0. -1.
        -15    1    1    2    0    0  0.40849596703E+00 -0.15730379679E+01 -0.39037349088E+02  0.39111554178E+02  0.17770000000E+01 0. -1.
         15    1    1    2    0    0 -0.21147508540E+01  0.21213942443E+01 -0.68370167326E+00  0.35493184828E+01  0.17770000000E+01 0.  1.
</event>
<event>
 6    1  0.1108180E-002  0.1831566E+03  0.7546771E-02  0.1067933E+00
        -11   -1    0    0    0    0  0.00000000000E+00  0.00000000000E+00  0.18250000000E+03  0.18250000000E+03  0.00000000000E+00 0. -1.
         11   -1    0    0    0    0 -0.00000000000E+00 -0.00000000000E+00 -0.18250000000E+03  0.18250000000E+03  0.00000000000E+00 0.  1.
        -11    1    1    2    0    0  0.40248322992E+01  0.22960731496E+01  0.18178435834E+03  0.18184340561E+03  0.00000000000E+00 0. -1.
         11    1    1    2    0    0  0.24789038788E+01  0.92233874734E+00 -0.15061218517E+03  0.15063540750E+03  0.00000000000E+00 0.  1.
        -15    1    1    2    0    0 -0.60797081070E+01 -0.12162195485E+01 -0.19521548605E+02  0.20559441373E+02  0.17770000000E+01 0. -1.
         15    1    1    2    0    0 -0.42402807101E+00 -0.20021923485E+01 -0.11650624566E+02  0.11961745515E+02  0.17770000000E+01 0. -1.
</event>
<event>
 6    1  0.1108180E-002  0.1827263E+03  0.7546771E-02  0.1068275E+00
        -11   -1    0    0    0    0  0.00000000000E+00  0.00000000000E+00  0.18250000000E+03  0.18250000000E+03  0.00000000000E+00 0. -1.
         11   -1    0    0    0    0 -0.00000000000E+00 -0.00000000000E+00 -0.18250000000E+03  0.18250000000E+03  0.00000000000E+00 0.  1.
        -11    1    1    2    0    0 -0.40984304528E+01  0.46509319479E+01  0.18216828791E+03  0.18227373211E+03  0.00000000000E+00 0. -1.
         11    1    1    2    0    0  0.61539957513E+00 -0.12752051312E+01 -0.60257117351E+02  0.60273750972E+02  0.00000000000E+00 0.  1.
        -15    1    1    2    0    0  0.29208664946E+01 -0.39570527212E+01 -0.25959971282E+02  0.26481457008E+02  0.17770000000E+01 0.  1.
         15    1    1    2    0    0  0.56216438307E+00  0.58132590451E+00 -0.95951199273E+02  0.95971059907E+02  0.17770000000E+01 0.  1.
</event>
<event>
 6    1  0.1108180E-002  0.1844541E+03  0.7546771E-02  0.1066910E+00
        -11   -1    0    0    0    0  0.00000000000E+00  0.00000000000E+00  0.18250000000E+03  0.18250000000E+03  0.00000000000E+00 0.  1.
         11   -1    0    0    0    0 -0.00000000000E+00 -0.00000000000E+00 -0.18250000000E+03  0.18250000000E+03  0.00000000000E+00 0. -1.
        -11    1    1    2    0    0 -0.31931504759E+01 -0.26900940064E+01  0.10305939762E+03  0.10314393949E+03  0.00000000000E+00 0.  1.
         11    1    1    2    0    0 -0.22569877162E+01  0.26489377065E+01 -0.18051232612E+03  0.18054586882E+03  0.00000000000E+00 0. -1.
        -15    1    1    2    0    0 -0.17738444085E+01 -0.99022265557E+01  0.19202298774E+02  0.21750554521E+02  0.17770000000E+01 0.  1.
         15    1    1    2    0    0  0.72239826007E+01  0.99433828556E+01  0.58250629734E+02  0.59559637177E+02  0.17770000000E+01 0.  1.
</event>
<event>
 6    1  0.1108180E-002  0.1860304E+03  0.7546771E-02  0.1065679E+00
        -11   -1    0    0    0    0  0.00000000000E+00  0.00000000000E+00  0.18250000000E+03  0.18250000000E+03  0.00000000000E+00 0. -1.
         11   -1    0    0    0    0 -0.00000000000E+00 -0.00000000000E+00 -0.18250000000E+03  0.18250000000E+03  0.00000000000E+00 0. -1.
        -11    1    1    2    0    0  0.40317191661E+01  0.62847455440E+01  0.17881381235E+03  0.17896964064E+03  0.00000000000E+00 0. -1.
         11    1    1    2    0    0  0.50332689526E+01 -0.37647931625E+01 -0.17230338361E+03  0.17241799055E+03  0.00000000000E+00 0. -1.
        -15    1    1    2    0    0 -0.44772149258E+01 -0.31673285557E+00 -0.66529311460E+01  0.82197928822E+01  0.17770000000E+01 0. -1.
         15    1    1    2    0    0 -0.45877731929E+01 -0.22032195259E+01  0.14250240535E+00  0.53925759229E+01  0.17770000000E+01 0.  1.
</event>
<event>
 6    1  0.1108180E-002  0.1864933E+03  0.7546771E-02  0.1065320E+00
        -11   -1    0    0    0    0  0.00000000000E+00  0.00000000000E+00  0.18250000000E+03  0.18250000000E+03  0.00000000000E+00 0. -1.
         11   -1    0    0    0    0 -0.00000000000E+00 -0.00000000000E+00 -0.18250000000E+03  0.18250000000E+03  0.00000000000E+00 0.  1.
        -11    1    1    2    0    0  0.62787306411E+01 -0.10312646262E+01  0.17839327579E+03  0.17850671364E+03  0.00000000000E+00 0. -1.
         11    1    1    2    0    0  0.63812632407E-01 -0.40949957848E+01 -0.17287971896E+03  0.17292822294E+03  0.00000000000E+00 0.  1.
        -15    1    1    2    0    0 -0.33048662908E+01  0.22943395142E+01  0.19736780658E+01  0.48207125110E+01  0.17770000000E+01 0.  1.
         15    1    1    2    0    0 -0.30376769827E+01  0.28319208968E+01 -0.74872348962E+01  0.87443509083E+01  0.17770000000E+01 0. -1.
</event>
<event>
 6    1  0.1108180E-002  0.1871150E+03  0.7546771E-02  0.1064839E+00
        -11   -1    0    0    0    0  0.00000000000E+00  0.00000000000E+00  0.18250000000E+03  0.18250000000E+03  0.00000000000E+00 0. -1.
         11   -1    0    0    0    0 -0.00000000000E+00 -0.00000000000E+00 -0.18250000000E+03  0.18250000000E+03  0.00000000000E+00 0. -1.
        -11    1    1    2    0    0  0.28531146996E+01 -0.10341704008E+01  0.17785909066E+03  0.17788497942E+03  0.00000000000E+00 0. -1.
         11    1    1    2    0    0  0.45283500892E+01 -0.12321646385E+01 -0.17215046915E+03  0.17221442510E+03  0.00000000000E+00 0. -1.
        -15    1    1    2    0    0 -0.59563215889E+01  0.42833576384E+01 -0.80692340781E+01  0.11049669096E+02  0.17770000000E+01 0.  1.
         15    1    1    2    0    0 -0.14251431999E+01 -0.20170225992E+01  0.23606125669E+01  0.38509263816E+01  0.17770000000E+01 0. -1.
</event>
<event>
 6    1  0.1108180E-002  0.1877236E+03  0.7546771E-02  0.1064371E+00
        -11   -1    0    0    0    0  0.00000000000E+00  0.00000000000E+00  0.18250000000E+03  0.18250000000E+03  0.00000000000E+00 0. -1.
         11   -1    0    0    0    0 -0.00000000000E+00 -0.00000000000E+00 -0.18250000000E+03  0.18250000000E+03  0.00000000000E+00 0. -1.
        -11    1    1    2    0    0  0.60298683245E+01 -0.43516625634E+01  0.17712033444E+03  0.17727636377E+03  0.00000000000E+00 0. -1.
         11    1    1    2    0    0 -0.45521981699E+01  0.81716100422E+00 -0.16609088416E+03  0.16615526492E+03  0.00000000000E+00 0. -1.
        -15    1    1    2    0    0 -0.22637140649E+01  0.42448842482E+01  0.39333878999E+01  0.64631813388E+01  0.17770000000E+01 0. -1.
         15    1    1    2    0    0  0.78604391030E+00 -0.71038268901E+00 -0.14962838178E+02  0.15105189967E+02  0.17770000000E+01 0.  1.
</event>
<event>
 6    1  0.1108180E-002  0.1928880E+03  0.7546771E-02  0.1060474E+00
        -11   -1    0    0    0    0  0.00000000000E+00  0.00000000000E+00  0.18250000000E+03  0.18250000000E+03  0.00000000000E+00 0.  1.
         11   -1    0    0    0    0 -0.00000000000E+00 -0.00000000000E+00 -0.18250000000E+03  0.18250000000E+03  0.00000000000E+00 0. -1.
        -11    1    1    2    0    0 -0.19640149696E+02 -0.48281554274E+01  0.17091956416E+03  0.17211200997E+03  0.00000000000E+00 0.  1.
         11    1    1    2    0    0 -0.59044708300E+01  0.36880126080E+01 -0.14080848840E+03  0.14098047602E+03  0.00000000000E+00 0. -1.
        -15    1    1    2    0    0 -0.13893754306E+01 -0.24844703554E+01 -0.23689341362E+02  0.23925834995E+02  0.17770000000E+01 0.  1.
         15    1    1    2    0    0  0.26933995957E+02  0.36246131748E+01 -0.64217343920E+01  0.27981679015E+02  0.17770000000E+01 0. -1.
</event>
<event>
 6    1  0.1108180E-002  0.1841879E+03  0.7546771E-02  0.1067119E+00
        -11   -1    0    0    0    0  0.00000000000E+00  0.00000000000E+00  0.18250000000E+03  0.18250000000E+03  0.00000000000E+00 0. -1.
         11   -1    0    0    0    0 -0.00000000000E+00 -0.00000000000E+00 -0.18250000000E+03  0.18250000000E+03  0.00000000000E+00 0.  1.
        -11    1    1    2    0    0  0.33582907067E+01  0.43847773300E+01  0.18072770215E+03  0.18081207568E+03  0.00000000000E+00 0. -1.
         11    1    1    2    0    0 -0.92631140417E+01 -0.21652150353E+01 -0.13816867022E+03  0.13849575759E+03  0.00000000000E+00 0.  1.
        -15    1    1    2    0    0  0.73440802264E+01  0.30114195795E+01 -0.11340712335E+02  0.13956132972E+02  0.17770000000E+01 0.  1.
         15    1    1    2    0    0 -0.14392568914E+01 -0.52309818742E+01 -0.31218319589E+02  0.31736033759E+02  0.17770000000E+01 0. -1.
</event>
<event>
 6    1  0.1108180E-002  0.1825970E+03  0.7546771E-02  0.1068378E+00
        -11   -1    0    0    0    0  0.00000000000E+00  0.00000000000E+00  0.18250000000E+03  0.18250000000E+03  0.00000000000E+00 0.  1.
         11   -1    0    0    0    0 -0.00000000000E+00 -0.00000000000E+00 -0.18250000000E+03  0.18250000000E+03  0.00000000000E+00 0. -1.
        -11    1    1    2    0    0  0.18680159196E+01 -0.35785670672E+00  0.91616091584E+02  0.91635832413E+02  0.00000000000E+00 0.  1.
         11    1    1    2    0    0  0.11281622938E+01  0.25543849552E+01 -0.18238160462E+03  0.18240298062E+03  0.00000000000E+00 0. -1.
        -15    1    1    2    0    0 -0.17644831475E+01 -0.20163519980E+01  0.33329663604E+02  0.33484373686E+02  0.17770000000E+01 0.  1.
         15    1    1    2    0    0 -0.12316950659E+01 -0.18017625055E+00  0.57435849434E+02  0.57476813286E+02  0.17770000000E+01 0. -1.
</event>
<event>
 6    1  0.1108180E-002  0.1764624E+03  0.7546771E-02  0.1073365E+00
        -11   -1    0    0    0    0  0.00000000000E+00  0.00000000000E+00  0.18250000000E+03  0.18250000000E+03  0.00000000000E+00 0.  1.
         11   -1    0    0    0    0 -0.00000000000E+00 -0.00000000000E+00 -0.18250000000E+03  0.18250000000E+03  0.00000000000E+00 0. -1.
        -11    1    1    2    0    0 -0.77528853836E+00 -0.30641626244E+01  0.17478104706E+03  0.17480962381E+03  0.00000000000E+00 0.  1.
         11    1    1    2    0    0 -0.80373373438E+00 -0.30608403491E+01 -0.17815998317E+03  0.17818808696E+03  0.00000000000E+00 0. -1.
        -15    1    1    2    0    0 -0.43185697959E+00  0.56027007837E+01 -0.17861340555E+01  0.61583082406E+01  0.17770000000E+01 0.  1.
         15    1    1    2    0    0  0.20108792523E+01  0.52230218982E+00  0.51650701699E+01  0.58439809895E+01  0.17770000000E+01 0. -1.
</event>
<event>
 6    1  0.1108180E-002  0.1850549E+03  0.7546771E-02  0.1066439E+00
        -11   -1    0    0    0    0  0.00000000000E+00  0.00000000000E+00  0.18250000000E+03  0.18250000000E+03  0.00000000000E+00 0. -1.
         11   -1    0    0    0    0 -0.00000000000E+00 -0.00000000000E+00 -0.18250000000E+03  0.18250000000E+03  0.00000000000E+00 0.  1.
        -11    1    1    2    0    0  0.25694262507E+01 -0.13852217312E+00  0.17992668415E+03  0.17994508276E+03  0.00000000000E+00 0. -1.
         11    1    1    2    0    0  0.32220065463E+01 -0.31656392047E+01 -0.16710297069E+03  0.16716400753E+03  0.00000000000E+00 0.  1.
        -15    1    1    2    0    0 -0.94092634843E+00 -0.22719255416E+01 -0.59117247027E-01  0.30345035688E+01  0.17770000000E+01 0. -1.
         15    1    1    2    0    0 -0.48505064487E+01  0.55760869194E+01 -0.12764596209E+02  0.14856406144E+02  0.17770000000E+01 0.  1.
</event>
<event>
 6    1  0.1108180E-002  0.1921594E+03  0.7546771E-02  0.1061016E+00
        -11   -1    0    0    0    0  0.00000000000E+00  0.00000000000E+00  0.18250000000E+03  0.18250000000E+03  0.00000000000E+00 0. -1.
         11   -1    0    0    0    0 -0.00000000000E+00 -0.00000000000E+00 -0.18250000000E+03  0.18250000000E+03  0.00000000000E+00 0. -1.
        -11    1    1    2    0    0 -0.13875790254E+00 -0.51661199887E+01  0.16663575451E+03  0.16671587426E+03  0.00000000000E+00 0. -1.
         11    1    1    2    0    0  0.27138242364E+01  0.25952357018E+00 -0.17281912447E+03  0.17284062594E+03  0.00000000000E+00 0. -1.
        -15    1    1    2    0    0 -0.30442990083E+01  0.29382723453E+01  0.15281249093E+02  0.15955422391E+02  0.17770000000E+01 0. -1.
         15    1    1    2    0    0  0.46923267439E+00  0.19683240733E+01 -0.90978791395E+01  0.94880774026E+01  0.17770000000E+01 0.  1.
</event>
<event>
 6    1  0.1108180E-002  0.1411356E+03  0.7546771E-02  0.1107175E+00
        -11   -1    0    0    0    0  0.00000000000E+00  0.00000000000E+00  0.18250000000E+03  0.18250000000E+03  0.00000000000E+00 0.  1.
         11   -1    0    0    0    0 -0.00000000000E+00 -0.00000000000E+00 -0.18250000000E+03  0.18250000000E+03  0.00000000000E+00 0.  1.
        -11    1    1    2    0    0 -0.11463125056E+02  0.42176873060E+01  0.14797114793E+03  0.14847441781E+03  0.00000000000E+00 0.  1.
         11    1    1    2    0    0 -0.13308938578E+02  0.20368859214E+02 -0.13409506852E+03  0.13628464944E+03  0.00000000000E+00 0.  1.
        -15    1    1    2    0    0  0.19586884143E+02 -0.79154326559E+01 -0.42024981217E+02  0.47069702356E+02  0.17770000000E+01 0. -1.
         15    1    1    2    0    0  0.51851794912E+01 -0.16671113864E+02  0.28148901807E+02  0.33171230393E+02  0.17770000000E+01 0.  1.
</event>
<event>
 6    1  0.1108180E-002  0.1829686E+03  0.7546771E-02  0.1068082E+00
        -11   -1    0    0    0    0  0.00000000000E+00  0.00000000000E+00  0.18250000000E+03  0.18250000000E+03  0.00000000000E+00 0.  1.
         11   -1    0    0    0    0 -0.00000000000E+00 -0.00000000000E+00 -0.18250000000E+03  0.18250000000E+03  0.00000000000E+00 0. -1.
        -11    1    1    2    0    0  0.34630604279E+01 -0.23634685207E+01  0.80519321424E+02  0.80628406245E+02  0.00000000000E+00 0.  1.
         11    1    1    2    0    0 -0.14681388618E+01  0.44016568091E+01 -0.18197221212E+03  0.18203135993E+03  0.00000000000E+00 0. -1.
        -15    1    1    2    0    0 -0.36421500285E+01  0.33344869209E+01  0.20089818765E+02  0.20763973773E+02  0.17770000000E+01 0. -1.
         15    1    1    2    0    0  0.16472284624E+01 -0.53726752093E+01  0.81363071932E+02  0.81576260050E+02  0.17770000000E+01 0.  1.
</event>
<event>
 6    1  0.1108180E-002  0.1839306E+03  0.7546771E-02  0.1067322E+00
        -11   -1    0    0    0    0  0.00000000000E+00  0.00000000000E+00  0.18250000000E+03  0.18250000000E+03  0.00000000000E+00 0. -1.
         11   -1    0    0    0    0 -0.00000000000E+00 -0.00000000000E+00 -0.18250000000E+03  0.18250000000E+03  0.00000000000E+00 0. -1.
        -11    1    1    2    0    0  0.70090001417E+01  0.23296004397E+01  0.14886038598E+03  0.14904350920E+03  0.00000000000E+00 0. -1.
         11    1    1    2    0    0 -0.70146260654E-01  0.49566040797E+01 -0.18100149001E+03  0.18106935751E+03  0.00000000000E+00 0. -1.
        -15    1    1    2    0    0 -0.68014326564E+01 -0.17493500104E+01  0.22392374239E+02  0.23534992346E+02  0.17770000000E+01 0.  1.
         15    1    1    2    0    0 -0.13742122468E+00 -0.55368545089E+01  0.97487297936E+01  0.11352140945E+02  0.17770000000E+01 0. -1.
</event>
<event>
 6    1  0.1108180E-002  0.1825787E+03  0.7546771E-02  0.1068392E+00
        -11   -1    0    0    0    0  0.00000000000E+00  0.00000000000E+00  0.18250000000E+03  0.18250000000E+03  0.00000000000E+00 0. -1.
         11   -1    0    0    0    0 -0.00000000000E+00 -0.00000000000E+00 -0.18250000000E+03  0.18250000000E+03  0.00000000000E+00 0. -1.
        -11    1    1    2    0    0  0.67655663879E+00 -0.24223733324E+00  0.27748608391E+02  0.27757911943E+02  0.00000000000E+00 0. -1.
         11    1    1    2    0    0  0.54618738706E+00  0.28772899883E+01 -0.18239779677E+03  0.18242130738E+03  0.00000000000E+00 0. -1.
        -15    1    1    2    0    0 -0.19596898014E+00 -0.36675413823E+01  0.13019432973E+03  0.13025824537E+03  0.17770000000E+01 0. -1.
         15    1    1    2    0    0 -0.10267750457E+01  0.10324887272E+01  0.24454858656E+02  0.24562535310E+02  0.17770000000E+01 0. -1.
</event>
<event>
 6    1  0.1108180E-002  0.1871136E+03  0.7546771E-02  0.1064841E+00
        -11   -1    0    0    0    0  0.00000000000E+00  0.00000000000E+00  0.18250000000E+03  0.18250000000E+03  0.00000000000E+00 0.  1.
         11   -1    0    0    0    0 -0.00000000000E+00 -0.00000000000E+00 -0.18250000000E+03  0.18250000000E+03  0.00000000000E+00 0.  1.
        -11    1    1    2    0    0 -0.24813532602E+01 -0.26021507498E+01  0.17785010496E+03  0.17788644731E+03  0.00000000000E+00 0.  1.
         11    1    1    2    0    0 -0.63909511853E+00 -0.60190088852E+01 -0.13956328475E+03  0.13969447863E+03  0.00000000000E+00 0.  1.
        -15    1    1    2    0    0 -0.40470415376E+01 -0.68299846051E+01 -0.39389751749E+01  0.90388322996E+01  0.17770000000E+01 0.  1.
         15    1    1    2    0    0  0.71674899164E+01  0.15451144240E+02 -0.34347845036E+02  0.38380241761E+02  0.17770000000E+01 0. -1.
</event>
<event>
 6    1  0.1108180E-002  0.1832859E+03  0.7546771E-02  0.1067831E+00
        -11   -1    0    0    0    0  0.00000000000E+00  0.00000000000E+00  0.18250000000E+03  0.18250000000E+03  0.00000000000E+00 0.  1.
         11   -1    0    0    0    0 -0.00000000000E+00 -0.00000000000E+00 -0.18250000000E+03  0.18250000000E+03  0.00000000000E+00 0. -1.
        -11    1    1    2    0    0  0.14022044069E+01  0.19974492770E+01  0.17110406035E+03  0.17112146402E+03  0.00000000000E+00 0.  1.
         11    1    1    2    0    0  0.28093359470E+01 -0.62939057672E+00 -0.18169125388E+03  0.18171406175E+03  0.00000000000E+00 0. -1.
        -15    1    1    2    0    0 -0.19910488899E+01 -0.53950328096E-01  0.64051824049E+01  0.69391121161E+01  0.17770000000E+01 0. -1.
         15    1    1    2    0    0 -0.22204914640E+01 -0.13141083722E+01  0.41820111232E+01  0.52253621109E+01  0.17770000000E+01 0.  1.
</event>
<event>
 6    1  0.1108180E-002  0.1844310E+03  0.7546771E-02  0.1066928E+00
        -11   -1    0    0    0    0  0.00000000000E+00  0.00000000000E+00  0.18250000000E+03  0.18250000000E+03  0.00000000000E+00 0.  1.
         11   -1    0    0    0    0 -0.00000000000E+00 -0.00000000000E+00 -0.18250000000E+03  0.18250000000E+03  0.00000000000E+00 0.  1.
        -11    1    1    2    0    0  0.76433882020E+01  0.97478353353E+00  0.10890232950E+03  0.10917458018E+03  0.00000000000E+00 0.  1.
         11    1    1    2    0    0  0.28120848974E+01 -0.27436293995E+01 -0.18052625227E+03  0.18056899812E+03  0.00000000000E+00 0.  1.
        -15    1    1    2    0    0 -0.15356210023E+02 -0.25450033520E+01  0.40939649819E+02  0.43834950492E+02  0.17770000000E+01 0. -1.
         15    1    1    2    0    0  0.49007369238E+01  0.43138492180E+01  0.30684272950E+02  0.31421471209E+02  0.17770000000E+01 0.  1.
</event>
<event>
 6    1  0.1108180E-002  0.1913593E+03  0.7546771E-02  0.1061614E+00
        -11   -1    0    0    0    0  0.00000000000E+00  0.00000000000E+00  0.18250000000E+03  0.18250000000E+03  0.00000000000E+00 0. -1.
         11   -1    0    0    0    0 -0.00000000000E+00 -0.00000000000E+00 -0.18250000000E+03  0.18250000000E+03  0.00000000000E+00 0.  1.
        -11    1    1    2    0    0 -0.17605454517E+01  0.66493033040E+01  0.10500095387E+03  0.10522600947E+03  0.00000000000E+00 0. -1.
         11    1    1    2    0    0 -0.11900773047E+02  0.58165731994E+01 -0.17313468456E+03  0.17364066321E+03  0.00000000000E+00 0.  1.
        -15    1    1    2    0    0 -0.49357703337E+01 -0.72265639919E+01 -0.51609649486E+01  0.10313987789E+02  0.17770000000E+01 0. -1.
         15    1    1    2    0    0  0.18597088832E+02 -0.52393125116E+01  0.73294695640E+02  0.75819339529E+02  0.17770000000E+01 0. -1.
</event>
<event>
 6    1  0.1108180E-002  0.1836687E+03  0.7546771E-02  0.1067528E+00
        -11   -1    0    0    0    0  0.00000000000E+00  0.00000000000E+00  0.18250000000E+03  0.18250000000E+03  0.00000000000E+00 0.  1.
         11   -1    0    0    0    0 -0.00000000000E+00 -0.00000000000E+00 -0.18250000000E+03  0.18250000000E+03  0.00000000000E+00 0.  1.
        -11    1    1    2    0    0 -0.12522633082E+01  0.23723536731E+01  0.11603687556E+03  0.11606787977E+03  0.00000000000E+00 0.  1.
         11    1    1    2    0    0  0.36499292986E+01  0.38066756494E+01 -0.18125459453E+03  0.18133130122E+03  0.00000000000E+00 0.  1.
        -15    1    1    2    0    0 -0.47184589376E+00 -0.50792877453E+01  0.64424232324E+02  0.64650299629E+02  0.17770000000E+01 0. -1.
         15    1    1    2    0    0 -0.19258200967E+01 -0.10997415772E+01  0.79348664755E+00  0.29505193850E+01  0.17770000000E+01 0.  1.
</event>
<event>
 6    1  0.1108180E-002  0.1707669E+03  0.7546771E-02  0.1078198E+00
        -11   -1    0    0    0    0  0.00000000000E+00  0.00000000000E+00  0.18250000000E+03  0.18250000000E+03  0.00000000000E+00 0.  1.
         11   -1    0    0    0    0 -0.00000000000E+00 -0.00000000000E+00 -0.18250000000E+03  0.18250000000E+03  0.00000000000E+00 0.  1.
        -11    1    1    2    0    0 -0.12708389394E+01 -0.26348515427E+01  0.16264635708E+03  0.16267266195E+03  0.00000000000E+00 0.  1.
         11    1    1    2    0    0 -0.45198448867E+00  0.11665591175E+01 -0.27645120335E+01  0.30344154192E+01  0.00000000000E+00 0.  1.
        -15    1    1    2    0    0 -0.98304207281E+00 -0.21796326348E+01 -0.17927304080E+03  0.17929779155E+03  0.17770000000E+01 0.  1.
         15    1    1    2    0    0  0.27058655008E+01  0.36479250599E+01  0.19391195747E+02  0.19995131079E+02  0.17770000000E+01 0. -1.
</event>
<event>
 6    1  0.1108180E-002  0.1826137E+03  0.7546771E-02  0.1068364E+00
        -11   -1    0    0    0    0  0.00000000000E+00  0.00000000000E+00  0.18250000000E+03  0.18250000000E+03  0.00000000000E+00 0. -1.
         11   -1    0    0    0    0 -0.00000000000E+00 -0.00000000000E+00 -0.18250000000E+03  0.18250000000E+03  0.00000000000E+00 0.  1.
        -11    1    1    2    0    0  0.60575820734E+00 -0.16548331300E+00  0.20279875441E+02  0.20289595256E+02  0.00000000000E+00 0. -1.
         11    1    1    2    0    0 -0.16717731434E+01  0.29739317009E+01 -0.18235441705E+03  0.18238632765E+03  0.00000000000E+00 0.  1.
        -15    1    1    2    0    0  0.42674057005E+01 -0.72124755315E+00  0.97456309766E+02  0.97568545093E+02  0.17770000000E+01 0.  1.
         15    1    1    2    0    0 -0.32013907645E+01 -0.20872008348E+01  0.64618231841E+02  0.64755532006E+02  0.17770000000E+01 0. -1.
</event>
<event>
 6    1  0.1108180E-002  0.1895602E+03  0.7546771E-02  0.1062970E+00
        -11   -1    0    0    0    0  0.00000000000E+00  0.00000000000E+00  0.18250000000E+03  0.18250000000E+03  0.00000000000E+00 0. -1.
         11   -1    0    0    0    0 -0.00000000000E+00 -0.00000000000E+00 -0.18250000000E+03  0.18250000000E+03  0.00000000000E+00 0. -1.
        -11    1    1    2    0    0  0.24356098112E+01  0.11786591410E+01  0.17541890516E+03  0.17543977235E+03  0.00000000000E+00 0. -1.
         11    1    1    2    0    0  0.30842695519E+01 -0.19794631103E+01 -0.17069271590E+03  0.17073205397E+03  0.00000000000E+00 0. -1.
        -15    1    1    2    0    0 -0.30383784149E+01  0.81738578071E+01  0.10726006289E+01  0.89639219068E+01  0.17770000000E+01 0. -1.
         15    1    1    2    0    0 -0.24815009483E+01 -0.73730538378E+01 -0.57987898947E+01  0.98642517757E+01  0.17770000000E+01 0.  1.
</event>
<event>
 6    1  0.1108180E-002  0.1838284E+03  0.7546771E-02  0.1067402E+00
        -11   -1    0    0    0    0  0.00000000000E+00  0.00000000000E+00  0.18250000000E+03  0.18250000000E+03  0.00000000000E+00 0.  1.
         11   -1    0    0    0    0 -0.00000000000E+00 -0.00000000000E+00 -0.18250000000E+03  0.18250000000E+03  0.00000000000E+00 0. -1.
        -11    1    1    2    0    0  0.29747790418E+01  0.23002117028E+01  0.18113255087E+03  0.18117157964E+03  0.00000000000E+00 0.  1.
         11    1    1    2    0    0  0.46506487026E+01  0.23673284104E+00 -0.16248605068E+03  0.16255276449E+03  0.00000000000E+00 0. -1.
        -15    1    1    2    0    0 -0.31340253918E+01  0.13296741944E+01 -0.93557402208E+01  0.10113246398E+02  0.17770000000E+01 0. -1.
         15    1    1    2    0    0 -0.44914023526E+01 -0.38666187383E+01 -0.92907599648E+01  0.11162409475E+02  0.17770000000E+01 0. -1.
</event>
<event>
 6    1  0.1108180E-002  0.1877935E+03  0.7546771E-02  0.1064318E+00
        -11   -1    0    0    0    0  0.00000000000E+00  0.00000000000E+00  0.18250000000E+03  0.18250000000E+03  0.00000000000E+00 0. -1.
         11   -1    0    0    0    0 -0.00000000000E+00 -0.00000000000E+00 -0.18250000000E+03  0.18250000000E+03  0.00000000000E+00 0.  1.
        -11    1    1    2    0    0 -0.34844806679E+01  0.15210492888E+01  0.17716573890E+03  0.17720652989E+03  0.00000000000E+00 0. -1.
         11    1    1    2    0    0 -0.11038945632E+02 -0.20017160275E+02 -0.10991030658E+03  0.11226228449E+03  0.00000000000E+00 0.  1.
        -15    1    1    2    0    0  0.15401258774E+02  0.53959129020E+01 -0.17300541263E+02  0.23849132162E+02  0.17770000000E+01 0. -1.
         15    1    1    2    0    0 -0.87783247436E+00  0.13100198084E+02 -0.49954891058E+02  0.51682053455E+02  0.17770000000E+01 0.  1.
</event>
<event>
 6    1  0.1108180E-002  0.1851740E+03  0.7546771E-02  0.1066346E+00
        -11   -1    0    0    0    0  0.00000000000E+00  0.00000000000E+00  0.18250000000E+03  0.18250000000E+03  0.00000000000E+00 0. -1.
         11   -1    0    0    0    0 -0.00000000000E+00 -0.00000000000E+00 -0.18250000000E+03  0.18250000000E+03  0.00000000000E+00 0.  1.
        -11    1    1    2    0    0  0.16192069316E+01  0.15102864384E+01  0.12642141156E+03  0.12644080077E+03  0.00000000000E+00 0. -1.
         11    1    1    2    0    0 -0.35884264100E+01 -0.10019246431E+01 -0.17978741166E+03  0.17982601049E+03  0.00000000000E+00 0.  1.
        -15    1    1    2    0    0 -0.15539755069E+01 -0.37913586291E+00  0.54557011690E+02  0.54609374995E+02  0.17770000000E+01 0. -1.
         15    1    1    2    0    0  0.35231949853E+01 -0.12922593238E+00 -0.11910115971E+01  0.41238137531E+01  0.17770000000E+01 0. -1.
</event>
<event>
 6    1  0.1108180E-002  0.1853945E+03  0.7546771E-02  0.1066174E+00
        -11   -1    0    0    0    0  0.00000000000E+00  0.00000000000E+00  0.18250000000E+03  0.18250000000E+03  0.00000000000E+00 0. -1.
         11   -1    0    0    0    0 -0.00000000000E+00 -0.00000000000E+00 -0.18250000000E+03  0.18250000000E+03  0.00000000000E+00 0. -1.
        -11    1    1    2    0    0 -0.39792411286E+01  0.65534985874E+00  0.16798637030E+03  0.16803477155E+03  0.00000000000E+00 0. -1.
         11    1    1    2    0    0 -0.91813435071E+00  0.24418451160E+01 -0.17958653915E+03  0.17960548606E+03  0.00000000000E+00 0. -1.
        -15    1    1    2    0    0  0.20399456475E+01 -0.34106857889E+01 -0.87025775839E+00  0.44395082342E+01  0.17770000000E+01 0. -1.
         15    1    1    2    0    0  0.28574298318E+01  0.31349081420E+00  0.12470426614E+02  0.12920234157E+02  0.17770000000E+01 0. -1.
</event>
<event>
 6    1  0.1108180E-002  0.1834981E+03  0.7546771E-02  0.1067663E+00
        -11   -1    0    0    0    0  0.00000000000E+00  0.00000000000E+00  0.18250000000E+03  0.18250000000E+03  0.00000000000E+00 0. -1.
         11   -1    0    0    0    0 -0.00000000000E+00 -0.00000000000E+00 -0.18250000000E+03  0.18250000000E+03  0.00000000000E+00 0. -1.
        -11    1    1    2    0    0 -0.30470599720E+01 -0.23745501396E+01  0.12349982450E+03  0.12356022707E+03  0.00000000000E+00 0. -1.
         11    1    1    2    0    0  0.38018534116E+00 -0.49069637995E+01 -0.18143517252E+03  0.18150191366E+03  0.00000000000E+00 0. -1.
        -15    1    1    2    0    0 -0.39951040048E+01  0.76011640478E+00  0.32275545378E+02  0.32579244794E+02  0.17770000000E+01 0.  1.
         15    1    1    2    0    0  0.66619786357E+01  0.65213975344E+01  0.25659802644E+02  0.27358614473E+02  0.17770000000E+01 0. -1.
</event>
<event>
 6    1  0.1108180E-002  0.1858272E+03  0.7546771E-02  0.1065837E+00
        -11   -1    0    0    0    0  0.00000000000E+00  0.00000000000E+00  0.18250000000E+03  0.18250000000E+03  0.00000000000E+00 0.  1.
         11   -1    0    0    0    0 -0.00000000000E+00 -0.00000000000E+00 -0.18250000000E+03  0.18250000000E+03  0.00000000000E+00 0.  1.
        -11    1    1    2    0    0  0.14512834388E+01 -0.35596382444E+01  0.17131732338E+03  0.17136044625E+03  0.00000000000E+00 0.  1.
         11    1    1    2    0    0 -0.35253988710E+01 -0.55324498539E+01 -0.17905261876E+03  0.17917275665E+03  0.00000000000E+00 0.  1.
        -15    1    1    2    0    0  0.32199468289E+01  0.14935440622E+01  0.43350186651E+01  0.58778267475E+01  0.17770000000E+01 0. -1.
         15    1    1    2    0    0 -0.11458313967E+01  0.75985440360E+01  0.34002767166E+01  0.85889703578E+01  0.17770000000E+01 0.  1.
</event>
<event>
 6    1  0.1108180E-002  0.1910348E+03  0.7546771E-02  0.1061857E+00
        -11   -1    0    0    0    0  0.00000000000E+00  0.00000000000E+00  0.18250000000E+03  0.18250000000E+03  0.00000000000E+00 0. -1.
         11   -1    0    0    0    0 -0.00000000000E+00 -0.00000000000E+00 -0.18250000000E+03  0.18250000000E+03  0.00000000000E+00 0.  1.
        -11    1    1    2    0    0  0.70321526779E-01 -0.16629453991E+01  0.62250973623E+02  0.62273220966E+02  0.00000000000E+00 0. -1.
         11    1    1    2    0    0 -0.58140048732E+01  0.29582318158E+01 -0.17384280614E+03  0.17396515466E+03  0.00000000000E+00 0.  1.
        -15    1    1    2    0    0  0.93254084274E-01  0.22146414528E+02  0.99074460126E+02  0.10153511093E+03  0.17770000000E+01 0. -1.
         15    1    1    2    0    0  0.56504292622E+01 -0.23441700944E+02  0.12517372391E+02  0.27226513449E+02  0.17770000000E+01 0.  1.
</event>
<event>
 6    1  0.1108180E-002  0.1879389E+03  0.7546771E-02  0.1064206E+00
        -11   -1    0    0    0    0  0.00000000000E+00  0.00000000000E+00  0.18250000000E+03  0.18250000000E+03  0.00000000000E+00 0. -1.
         11   -1    0    0    0    0 -0.00000000000E+00 -0.00000000000E+00 -0.18250000000E+03  0.18250000000E+03  0.00000000000E+00 0. -1.
        -11    1    1    2    0    0  0.29280433153E+00  0.32344392627E+01  0.28991845020E+02  0.29173179624E+02  0.00000000000E+00 0. -1.
         11    1    1    2    0    0 -0.36184437656E+01 -0.49168247621E+00 -0.17702343863E+03  0.17706109881E+03  0.00000000000E+00 0. -1.
        -15    1    1    2    0    0 -0.12795898694E+01 -0.16709134315E+01 -0.49692119509E+01  0.56815577390E+01  0.17770000000E+01 0.  1.
         15    1    1    2    0    0  0.46052293035E+01 -0.10718433551E+01  0.15300080556E+03  0.15308416383E+03  0.17770000000E+01 0. -1.
</event>
<event>
 6    1  0.1108180E-002  0.1838396E+03  0.7546771E-02  0.1067393E+00
        -11   -1    0    0    0    0  0.00000000000E+00  0.00000000000E+00  0.18250000000E+03  0.18250000000E+03  0.00000000000E+00 0.  1.
         11   -1    0    0    0    0 -0.00000000000E+00 -0.00000000000E+00 -0.18250000000E+03  0.18250000000E+03  0.00000000000E+00 0.  1.
        -11    1    1    2    0    0  0.85128679809E+00  0.31856026645E+01  0.17636519428E+03  0.17639601613E+03  0.00000000000E+00 0.  1.
         11    1    1    2    0    0 -0.28171025538E+01 -0.46049922360E-01 -0.18113851134E+03  0.18116042194E+03  0.00000000000E+00 0.  1.
        -15    1    1    2    0    0  0.92156182657E+00 -0.27570321627E+01  0.19453369267E+01  0.39233362467E+01  0.17770000000E+01 0.  1.
         15    1    1    2    0    0  0.10442539291E+01 -0.38252057948E+00  0.28279801317E+01  0.35202256870E+01  0.17770000000E+01 0. -1.
</event>
<event>
 6    1  0.1108180E-002  0.1828485E+03  0.7546771E-02  0.1068178E+00
        -11   -1    0    0    0    0  0.00000000000E+00  0.00000000000E+00  0.18250000000E+03  0.18250000000E+03  0.00000000000E+00 0. -1.
         11   -1    0    0    0    0 -0.00000000000E+00 -0.00000000000E+00 -0.18250000000E+03  0.18250000000E+03  0.00000000000E+00 0.  1.
        -11    1    1    2    0    0  0.25017984615E+01 -0.18061013031E+01  0.18212536737E+03  0.18215150408E+03  0.00000000000E+00 0. -1.
         11    1    1    2    0    0  0.18779426360E+01 -0.24233127007E+01 -0.14205971427E+03  0.14209279198E+03  0.00000000000E+00 0.  1.
        -15    1    1    2    0    0 -0.80934198183E+00  0.11713305723E+01 -0.88582457330E+01  0.91462175908E+01  0.17770000000E+01 0.  1.
         15    1    1    2    0    0 -0.35703991156E+01  0.30580834315E+01 -0.31207407363E+02  0.31609486352E+02  0.17770000000E+01 0. -1.
</event>
<event>
 6    1  0.1108180E-002  0.1793416E+03  0.7546771E-02  0.1070997E+00
        -11   -1    0    0    0    0  0.00000000000E+00  0.00000000000E+00  0.18250000000E+03  0.18250000000E+03  0.00000000000E+00 0.  1.
         11   -1    0    0    0    0 -0.00000000000E+00 -0.00000000000E+00 -0.18250000000E+03  0.18250000000E+03  0.00000000000E+00 0.  1.
        -11    1    1    2    0    0 -0.10696049050E+01 -0.41907316861E+01  0.62512586214E+01  0.76016130571E+01  0.00000000000E+00 0.  1.
         11    1    1    2    0    0  0.21078421424E+01 -0.20397263335E+01 -0.18106124375E+03  0.18108500068E+03  0.00000000000E+00 0.  1.
        -15    1    1    2    0    0 -0.82907613293E+01  0.50176048595E+01  0.15120883131E+03  0.15152947395E+03  0.17770000000E+01 0.  1.
         15    1    1    2    0    0  0.72525240918E+01  0.12128531601E+01  0.23601153826E+02  0.24783912311E+02  0.17770000000E+01 0. -1.
</event>
<event>
 6    1  0.1108180E-002  0.1826320E+03  0.7546771E-02  0.1068350E+00
        -11   -1    0    0    0    0  0.00000000000E+00  0.00000000000E+00  0.18250000000E+03  0.18250000000E+03  0.00000000000E+00 0.  1.
         11   -1    0    0    0    0 -0.00000000000E+00 -0.00000000000E+00 -0.18250000000E+03  0.18250000000E+03  0.00000000000E+00 0.  1.
        -11    1    1    2    0    0 -0.35871420492E+00 -0.63131366600E+00  0.48290240509E+02  0.48295699200E+02  0.00000000000E+00 0.  1.
         11    1    1    2    0    0 -0.14046527325E+01 -0.21722262103E+01 -0.18234963180E+03  0.18236797919E+03  0.00000000000E+00 0.  1.
        -15    1    1    2    0    0 -0.61980468678E-01 -0.22816028244E+01  0.51601858980E+02  0.51682870782E+02  0.17770000000E+01 0.  1.
         15    1    1    2    0    0  0.18253474061E+01  0.50851427007E+01  0.82457532313E+02  0.82653450827E+02  0.17770000000E+01 0.  1.
</event>
<event>
 6    1  0.1108180E-002  0.1847264E+03  0.7546771E-02  0.1066696E+00
        -11   -1    0    0    0    0  0.00000000000E+00  0.00000000000E+00  0.18250000000E+03  0.18250000000E+03  0.00000000000E+00 0.  1.
         11   -1    0    0    0    0 -0.00000000000E+00 -0.00000000000E+00 -0.18250000000E+03  0.18250000000E+03  0.00000000000E+00 0. -1.
        -11    1    1    2    0    0  0.29004844776E+01 -0.56050298142E+00  0.17558063206E+03  0.17560548206E+03  0.00000000000E+00 0.  1.
         11    1    1    2    0    0  0.11661750943E+01 -0.25894208127E+01 -0.18025124927E+03  0.18027361962E+03  0.00000000000E+00 0. -1.
        -15    1    1    2    0    0 -0.48519534901E+01  0.27059618880E+01  0.32920760466E+01  0.66976993144E+01  0.17770000000E+01 0.  1.
         15    1    1    2    0    0  0.78529391819E+00  0.44396190617E+00  0.13785411683E+01  0.24231990147E+01  0.17770000000E+01 0.  1.
</event>
<event>
 6    1  0.1108180E-002  0.1837600E+03  0.7546771E-02  0.1067456E+00
        -11   -1    0    0    0    0  0.00000000000E+00  0.00000000000E+00  0.18250000000E+03  0.18250000000E+03  0.00000000000E+00 0.  1.
         11   -1    0    0    0    0 -0.00000000000E+00 -0.00000000000E+00 -0.18250000000E+03  0.18250000000E+03  0.00000000000E+00 0.  1.
        -11    1    1    2    0    0  0.35051678365E+01 -0.22035094758E+00  0.18120592313E+03  0.18123995512E+03  0.00000000000E+00 0.  1.
         11    1    1    2    0    0  0.20009556454E+01  0.35734324912E+01 -0.16828302308E+03  0.16833285212E+03  0.00000000000E+00 0.  1.
        -15    1    1    2    0    0 -0.18338091372E+01 -0.15534116723E+01 -0.19131782269E+01  0.35487918653E+01  0.17770000000E+01 0.  1.
         15    1    1    2    0    0 -0.36723143448E+01 -0.17996698713E+01 -0.11009721818E+02  0.11878400894E+02  0.17770000000E+01 0. -1.
</event>
<event>
 6    1  0.1108180E-002  0.1831328E+03  0.7546771E-02  0.1067952E+00
        -11   -1    0    0    0    0  0.00000000000E+00  0.00000000000E+00  0.18250000000E+03  0.18250000000E+03  0.00000000000E+00 0. -1.
         11   -1    0    0    0    0 -0.00000000000E+00 -0.00000000000E+00 -0.18250000000E+03  0.18250000000E+03  0.00000000000E+00 0.  1.
        -11    1    1    2    0    0  0.24021838668E+01 -0.13689532030E+01  0.13059457076E+03  0.13062383562E+03  0.00000000000E+00 0. -1.
         11    1    1    2    0    0  0.83351304810E+01 -0.89312040450E-02 -0.18167612093E+03  0.18186722464E+03  0.00000000000E+00 0.  1.
        -15    1    1    2    0    0 -0.21789020655E+01  0.56223868166E+00  0.20246708596E+02  0.20448732589E+02  0.17770000000E+01 0. -1.
         15    1    1    2    0    0 -0.85584122823E+01  0.81564572540E+00  0.30834841578E+02  0.32060207156E+02  0.17770000000E+01 0.  1.
</event>
<event>
 6    1  0.1108180E-002  0.1827607E+03  0.7546771E-02  0.1068247E+00
        -11   -1    0    0    0    0  0.00000000000E+00  0.00000000000E+00  0.18250000000E+03  0.18250000000E+03  0.00000000000E+00 0.  1.
         11   -1    0    0    0    0 -0.00000000000E+00 -0.00000000000E+00 -0.18250000000E+03  0.18250000000E+03  0.00000000000E+00 0. -1.
        -11    1    1    2    0    0 -0.28897438480E+01  0.10763572524E+01  0.18221319325E+03  0.18223928489E+03  0.00000000000E+00 0.  1.
         11    1    1    2    0    0  0.83678522471E+00  0.16327035295E+01 -0.12303323409E+03  0.12304691228E+03  0.00000000000E+00 0. -1.
        -15    1    1    2    0    0 -0.14596974144E+01 -0.10162837174E+01 -0.39148021955E+02  0.39228674476E+02  0.17770000000E+01 0. -1.
         15    1    1    2    0    0  0.35126560377E+01 -0.16927770644E+01 -0.20031937203E+02  0.20485128356E+02  0.17770000000E+01 0. -1.
</event>
<event>
 6    1  0.1108180E-002  0.1859230E+03  0.7546771E-02  0.1065762E+00
        -11   -1    0    0    0    0  0.00000000000E+00  0.00000000000E+00  0.18250000000E+03  0.18250000000E+03  0.00000000000E+00 0.  1.
         11   -1    0    0    0    0 -0.00000000000E+00 -0.00000000000E+00 -0.18250000000E+03  0.18250000000E+03  0.00000000000E+00 0.  1.
        -11    1    1    2    0    0  0.59254210771E+01 -0.78330281006E+01  0.13599941102E+03  0.13635360920E+03  0.00000000000E+00 0.  1.
         11    1    1    2    0    0  0.21537899620E+01 -0.15072158063E+01 -0.17905774845E+03  0.17907704429E+03  0.00000000000E+00 0.  1.
        -15    1    1    2    0    0 -0.31702663421E+01 -0.67306134289E+01  0.14123693981E+02  0.16062011284E+02  0.17770000000E+01 0. -1.
         15    1    1    2    0    0 -0.49089446970E+01  0.16070857336E+02  0.28934643447E+02  0.33507335226E+02  0.17770000000E+01 0.  1.
</event>
<event>
 6    1  0.1108180E-002  0.1851371E+03  0.7546771E-02  0.1066375E+00
        -11   -1    0    0    0    0  0.00000000000E+00  0.00000000000E+00  0.18250000000E+03  0.18250000000E+03  0.00000000000E+00 0. -1.
         11   -1    0    0    0    0 -0.00000000000E+00 -0.00000000000E+00 -0.18250000000E+03  0.18250000000E+03  0.00000000000E+00 0.  1.
        -11    1    1    2    0    0 -0.34383538576E+01 -0.29897674602E+01  0.17980522589E+03  0.17986294850E+03  0.00000000000E+00 0. -1.
         11    1    1    2    0    0 -0.16478825289E+01 -0.80985752096E+01 -0.12137533742E+03  0.12165638073E+03  0.00000000000E+00 0.  1.
        -15    1    1    2    0    0  0.52122341601E+01 -0.38256918044E+01 -0.61944776541E+01  0.91286683108E+01  0.17770000000E+01 0.  1.
         15    1    1    2    0    0 -0.12599777360E+00  0.14914034474E+02 -0.52235410811E+02  0.54352002460E+02  0.17770000000E+01 0. -1.
</event>
<event>
 6    1  0.1108180E-002  0.1835944E+03  0.7546771E-02  0.1067587E+00
        -11   -1    0    0    0    0  0.00000000000E+00  0.00000000000E+00  0.18250000000E+03  0.18250000000E+03  0.00000000000E+00 0.  1.
         11   -1    0    0    0    0 -0.00000000000E+00 -0.00000000000E+00 -0.18250000000E+03  0.18250000000E+03  0.00000000000E+00 0.  1.
        -11    1    1    2    0    0 -0.52528406654E+00 -0.37328397038E+01  0.18136646440E+03  0.18140563504E+03  0.00000000000E+00 0.  1.
         11    1    1    2    0    0 -0.18901534616E+01  0.17559339060E+01 -0.71224856266E+02  0.71271566098E+02  0.00000000000E+00 0.  1.
        -15    1    1    2    0    0  0.15183543817E+01  0.65242289937E+01 -0.10643213810E+02  0.12700657196E+02  0.17770000000E+01 0.  1.
         15    1    1    2    0    0  0.89708314645E+00 -0.45473231960E+01 -0.99498394328E+02  0.99622141662E+02  0.17770000000E+01 0. -1.
</event>
<event>
 6    1  0.1108180E-002  0.1853276E+03  0.7546771E-02  0.1066226E+00
        -11   -1    0    0    0    0  0.00000000000E+00  0.00000000000E+00  0.18250000000E+03  0.18250000000E+03  0.00000000000E+00 0.  1.
         11   -1    0    0    0    0 -0.00000000000E+00 -0.00000000000E+00 -0.18250000000E+03  0.18250000000E+03  0.00000000000E+00 0. -1.
        -11    1    1    2    0    0 -0.27803075568E+01 -0.54480952539E+00  0.13474488907E+03  0.13477467142E+03  0.00000000000E+00 0.  1.
         11    1    1    2    0    0  0.42599555568E+01  0.47838377962E+01 -0.17955821325E+03  0.17967243604E+03  0.00000000000E+00 0. -1.
        -15    1    1    2    0    0  0.34388239600E+01  0.42181369212E+01  0.38164014218E+02  0.38591033927E+02  0.17770000000E+01 0. -1.
         15    1    1    2    0    0 -0.49184719601E+01 -0.84571651920E+01  0.66493099655E+01  0.11961858615E+02  0.17770000000E+01 0. -1.
</event>
<event>
 6    1  0.1262442E-002  0.1842159E+03  0.7546771E-02  0.1067097E+00
        -11   -1    0    0    0    0  0.00000000000E+00  0.00000000000E+00  0.18250000000E+03  0.18250000000E+03  0.00000000000E+00 0. -1.
         11   -1    0    0    0    0 -0.00000000000E+00 -0.00000000000E+00 -0.18250000000E+03  0.18250000000E+03  0.00000000000E+00 0.  1.
        -11    1    1    2    0    0  0.25214691889E+01  0.14048446423E+01  0.18076107503E+03  0.18078411889E+03  0.00000000000E+00 0. -1.
         11    1    1    2    0    0 -0.29328522417E+01  0.26945577720E+01 -0.11705235329E+03  0.11712009082E+03  0.00000000000E+00 0.  1.
        -15    1    1    2    0    0 -0.14803388732E+01 -0.39222803267E+01 -0.14441876594E+01  0.47769334449E+01  0.17770000000E+01 0.  1.
         15    1    1    2    0    0  0.18917219260E+01 -0.17712208760E+00 -0.62264534085E+02  0.62318856841E+02  0.17770000000E+01 0.  1.
</event>
<event>
 6    1  0.1108180E-002  0.1961741E+03  0.7546771E-02  0.1058063E+00
        -11   -1    0    0    0    0  0.00000000000E+00  0.00000000000E+00  0.18250000000E+03  0.18250000000E+03  0.00000000000E+00 0. -1.
         11   -1    0    0    0    0 -0.00000000000E+00 -0.00000000000E+00 -0.18250000000E+03  0.18250000000E+03  0.00000000000E+00 0. -1.
        -11    1    1    2    0    0 -0.22468110072E+01 -0.75492223548E+01  0.16864208629E+03  0.16882592273E+03  0.00000000000E+00 0. -1.
         11    1    1    2    0    0 -0.16713944778E+02  0.18212304756E+02 -0.67247403667E+02  0.71646753552E+02  0.00000000000E+00 0. -1.
        -15    1    1    2    0    0  0.40544763570E+02  0.11825933749E+01 -0.34693062304E+02  0.53404519295E+02  0.17770000000E+01 0.  1.
         15    1    1    2    0    0 -0.21584007785E+02 -0.11845675777E+02 -0.66701620319E+02  0.71122804422E+02  0.17770000000E+01 0. -1.
</event>
<event>
 6    1  0.2441648E-002  0.2022797E+03  0.7546771E-02  0.1053717E+00
        -11   -1    0    0    0    0  0.00000000000E+00  0.00000000000E+00  0.18250000000E+03  0.18250000000E+03  0.00000000000E+00 0.  1.
         11   -1    0    0    0    0 -0.00000000000E+00 -0.00000000000E+00 -0.18250000000E+03  0.18250000000E+03  0.00000000000E+00 0. -1.
        -11    1    1    2    0    0  0.43786298343E+01  0.90058967453E+01  0.14735632397E+03  0.14769619084E+03  0.00000000000E+00 0.  1.
         11    1    1    2    0    0 -0.27075971081E+01 -0.18849272266E+02 -0.16160223654E+03  0.16272033985E+03  0.00000000000E+00 0. -1.
        -15    1    1    2    0    0  0.16986032213E+01  0.17648139101E+02 -0.15486949013E+02  0.23608163533E+02  0.17770000000E+01 0. -1.
         15    1    1    2    0    0 -0.33696359476E+01 -0.78047635812E+01  0.29732861583E+02  0.30975305776E+02  0.17770000000E+01 0.  1.
</event>
<event>
 6    1  0.1108180E-002  0.1830087E+03  0.7546771E-02  0.1068051E+00
        -11   -1    0    0    0    0  0.00000000000E+00  0.00000000000E+00  0.18250000000E+03  0.18250000000E+03  0.00000000000E+00 0.  1.
         11   -1    0    0    0    0 -0.00000000000E+00 -0.00000000000E+00 -0.18250000000E+03  0.18250000000E+03  0.00000000000E+00 0.  1.
        -11    1    1    2    0    0 -0.57682757960E+01 -0.20314361081E+00  0.18189979526E+03  0.18199134536E+03  0.00000000000E+00 0.  1.
         11    1    1    2    0    0 -0.89699552986E-01  0.12548838234E+01 -0.88557385758E+02  0.88566321769E+02  0.00000000000E+00 0.  1.
        -15    1    1    2    0    0  0.14361625463E+01 -0.16651810423E+01 -0.36287732107E+01  0.46001211699E+01  0.17770000000E+01 0. -1.
         15    1    1    2    0    0  0.44218128027E+01  0.61344082972E+00 -0.89713636287E+02  0.89842211699E+02  0.17770000000E+01 0.  1.
</event>
<event>
 6    1  0.1108180E-002  0.1198183E+03  0.7546771E-02  0.1133374E+00
        -11   -1    0    0    0    0  0.00000000000E+00  0.00000000000E+00  0.18250000000E+03  0.18250000000E+03  0.00000000000E+00 0.  1.
         11   -1    0    0    0    0 -0.00000000000E+00 -0.00000000000E+00 -0.18250000000E+03  0.18250000000E+03  0.00000000000E+00 0. -1.
        -11    1    1    2    0    0 -0.13864233782E+02  0.16380188472E+02  0.12136647270E+03  0.12324913082E+03  0.00000000000E+00 0.  1.
         11    1    1    2    0    0 -0.24047075255E+01  0.31558964561E+01 -0.59201836802E+02  0.59334642339E+02  0.00000000000E+00 0. -1.
        -15    1    1    2    0    0  0.29518749238E+01 -0.33435111628E+02  0.54570429845E+02  0.64091417503E+02  0.17770000000E+01 0.  1.
         15    1    1    2    0    0  0.13317066384E+02  0.13899026700E+02 -0.11673506575E+03  0.11832480933E+03  0.17770000000E+01 0. -1.
</event>
<event>
 6    1  0.1108180E-002  0.1868369E+03  0.7546771E-02  0.1065054E+00
        -11   -1    0    0    0    0  0.00000000000E+00  0.00000000000E+00  0.18250000000E+03  0.18250000000E+03  0.00000000000E+00 0.  1.
         11   -1    0    0    0    0 -0.00000000000E+00 -0.00000000000E+00 -0.18250000000E+03  0.18250000000E+03  0.00000000000E+00 0. -1.
        -11    1    1    2    0    0  0.50695265035E+00 -0.62388899080E+01  0.16675225418E+03  0.16686969474E+03  0.00000000000E+00 0.  1.
         11    1    1    2    0    0 -0.22323568080E+01 -0.33245232915E+01 -0.17811811533E+03  0.17816312435E+03  0.00000000000E+00 0. -1.
        -15    1    1    2    0    0  0.17473897328E+01  0.62028012864E+01  0.13882484293E+02  0.15408089233E+02  0.17770000000E+01 0. -1.
         15    1    1    2    0    0 -0.21985575138E-01  0.33606119131E+01 -0.25166231481E+01  0.45590916711E+01  0.17770000000E+01 0.  1.
</event>
<event>
 6    1  0.1108180E-002  0.1864266E+03  0.7546771E-02  0.1065371E+00
        -11   -1    0    0    0    0  0.00000000000E+00  0.00000000000E+00  0.18250000000E+03  0.18250000000E+03  0.00000000000E+00 0. -1.
         11   -1    0    0    0    0 -0.00000000000E+00 -0.00000000000E+00 -0.18250000000E+03  0.18250000000E+03  0.00000000000E+00 0.  1.
        -11    1    1    2    0    0  0.57077540029E+01 -0.10489682402E+02  0.17817362566E+03  0.17857338204E+03  0.00000000000E+00 0. -1.
         11    1    1    2    0    0  0.82451132622E+00 -0.29287561106E+01 -0.13115435068E+03  0.13118963806E+03  0.00000000000E+00 0.  1.
        -15    1    1    2    0    0  0.77749815235E+01  0.41825043280E+01 -0.29061675926E+02  0.30425029445E+02  0.17770000000E+01 0.  1.
         15    1    1    2    0    0 -0.14307246853E+02  0.92359341849E+01 -0.17957599049E+02  0.24811950455E+02  0.17770000000E+01 0. -1.
</event>
<event>
 6    1  0.1108180E-002  0.1843828E+03  0.7546771E-02  0.1066966E+00
        -11   -1    0    0    0    0  0.00000000000E+00  0.00000000000E+00  0.18250000000E+03  0.18250000000E+03  0.00000000000E+00 0. -1.
         11   -1    0    0    0    0 -0.00000000000E+00 -0.00000000000E+00 -0.18250000000E+03  0.18250000000E+03  0.00000000000E+00 0.  1.
        -11    1    1    2    0    0 -0.63660970906E+01  0.87372688809E+01  0.18029342850E+03  0.18061724010E+03  0.00000000000E+00 0. -1.
         11    1    1    2    0    0 -0.62507784772E+00 -0.21961155036E+01 -0.15958050957E+03  0.15959684421E+03  0.00000000000E+00 0.  1.
        -15    1    1    2    0    0  0.15422064626E+01 -0.13967873813E+01 -0.14867728593E+02  0.15117423665E+02  0.17770000000E+01 0. -1.
         15    1    1    2    0    0  0.54489684757E+01 -0.51443659960E+01 -0.58451903373E+01  0.96684920246E+01  0.17770000000E+01 0.  1.
</event>
<event>
 6    1  0.1108180E-002  0.1218226E+03  0.7546771E-02  0.1130662E+00
        -11   -1    0    0    0    0  0.00000000000E+00  0.00000000000E+00  0.18250000000E+03  0.18250000000E+03  0.00000000000E+00 0.  1.
         11   -1    0    0    0    0 -0.00000000000E+00 -0.00000000000E+00 -0.18250000000E+03  0.18250000000E+03  0.00000000000E+00 0.  1.
        -11    1    1    2    0    0  0.26411187353E+01  0.48225750314E+01  0.13858888061E+03  0.13869791119E+03  0.00000000000E+00 0.  1.
         11    1    1    2    0    0  0.11338467067E+01  0.14917816871E+01 -0.73281468665E+02  0.73305420473E+02  0.00000000000E+00 0.  1.
        -15    1    1    2    0    0  0.74152173613E+01 -0.23329931988E+02 -0.10527824190E+03  0.10810151304E+03  0.17770000000E+01 0.  1.
         15    1    1    2    0    0 -0.11190182803E+02  0.17015575269E+02  0.39970829953E+02  0.44895155296E+02  0.17770000000E+01 0. -1.
</event>
<event>
 6    1  0.1108180E-002  0.1893923E+03  0.7546771E-02  0.1063097E+00
        -11   -1    0    0    0    0  0.00000000000E+00  0.00000000000E+00  0.18250000000E+03  0.18250000000E+03  0.00000000000E+00 0.  1.
         11   -1    0    0    0    0 -0.00000000000E+00 -0.00000000000E+00 -0.18250000000E+03  0.18250000000E+03  0.00000000000E+00 0.  1.
        -11    1    1    2    0    0 -0.31640917292E+01  0.66300392444E+00  0.17557789968E+03  0.17560765902E+03  0.00000000000E+00 0.  1.
         11    1    1    2    0    0 -0.46796325449E+00  0.68740781101E+01 -0.98295598231E+02  0.98536777759E+02  0.00000000000E+00 0.  1.
        -15    1    1    2    0    0  0.18080010110E+02 -0.11259407053E+02 -0.13392037673E+02  0.25222319775E+02  0.17770000000E+01 0. -1.
         15    1    1    2    0    0 -0.14447955126E+02  0.37223250187E+01 -0.63890263776E+02  0.65633243446E+02  0.17770000000E+01 0.  1.
</event>
<event>
 6    1  0.1108180E-002  0.1832646E+03  0.7546771E-02  0.1067848E+00
        -11   -1    0    0    0    0  0.00000000000E+00  0.00000000000E+00  0.18250000000E+03  0.18250000000E+03  0.00000000000E+00 0.  1.
         11   -1    0    0    0    0 -0.00000000000E+00 -0.00000000000E+00 -0.18250000000E+03  0.18250000000E+03  0.00000000000E+00 0. -1.
        -11    1    1    2    0    0 -0.19335692478E+01 -0.58174466315E+01  0.18163193474E+03  0.18173536005E+03  0.00000000000E+00 0.  1.
         11    1    1    2    0    0 -0.36288572533E+01  0.18417568656E+01 -0.13101330062E+03  0.13107648764E+03  0.00000000000E+00 0. -1.
        -15    1    1    2    0    0 -0.25342360868E+01  0.27839606506E+01 -0.13071331975E+02  0.13718244714E+02  0.17770000000E+01 0. -1.
         15    1    1    2    0    0  0.80966625879E+01  0.11917291153E+01 -0.37547302144E+02  0.38469907599E+02  0.17770000000E+01 0.  1.
</event>
<event>
 6    1  0.1108180E-002  0.1837523E+03  0.7546771E-02  0.1067462E+00
        -11   -1    0    0    0    0  0.00000000000E+00  0.00000000000E+00  0.18250000000E+03  0.18250000000E+03  0.00000000000E+00 0. -1.
         11   -1    0    0    0    0 -0.00000000000E+00 -0.00000000000E+00 -0.18250000000E+03  0.18250000000E+03  0.00000000000E+00 0.  1.
        -11    1    1    2    0    0  0.10595917320E+02 -0.52993635801E+01  0.18086010345E+03  0.18124771374E+03  0.00000000000E+00 0. -1.
         11    1    1    2    0    0 -0.70257185674E+01 -0.63324427892E+00 -0.14424504645E+03  0.14441743366E+03  0.00000000000E+00 0.  1.
        -15    1    1    2    0    0 -0.31677082630E+01 -0.33324484040E+01 -0.12748437381E+02  0.13668210295E+02  0.17770000000E+01 0. -1.
         15    1    1    2    0    0 -0.40249048927E+00  0.92650562630E+01 -0.23866619615E+02  0.25666642301E+02  0.17770000000E+01 0.  1.
</event>
<event>
 6    1  0.1108180E-002  0.2018848E+03  0.7546771E-02  0.1053993E+00
        -11   -1    0    0    0    0  0.00000000000E+00  0.00000000000E+00  0.18250000000E+03  0.18250000000E+03  0.00000000000E+00 0.  1.
         11   -1    0    0    0    0 -0.00000000000E+00 -0.00000000000E+00 -0.18250000000E+03  0.18250000000E+03  0.00000000000E+00 0. -1.
        -11    1    1    2    0    0  0.23932733003E+01 -0.20887117234E+01  0.15752863863E+03  0.15756066280E+03  0.00000000000E+00 0.  1.
         11    1    1    2    0    0 -0.14354758858E+01  0.22810462334E+01 -0.16309289527E+03  0.16311516254E+03  0.00000000000E+00 0. -1.
        -15    1    1    2    0    0 -0.31710762056E+00  0.39737335249E+01  0.24478553665E+02  0.24864602025E+02  0.17770000000E+01 0.  1.
         15    1    1    2    0    0 -0.64068979398E+00 -0.41660680350E+01 -0.18914297023E+02  0.19459572635E+02  0.17770000000E+01 0. -1.
</event>
<event>
 6    1  0.1108180E-002  0.1832544E+03  0.7546771E-02  0.1067856E+00
        -11   -1    0    0    0    0  0.00000000000E+00  0.00000000000E+00  0.18250000000E+03  0.18250000000E+03  0.00000000000E+00 0.  1.
         11   -1    0    0    0    0 -0.00000000000E+00 -0.00000000000E+00 -0.18250000000E+03  0.18250000000E+03  0.00000000000E+00 0.  1.
        -11    1    1    2    0    0 -0.30864279833E+01 -0.21499762146E+01  0.18170670892E+03  0.18174563682E+03  0.00000000000E+00 0.  1.
         11    1    1    2    0    0  0.24077060191E+01 -0.91538768082E+00 -0.92142476220E+02  0.92178473121E+02  0.00000000000E+00 0.  1.
        -15    1    1    2    0    0  0.24990201062E+01  0.35742840175E+01 -0.68029847331E+01  0.82739916611E+01  0.17770000000E+01 0.  1.
         15    1    1    2    0    0 -0.18202981420E+01 -0.50892012208E+00 -0.82761247966E+02  0.82801898402E+02  0.17770000000E+01 0. -1.
</event>
<event>
 6    1  0.1108180E-002  0.1859998E+03  0.7546771E-02  0.1065703E+00
        -11   -1    0    0    0    0  0.00000000000E+00  0.00000000000E+00  0.18250000000E+03  0.18250000000E+03  0.00000000000E+00 0. -1.
         11   -1    0    0    0    0 -0.00000000000E+00 -0.00000000000E+00 -0.18250000000E+03  0.18250000000E+03  0.00000000000E+00 0.  1.
        -11    1    1    2    0    0  0.16914048431E+01  0.60587122803E+00  0.12174034955E+03  0.12175360626E+03  0.00000000000E+00 0. -1.
         11    1    1    2    0    0  0.26893554786E+01 -0.34189528687E+01 -0.17894733387E+03  0.17900019601E+03  0.00000000000E+00 0.  1.
        -15    1    1    2    0    0 -0.20996204745E+01  0.42228458961E+01 -0.16488048226E+01  0.53025578679E+01  0.17770000000E+01 0. -1.
         15    1    1    2    0    0 -0.22811398472E+01 -0.14097642554E+01  0.58855789150E+02  0.58943639858E+02  0.17770000000E+01 0. -1.
</event>
<event>
 6    1  0.1108180E-002  0.1740285E+03  0.7546771E-02  0.1075406E+00
        -11   -1    0    0    0    0  0.00000000000E+00  0.00000000000E+00  0.18250000000E+03  0.18250000000E+03  0.00000000000E+00 0.  1.
         11   -1    0    0    0    0 -0.00000000000E+00 -0.00000000000E+00 -0.18250000000E+03  0.18250000000E+03  0.00000000000E+00 0.  1.
        -11    1    1    2    0    0  0.15048407994E+01 -0.18584240480E+01  0.17256810105E+03  0.17258466846E+03  0.00000000000E+00 0.  1.
         11    1    1    2    0    0  0.35735357121E+01  0.13662634808E+01 -0.17548011238E+03  0.17552181253E+03  0.00000000000E+00 0.  1.
        -15    1    1    2    0    0  0.39028251542E+01  0.48686455294E+01  0.93147840023E+00  0.65544743866E+01  0.17770000000E+01 0. -1.
         15    1    1    2    0    0 -0.89812016657E+01 -0.43764849622E+01  0.19805329280E+01  0.10339044620E+02  0.17770000000E+01 0.  1.
</event>
<event>
 6    1  0.1108180E-002  0.1851792E+03  0.7546771E-02  0.1066342E+00
        -11   -1    0    0    0    0  0.00000000000E+00  0.00000000000E+00  0.18250000000E+03  0.18250000000E+03  0.00000000000E+00 0.  1.
         11   -1    0    0    0    0 -0.00000000000E+00 -0.00000000000E+00 -0.18250000000E+03  0.18250000000E+03  0.00000000000E+00 0. -1.
        -11    1    1    2    0    0 -0.14154047822E+01  0.12341483143E+01  0.13671968655E+03  0.13673258274E+03  0.00000000000E+00 0.  1.
         11    1    1    2    0    0 -0.78197854588E+00  0.53074170405E+01 -0.17974080260E+03  0.17982084497E+03  0.00000000000E+00 0. -1.
        -15    1    1    2    0    0  0.81482732912E+00 -0.24891413939E+00  0.41558360217E+02  0.41605059004E+02  0.17770000000E+01 0. -1.
         15    1    1    2    0    0  0.13825559990E+01 -0.62926512154E+01  0.14627558369E+01  0.68415132864E+01  0.17770000000E+01 0. -1.
</event>
<event>
 6    1  0.1108180E-002  0.1827790E+03  0.7546771E-02  0.1068233E+00
        -11   -1    0    0    0    0  0.00000000000E+00  0.00000000000E+00  0.18250000000E+03  0.18250000000E+03  0.00000000000E+00 0.  1.
         11   -1    0    0    0    0 -0.00000000000E+00 -0.00000000000E+00 -0.18250000000E+03  0.18250000000E+03  0.00000000000E+00 0.  1.
        -11    1    1    2    0    0  0.34126961110E+01 -0.22604989576E+01  0.18217501557E+03  0.18222099947E+03  0.00000000000E+00 0.  1.
         11    1    1    2    0    0 -0.12841156986E+01  0.78009137166E+00 -0.10071036820E+03  0.10072157544E+03  0.00000000000E+00 0.  1.
        -15    1    1    2    0    0  0.29890563121E+01  0.21526310748E+01 -0.45138734218E+02  0.45323628871E+02  0.17770000000E+01 0.  1.
         15    1    1    2    0    0 -0.51176367245E+01 -0.67222348887E+00 -0.36325913147E+02  0.36733796224E+02  0.17770000000E+01 0. -1.
</event>
<event>
 6    1  0.1108180E-002  0.1868374E+03  0.7546771E-02  0.1065054E+00
        -11   -1    0    0    0    0  0.00000000000E+00  0.00000000000E+00  0.18250000000E+03  0.18250000000E+03  0.00000000000E+00 0. -1.
         11   -1    0    0    0    0 -0.00000000000E+00 -0.00000000000E+00 -0.18250000000E+03  0.18250000000E+03  0.00000000000E+00 0. -1.
        -11    1    1    2    0    0  0.11378651145E+02  0.33599022902E+01  0.17776710890E+03  0.17816258769E+03  0.00000000000E+00 0. -1.
         11    1    1    2    0    0 -0.18234617890E+01  0.18056805785E+01 -0.15660266681E+03  0.15662369153E+03  0.00000000000E+00 0. -1.
        -15    1    1    2    0    0 -0.10369844258E+02 -0.59147285155E+01 -0.23896629301E+02  0.26771707161E+02  0.17770000000E+01 0.  1.
         15    1    1    2    0    0  0.81465490185E+00  0.74914564673E+00  0.27321872166E+01  0.34420136252E+01  0.17770000000E+01 0. -1.
</event>
<event>
 6    1  0.1108180E-002  0.1856767E+03  0.7546771E-02  0.1065954E+00
        -11   -1    0    0    0    0  0.00000000000E+00  0.00000000000E+00  0.18250000000E+03  0.18250000000E+03  0.00000000000E+00 0.  1.
         11   -1    0    0    0    0 -0.00000000000E+00 -0.00000000000E+00 -0.18250000000E+03  0.18250000000E+03  0.00000000000E+00 0. -1.
        -11    1    1    2    0    0  0.11939872210E+01  0.83506994955E+00  0.74031474298E+02  0.74045811050E+02  0.00000000000E+00 0.  1.
         11    1    1    2    0    0 -0.33373316785E+01 -0.30705638612E+01 -0.17926598283E+03  0.17932333575E+03  0.00000000000E+00 0. -1.
        -15    1    1    2    0    0  0.49869030935E+01  0.11115430342E+01 -0.86000482443E+00  0.54774143242E+01  0.17770000000E+01 0. -1.
         15    1    1    2    0    0 -0.28435586360E+01  0.11239508774E+01  0.10609451336E+03  0.10615343887E+03  0.17770000000E+01 0.  1.
</event>
<event>
 6    1  0.1670126E-002  0.1908384E+03  0.7546771E-02  0.1062005E+00
        -11   -1    0    0    0    0  0.00000000000E+00  0.00000000000E+00  0.18250000000E+03  0.18250000000E+03  0.00000000000E+00 0.  1.
         11   -1    0    0    0    0 -0.00000000000E+00 -0.00000000000E+00 -0.18250000000E+03  0.18250000000E+03  0.00000000000E+00 0. -1.
        -11    1    1    2    0    0 -0.14770095132E+01 -0.57729071443E+01  0.17405967655E+03  0.17416164622E+03  0.00000000000E+00 0.  1.
         11    1    1    2    0    0  0.61960953128E+01  0.26650152336E+01 -0.14466308614E+03  0.14482024166E+03  0.00000000000E+00 0. -1.
        -15    1    1    2    0    0 -0.17032184518E+01  0.29753262697E+01  0.77753750295E+01  0.86814575594E+01  0.17770000000E+01 0.  1.
         15    1    1    2    0    0 -0.30158673478E+01  0.13256564104E+00 -0.37171965443E+02  0.37336654556E+02  0.17770000000E+01 0.  1.
</event>
<event>
 6    1  0.1108180E-002  0.1863281E+03  0.7546771E-02  0.1065448E+00
        -11   -1    0    0    0    0  0.00000000000E+00  0.00000000000E+00  0.18250000000E+03  0.18250000000E+03  0.00000000000E+00 0.  1.
         11   -1    0    0    0    0 -0.00000000000E+00 -0.00000000000E+00 -0.18250000000E+03  0.18250000000E+03  0.00000000000E+00 0. -1.
        -11    1    1    2    0    0  0.23184884588E+01 -0.32674406719E+00  0.17333137180E+03  0.17334718515E+03  0.00000000000E+00 0.  1.
         11    1    1    2    0    0 -0.32411893342E+01 -0.79972405736E+01 -0.17846344056E+03  0.17867193618E+03  0.00000000000E+00 0. -1.
        -15    1    1    2    0    0 -0.10202698962E+01  0.53021223357E+01 -0.88330703365E+00  0.57525135584E+01  0.17770000000E+01 0.  1.
         15    1    1    2    0    0  0.19429707716E+01  0.30218623051E+01  0.60153757933E+01  0.72283651087E+01  0.17770000000E+01 0. -1.
</event>
<event>
 6    1  0.1108180E-002  0.1863216E+03  0.7546771E-02  0.1065453E+00
        -11   -1    0    0    0    0  0.00000000000E+00  0.00000000000E+00  0.18250000000E+03  0.18250000000E+03  0.00000000000E+00 0. -1.
         11   -1    0    0    0    0 -0.00000000000E+00 -0.00000000000E+00 -0.18250000000E+03  0.18250000000E+03  0.00000000000E+00 0.  1.
        -11    1    1    2    0    0  0.16921855663E+01 -0.27770365504E+01  0.17864877612E+03  0.17867837204E+03  0.00000000000E+00 0. -1.
         11    1    1    2    0    0 -0.46501083358E+01 -0.54139396964E+01 -0.16899372621E+03  0.16914435773E+03  0.00000000000E+00 0.  1.
        -15    1    1    2    0    0 -0.33640173363E+01  0.45353247280E+01 -0.15407732103E+01  0.61169840700E+01  0.17770000000E+01 0. -1.
         15    1    1    2    0    0  0.63219401058E+01  0.36556515189E+01 -0.81142766984E+01  0.11060286166E+02  0.17770000000E+01 0.  1.
</event>
<event>
 6    1  0.1108180E-002  0.1829983E+03  0.7546771E-02  0.1068059E+00
        -11   -1    0    0    0    0  0.00000000000E+00  0.00000000000E+00  0.18250000000E+03  0.18250000000E+03  0.00000000000E+00 0. -1.
         11   -1    0    0    0    0 -0.00000000000E+00 -0.00000000000E+00 -0.18250000000E+03  0.18250000000E+03  0.00000000000E+00 0. -1.
        -11    1    1    2    0    0  0.18920267680E+01  0.19129698594E+01  0.18198178117E+03  0.18200167004E+03  0.00000000000E+00 0. -1.
         11    1    1    2    0    0 -0.19037275626E+01  0.12701852318E+00 -0.12104638513E+03  0.12106142104E+03  0.00000000000E+00 0. -1.
        -15    1    1    2    0    0  0.18753347479E+01  0.12882018257E+01 -0.51783741473E+02  0.51864149027E+02  0.17770000000E+01 0.  1.
         15    1    1    2    0    0 -0.18636339533E+01 -0.33281902083E+01 -0.91516545665E+01  0.10072759894E+02  0.17770000000E+01 0. -1.
</event>
<event>
 6    1  0.1108180E-002  0.1903309E+03  0.7546771E-02  0.1062387E+00
        -11   -1    0    0    0    0  0.00000000000E+00  0.00000000000E+00  0.18250000000E+03  0.18250000000E+03  0.00000000000E+00 0. -1.
         11   -1    0    0    0    0 -0.00000000000E+00 -0.00000000000E+00 -0.18250000000E+03  0.18250000000E+03  0.00000000000E+00 0.  1.
        -11    1    1    2    0    0  0.24409255407E+01  0.91427351990E+00  0.17464969964E+03  0.17466914896E+03  0.00000000000E+00 0. -1.
         11    1    1    2    0    0  0.10753958308E+02  0.53054893422E+01 -0.16380636634E+03  0.16424470004E+03  0.00000000000E+00 0.  1.
        -15    1    1    2    0    0 -0.11439155392E+02 -0.61877800226E+01 -0.15796566251E+02  0.20538552335E+02  0.17770000000E+01 0.  1.
         15    1    1    2    0    0 -0.17557284568E+01 -0.31982839528E-01  0.49532329478E+01  0.55475986653E+01  0.17770000000E+01 0.  1.
</event>
<event>
 6    1  0.1108180E-002  0.1829035E+03  0.7546771E-02  0.1068134E+00
        -11   -1    0    0    0    0  0.00000000000E+00  0.00000000000E+00  0.18250000000E+03  0.18250000000E+03  0.00000000000E+00 0.  1.
         11   -1    0    0    0    0 -0.00000000000E+00 -0.00000000000E+00 -0.18250000000E+03  0.18250000000E+03  0.00000000000E+00 0. -1.
        -11    1    1    2    0    0  0.22983217075E+01 -0.45739489457E+01  0.18202450140E+03  0.18209646455E+03  0.00000000000E+00 0.  1.
         11    1    1    2    0    0  0.33505978918E+01  0.80260132966E+00 -0.41305289276E+02  0.41448734568E+02  0.00000000000E+00 0. -1.
        -15    1    1    2    0    0 -0.23165934368E+01 -0.90838055117E+00 -0.11504951175E+03  0.11509013703E+03  0.17770000000E+01 0. -1.
         15    1    1    2    0    0 -0.33323261625E+01  0.46797281672E+01 -0.25669700377E+02  0.26364663848E+02  0.17770000000E+01 0. -1.
</event>
<event>
 6    1  0.1108180E-002  0.1829019E+03  0.7546771E-02  0.1068135E+00
        -11   -1    0    0    0    0  0.00000000000E+00  0.00000000000E+00  0.18250000000E+03  0.18250000000E+03  0.00000000000E+00 0.  1.
         11   -1    0    0    0    0 -0.00000000000E+00 -0.00000000000E+00 -0.18250000000E+03  0.18250000000E+03  0.00000000000E+00 0. -1.
        -11    1    1    2    0    0 -0.35745226209E+01 -0.98897634480E+00  0.18206037657E+03  0.18209814936E+03  0.00000000000E+00 0.  1.
         11    1    1    2    0    0 -0.94239486583E+00 -0.18509112634E+01 -0.58410047660E+02  0.58446964405E+02  0.00000000000E+00 0. -1.
        -15    1    1    2    0    0  0.63709367735E+01  0.22757631085E+01 -0.31508561311E+02  0.32275611505E+02  0.17770000000E+01 0.  1.
         15    1    1    2    0    0 -0.18540192868E+01  0.56412449973E+00 -0.92141767597E+02  0.92179274725E+02  0.17770000000E+01 0. -1.
</event>
<event>
 6    1  0.1108180E-002  0.1836810E+03  0.7546771E-02  0.1067519E+00
        -11   -1    0    0    0    0  0.00000000000E+00  0.00000000000E+00  0.18250000000E+03  0.18250000000E+03  0.00000000000E+00 0. -1.
         11   -1    0    0    0    0 -0.00000000000E+00 -0.00000000000E+00 -0.18250000000E+03  0.18250000000E+03  0.00000000000E+00 0.  1.
        -11    1    1    2    0    0 -0.61529264843E+01 -0.82506046561E+01  0.12414906019E+03  0.12457495787E+03  0.00000000000E+00 0. -1.
         11    1    1    2    0    0  0.49235023321E+01  0.37521658276E+01 -0.18121331557E+03  0.18131901545E+03  0.00000000000E+00 0.  1.
        -15    1    1    2    0    0 -0.45963829674E+01  0.34175904293E-01  0.75287496384E+01  0.89982056263E+01  0.17770000000E+01 0.  1.
         15    1    1    2    0    0  0.58258071196E+01  0.44642629242E+01  0.49535505745E+02  0.50107821050E+02  0.17770000000E+01 0. -1.
</event>
<event>
 6    1  0.1108180E-002  0.1876859E+03  0.7546771E-02  0.1064400E+00
        -11   -1    0    0    0    0  0.00000000000E+00  0.00000000000E+00  0.18250000000E+03  0.18250000000E+03  0.00000000000E+00 0.  1.
         11   -1    0    0    0    0 -0.00000000000E+00 -0.00000000000E+00 -0.18250000000E+03  0.18250000000E+03  0.00000000000E+00 0. -1.
        -11    1    1    2    0    0  0.10025012756E+01 -0.23035733199E+01  0.17729628541E+03  0.17731408371E+03  0.00000000000E+00 0.  1.
         11    1    1    2    0    0  0.18471427427E+01 -0.19084374590E+01 -0.17213380166E+03  0.17215429052E+03  0.00000000000E+00 0. -1.
        -15    1    1    2    0    0 -0.94902699880E+00  0.57277040604E+00 -0.92424954406E+01  0.94768227351E+01  0.17770000000E+01 0. -1.
         15    1    1    2    0    0 -0.19006170195E+01  0.36392403729E+01  0.40800116839E+01  0.60548030428E+01  0.17770000000E+01 0. -1.
</event>
<event>
 6    1  0.1108180E-002  0.1657135E+03  0.7546771E-02  0.1082662E+00
        -11   -1    0    0    0    0  0.00000000000E+00  0.00000000000E+00  0.18250000000E+03  0.18250000000E+03  0.00000000000E+00 0.  1.
         11   -1    0    0    0    0 -0.00000000000E+00 -0.00000000000E+00 -0.18250000000E+03  0.18250000000E+03  0.00000000000E+00 0.  1.
        -11    1    1    2    0    0  0.13977123747E+02 -0.20720571107E+01  0.16788096295E+03  0.16847454149E+03  0.00000000000E+00 0.  1.
         11    1    1    2    0    0  0.96305228835E+01 -0.59964973893E+01 -0.16352568329E+03  0.16391874221E+03  0.00000000000E+00 0.  1.
        -15    1    1    2    0    0 -0.47391272093E+01 -0.53848886967E+01 -0.56898931858E+01  0.93267875738E+01  0.17770000000E+01 0. -1.
         15    1    1    2    0    0 -0.18868519422E+02  0.13453443197E+02  0.13346135263E+01  0.23279928721E+02  0.17770000000E+01 0.  1.
</event>
<event>
 6    1  0.1108180E-002  0.1840392E+03  0.7546771E-02  0.1067236E+00
        -11   -1    0    0    0    0  0.00000000000E+00  0.00000000000E+00  0.18250000000E+03  0.18250000000E+03  0.00000000000E+00 0.  1.
         11   -1    0    0    0    0 -0.00000000000E+00 -0.00000000000E+00 -0.18250000000E+03  0.18250000000E+03  0.00000000000E+00 0.  1.
        -11    1    1    2    0    0  0.42866008938E+00  0.39978416452E+01  0.18091610146E+03  0.18096077546E+03  0.00000000000E+00 0.  1.
         11    1    1    2    0    0  0.17683117706E+01 -0.43693399621E+01 -0.16921916905E+03  0.16928480509E+03  0.00000000000E+00 0.  1.
        -15    1    1    2    0    0 -0.22247576356E+01 -0.35385881458E+01 -0.73742786883E+01  0.86607660040E+01  0.17770000000E+01 0. -1.
         15    1    1    2    0    0  0.27785775634E-01  0.39100864627E+01 -0.43226537186E+01  0.60936534498E+01  0.17770000000E+01 0. -1.
</event>
<event>
 6    1  0.1108180E-002  0.1850015E+03  0.7546771E-02  0.1066481E+00
        -11   -1    0    0    0    0  0.00000000000E+00  0.00000000000E+00  0.18250000000E+03  0.18250000000E+03  0.00000000000E+00 0.  1.
         11   -1    0    0    0    0 -0.00000000000E+00 -0.00000000000E+00 -0.18250000000E+03  0.18250000000E+03  0.00000000000E+00 0. -1.
        -11    1    1    2    0    0  0.21151425319E+01 -0.15562331108E+01  0.17732349650E+03  0.17734293925E+03  0.00000000000E+00 0.  1.
         11    1    1    2    0    0 -0.20739564013E+01 -0.17706678393E+01 -0.17997779196E+03  0.17999845044E+03  0.00000000000E+00 0. -1.
        -15    1    1    2    0    0 -0.15845597909E+01  0.12173223646E+00  0.28024940215E+01  0.36793138231E+01  0.17770000000E+01 0. -1.
         15    1    1    2    0    0  0.15433736603E+01  0.32051687137E+01 -0.14819856374E+00  0.39792964897E+01  0.17770000000E+01 0.  1.
</event>
<event>
 6    1  0.1108180E-002  0.1826494E+03  0.7546771E-02  0.1068336E+00
        -11   -1    0    0    0    0  0.00000000000E+00  0.00000000000E+00  0.18250000000E+03  0.18250000000E+03  0.00000000000E+00 0.  1.
         11   -1    0    0    0    0 -0.00000000000E+00 -0.00000000000E+00 -0.18250000000E+03  0.18250000000E+03  0.00000000000E+00 0.  1.
        -11    1    1    2    0    0  0.12282381010E+01 -0.21725400972E+01  0.18233347881E+03  0.18235055798E+03  0.00000000000E+00 0.  1.
         11    1    1    2    0    0 -0.14563754175E+01 -0.22660023269E+01 -0.11795589130E+03  0.11798664369E+03  0.00000000000E+00 0.  1.
        -15    1    1    2    0    0  0.10419892608E+01  0.29734745926E+01 -0.36930986133E+02  0.37107718315E+02  0.17770000000E+01 0.  1.
         15    1    1    2    0    0 -0.81385194430E+00  0.14650678315E+01 -0.27446601376E+02  0.27555080019E+02  0.17770000000E+01 0. -1.
</event>
<event>
 6    1  0.1108180E-002  0.1873844E+03  0.7546771E-02  0.1064632E+00
        -11   -1    0    0    0    0  0.00000000000E+00  0.00000000000E+00  0.18250000000E+03  0.18250000000E+03  0.00000000000E+00 0.  1.
         11   -1    0    0    0    0 -0.00000000000E+00 -0.00000000000E+00 -0.18250000000E+03  0.18250000000E+03  0.00000000000E+00 0. -1.
        -11    1    1    2    0    0 -0.52835021996E+00 -0.40248636593E+01  0.17756918722E+03  0.17761558189E+03  0.00000000000E+00 0.  1.
         11    1    1    2    0    0 -0.12971458591E+01  0.31023322671E+01 -0.16306867323E+03  0.16310333915E+03  0.00000000000E+00 0. -1.
        -15    1    1    2    0    0 -0.26501948995E+01  0.57986731407E+01  0.15769921465E+01  0.68038795130E+01  0.17770000000E+01 0. -1.
         15    1    1    2    0    0  0.44756909786E+01 -0.48761417484E+01 -0.16077506133E+02  0.17477199448E+02  0.17770000000E+01 0. -1.
</event>
<event>
 6    1  0.1108180E-002  0.1825925E+03  0.7546771E-02  0.1068381E+00
        -11   -1    0    0    0    0  0.00000000000E+00  0.00000000000E+00  0.18250000000E+03  0.18250000000E+03  0.00000000000E+00 0.  1.
         11   -1    0    0    0    0 -0.00000000000E+00 -0.00000000000E+00 -0.18250000000E+03  0.18250000000E+03  0.00000000000E+00 0. -1.
        -11    1    1    2    0    0 -0.21827154875E+01 -0.42780390948E+01  0.18234426608E+03  0.18240750324E+03  0.00000000000E+00 0.  1.
         11    1    1    2    0    0 -0.88465649364E+00 -0.27279978754E+00 -0.21590996103E+02  0.21610834078E+02  0.00000000000E+00 0. -1.
        -15    1    1    2    0    0  0.43513843767E+01  0.31997551550E+01 -0.88469821571E+02  0.88652354942E+02  0.17770000000E+01 0. -1.
         15    1    1    2    0    0 -0.12840123955E+01  0.13510837274E+01 -0.72283448409E+02  0.72329307738E+02  0.17770000000E+01 0.  1.
</event>
<event>
 6    1  0.1108180E-002  0.1867072E+03  0.7546771E-02  0.1065154E+00
        -11   -1    0    0    0    0  0.00000000000E+00  0.00000000000E+00  0.18250000000E+03  0.18250000000E+03  0.00000000000E+00 0. -1.
         11   -1    0    0    0    0 -0.00000000000E+00 -0.00000000000E+00 -0.18250000000E+03  0.18250000000E+03  0.00000000000E+00 0. -1.
        -11    1    1    2    0    0  0.25103643121E+01  0.26357339115E+01  0.17825562708E+03  0.17829278619E+03  0.00000000000E+00 0. -1.
         11    1    1    2    0    0 -0.63286755314E+01  0.33660134422E+01 -0.13703442442E+03  0.13722177545E+03  0.00000000000E+00 0. -1.
        -15    1    1    2    0    0 -0.11971679019E+01 -0.47531791870E+01  0.22452690497E+01  0.56766967045E+01  0.17770000000E+01 0.  1.
         15    1    1    2    0    0  0.50154791212E+01 -0.12485681667E+01 -0.43466471708E+02  0.43808741651E+02  0.17770000000E+01 0. -1.
</event>
<event>
 6    1  0.1108180E-002  0.1904564E+03  0.7546771E-02  0.1062292E+00
        -11   -1    0    0    0    0  0.00000000000E+00  0.00000000000E+00  0.18250000000E+03  0.18250000000E+03  0.00000000000E+00 0. -1.
         11   -1    0    0    0    0 -0.00000000000E+00 -0.00000000000E+00 -0.18250000000E+03  0.18250000000E+03  0.00000000000E+00 0.  1.
        -11    1    1    2    0    0  0.14697669725E+01 -0.48977848451E+01  0.17446863700E+03  0.17454355848E+03  0.00000000000E+00 0. -1.
         11    1    1    2    0    0 -0.38147966494E+01 -0.10226466200E+02 -0.15957733346E+03  0.15995017549E+03  0.00000000000E+00 0.  1.
        -15    1    1    2    0    0  0.25038213233E+01  0.68936841569E+01  0.48999182660E+01  0.89977180711E+01  0.17770000000E+01 0. -1.
         15    1    1    2    0    0 -0.15879164641E+00  0.82305668881E+01 -0.19791221804E+02  0.21508547965E+02  0.17770000000E+01 0.  1.
</event>
<event>
 6    1  0.1108180E-002  0.1835747E+03  0.7546771E-02  0.1067603E+00
        -11   -1    0    0    0    0  0.00000000000E+00  0.00000000000E+00  0.18250000000E+03  0.18250000000E+03  0.00000000000E+00 0.  1.
         11   -1    0    0    0    0 -0.00000000000E+00 -0.00000000000E+00 -0.18250000000E+03  0.18250000000E+03  0.00000000000E+00 0.  1.
        -11    1    1    2    0    0  0.34210310468E+01 -0.29353275643E+01  0.18136929302E+03  0.18142530157E+03  0.00000000000E+00 0.  1.
         11    1    1    2    0    0  0.55997820442E+00  0.34525173090E+01 -0.79695290187E+02  0.79772004672E+02  0.00000000000E+00 0.  1.
        -15    1    1    2    0    0 -0.10584594651E+02  0.33251874992E+01 -0.37386819376E+02  0.39038730869E+02  0.17770000000E+01 0.  1.
         15    1    1    2    0    0  0.66035853996E+01 -0.38423772439E+01 -0.64287183455E+02  0.64763962885E+02  0.17770000000E+01 0.  1.
</event>
<event>
 6    1  0.1108180E-002  0.1997570E+03  0.7546771E-02  0.1055492E+00
        -11   -1    0    0    0    0  0.00000000000E+00  0.00000000000E+00  0.18250000000E+03  0.18250000000E+03  0.00000000000E+00 0.  1.
         11   -1    0    0    0    0 -0.00000000000E+00 -0.00000000000E+00 -0.18250000000E+03  0.18250000000E+03  0.00000000000E+00 0. -1.
        -11    1    1    2    0    0 -0.15155455618E+01 -0.21467535506E+01  0.14279313845E+03  0.14281731623E+03  0.00000000000E+00 0.  1.
         11    1    1    2    0    0 -0.87335710566E+01 -0.15132035365E+02 -0.16431670882E+03  0.16524295614E+03  0.00000000000E+00 0. -1.
        -15    1    1    2    0    0 -0.36007072300E+01  0.28839573576E+01  0.33312121618E+02  0.33676957676E+02  0.17770000000E+01 0.  1.
         15    1    1    2    0    0  0.13849823848E+02  0.14394831558E+02 -0.11788551247E+02  0.23262769949E+02  0.17770000000E+01 0. -1.
</event>
<event>
 6    1  0.1188298E-002  0.1840310E+03  0.7546771E-02  0.1067243E+00
        -11   -1    0    0    0    0  0.00000000000E+00  0.00000000000E+00  0.18250000000E+03  0.18250000000E+03  0.00000000000E+00 0. -1.
         11   -1    0    0    0    0 -0.00000000000E+00 -0.00000000000E+00 -0.18250000000E+03  0.18250000000E+03  0.00000000000E+00 0. -1.
        -11    1    1    2    0    0  0.51343028523E+00 -0.69898653884E+01  0.18083318256E+03  0.18096895243E+03  0.00000000000E+00 0. -1.
         11    1    1    2    0    0  0.16085043501E+01 -0.72293506236E-01 -0.84948439794E+02  0.84963697754E+02  0.00000000000E+00 0. -1.
        -15    1    1    2    0    0 -0.14989659075E+01  0.41474801066E+01 -0.20653557194E+01  0.51838126195E+01  0.17770000000E+01 0.  1.
         15    1    1    2    0    0 -0.62296872782E+00  0.29146787880E+01 -0.93819387044E+02  0.93883537198E+02  0.17770000000E+01 0. -1.
</event>
<event>
 6    1  0.1108180E-002  0.1563071E+03  0.7546771E-02  0.1091456E+00
        -11   -1    0    0    0    0  0.00000000000E+00  0.00000000000E+00  0.18250000000E+03  0.18250000000E+03  0.00000000000E+00 0. -1.
         11   -1    0    0    0    0 -0.00000000000E+00 -0.00000000000E+00 -0.18250000000E+03  0.18250000000E+03  0.00000000000E+00 0.  1.
        -11    1    1    2    0    0  0.19308121933E+01 -0.49516616947E+01  0.15732082477E+03  0.15741057428E+03  0.00000000000E+00 0. -1.
         11    1    1    2    0    0 -0.46058015262E+00 -0.15074892842E+02 -0.24881836890E+02  0.29095881758E+02  0.00000000000E+00 0.  1.
        -15    1    1    2    0    0 -0.33183913518E+01  0.51462868220E+01  0.22211058247E+02  0.23108111707E+02  0.17770000000E+01 0. -1.
         15    1    1    2    0    0  0.18481593111E+01  0.14880267715E+02 -0.15465004613E+03  0.15538543225E+03  0.17770000000E+01 0.  1.
</event>
<event>
 6    1  0.1108180E-002  0.1926649E+03  0.7546771E-02  0.1060640E+00
        -11   -1    0    0    0    0  0.00000000000E+00  0.00000000000E+00  0.18250000000E+03  0.18250000000E+03  0.00000000000E+00 0.  1.
         11   -1    0    0    0    0 -0.00000000000E+00 -0.00000000000E+00 -0.18250000000E+03  0.18250000000E+03  0.00000000000E+00 0. -1.
        -11    1    1    2    0    0  0.16001195680E+00 -0.98061658954E+00  0.69528160373E+02  0.69535259384E+02  0.00000000000E+00 0.  1.
         11    1    1    2    0    0  0.37217704666E+01  0.44427643049E+01 -0.17223765399E+03  0.17233513624E+03  0.00000000000E+00 0. -1.
        -15    1    1    2    0    0  0.85810669103E+00 -0.56880696818E+00  0.11207696698E+03  0.11209578112E+03  0.17770000000E+01 0.  1.
         15    1    1    2    0    0 -0.47398891145E+01 -0.28933407472E+01 -0.93674733640E+01  0.11033823260E+02  0.17770000000E+01 0.  1.
</event>
<event>
 6    1  0.1108180E-002  0.1868066E+03  0.7546771E-02  0.1065077E+00
        -11   -1    0    0    0    0  0.00000000000E+00  0.00000000000E+00  0.18250000000E+03  0.18250000000E+03  0.00000000000E+00 0.  1.
         11   -1    0    0    0    0 -0.00000000000E+00 -0.00000000000E+00 -0.18250000000E+03  0.18250000000E+03  0.00000000000E+00 0. -1.
        -11    1    1    2    0    0 -0.27595380105E+01  0.25078579034E+00  0.17386590291E+03  0.17388798158E+03  0.00000000000E+00 0.  1.
         11    1    1    2    0    0 -0.29713411020E+01  0.88410291729E+00 -0.17816638953E+03  0.17819335808E+03  0.00000000000E+00 0. -1.
        -15    1    1    2    0    0  0.25721682403E+01 -0.14677070104E+01 -0.31196286201E+01  0.46540332027E+01  0.17770000000E+01 0. -1.
         15    1    1    2    0    0  0.31587108722E+01  0.33281830275E+00  0.74201152430E+01  0.82646271311E+01  0.17770000000E+01 0.  1.
</event>
<event>
 6    1  0.1108180E-002  0.1846083E+03  0.7546771E-02  0.1066789E+00
        -11   -1    0    0    0    0  0.00000000000E+00  0.00000000000E+00  0.18250000000E+03  0.18250000000E+03  0.00000000000E+00 0. -1.
         11   -1    0    0    0    0 -0.00000000000E+00 -0.00000000000E+00 -0.18250000000E+03  0.18250000000E+03  0.00000000000E+00 0.  1.
        -11    1    1    2    0    0 -0.62445163230E+01 -0.45054903808E+01  0.15936385649E+03  0.15954977964E+03  0.00000000000E+00 0. -1.
         11    1    1    2    0    0  0.21546521700E+01 -0.20010485267E+01 -0.18036773835E+03  0.18039170645E+03  0.00000000000E+00 0.  1.
        -15    1    1    2    0    0 -0.14055265459E+01  0.29523022085E+01  0.16507387678E+02  0.16921677521E+02  0.17770000000E+01 0.  1.
         15    1    1    2    0    0  0.54953906988E+01  0.35542366990E+01  0.44964941803E+01  0.81368363852E+01  0.17770000000E+01 0. -1.
</event>
<event>
 6    1  0.1108180E-002  0.1874754E+03  0.7546771E-02  0.1064562E+00
        -11   -1    0    0    0    0  0.00000000000E+00  0.00000000000E+00  0.18250000000E+03  0.18250000000E+03  0.00000000000E+00 0. -1.
         11   -1    0    0    0    0 -0.00000000000E+00 -0.00000000000E+00 -0.18250000000E+03  0.18250000000E+03  0.00000000000E+00 0.  1.
        -11    1    1    2    0    0  0.12551778813E+01 -0.57332433574E+01  0.15299167393E+03  0.15310420583E+03  0.00000000000E+00 0. -1.
         11    1    1    2    0    0  0.23452253201E+01  0.24397043577E+01 -0.17749230957E+03  0.17752456786E+03  0.00000000000E+00 0.  1.
        -15    1    1    2    0    0 -0.43170948166E+01  0.11120559748E+02  0.23283330251E+02  0.26221658097E+02  0.17770000000E+01 0.  1.
         15    1    1    2    0    0  0.71669161511E+00 -0.78270207481E+01  0.12173053874E+01  0.81495682136E+01  0.17770000000E+01 0. -1.
</event>
<event>
 6    1  0.1108180E-002  0.1838712E+03  0.7546771E-02  0.1067369E+00
        -11   -1    0    0    0    0  0.00000000000E+00  0.00000000000E+00  0.18250000000E+03  0.18250000000E+03  0.00000000000E+00 0.  1.
         11   -1    0    0    0    0 -0.00000000000E+00 -0.00000000000E+00 -0.18250000000E+03  0.18250000000E+03  0.00000000000E+00 0.  1.
        -11    1    1    2    0    0 -0.10396052737E+01 -0.23040447285E+01  0.11438569990E+03  0.11441362569E+03  0.00000000000E+00 0.  1.
         11    1    1    2    0    0  0.46553272124E+01  0.22600791329E+01 -0.18105482279E+03  0.18112876327E+03  0.00000000000E+00 0.  1.
        -15    1    1    2    0    0 -0.10476786043E+02 -0.27528272206E+01  0.28616665777E+02  0.30649835117E+02  0.17770000000E+01 0. -1.
         15    1    1    2    0    0  0.68610641048E+01  0.27967928162E+01  0.38052457110E+02  0.38807775919E+02  0.17770000000E+01 0.  1.
</event>
<event>
 6    1  0.1108180E-002  0.1862785E+03  0.7546771E-02  0.1065486E+00
        -11   -1    0    0    0    0  0.00000000000E+00  0.00000000000E+00  0.18250000000E+03  0.18250000000E+03  0.00000000000E+00 0. -1.
         11   -1    0    0    0    0 -0.00000000000E+00 -0.00000000000E+00 -0.18250000000E+03  0.18250000000E+03  0.00000000000E+00 0. -1.
        -11    1    1    2    0    0  0.33422182048E+01  0.47121555976E+00  0.97082765646E+02  0.97141421917E+02  0.00000000000E+00 0. -1.
         11    1    1    2    0    0  0.10852760929E+02  0.43304670793E+01 -0.17833914665E+03  0.17872153366E+03  0.00000000000E+00 0. -1.
        -15    1    1    2    0    0 -0.66645502828E+00  0.30915397163E+01  0.69191495699E+02  0.69286525286E+02  0.17770000000E+01 0.  1.
         15    1    1    2    0    0 -0.13528524106E+02 -0.78932223553E+01  0.12064885306E+02  0.19850519139E+02  0.17770000000E+01 0. -1.
</event>
<event>
 6    1  0.1108180E-002  0.1853645E+03  0.7546771E-02  0.1066197E+00
        -11   -1    0    0    0    0  0.00000000000E+00  0.00000000000E+00  0.18250000000E+03  0.18250000000E+03  0.00000000000E+00 0. -1.
         11   -1    0    0    0    0 -0.00000000000E+00 -0.00000000000E+00 -0.18250000000E+03  0.18250000000E+03  0.00000000000E+00 0.  1.
        -11    1    1    2    0    0 -0.41155354325E+01 -0.87054989018E+00  0.17249598987E+03  0.17254727471E+03  0.00000000000E+00 0. -1.
         11    1    1    2    0    0 -0.32339651866E+01  0.24583101835E+01 -0.17958951808E+03  0.17963545536E+03  0.00000000000E+00 0.  1.
        -15    1    1    2    0    0  0.62378378691E+01  0.44368144507E+00  0.74372479770E+01  0.98781506861E+01  0.17770000000E+01 0. -1.
         15    1    1    2    0    0  0.11116627500E+01 -0.20314417384E+01 -0.34371977314E+00  0.29391192369E+01  0.17770000000E+01 0.  1.
</event>
<event>
 6    1  0.1108180E-002  0.1840629E+03  0.7546771E-02  0.1067218E+00
        -11   -1    0    0    0    0  0.00000000000E+00  0.00000000000E+00  0.18250000000E+03  0.18250000000E+03  0.00000000000E+00 0.  1.
         11   -1    0    0    0    0 -0.00000000000E+00 -0.00000000000E+00 -0.18250000000E+03  0.18250000000E+03  0.00000000000E+00 0. -1.
        -11    1    1    2    0    0 -0.25440850226E+01 -0.43226118252E+00  0.18091871521E+03  0.18093711817E+03  0.00000000000E+00 0.  1.
         11    1    1    2    0    0  0.20121265036E+01 -0.47208822384E+01 -0.11625579048E+03  0.11636900018E+03  0.00000000000E+00 0. -1.
        -15    1    1    2    0    0  0.16806150320E+01 -0.67944941503E+01 -0.33111539212E+02  0.33889841777E+02  0.17770000000E+01 0.  1.
         15    1    1    2    0    0 -0.11486565129E+01  0.11947637571E+02 -0.31551385515E+02  0.33804039880E+02  0.17770000000E+01 0. -1.
</event>
<event>
 6    1  0.1108180E-002  0.1851614E+03  0.7546771E-02  0.1066356E+00
        -11   -1    0    0    0    0  0.00000000000E+00  0.00000000000E+00  0.18250000000E+03  0.18250000000E+03  0.00000000000E+00 0. -1.
         11   -1    0    0    0    0 -0.00000000000E+00 -0.00000000000E+00 -0.18250000000E+03  0.18250000000E+03  0.00000000000E+00 0.  1.
        -11    1    1    2    0    0 -0.28702313571E+01 -0.14526203005E+01  0.16647321261E+03  0.16650429079E+03  0.00000000000E+00 0. -1.
         11    1    1    2    0    0 -0.72249296437E-01  0.35921669719E+01 -0.17980266607E+03  0.17983855985E+03  0.00000000000E+00 0.  1.
        -15    1    1    2    0    0 -0.20745291934E+01 -0.36475119471E+01  0.37662422787E+00  0.45724817755E+01  0.17770000000E+01 0. -1.
         15    1    1    2    0    0  0.50170098469E+01  0.15079652757E+01  0.12952829230E+02  0.14084667591E+02  0.17770000000E+01 0. -1.
</event>
<event>
 6    1  0.1108180E-002  0.1838661E+03  0.7546771E-02  0.1067373E+00
        -11   -1    0    0    0    0  0.00000000000E+00  0.00000000000E+00  0.18250000000E+03  0.18250000000E+03  0.00000000000E+00 0.  1.
         11   -1    0    0    0    0 -0.00000000000E+00 -0.00000000000E+00 -0.18250000000E+03  0.18250000000E+03  0.00000000000E+00 0.  1.
        -11    1    1    2    0    0 -0.13435710540E+01 -0.16551816132E+01  0.15636695789E+03  0.15638148973E+03  0.00000000000E+00 0.  1.
         11    1    1    2    0    0  0.50020642828E+01  0.10723862740E+01 -0.18106164055E+03  0.18113389616E+03  0.00000000000E+00 0.  1.
        -15    1    1    2    0    0 -0.19691025156E+00  0.45897444886E+01  0.18496599291E+02  0.19141223641E+02  0.17770000000E+01 0.  1.
         15    1    1    2    0    0 -0.34615829773E+01 -0.40069491494E+01  0.61980833679E+01  0.83433904757E+01  0.17770000000E+01 0. -1.
</event>
<event>
 6    1  0.1108180E-002  0.1825878E+03  0.7546771E-02  0.1068385E+00
        -11   -1    0    0    0    0  0.00000000000E+00  0.00000000000E+00  0.18250000000E+03  0.18250000000E+03  0.00000000000E+00 0.  1.
         11   -1    0    0    0    0 -0.00000000000E+00 -0.00000000000E+00 -0.18250000000E+03  0.18250000000E+03  0.00000000000E+00 0. -1.
        -11    1    1    2    0    0 -0.18083786278E+01  0.91053962635E+00  0.70010752346E+02  0.70040022557E+02  0.00000000000E+00 0.  1.
         11    1    1    2    0    0  0.42061288497E+01 -0.32999945276E+01 -0.18233382213E+03  0.18241218210E+03  0.00000000000E+00 0. -1.
        -15    1    1    2    0    0 -0.32088982705E+01  0.69454749327E+00  0.89651502841E+02  0.89729198787E+02  0.17770000000E+01 0. -1.
         15    1    1    2    0    0  0.81114804860E+00  0.16949074080E+01  0.22671566945E+02  0.22818596561E+02  0.17770000000E+01 0.  1.
</event>
<event>
 6    1  0.1108180E-002  0.1840946E+03  0.7546771E-02  0.1067193E+00
        -11   -1    0    0    0    0  0.00000000000E+00  0.00000000000E+00  0.18250000000E+03  0.18250000000E+03  0.00000000000E+00 0. -1.
         11   -1    0    0    0    0 -0.00000000000E+00 -0.00000000000E+00 -0.18250000000E+03  0.18250000000E+03  0.00000000000E+00 0.  1.
        -11    1    1    2    0    0  0.20292882714E+01 -0.21919520893E+01  0.14991954540E+03  0.14994930063E+03  0.00000000000E+00 0. -1.
         11    1    1    2    0    0  0.55810662460E+00  0.30248102700E+01 -0.18087923763E+03  0.18090538843E+03  0.00000000000E+00 0.  1.
        -15    1    1    2    0    0  0.20672113533E+01 -0.35794804837E+01  0.25502242887E+01  0.51717904284E+01  0.17770000000E+01 0.  1.
         15    1    1    2    0    0 -0.46546062494E+01  0.27466223031E+01  0.28409467933E+02  0.28973520508E+02  0.17770000000E+01 0. -1.
</event>
<event>
 6    1  0.1108180E-002  0.1898979E+03  0.7546771E-02  0.1062714E+00
        -11   -1    0    0    0    0  0.00000000000E+00  0.00000000000E+00  0.18250000000E+03  0.18250000000E+03  0.00000000000E+00 0.  1.
         11   -1    0    0    0    0 -0.00000000000E+00 -0.00000000000E+00 -0.18250000000E+03  0.18250000000E+03  0.00000000000E+00 0. -1.
        -11    1    1    2    0    0 -0.48006680430E+01 -0.18385696545E+01  0.17502661435E+03  0.17510209160E+03  0.00000000000E+00 0.  1.
         11    1    1    2    0    0  0.62624541931E+01  0.19604712991E+00 -0.16007712784E+03  0.16019969920E+03  0.00000000000E+00 0. -1.
        -15    1    1    2    0    0  0.55809211404E+01  0.10681399383E+02 -0.13215769461E+02  0.17973682567E+02  0.17770000000E+01 0.  1.
         15    1    1    2    0    0 -0.70427072905E+01 -0.90388768588E+01 -0.17337170466E+01  0.11724526628E+02  0.17770000000E+01 0. -1.
</event>
<event>
 6    1  0.1108180E-002  0.1838319E+03  0.7546771E-02  0.1067400E+00
        -11   -1    0    0    0    0  0.00000000000E+00  0.00000000000E+00  0.18250000000E+03  0.18250000000E+03  0.00000000000E+00 0.  1.
         11   -1    0    0    0    0 -0.00000000000E+00 -0.00000000000E+00 -0.18250000000E+03  0.18250000000E+03  0.00000000000E+00 0. -1.
        -11    1    1    2    0    0 -0.30499633791E+01  0.65811471436E+00  0.17771068146E+03  0.17773807047E+03  0.00000000000E+00 0.  1.
         11    1    1    2    0    0  0.16842240651E+01  0.18649293625E+01 -0.18115066985E+03  0.18116809807E+03  0.00000000000E+00 0. -1.
        -15    1    1    2    0    0 -0.43234233858E-01 -0.11436990403E+01  0.57981297223E+00  0.21917638506E+01  0.17770000000E+01 0. -1.
         15    1    1    2    0    0  0.14089735479E+01 -0.13793450366E+01  0.28601754181E+01  0.39020676071E+01  0.17770000000E+01 0.  1.
</event>
<event>
 6    1  0.1108180E-002  0.1828378E+03  0.7546771E-02  0.1068186E+00
        -11   -1    0    0    0    0  0.00000000000E+00  0.00000000000E+00  0.18250000000E+03  0.18250000000E+03  0.00000000000E+00 0.  1.
         11   -1    0    0    0    0 -0.00000000000E+00 -0.00000000000E+00 -0.18250000000E+03  0.18250000000E+03  0.00000000000E+00 0.  1.
        -11    1    1    2    0    0 -0.27322673151E+01 -0.10424946751E+01  0.18213868409E+03  0.18216215941E+03  0.00000000000E+00 0.  1.
         11    1    1    2    0    0 -0.27006651726E+01 -0.35643022665E+01 -0.97897667054E+02  0.97999750294E+02  0.00000000000E+00 0.  1.
        -15    1    1    2    0    0  0.65518259548E+01  0.32635445375E+01 -0.60746085438E+02  0.61211287940E+02  0.17770000000E+01 0. -1.
         15    1    1    2    0    0 -0.11188934670E+01  0.13432524041E+01 -0.23494931598E+02  0.23626802353E+02  0.17770000000E+01 0. -1.
</event>
<event>
 6    1  0.1108180E-002  0.1886501E+03  0.7546771E-02  0.1063662E+00
        -11   -1    0    0    0    0  0.00000000000E+00  0.00000000000E+00  0.18250000000E+03  0.18250000000E+03  0.00000000000E+00 0. -1.
         11   -1    0    0    0    0 -0.00000000000E+00 -0.00000000000E+00 -0.18250000000E+03  0.18250000000E+03  0.00000000000E+00 0.  1.
        -11    1    1    2    0    0  0.37172634370E+01  0.17045598743E+01  0.16006818091E+03  0.16012041129E+03  0.00000000000E+00 0. -1.
         11    1    1    2    0    0  0.38842103790E+01  0.56725946674E+00 -0.17630616013E+03  0.17634985391E+03  0.00000000000E+00 0.  1.
        -15    1    1    2    0    0 -0.45075956808E+01 -0.25138837297E+01  0.21491902240E+02  0.22174255819E+02  0.17770000000E+01 0. -1.
         15    1    1    2    0    0 -0.30938781352E+01  0.24206438862E+00 -0.52539230188E+01  0.63554789883E+01  0.17770000000E+01 0.  1.
</event>
<event>
 6    1  0.1108180E-002  0.1833621E+03  0.7546771E-02  0.1067771E+00
        -11   -1    0    0    0    0  0.00000000000E+00  0.00000000000E+00  0.18250000000E+03  0.18250000000E+03  0.00000000000E+00 0.  1.
         11   -1    0    0    0    0 -0.00000000000E+00 -0.00000000000E+00 -0.18250000000E+03  0.18250000000E+03  0.00000000000E+00 0. -1.
        -11    1    1    2    0    0 -0.33918567219E+01  0.17415663203E+01  0.13806146709E+03  0.13811410659E+03  0.00000000000E+00 0.  1.
         11    1    1    2    0    0 -0.29848264422E+01  0.54951250207E+00 -0.18161254849E+03  0.18163790607E+03  0.00000000000E+00 0. -1.
        -15    1    1    2    0    0  0.16613131593E+01  0.32396113136E+01  0.86195956334E+01  0.95241902942E+01  0.17770000000E+01 0.  1.
         15    1    1    2    0    0  0.47153700047E+01 -0.55306901359E+01  0.34931485769E+02  0.35723797036E+02  0.17770000000E+01 0.  1.
</event>
<event>
 6    1  0.1108180E-002  0.1662623E+03  0.7546771E-02  0.1082169E+00
        -11   -1    0    0    0    0  0.00000000000E+00  0.00000000000E+00  0.18250000000E+03  0.18250000000E+03  0.00000000000E+00 0. -1.
         11   -1    0    0    0    0 -0.00000000000E+00 -0.00000000000E+00 -0.18250000000E+03  0.18250000000E+03  0.00000000000E+00 0. -1.
        -11    1    1    2    0    0  0.22408974608E+02  0.33922118535E+01  0.17338374857E+03  0.17485878162E+03  0.00000000000E+00 0. -1.
         11    1    1    2    0    0 -0.34976750147E+00  0.51325821499E+00 -0.10777196355E+02  0.10795079091E+02  0.00000000000E+00 0. -1.
        -15    1    1    2    0    0 -0.30891828408E+01 -0.10729091213E+02 -0.15823869332E+03  0.15864204436E+03  0.17770000000E+01 0. -1.
         15    1    1    2    0    0 -0.18970024265E+02  0.68236211448E+01 -0.43678588951E+01  0.20704094921E+02  0.17770000000E+01 0.  1.
</event>
<event>
 6    1  0.1108180E-002  0.1825382E+03  0.7546771E-02  0.1068424E+00
        -11   -1    0    0    0    0  0.00000000000E+00  0.00000000000E+00  0.18250000000E+03  0.18250000000E+03  0.00000000000E+00 0. -1.
         11   -1    0    0    0    0 -0.00000000000E+00 -0.00000000000E+00 -0.18250000000E+03  0.18250000000E+03  0.00000000000E+00 0. -1.
        -11    1    1    2    0    0  0.14512347484E+01  0.27827730994E+01  0.18243476673E+03  0.18246176043E+03  0.00000000000E+00 0. -1.
         11    1    1    2    0    0  0.13759433674E+00  0.59180494643E+00 -0.27976283174E+02  0.27982880222E+02  0.00000000000E+00 0. -1.
        -15    1    1    2    0    0 -0.10558170106E+01 -0.28636148619E+01 -0.10539215422E+03  0.10545131076E+03  0.17770000000E+01 0. -1.
         15    1    1    2    0    0 -0.53301207453E+00 -0.51096318391E+00 -0.49066329330E+02  0.49104048592E+02  0.17770000000E+01 0.  1.
</event>
<event>
 6    1  0.1108180E-002  0.1832766E+03  0.7546771E-02  0.1067838E+00
        -11   -1    0    0    0    0  0.00000000000E+00  0.00000000000E+00  0.18250000000E+03  0.18250000000E+03  0.00000000000E+00 0. -1.
         11   -1    0    0    0    0 -0.00000000000E+00 -0.00000000000E+00 -0.18250000000E+03  0.18250000000E+03  0.00000000000E+00 0. -1.
        -11    1    1    2    0    0 -0.32249350741E+01 -0.53530399272E+01  0.18161595688E+03  0.18172344658E+03  0.00000000000E+00 0. -1.
         11    1    1    2    0    0  0.54060297132E+00  0.15295293974E+01 -0.66827527730E+02  0.66847215157E+02  0.00000000000E+00 0. -1.
        -15    1    1    2    0    0  0.13032897104E+01 -0.19208815515E+01 -0.10369141049E+03  0.10373261149E+03  0.17770000000E+01 0.  1.
         15    1    1    2    0    0  0.13810423924E+01  0.57443920813E+01 -0.11097018665E+02  0.12696726772E+02  0.17770000000E+01 0. -1.
</event>
<event>
 6    1  0.1108180E-002  0.1831120E+03  0.7546771E-02  0.1067969E+00
        -11   -1    0    0    0    0  0.00000000000E+00  0.00000000000E+00  0.18250000000E+03  0.18250000000E+03  0.00000000000E+00 0.  1.
         11   -1    0    0    0    0 -0.00000000000E+00 -0.00000000000E+00 -0.18250000000E+03  0.18250000000E+03  0.00000000000E+00 0. -1.
        -11    1    1    2    0    0 -0.38882007519E+00 -0.17155416579E+01  0.11058198203E+03  0.11059597196E+03  0.00000000000E+00 0.  1.
         11    1    1    2    0    0 -0.28922614211E+01  0.10651874259E+01 -0.18186191698E+03  0.18188803327E+03  0.00000000000E+00 0. -1.
        -15    1    1    2    0    0  0.21762277375E+01  0.14313603542E+01  0.35456832701E+01  0.47449297657E+01  0.17770000000E+01 0. -1.
         15    1    1    2    0    0  0.11048537588E+01 -0.78100612228E+00  0.67734251680E+02  0.67771065006E+02  0.17770000000E+01 0.  1.
</event>
<event>
 6    1  0.1108180E-002  0.1859748E+03  0.7546771E-02  0.1065722E+00
        -11   -1    0    0    0    0  0.00000000000E+00  0.00000000000E+00  0.18250000000E+03  0.18250000000E+03  0.00000000000E+00 0. -1.
         11   -1    0    0    0    0 -0.00000000000E+00 -0.00000000000E+00 -0.18250000000E+03  0.18250000000E+03  0.00000000000E+00 0. -1.
        -11    1    1    2    0    0  0.20763268738E+01  0.54563830414E+01  0.17024347931E+03  0.17034355138E+03  0.00000000000E+00 0. -1.
         11    1    1    2    0    0  0.24302093011E+01 -0.49842226909E+00 -0.17900798578E+03  0.17902517508E+03  0.00000000000E+00 0. -1.
        -15    1    1    2    0    0 -0.48612981366E+00  0.53764960295E+00 -0.19991817913E+01  0.27712535297E+01  0.17770000000E+01 0. -1.
         15    1    1    2    0    0 -0.40204063612E+01 -0.54956103752E+01  0.10763688254E+02  0.12860020006E+02  0.17770000000E+01 0.  1.
</event>
<event>
 6    1  0.1108180E-002  0.1830527E+03  0.7546771E-02  0.1068016E+00
        -11   -1    0    0    0    0  0.00000000000E+00  0.00000000000E+00  0.18250000000E+03  0.18250000000E+03  0.00000000000E+00 0.  1.
         11   -1    0    0    0    0 -0.00000000000E+00 -0.00000000000E+00 -0.18250000000E+03  0.18250000000E+03  0.00000000000E+00 0.  1.
        -11    1    1    2    0    0 -0.28446416972E+01 -0.38562575435E+01  0.18188414812E+03  0.18194726172E+03  0.00000000000E+00 0.  1.
         11    1    1    2    0    0  0.94288430259E+00 -0.74465678345E+00 -0.79369672916E+02  0.79378766199E+02  0.00000000000E+00 0.  1.
        -15    1    1    2    0    0 -0.32668293658E+01 -0.17052715732E+01 -0.69528655201E+02  0.69648917783E+02  0.17770000000E+01 0.  1.
         15    1    1    2    0    0  0.51685867605E+01  0.63061859002E+01 -0.32985820005E+02  0.34025054300E+02  0.17770000000E+01 0.  1.
</event>
<event>
 6    1  0.1108180E-002  0.8649810E+02  0.7546771E-02  0.1189473E+00
        -11   -1    0    0    0    0  0.00000000000E+00  0.00000000000E+00  0.18250000000E+03  0.18250000000E+03  0.00000000000E+00 0.  1.
         11   -1    0    0    0    0 -0.00000000000E+00 -0.00000000000E+00 -0.18250000000E+03  0.18250000000E+03  0.00000000000E+00 0.  1.
        -11    1    1    2    0    0  0.29019375776E+01 -0.43196448298E+02  0.95947107866E+02  0.10526253795E+03  0.00000000000E+00 0.  1.
         11    1    1    2    0    0 -0.26122208137E+02  0.13981164940E+02 -0.10827471167E+03  0.11225531577E+03  0.00000000000E+00 0.  1.
        -15    1    1    2    0    0  0.23223598021E+02 -0.35231645666E+02  0.55609618147E+02  0.69829733787E+02  0.17770000000E+01 0. -1.
         15    1    1    2    0    0 -0.33274616636E-02  0.64446929024E+02 -0.43282014338E+02  0.77652412492E+02  0.17770000000E+01 0.  1.
</event>
<event>
 6    1  0.1108180E-002  0.1844653E+03  0.7546771E-02  0.1066901E+00
        -11   -1    0    0    0    0  0.00000000000E+00  0.00000000000E+00  0.18250000000E+03  0.18250000000E+03  0.00000000000E+00 0. -1.
         11   -1    0    0    0    0 -0.00000000000E+00 -0.00000000000E+00 -0.18250000000E+03  0.18250000000E+03  0.00000000000E+00 0.  1.
        -11    1    1    2    0    0  0.28546348479E+01  0.38739508581E+01  0.15978996018E+03  0.15986240274E+03  0.00000000000E+00 0. -1.
         11    1    1    2    0    0  0.37858902985E+01 -0.15591745502E+00 -0.18049495065E+03  0.18053471823E+03  0.00000000000E+00 0.  1.
        -15    1    1    2    0    0 -0.55489214004E+01 -0.61154992994E+01  0.19416028075E+02  0.21173798327E+02  0.17770000000E+01 0. -1.
         15    1    1    2    0    0 -0.10916037460E+01  0.23974658963E+01  0.12889623953E+01  0.34290807105E+01  0.17770000000E+01 0.  1.
</event>
<event>
 6    1  0.1108180E-002  0.1828511E+03  0.7546771E-02  0.1068176E+00
        -11   -1    0    0    0    0  0.00000000000E+00  0.00000000000E+00  0.18250000000E+03  0.18250000000E+03  0.00000000000E+00 0.  1.
         11   -1    0    0    0    0 -0.00000000000E+00 -0.00000000000E+00 -0.18250000000E+03  0.18250000000E+03  0.00000000000E+00 0.  1.
        -11    1    1    2    0    0 -0.12011079610E+01 -0.22188029092E+01  0.18213146416E+03  0.18214893901E+03  0.00000000000E+00 0.  1.
         11    1    1    2    0    0 -0.73214377191E+00 -0.40819176141E+01 -0.82242206986E+02  0.82346698147E+02  0.00000000000E+00 0.  1.
        -15    1    1    2    0    0  0.12726035978E+01  0.44856120562E+01 -0.92973510152E+02  0.93107312035E+02  0.17770000000E+01 0.  1.
         15    1    1    2    0    0  0.66064813513E+00  0.18151084670E+01 -0.69157470226E+01  0.73970508033E+01  0.17770000000E+01 0. -1.
</event>
<event>
 6    1  0.1108180E-002  0.1835818E+03  0.7546771E-02  0.1067597E+00
        -11   -1    0    0    0    0  0.00000000000E+00  0.00000000000E+00  0.18250000000E+03  0.18250000000E+03  0.00000000000E+00 0. -1.
         11   -1    0    0    0    0 -0.00000000000E+00 -0.00000000000E+00 -0.18250000000E+03  0.18250000000E+03  0.00000000000E+00 0.  1.
        -11    1    1    2    0    0 -0.18727196642E+01  0.22757457453E+01  0.15933136597E+03  0.15935862160E+03  0.00000000000E+00 0. -1.
         11    1    1    2    0    0  0.25947257027E+01 -0.59437719116E+00 -0.18139863081E+03  0.18141816101E+03  0.00000000000E+00 0.  1.
        -15    1    1    2    0    0 -0.18031935809E+01  0.18327853837E+01  0.19239545089E+01  0.36701415920E+01  0.17770000000E+01 0.  1.
         15    1    1    2    0    0  0.10811875425E+01 -0.35141539378E+01  0.20143310331E+02  0.20553075792E+02  0.17770000000E+01 0. -1.
</event>
<event>
 6    1  0.1108180E-002  0.1837252E+03  0.7546771E-02  0.1067484E+00
        -11   -1    0    0    0    0  0.00000000000E+00  0.00000000000E+00  0.18250000000E+03  0.18250000000E+03  0.00000000000E+00 0. -1.
         11   -1    0    0    0    0 -0.00000000000E+00 -0.00000000000E+00 -0.18250000000E+03  0.18250000000E+03  0.00000000000E+00 0. -1.
        -11    1    1    2    0    0  0.10095892883E+01 -0.64401965604E-02  0.43191360008E+02  0.43203158349E+02  0.00000000000E+00 0. -1.
         11    1    1    2    0    0  0.17255245580E+01  0.23342343530E+01 -0.18125156006E+03  0.18127480275E+03  0.00000000000E+00 0. -1.
        -15    1    1    2    0    0  0.61630366489E+01 -0.71549688789E+01  0.21991594258E+02  0.23999261393E+02  0.17770000000E+01 0. -1.
         15    1    1    2    0    0 -0.88981504952E+01  0.48271747224E+01  0.11606860580E+03  0.11652277751E+03  0.17770000000E+01 0.  1.
</event>
<event>
 6    1  0.1108180E-002  0.1848232E+03  0.7546771E-02  0.1066620E+00
        -11   -1    0    0    0    0  0.00000000000E+00  0.00000000000E+00  0.18250000000E+03  0.18250000000E+03  0.00000000000E+00 0. -1.
         11   -1    0    0    0    0 -0.00000000000E+00 -0.00000000000E+00 -0.18250000000E+03  0.18250000000E+03  0.00000000000E+00 0.  1.
        -11    1    1    2    0    0  0.41411091770E+01  0.16595267706E+01  0.18012155283E+03  0.18017679264E+03  0.00000000000E+00 0. -1.
         11    1    1    2    0    0 -0.28223321688E+01  0.10242085051E+00 -0.17312426842E+03  0.17314730250E+03  0.00000000000E+00 0.  1.
        -15    1    1    2    0    0 -0.35653124042E+01  0.17535858951E+01 -0.52417547236E+01  0.68132398764E+01  0.17770000000E+01 0.  1.
         15    1    1    2    0    0  0.22465353959E+01 -0.35155335162E+01 -0.17555296885E+01  0.48626649767E+01  0.17770000000E+01 0. -1.
</event>
<event>
 6    1  0.1108180E-002  0.1827391E+03  0.7546771E-02  0.1068265E+00
        -11   -1    0    0    0    0  0.00000000000E+00  0.00000000000E+00  0.18250000000E+03  0.18250000000E+03  0.00000000000E+00 0. -1.
         11   -1    0    0    0    0 -0.00000000000E+00 -0.00000000000E+00 -0.18250000000E+03  0.18250000000E+03  0.00000000000E+00 0.  1.
        -11    1    1    2    0    0 -0.23872680732E+01 -0.30338334731E+01  0.18222002700E+03  0.18226091581E+03  0.00000000000E+00 0. -1.
         11    1    1    2    0    0  0.47159178995E+01  0.25347453131E+01 -0.13687426355E+03  0.13697893574E+03  0.00000000000E+00 0.  1.
        -15    1    1    2    0    0 -0.33021051141E+01 -0.35612444980E+00 -0.33580369684E+02  0.33790970391E+02  0.17770000000E+01 0.  1.
         15    1    1    2    0    0  0.97345528782E+00  0.85521260984E+00 -0.11765393767E+02  0.11969178055E+02  0.17770000000E+01 0. -1.
</event>
<event>
 6    1  0.1108180E-002  0.1828340E+03  0.7546771E-02  0.1068189E+00
        -11   -1    0    0    0    0  0.00000000000E+00  0.00000000000E+00  0.18250000000E+03  0.18250000000E+03  0.00000000000E+00 0. -1.
         11   -1    0    0    0    0 -0.00000000000E+00 -0.00000000000E+00 -0.18250000000E+03  0.18250000000E+03  0.00000000000E+00 0.  1.
        -11    1    1    2    0    0 -0.61907768101E+01  0.35510733334E+01  0.18202612100E+03  0.18216598082E+03  0.00000000000E+00 0. -1.
         11    1    1    2    0    0  0.27680415424E+00 -0.56098090983E+00 -0.16997964451E+02  0.17009471350E+02  0.00000000000E+00 0.  1.
        -15    1    1    2    0    0  0.60084084346E+01 -0.13858254274E+01 -0.26154528006E+02  0.26930253401E+02  0.17770000000E+01 0.  1.
         15    1    1    2    0    0 -0.94435778746E-01 -0.16042669962E+01 -0.13887362855E+03  0.13889429443E+03  0.17770000000E+01 0.  1.
</event>
<event>
 6    1  0.1108180E-002  0.1829558E+03  0.7546771E-02  0.1068093E+00
        -11   -1    0    0    0    0  0.00000000000E+00  0.00000000000E+00  0.18250000000E+03  0.18250000000E+03  0.00000000000E+00 0.  1.
         11   -1    0    0    0    0 -0.00000000000E+00 -0.00000000000E+00 -0.18250000000E+03  0.18250000000E+03  0.00000000000E+00 0.  1.
        -11    1    1    2    0    0 -0.69275292556E+00 -0.12485692878E+01  0.96337554869E+02  0.96348135997E+02  0.00000000000E+00 0.  1.
         11    1    1    2    0    0  0.22750596848E+01 -0.25714316735E+01 -0.18201180828E+03  0.18204418834E+03  0.00000000000E+00 0.  1.
        -15    1    1    2    0    0 -0.21580693635E+00  0.20900293700E+01  0.81598298476E+02  0.81644686530E+02  0.17770000000E+01 0.  1.
         15    1    1    2    0    0 -0.13664998229E+01  0.17299715914E+01  0.40759549334E+01  0.49629891287E+01  0.17770000000E+01 0. -1.
</event>
<event>
 6    1  0.1108180E-002  0.1826410E+03  0.7546771E-02  0.1068343E+00
        -11   -1    0    0    0    0  0.00000000000E+00  0.00000000000E+00  0.18250000000E+03  0.18250000000E+03  0.00000000000E+00 0.  1.
         11   -1    0    0    0    0 -0.00000000000E+00 -0.00000000000E+00 -0.18250000000E+03  0.18250000000E+03  0.00000000000E+00 0.  1.
        -11    1    1    2    0    0 -0.30011152991E+01  0.25970609031E+01  0.18231577687E+03  0.18235896993E+03  0.00000000000E+00 0.  1.
         11    1    1    2    0    0  0.14100331325E+01  0.50160462556E+00 -0.10846384063E+03  0.10847416525E+03  0.00000000000E+00 0.  1.
        -15    1    1    2    0    0  0.16728719295E+01 -0.61885622857E+00 -0.13186679524E+02  0.13424892156E+02  0.17770000000E+01 0. -1.
         15    1    1    2    0    0 -0.81789762874E-01 -0.24798093001E+01 -0.60665256708E+02  0.60741972672E+02  0.17770000000E+01 0.  1.
</event>
<event>
 6    1  0.1108180E-002  0.1838644E+03  0.7546771E-02  0.1067374E+00
        -11   -1    0    0    0    0  0.00000000000E+00  0.00000000000E+00  0.18250000000E+03  0.18250000000E+03  0.00000000000E+00 0. -1.
         11   -1    0    0    0    0 -0.00000000000E+00 -0.00000000000E+00 -0.18250000000E+03  0.18250000000E+03  0.00000000000E+00 0. -1.
        -11    1    1    2    0    0  0.22780023624E+01 -0.51494405536E+00  0.16766598708E+03  0.16768225215E+03  0.00000000000E+00 0. -1.
         11    1    1    2    0    0  0.68105318891E+00  0.43770541499E+01 -0.18108142721E+03  0.18113560036E+03  0.00000000000E+00 0. -1.
        -15    1    1    2    0    0  0.13985376008E+01 -0.22845397327E+01  0.21373070044E+01  0.38601605462E+01  0.17770000000E+01 0.  1.
         15    1    1    2    0    0 -0.43575931522E+01 -0.15775703618E+01  0.11278133125E+02  0.12321986938E+02  0.17770000000E+01 0. -1.
</event>
<event>
 6    1  0.1108180E-002  0.1768974E+03  0.7546771E-02  0.1073004E+00
        -11   -1    0    0    0    0  0.00000000000E+00  0.00000000000E+00  0.18250000000E+03  0.18250000000E+03  0.00000000000E+00 0. -1.
         11   -1    0    0    0    0 -0.00000000000E+00 -0.00000000000E+00 -0.18250000000E+03  0.18250000000E+03  0.00000000000E+00 0.  1.
        -11    1    1    2    0    0  0.56652683206E+01  0.13338398332E+01  0.17614532027E+03  0.17624144872E+03  0.00000000000E+00 0. -1.
         11    1    1    2    0    0  0.33734619317E+01  0.18796194795E+01 -0.17764455418E+03  0.17768652410E+03  0.00000000000E+00 0.  1.
        -15    1    1    2    0    0 -0.96436708439E+00 -0.58541642779E+00 -0.51301139534E+00  0.21664777772E+01  0.17770000000E+01 0. -1.
         15    1    1    2    0    0 -0.80743631678E+01 -0.26280428849E+01  0.20122453058E+01  0.89055494014E+01  0.17770000000E+01 0.  1.
</event>
<event>
 6    1  0.1108180E-002  0.1747510E+03  0.7546771E-02  0.1074796E+00
        -11   -1    0    0    0    0  0.00000000000E+00  0.00000000000E+00  0.18250000000E+03  0.18250000000E+03  0.00000000000E+00 0. -1.
         11   -1    0    0    0    0 -0.00000000000E+00 -0.00000000000E+00 -0.18250000000E+03  0.18250000000E+03  0.00000000000E+00 0.  1.
        -11    1    1    2    0    0 -0.35803716341E+01  0.94284600242E+01  0.17253719970E+03  0.17283171064E+03  0.00000000000E+00 0. -1.
         11    1    1    2    0    0 -0.20153106972E+01  0.14837726156E+01 -0.17689484634E+03  0.17691254823E+03  0.00000000000E+00 0.  1.
        -15    1    1    2    0    0  0.31714813334E+01 -0.10843258655E+02  0.43871725141E+01  0.12249063792E+02  0.17770000000E+01 0. -1.
         15    1    1    2    0    0  0.24242009978E+01 -0.68973984856E-01 -0.29525878510E-01  0.30066773465E+01  0.17770000000E+01 0.  1.
</event>
<event>
 6    1  0.1108180E-002  0.1841721E+03  0.7546771E-02  0.1067132E+00
        -11   -1    0    0    0    0  0.00000000000E+00  0.00000000000E+00  0.18250000000E+03  0.18250000000E+03  0.00000000000E+00 0.  1.
         11   -1    0    0    0    0 -0.00000000000E+00 -0.00000000000E+00 -0.18250000000E+03  0.18250000000E+03  0.00000000000E+00 0. -1.
        -11    1    1    2    0    0 -0.37671073684E+01  0.22660788897E+01  0.18077443151E+03  0.18082787755E+03  0.00000000000E+00 0.  1.
         11    1    1    2    0    0 -0.32687497109E+01  0.24109106674E+01 -0.15536411428E+03  0.15541719732E+03  0.00000000000E+00 0. -1.
        -15    1    1    2    0    0  0.19340972454E+01  0.27881191974E+01 -0.11023376807E+02  0.11669914569E+02  0.17770000000E+01 0. -1.
         15    1    1    2    0    0  0.51017598338E+01 -0.74651087544E+01 -0.14386940425E+02  0.17085010562E+02  0.17770000000E+01 0. -1.
</event>
<event>
 6    1  0.1108180E-002  0.2048136E+03  0.7546771E-02  0.1051962E+00
        -11   -1    0    0    0    0  0.00000000000E+00  0.00000000000E+00  0.18250000000E+03  0.18250000000E+03  0.00000000000E+00 0.  1.
         11   -1    0    0    0    0 -0.00000000000E+00 -0.00000000000E+00 -0.18250000000E+03  0.18250000000E+03  0.00000000000E+00 0.  1.
        -11    1    1    2    0    0  0.11457486393E+02 -0.35239127793E+02  0.15584164713E+03  0.16018641984E+03  0.00000000000E+00 0.  1.
         11    1    1    2    0    0  0.80823626014E+00  0.80504253889E+01 -0.97532889928E+02  0.97867906959E+02  0.00000000000E+00 0.  1.
        -15    1    1    2    0    0 -0.40267878568E+02  0.36405669370E+02 -0.18501154895E+02  0.57378787614E+02  0.17770000000E+01 0. -1.
         15    1    1    2    0    0  0.28002155915E+02 -0.92169669659E+01 -0.39807602308E+02  0.49566885583E+02  0.17770000000E+01 0.  1.
</event>
<event>
 6    1  0.1108180E-002  0.1828577E+03  0.7546771E-02  0.1068170E+00
        -11   -1    0    0    0    0  0.00000000000E+00  0.00000000000E+00  0.18250000000E+03  0.18250000000E+03  0.00000000000E+00 0. -1.
         11   -1    0    0    0    0 -0.00000000000E+00 -0.00000000000E+00 -0.18250000000E+03  0.18250000000E+03  0.00000000000E+00 0.  1.
        -11    1    1    2    0    0  0.16615269365E+01 -0.24798659119E+01  0.18211788363E+03  0.18214234528E+03  0.00000000000E+00 0. -1.
         11    1    1    2    0    0  0.10624117677E+00 -0.11684434568E+01 -0.70120392448E+02  0.70130207360E+02  0.00000000000E+00 0.  1.
        -15    1    1    2    0    0 -0.94641676488E+00  0.19394931016E+01 -0.10747668390E+03  0.10751303479E+03  0.17770000000E+01 0.  1.
         15    1    1    2    0    0 -0.82135134842E+00  0.17088162670E+01 -0.45208072766E+01  0.52144125752E+01  0.17770000000E+01 0. -1.
</event>
<event>
 6    1  0.1108180E-002  0.1831840E+03  0.7546771E-02  0.1067912E+00
        -11   -1    0    0    0    0  0.00000000000E+00  0.00000000000E+00  0.18250000000E+03  0.18250000000E+03  0.00000000000E+00 0.  1.
         11   -1    0    0    0    0 -0.00000000000E+00 -0.00000000000E+00 -0.18250000000E+03  0.18250000000E+03  0.00000000000E+00 0.  1.
        -11    1    1    2    0    0 -0.45513836482E+01  0.86409155404E+00  0.18175696225E+03  0.18181599235E+03  0.00000000000E+00 0.  1.
         11    1    1    2    0    0  0.13753568979E+01 -0.20439912307E+01 -0.16442879839E+03  0.16444725369E+03  0.00000000000E+00 0.  1.
        -15    1    1    2    0    0  0.36985809045E+01  0.14077360668E+00 -0.15142248722E+02  0.15689000710E+02  0.17770000000E+01 0. -1.
         15    1    1    2    0    0 -0.52255415424E+00  0.10391260700E+01 -0.21859151419E+01  0.30477532448E+01  0.17770000000E+01 0.  1.
</event>
<event>
 6    1  0.1108180E-002  0.1843059E+03  0.7546771E-02  0.1067026E+00
        -11   -1    0    0    0    0  0.00000000000E+00  0.00000000000E+00  0.18250000000E+03  0.18250000000E+03  0.00000000000E+00 0. -1.
         11   -1    0    0    0    0 -0.00000000000E+00 -0.00000000000E+00 -0.18250000000E+03  0.18250000000E+03  0.00000000000E+00 0. -1.
        -11    1    1    2    0    0  0.22266104885E-01 -0.11989856451E+02  0.18029586971E+03  0.18069410004E+03  0.00000000000E+00 0. -1.
         11    1    1    2    0    0  0.29726324627E+01  0.44271298258E+00 -0.11140546580E+03  0.11144599745E+03  0.00000000000E+00 0. -1.
        -15    1    1    2    0    0 -0.26625515836E+00  0.10308419041E+02 -0.12242625381E+02  0.16105092367E+02  0.17770000000E+01 0.  1.
         15    1    1    2    0    0 -0.27286434092E+01  0.12387244273E+01 -0.56647778532E+02  0.56754810145E+02  0.17770000000E+01 0. -1.
</event>
<event>
 6    1  0.1108180E-002  0.1833690E+03  0.7546771E-02  0.1067765E+00
        -11   -1    0    0    0    0  0.00000000000E+00  0.00000000000E+00  0.18250000000E+03  0.18250000000E+03  0.00000000000E+00 0.  1.
         11   -1    0    0    0    0 -0.00000000000E+00 -0.00000000000E+00 -0.18250000000E+03  0.18250000000E+03  0.00000000000E+00 0.  1.
        -11    1    1    2    0    0  0.75484990352E-01  0.60665240933E+01  0.10727966479E+03  0.10745108139E+03  0.00000000000E+00 0.  1.
         11    1    1    2    0    0  0.35606651016E+01  0.37623705439E+01 -0.18155712416E+03  0.18163100809E+03  0.00000000000E+00 0.  1.
        -15    1    1    2    0    0 -0.34966186796E+01 -0.33484319231E+00  0.43071480564E+02  0.43250995701E+02  0.17770000000E+01 0.  1.
         15    1    1    2    0    0 -0.13953141230E+00 -0.94940514448E+01  0.31205978801E+02  0.32666914819E+02  0.17770000000E+01 0. -1.
</event>
<event>
 6    1  0.1161008E-002  0.1826583E+03  0.7546771E-02  0.1068329E+00
        -11   -1    0    0    0    0  0.00000000000E+00  0.00000000000E+00  0.18250000000E+03  0.18250000000E+03  0.00000000000E+00 0.  1.
         11   -1    0    0    0    0 -0.00000000000E+00 -0.00000000000E+00 -0.18250000000E+03  0.18250000000E+03  0.00000000000E+00 0. -1.
        -11    1    1    2    0    0  0.28239459722E+01  0.13812577155E+01  0.18231464088E+03  0.18234174186E+03  0.00000000000E+00 0.  1.
         11    1    1    2    0    0 -0.11976195618E+01  0.17515577807E+01 -0.53615446016E+02  0.53657416065E+02  0.00000000000E+00 0. -1.
        -15    1    1    2    0    0  0.37497034396E+00 -0.14840291367E+01 -0.11099280350E+03  0.11101758015E+03  0.17770000000E+01 0. -1.
         15    1    1    2    0    0 -0.20012967544E+01 -0.16487863595E+01 -0.17706391371E+02  0.17983261928E+02  0.17770000000E+01 0.  1.
</event>
<event>
 6    1  0.1108180E-002  0.1828258E+03  0.7546771E-02  0.1068196E+00
        -11   -1    0    0    0    0  0.00000000000E+00  0.00000000000E+00  0.18250000000E+03  0.18250000000E+03  0.00000000000E+00 0.  1.
         11   -1    0    0    0    0 -0.00000000000E+00 -0.00000000000E+00 -0.18250000000E+03  0.18250000000E+03  0.00000000000E+00 0. -1.
        -11    1    1    2    0    0  0.12802646268E+01 -0.21558042989E+01  0.18215691775E+03  0.18217417286E+03  0.00000000000E+00 0.  1.
         11    1    1    2    0    0  0.32468565058E-01 -0.28109134468E+01 -0.14341939242E+03  0.14344693936E+03  0.00000000000E+00 0. -1.
        -15    1    1    2    0    0 -0.74212766821E+00  0.13579121472E+01 -0.70824421395E+01  0.74641405757E+01  0.17770000000E+01 0.  1.
         15    1    1    2    0    0 -0.57060552367E+00  0.36088055986E+01 -0.31655083196E+02  0.31914747213E+02  0.17770000000E+01 0. -1.
</event>
<event>
 6    1  0.1108180E-002  0.1835531E+03  0.7546771E-02  0.1067620E+00
        -11   -1    0    0    0    0  0.00000000000E+00  0.00000000000E+00  0.18250000000E+03  0.18250000000E+03  0.00000000000E+00 0. -1.
         11   -1    0    0    0    0 -0.00000000000E+00 -0.00000000000E+00 -0.18250000000E+03  0.18250000000E+03  0.00000000000E+00 0. -1.
        -11    1    1    2    0    0  0.28623647521E+01 -0.17719528018E+00  0.18142420257E+03  0.18144686773E+03  0.00000000000E+00 0. -1.
         11    1    1    2    0    0 -0.56658366398E+00 -0.47361114717E+01 -0.64506580574E+02  0.64682692479E+02  0.00000000000E+00 0. -1.
        -15    1    1    2    0    0 -0.57339579077E+01  0.10206059808E+02 -0.41150272899E+02  0.42819909140E+02  0.17770000000E+01 0.  1.
         15    1    1    2    0    0  0.34381768196E+01 -0.52927530556E+01 -0.75767349096E+02  0.76050530654E+02  0.17770000000E+01 0. -1.
</event>
<event>
 6    1  0.1108180E-002  0.1844806E+03  0.7546771E-02  0.1066889E+00
        -11   -1    0    0    0    0  0.00000000000E+00  0.00000000000E+00  0.18250000000E+03  0.18250000000E+03  0.00000000000E+00 0. -1.
         11   -1    0    0    0    0 -0.00000000000E+00 -0.00000000000E+00 -0.18250000000E+03  0.18250000000E+03  0.00000000000E+00 0. -1.
        -11    1    1    2    0    0  0.21927226541E+01  0.25710254870E+01  0.18048777807E+03  0.18051940682E+03  0.00000000000E+00 0. -1.
         11    1    1    2    0    0  0.21913753245E+01 -0.46720700431E+01 -0.17362364831E+03  0.17370032129E+03  0.00000000000E+00 0. -1.
        -15    1    1    2    0    0  0.29907114133E+00  0.27042479467E+01 -0.23488256324E+01  0.40096273338E+01  0.17770000000E+01 0.  1.
         15    1    1    2    0    0 -0.46831691199E+01 -0.60320339057E+00 -0.45153041347E+01  0.67706445606E+01  0.17770000000E+01 0. -1.
</event>
<event>
 6    1  0.1108180E-002  0.1831569E+03  0.7546771E-02  0.1067933E+00
        -11   -1    0    0    0    0  0.00000000000E+00  0.00000000000E+00  0.18250000000E+03  0.18250000000E+03  0.00000000000E+00 0.  1.
         11   -1    0    0    0    0 -0.00000000000E+00 -0.00000000000E+00 -0.18250000000E+03  0.18250000000E+03  0.00000000000E+00 0.  1.
        -11    1    1    2    0    0 -0.13841482134E+01  0.26686585559E+01  0.13925724372E+03  0.13928968926E+03  0.00000000000E+00 0.  1.
         11    1    1    2    0    0 -0.96994365802E+00 -0.39005336801E+01 -0.18179865555E+03  0.18184308101E+03  0.00000000000E+00 0.  1.
        -15    1    1    2    0    0 -0.74701451638E+00  0.27783549401E+01  0.36645908793E+02  0.36801598432E+02  0.17770000000E+01 0. -1.
         15    1    1    2    0    0  0.31011063878E+01 -0.15464798160E+01  0.58955030281E+01  0.70656312955E+01  0.17770000000E+01 0.  1.
</event>
<event>
 6    1  0.1108180E-002  0.1828062E+03  0.7546771E-02  0.1068211E+00
        -11   -1    0    0    0    0  0.00000000000E+00  0.00000000000E+00  0.18250000000E+03  0.18250000000E+03  0.00000000000E+00 0.  1.
         11   -1    0    0    0    0 -0.00000000000E+00 -0.00000000000E+00 -0.18250000000E+03  0.18250000000E+03  0.00000000000E+00 0.  1.
        -11    1    1    2    0    0 -0.28221540145E+01 -0.16975238061E+01  0.18216404258E+03  0.18219381040E+03  0.00000000000E+00 0.  1.
         11    1    1    2    0    0  0.11461362479E+01 -0.22473515473E+01 -0.93671317644E+02  0.93705282489E+02  0.00000000000E+00 0.  1.
        -15    1    1    2    0    0  0.33677495305E+00  0.49451578107E+00 -0.74366791000E+02  0.74390424759E+02  0.17770000000E+01 0. -1.
         15    1    1    2    0    0  0.13392428136E+01  0.34503595723E+01 -0.14125933933E+02  0.14710482350E+02  0.17770000000E+01 0. -1.
</event>
<event>
 6    1  0.1108180E-002  0.1842266E+03  0.7546771E-02  0.1067089E+00
        -11   -1    0    0    0    0  0.00000000000E+00  0.00000000000E+00  0.18250000000E+03  0.18250000000E+03  0.00000000000E+00 0.  1.
         11   -1    0    0    0    0 -0.00000000000E+00 -0.00000000000E+00 -0.18250000000E+03  0.18250000000E+03  0.00000000000E+00 0.  1.
        -11    1    1    2    0    0  0.38521902320E+01  0.26493078472E+01  0.18071294821E+03  0.18077341578E+03  0.00000000000E+00 0.  1.
         11    1    1    2    0    0 -0.21942713984E+01 -0.15917835869E+01 -0.17148542658E+03  0.17150685156E+03  0.00000000000E+00 0.  1.
        -15    1    1    2    0    0  0.66709294983E+00  0.43288964900E+00 -0.92326913915E+01  0.94357154357E+01  0.17770000000E+01 0. -1.
         15    1    1    2    0    0 -0.23250117834E+01 -0.14904139093E+01  0.51697593955E-02  0.32840172260E+01  0.17770000000E+01 0.  1.
</event>
<event>
 6    1  0.1108180E-002  0.1842915E+03  0.7546771E-02  0.1067038E+00
        -11   -1    0    0    0    0  0.00000000000E+00  0.00000000000E+00  0.18250000000E+03  0.18250000000E+03  0.00000000000E+00 0. -1.
         11   -1    0    0    0    0 -0.00000000000E+00 -0.00000000000E+00 -0.18250000000E+03  0.18250000000E+03  0.00000000000E+00 0.  1.
        -11    1    1    2    0    0  0.41371111640E+01 -0.59550335952E+00  0.18066015225E+03  0.18070849710E+03  0.00000000000E+00 0. -1.
         11    1    1    2    0    0 -0.81741331078E+00 -0.12478203469E-01 -0.25105964074E+02  0.25119270537E+02  0.00000000000E+00 0.  1.
        -15    1    1    2    0    0  0.59597505603E+00  0.28915342793E+01 -0.15403275241E+03  0.15407129097E+03  0.17770000000E+01 0.  1.
         15    1    1    2    0    0 -0.39156729092E+01 -0.22835527163E+01 -0.15214357588E+01  0.51009413943E+01  0.17770000000E+01 0. -1.
</event>
<event>
 6    1  0.1108180E-002  0.1843637E+03  0.7546771E-02  0.1066981E+00
        -11   -1    0    0    0    0  0.00000000000E+00  0.00000000000E+00  0.18250000000E+03  0.18250000000E+03  0.00000000000E+00 0. -1.
         11   -1    0    0    0    0 -0.00000000000E+00 -0.00000000000E+00 -0.18250000000E+03  0.18250000000E+03  0.00000000000E+00 0.  1.
        -11    1    1    2    0    0 -0.26100826565E+01 -0.48155962597E+01  0.16512452400E+03  0.16521534712E+03  0.00000000000E+00 0. -1.
         11    1    1    2    0    0 -0.32979740103E+00  0.26787981645E+01 -0.18061608498E+03  0.18063625018E+03  0.00000000000E+00 0.  1.
        -15    1    1    2    0    0  0.31427075456E+01  0.44703401904E+01  0.33402756495E+01  0.66464819679E+01  0.17770000000E+01 0. -1.
         15    1    1    2    0    0 -0.20282748805E+00 -0.23335420952E+01  0.12151285335E+02  0.12501920732E+02  0.17770000000E+01 0.  1.
</event>
<event>
 6    1  0.1108180E-002  0.1853634E+03  0.7546771E-02  0.1066198E+00
        -11   -1    0    0    0    0  0.00000000000E+00  0.00000000000E+00  0.18250000000E+03  0.18250000000E+03  0.00000000000E+00 0. -1.
         11   -1    0    0    0    0 -0.00000000000E+00 -0.00000000000E+00 -0.18250000000E+03  0.18250000000E+03  0.00000000000E+00 0.  1.
        -11    1    1    2    0    0 -0.70435585772E+00  0.20754074333E+01  0.16180553088E+03  0.16182037343E+03  0.00000000000E+00 0. -1.
         11    1    1    2    0    0  0.65193885058E+01  0.79363333646E+01 -0.17934278428E+03  0.17963663904E+03  0.00000000000E+00 0.  1.
        -15    1    1    2    0    0 -0.27415855527E+01 -0.71822359150E+00 -0.40304706319E-01  0.33453684311E+01  0.17770000000E+01 0. -1.
         15    1    1    2    0    0 -0.30734470954E+01 -0.92935172064E+01  0.17577558105E+02  0.20197619094E+02  0.17770000000E+01 0.  1.
</event>
<event>
 6    1  0.1108180E-002  0.1739631E+03  0.7546771E-02  0.1075461E+00
        -11   -1    0    0    0    0  0.00000000000E+00  0.00000000000E+00  0.18250000000E+03  0.18250000000E+03  0.00000000000E+00 0. -1.
         11   -1    0    0    0    0 -0.00000000000E+00 -0.00000000000E+00 -0.18250000000E+03  0.18250000000E+03  0.00000000000E+00 0.  1.
        -11    1    1    2    0    0 -0.42958829052E+01 -0.83063475305E-02  0.17465744023E+03  0.17471026331E+03  0.00000000000E+00 0. -1.
         11    1    1    2    0    0 -0.14417152569E+01 -0.37069439160E+01 -0.17324028190E+03  0.17328593494E+03  0.00000000000E+00 0.  1.
        -15    1    1    2    0    0  0.17474858594E+01  0.41503169429E+01 -0.78459918430E+01  0.92193359064E+01  0.17770000000E+01 0. -1.
         15    1    1    2    0    0  0.39901123027E+01 -0.43506667934E+00  0.64288335095E+01  0.77844658452E+01  0.17770000000E+01 0. -1.
</event>
<event>
 6    1  0.1108180E-002  0.1838825E+03  0.7546771E-02  0.1067360E+00
        -11   -1    0    0    0    0  0.00000000000E+00  0.00000000000E+00  0.18250000000E+03  0.18250000000E+03  0.00000000000E+00 0.  1.
         11   -1    0    0    0    0 -0.00000000000E+00 -0.00000000000E+00 -0.18250000000E+03  0.18250000000E+03  0.00000000000E+00 0. -1.
        -11    1    1    2    0    0  0.14730641376E+01 -0.43562796554E+01  0.12716039744E+03  0.12724352152E+03  0.00000000000E+00 0.  1.
         11    1    1    2    0    0 -0.27617809332E+01 -0.64002547753E+00 -0.18109527043E+03  0.18111745924E+03  0.00000000000E+00 0. -1.
        -15    1    1    2    0    0  0.26799367994E+01  0.32251026632E+01  0.26402223264E+01  0.52642047234E+01  0.17770000000E+01 0. -1.
         15    1    1    2    0    0 -0.13912200038E+01  0.17712024697E+01  0.51294650667E+02  0.51374814524E+02  0.17770000000E+01 0.  1.
</event>
<event>
 6    1  0.1108180E-002  0.1845974E+03  0.7546771E-02  0.1066797E+00
        -11   -1    0    0    0    0  0.00000000000E+00  0.00000000000E+00  0.18250000000E+03  0.18250000000E+03  0.00000000000E+00 0.  1.
         11   -1    0    0    0    0 -0.00000000000E+00 -0.00000000000E+00 -0.18250000000E+03  0.18250000000E+03  0.00000000000E+00 0.  1.
        -11    1    1    2    0    0  0.95906168996E+00  0.21995384367E+01  0.16036883667E+03  0.16038678731E+03  0.00000000000E+00 0.  1.
         11    1    1    2    0    0 -0.29572935318E+01  0.38590390379E+01 -0.18033703850E+03  0.18040256435E+03  0.00000000000E+00 0.  1.
        -15    1    1    2    0    0  0.18230482062E+01  0.32445966327E+00  0.16559898451E+02  0.16757587671E+02  0.17770000000E+01 0. -1.
         15    1    1    2    0    0  0.17518363568E+00 -0.63830371379E+01  0.34083033802E+01  0.74530606694E+01  0.17770000000E+01 0.  1.
</event>
<event>
 6    1  0.1108180E-002  0.1834569E+03  0.7546771E-02  0.1067696E+00
        -11   -1    0    0    0    0  0.00000000000E+00  0.00000000000E+00  0.18250000000E+03  0.18250000000E+03  0.00000000000E+00 0. -1.
         11   -1    0    0    0    0 -0.00000000000E+00 -0.00000000000E+00 -0.18250000000E+03  0.18250000000E+03  0.00000000000E+00 0. -1.
        -11    1    1    2    0    0  0.29047667067E+01  0.17865477666E+01  0.85654819355E+02  0.85722677871E+02  0.00000000000E+00 0. -1.
         11    1    1    2    0    0 -0.72958801430E+01 -0.38775906699E+01 -0.18135499469E+03  0.18154310693E+03  0.00000000000E+00 0. -1.
        -15    1    1    2    0    0  0.60330909883E+01  0.34361480954E+01  0.11922044091E+02  0.13910361782E+02  0.17770000000E+01 0. -1.
         15    1    1    2    0    0 -0.16419775520E+01 -0.13451051921E+01  0.83778131241E+02  0.83823853416E+02  0.17770000000E+01 0.  1.
</event>
<event>
 6    1  0.1108180E-002  0.1592322E+03  0.7546771E-02  0.1088650E+00
        -11   -1    0    0    0    0  0.00000000000E+00  0.00000000000E+00  0.18250000000E+03  0.18250000000E+03  0.00000000000E+00 0. -1.
         11   -1    0    0    0    0 -0.00000000000E+00 -0.00000000000E+00 -0.18250000000E+03  0.18250000000E+03  0.00000000000E+00 0.  1.
        -11    1    1    2    0    0 -0.47695407612E+00 -0.23670268560E+01  0.16452693938E+03  0.16454465680E+03  0.00000000000E+00 0. -1.
         11    1    1    2    0    0  0.18188129125E+02 -0.71926326948E+01 -0.15350444705E+03  0.15474545962E+03  0.00000000000E+00 0.  1.
        -15    1    1    2    0    0 -0.22533536792E+02  0.95082770557E+01 -0.22407967544E+02  0.33218102766E+02  0.17770000000E+01 0.  1.
         15    1    1    2    0    0  0.48223617429E+01  0.51382495084E-01  0.11385475221E+02  0.12491780816E+02  0.17770000000E+01 0. -1.
</event>
<event>
 6    1  0.1108180E-002  0.1841235E+03  0.7546771E-02  0.1067170E+00
        -11   -1    0    0    0    0  0.00000000000E+00  0.00000000000E+00  0.18250000000E+03  0.18250000000E+03  0.00000000000E+00 0. -1.
         11   -1    0    0    0    0 -0.00000000000E+00 -0.00000000000E+00 -0.18250000000E+03  0.18250000000E+03  0.00000000000E+00 0.  1.
        -11    1    1    2    0    0 -0.17695699475E+01  0.58692044171E+01  0.18077262514E+03  0.18087653507E+03  0.00000000000E+00 0. -1.
         11    1    1    2    0    0  0.69896462225E+01  0.41927600453E+00 -0.15626356917E+03  0.15642037590E+03  0.00000000000E+00 0.  1.
        -15    1    1    2    0    0  0.15579288952E+01 -0.53345458668E+01 -0.11552922800E+02  0.12942653371E+02  0.17770000000E+01 0. -1.
         15    1    1    2    0    0 -0.67780051702E+01 -0.95393455489E+00 -0.12956133171E+02  0.14760435663E+02  0.17770000000E+01 0.  1.
</event>
<event>
 6    1  0.1108180E-002  0.1844982E+03  0.7546771E-02  0.1066875E+00
        -11   -1    0    0    0    0  0.00000000000E+00  0.00000000000E+00  0.18250000000E+03  0.18250000000E+03  0.00000000000E+00 0.  1.
         11   -1    0    0    0    0 -0.00000000000E+00 -0.00000000000E+00 -0.18250000000E+03  0.18250000000E+03  0.00000000000E+00 0.  1.
        -11    1    1    2    0    0  0.29180812735E+01  0.78787781501E+00  0.18047651290E+03  0.18050182176E+03  0.00000000000E+00 0.  1.
         11    1    1    2    0    0 -0.13806043472E+01 -0.18691418300E+01 -0.63126445656E+02  0.63169200571E+02  0.00000000000E+00 0.  1.
        -15    1    1    2    0    0 -0.39557422102E+01  0.10604504177E+01 -0.55879952890E+00  0.44991596366E+01  0.17770000000E+01 0.  1.
         15    1    1    2    0    0  0.24182652839E+01  0.20813597303E-01 -0.11679126771E+03  0.11682981804E+03  0.17770000000E+01 0.  1.
</event>
<event>
 6    1  0.1108180E-002  0.1846926E+03  0.7546771E-02  0.1066723E+00
        -11   -1    0    0    0    0  0.00000000000E+00  0.00000000000E+00  0.18250000000E+03  0.18250000000E+03  0.00000000000E+00 0. -1.
         11   -1    0    0    0    0 -0.00000000000E+00 -0.00000000000E+00 -0.18250000000E+03  0.18250000000E+03  0.00000000000E+00 0. -1.
        -11    1    1    2    0    0 -0.64640998589E+01 -0.26679796612E+01  0.15304081489E+03  0.15320050172E+03  0.00000000000E+00 0. -1.
         11    1    1    2    0    0 -0.10899696889E+01  0.29493113160E+01 -0.18027994923E+03  0.18030736692E+03  0.00000000000E+00 0. -1.
        -15    1    1    2    0    0  0.45987017979E+01 -0.20540912582E+01  0.27090369183E+02  0.27611830446E+02  0.17770000000E+01 0. -1.
         15    1    1    2    0    0  0.29553677499E+01  0.17727596035E+01  0.14876515261E+00  0.38803009187E+01  0.17770000000E+01 0.  1.
</event>
<event>
 6    1  0.1108180E-002  0.1829920E+03  0.7546771E-02  0.1068064E+00
        -11   -1    0    0    0    0  0.00000000000E+00  0.00000000000E+00  0.18250000000E+03  0.18250000000E+03  0.00000000000E+00 0. -1.
         11   -1    0    0    0    0 -0.00000000000E+00 -0.00000000000E+00 -0.18250000000E+03  0.18250000000E+03  0.00000000000E+00 0. -1.
        -11    1    1    2    0    0  0.72339402674E+00 -0.33231805122E+01  0.18197618997E+03  0.18200796835E+03  0.00000000000E+00 0. -1.
         11    1    1    2    0    0  0.27259252120E+01 -0.55397880571E+00 -0.96014716986E+02  0.96055002153E+02  0.00000000000E+00 0. -1.
        -15    1    1    2    0    0 -0.10537369687E+01 -0.31647086767E+01 -0.51438988445E+02  0.51577640541E+02  0.17770000000E+01 0.  1.
         15    1    1    2    0    0 -0.23955822700E+01  0.70418679946E+01 -0.34522484540E+02  0.35359388953E+02  0.17770000000E+01 0. -1.
</event>
<event>
 6    1  0.1108180E-002  0.1827087E+03  0.7546771E-02  0.1068289E+00
        -11   -1    0    0    0    0  0.00000000000E+00  0.00000000000E+00  0.18250000000E+03  0.18250000000E+03  0.00000000000E+00 0.  1.
         11   -1    0    0    0    0 -0.00000000000E+00 -0.00000000000E+00 -0.18250000000E+03  0.18250000000E+03  0.00000000000E+00 0. -1.
        -11    1    1    2    0    0 -0.19139449128E+01  0.52461562457E-02  0.98841688852E+02  0.98860217822E+02  0.00000000000E+00 0.  1.
         11    1    1    2    0    0  0.34622406597E+01  0.40922922121E+01 -0.18221245553E+03  0.18229128591E+03  0.00000000000E+00 0. -1.
        -15    1    1    2    0    0 -0.34054431268E+01 -0.20323446675E+01  0.24282096284E+02  0.24667902154E+02  0.17770000000E+01 0.  1.
         15    1    1    2    0    0  0.18571473800E+01 -0.20651937008E+01  0.59088670398E+02  0.59180594115E+02  0.17770000000E+01 0.  1.
</event>
<event>
 6    1  0.1108180E-002  0.1833301E+03  0.7546771E-02  0.1067796E+00
        -11   -1    0    0    0    0  0.00000000000E+00  0.00000000000E+00  0.18250000000E+03  0.18250000000E+03  0.00000000000E+00 0.  1.
         11   -1    0    0    0    0 -0.00000000000E+00 -0.00000000000E+00 -0.18250000000E+03  0.18250000000E+03  0.00000000000E+00 0. -1.
        -11    1    1    2    0    0 -0.36041109498E+01  0.17592211636E+01  0.18162565492E+03  0.18166992872E+03  0.00000000000E+00 0.  1.
         11    1    1    2    0    0 -0.17095848202E+01 -0.42433250976E+00 -0.11525781981E+03  0.11527127901E+03  0.00000000000E+00 0. -1.
        -15    1    1    2    0    0  0.33617363027E+01 -0.21709031054E+01 -0.50723013649E+01  0.67007508085E+01  0.17770000000E+01 0. -1.
         15    1    1    2    0    0  0.19519594673E+01  0.83601445159E+00 -0.61295533747E+02  0.61358041463E+02  0.17770000000E+01 0. -1.
</event>
<event>
 6    1  0.1108180E-002  0.1829195E+03  0.7546771E-02  0.1068121E+00
        -11   -1    0    0    0    0  0.00000000000E+00  0.00000000000E+00  0.18250000000E+03  0.18250000000E+03  0.00000000000E+00 0. -1.
         11   -1    0    0    0    0 -0.00000000000E+00 -0.00000000000E+00 -0.18250000000E+03  0.18250000000E+03  0.00000000000E+00 0.  1.
        -11    1    1    2    0    0 -0.44845686897E+01 -0.20566274679E+01  0.18201365623E+03  0.18208051001E+03  0.00000000000E+00 0. -1.
         11    1    1    2    0    0 -0.81635113733E+00  0.10578416556E+01 -0.86960863638E+02  0.86971128903E+02  0.00000000000E+00 0.  1.
        -15    1    1    2    0    0  0.32421865144E+01 -0.50902144239E+01 -0.39718267345E+02  0.40213437383E+02  0.17770000000E+01 0. -1.
         15    1    1    2    0    0  0.20587333126E+01  0.60890002363E+01 -0.55334525246E+02  0.55734923701E+02  0.17770000000E+01 0.  1.
</event>
<event>
 6    1  0.1108180E-002  0.1736672E+03  0.7546771E-02  0.1075712E+00
        -11   -1    0    0    0    0  0.00000000000E+00  0.00000000000E+00  0.18250000000E+03  0.18250000000E+03  0.00000000000E+00 0.  1.
         11   -1    0    0    0    0 -0.00000000000E+00 -0.00000000000E+00 -0.18250000000E+03  0.18250000000E+03  0.00000000000E+00 0.  1.
        -11    1    1    2    0    0 -0.10247474034E+02  0.20464464965E+00  0.17050243805E+03  0.17081022799E+03  0.00000000000E+00 0.  1.
         11    1    1    2    0    0 -0.89048049962E+00 -0.33845399184E+01 -0.17673846668E+03  0.17677311354E+03  0.00000000000E+00 0.  1.
        -15    1    1    2    0    0 -0.18881963063E+01  0.11545905669E+01  0.19410362627E+01  0.34385629908E+01  0.17770000000E+01 0.  1.
         15    1    1    2    0    0  0.13026150839E+02  0.20253047018E+01  0.42949923632E+01  0.13978095479E+02  0.17770000000E+01 0.  1.
</event>
<event>
 6    1  0.1108180E-002  0.1828102E+03  0.7546771E-02  0.1068208E+00
        -11   -1    0    0    0    0  0.00000000000E+00  0.00000000000E+00  0.18250000000E+03  0.18250000000E+03  0.00000000000E+00 0. -1.
         11   -1    0    0    0    0 -0.00000000000E+00 -0.00000000000E+00 -0.18250000000E+03  0.18250000000E+03  0.00000000000E+00 0.  1.
        -11    1    1    2    0    0 -0.75798191415E+00 -0.12735335061E+01  0.10003256913E+03  0.10004354708E+03  0.00000000000E+00 0. -1.
         11    1    1    2    0    0  0.38365310604E+01 -0.23206551479E+00 -0.18214923208E+03  0.18218977900E+03  0.00000000000E+00 0.  1.
        -15    1    1    2    0    0  0.27508964030E+01  0.14479009536E+01  0.17458666481E+02  0.17822082159E+02  0.17770000000E+01 0. -1.
         15    1    1    2    0    0 -0.58294455493E+01  0.57698067288E-01  0.64657996460E+02  0.64944591767E+02  0.17770000000E+01 0. -1.
</event>
<event>
 6    1  0.1108180E-002  0.1851381E+03  0.7546771E-02  0.1066374E+00
        -11   -1    0    0    0    0  0.00000000000E+00  0.00000000000E+00  0.18250000000E+03  0.18250000000E+03  0.00000000000E+00 0.  1.
         11   -1    0    0    0    0 -0.00000000000E+00 -0.00000000000E+00 -0.18250000000E+03  0.18250000000E+03  0.00000000000E+00 0. -1.
        -11    1    1    2    0    0  0.10123932572E+01 -0.26680381759E+01  0.17983929972E+03  0.17986193898E+03  0.00000000000E+00 0.  1.
         11    1    1    2    0    0 -0.94462034174E+00  0.26073407328E+01 -0.13187421672E+03  0.13190337209E+03  0.00000000000E+00 0. -1.
        -15    1    1    2    0    0 -0.98850846856E+01 -0.98793307034E+00 -0.37093439652E+02  0.38441798933E+02  0.17770000000E+01 0. -1.
         15    1    1    2    0    0  0.98173117702E+01  0.10486305134E+01 -0.10871643355E+02  0.14792890001E+02  0.17770000000E+01 0.  1.
</event>
<event>
 6    1  0.1108180E-002  0.1841135E+03  0.7546771E-02  0.1067178E+00
        -11   -1    0    0    0    0  0.00000000000E+00  0.00000000000E+00  0.18250000000E+03  0.18250000000E+03  0.00000000000E+00 0. -1.
         11   -1    0    0    0    0 -0.00000000000E+00 -0.00000000000E+00 -0.18250000000E+03  0.18250000000E+03  0.00000000000E+00 0. -1.
        -11    1    1    2    0    0  0.95804836026E+00  0.55677297533E+01  0.16424465490E+03  0.16434179059E+03  0.00000000000E+00 0. -1.
         11    1    1    2    0    0  0.25668443818E+01 -0.65567955019E+00 -0.18086706970E+03  0.18088647132E+03  0.00000000000E+00 0. -1.
        -15    1    1    2    0    0 -0.21762077431E+01  0.19778178950E+01  0.46962294801E+01  0.58189298068E+01  0.17770000000E+01 0.  1.
         15    1    1    2    0    0 -0.13486849989E+01 -0.68898680981E+01  0.11926185320E+02  0.13952808281E+02  0.17770000000E+01 0. -1.
</event>
<event>
 6    1  0.1108180E-002  0.1854036E+03  0.7546771E-02  0.1066167E+00
        -11   -1    0    0    0    0  0.00000000000E+00  0.00000000000E+00  0.18250000000E+03  0.18250000000E+03  0.00000000000E+00 0.  1.
         11   -1    0    0    0    0 -0.00000000000E+00 -0.00000000000E+00 -0.18250000000E+03  0.18250000000E+03  0.00000000000E+00 0. -1.
        -11    1    1    2    0    0 -0.34452227422E+00  0.30171963558E+01  0.17957071521E+03  0.17959639175E+03  0.00000000000E+00 0.  1.
         11    1    1    2    0    0  0.36718363831E+01  0.40904878657E+01 -0.13343708915E+03  0.13355025734E+03  0.00000000000E+00 0. -1.
        -15    1    1    2    0    0 -0.19560260599E+01 -0.42641535774E+01 -0.47659234731E+02  0.47922535699E+02  0.17770000000E+01 0. -1.
         15    1    1    2    0    0 -0.13712880490E+01 -0.28435306441E+01  0.15256086736E+01  0.39308152160E+01  0.17770000000E+01 0.  1.
</event>
<event>
 6    1  0.1108180E-002  0.1920894E+03  0.7546771E-02  0.1061068E+00
        -11   -1    0    0    0    0  0.00000000000E+00  0.00000000000E+00  0.18250000000E+03  0.18250000000E+03  0.00000000000E+00 0.  1.
         11   -1    0    0    0    0 -0.00000000000E+00 -0.00000000000E+00 -0.18250000000E+03  0.18250000000E+03  0.00000000000E+00 0.  1.
        -11    1    1    2    0    0  0.29568115176E+01 -0.23539160416E+01  0.17286926231E+03  0.17291057083E+03  0.00000000000E+00 0.  1.
         11    1    1    2    0    0 -0.20398688349E+02  0.83642218447E+01 -0.15140319930E+03  0.15299998514E+03  0.00000000000E+00 0.  1.
        -15    1    1    2    0    0  0.13892989513E+02 -0.14394189394E+02 -0.58369095093E+01  0.20914948901E+02  0.17770000000E+01 0. -1.
         15    1    1    2    0    0  0.35488873186E+01  0.83838835905E+01 -0.15629153496E+02  0.18174495131E+02  0.17770000000E+01 0.  1.
</event>
<event>
 6    1  0.1108180E-002  0.1930357E+03  0.7546771E-02  0.1060365E+00
        -11   -1    0    0    0    0  0.00000000000E+00  0.00000000000E+00  0.18250000000E+03  0.18250000000E+03  0.00000000000E+00 0.  1.
         11   -1    0    0    0    0 -0.00000000000E+00 -0.00000000000E+00 -0.18250000000E+03  0.18250000000E+03  0.00000000000E+00 0. -1.
        -11    1    1    2    0    0 -0.78761147863E+00  0.27117402477E+01  0.17194111529E+03  0.17196430151E+03  0.00000000000E+00 0.  1.
         11    1    1    2    0    0  0.19560838594E+01 -0.33274473516E+00 -0.14170936055E+03  0.14172325092E+03  0.00000000000E+00 0. -1.
        -15    1    1    2    0    0  0.77584948218E+00  0.14287513727E+00  0.10368268976E+02  0.10548985083E+02  0.17770000000E+01 0.  1.
         15    1    1    2    0    0 -0.19443218629E+01 -0.25218706498E+01 -0.40600023716E+02  0.40763462485E+02  0.17770000000E+01 0. -1.
</event>
<event>
 6    1  0.1108180E-002  0.1826714E+03  0.7546771E-02  0.1068318E+00
        -11   -1    0    0    0    0  0.00000000000E+00  0.00000000000E+00  0.18250000000E+03  0.18250000000E+03  0.00000000000E+00 0. -1.
         11   -1    0    0    0    0 -0.00000000000E+00 -0.00000000000E+00 -0.18250000000E+03  0.18250000000E+03  0.00000000000E+00 0. -1.
        -11    1    1    2    0    0 -0.39250652723E+01 -0.10492624481E+00  0.18228633888E+03  0.18232862225E+03  0.00000000000E+00 0. -1.
         11    1    1    2    0    0  0.79012697467E+00  0.81388407677E+00 -0.83027190222E+02  0.83034938575E+02  0.00000000000E+00 0. -1.
        -15    1    1    2    0    0  0.22670164877E+01 -0.16550119438E+01 -0.15657164033E+02  0.16005715943E+02  0.17770000000E+01 0. -1.
         15    1    1    2    0    0  0.86792180998E+00  0.94605411183E+00 -0.83601984626E+02  0.83630723237E+02  0.17770000000E+01 0.  1.
</event>
<event>
 6    1  0.1108180E-002  0.1829980E+03  0.7546771E-02  0.1068059E+00
        -11   -1    0    0    0    0  0.00000000000E+00  0.00000000000E+00  0.18250000000E+03  0.18250000000E+03  0.00000000000E+00 0.  1.
         11   -1    0    0    0    0 -0.00000000000E+00 -0.00000000000E+00 -0.18250000000E+03  0.18250000000E+03  0.00000000000E+00 0. -1.
        -11    1    1    2    0    0  0.32064630915E+01  0.47040877225E+01  0.18191293876E+03  0.18200199762E+03  0.00000000000E+00 0.  1.
         11    1    1    2    0    0 -0.15521742280E+01  0.15230249094E+01 -0.13743875112E+03  0.13745595352E+03  0.00000000000E+00 0. -1.
        -15    1    1    2    0    0 -0.32912736598E+01 -0.57973627936E+01 -0.25770056419E+02  0.26677620480E+02  0.17770000000E+01 0. -1.
         15    1    1    2    0    0  0.16369847963E+01 -0.42974983827E+00 -0.18704131227E+02  0.18864428380E+02  0.17770000000E+01 0. -1.
</event>
<event>
 6    1  0.1108180E-002  0.1741904E+03  0.7546771E-02  0.1075269E+00
        -11   -1    0    0    0    0  0.00000000000E+00  0.00000000000E+00  0.18250000000E+03  0.18250000000E+03  0.00000000000E+00 0. -1.
         11   -1    0    0    0    0 -0.00000000000E+00 -0.00000000000E+00 -0.18250000000E+03  0.18250000000E+03  0.00000000000E+00 0. -1.
        -11    1    1    2    0    0  0.39071317612E+01  0.22486715904E+01  0.17571834069E+03  0.17577615725E+03  0.00000000000E+00 0. -1.
         11    1    1    2    0    0  0.66198209989E+01  0.59877742793E+00 -0.17266084412E+03  0.17278873706E+03  0.00000000000E+00 0. -1.
        -15    1    1    2    0    0 -0.90624417572E+00 -0.31305110500E+01  0.31302184703E+01  0.48556538810E+01  0.17770000000E+01 0. -1.
         15    1    1    2    0    0 -0.96207085843E+01  0.28306203166E+00 -0.61877150378E+01  0.11579451808E+02  0.17770000000E+01 0.  1.
</event>
<event>
 6    1  0.1108180E-002  0.1838796E+03  0.7546771E-02  0.1067362E+00
        -11   -1    0    0    0    0  0.00000000000E+00  0.00000000000E+00  0.18250000000E+03  0.18250000000E+03  0.00000000000E+00 0.  1.
         11   -1    0    0    0    0 -0.00000000000E+00 -0.00000000000E+00 -0.18250000000E+03  0.18250000000E+03  0.00000000000E+00 0. -1.
        -11    1    1    2    0    0  0.12042542219E+02  0.11211456910E+02  0.18037150267E+03  0.18112039798E+03  0.00000000000E+00 0.  1.
         11    1    1    2    0    0 -0.17757244366E+00  0.55712081437E+00 -0.32814410996E+02  0.32819620421E+02  0.00000000000E+00 0. -1.
        -15    1    1    2    0    0 -0.78482183866E+01  0.19856353987E+01 -0.11667819721E+03  0.11697220488E+03  0.17770000000E+01 0. -1.
         15    1    1    2    0    0 -0.40167513885E+01 -0.13754213123E+02 -0.30878894455E+02  0.34087776726E+02  0.17770000000E+01 0.  1.
</event>
<event>
 6    1  0.1108180E-002  0.1826060E+03  0.7546771E-02  0.1068370E+00
        -11   -1    0    0    0    0  0.00000000000E+00  0.00000000000E+00  0.18250000000E+03  0.18250000000E+03  0.00000000000E+00 0. -1.
         11   -1    0    0    0    0 -0.00000000000E+00 -0.00000000000E+00 -0.18250000000E+03  0.18250000000E+03  0.00000000000E+00 0. -1.
        -11    1    1    2    0    0 -0.32388746999E+01  0.20957532489E+00  0.84259739035E+02  0.84322226331E+02  0.00000000000E+00 0. -1.
         11    1    1    2    0    0  0.28287973369E+01  0.91341675489E+00 -0.18236979060E+03  0.18239401566E+03  0.00000000000E+00 0. -1.
        -15    1    1    2    0    0 -0.19429715322E+01 -0.83038302880E+00  0.57162190333E+02  0.57228824966E+02  0.17770000000E+01 0.  1.
         15    1    1    2    0    0  0.23530488952E+01 -0.29260905098E+00  0.40947861230E+02  0.41054933046E+02  0.17770000000E+01 0. -1.
</event>
<event>
 6    1  0.1108180E-002  0.1872700E+03  0.7546771E-02  0.1064720E+00
        -11   -1    0    0    0    0  0.00000000000E+00  0.00000000000E+00  0.18250000000E+03  0.18250000000E+03  0.00000000000E+00 0. -1.
         11   -1    0    0    0    0 -0.00000000000E+00 -0.00000000000E+00 -0.18250000000E+03  0.18250000000E+03  0.00000000000E+00 0.  1.
        -11    1    1    2    0    0  0.51202930553E+01  0.13836025781E+01  0.16409520482E+03  0.16418090024E+03  0.00000000000E+00 0. -1.
         11    1    1    2    0    0  0.93430118666E+00 -0.55323210948E+01 -0.17764143811E+03  0.17773002006E+03  0.00000000000E+00 0.  1.
        -15    1    1    2    0    0  0.22470016093E+01  0.30538663126E+01 -0.25183724057E+01  0.48862096006E+01  0.17770000000E+01 0. -1.
         15    1    1    2    0    0 -0.83015958513E+01  0.10948522041E+01  0.16064605695E+02  0.18202870108E+02  0.17770000000E+01 0.  1.
</event>
<event>
 6    1  0.1108180E-002  0.1833394E+03  0.7546771E-02  0.1067789E+00
        -11   -1    0    0    0    0  0.00000000000E+00  0.00000000000E+00  0.18250000000E+03  0.18250000000E+03  0.00000000000E+00 0.  1.
         11   -1    0    0    0    0 -0.00000000000E+00 -0.00000000000E+00 -0.18250000000E+03  0.18250000000E+03  0.00000000000E+00 0. -1.
        -11    1    1    2    0    0 -0.24955571071E+01  0.58604211523E+00  0.15070247211E+03  0.15072427260E+03  0.00000000000E+00 0.  1.
         11    1    1    2    0    0 -0.28504660479E+01  0.77740470724E+00 -0.18163657868E+03  0.18166060726E+03  0.00000000000E+00 0. -1.
        -15    1    1    2    0    0  0.38409080529E+01 -0.38333335032E+01  0.26041735043E+02  0.26660395973E+02  0.17770000000E+01 0.  1.
         15    1    1    2    0    0  0.15051151021E+01  0.24698866808E+01  0.48923715362E+01  0.59547241695E+01  0.17770000000E+01 0. -1.
</event>
<event>
 6    1  0.1108180E-002  0.1833329E+03  0.7546771E-02  0.1067794E+00
        -11   -1    0    0    0    0  0.00000000000E+00  0.00000000000E+00  0.18250000000E+03  0.18250000000E+03  0.00000000000E+00 0.  1.
         11   -1    0    0    0    0 -0.00000000000E+00 -0.00000000000E+00 -0.18250000000E+03  0.18250000000E+03  0.00000000000E+00 0.  1.
        -11    1    1    2    0    0  0.38320818526E+01  0.77218301100E-01  0.18162670240E+03  0.18166714023E+03  0.00000000000E+00 0.  1.
         11    1    1    2    0    0 -0.11602872348E+01 -0.78405564822E+00 -0.86929854358E+02  0.86941132891E+02  0.00000000000E+00 0.  1.
        -15    1    1    2    0    0 -0.12783490160E+01 -0.44555891147E+01 -0.85232958684E+02  0.85377405826E+02  0.17770000000E+01 0.  1.
         15    1    1    2    0    0 -0.13934456019E+01  0.51624264618E+01 -0.94638893548E+01  0.11014321057E+02  0.17770000000E+01 0. -1.
</event>
<event>
 6    1  0.1108180E-002  0.1758179E+03  0.7546771E-02  0.1073902E+00
        -11   -1    0    0    0    0  0.00000000000E+00  0.00000000000E+00  0.18250000000E+03  0.18250000000E+03  0.00000000000E+00 0. -1.
         11   -1    0    0    0    0 -0.00000000000E+00 -0.00000000000E+00 -0.18250000000E+03  0.18250000000E+03  0.00000000000E+00 0.  1.
        -11    1    1    2    0    0  0.31480296985E+01  0.20393380726E+01  0.17689404393E+03  0.17693380618E+03  0.00000000000E+00 0. -1.
         11    1    1    2    0    0 -0.45429986909E+01  0.40763775490E+01 -0.17465834039E+03  0.17476496090E+03  0.00000000000E+00 0.  1.
        -15    1    1    2    0    0 -0.30844051430E+01 -0.22430509102E+00  0.24830256449E+01  0.43459191448E+01  0.17770000000E+01 0.  1.
         15    1    1    2    0    0  0.44793741354E+01 -0.58914105305E+01 -0.47187291883E+01  0.89553137766E+01  0.17770000000E+01 0.  1.
</event>
<event>
 6    1  0.1108180E-002  0.1835788E+03  0.7546771E-02  0.1067599E+00
        -11   -1    0    0    0    0  0.00000000000E+00  0.00000000000E+00  0.18250000000E+03  0.18250000000E+03  0.00000000000E+00 0.  1.
         11   -1    0    0    0    0 -0.00000000000E+00 -0.00000000000E+00 -0.18250000000E+03  0.18250000000E+03  0.00000000000E+00 0. -1.
        -11    1    1    2    0    0 -0.86888141322E+00 -0.93339358506E+00  0.93035477761E+02  0.93044216911E+02  0.00000000000E+00 0.  1.
         11    1    1    2    0    0  0.33710025823E+01 -0.58748425523E+00 -0.18138888410E+03  0.18142115662E+03  0.00000000000E+00 0. -1.
        -15    1    1    2    0    0  0.36982257352E+01 -0.59605476932E+01  0.16656296785E+02  0.18160257542E+02  0.17770000000E+01 0. -1.
         15    1    1    2    0    0 -0.62003469043E+01  0.74814255335E+01  0.71697109553E+02  0.72374368923E+02  0.17770000000E+01 0.  1.
</event>
<event>
 6    1  0.1108180E-002  0.1833171E+03  0.7546771E-02  0.1067806E+00
        -11   -1    0    0    0    0  0.00000000000E+00  0.00000000000E+00  0.18250000000E+03  0.18250000000E+03  0.00000000000E+00 0.  1.
         11   -1    0    0    0    0 -0.00000000000E+00 -0.00000000000E+00 -0.18250000000E+03  0.18250000000E+03  0.00000000000E+00 0. -1.
        -11    1    1    2    0    0 -0.37741398785E+01  0.25569562020E+01  0.18162568956E+03  0.18168289206E+03  0.00000000000E+00 0.  1.
         11    1    1    2    0    0  0.24630037925E+01  0.25306356707E+01 -0.15126576602E+03  0.15130698091E+03  0.00000000000E+00 0. -1.
        -15    1    1    2    0    0  0.24935416444E+00 -0.44516260323E+01 -0.66482019817E+01  0.81997238015E+01  0.17770000000E+01 0.  1.
         15    1    1    2    0    0  0.10617819215E+01 -0.63596584041E+00 -0.23711721564E+02  0.23810403229E+02  0.17770000000E+01 0. -1.
</event>
<event>
 6    1  0.1108180E-002  0.1832551E+03  0.7546771E-02  0.1067855E+00
        -11   -1    0    0    0    0  0.00000000000E+00  0.00000000000E+00  0.18250000000E+03  0.18250000000E+03  0.00000000000E+00 0.  1.
         11   -1    0    0    0    0 -0.00000000000E+00 -0.00000000000E+00 -0.18250000000E+03  0.18250000000E+03  0.00000000000E+00 0.  1.
        -11    1    1    2    0    0 -0.96176817949E-01  0.27564885028E+01  0.18172395400E+03  0.18174488421E+03  0.00000000000E+00 0.  1.
         11    1    1    2    0    0  0.46068879957E+01 -0.88723239715E+01 -0.67207087795E+02  0.67946553993E+02  0.00000000000E+00 0.  1.
        -15    1    1    2    0    0 -0.33187426681E+01  0.29229504270E+01 -0.15478916190E+02  0.16196057159E+02  0.17770000000E+01 0.  1.
         15    1    1    2    0    0 -0.11919685097E+01  0.31928850417E+01 -0.99037950014E+02  0.99112504639E+02  0.17770000000E+01 0. -1.
</event>
<event>
 6    1  0.1108180E-002  0.1828296E+03  0.7546771E-02  0.1068193E+00
        -11   -1    0    0    0    0  0.00000000000E+00  0.00000000000E+00  0.18250000000E+03  0.18250000000E+03  0.00000000000E+00 0.  1.
         11   -1    0    0    0    0 -0.00000000000E+00 -0.00000000000E+00 -0.18250000000E+03  0.18250000000E+03  0.00000000000E+00 0. -1.
        -11    1    1    2    0    0 -0.34360833175E+00 -0.47751989523E+01  0.18210751764E+03  0.18217043825E+03  0.00000000000E+00 0.  1.
         11    1    1    2    0    0 -0.32121290699E+01  0.90058957082E+00 -0.12480141322E+03  0.12484599143E+03  0.00000000000E+00 0. -1.
        -15    1    1    2    0    0  0.33467719428E+01  0.31028404789E+01 -0.18776415042E+02  0.19404638422E+02  0.17770000000E+01 0. -1.
         15    1    1    2    0    0  0.20896545888E+00  0.77176890259E+00 -0.38529689380E+02  0.38578931900E+02  0.17770000000E+01 0.  1.
</event>
<event>
 6    1  0.1108180E-002  0.1724140E+03  0.7546771E-02  0.1076779E+00
        -11   -1    0    0    0    0  0.00000000000E+00  0.00000000000E+00  0.18250000000E+03  0.18250000000E+03  0.00000000000E+00 0. -1.
         11   -1    0    0    0    0 -0.00000000000E+00 -0.00000000000E+00 -0.18250000000E+03  0.18250000000E+03  0.00000000000E+00 0. -1.
        -11    1    1    2    0    0 -0.19025230265E+01 -0.21141737549E+01  0.17140597170E+03  0.17142956705E+03  0.00000000000E+00 0. -1.
         11    1    1    2    0    0 -0.28716531651E+01 -0.80027462775E+00 -0.17342412630E+03  0.17344974608E+03  0.00000000000E+00 0. -1.
        -15    1    1    2    0    0  0.32105600451E+01 -0.25666247910E+01 -0.75877379489E+01  0.88106046786E+01  0.17770000000E+01 0. -1.
         15    1    1    2    0    0  0.15636161465E+01  0.54810731736E+01  0.96058925465E+01  0.11310082193E+02  0.17770000000E+01 0. -1.
</event>
<event>
 6    1  0.1108180E-002  0.1845824E+03  0.7546771E-02  0.1066809E+00
        -11   -1    0    0    0    0  0.00000000000E+00  0.00000000000E+00  0.18250000000E+03  0.18250000000E+03  0.00000000000E+00 0.  1.
         11   -1    0    0    0    0 -0.00000000000E+00 -0.00000000000E+00 -0.18250000000E+03  0.18250000000E+03  0.00000000000E+00 0.  1.
        -11    1    1    2    0    0  0.18499961260E+01 -0.22196179703E+01  0.18039441794E+03  0.18041755794E+03  0.00000000000E+00 0.  1.
         11    1    1    2    0    0  0.24136961860E+01 -0.97614922229E+00 -0.15487777482E+03  0.15489965761E+03  0.00000000000E+00 0.  1.
        -15    1    1    2    0    0 -0.61027389773E+01  0.59031982289E+01 -0.80864402343E+01  0.11859149085E+02  0.17770000000E+01 0. -1.
         15    1    1    2    0    0  0.18390466653E+01 -0.27074310364E+01 -0.17430202891E+02  0.17823635355E+02  0.17770000000E+01 0.  1.
</event>
<event>
 6    1  0.1108180E-002  0.1834037E+03  0.7546771E-02  0.1067738E+00
        -11   -1    0    0    0    0  0.00000000000E+00  0.00000000000E+00  0.18250000000E+03  0.18250000000E+03  0.00000000000E+00 0.  1.
         11   -1    0    0    0    0 -0.00000000000E+00 -0.00000000000E+00 -0.18250000000E+03  0.18250000000E+03  0.00000000000E+00 0. -1.
        -11    1    1    2    0    0  0.58586042230E+01 -0.52767665807E+00  0.99404064793E+02  0.99577958322E+02  0.00000000000E+00 0.  1.
         11    1    1    2    0    0 -0.24305319584E+01 -0.58254400934E+00 -0.18157906762E+03  0.18159626824E+03  0.00000000000E+00 0. -1.
        -15    1    1    2    0    0  0.44294451968E+01 -0.33199173710E+01  0.16166342389E+02  0.17179935720E+02  0.17770000000E+01 0. -1.
         15    1    1    2    0    0 -0.78575174614E+01  0.44301380385E+01  0.66008660434E+02  0.66645837717E+02  0.17770000000E+01 0.  1.
</event>
<event>
 6    1  0.1108180E-002  0.1835302E+03  0.7546771E-02  0.1067638E+00
        -11   -1    0    0    0    0  0.00000000000E+00  0.00000000000E+00  0.18250000000E+03  0.18250000000E+03  0.00000000000E+00 0. -1.
         11   -1    0    0    0    0 -0.00000000000E+00 -0.00000000000E+00 -0.18250000000E+03  0.18250000000E+03  0.00000000000E+00 0. -1.
        -11    1    1    2    0    0  0.50740202401E+01 -0.26072302338E+01  0.18138007109E+03  0.18146975924E+03  0.00000000000E+00 0. -1.
         11    1    1    2    0    0 -0.18045482424E+01 -0.28385631574E+01 -0.15773129707E+03  0.15776715726E+03  0.00000000000E+00 0. -1.
        -15    1    1    2    0    0 -0.42028116431E+01  0.40536496197E+01 -0.87684311866E+01  0.10683576902E+02  0.17770000000E+01 0. -1.
         15    1    1    2    0    0  0.93333964536E+00  0.13921437715E+01 -0.14880342832E+02  0.15079506589E+02  0.17770000000E+01 0. -1.
</event>
<event>
 6    1  0.1108180E-002  0.1932759E+03  0.7546771E-02  0.1060187E+00
        -11   -1    0    0    0    0  0.00000000000E+00  0.00000000000E+00  0.18250000000E+03  0.18250000000E+03  0.00000000000E+00 0. -1.
         11   -1    0    0    0    0 -0.00000000000E+00 -0.00000000000E+00 -0.18250000000E+03  0.18250000000E+03  0.00000000000E+00 0.  1.
        -11    1    1    2    0    0 -0.46951413094E+00 -0.55441572815E+01  0.10195968478E+03  0.10211138744E+03  0.00000000000E+00 0. -1.
         11    1    1    2    0    0 -0.26649295856E+01  0.15800237557E+01 -0.17169612781E+03  0.17172407702E+03  0.00000000000E+00 0.  1.
        -15    1    1    2    0    0  0.33328275257E+01 -0.16537714353E+02  0.68476441353E+02  0.70546328641E+02  0.17770000000E+01 0.  1.
         15    1    1    2    0    0 -0.19838380921E+00  0.20501847879E+02  0.12600016703E+01  0.20618206900E+02  0.17770000000E+01 0. -1.
</event>
<event>
 6    1  0.1108180E-002  0.1885758E+03  0.7546771E-02  0.1063719E+00
        -11   -1    0    0    0    0  0.00000000000E+00  0.00000000000E+00  0.18250000000E+03  0.18250000000E+03  0.00000000000E+00 0. -1.
         11   -1    0    0    0    0 -0.00000000000E+00 -0.00000000000E+00 -0.18250000000E+03  0.18250000000E+03  0.00000000000E+00 0. -1.
        -11    1    1    2    0    0  0.45496065593E+01 -0.95345454837E+01  0.17610761142E+03  0.17642419697E+03  0.00000000000E+00 0. -1.
         11    1    1    2    0    0 -0.10599851787E+02  0.96099540966E+01 -0.11980335022E+03  0.12065467583E+03  0.00000000000E+00 0. -1.
        -15    1    1    2    0    0  0.15512428773E+02 -0.54131273653E+01 -0.54265057813E+02  0.56725581731E+02  0.17770000000E+01 0.  1.
         15    1    1    2    0    0 -0.94621835449E+01  0.53377187523E+01 -0.20392033878E+01  0.11195545470E+02  0.17770000000E+01 0. -1.
</event>
<event>
 6    1  0.1108180E-002  0.1826528E+03  0.7546771E-02  0.1068333E+00
        -11   -1    0    0    0    0  0.00000000000E+00  0.00000000000E+00  0.18250000000E+03  0.18250000000E+03  0.00000000000E+00 0. -1.
         11   -1    0    0    0    0 -0.00000000000E+00 -0.00000000000E+00 -0.18250000000E+03  0.18250000000E+03  0.00000000000E+00 0. -1.
        -11    1    1    2    0    0  0.14158150346E+01  0.21385904573E+01  0.51767914728E+02  0.51831410328E+02  0.00000000000E+00 0. -1.
         11    1    1    2    0    0 -0.45626660119E+01  0.32734850085E+01 -0.18226070801E+03  0.18234719442E+03  0.00000000000E+00 0. -1.
        -15    1    1    2    0    0  0.25049109287E+01 -0.51342518947E+01  0.12045934175E+03  0.12060781842E+03  0.17770000000E+01 0. -1.
         15    1    1    2    0    0  0.64194004858E+00 -0.27782357108E+00  0.10033451538E+02  0.10213576834E+02  0.17770000000E+01 0. -1.
</event>
<event>
 6    1  0.1108180E-002  0.1846392E+03  0.7546771E-02  0.1066765E+00
        -11   -1    0    0    0    0  0.00000000000E+00  0.00000000000E+00  0.18250000000E+03  0.18250000000E+03  0.00000000000E+00 0.  1.
         11   -1    0    0    0    0 -0.00000000000E+00 -0.00000000000E+00 -0.18250000000E+03  0.18250000000E+03  0.00000000000E+00 0. -1.
        -11    1    1    2    0    0  0.13330556566E+01  0.25426525531E+01  0.16519389063E+03  0.16521883555E+03  0.00000000000E+00 0.  1.
         11    1    1    2    0    0  0.64105747461E+00  0.69066638229E+01 -0.18022733329E+03  0.18036076243E+03  0.00000000000E+00 0. -1.
        -15    1    1    2    0    0 -0.41491300141E+01 -0.67670920046E+01  0.81364381769E+01  0.11505136648E+02  0.17770000000E+01 0.  1.
         15    1    1    2    0    0  0.21750168829E+01 -0.26822243714E+01  0.68970044843E+01  0.79152653699E+01  0.17770000000E+01 0. -1.
</event>
<event>
 6    1  0.1108180E-002  0.1879441E+03  0.7546771E-02  0.1064202E+00
        -11   -1    0    0    0    0  0.00000000000E+00  0.00000000000E+00  0.18250000000E+03  0.18250000000E+03  0.00000000000E+00 0. -1.
         11   -1    0    0    0    0 -0.00000000000E+00 -0.00000000000E+00 -0.18250000000E+03  0.18250000000E+03  0.00000000000E+00 0.  1.
        -11    1    1    2    0    0  0.65204242568E+01  0.29383654495E+01  0.17691141582E+03  0.17705592046E+03  0.00000000000E+00 0. -1.
         11    1    1    2    0    0  0.65638211165E+01 -0.30382096212E+01 -0.12555072873E+03  0.12575889611E+03  0.00000000000E+00 0.  1.
        -15    1    1    2    0    0 -0.41355664069E+01 -0.26530061803E+01  0.36382259610E+01  0.63667706447E+01  0.17770000000E+01 0. -1.
         15    1    1    2    0    0 -0.89486789664E+01  0.27528503520E+01 -0.54998913048E+02  0.55818412785E+02  0.17770000000E+01 0.  1.
</event>
<event>
 6    1  0.1108180E-002  0.1826192E+03  0.7546771E-02  0.1068360E+00
        -11   -1    0    0    0    0  0.00000000000E+00  0.00000000000E+00  0.18250000000E+03  0.18250000000E+03  0.00000000000E+00 0.  1.
         11   -1    0    0    0    0 -0.00000000000E+00 -0.00000000000E+00 -0.18250000000E+03  0.18250000000E+03  0.00000000000E+00 0. -1.
        -11    1    1    2    0    0  0.10319986846E+01  0.17621403704E+01  0.10494290284E+03  0.10496276967E+03  0.00000000000E+00 0.  1.
         11    1    1    2    0    0  0.28586981752E+01 -0.30460628700E+01 -0.18233293409E+03  0.18238078163E+03  0.00000000000E+00 0. -1.
        -15    1    1    2    0    0 -0.33781220243E+01  0.11342574591E+01  0.34992323697E+02  0.35218158600E+02  0.17770000000E+01 0.  1.
         15    1    1    2    0    0 -0.51257483550E+00  0.14966504048E+00  0.42397707552E+02  0.42438290108E+02  0.17770000000E+01 0.  1.
</event>
<event>
 6    1  0.1108180E-002  0.1855792E+03  0.7546771E-02  0.1066030E+00
        -11   -1    0    0    0    0  0.00000000000E+00  0.00000000000E+00  0.18250000000E+03  0.18250000000E+03  0.00000000000E+00 0.  1.
         11   -1    0    0    0    0 -0.00000000000E+00 -0.00000000000E+00 -0.18250000000E+03  0.18250000000E+03  0.00000000000E+00 0.  1.
        -11    1    1    2    0    0  0.77040098591E+01  0.37076201262E+00  0.17925496387E+03  0.17942082183E+03  0.00000000000E+00 0.  1.
         11    1    1    2    0    0 -0.10960788848E+02  0.14085552079E+01 -0.16066047452E+03  0.16104009126E+03  0.00000000000E+00 0.  1.
        -15    1    1    2    0    0  0.63216745813E+01 -0.36115208976E+01 -0.19100946914E+02  0.20518541729E+02  0.17770000000E+01 0.  1.
         15    1    1    2    0    0 -0.30648955921E+01  0.18322036771E+01  0.50645755933E+00  0.40205451825E+01  0.17770000000E+01 0. -1.
</event>
<event>
 6    1  0.1108180E-002  0.1838051E+03  0.7546771E-02  0.1067421E+00
        -11   -1    0    0    0    0  0.00000000000E+00  0.00000000000E+00  0.18250000000E+03  0.18250000000E+03  0.00000000000E+00 0.  1.
         11   -1    0    0    0    0 -0.00000000000E+00 -0.00000000000E+00 -0.18250000000E+03  0.18250000000E+03  0.00000000000E+00 0. -1.
        -11    1    1    2    0    0 -0.30744315773E+01  0.10230257689E+01  0.18116590751E+03  0.18119488060E+03  0.00000000000E+00 0.  1.
         11    1    1    2    0    0  0.13797842606E+01 -0.14420808804E+01 -0.14039677638E+03  0.14041096189E+03  0.00000000000E+00 0. -1.
        -15    1    1    2    0    0 -0.63624322685E+01  0.22216420018E+00 -0.18383461117E+02  0.19535589905E+02  0.17770000000E+01 0. -1.
         15    1    1    2    0    0  0.80570795853E+01  0.19689091136E+00 -0.22385670014E+02  0.23858567611E+02  0.17770000000E+01 0.  1.
</event>
<event>
 6    1  0.1108180E-002  0.1870628E+03  0.7546771E-02  0.1064880E+00
        -11   -1    0    0    0    0  0.00000000000E+00  0.00000000000E+00  0.18250000000E+03  0.18250000000E+03  0.00000000000E+00 0.  1.
         11   -1    0    0    0    0 -0.00000000000E+00 -0.00000000000E+00 -0.18250000000E+03  0.18250000000E+03  0.00000000000E+00 0.  1.
        -11    1    1    2    0    0 -0.21653190362E+01 -0.28350707744E+00  0.10940798145E+03  0.10942977377E+03  0.00000000000E+00 0.  1.
         11    1    1    2    0    0 -0.78322203341E+01  0.40844526977E+01 -0.17771784975E+03  0.17793723767E+03  0.00000000000E+00 0.  1.
        -15    1    1    2    0    0 -0.86758196348E+00 -0.11502621211E+02  0.61447335655E+02  0.62545949359E+02  0.17770000000E+01 0. -1.
         15    1    1    2    0    0  0.10865121334E+02  0.77016755904E+01  0.68625326472E+01  0.15087039200E+02  0.17770000000E+01 0.  1.
</event>
<event>
 6    1  0.1108180E-002  0.1828678E+03  0.7546771E-02  0.1068162E+00
        -11   -1    0    0    0    0  0.00000000000E+00  0.00000000000E+00  0.18250000000E+03  0.18250000000E+03  0.00000000000E+00 0. -1.
         11   -1    0    0    0    0 -0.00000000000E+00 -0.00000000000E+00 -0.18250000000E+03  0.18250000000E+03  0.00000000000E+00 0.  1.
        -11    1    1    2    0    0 -0.45236817197E+00  0.10545294354E+01  0.13897540337E+02  0.13944830466E+02  0.00000000000E+00 0. -1.
         11    1    1    2    0    0  0.82952538077E+01 -0.65935471373E+01 -0.18182365424E+03  0.18213216998E+03  0.00000000000E+00 0.  1.
        -15    1    1    2    0    0 -0.80054034065E+01  0.46114452928E+00  0.37635533489E+02  0.38521296032E+02  0.17770000000E+01 0.  1.
         15    1    1    2    0    0  0.16251777080E+00  0.50778731727E+01  0.13029058041E+03  0.13040170352E+03  0.17770000000E+01 0. -1.
</event>
<event>
 6    1  0.1108180E-002  0.1782284E+03  0.7546771E-02  0.1071907E+00
        -11   -1    0    0    0    0  0.00000000000E+00  0.00000000000E+00  0.18250000000E+03  0.18250000000E+03  0.00000000000E+00 0. -1.
         11   -1    0    0    0    0 -0.00000000000E+00 -0.00000000000E+00 -0.18250000000E+03  0.18250000000E+03  0.00000000000E+00 0.  1.
        -11    1    1    2    0    0  0.30578294075E+01  0.15357205051E+01  0.17784651539E+03  0.17787943050E+03  0.00000000000E+00 0. -1.
         11    1    1    2    0    0  0.41009816625E+01 -0.54092874518E+00 -0.17860348624E+03  0.17865138106E+03  0.00000000000E+00 0.  1.
        -15    1    1    2    0    0 -0.32301356510E+01  0.94010459865E-01 -0.76950530459E+00  0.37672910299E+01  0.17770000000E+01 0. -1.
         15    1    1    2    0    0 -0.39286754190E+01 -0.10888022198E+01  0.15264761550E+01  0.47018974120E+01  0.17770000000E+01 0.  1.
</event>
<event>
 6    1  0.1108180E-002  0.1843714E+03  0.7546771E-02  0.1066975E+00
        -11   -1    0    0    0    0  0.00000000000E+00  0.00000000000E+00  0.18250000000E+03  0.18250000000E+03  0.00000000000E+00 0.  1.
         11   -1    0    0    0    0 -0.00000000000E+00 -0.00000000000E+00 -0.18250000000E+03  0.18250000000E+03  0.00000000000E+00 0.  1.
        -11    1    1    2    0    0 -0.86085101506E+01 -0.43964914600E+01  0.18036973815E+03  0.18062856370E+03  0.00000000000E+00 0.  1.
         11    1    1    2    0    0 -0.96755475153E+00  0.69435143888E+01 -0.15320439911E+03  0.15336471713E+03  0.00000000000E+00 0.  1.
        -15    1    1    2    0    0  0.71028784295E+01 -0.47555776979E+01 -0.93254880255E+01  0.12774539410E+02  0.17770000000E+01 0. -1.
         15    1    1    2    0    0  0.24731864726E+01  0.22085547691E+01 -0.17839851019E+02  0.18232179762E+02  0.17770000000E+01 0.  1.
</event>
<event>
 6    1  0.1108180E-002  0.1843626E+03  0.7546771E-02  0.1066982E+00
        -11   -1    0    0    0    0  0.00000000000E+00  0.00000000000E+00  0.18250000000E+03  0.18250000000E+03  0.00000000000E+00 0.  1.
         11   -1    0    0    0    0 -0.00000000000E+00 -0.00000000000E+00 -0.18250000000E+03  0.18250000000E+03  0.00000000000E+00 0. -1.
        -11    1    1    2    0    0  0.39024935738E+01 -0.53013077748E+01  0.14251050872E+03  0.14266246323E+03  0.00000000000E+00 0.  1.
         11    1    1    2    0    0 -0.18372560017E+01  0.23203235434E+01 -0.18061312541E+03  0.18063737288E+03  0.00000000000E+00 0. -1.
        -15    1    1    2    0    0 -0.39737117460E+01  0.53724356262E+01  0.37473931951E+02  0.38106518530E+02  0.17770000000E+01 0.  1.
         15    1    1    2    0    0  0.19084741739E+01 -0.23914513949E+01  0.62868473905E+00  0.35936453564E+01  0.17770000000E+01 0.  1.
</event>
<event>
 6    1  0.1108180E-002  0.1829222E+03  0.7546771E-02  0.1068119E+00
        -11   -1    0    0    0    0  0.00000000000E+00  0.00000000000E+00  0.18250000000E+03  0.18250000000E+03  0.00000000000E+00 0.  1.
         11   -1    0    0    0    0 -0.00000000000E+00 -0.00000000000E+00 -0.18250000000E+03  0.18250000000E+03  0.00000000000E+00 0. -1.
        -11    1    1    2    0    0 -0.79824429505E+00  0.38592318306E+01  0.18203518458E+03  0.18207783854E+03  0.00000000000E+00 0.  1.
         11    1    1    2    0    0  0.59628817406E+00 -0.18831253877E+01 -0.13901405948E+03  0.13902809231E+03  0.00000000000E+00 0. -1.
        -15    1    1    2    0    0 -0.13509625148E+01 -0.27793900907E+00 -0.29117256038E+01  0.36794326738E+01  0.17770000000E+01 0.  1.
         15    1    1    2    0    0  0.15529186358E+01 -0.16981674338E+01 -0.40109399500E+02  0.40214636467E+02  0.17770000000E+01 0. -1.
</event>
<event>
 6    1  0.1108180E-002  0.1839289E+03  0.7546771E-02  0.1067323E+00
        -11   -1    0    0    0    0  0.00000000000E+00  0.00000000000E+00  0.18250000000E+03  0.18250000000E+03  0.00000000000E+00 0.  1.
         11   -1    0    0    0    0 -0.00000000000E+00 -0.00000000000E+00 -0.18250000000E+03  0.18250000000E+03  0.00000000000E+00 0. -1.
        -11    1    1    2    0    0 -0.33142051922E+01 -0.10453645430E+02  0.18073867896E+03  0.18107107094E+03  0.00000000000E+00 0.  1.
         11    1    1    2    0    0 -0.12234311804E+01 -0.17966716596E+01 -0.40294080620E+02  0.40352667147E+02  0.00000000000E+00 0. -1.
        -15    1    1    2    0    0  0.24270886826E+01  0.11485414866E+01 -0.61324094333E+00  0.32777584527E+01  0.17770000000E+01 0.  1.
         15    1    1    2    0    0  0.21105476901E+01  0.11101775603E+02 -0.13983135740E+03  0.14029850346E+03  0.17770000000E+01 0. -1.
</event>
<event>
 6    1  0.1108180E-002  0.1871947E+03  0.7546771E-02  0.1064778E+00
        -11   -1    0    0    0    0  0.00000000000E+00  0.00000000000E+00  0.18250000000E+03  0.18250000000E+03  0.00000000000E+00 0. -1.
         11   -1    0    0    0    0 -0.00000000000E+00 -0.00000000000E+00 -0.18250000000E+03  0.18250000000E+03  0.00000000000E+00 0.  1.
        -11    1    1    2    0    0  0.36310961738E+01 -0.43299144630E+00  0.17776773394E+03  0.17780534180E+03  0.00000000000E+00 0. -1.
         11    1    1    2    0    0  0.42239108822E+00 -0.20358714996E+01 -0.15341768991E+03  0.15343177886E+03  0.00000000000E+00 0.  1.
        -15    1    1    2    0    0 -0.39276462372E+01 -0.11361284930E+01  0.34726926219E+01  0.56510632596E+01  0.17770000000E+01 0. -1.
         15    1    1    2    0    0 -0.12584102484E+00  0.36049914389E+01 -0.27822736659E+02  0.28111816082E+02  0.17770000000E+01 0.  1.
</event>
<event>
 6    1  0.1108180E-002  0.1837255E+03  0.7546771E-02  0.1067483E+00
        -11   -1    0    0    0    0  0.00000000000E+00  0.00000000000E+00  0.18250000000E+03  0.18250000000E+03  0.00000000000E+00 0. -1.
         11   -1    0    0    0    0 -0.00000000000E+00 -0.00000000000E+00 -0.18250000000E+03  0.18250000000E+03  0.00000000000E+00 0.  1.
        -11    1    1    2    0    0 -0.40725978561E+01 -0.12624279394E+00  0.15064503493E+03  0.15070012787E+03  0.00000000000E+00 0. -1.
         11    1    1    2    0    0 -0.32156900952E+01 -0.12610369034E+01 -0.18124154213E+03  0.18127445344E+03  0.00000000000E+00 0.  1.
        -15    1    1    2    0    0  0.73120510480E+01  0.41017937282E+01  0.26167275733E+02  0.27534975043E+02  0.17770000000E+01 0.  1.
         15    1    1    2    0    0 -0.23763096728E-01 -0.27145140308E+01  0.44292314611E+01  0.54904436473E+01  0.17770000000E+01 0. -1.
</event>
<event>
 6    1  0.1108180E-002  0.1759800E+03  0.7546771E-02  0.1073767E+00
        -11   -1    0    0    0    0  0.00000000000E+00  0.00000000000E+00  0.18250000000E+03  0.18250000000E+03  0.00000000000E+00 0. -1.
         11   -1    0    0    0    0 -0.00000000000E+00 -0.00000000000E+00 -0.18250000000E+03  0.18250000000E+03  0.00000000000E+00 0.  1.
        -11    1    1    2    0    0  0.16853853776E+01 -0.63715691132E+01  0.17538006840E+03  0.17550386266E+03  0.00000000000E+00 0. -1.
         11    1    1    2    0    0  0.89099306471E+00 -0.22544450179E+01 -0.17655653842E+03  0.17657317930E+03  0.00000000000E+00 0.  1.
        -15    1    1    2    0    0 -0.16655643950E+01  0.10047654481E+02  0.15130601590E+01  0.10448758078E+02  0.17770000000E+01 0. -1.
         15    1    1    2    0    0 -0.91081404734E+00 -0.14216403501E+01 -0.33659014498E+00  0.24741999595E+01  0.17770000000E+01 0.  1.
</event>
<event>
 6    1  0.1108180E-002  0.1841478E+03  0.7546771E-02  0.1067151E+00
        -11   -1    0    0    0    0  0.00000000000E+00  0.00000000000E+00  0.18250000000E+03  0.18250000000E+03  0.00000000000E+00 0. -1.
         11   -1    0    0    0    0 -0.00000000000E+00 -0.00000000000E+00 -0.18250000000E+03  0.18250000000E+03  0.00000000000E+00 0. -1.
        -11    1    1    2    0    0 -0.36769457310E+01 -0.87588683831E+00  0.94712465034E+02  0.94787858613E+02  0.00000000000E+00 0. -1.
         11    1    1    2    0    0  0.33594034513E+01 -0.22543916476E+01 -0.18080696695E+03  0.18085222467E+03  0.00000000000E+00 0. -1.
        -15    1    1    2    0    0  0.11985029961E+01  0.89775847537E+01  0.12665790967E+02  0.15672058807E+02  0.17770000000E+01 0.  1.
         15    1    1    2    0    0 -0.88096071649E+00 -0.58473062679E+01  0.73428710947E+02  0.73687857905E+02  0.17770000000E+01 0. -1.
</event>
<event>
 6    1  0.1108180E-002  0.1842010E+03  0.7546771E-02  0.1067109E+00
        -11   -1    0    0    0    0  0.00000000000E+00  0.00000000000E+00  0.18250000000E+03  0.18250000000E+03  0.00000000000E+00 0.  1.
         11   -1    0    0    0    0 -0.00000000000E+00 -0.00000000000E+00 -0.18250000000E+03  0.18250000000E+03  0.00000000000E+00 0.  1.
        -11    1    1    2    0    0 -0.34121478433E+01  0.18816689459E+01  0.18075703947E+03  0.18079903414E+03  0.00000000000E+00 0.  1.
         11    1    1    2    0    0  0.21441883183E+01  0.17460725406E+01 -0.15647030714E+03  0.15649473898E+03  0.00000000000E+00 0.  1.
        -15    1    1    2    0    0  0.38379497404E+01  0.14990167573E+01 -0.25618134572E+01  0.51669649348E+01  0.17770000000E+01 0.  1.
         15    1    1    2    0    0 -0.25699902154E+01 -0.51267582437E+01 -0.21724918870E+02  0.22539261938E+02  0.17770000000E+01 0. -1.
</event>
<event>
 6    1  0.1108180E-002  0.1947806E+03  0.7546771E-02  0.1059079E+00
        -11   -1    0    0    0    0  0.00000000000E+00  0.00000000000E+00  0.18250000000E+03  0.18250000000E+03  0.00000000000E+00 0.  1.
         11   -1    0    0    0    0 -0.00000000000E+00 -0.00000000000E+00 -0.18250000000E+03  0.18250000000E+03  0.00000000000E+00 0. -1.
        -11    1    1    2    0    0 -0.14011302874E+02 -0.23911575996E+01  0.11526096551E+03  0.11613407946E+03  0.00000000000E+00 0.  1.
         11    1    1    2    0    0  0.11465613321E+02  0.82882612432E+00 -0.16983082993E+03  0.17021944083E+03  0.00000000000E+00 0. -1.
        -15    1    1    2    0    0  0.16099295561E+02 -0.22008493515E+02  0.37830511370E+02  0.46667616437E+02  0.17770000000E+01 0.  1.
         15    1    1    2    0    0 -0.13553606007E+02  0.23570824991E+02  0.16739353049E+02  0.31978863270E+02  0.17770000000E+01 0. -1.
</event>
<event>
 6    1  0.1108180E-002  0.1830081E+03  0.7546771E-02  0.1068051E+00
        -11   -1    0    0    0    0  0.00000000000E+00  0.00000000000E+00  0.18250000000E+03  0.18250000000E+03  0.00000000000E+00 0. -1.
         11   -1    0    0    0    0 -0.00000000000E+00 -0.00000000000E+00 -0.18250000000E+03  0.18250000000E+03  0.00000000000E+00 0. -1.
        -11    1    1    2    0    0  0.49363849347E+01  0.11663992736E+01  0.18192122232E+03  0.18199192156E+03  0.00000000000E+00 0. -1.
         11    1    1    2    0    0 -0.15936031276E+01  0.69562309929E+01 -0.10751653840E+03  0.10775311945E+03  0.00000000000E+00 0. -1.
        -15    1    1    2    0    0  0.20916779145E+00 -0.32560679088E+01 -0.12726222639E+02  0.13257458318E+02  0.17770000000E+01 0. -1.
         15    1    1    2    0    0 -0.35519495986E+01 -0.48665623576E+01 -0.61678461280E+02  0.61997500675E+02  0.17770000000E+01 0.  1.
</event>
<event>
 6    1  0.1108180E-002  0.1837740E+03  0.7546771E-02  0.1067445E+00
        -11   -1    0    0    0    0  0.00000000000E+00  0.00000000000E+00  0.18250000000E+03  0.18250000000E+03  0.00000000000E+00 0. -1.
         11   -1    0    0    0    0 -0.00000000000E+00 -0.00000000000E+00 -0.18250000000E+03  0.18250000000E+03  0.00000000000E+00 0.  1.
        -11    1    1    2    0    0  0.49582866774E+01 -0.28632861224E+01  0.18113549784E+03  0.18122596831E+03  0.00000000000E+00 0. -1.
         11    1    1    2    0    0 -0.26539964442E+01  0.37781324333E+00 -0.17180249496E+03  0.17182340852E+03  0.00000000000E+00 0.  1.
        -15    1    1    2    0    0 -0.17120753574E+01  0.84106774262E+00 -0.35256330015E+00  0.26307084327E+01  0.17770000000E+01 0. -1.
         15    1    1    2    0    0 -0.59221487585E+00  0.16444051364E+01 -0.89804395788E+01  0.93199147389E+01  0.17770000000E+01 0.  1.
</event>
<event>
 6    1  0.1108180E-002  0.1841819E+03  0.7546771E-02  0.1067124E+00
        -11   -1    0    0    0    0  0.00000000000E+00  0.00000000000E+00  0.18250000000E+03  0.18250000000E+03  0.00000000000E+00 0.  1.
         11   -1    0    0    0    0 -0.00000000000E+00 -0.00000000000E+00 -0.18250000000E+03  0.18250000000E+03  0.00000000000E+00 0. -1.
        -11    1    1    2    0    0  0.13824849041E+01  0.59987853601E+01  0.10427812447E+03  0.10445967611E+03  0.00000000000E+00 0.  1.
         11    1    1    2    0    0  0.41365827698E+01 -0.13389286131E+01 -0.18076581848E+03  0.18081809970E+03  0.00000000000E+00 0. -1.
        -15    1    1    2    0    0 -0.23442420936E+01 -0.43176009973E+01  0.27687708969E+01  0.59127802804E+01  0.17770000000E+01 0. -1.
         15    1    1    2    0    0 -0.31748255803E+01 -0.34225574975E+00  0.73718923113E+02  0.73809443911E+02  0.17770000000E+01 0.  1.
</event>
<event>
 6    1  0.1108180E-002  0.1831061E+03  0.7546771E-02  0.1067973E+00
        -11   -1    0    0    0    0  0.00000000000E+00  0.00000000000E+00  0.18250000000E+03  0.18250000000E+03  0.00000000000E+00 0.  1.
         11   -1    0    0    0    0 -0.00000000000E+00 -0.00000000000E+00 -0.18250000000E+03  0.18250000000E+03  0.00000000000E+00 0.  1.
        -11    1    1    2    0    0 -0.21508949505E+01 -0.15640090943E+01  0.18187450666E+03  0.18189394890E+03  0.00000000000E+00 0.  1.
         11    1    1    2    0    0 -0.24613442864E+01  0.39614662419E+00 -0.64839928877E+02  0.64887838033E+02  0.00000000000E+00 0.  1.
        -15    1    1    2    0    0  0.87482345825E+01  0.39483214274E+01 -0.97240208832E+02  0.97728894362E+02  0.17770000000E+01 0.  1.
         15    1    1    2    0    0 -0.41359953455E+01 -0.27804589573E+01 -0.19794368955E+02  0.20489318702E+02  0.17770000000E+01 0. -1.
</event>
<event>
 6    1  0.1108180E-002  0.1876663E+03  0.7546771E-02  0.1064415E+00
        -11   -1    0    0    0    0  0.00000000000E+00  0.00000000000E+00  0.18250000000E+03  0.18250000000E+03  0.00000000000E+00 0. -1.
         11   -1    0    0    0    0 -0.00000000000E+00 -0.00000000000E+00 -0.18250000000E+03  0.18250000000E+03  0.00000000000E+00 0.  1.
        -11    1    1    2    0    0  0.19882921357E+01  0.69941221611E+00  0.62036423136E+02  0.62072218250E+02  0.00000000000E+00 0. -1.
         11    1    1    2    0    0 -0.17105118031E+02  0.51450232951E+02 -0.16884176798E+03  0.17733373664E+03  0.00000000000E+00 0.  1.
        -15    1    1    2    0    0  0.19621626805E+02 -0.55775711309E+02  0.10181621730E+03  0.11775244390E+03  0.17770000000E+01 0. -1.
         15    1    1    2    0    0 -0.45048009098E+01  0.36260661411E+01  0.49891275439E+01  0.78416012106E+01  0.17770000000E+01 0.  1.
</event>
<event>
 6    1  0.1108180E-002  0.1855961E+03  0.7546771E-02  0.1066017E+00
        -11   -1    0    0    0    0  0.00000000000E+00  0.00000000000E+00  0.18250000000E+03  0.18250000000E+03  0.00000000000E+00 0.  1.
         11   -1    0    0    0    0 -0.00000000000E+00 -0.00000000000E+00 -0.18250000000E+03  0.18250000000E+03  0.00000000000E+00 0.  1.
        -11    1    1    2    0    0  0.84616644964E+01  0.48132420782E+01  0.17913959965E+03  0.17940391085E+03  0.00000000000E+00 0.  1.
         11    1    1    2    0    0  0.22938178566E+01 -0.48765833009E+01 -0.15039725519E+03  0.15049377739E+03  0.00000000000E+00 0.  1.
        -15    1    1    2    0    0 -0.71008650712E+01  0.79043831677E+01 -0.11678976275E+02  0.15888919846E+02  0.17770000000E+01 0. -1.
         15    1    1    2    0    0 -0.36546172818E+01 -0.78410419449E+01 -0.17063368179E+02  0.19213391915E+02  0.17770000000E+01 0.  1.
</event>
<event>
 6    1  0.1108180E-002  0.2149230E+03  0.7546771E-02  0.1045226E+00
        -11   -1    0    0    0    0  0.00000000000E+00  0.00000000000E+00  0.18250000000E+03  0.18250000000E+03  0.00000000000E+00 0.  1.
         11   -1    0    0    0    0 -0.00000000000E+00 -0.00000000000E+00 -0.18250000000E+03  0.18250000000E+03  0.00000000000E+00 0.  1.
        -11    1    1    2    0    0  0.22096296862E+01 -0.13594394981E+02  0.14944365058E+03  0.15007696271E+03  0.00000000000E+00 0.  1.
         11    1    1    2    0    0  0.19748758884E+01  0.58973223690E+00 -0.13750562502E+03  0.13752107050E+03  0.00000000000E+00 0.  1.
        -15    1    1    2    0    0 -0.37724170490E+01  0.22549899195E+01  0.31888783662E+02  0.32239236380E+02  0.17770000000E+01 0. -1.
         15    1    1    2    0    0 -0.41208852565E+00  0.10749672825E+02 -0.43826809218E+02  0.45162730409E+02  0.17770000000E+01 0.  1.
</event>
<event>
 6    1  0.1108180E-002  0.1867203E+03  0.7546771E-02  0.1065144E+00
        -11   -1    0    0    0    0  0.00000000000E+00  0.00000000000E+00  0.18250000000E+03  0.18250000000E+03  0.00000000000E+00 0.  1.
         11   -1    0    0    0    0 -0.00000000000E+00 -0.00000000000E+00 -0.18250000000E+03  0.18250000000E+03  0.00000000000E+00 0.  1.
        -11    1    1    2    0    0 -0.30999165279E+01 -0.70907498670E+00  0.14479201768E+03  0.14482693346E+03  0.00000000000E+00 0.  1.
         11    1    1    2    0    0  0.27079107869E+01 -0.16357867944E+01 -0.17825160308E+03  0.17827967517E+03  0.00000000000E+00 0.  1.
        -15    1    1    2    0    0 -0.46199587191E+01 -0.94792718005E+01  0.81116784800E+01  0.13422282563E+02  0.17770000000E+01 0.  1.
         15    1    1    2    0    0  0.50119644600E+01  0.11824133582E+02  0.25347906916E+02  0.28471108807E+02  0.17770000000E+01 0. -1.
</event>
<event>
 6    1  0.1108180E-002  0.1904088E+03  0.7546771E-02  0.1062328E+00
        -11   -1    0    0    0    0  0.00000000000E+00  0.00000000000E+00  0.18250000000E+03  0.18250000000E+03  0.00000000000E+00 0.  1.
         11   -1    0    0    0    0 -0.00000000000E+00 -0.00000000000E+00 -0.18250000000E+03  0.18250000000E+03  0.00000000000E+00 0.  1.
        -11    1    1    2    0    0 -0.31708869586E+01 -0.25547022246E+01  0.17018267389E+03  0.17023138230E+03  0.00000000000E+00 0.  1.
         11    1    1    2    0    0  0.29721700454E+01  0.49124058341E+01 -0.17449671968E+03  0.17459115300E+03  0.00000000000E+00 0.  1.
        -15    1    1    2    0    0 -0.69792108845E+01 -0.56953323709E+01 -0.25730795461E+01  0.95354424509E+01  0.17770000000E+01 0.  1.
         15    1    1    2    0    0  0.71779277976E+01  0.33376287614E+01  0.68871253396E+01  0.10642022254E+02  0.17770000000E+01 0. -1.
</event>
<event>
 6    1  0.1108180E-002  0.1869638E+03  0.7546771E-02  0.1064956E+00
        -11   -1    0    0    0    0  0.00000000000E+00  0.00000000000E+00  0.18250000000E+03  0.18250000000E+03  0.00000000000E+00 0.  1.
         11   -1    0    0    0    0 -0.00000000000E+00 -0.00000000000E+00 -0.18250000000E+03  0.18250000000E+03  0.00000000000E+00 0. -1.
        -11    1    1    2    0    0  0.12097123371E+01 -0.24201121726E+01  0.16128458637E+03  0.16130727866E+03  0.00000000000E+00 0.  1.
         11    1    1    2    0    0 -0.42988704338E+01 -0.78654826221E+01 -0.17781036271E+03  0.17803615136E+03  0.00000000000E+00 0. -1.
        -15    1    1    2    0    0  0.86775115837E+01  0.80558534821E+01  0.59741466020E+01  0.13380737619E+02  0.17770000000E+01 0. -1.
         15    1    1    2    0    0 -0.55883534870E+01  0.22297413126E+01  0.10551629739E+02  0.12275832362E+02  0.17770000000E+01 0.  1.
</event>
<event>
 6    1  0.1108180E-002  0.1829335E+03  0.7546771E-02  0.1068110E+00
        -11   -1    0    0    0    0  0.00000000000E+00  0.00000000000E+00  0.18250000000E+03  0.18250000000E+03  0.00000000000E+00 0. -1.
         11   -1    0    0    0    0 -0.00000000000E+00 -0.00000000000E+00 -0.18250000000E+03  0.18250000000E+03  0.00000000000E+00 0. -1.
        -11    1    1    2    0    0 -0.18701549170E+01  0.22752710825E+01  0.78788381936E+02  0.78843411050E+02  0.00000000000E+00 0. -1.
         11    1    1    2    0    0  0.28355485668E+01  0.26193318050E+01 -0.18202561306E+03  0.18206654016E+03  0.00000000000E+00 0. -1.
        -15    1    1    2    0    0 -0.26566589424E+01 -0.41523875295E+01  0.98995710830E+02  0.99134296037E+02  0.17770000000E+01 0. -1.
         15    1    1    2    0    0  0.16912652926E+01 -0.74221535801E+00  0.42415202967E+01  0.49557527537E+01  0.17770000000E+01 0.  1.
</event>
<event>
 6    1  0.1108180E-002  0.1831007E+03  0.7546771E-02  0.1067978E+00
        -11   -1    0    0    0    0  0.00000000000E+00  0.00000000000E+00  0.18250000000E+03  0.18250000000E+03  0.00000000000E+00 0.  1.
         11   -1    0    0    0    0 -0.00000000000E+00 -0.00000000000E+00 -0.18250000000E+03  0.18250000000E+03  0.00000000000E+00 0. -1.
        -11    1    1    2    0    0  0.31799087808E+01  0.22117426305E+01  0.18185806731E+03  0.18189931356E+03  0.00000000000E+00 0.  1.
         11    1    1    2    0    0  0.23457150775E+01 -0.10383787426E+01 -0.14752085699E+03  0.14754315930E+03  0.00000000000E+00 0. -1.
        -15    1    1    2    0    0 -0.53662030147E+01 -0.32138612584E+01 -0.23071244735E+02  0.23970087643E+02  0.17770000000E+01 0. -1.
         15    1    1    2    0    0 -0.15942084361E+00  0.20404973705E+01 -0.11265965586E+02  0.11587439497E+02  0.17770000000E+01 0. -1.
</event>
<event>
 6    1  0.1108180E-002  0.1765001E+03  0.7546771E-02  0.1073334E+00
        -11   -1    0    0    0    0  0.00000000000E+00  0.00000000000E+00  0.18250000000E+03  0.18250000000E+03  0.00000000000E+00 0.  1.
         11   -1    0    0    0    0 -0.00000000000E+00 -0.00000000000E+00 -0.18250000000E+03  0.18250000000E+03  0.00000000000E+00 0. -1.
        -11    1    1    2    0    0 -0.52348989059E+01  0.40372217003E+00  0.17709978406E+03  0.17717759642E+03  0.00000000000E+00 0.  1.
         11    1    1    2    0    0 -0.28667187315E+01  0.27217218679E+00 -0.17589475909E+03  0.17591832886E+03  0.00000000000E+00 0. -1.
        -15    1    1    2    0    0  0.82701306021E+01 -0.26601073114E+01 -0.20564225741E+01  0.91026278561E+01  0.17770000000E+01 0. -1.
         15    1    1    2    0    0 -0.16851296466E+00  0.19842129546E+01  0.85139759767E+00  0.28014468650E+01  0.17770000000E+01 0.  1.
</event>
<event>
 6    1  0.1108180E-002  0.1827037E+03  0.7546771E-02  0.1068293E+00
        -11   -1    0    0    0    0  0.00000000000E+00  0.00000000000E+00  0.18250000000E+03  0.18250000000E+03  0.00000000000E+00 0.  1.
         11   -1    0    0    0    0 -0.00000000000E+00 -0.00000000000E+00 -0.18250000000E+03  0.18250000000E+03  0.00000000000E+00 0.  1.
        -11    1    1    2    0    0  0.23814462423E+01 -0.45619158657E+01  0.18222364601E+03  0.18229629598E+03  0.00000000000E+00 0.  1.
         11    1    1    2    0    0 -0.95365503480E+00 -0.16489000184E+01 -0.32795367446E+02  0.32850638580E+02  0.00000000000E+00 0.  1.
        -15    1    1    2    0    0  0.12708943512E+01  0.33309949385E+01 -0.22425600280E+02  0.22776654202E+02  0.17770000000E+01 0. -1.
         15    1    1    2    0    0 -0.26986855587E+01  0.28798209456E+01 -0.12700267828E+03  0.12707641124E+03  0.17770000000E+01 0.  1.
</event>
<event>
 6    1  0.1108180E-002  0.1838995E+03  0.7546771E-02  0.1067346E+00
        -11   -1    0    0    0    0  0.00000000000E+00  0.00000000000E+00  0.18250000000E+03  0.18250000000E+03  0.00000000000E+00 0.  1.
         11   -1    0    0    0    0 -0.00000000000E+00 -0.00000000000E+00 -0.18250000000E+03  0.18250000000E+03  0.00000000000E+00 0. -1.
        -11    1    1    2    0    0 -0.29821757064E+01 -0.16599092108E+01  0.18106834321E+03  0.18110050685E+03  0.00000000000E+00 0.  1.
         11    1    1    2    0    0  0.33205876632E+01 -0.13233580573E+01 -0.89904585144E+02  0.89975618969E+02  0.00000000000E+00 0. -1.
        -15    1    1    2    0    0 -0.10154083710E+02  0.26895386358E+01 -0.65985887462E+02  0.66840362860E+02  0.17770000000E+01 0. -1.
         15    1    1    2    0    0  0.98156717530E+01  0.29372863229E+00 -0.25177870600E+02  0.27083511320E+02  0.17770000000E+01 0.  1.
</event>
<event>
 6    1  0.1108180E-002  0.1832954E+03  0.7546771E-02  0.1067823E+00
        -11   -1    0    0    0    0  0.00000000000E+00  0.00000000000E+00  0.18250000000E+03  0.18250000000E+03  0.00000000000E+00 0.  1.
         11   -1    0    0    0    0 -0.00000000000E+00 -0.00000000000E+00 -0.18250000000E+03  0.18250000000E+03  0.00000000000E+00 0.  1.
        -11    1    1    2    0    0  0.12555466686E+01 -0.21434716914E+01  0.15631866318E+03  0.15633840004E+03  0.00000000000E+00 0.  1.
         11    1    1    2    0    0 -0.90249447407E+00  0.48110318693E+01 -0.18163868694E+03  0.18170463152E+03  0.00000000000E+00 0.  1.
        -15    1    1    2    0    0  0.26731987892E+01 -0.14958768462E+00  0.19195286024E+02  0.19462402287E+02  0.17770000000E+01 0. -1.
         15    1    1    2    0    0 -0.30262509837E+01 -0.25179724932E+01  0.61247377321E+01  0.74945661502E+01  0.17770000000E+01 0.  1.
</event>
<event>
 6    1  0.1108180E-002  0.1834746E+03  0.7546771E-02  0.1067682E+00
        -11   -1    0    0    0    0  0.00000000000E+00  0.00000000000E+00  0.18250000000E+03  0.18250000000E+03  0.00000000000E+00 0. -1.
         11   -1    0    0    0    0 -0.00000000000E+00 -0.00000000000E+00 -0.18250000000E+03  0.18250000000E+03  0.00000000000E+00 0. -1.
        -11    1    1    2    0    0  0.16790511914E+01 -0.18329322050E+01  0.15944568062E+03  0.15946505549E+03  0.00000000000E+00 0. -1.
         11    1    1    2    0    0  0.10804831616E+01 -0.51642015768E+01 -0.18144872572E+03  0.18152541554E+03  0.00000000000E+00 0. -1.
        -15    1    1    2    0    0 -0.27204895680E+01  0.28508557723E+01  0.60819484535E+01  0.74616531757E+01  0.17770000000E+01 0. -1.
         15    1    1    2    0    0 -0.39044784986E-01  0.41462780096E+01  0.15921096643E+02  0.16547875790E+02  0.17770000000E+01 0.  1.
</event>
<event>
 6    1  0.1108180E-002  0.1839510E+03  0.7546771E-02  0.1067306E+00
        -11   -1    0    0    0    0  0.00000000000E+00  0.00000000000E+00  0.18250000000E+03  0.18250000000E+03  0.00000000000E+00 0. -1.
         11   -1    0    0    0    0 -0.00000000000E+00 -0.00000000000E+00 -0.18250000000E+03  0.18250000000E+03  0.00000000000E+00 0. -1.
        -11    1    1    2    0    0 -0.10118055589E+02 -0.11030232716E+02  0.18042923877E+03  0.18104903006E+03  0.00000000000E+00 0. -1.
         11    1    1    2    0    0 -0.94676585930E+00 -0.86838852657E+00 -0.61459641978E+02  0.61473067732E+02  0.00000000000E+00 0. -1.
        -15    1    1    2    0    0 -0.25975865040E+01  0.25011283004E+01 -0.79857668960E+02  0.79958790130E+02  0.17770000000E+01 0.  1.
         15    1    1    2    0    0  0.13662407952E+02  0.93974929422E+01 -0.39111927829E+02  0.42519112081E+02  0.17770000000E+01 0. -1.
</event>
<event>
 6    1  0.1108180E-002  0.1835302E+03  0.7546771E-02  0.1067638E+00
        -11   -1    0    0    0    0  0.00000000000E+00  0.00000000000E+00  0.18250000000E+03  0.18250000000E+03  0.00000000000E+00 0. -1.
         11   -1    0    0    0    0 -0.00000000000E+00 -0.00000000000E+00 -0.18250000000E+03  0.18250000000E+03  0.00000000000E+00 0. -1.
        -11    1    1    2    0    0  0.16982214328E+01 -0.28395345488E+01  0.18143961775E+03  0.18146978206E+03  0.00000000000E+00 0. -1.
         11    1    1    2    0    0  0.24857631280E+01  0.57003505916E+00 -0.17213525887E+03  0.17215414984E+03  0.00000000000E+00 0. -1.
        -15    1    1    2    0    0 -0.22780864659E+01  0.25438917299E+01 -0.46680243391E+01  0.60505572727E+01  0.17770000000E+01 0.  1.
         15    1    1    2    0    0 -0.19058980949E+01 -0.27439224027E+00 -0.46363345378E+01  0.53255108296E+01  0.17770000000E+01 0. -1.
</event>
<event>
 6    1  0.1108180E-002  0.1829675E+03  0.7546771E-02  0.1068083E+00
        -11   -1    0    0    0    0  0.00000000000E+00  0.00000000000E+00  0.18250000000E+03  0.18250000000E+03  0.00000000000E+00 0.  1.
         11   -1    0    0    0    0 -0.00000000000E+00 -0.00000000000E+00 -0.18250000000E+03  0.18250000000E+03  0.00000000000E+00 0.  1.
        -11    1    1    2    0    0 -0.39257929455E+01  0.16063677032E+01  0.18198305190E+03  0.18203247909E+03  0.00000000000E+00 0.  1.
         11    1    1    2    0    0 -0.23356176033E+01 -0.14909059831E+01 -0.13608809568E+03  0.13611630210E+03  0.00000000000E+00 0.  1.
        -15    1    1    2    0    0  0.56361540199E+01 -0.18409788492E+00 -0.19198923483E+02  0.20088716138E+02  0.17770000000E+01 0.  1.
         15    1    1    2    0    0  0.62525652886E+00  0.68636164763E-01 -0.26696032732E+02  0.26762502672E+02  0.17770000000E+01 0. -1.
</event>
<event>
 6    1  0.1108180E-002  0.1791046E+03  0.7546771E-02  0.1071190E+00
        -11   -1    0    0    0    0  0.00000000000E+00  0.00000000000E+00  0.18250000000E+03  0.18250000000E+03  0.00000000000E+00 0. -1.
         11   -1    0    0    0    0 -0.00000000000E+00 -0.00000000000E+00 -0.18250000000E+03  0.18250000000E+03  0.00000000000E+00 0. -1.
        -11    1    1    2    0    0 -0.60872284358E+00  0.27446382288E+01  0.18016332492E+03  0.18018525808E+03  0.00000000000E+00 0. -1.
         11    1    1    2    0    0 -0.32959637735E+01 -0.34876620037E+00 -0.17802881531E+03  0.17805966443E+03  0.00000000000E+00 0. -1.
        -15    1    1    2    0    0  0.14985778756E+01 -0.77573783370E+00  0.43895282000E+00  0.24895608878E+01  0.17770000000E+01 0. -1.
         15    1    1    2    0    0  0.24061087415E+01 -0.16201341948E+01 -0.25734624277E+01  0.42655166102E+01  0.17770000000E+01 0. -1.
</event>
<event>
 6    1  0.1108180E-002  0.1855513E+03  0.7546771E-02  0.1066052E+00
        -11   -1    0    0    0    0  0.00000000000E+00  0.00000000000E+00  0.18250000000E+03  0.18250000000E+03  0.00000000000E+00 0. -1.
         11   -1    0    0    0    0 -0.00000000000E+00 -0.00000000000E+00 -0.18250000000E+03  0.18250000000E+03  0.00000000000E+00 0. -1.
        -11    1    1    2    0    0  0.28597862441E+01 -0.39046824709E+01  0.17938342952E+03  0.17944871053E+03  0.00000000000E+00 0. -1.
         11    1    1    2    0    0 -0.51348877426E+00 -0.27149163330E+01 -0.17132206664E+03  0.17134434616E+03  0.00000000000E+00 0. -1.
        -15    1    1    2    0    0  0.13958179743E+01 -0.10828734369E+01 -0.36075249598E+01  0.43923670194E+01  0.17770000000E+01 0. -1.
         15    1    1    2    0    0 -0.37421154442E+01  0.77024722408E+01 -0.44538379232E+01  0.98145762957E+01  0.17770000000E+01 0.  1.
</event>
<event>
 6    1  0.1108180E-002  0.1859026E+03  0.7546771E-02  0.1065778E+00
        -11   -1    0    0    0    0  0.00000000000E+00  0.00000000000E+00  0.18250000000E+03  0.18250000000E+03  0.00000000000E+00 0. -1.
         11   -1    0    0    0    0 -0.00000000000E+00 -0.00000000000E+00 -0.18250000000E+03  0.18250000000E+03  0.00000000000E+00 0.  1.
        -11    1    1    2    0    0  0.42782899080E+01 -0.36207388394E+01  0.17900967919E+03  0.17909740020E+03  0.00000000000E+00 0. -1.
         11    1    1    2    0    0  0.14749885373E+01 -0.27154438485E+01 -0.10670113504E+03  0.10674587320E+03  0.00000000000E+00 0.  1.
        -15    1    1    2    0    0  0.42017169766E+00  0.88969388255E+00 -0.70516798550E+02  0.70546046709E+02  0.17770000000E+01 0.  1.
         15    1    1    2    0    0 -0.61734501429E+01  0.54464888054E+01 -0.17917456029E+01  0.86106798965E+01  0.17770000000E+01 0.  1.
</event>
<event>
 6    1  0.1108180E-002  0.1834855E+03  0.7546771E-02  0.1067673E+00
        -11   -1    0    0    0    0  0.00000000000E+00  0.00000000000E+00  0.18250000000E+03  0.18250000000E+03  0.00000000000E+00 0. -1.
         11   -1    0    0    0    0 -0.00000000000E+00 -0.00000000000E+00 -0.18250000000E+03  0.18250000000E+03  0.00000000000E+00 0. -1.
        -11    1    1    2    0    0  0.16527661991E+00  0.28012666594E+01  0.18149281284E+03  0.18151450500E+03  0.00000000000E+00 0. -1.
         11    1    1    2    0    0 -0.15529773297E+01 -0.21109248342E+01 -0.17149285230E+03  0.17151287454E+03  0.00000000000E+00 0. -1.
        -15    1    1    2    0    0  0.20658284559E+01 -0.26862557798E+01 -0.57649732404E+01  0.69192675036E+01  0.17770000000E+01 0.  1.
         15    1    1    2    0    0 -0.67812774609E+00  0.19959139546E+01 -0.42349873016E+01  0.50533529660E+01  0.17770000000E+01 0. -1.
</event>
<event>
 6    1  0.1108180E-002  0.1881154E+03  0.7546771E-02  0.1064071E+00
        -11   -1    0    0    0    0  0.00000000000E+00  0.00000000000E+00  0.18250000000E+03  0.18250000000E+03  0.00000000000E+00 0. -1.
         11   -1    0    0    0    0 -0.00000000000E+00 -0.00000000000E+00 -0.18250000000E+03  0.18250000000E+03  0.00000000000E+00 0.  1.
        -11    1    1    2    0    0  0.33232732049E+01 -0.11998144941E+01  0.16571365271E+03  0.16575131491E+03  0.00000000000E+00 0. -1.
         11    1    1    2    0    0 -0.52855321773E+01 -0.23713575249E+01 -0.17678974207E+03  0.17688463214E+03  0.00000000000E+00 0.  1.
        -15    1    1    2    0    0 -0.47592232479E+01  0.53967966563E+01 -0.17912435119E+01  0.76250837629E+01  0.17770000000E+01 0.  1.
         15    1    1    2    0    0  0.67214822202E+01 -0.18256246373E+01  0.12867332867E+02  0.14738969186E+02  0.17770000000E+01 0. -1.
</event>
<event>
 6    1  0.1108180E-002  0.1850026E+03  0.7546771E-02  0.1066480E+00
        -11   -1    0    0    0    0  0.00000000000E+00  0.00000000000E+00  0.18250000000E+03  0.18250000000E+03  0.00000000000E+00 0. -1.
         11   -1    0    0    0    0 -0.00000000000E+00 -0.00000000000E+00 -0.18250000000E+03  0.18250000000E+03  0.00000000000E+00 0. -1.
        -11    1    1    2    0    0  0.29134040607E+00  0.88709720246E+01  0.45762449322E+02  0.46615242055E+02  0.00000000000E+00 0. -1.
         11    1    1    2    0    0  0.28437654168E+01  0.75150805093E+01 -0.17981799360E+03  0.17999742848E+03  0.00000000000E+00 0. -1.
        -15    1    1    2    0    0  0.23835069530E+01 -0.24021903118E+02  0.83814095509E+02  0.87239287421E+02  0.17770000000E+01 0. -1.
         15    1    1    2    0    0 -0.55186127759E+01  0.76358505838E+01  0.50241448771E+02  0.51148042042E+02  0.17770000000E+01 0.  1.
</event>
<event>
 6    1  0.1108180E-002  0.1848440E+03  0.7546771E-02  0.1066604E+00
        -11   -1    0    0    0    0  0.00000000000E+00  0.00000000000E+00  0.18250000000E+03  0.18250000000E+03  0.00000000000E+00 0. -1.
         11   -1    0    0    0    0 -0.00000000000E+00 -0.00000000000E+00 -0.18250000000E+03  0.18250000000E+03  0.00000000000E+00 0. -1.
        -11    1    1    2    0    0  0.20199008300E+00  0.62464636702E+01  0.18004755005E+03  0.18015598627E+03  0.00000000000E+00 0. -1.
         11    1    1    2    0    0  0.97784059923E+00 -0.34180391338E+01 -0.16529522341E+03  0.16533345108E+03  0.00000000000E+00 0. -1.
        -15    1    1    2    0    0  0.21325867478E+01  0.40495176582E+01 -0.62268161002E+01  0.79295325994E+01  0.17770000000E+01 0. -1.
         15    1    1    2    0    0 -0.33124174300E+01 -0.68779421946E+01 -0.85255105393E+01  0.11581030050E+02  0.17770000000E+01 0.  1.
</event>
<event>
 6    1  0.1108180E-002  0.1835177E+03  0.7546771E-02  0.1067648E+00
        -11   -1    0    0    0    0  0.00000000000E+00  0.00000000000E+00  0.18250000000E+03  0.18250000000E+03  0.00000000000E+00 0. -1.
         11   -1    0    0    0    0 -0.00000000000E+00 -0.00000000000E+00 -0.18250000000E+03  0.18250000000E+03  0.00000000000E+00 0.  1.
        -11    1    1    2    0    0 -0.22090993000E+01  0.12721861447E+01  0.18146435197E+03  0.18148225702E+03  0.00000000000E+00 0. -1.
         11    1    1    2    0    0  0.20176434504E+01  0.33941989256E+01 -0.16552066145E+03  0.16556775302E+03  0.00000000000E+00 0.  1.
        -15    1    1    2    0    0 -0.41498387119E+00 -0.56614051044E+01 -0.99697572238E+01  0.11609371536E+02  0.17770000000E+01 0. -1.
         15    1    1    2    0    0  0.60643972085E+00  0.99502003411E+00 -0.59739332944E+01  0.63406184248E+01  0.17770000000E+01 0.  1.
</event>
<event>
 6    1  0.1108180E-002  0.1827037E+03  0.7546771E-02  0.1068293E+00
        -11   -1    0    0    0    0  0.00000000000E+00  0.00000000000E+00  0.18250000000E+03  0.18250000000E+03  0.00000000000E+00 0.  1.
         11   -1    0    0    0    0 -0.00000000000E+00 -0.00000000000E+00 -0.18250000000E+03  0.18250000000E+03  0.00000000000E+00 0. -1.
        -11    1    1    2    0    0  0.21899637062E+01 -0.31068784665E+01  0.18225669774E+03  0.18229633158E+03  0.00000000000E+00 0.  1.
         11    1    1    2    0    0  0.16771559219E+01  0.17311755926E+01 -0.12873294954E+03  0.12875551296E+03  0.00000000000E+00 0. -1.
        -15    1    1    2    0    0 -0.33609751944E+01  0.16269633473E+01 -0.46417126892E+02  0.46600971684E+02  0.17770000000E+01 0. -1.
         15    1    1    2    0    0 -0.50614443365E+00 -0.25126047349E+00 -0.71066213084E+01  0.73471837758E+01  0.17770000000E+01 0. -1.
</event>
<event>
 6    1  0.1108180E-002  0.2070589E+03  0.7546771E-02  0.1050430E+00
        -11   -1    0    0    0    0  0.00000000000E+00  0.00000000000E+00  0.18250000000E+03  0.18250000000E+03  0.00000000000E+00 0. -1.
         11   -1    0    0    0    0 -0.00000000000E+00 -0.00000000000E+00 -0.18250000000E+03  0.18250000000E+03  0.00000000000E+00 0.  1.
        -11    1    1    2    0    0  0.23071719374E+01  0.10279130168E+01  0.14062261626E+03  0.14064529800E+03  0.00000000000E+00 0. -1.
         11    1    1    2    0    0  0.15583212185E+02  0.12660118404E+02 -0.15665973723E+03  0.15794109145E+03  0.00000000000E+00 0.  1.
        -15    1    1    2    0    0 -0.20050480571E+02 -0.99462168007E+01 -0.20003966447E+02  0.30071006008E+02  0.17770000000E+01 0.  1.
         15    1    1    2    0    0  0.21600964483E+01 -0.37418146200E+01  0.36041087418E+02  0.36342604537E+02  0.17770000000E+01 0. -1.
</event>
<event>
 6    1  0.1108180E-002  0.1983148E+03  0.7546771E-02  0.1056520E+00
        -11   -1    0    0    0    0  0.00000000000E+00  0.00000000000E+00  0.18250000000E+03  0.18250000000E+03  0.00000000000E+00 0.  1.
         11   -1    0    0    0    0 -0.00000000000E+00 -0.00000000000E+00 -0.18250000000E+03  0.18250000000E+03  0.00000000000E+00 0. -1.
        -11    1    1    2    0    0 -0.96690487197E+00 -0.41207208292E+01  0.13060607915E+03  0.13067464618E+03  0.00000000000E+00 0.  1.
         11    1    1    2    0    0 -0.15483585762E+02 -0.52474114930E+01 -0.16588152864E+03  0.16668520720E+03  0.00000000000E+00 0. -1.
        -15    1    1    2    0    0  0.52341723403E+01 -0.66976429481E+01 -0.12929369397E+02  0.15575021770E+02  0.17770000000E+01 0.  1.
         15    1    1    2    0    0  0.11216318294E+02  0.16065775270E+02  0.48204818894E+02  0.52065124841E+02  0.17770000000E+01 0. -1.
</event>
<event>
 6    1  0.1108180E-002  0.1735352E+03  0.7546771E-02  0.1075823E+00
        -11   -1    0    0    0    0  0.00000000000E+00  0.00000000000E+00  0.18250000000E+03  0.18250000000E+03  0.00000000000E+00 0.  1.
         11   -1    0    0    0    0 -0.00000000000E+00 -0.00000000000E+00 -0.18250000000E+03  0.18250000000E+03  0.00000000000E+00 0. -1.
        -11    1    1    2    0    0 -0.16664874908E+01 -0.23555888468E+01  0.17600400383E+03  0.17602765505E+03  0.00000000000E+00 0.  1.
         11    1    1    2    0    0  0.10062203621E+01 -0.10095089015E+02 -0.17100206575E+03  0.17130274309E+03  0.00000000000E+00 0. -1.
        -15    1    1    2    0    0 -0.26845948842E+01  0.12283208500E+02 -0.55144789064E+01  0.13843824159E+02  0.17770000000E+01 0.  1.
         15    1    1    2    0    0  0.33448620130E+01  0.16746936162E+00  0.51254082716E+00  0.38257776951E+01  0.17770000000E+01 0. -1.
</event>
<event>
 6    1  0.1108180E-002  0.1851737E+03  0.7546771E-02  0.1066346E+00
        -11   -1    0    0    0    0  0.00000000000E+00  0.00000000000E+00  0.18250000000E+03  0.18250000000E+03  0.00000000000E+00 0. -1.
         11   -1    0    0    0    0 -0.00000000000E+00 -0.00000000000E+00 -0.18250000000E+03  0.18250000000E+03  0.00000000000E+00 0.  1.
        -11    1    1    2    0    0 -0.47683166212E+01 -0.37337575820E+01  0.17136096974E+03  0.17146795543E+03  0.00000000000E+00 0. -1.
         11    1    1    2    0    0 -0.25632126323E+00 -0.30623252646E+01 -0.17980009050E+03  0.17982634979E+03  0.00000000000E+00 0.  1.
        -15    1    1    2    0    0  0.17772885593E+01  0.57595676477E+01  0.74304523654E+01  0.97314297749E+01  0.17770000000E+01 0. -1.
         15    1    1    2    0    0  0.32473493251E+01  0.10365151990E+01  0.10086683990E+01  0.39742650058E+01  0.17770000000E+01 0.  1.
</event>
<event>
 6    1  0.1108180E-002  0.1843751E+03  0.7546771E-02  0.1066972E+00
        -11   -1    0    0    0    0  0.00000000000E+00  0.00000000000E+00  0.18250000000E+03  0.18250000000E+03  0.00000000000E+00 0.  1.
         11   -1    0    0    0    0 -0.00000000000E+00 -0.00000000000E+00 -0.18250000000E+03  0.18250000000E+03  0.00000000000E+00 0. -1.
        -11    1    1    2    0    0 -0.74479158052E+00  0.17654698743E+01  0.12927085722E+03  0.12928505762E+03  0.00000000000E+00 0.  1.
         11    1    1    2    0    0 -0.19629809991E+01  0.36544798126E+01 -0.18057722428E+03  0.18062486663E+03  0.00000000000E+00 0. -1.
        -15    1    1    2    0    0 -0.26956413008E+01  0.27839592402E+01  0.39052507359E+02  0.39284513121E+02  0.17770000000E+01 0.  1.
         15    1    1    2    0    0  0.54034138804E+01 -0.82039089272E+01  0.12253859701E+02  0.15805562622E+02  0.17770000000E+01 0. -1.
</event>
<event>
 6    1  0.1108180E-002  0.1716434E+03  0.7546771E-02  0.1077441E+00
        -11   -1    0    0    0    0  0.00000000000E+00  0.00000000000E+00  0.18250000000E+03  0.18250000000E+03  0.00000000000E+00 0.  1.
         11   -1    0    0    0    0 -0.00000000000E+00 -0.00000000000E+00 -0.18250000000E+03  0.18250000000E+03  0.00000000000E+00 0. -1.
        -11    1    1    2    0    0  0.78295761034E+01 -0.15589438418E+01  0.17177330965E+03  0.17195872318E+03  0.00000000000E+00 0.  1.
         11    1    1    2    0    0  0.10927179982E+02  0.58482146440E+01 -0.17141967801E+03  0.17186713149E+03  0.00000000000E+00 0. -1.
        -15    1    1    2    0    0 -0.33328925437E+01 -0.41835964549E+01  0.17248479171E+00  0.56389832425E+01  0.17770000000E+01 0.  1.
         15    1    1    2    0    0 -0.15423863542E+02 -0.10567434731E+00 -0.52611643401E+00  0.15535162089E+02  0.17770000000E+01 0. -1.
</event>
<event>
 6    1  0.1108180E-002  0.1826053E+03  0.7546771E-02  0.1068371E+00
        -11   -1    0    0    0    0  0.00000000000E+00  0.00000000000E+00  0.18250000000E+03  0.18250000000E+03  0.00000000000E+00 0.  1.
         11   -1    0    0    0    0 -0.00000000000E+00 -0.00000000000E+00 -0.18250000000E+03  0.18250000000E+03  0.00000000000E+00 0. -1.
        -11    1    1    2    0    0  0.46844433154E-01 -0.44921395826E+01  0.18233932589E+03  0.18239465804E+03  0.00000000000E+00 0.  1.
         11    1    1    2    0    0  0.97974889436E+00  0.31020421982E+00 -0.38293755938E+02  0.38307543361E+02  0.00000000000E+00 0. -1.
        -15    1    1    2    0    0 -0.27610960611E+00  0.57352379987E+01 -0.10814807255E+03  0.10831496904E+03  0.17770000000E+01 0. -1.
         15    1    1    2    0    0 -0.75048372140E+00 -0.15533026359E+01 -0.35897497401E+02  0.35982829566E+02  0.17770000000E+01 0. -1.
</event>
<event>
 6    1  0.1108180E-002  0.1913403E+03  0.7546771E-02  0.1061628E+00
        -11   -1    0    0    0    0  0.00000000000E+00  0.00000000000E+00  0.18250000000E+03  0.18250000000E+03  0.00000000000E+00 0.  1.
         11   -1    0    0    0    0 -0.00000000000E+00 -0.00000000000E+00 -0.18250000000E+03  0.18250000000E+03  0.00000000000E+00 0. -1.
        -11    1    1    2    0    0  0.36878596606E+01  0.15775297425E+01  0.17361335137E+03  0.17365968065E+03  0.00000000000E+00 0.  1.
         11    1    1    2    0    0  0.24058857054E+01 -0.17211350803E+01 -0.15323591707E+03  0.15326446709E+03  0.00000000000E+00 0. -1.
        -15    1    1    2    0    0 -0.30317808592E+01  0.14600149541E+01 -0.28692174600E+02  0.28943426734E+02  0.17770000000E+01 0.  1.
         15    1    1    2    0    0 -0.30619645068E+01 -0.13164096163E+01  0.83147402944E+01  0.91324255312E+01  0.17770000000E+01 0.  1.
</event>
<event>
 6    1  0.1108180E-002  0.1476955E+03  0.7546771E-02  0.1100124E+00
        -11   -1    0    0    0    0  0.00000000000E+00  0.00000000000E+00  0.18250000000E+03  0.18250000000E+03  0.00000000000E+00 0.  1.
         11   -1    0    0    0    0 -0.00000000000E+00 -0.00000000000E+00 -0.18250000000E+03  0.18250000000E+03  0.00000000000E+00 0.  1.
        -11    1    1    2    0    0  0.13383504070E+01  0.32545866993E+01  0.14551674913E+03  0.14555929305E+03  0.00000000000E+00 0.  1.
         11    1    1    2    0    0  0.16768493304E+02  0.76900783029E+01 -0.14948097524E+03  0.15061501130E+03  0.00000000000E+00 0.  1.
        -15    1    1    2    0    0 -0.35479050064E+02  0.95809601547E+01 -0.10471200986E+02  0.38253909212E+02  0.17770000000E+01 0.  1.
         15    1    1    2    0    0  0.17372206353E+02 -0.20525625157E+02  0.14435427096E+02  0.30571786440E+02  0.17770000000E+01 0. -1.
</event>
<event>
 6    1  0.1108180E-002  0.2001944E+03  0.7546771E-02  0.1055182E+00
        -11   -1    0    0    0    0  0.00000000000E+00  0.00000000000E+00  0.18250000000E+03  0.18250000000E+03  0.00000000000E+00 0.  1.
         11   -1    0    0    0    0 -0.00000000000E+00 -0.00000000000E+00 -0.18250000000E+03  0.18250000000E+03  0.00000000000E+00 0.  1.
        -11    1    1    2    0    0  0.30173418829E+01  0.32684750032E+01  0.15681615475E+03  0.15687923276E+03  0.00000000000E+00 0.  1.
         11    1    1    2    0    0  0.66277132832E+01  0.57220884838E-01 -0.16467223026E+03  0.16480556203E+03  0.00000000000E+00 0.  1.
        -15    1    1    2    0    0 -0.44661176370E+01  0.22965798619E+01  0.24415693613E+02  0.24990084222E+02  0.17770000000E+01 0.  1.
         15    1    1    2    0    0 -0.51789375291E+01 -0.56222757500E+01 -0.16559618100E+02  0.18325120986E+02  0.17770000000E+01 0. -1.
</event>
<event>
 6    1  0.1108180E-002  0.1853414E+03  0.7546771E-02  0.1066215E+00
        -11   -1    0    0    0    0  0.00000000000E+00  0.00000000000E+00  0.18250000000E+03  0.18250000000E+03  0.00000000000E+00 0.  1.
         11   -1    0    0    0    0 -0.00000000000E+00 -0.00000000000E+00 -0.18250000000E+03  0.18250000000E+03  0.00000000000E+00 0. -1.
        -11    1    1    2    0    0  0.25140099204E+01  0.21913449384E+01  0.17400966006E+03  0.17404161580E+03  0.00000000000E+00 0.  1.
         11    1    1    2    0    0 -0.10055245176E+01 -0.26204650927E+01 -0.17963669088E+03  0.17965861690E+03  0.00000000000E+00 0. -1.
        -15    1    1    2    0    0  0.70382443924E+00  0.19066664274E+01 -0.17783960430E+01  0.32328265020E+01  0.17770000000E+01 0.  1.
         15    1    1    2    0    0 -0.22123098421E+01 -0.14775462730E+01  0.74054268630E+01  0.80669407987E+01  0.17770000000E+01 0.  1.
</event>
<event>
 6    1  0.1108180E-002  0.1764739E+03  0.7546771E-02  0.1073355E+00
        -11   -1    0    0    0    0  0.00000000000E+00  0.00000000000E+00  0.18250000000E+03  0.18250000000E+03  0.00000000000E+00 0.  1.
         11   -1    0    0    0    0 -0.00000000000E+00 -0.00000000000E+00 -0.18250000000E+03  0.18250000000E+03  0.00000000000E+00 0. -1.
        -11    1    1    2    0    0 -0.29406837061E+01 -0.19826121772E+01  0.17656339268E+03  0.17659900907E+03  0.00000000000E+00 0.  1.
         11    1    1    2    0    0 -0.34702621442E+01  0.39297774026E+01 -0.17633448510E+03  0.17641240462E+03  0.00000000000E+00 0. -1.
        -15    1    1    2    0    0  0.36988987679E+01 -0.39361685915E+00  0.44642726575E+01  0.60765323736E+01  0.17770000000E+01 0.  1.
         15    1    1    2    0    0  0.27120470824E+01 -0.15535483663E+01 -0.46931802383E+01  0.59120539285E+01  0.17770000000E+01 0. -1.
</event>
<event>
 6    1  0.1108180E-002  0.1876387E+03  0.7546771E-02  0.1064436E+00
        -11   -1    0    0    0    0  0.00000000000E+00  0.00000000000E+00  0.18250000000E+03  0.18250000000E+03  0.00000000000E+00 0. -1.
         11   -1    0    0    0    0 -0.00000000000E+00 -0.00000000000E+00 -0.18250000000E+03  0.18250000000E+03  0.00000000000E+00 0.  1.
        -11    1    1    2    0    0 -0.82594203124E+01  0.19713708935E+00  0.17716872223E+03  0.17736125007E+03  0.00000000000E+00 0. -1.
         11    1    1    2    0    0 -0.10283612162E+02  0.56679542910E+01 -0.43788342274E+02  0.45335386886E+02  0.00000000000E+00 0.  1.
        -15    1    1    2    0    0  0.12170117648E+02 -0.10672779609E+02 -0.13312888727E+03  0.13412113309E+03  0.17770000000E+01 0.  1.
         15    1    1    2    0    0  0.63729148270E+01  0.48076882291E+01 -0.25149269307E+00  0.81822299574E+01  0.17770000000E+01 0. -1.
</event>
<event>
 6    1  0.1108180E-002  0.1838831E+03  0.7546771E-02  0.1067359E+00
        -11   -1    0    0    0    0  0.00000000000E+00  0.00000000000E+00  0.18250000000E+03  0.18250000000E+03  0.00000000000E+00 0. -1.
         11   -1    0    0    0    0 -0.00000000000E+00 -0.00000000000E+00 -0.18250000000E+03  0.18250000000E+03  0.00000000000E+00 0. -1.
        -11    1    1    2    0    0  0.64430355325E+00  0.30970740833E+01  0.18108925534E+03  0.18111688324E+03  0.00000000000E+00 0. -1.
         11    1    1    2    0    0  0.94239348035E+00  0.49223395093E+01 -0.14200232707E+03  0.14209074011E+03  0.00000000000E+00 0. -1.
        -15    1    1    2    0    0 -0.44376701020E+01 -0.78096870337E+01 -0.36255472829E+02  0.37393865360E+02  0.17770000000E+01 0.  1.
         15    1    1    2    0    0  0.28509730684E+01 -0.20972655887E+00 -0.28314554433E+01  0.43985112929E+01  0.17770000000E+01 0. -1.
</event>
<event>
 6    1  0.1108180E-002  0.1862850E+03  0.7546771E-02  0.1065481E+00
        -11   -1    0    0    0    0  0.00000000000E+00  0.00000000000E+00  0.18250000000E+03  0.18250000000E+03  0.00000000000E+00 0. -1.
         11   -1    0    0    0    0 -0.00000000000E+00 -0.00000000000E+00 -0.18250000000E+03  0.18250000000E+03  0.00000000000E+00 0.  1.
        -11    1    1    2    0    0  0.25238007706E+00 -0.37089973540E+01  0.17113383495E+03  0.17117420899E+03  0.00000000000E+00 0. -1.
         11    1    1    2    0    0 -0.36222678799E+01  0.10269173789E+02 -0.17838291503E+03  0.17871497176E+03  0.00000000000E+00 0.  1.
        -15    1    1    2    0    0  0.51638631811E+01 -0.75908087336E+01  0.25749278126E+01  0.96991670995E+01  0.17770000000E+01 0.  1.
         15    1    1    2    0    0 -0.17939753783E+01  0.10306322989E+01  0.46741522693E+01  0.54116521535E+01  0.17770000000E+01 0. -1.
</event>
<event>
 6    1  0.1108180E-002  0.1861400E+03  0.7546771E-02  0.1065594E+00
        -11   -1    0    0    0    0  0.00000000000E+00  0.00000000000E+00  0.18250000000E+03  0.18250000000E+03  0.00000000000E+00 0.  1.
         11   -1    0    0    0    0 -0.00000000000E+00 -0.00000000000E+00 -0.18250000000E+03  0.18250000000E+03  0.00000000000E+00 0. -1.
        -11    1    1    2    0    0  0.42809953327E+01  0.34038115703E+01  0.17877636041E+03  0.17886000083E+03  0.00000000000E+00 0.  1.
         11    1    1    2    0    0 -0.21402952211E+01 -0.34108905616E+01 -0.12719742934E+03  0.12726115302E+03  0.00000000000E+00 0. -1.
        -15    1    1    2    0    0  0.21378633230E+01 -0.13172354097E+02 -0.32946575596E+02  0.35590953128E+02  0.17770000000E+01 0.  1.
         15    1    1    2    0    0 -0.42785634346E+01  0.13179433088E+02 -0.18632355480E+02  0.23287893020E+02  0.17770000000E+01 0. -1.
</event>
<event>
 6    1  0.1108180E-002  0.1853106E+03  0.7546771E-02  0.1066239E+00
        -11   -1    0    0    0    0  0.00000000000E+00  0.00000000000E+00  0.18250000000E+03  0.18250000000E+03  0.00000000000E+00 0.  1.
         11   -1    0    0    0    0 -0.00000000000E+00 -0.00000000000E+00 -0.18250000000E+03  0.18250000000E+03  0.00000000000E+00 0.  1.
        -11    1    1    2    0    0  0.10893084194E+01 -0.27951098522E+01  0.15666891831E+03  0.15669763622E+03  0.00000000000E+00 0.  1.
         11    1    1    2    0    0 -0.22651408503E+01  0.28701966798E+01 -0.17965219884E+03  0.17968940270E+03  0.00000000000E+00 0.  1.
        -15    1    1    2    0    0 -0.15180030713E+01 -0.63199634602E+01  0.19764632238E+02  0.20881683074E+02  0.17770000000E+01 0.  1.
         15    1    1    2    0    0  0.26938355023E+01  0.62448766326E+01  0.32186482964E+01  0.77312780138E+01  0.17770000000E+01 0. -1.
</event>
<event>
 6    1  0.1108180E-002  0.1855585E+03  0.7546771E-02  0.1066046E+00
        -11   -1    0    0    0    0  0.00000000000E+00  0.00000000000E+00  0.18250000000E+03  0.18250000000E+03  0.00000000000E+00 0.  1.
         11   -1    0    0    0    0 -0.00000000000E+00 -0.00000000000E+00 -0.18250000000E+03  0.18250000000E+03  0.00000000000E+00 0. -1.
        -11    1    1    2    0    0 -0.57817057389E+01 -0.57124678990E+00  0.17934739705E+03  0.17944147590E+03  0.00000000000E+00 0.  1.
         11    1    1    2    0    0 -0.44978098221E+01  0.93454346228E+00 -0.16363753824E+03  0.16370200850E+03  0.00000000000E+00 0. -1.
        -15    1    1    2    0    0  0.38694109248E+00  0.19246690971E+01  0.45294513419E+00  0.26864405516E+01  0.17770000000E+01 0. -1.
         15    1    1    2    0    0  0.98925744685E+01 -0.22879657695E+01 -0.16162803944E+02  0.19170075047E+02  0.17770000000E+01 0. -1.
</event>
<event>
 6    1  0.1229882E-002  0.1825690E+03  0.7546771E-02  0.1068400E+00
        -11   -1    0    0    0    0  0.00000000000E+00  0.00000000000E+00  0.18250000000E+03  0.18250000000E+03  0.00000000000E+00 0. -1.
         11   -1    0    0    0    0 -0.00000000000E+00 -0.00000000000E+00 -0.18250000000E+03  0.18250000000E+03  0.00000000000E+00 0. -1.
        -11    1    1    2    0    0  0.28929725967E+01 -0.93814186522E+00  0.18240566960E+03  0.18243102177E+03  0.00000000000E+00 0. -1.
         11    1    1    2    0    0  0.68594895663E+00  0.28285171526E+00 -0.29421074038E+02  0.29430428617E+02  0.00000000000E+00 0. -1.
        -15    1    1    2    0    0 -0.18046092583E+01 -0.36491911187E-01 -0.12667762072E+03  0.12670294103E+03  0.17770000000E+01 0. -1.
         15    1    1    2    0    0 -0.17743122951E+01  0.69178206114E+00 -0.26306974843E+02  0.26435608579E+02  0.17770000000E+01 0.  1.
</event>
<event>
 6    1  0.1108180E-002  0.1825993E+03  0.7546771E-02  0.1068376E+00
        -11   -1    0    0    0    0  0.00000000000E+00  0.00000000000E+00  0.18250000000E+03  0.18250000000E+03  0.00000000000E+00 0.  1.
         11   -1    0    0    0    0 -0.00000000000E+00 -0.00000000000E+00 -0.18250000000E+03  0.18250000000E+03  0.00000000000E+00 0.  1.
        -11    1    1    2    0    0 -0.85136015590E+00 -0.94402947922E+00  0.65448938409E+02  0.65461282791E+02  0.00000000000E+00 0.  1.
         11    1    1    2    0    0 -0.31782359637E+01 -0.25637954379E+00 -0.18237283565E+03  0.18240070751E+03  0.00000000000E+00 0.  1.
        -15    1    1    2    0    0  0.47332860242E+01  0.78322404337E+00  0.86830145024E+02  0.86980740686E+02  0.17770000000E+01 0.  1.
         15    1    1    2    0    0 -0.70368990469E+00  0.41718497964E+00  0.30093752221E+02  0.30157269016E+02  0.17770000000E+01 0.  1.
</event>
<event>
 6    1  0.1108180E-002  0.1839011E+03  0.7546771E-02  0.1067345E+00
        -11   -1    0    0    0    0  0.00000000000E+00  0.00000000000E+00  0.18250000000E+03  0.18250000000E+03  0.00000000000E+00 0.  1.
         11   -1    0    0    0    0 -0.00000000000E+00 -0.00000000000E+00 -0.18250000000E+03  0.18250000000E+03  0.00000000000E+00 0. -1.
        -11    1    1    2    0    0  0.53578182245E+00  0.26641594152E+01  0.16777542283E+03  0.16779742940E+03  0.00000000000E+00 0.  1.
         11    1    1    2    0    0  0.33056685864E+01  0.12380546744E+01 -0.18106446023E+03  0.18109886522E+03  0.00000000000E+00 0. -1.
        -15    1    1    2    0    0 -0.46712419071E+01 -0.47646904863E+01  0.94009382156E+01  0.11664396458E+02  0.17770000000E+01 0.  1.
         15    1    1    2    0    0  0.82979149828E+00  0.86247639662E+00  0.38880991820E+01  0.44393089231E+01  0.17770000000E+01 0.  1.
</event>
<event>
 6    1  0.1108180E-002  0.1945916E+03  0.7546771E-02  0.1059218E+00
        -11   -1    0    0    0    0  0.00000000000E+00  0.00000000000E+00  0.18250000000E+03  0.18250000000E+03  0.00000000000E+00 0. -1.
         11   -1    0    0    0    0 -0.00000000000E+00 -0.00000000000E+00 -0.18250000000E+03  0.18250000000E+03  0.00000000000E+00 0. -1.
        -11    1    1    2    0    0  0.36275010483E+00  0.55204717848E+01  0.13639581075E+03  0.13650796456E+03  0.00000000000E+00 0. -1.
         11    1    1    2    0    0 -0.29716293563E+02  0.36218525532E+01 -0.16775833568E+03  0.17040843614E+03  0.00000000000E+00 0. -1.
        -15    1    1    2    0    0  0.13790461738E+02 -0.22098915718E+02  0.84261727739E+01  0.27435324447E+02  0.17770000000E+01 0. -1.
         15    1    1    2    0    0  0.15563081720E+02  0.12956591380E+02  0.22936352149E+02  0.30648274857E+02  0.17770000000E+01 0.  1.
</event>
<event>
 6    1  0.1108180E-002  0.1837758E+03  0.7546771E-02  0.1067444E+00
        -11   -1    0    0    0    0  0.00000000000E+00  0.00000000000E+00  0.18250000000E+03  0.18250000000E+03  0.00000000000E+00 0. -1.
         11   -1    0    0    0    0 -0.00000000000E+00 -0.00000000000E+00 -0.18250000000E+03  0.18250000000E+03  0.00000000000E+00 0.  1.
        -11    1    1    2    0    0 -0.57472031016E+00 -0.23734832193E+01  0.18120776704E+03  0.18122422179E+03  0.00000000000E+00 0. -1.
         11    1    1    2    0    0 -0.37968292601E+01  0.26469077818E+01 -0.16660597463E+03  0.16667025174E+03  0.00000000000E+00 0.  1.
        -15    1    1    2    0    0  0.31196170592E+01  0.23106866527E+01 -0.12297117120E+02  0.13017223278E+02  0.17770000000E+01 0.  1.
         15    1    1    2    0    0  0.12519325111E+01 -0.25841112152E+01 -0.23046752941E+01  0.40883031927E+01  0.17770000000E+01 0. -1.
</event>
<event>
 6    1  0.1108180E-002  0.1854248E+03  0.7546771E-02  0.1066150E+00
        -11   -1    0    0    0    0  0.00000000000E+00  0.00000000000E+00  0.18250000000E+03  0.18250000000E+03  0.00000000000E+00 0. -1.
         11   -1    0    0    0    0 -0.00000000000E+00 -0.00000000000E+00 -0.18250000000E+03  0.18250000000E+03  0.00000000000E+00 0. -1.
        -11    1    1    2    0    0  0.54142235205E+01  0.60454664954E+01  0.34991402497E+02  0.35920185553E+02  0.00000000000E+00 0. -1.
         11    1    1    2    0    0 -0.14005086956E+02  0.37939285811E+01 -0.17898807476E+03  0.17957524122E+03  0.00000000000E+00 0. -1.
        -15    1    1    2    0    0  0.11749402795E+02 -0.64461675097E+01  0.14174995647E+02  0.19588000719E+02  0.17770000000E+01 0. -1.
         15    1    1    2    0    0 -0.31585393589E+01 -0.33932275668E+01  0.12982167661E+03  0.12991657251E+03  0.17770000000E+01 0. -1.
</event>
<event>
 6    1  0.1108180E-002  0.1860007E+03  0.7546771E-02  0.1065702E+00
        -11   -1    0    0    0    0  0.00000000000E+00  0.00000000000E+00  0.18250000000E+03  0.18250000000E+03  0.00000000000E+00 0.  1.
         11   -1    0    0    0    0 -0.00000000000E+00 -0.00000000000E+00 -0.18250000000E+03  0.18250000000E+03  0.00000000000E+00 0.  1.
        -11    1    1    2    0    0  0.14705065807E+02  0.51729401972E+01  0.12169717052E+03  0.12269148130E+03  0.00000000000E+00 0.  1.
         11    1    1    2    0    0 -0.26003249127E+01 -0.72667496253E+00 -0.17897898090E+03  0.17899934455E+03  0.00000000000E+00 0.  1.
        -15    1    1    2    0    0 -0.18580260016E+02 -0.22472823921E+01  0.48638077508E+02  0.52144958079E+02  0.17770000000E+01 0. -1.
         15    1    1    2    0    0  0.64755191222E+01 -0.21989828426E+01  0.86437328718E+01  0.11164216068E+02  0.17770000000E+01 0.  1.
</event>
<event>
 6    1  0.1108180E-002  0.2077253E+03  0.7546771E-02  0.1049979E+00
        -11   -1    0    0    0    0  0.00000000000E+00  0.00000000000E+00  0.18250000000E+03  0.18250000000E+03  0.00000000000E+00 0. -1.
         11   -1    0    0    0    0 -0.00000000000E+00 -0.00000000000E+00 -0.18250000000E+03  0.18250000000E+03  0.00000000000E+00 0. -1.
        -11    1    1    2    0    0 -0.38102808663E+01  0.91746052017E+00  0.15722584664E+03  0.15727468591E+03  0.00000000000E+00 0. -1.
         11    1    1    2    0    0  0.32219359939E+01 -0.14495801643E+01 -0.14229888614E+03  0.14234273831E+03  0.00000000000E+00 0. -1.
        -15    1    1    2    0    0  0.52942521571E+01 -0.36729499501E+01  0.24509624044E+02  0.25404705608E+02  0.17770000000E+01 0.  1.
         15    1    1    2    0    0 -0.47059072847E+01  0.42050695942E+01 -0.39436584552E+02  0.39977870176E+02  0.17770000000E+01 0. -1.
</event>
<event>
 6    1  0.1108180E-002  0.1829742E+03  0.7546771E-02  0.1068078E+00
        -11   -1    0    0    0    0  0.00000000000E+00  0.00000000000E+00  0.18250000000E+03  0.18250000000E+03  0.00000000000E+00 0. -1.
         11   -1    0    0    0    0 -0.00000000000E+00 -0.00000000000E+00 -0.18250000000E+03  0.18250000000E+03  0.00000000000E+00 0. -1.
        -11    1    1    2    0    0 -0.21472203015E+01 -0.86605759019E+00  0.10690539837E+03  0.10693046718E+03  0.00000000000E+00 0. -1.
         11    1    1    2    0    0 -0.34240704746E+01 -0.37465724556E+01 -0.18195498201E+03  0.18202575791E+03  0.00000000000E+00 0. -1.
        -15    1    1    2    0    0  0.10100879952E+01  0.35773645930E+01  0.10189202548E+02  0.10990695736E+02  0.17770000000E+01 0. -1.
         15    1    1    2    0    0  0.45612027809E+01  0.10352654528E+01  0.64860381098E+02  0.65053079178E+02  0.17770000000E+01 0.  1.
</event>
<event>
 6    1  0.1108180E-002  0.1826360E+03  0.7546771E-02  0.1068347E+00
        -11   -1    0    0    0    0  0.00000000000E+00  0.00000000000E+00  0.18250000000E+03  0.18250000000E+03  0.00000000000E+00 0.  1.
         11   -1    0    0    0    0 -0.00000000000E+00 -0.00000000000E+00 -0.18250000000E+03  0.18250000000E+03  0.00000000000E+00 0. -1.
        -11    1    1    2    0    0  0.25337733963E+01  0.18804689208E+01  0.18233673400E+03  0.18236403356E+03  0.00000000000E+00 0.  1.
         11    1    1    2    0    0 -0.66416475315E+00 -0.27144422451E+01 -0.14313816109E+03  0.14316543742E+03  0.00000000000E+00 0. -1.
        -15    1    1    2    0    0 -0.16909213453E+00  0.76736959049E+00 -0.11509417321E+02  0.11672269030E+02  0.17770000000E+01 0.  1.
         15    1    1    2    0    0 -0.17005165086E+01  0.66603733808E-01 -0.27689155583E+02  0.27798259988E+02  0.17770000000E+01 0. -1.
</event>
<event>
 6    1  0.1108180E-002  0.1850165E+03  0.7546771E-02  0.1066469E+00
        -11   -1    0    0    0    0  0.00000000000E+00  0.00000000000E+00  0.18250000000E+03  0.18250000000E+03  0.00000000000E+00 0. -1.
         11   -1    0    0    0    0 -0.00000000000E+00 -0.00000000000E+00 -0.18250000000E+03  0.18250000000E+03  0.00000000000E+00 0. -1.
        -11    1    1    2    0    0 -0.29874561422E+01 -0.13900755294E+00  0.17995868221E+03  0.17998353125E+03  0.00000000000E+00 0. -1.
         11    1    1    2    0    0 -0.47714048126E+01 -0.62059450964E+01 -0.14506275243E+03  0.14527381801E+03  0.00000000000E+00 0. -1.
        -15    1    1    2    0    0  0.92651606979E+01  0.23784161132E+01 -0.33575737489E+02  0.34956944130E+02  0.17770000000E+01 0. -1.
         15    1    1    2    0    0 -0.15062997431E+01  0.39665365361E+01 -0.13201922971E+01  0.47857066051E+01  0.17770000000E+01 0.  1.
</event>
<event>
 6    1  0.1108180E-002  0.1828429E+03  0.7546771E-02  0.1068182E+00
        -11   -1    0    0    0    0  0.00000000000E+00  0.00000000000E+00  0.18250000000E+03  0.18250000000E+03  0.00000000000E+00 0. -1.
         11   -1    0    0    0    0 -0.00000000000E+00 -0.00000000000E+00 -0.18250000000E+03  0.18250000000E+03  0.00000000000E+00 0. -1.
        -11    1    1    2    0    0 -0.46422534382E+01  0.70936357037E+00  0.18209650828E+03  0.18215705323E+03  0.00000000000E+00 0. -1.
         11    1    1    2    0    0 -0.69069262130E+00  0.23545073859E+01 -0.74863476791E+02  0.74903677604E+02  0.00000000000E+00 0. -1.
        -15    1    1    2    0    0 -0.10814305577E+00 -0.17177371661E+01 -0.81718723265E+02  0.81756160483E+02  0.17770000000E+01 0. -1.
         15    1    1    2    0    0  0.54410891153E+01 -0.13461337901E+01 -0.25514308227E+02  0.26183108681E+02  0.17770000000E+01 0. -1.
</event>
<event>
 6    1  0.1108180E-002  0.1828421E+03  0.7546771E-02  0.1068183E+00
        -11   -1    0    0    0    0  0.00000000000E+00  0.00000000000E+00  0.18250000000E+03  0.18250000000E+03  0.00000000000E+00 0.  1.
         11   -1    0    0    0    0 -0.00000000000E+00 -0.00000000000E+00 -0.18250000000E+03  0.18250000000E+03  0.00000000000E+00 0. -1.
        -11    1    1    2    0    0  0.12416075296E+01  0.40313321197E+01  0.88816626987E+02  0.88916738904E+02  0.00000000000E+00 0.  1.
         11    1    1    2    0    0  0.23490661771E+01 -0.24020995660E+01 -0.18212690439E+03  0.18215789167E+03  0.00000000000E+00 0. -1.
        -15    1    1    2    0    0 -0.44837968420E+00 -0.40729301733E+01  0.73754507504E+02  0.73889613010E+02  0.17770000000E+01 0. -1.
         15    1    1    2    0    0 -0.31422940225E+01  0.24436976196E+01  0.19555769900E+02  0.20035756416E+02  0.17770000000E+01 0.  1.
</event>
<event>
 6    1  0.1108180E-002  0.1765826E+03  0.7546771E-02  0.1073265E+00
        -11   -1    0    0    0    0  0.00000000000E+00  0.00000000000E+00  0.18250000000E+03  0.18250000000E+03  0.00000000000E+00 0. -1.
         11   -1    0    0    0    0 -0.00000000000E+00 -0.00000000000E+00 -0.18250000000E+03  0.18250000000E+03  0.00000000000E+00 0.  1.
        -11    1    1    2    0    0  0.20115560733E+01  0.20352088058E+01  0.17450255861E+03  0.17452601925E+03  0.00000000000E+00 0. -1.
         11    1    1    2    0    0  0.42848005321E+01  0.21423564873E+01 -0.17868058415E+03  0.17874479114E+03  0.00000000000E+00 0.  1.
        -15    1    1    2    0    0 -0.61613906485E+01 -0.57125935595E+01  0.35647681669E+01  0.92984816493E+01  0.17770000000E+01 0.  1.
         15    1    1    2    0    0 -0.13496595696E+00  0.15350282664E+01  0.61325737462E+00  0.24307079618E+01  0.17770000000E+01 0.  1.
</event>
<event>
 6    1  0.1108180E-002  0.1865988E+03  0.7546771E-02  0.1065238E+00
        -11   -1    0    0    0    0  0.00000000000E+00  0.00000000000E+00  0.18250000000E+03  0.18250000000E+03  0.00000000000E+00 0. -1.
         11   -1    0    0    0    0 -0.00000000000E+00 -0.00000000000E+00 -0.18250000000E+03  0.18250000000E+03  0.00000000000E+00 0. -1.
        -11    1    1    2    0    0  0.10658096862E+01  0.24789513943E+01  0.15544086853E+03  0.15546428773E+03  0.00000000000E+00 0. -1.
         11    1    1    2    0    0  0.41089933168E+01 -0.60956199973E+00 -0.17835281486E+03  0.17840118262E+03  0.00000000000E+00 0. -1.
        -15    1    1    2    0    0 -0.11716133399E+02 -0.36198418173E+01  0.20053488116E+02  0.23572678066E+02  0.17770000000E+01 0.  1.
         15    1    1    2    0    0  0.65413303959E+01  0.17504524227E+01  0.28584582182E+01  0.75618515866E+01  0.17770000000E+01 0. -1.
</event>
<event>
 6    1  0.1108180E-002  0.1716650E+03  0.7546771E-02  0.1077422E+00
        -11   -1    0    0    0    0  0.00000000000E+00  0.00000000000E+00  0.18250000000E+03  0.18250000000E+03  0.00000000000E+00 0. -1.
         11   -1    0    0    0    0 -0.00000000000E+00 -0.00000000000E+00 -0.18250000000E+03  0.18250000000E+03  0.00000000000E+00 0.  1.
        -11    1    1    2    0    0 -0.34435938324E+01  0.16617000896E+01  0.17129346046E+03  0.17133612924E+03  0.00000000000E+00 0. -1.
         11    1    1    2    0    0 -0.30806853602E+01 -0.13223527933E+01 -0.17202421481E+03  0.17205687931E+03  0.00000000000E+00 0.  1.
        -15    1    1    2    0    0  0.49151052224E+01  0.23627847566E+00 -0.96286609710E+01  0.10958235623E+02  0.17770000000E+01 0. -1.
         15    1    1    2    0    0  0.16091739702E+01 -0.57562577196E+00  0.10359415321E+02  0.10648755828E+02  0.17770000000E+01 0. -1.
</event>
<event>
 6    1  0.1108180E-002  0.1829075E+03  0.7546771E-02  0.1068131E+00
        -11   -1    0    0    0    0  0.00000000000E+00  0.00000000000E+00  0.18250000000E+03  0.18250000000E+03  0.00000000000E+00 0. -1.
         11   -1    0    0    0    0 -0.00000000000E+00 -0.00000000000E+00 -0.18250000000E+03  0.18250000000E+03  0.00000000000E+00 0.  1.
        -11    1    1    2    0    0 -0.39300340713E+00 -0.15780020542E+01  0.10651105846E+03  0.10652347214E+03  0.00000000000E+00 0. -1.
         11    1    1    2    0    0 -0.33789922443E+01  0.17564432613E+00 -0.18206109230E+03  0.18209253079E+03  0.00000000000E+00 0.  1.
        -15    1    1    2    0    0  0.66566848452E+01 -0.11391880380E+01  0.43936925180E+02  0.44488429123E+02  0.17770000000E+01 0. -1.
         15    1    1    2    0    0 -0.28846891938E+01  0.25415457661E+01  0.31613108659E+02  0.31895567948E+02  0.17770000000E+01 0. -1.
</event>
<event>
 6    1  0.1108180E-002  0.1841042E+03  0.7546771E-02  0.1067185E+00
        -11   -1    0    0    0    0  0.00000000000E+00  0.00000000000E+00  0.18250000000E+03  0.18250000000E+03  0.00000000000E+00 0. -1.
         11   -1    0    0    0    0 -0.00000000000E+00 -0.00000000000E+00 -0.18250000000E+03  0.18250000000E+03  0.00000000000E+00 0.  1.
        -11    1    1    2    0    0  0.52157360265E+01  0.25485116899E+00  0.18082042743E+03  0.18089581484E+03  0.00000000000E+00 0. -1.
         11    1    1    2    0    0  0.45200644983E+01 -0.54842466166E+01 -0.13445220145E+03  0.13463989906E+03  0.00000000000E+00 0.  1.
        -15    1    1    2    0    0 -0.56366587358E+01  0.45421158426E+01 -0.43448026403E+02  0.44082779692E+02  0.17770000000E+01 0.  1.
         15    1    1    2    0    0 -0.40991417890E+01  0.68727960507E+00 -0.29201995733E+01  0.53815064071E+01  0.17770000000E+01 0.  1.
</event>
<event>
 6    1  0.1108180E-002  0.1719926E+03  0.7546771E-02  0.1077141E+00
        -11   -1    0    0    0    0  0.00000000000E+00  0.00000000000E+00  0.18250000000E+03  0.18250000000E+03  0.00000000000E+00 0. -1.
         11   -1    0    0    0    0 -0.00000000000E+00 -0.00000000000E+00 -0.18250000000E+03  0.18250000000E+03  0.00000000000E+00 0.  1.
        -11    1    1    2    0    0  0.21624601959E+01  0.21016803092E+01  0.17400947079E+03  0.17403559756E+03  0.00000000000E+00 0. -1.
         11    1    1    2    0    0  0.43765620296E+01  0.29592485371E+01 -0.16999027280E+03  0.17007235017E+03  0.00000000000E+00 0.  1.
        -15    1    1    2    0    0 -0.30237135530E+01 -0.85018467713E+01 -0.95648726489E+01  0.13269090397E+02  0.17770000000E+01 0.  1.
         15    1    1    2    0    0 -0.35153086726E+01  0.34409179251E+01  0.55456746560E+01  0.76229618667E+01  0.17770000000E+01 0. -1.
</event>
<event>
 6    1  0.1108180E-002  0.1845133E+03  0.7546771E-02  0.1066863E+00
        -11   -1    0    0    0    0  0.00000000000E+00  0.00000000000E+00  0.18250000000E+03  0.18250000000E+03  0.00000000000E+00 0. -1.
         11   -1    0    0    0    0 -0.00000000000E+00 -0.00000000000E+00 -0.18250000000E+03  0.18250000000E+03  0.00000000000E+00 0.  1.
        -11    1    1    2    0    0  0.59907288438E+01  0.50914989514E+01  0.18031539678E+03  0.18048671561E+03  0.00000000000E+00 0. -1.
         11    1    1    2    0    0 -0.43589686615E+01 -0.36498756469E+01 -0.13409126261E+03  0.13421173163E+03  0.00000000000E+00 0.  1.
        -15    1    1    2    0    0 -0.84744301042E-01  0.55665426063E+01 -0.32316361168E+01  0.66779322530E+01  0.17770000000E+01 0.  1.
         15    1    1    2    0    0 -0.15470158812E+01 -0.70081659108E+01 -0.42992498060E+02  0.43623620505E+02  0.17770000000E+01 0. -1.
</event>
<event>
 6    1  0.1108180E-002  0.1856065E+03  0.7546771E-02  0.1066009E+00
        -11   -1    0    0    0    0  0.00000000000E+00  0.00000000000E+00  0.18250000000E+03  0.18250000000E+03  0.00000000000E+00 0.  1.
         11   -1    0    0    0    0 -0.00000000000E+00 -0.00000000000E+00 -0.18250000000E+03  0.18250000000E+03  0.00000000000E+00 0. -1.
        -11    1    1    2    0    0 -0.21748603885E+00 -0.24154834807E+01  0.17937710212E+03  0.17939349660E+03  0.00000000000E+00 0.  1.
         11    1    1    2    0    0  0.77454744701E+01  0.13627164649E+01 -0.16237809223E+03  0.16256842930E+03  0.00000000000E+00 0. -1.
        -15    1    1    2    0    0  0.13596467344E+01  0.34503139642E+01 -0.61044042755E+00  0.41573636128E+01  0.17770000000E+01 0. -1.
         15    1    1    2    0    0 -0.88876351656E+01 -0.23975469483E+01 -0.16388569463E+02  0.18880710481E+02  0.17770000000E+01 0.  1.
</event>
<event>
 6    1  0.1108180E-002  0.1832046E+03  0.7546771E-02  0.1067895E+00
        -11   -1    0    0    0    0  0.00000000000E+00  0.00000000000E+00  0.18250000000E+03  0.18250000000E+03  0.00000000000E+00 0. -1.
         11   -1    0    0    0    0 -0.00000000000E+00 -0.00000000000E+00 -0.18250000000E+03  0.18250000000E+03  0.00000000000E+00 0.  1.
        -11    1    1    2    0    0 -0.82033722497E+01 -0.45006628437E+01  0.18155447571E+03  0.18179543155E+03  0.00000000000E+00 0. -1.
         11    1    1    2    0    0  0.65027820204E-01 -0.17738255671E+01 -0.69570271095E+02  0.69592911320E+02  0.00000000000E+00 0.  1.
        -15    1    1    2    0    0  0.11331090098E+02  0.51798673262E+01 -0.10404845760E+03  0.10480679313E+03  0.17770000000E+01 0.  1.
         15    1    1    2    0    0 -0.31927456686E+01  0.10946210845E+01 -0.79357470225E+01  0.88048639983E+01  0.17770000000E+01 0. -1.
</event>
<event>
 6    1  0.1108180E-002  0.1850207E+03  0.7546771E-02  0.1066466E+00
        -11   -1    0    0    0    0  0.00000000000E+00  0.00000000000E+00  0.18250000000E+03  0.18250000000E+03  0.00000000000E+00 0. -1.
         11   -1    0    0    0    0 -0.00000000000E+00 -0.00000000000E+00 -0.18250000000E+03  0.18250000000E+03  0.00000000000E+00 0. -1.
        -11    1    1    2    0    0  0.25384585645E+01 -0.41829638319E+01  0.16191879978E+03  0.16199271181E+03  0.00000000000E+00 0. -1.
         11    1    1    2    0    0  0.32064490209E-01 -0.41648962555E+01 -0.17993108971E+03  0.17997928890E+03  0.00000000000E+00 0. -1.
        -15    1    1    2    0    0 -0.24239172052E+01  0.74309249388E+01  0.19123636233E+02  0.20735602519E+02  0.17770000000E+01 0.  1.
         15    1    1    2    0    0 -0.14660584960E+00  0.91693514859E+00 -0.11113463070E+01  0.22923967711E+01  0.17770000000E+01 0. -1.
</event>
<event>
 6    1  0.1108180E-002  0.1749473E+03  0.7546771E-02  0.1074631E+00
        -11   -1    0    0    0    0  0.00000000000E+00  0.00000000000E+00  0.18250000000E+03  0.18250000000E+03  0.00000000000E+00 0. -1.
         11   -1    0    0    0    0 -0.00000000000E+00 -0.00000000000E+00 -0.18250000000E+03  0.18250000000E+03  0.00000000000E+00 0. -1.
        -11    1    1    2    0    0 -0.13220927157E+01  0.83929916812E+01  0.17250597597E+03  0.17271508905E+03  0.00000000000E+00 0. -1.
         11    1    1    2    0    0  0.35287211432E+01 -0.76291560689E-01 -0.17728271880E+03  0.17731785042E+03  0.00000000000E+00 0. -1.
        -15    1    1    2    0    0 -0.16741486150E+01  0.11815619100E+01 -0.18097538959E+01  0.32606441535E+01  0.17770000000E+01 0.  1.
         15    1    1    2    0    0 -0.53247981245E+00 -0.94982620305E+01  0.65864967205E+01  0.11706416377E+02  0.17770000000E+01 0.  1.
</event>
<event>
 6    1  0.1108180E-002  0.1934245E+03  0.7546771E-02  0.1060077E+00
        -11   -1    0    0    0    0  0.00000000000E+00  0.00000000000E+00  0.18250000000E+03  0.18250000000E+03  0.00000000000E+00 0. -1.
         11   -1    0    0    0    0 -0.00000000000E+00 -0.00000000000E+00 -0.18250000000E+03  0.18250000000E+03  0.00000000000E+00 0. -1.
        -11    1    1    2    0    0 -0.13420361359E+02 -0.53795651226E+01  0.15318878999E+03  0.15386959154E+03  0.00000000000E+00 0. -1.
         11    1    1    2    0    0 -0.55414683532E+01 -0.65711136587E+00 -0.17148470504E+03  0.17157547532E+03  0.00000000000E+00 0. -1.
        -15    1    1    2    0    0 -0.17692567320E+01 -0.83601758819E+01  0.74180658563E+00  0.87596127865E+01  0.17770000000E+01 0.  1.
         15    1    1    2    0    0  0.20731086444E+02  0.14396852370E+02  0.17554108463E+02  0.30795320363E+02  0.17770000000E+01 0. -1.
</event>
<event>
 6    1  0.1108180E-002  0.1825841E+03  0.7546771E-02  0.1068388E+00
        -11   -1    0    0    0    0  0.00000000000E+00  0.00000000000E+00  0.18250000000E+03  0.18250000000E+03  0.00000000000E+00 0.  1.
         11   -1    0    0    0    0 -0.00000000000E+00 -0.00000000000E+00 -0.18250000000E+03  0.18250000000E+03  0.00000000000E+00 0. -1.
        -11    1    1    2    0    0  0.33529527507E+01  0.53786790025E+00  0.18238430111E+03  0.18241591182E+03  0.00000000000E+00 0.  1.
         11    1    1    2    0    0  0.63539932084E+00 -0.72091785786E+00 -0.70019144920E+02  0.70025738912E+02  0.00000000000E+00 0. -1.
        -15    1    1    2    0    0 -0.15748025420E+01 -0.13546642400E+01 -0.72359913049E+02  0.72411531290E+02  0.17770000000E+01 0.  1.
         15    1    1    2    0    0 -0.24135495296E+01  0.15377141977E+01 -0.40005243138E+02  0.40146817979E+02  0.17770000000E+01 0. -1.
</event>
<event>
 6    1  0.1108180E-002  0.1853011E+03  0.7546771E-02  0.1066247E+00
        -11   -1    0    0    0    0  0.00000000000E+00  0.00000000000E+00  0.18250000000E+03  0.18250000000E+03  0.00000000000E+00 0. -1.
         11   -1    0    0    0    0 -0.00000000000E+00 -0.00000000000E+00 -0.18250000000E+03  0.18250000000E+03  0.00000000000E+00 0. -1.
        -11    1    1    2    0    0  0.57467433380E+01 -0.36782870597E+00  0.15565641409E+03  0.15576289547E+03  0.00000000000E+00 0. -1.
         11    1    1    2    0    0  0.11277102775E+01 -0.34425204619E+01 -0.17966236761E+03  0.17969888429E+03  0.00000000000E+00 0. -1.
        -15    1    1    2    0    0 -0.37152703151E+01 -0.76279731250E+00  0.23284719386E+02  0.23658423006E+02  0.17770000000E+01 0. -1.
         15    1    1    2    0    0 -0.31591833003E+01  0.45731464804E+01  0.72123413157E+00  0.58797972353E+01  0.17770000000E+01 0.  1.
</event>
<event>
 6    1  0.1108180E-002  0.1789184E+03  0.7546771E-02  0.1071342E+00
        -11   -1    0    0    0    0  0.00000000000E+00  0.00000000000E+00  0.18250000000E+03  0.18250000000E+03  0.00000000000E+00 0. -1.
         11   -1    0    0    0    0 -0.00000000000E+00 -0.00000000000E+00 -0.18250000000E+03  0.18250000000E+03  0.00000000000E+00 0.  1.
        -11    1    1    2    0    0 -0.23371033848E+01  0.77569092309E+00  0.17808702563E+03  0.17810404949E+03  0.00000000000E+00 0. -1.
         11    1    1    2    0    0 -0.67715473504E+00 -0.27158516212E+01 -0.17973268852E+03  0.17975448176E+03  0.00000000000E+00 0.  1.
        -15    1    1    2    0    0  0.45831461626E+00 -0.13895125319E+01  0.10984950321E+01  0.25505328266E+01  0.17770000000E+01 0.  1.
         15    1    1    2    0    0  0.25559435036E+01  0.33296732301E+01  0.54716786436E+00  0.45909359268E+01  0.17770000000E+01 0.  1.
</event>
<event>
 6    1  0.1108180E-002  0.1755319E+03  0.7546771E-02  0.1074141E+00
        -11   -1    0    0    0    0  0.00000000000E+00  0.00000000000E+00  0.18250000000E+03  0.18250000000E+03  0.00000000000E+00 0.  1.
         11   -1    0    0    0    0 -0.00000000000E+00 -0.00000000000E+00 -0.18250000000E+03  0.18250000000E+03  0.00000000000E+00 0. -1.
        -11    1    1    2    0    0 -0.55130199696E+00  0.29491879271E+01  0.17316401966E+03  0.17319000938E+03  0.00000000000E+00 0.  1.
         11    1    1    2    0    0 -0.13073764035E+01  0.75792307863E+01 -0.17790238482E+03  0.17806856123E+03  0.00000000000E+00 0. -1.
        -15    1    1    2    0    0 -0.16474798713E+01 -0.73072493517E+01  0.37536001136E+01  0.85648891310E+01  0.17770000000E+01 0. -1.
         15    1    1    2    0    0  0.35061582717E+01 -0.32211693617E+01  0.98476505254E+00  0.51765402627E+01  0.17770000000E+01 0.  1.
</event>
<event>
 6    1  0.1108180E-002  0.1844533E+03  0.7546771E-02  0.1066911E+00
        -11   -1    0    0    0    0  0.00000000000E+00  0.00000000000E+00  0.18250000000E+03  0.18250000000E+03  0.00000000000E+00 0. -1.
         11   -1    0    0    0    0 -0.00000000000E+00 -0.00000000000E+00 -0.18250000000E+03  0.18250000000E+03  0.00000000000E+00 0.  1.
        -11    1    1    2    0    0  0.45075637076E+01 -0.20041041340E+01  0.15495033178E+03  0.15502883565E+03  0.00000000000E+00 0. -1.
         11    1    1    2    0    0 -0.76215242325E+01  0.65709434661E+00 -0.18038458482E+03  0.18054671928E+03  0.00000000000E+00 0.  1.
        -15    1    1    2    0    0  0.33116653980E+01 -0.32831108022E+01  0.23617619068E+02  0.24139088709E+02  0.17770000000E+01 0. -1.
         15    1    1    2    0    0 -0.19770487309E+00  0.46301205896E+01  0.18166339702E+01  0.52853563619E+01  0.17770000000E+01 0.  1.
</event>
<event>
 6    1  0.1108180E-002  0.1839424E+03  0.7546771E-02  0.1067312E+00
        -11   -1    0    0    0    0  0.00000000000E+00  0.00000000000E+00  0.18250000000E+03  0.18250000000E+03  0.00000000000E+00 0.  1.
         11   -1    0    0    0    0 -0.00000000000E+00 -0.00000000000E+00 -0.18250000000E+03  0.18250000000E+03  0.00000000000E+00 0. -1.
        -11    1    1    2    0    0 -0.64817410899E+00  0.64192349221E+00  0.32871038436E+02  0.32883694490E+02  0.00000000000E+00 0.  1.
         11    1    1    2    0    0 -0.83273568445E+00  0.32890760500E+01 -0.18102580282E+03  0.18105759513E+03  0.00000000000E+00 0. -1.
        -15    1    1    2    0    0  0.41157237770E+01 -0.96847300811E+01  0.19443640326E+02  0.22179857012E+02  0.17770000000E+01 0. -1.
         15    1    1    2    0    0 -0.26348139835E+01  0.57537305389E+01  0.12871112406E+03  0.12887885336E+03  0.17770000000E+01 0.  1.
</event>
<event>
 6    1  0.1108180E-002  0.1829372E+03  0.7546771E-02  0.1068107E+00
        -11   -1    0    0    0    0  0.00000000000E+00  0.00000000000E+00  0.18250000000E+03  0.18250000000E+03  0.00000000000E+00 0.  1.
         11   -1    0    0    0    0 -0.00000000000E+00 -0.00000000000E+00 -0.18250000000E+03  0.18250000000E+03  0.00000000000E+00 0.  1.
        -11    1    1    2    0    0 -0.24955762581E+01 -0.14622874158E+00  0.94525279212E+02  0.94558329584E+02  0.00000000000E+00 0.  1.
         11    1    1    2    0    0  0.37655508261E+01  0.95302239372E+00 -0.18202139642E+03  0.18206283635E+03  0.00000000000E+00 0.  1.
        -15    1    1    2    0    0  0.46170750284E+01 -0.69518893755E+00  0.20457389607E+02  0.21058565668E+02  0.17770000000E+01 0. -1.
         15    1    1    2    0    0 -0.58870495964E+01 -0.11160471460E+00  0.67038727606E+02  0.67320268394E+02  0.17770000000E+01 0.  1.
</event>
<event>
 6    1  0.1108180E-002  0.1890364E+03  0.7546771E-02  0.1063368E+00
        -11   -1    0    0    0    0  0.00000000000E+00  0.00000000000E+00  0.18250000000E+03  0.18250000000E+03  0.00000000000E+00 0. -1.
         11   -1    0    0    0    0 -0.00000000000E+00 -0.00000000000E+00 -0.18250000000E+03  0.18250000000E+03  0.00000000000E+00 0. -1.
        -11    1    1    2    0    0  0.28181939684E+01 -0.63911551089E+01  0.17582494308E+03  0.17596363172E+03  0.00000000000E+00 0. -1.
         11    1    1    2    0    0  0.91356926735E+00 -0.29879742912E+01 -0.16654187745E+03  0.16657118462E+03  0.00000000000E+00 0. -1.
        -15    1    1    2    0    0 -0.27529944408E+01  0.60379265459E+01 -0.14441992075E+02  0.15992635788E+02  0.17770000000E+01 0. -1.
         15    1    1    2    0    0 -0.97876879503E+00  0.33412028542E+01  0.51589264488E+01  0.64725478733E+01  0.17770000000E+01 0.  1.
</event>
<event>
 6    1  0.1108180E-002  0.1867590E+03  0.7546771E-02  0.1065114E+00
        -11   -1    0    0    0    0  0.00000000000E+00  0.00000000000E+00  0.18250000000E+03  0.18250000000E+03  0.00000000000E+00 0.  1.
         11   -1    0    0    0    0 -0.00000000000E+00 -0.00000000000E+00 -0.18250000000E+03  0.18250000000E+03  0.00000000000E+00 0.  1.
        -11    1    1    2    0    0 -0.26651738029E+00 -0.51610535964E+01  0.15883738166E+03  0.15892143128E+03  0.00000000000E+00 0.  1.
         11    1    1    2    0    0 -0.29358779386E+01 -0.32127638495E+01 -0.17818781366E+03  0.17824095536E+03  0.00000000000E+00 0.  1.
        -15    1    1    2    0    0 -0.27056408558E+01  0.35965965858E+00  0.17189743908E+02  0.17495567214E+02  0.17770000000E+01 0.  1.
         15    1    1    2    0    0  0.59080361747E+01  0.80141577873E+01  0.21606880903E+01  0.10342046147E+02  0.17770000000E+01 0. -1.
</event>
<event>
 6    1  0.1108180E-002  0.1810420E+03  0.7546771E-02  0.1069621E+00
        -11   -1    0    0    0    0  0.00000000000E+00  0.00000000000E+00  0.18250000000E+03  0.18250000000E+03  0.00000000000E+00 0. -1.
         11   -1    0    0    0    0 -0.00000000000E+00 -0.00000000000E+00 -0.18250000000E+03  0.18250000000E+03  0.00000000000E+00 0. -1.
        -11    1    1    2    0    0 -0.13471587765E+01 -0.51242745831E+01  0.18218341513E+03  0.18226044490E+03  0.00000000000E+00 0. -1.
         11    1    1    2    0    0 -0.53059233784E+00 -0.37720188913E+00 -0.32293935431E+01  0.32943576233E+01  0.00000000000E+00 0. -1.
        -15    1    1    2    0    0 -0.21077419564E+00  0.73960454846E+01 -0.65229700221E+02  0.65672044544E+02  0.17770000000E+01 0. -1.
         15    1    1    2    0    0  0.20885253100E+01 -0.18945690124E+01 -0.11372432136E+03  0.11377315293E+03  0.17770000000E+01 0. -1.
</event>
<event>
 6    1  0.1108180E-002  0.1828470E+03  0.7546771E-02  0.1068179E+00
        -11   -1    0    0    0    0  0.00000000000E+00  0.00000000000E+00  0.18250000000E+03  0.18250000000E+03  0.00000000000E+00 0.  1.
         11   -1    0    0    0    0 -0.00000000000E+00 -0.00000000000E+00 -0.18250000000E+03  0.18250000000E+03  0.00000000000E+00 0.  1.
        -11    1    1    2    0    0  0.11567519677E+01 -0.11741745057E+01  0.11741781460E+03  0.11742938280E+03  0.00000000000E+00 0.  1.
         11    1    1    2    0    0  0.56548389078E+00 -0.25374438813E+01 -0.18213446394E+03  0.18215301631E+03  0.00000000000E+00 0.  1.
        -15    1    1    2    0    0  0.85606774518E+00 -0.50471835887E+00  0.43949835415E+02  0.43996969834E+02  0.17770000000E+01 0.  1.
         15    1    1    2    0    0 -0.25783036037E+01  0.42163367459E+01  0.20766813931E+02  0.21420631057E+02  0.17770000000E+01 0.  1.
</event>
<event>
 6    1  0.1108180E-002  0.1833114E+03  0.7546771E-02  0.1067811E+00
        -11   -1    0    0    0    0  0.00000000000E+00  0.00000000000E+00  0.18250000000E+03  0.18250000000E+03  0.00000000000E+00 0. -1.
         11   -1    0    0    0    0 -0.00000000000E+00 -0.00000000000E+00 -0.18250000000E+03  0.18250000000E+03  0.00000000000E+00 0. -1.
        -11    1    1    2    0    0 -0.20787642167E+00 -0.82085286647E+00  0.20420968124E+02  0.20438516363E+02  0.00000000000E+00 0. -1.
         11    1    1    2    0    0  0.10335990925E+01  0.24272786581E+01 -0.18166940623E+03  0.18168856092E+03  0.00000000000E+00 0. -1.
        -15    1    1    2    0    0 -0.55927466070E+00  0.12747686203E+01  0.80955357607E+00  0.23981095000E+01  0.17770000000E+01 0.  1.
         15    1    1    2    0    0 -0.26644801017E+00 -0.28811944119E+01  0.16043888454E+03  0.16047481321E+03  0.17770000000E+01 0. -1.
</event>
<event>
 6    1  0.1108180E-002  0.1836345E+03  0.7546771E-02  0.1067555E+00
        -11   -1    0    0    0    0  0.00000000000E+00  0.00000000000E+00  0.18250000000E+03  0.18250000000E+03  0.00000000000E+00 0. -1.
         11   -1    0    0    0    0 -0.00000000000E+00 -0.00000000000E+00 -0.18250000000E+03  0.18250000000E+03  0.00000000000E+00 0. -1.
        -11    1    1    2    0    0  0.41520258606E+00 -0.34209989775E+01  0.17435618862E+03  0.17439024095E+03  0.00000000000E+00 0. -1.
         11    1    1    2    0    0  0.37956641607E+00  0.49916815895E+01 -0.18129642089E+03  0.18136552369E+03  0.00000000000E+00 0. -1.
        -15    1    1    2    0    0 -0.14530366304E+00  0.13901494232E+01  0.42680645301E+01  0.48298791296E+01  0.17770000000E+01 0. -1.
         15    1    1    2    0    0 -0.64946533909E+00 -0.29608320352E+01  0.26721677352E+01  0.44143562353E+01  0.17770000000E+01 0. -1.
</event>
<event>
 6    1  0.1108180E-002  0.1825720E+03  0.7546771E-02  0.1068398E+00
        -11   -1    0    0    0    0  0.00000000000E+00  0.00000000000E+00  0.18250000000E+03  0.18250000000E+03  0.00000000000E+00 0.  1.
         11   -1    0    0    0    0 -0.00000000000E+00 -0.00000000000E+00 -0.18250000000E+03  0.18250000000E+03  0.00000000000E+00 0.  1.
        -11    1    1    2    0    0 -0.28226494550E+01 -0.16779883388E+01  0.18239844072E+03  0.18242799722E+03  0.00000000000E+00 0.  1.
         11    1    1    2    0    0  0.36387285953E+00  0.90776067513E+00 -0.46062202251E+02  0.46072583052E+02  0.00000000000E+00 0.  1.
        -15    1    1    2    0    0  0.42764376576E-01 -0.15645694028E+01 -0.80040732550E+02  0.80075753524E+02  0.17770000000E+01 0.  1.
         15    1    1    2    0    0  0.24160122189E+01  0.23347970664E+01 -0.56295505915E+02  0.56423666202E+02  0.17770000000E+01 0. -1.
</event>
<event>
 6    1  0.1108180E-002  0.1862810E+03  0.7546771E-02  0.1065484E+00
        -11   -1    0    0    0    0  0.00000000000E+00  0.00000000000E+00  0.18250000000E+03  0.18250000000E+03  0.00000000000E+00 0.  1.
         11   -1    0    0    0    0 -0.00000000000E+00 -0.00000000000E+00 -0.18250000000E+03  0.18250000000E+03  0.00000000000E+00 0.  1.
        -11    1    1    2    0    0  0.78282266742E+00  0.23005184986E+01  0.15509375686E+03  0.15511279320E+03  0.00000000000E+00 0.  1.
         11    1    1    2    0    0  0.11666636452E+02 -0.17650377059E+01 -0.17832905177E+03  0.17871898743E+03  0.00000000000E+00 0.  1.
        -15    1    1    2    0    0 -0.68155201808E+01  0.34008664287E+01  0.10704840150E+01  0.78943570243E+01  0.17770000000E+01 0. -1.
         15    1    1    2    0    0 -0.56339389385E+01 -0.39363472214E+01  0.22164810894E+02  0.23273862343E+02  0.17770000000E+01 0.  1.
</event>
<event>
 6    1  0.1108180E-002  0.1836361E+03  0.7546771E-02  0.1067554E+00
        -11   -1    0    0    0    0  0.00000000000E+00  0.00000000000E+00  0.18250000000E+03  0.18250000000E+03  0.00000000000E+00 0. -1.
         11   -1    0    0    0    0 -0.00000000000E+00 -0.00000000000E+00 -0.18250000000E+03  0.18250000000E+03  0.00000000000E+00 0. -1.
        -11    1    1    2    0    0 -0.41026584410E+01 -0.66286398467E+01  0.15103425433E+03  0.15123530227E+03  0.00000000000E+00 0. -1.
         11    1    1    2    0    0 -0.39509126771E+01  0.49605824008E+00 -0.18132015973E+03  0.18136387764E+03  0.00000000000E+00 0. -1.
        -15    1    1    2    0    0  0.61897388790E+01  0.61137602230E+01  0.22017752807E+02  0.23740895078E+02  0.17770000000E+01 0. -1.
         15    1    1    2    0    0  0.18638322391E+01  0.18821383544E-01  0.82681525981E+01  0.86599250138E+01  0.17770000000E+01 0.  1.
</event>
<event>
 6    1  0.1108180E-002  0.1767902E+03  0.7546771E-02  0.1073093E+00
        -11   -1    0    0    0    0  0.00000000000E+00  0.00000000000E+00  0.18250000000E+03  0.18250000000E+03  0.00000000000E+00 0. -1.
         11   -1    0    0    0    0 -0.00000000000E+00 -0.00000000000E+00 -0.18250000000E+03  0.18250000000E+03  0.00000000000E+00 0. -1.
        -11    1    1    2    0    0  0.37121695240E+01  0.82388850042E+00  0.17487974743E+03  0.17492108236E+03  0.00000000000E+00 0. -1.
         11    1    1    2    0    0  0.40634077790E+01 -0.20122794452E+01 -0.17870992786E+03  0.17876744354E+03  0.00000000000E+00 0. -1.
        -15    1    1    2    0    0 -0.72261629690E+01  0.30217744026E+01  0.28848059134E+01  0.85339548835E+01  0.17770000000E+01 0.  1.
         15    1    1    2    0    0 -0.54941433397E+00 -0.18333834578E+01  0.94537452240E+00  0.27775192171E+01  0.17770000000E+01 0. -1.
</event>
<event>
 6    1  0.1108180E-002  0.1848043E+03  0.7546771E-02  0.1066635E+00
        -11   -1    0    0    0    0  0.00000000000E+00  0.00000000000E+00  0.18250000000E+03  0.18250000000E+03  0.00000000000E+00 0.  1.
         11   -1    0    0    0    0 -0.00000000000E+00 -0.00000000000E+00 -0.18250000000E+03  0.18250000000E+03  0.00000000000E+00 0.  1.
        -11    1    1    2    0    0 -0.23498743081E+01 -0.21449939029E+01  0.16647234951E+03  0.16650275090E+03  0.00000000000E+00 0.  1.
         11    1    1    2    0    0 -0.50221000527E+01 -0.12930941455E+01 -0.18012110654E+03  0.18019574524E+03  0.00000000000E+00 0.  1.
        -15    1    1    2    0    0  0.16145204230E+01 -0.20988452917E+00  0.10158515162E+02  0.10440492661E+02  0.17770000000E+01 0. -1.
         15    1    1    2    0    0  0.57574539377E+01  0.36479725776E+01  0.34902418700E+01  0.78610111998E+01  0.17770000000E+01 0.  1.
</event>
<event>
 6    1  0.1108180E-002  0.1843782E+03  0.7546771E-02  0.1066970E+00
        -11   -1    0    0    0    0  0.00000000000E+00  0.00000000000E+00  0.18250000000E+03  0.18250000000E+03  0.00000000000E+00 0.  1.
         11   -1    0    0    0    0 -0.00000000000E+00 -0.00000000000E+00 -0.18250000000E+03  0.18250000000E+03  0.00000000000E+00 0.  1.
        -11    1    1    2    0    0 -0.32417239045E+01 -0.40580356979E+00  0.16223102078E+03  0.16226391329E+03  0.00000000000E+00 0.  1.
         11    1    1    2    0    0 -0.66181015235E+00 -0.31704870470E+01 -0.18059276101E+03  0.18062180187E+03  0.00000000000E+00 0.  1.
        -15    1    1    2    0    0 -0.98773829566E+00  0.24994368043E+00 -0.63033311936E+00  0.21431629955E+01  0.17770000000E+01 0.  1.
         15    1    1    2    0    0  0.48912723525E+01  0.33263469364E+01  0.18992073343E+02  0.19971121852E+02  0.17770000000E+01 0.  1.
</event>
<event>
 6    1  0.1108180E-002  0.1832801E+03  0.7546771E-02  0.1067836E+00
        -11   -1    0    0    0    0  0.00000000000E+00  0.00000000000E+00  0.18250000000E+03  0.18250000000E+03  0.00000000000E+00 0.  1.
         11   -1    0    0    0    0 -0.00000000000E+00 -0.00000000000E+00 -0.18250000000E+03  0.18250000000E+03  0.00000000000E+00 0.  1.
        -11    1    1    2    0    0 -0.59383392603E+00  0.35775153495E+01  0.18168372109E+03  0.18171991021E+03  0.00000000000E+00 0.  1.
         11    1    1    2    0    0  0.33337091460E+00 -0.34673132308E+01 -0.12794949450E+03  0.12799690051E+03  0.00000000000E+00 0.  1.
        -15    1    1    2    0    0 -0.18256771592E+01  0.10260925891E+01 -0.51490298372E+02  0.51563499867E+02  0.17770000000E+01 0.  1.
         15    1    1    2    0    0  0.20861401706E+01 -0.11362947079E+01 -0.22439282188E+01  0.37196894125E+01  0.17770000000E+01 0. -1.
</event>
<event>
 6    1  0.1108180E-002  0.1872567E+03  0.7546771E-02  0.1064730E+00
        -11   -1    0    0    0    0  0.00000000000E+00  0.00000000000E+00  0.18250000000E+03  0.18250000000E+03  0.00000000000E+00 0.  1.
         11   -1    0    0    0    0 -0.00000000000E+00 -0.00000000000E+00 -0.18250000000E+03  0.18250000000E+03  0.00000000000E+00 0.  1.
        -11    1    1    2    0    0  0.69724640449E+00 -0.13135744644E+02  0.17725591818E+03  0.17774333875E+03  0.00000000000E+00 0.  1.
         11    1    1    2    0    0 -0.21257222167E+01 -0.23655825043E+01 -0.16006600463E+03  0.16009759684E+03  0.00000000000E+00 0.  1.
        -15    1    1    2    0    0 -0.34904982518E+01  0.30247962832E+01 -0.11430318489E+02  0.12455636490E+02  0.17770000000E+01 0.  1.
         15    1    1    2    0    0  0.49189740640E+01  0.12476530865E+02 -0.57595950573E+01  0.14703427916E+02  0.17770000000E+01 0. -1.
</event>
<event>
 6    1  0.1108180E-002  0.1844347E+03  0.7546771E-02  0.1066925E+00
        -11   -1    0    0    0    0  0.00000000000E+00  0.00000000000E+00  0.18250000000E+03  0.18250000000E+03  0.00000000000E+00 0.  1.
         11   -1    0    0    0    0 -0.00000000000E+00 -0.00000000000E+00 -0.18250000000E+03  0.18250000000E+03  0.00000000000E+00 0.  1.
        -11    1    1    2    0    0  0.38161621058E+01 -0.36649993023E+01  0.14961639600E+03  0.14970992374E+03  0.00000000000E+00 0.  1.
         11    1    1    2    0    0 -0.13128454081E+00  0.41960689202E+01 -0.18051652303E+03  0.18056533254E+03  0.00000000000E+00 0.  1.
        -15    1    1    2    0    0 -0.96954021615E-01 -0.55879025707E+01  0.40903994292E+01  0.71500455741E+01  0.17770000000E+01 0.  1.
         15    1    1    2    0    0 -0.35879235433E+01  0.50568329528E+01  0.26809727600E+02  0.27574698146E+02  0.17770000000E+01 0.  1.
</event>
<event>
 6    1  0.1108180E-002  0.1827504E+03  0.7546771E-02  0.1068256E+00
        -11   -1    0    0    0    0  0.00000000000E+00  0.00000000000E+00  0.18250000000E+03  0.18250000000E+03  0.00000000000E+00 0. -1.
         11   -1    0    0    0    0 -0.00000000000E+00 -0.00000000000E+00 -0.18250000000E+03  0.18250000000E+03  0.00000000000E+00 0. -1.
        -11    1    1    2    0    0 -0.93169573300E+00  0.17694146302E+01  0.12959525508E+03  0.12961068253E+03  0.00000000000E+00 0. -1.
         11    1    1    2    0    0  0.26640911838E+00  0.36728477197E+01 -0.18221243825E+03  0.18224964592E+03  0.00000000000E+00 0. -1.
        -15    1    1    2    0    0  0.63362367645E+00 -0.65292992830E+00  0.22876522693E+02  0.22963466985E+02  0.17770000000E+01 0.  1.
         15    1    1    2    0    0  0.31662938172E-01 -0.47893324216E+01  0.29740660476E+02  0.30176204568E+02  0.17770000000E+01 0.  1.
</event>
<event>
 6    1  0.1108180E-002  0.1829038E+03  0.7546771E-02  0.1068134E+00
        -11   -1    0    0    0    0  0.00000000000E+00  0.00000000000E+00  0.18250000000E+03  0.18250000000E+03  0.00000000000E+00 0. -1.
         11   -1    0    0    0    0 -0.00000000000E+00 -0.00000000000E+00 -0.18250000000E+03  0.18250000000E+03  0.00000000000E+00 0.  1.
        -11    1    1    2    0    0 -0.16019463607E+01  0.27685688846E+01  0.21165503016E+02  0.21405833872E+02  0.00000000000E+00 0. -1.
         11    1    1    2    0    0  0.16562959504E+01  0.29038057877E+01 -0.18206555319E+03  0.18209624121E+03  0.00000000000E+00 0.  1.
        -15    1    1    2    0    0 -0.17116935051E+01 -0.38757638393E+01  0.15252768746E+03  0.15259686960E+03  0.17770000000E+01 0. -1.
         15    1    1    2    0    0  0.16573439154E+01 -0.17966108330E+01  0.83723627133E+01  0.89010553162E+01  0.17770000000E+01 0.  1.
</event>
<event>
 6    1  0.1108180E-002  0.1751403E+03  0.7546771E-02  0.1074469E+00
        -11   -1    0    0    0    0  0.00000000000E+00  0.00000000000E+00  0.18250000000E+03  0.18250000000E+03  0.00000000000E+00 0.  1.
         11   -1    0    0    0    0 -0.00000000000E+00 -0.00000000000E+00 -0.18250000000E+03  0.18250000000E+03  0.00000000000E+00 0.  1.
        -11    1    1    2    0    0  0.51323531300E+01 -0.16044169496E+01  0.17240049753E+03  0.17248433770E+03  0.00000000000E+00 0.  1.
         11    1    1    2    0    0  0.52736364545E+01  0.10236188682E+01 -0.17791351185E+03  0.17799459749E+03  0.00000000000E+00 0.  1.
        -15    1    1    2    0    0 -0.77419129226E+01 -0.76355035698E+00  0.71197449287E+01  0.10694331288E+02  0.17770000000E+01 0. -1.
         15    1    1    2    0    0 -0.26640766618E+01  0.13443484384E+01 -0.16067306165E+01  0.38267335232E+01  0.17770000000E+01 0.  1.
</event>
<event>
 6    1  0.1108180E-002  0.1924129E+03  0.7546771E-02  0.1060827E+00
        -11   -1    0    0    0    0  0.00000000000E+00  0.00000000000E+00  0.18250000000E+03  0.18250000000E+03  0.00000000000E+00 0. -1.
         11   -1    0    0    0    0 -0.00000000000E+00 -0.00000000000E+00 -0.18250000000E+03  0.18250000000E+03  0.00000000000E+00 0.  1.
        -11    1    1    2    0    0  0.29815096602E+01  0.74014915607E-01  0.16859673874E+03  0.16862311583E+03  0.00000000000E+00 0. -1.
         11    1    1    2    0    0  0.33090490615E+01  0.11652127546E+01 -0.17255145494E+03  0.17258711460E+03  0.00000000000E+00 0.  1.
        -15    1    1    2    0    0  0.28149308433E+01  0.14423309376E+01  0.11163903195E+02  0.11738595220E+02  0.17770000000E+01 0. -1.
         15    1    1    2    0    0 -0.91054895651E+01 -0.26815586077E+01 -0.72091870033E+01  0.12051174343E+02  0.17770000000E+01 0.  1.
</event>
<event>
 6    1  0.1108180E-002  0.1906751E+03  0.7546771E-02  0.1062127E+00
        -11   -1    0    0    0    0  0.00000000000E+00  0.00000000000E+00  0.18250000000E+03  0.18250000000E+03  0.00000000000E+00 0. -1.
         11   -1    0    0    0    0 -0.00000000000E+00 -0.00000000000E+00 -0.18250000000E+03  0.18250000000E+03  0.00000000000E+00 0. -1.
        -11    1    1    2    0    0 -0.55601560480E+01 -0.54733543783E+01  0.17415023769E+03  0.17432492143E+03  0.00000000000E+00 0. -1.
         11    1    1    2    0    0 -0.20400492672E+01  0.29407364671E+01 -0.99157205681E+02  0.99221777703E+02  0.00000000000E+00 0. -1.
        -15    1    1    2    0    0  0.52280524749E+01 -0.42373266400E+01 -0.81385073413E+02  0.81682160679E+02  0.17770000000E+01 0. -1.
         15    1    1    2    0    0  0.23721528403E+01  0.67699445512E+01  0.63920414052E+01  0.97711401919E+01  0.17770000000E+01 0.  1.
</event>
<event>
 6    1  0.1108180E-002  0.1924900E+03  0.7546771E-02  0.1060770E+00
        -11   -1    0    0    0    0  0.00000000000E+00  0.00000000000E+00  0.18250000000E+03  0.18250000000E+03  0.00000000000E+00 0. -1.
         11   -1    0    0    0    0 -0.00000000000E+00 -0.00000000000E+00 -0.18250000000E+03  0.18250000000E+03  0.00000000000E+00 0. -1.
        -11    1    1    2    0    0  0.12455263691E+01 -0.24720409892E+01  0.14553058175E+03  0.14555690484E+03  0.00000000000E+00 0. -1.
         11    1    1    2    0    0  0.13789856945E+01 -0.48245541099E+01 -0.17243701141E+03  0.17251000211E+03  0.00000000000E+00 0. -1.
        -15    1    1    2    0    0 -0.97736205400E+00  0.76447106145E+01  0.36338138366E+02  0.37188907834E+02  0.17770000000E+01 0.  1.
         15    1    1    2    0    0 -0.16471500096E+01 -0.34811551548E+00 -0.94317087024E+01  0.97441852206E+01  0.17770000000E+01 0. -1.
</event>
<event>
 6    1  0.1108180E-002  0.1835235E+03  0.7546771E-02  0.1067643E+00
        -11   -1    0    0    0    0  0.00000000000E+00  0.00000000000E+00  0.18250000000E+03  0.18250000000E+03  0.00000000000E+00 0.  1.
         11   -1    0    0    0    0 -0.00000000000E+00 -0.00000000000E+00 -0.18250000000E+03  0.18250000000E+03  0.00000000000E+00 0.  1.
        -11    1    1    2    0    0  0.16520485434E+01 -0.24549065239E+01  0.18145236232E+03  0.18147648779E+03  0.00000000000E+00 0.  1.
         11    1    1    2    0    0  0.12895646641E+01  0.25594395736E+01 -0.15368511369E+03  0.15371183389E+03  0.00000000000E+00 0.  1.
        -15    1    1    2    0    0 -0.53057527585E+00 -0.14388978728E+00  0.23229421484E-01  0.18602373505E+01  0.17770000000E+01 0.  1.
         15    1    1    2    0    0 -0.24110379317E+01  0.39356737622E-01 -0.27790478049E+02  0.27951440965E+02  0.17770000000E+01 0. -1.
</event>
<event>
 6    1  0.1108180E-002  0.1872814E+03  0.7546771E-02  0.1064711E+00
        -11   -1    0    0    0    0  0.00000000000E+00  0.00000000000E+00  0.18250000000E+03  0.18250000000E+03  0.00000000000E+00 0. -1.
         11   -1    0    0    0    0 -0.00000000000E+00 -0.00000000000E+00 -0.18250000000E+03  0.18250000000E+03  0.00000000000E+00 0. -1.
        -11    1    1    2    0    0 -0.23150502965E+01 -0.20169284691E+01  0.17769207994E+03  0.17771860548E+03  0.00000000000E+00 0. -1.
         11    1    1    2    0    0 -0.59869494514E+00 -0.81394951156E+01 -0.13317703394E+03  0.13342687955E+03  0.00000000000E+00 0. -1.
        -15    1    1    2    0    0 -0.57377332636E+00  0.57056546438E+01  0.24739264102E+01  0.64932081152E+01  0.17770000000E+01 0. -1.
         15    1    1    2    0    0  0.34875185680E+01  0.44507689409E+01 -0.46988972413E+02  0.47361306859E+02  0.17770000000E+01 0.  1.
</event>
<event>
 6    1  0.1108180E-002  0.1854304E+03  0.7546771E-02  0.1066146E+00
        -11   -1    0    0    0    0  0.00000000000E+00  0.00000000000E+00  0.18250000000E+03  0.18250000000E+03  0.00000000000E+00 0. -1.
         11   -1    0    0    0    0 -0.00000000000E+00 -0.00000000000E+00 -0.18250000000E+03  0.18250000000E+03  0.00000000000E+00 0. -1.
        -11    1    1    2    0    0  0.31437784757E+01  0.46881189058E+01  0.17948084470E+03  0.17956958377E+03  0.00000000000E+00 0. -1.
         11    1    1    2    0    0 -0.45002074598E-01  0.21446523332E+01 -0.12415165496E+03  0.12417018559E+03  0.00000000000E+00 0. -1.
        -15    1    1    2    0    0  0.36479621640E+01  0.18966538860E+01 -0.47271521358E+02  0.47483253726E+02  0.17770000000E+01 0. -1.
         15    1    1    2    0    0 -0.67467385651E+01 -0.87294251249E+01 -0.80576683802E+01  0.13776976918E+02  0.17770000000E+01 0.  1.
</event>
<event>
 6    1  0.1108180E-002  0.1925110E+03  0.7546771E-02  0.1060754E+00
        -11   -1    0    0    0    0  0.00000000000E+00  0.00000000000E+00  0.18250000000E+03  0.18250000000E+03  0.00000000000E+00 0.  1.
         11   -1    0    0    0    0 -0.00000000000E+00 -0.00000000000E+00 -0.18250000000E+03  0.18250000000E+03  0.00000000000E+00 0. -1.
        -11    1    1    2    0    0 -0.18820734323E+01 -0.84111753665E+01  0.16569906438E+03  0.16592308462E+03  0.00000000000E+00 0.  1.
         11    1    1    2    0    0  0.67354408544E+00  0.23725873571E+01 -0.17247141262E+03  0.17248904604E+03  0.00000000000E+00 0. -1.
        -15    1    1    2    0    0 -0.47429513065E+01 -0.29340265504E+01 -0.69298815134E+01  0.90711127038E+01  0.17770000000E+01 0.  1.
         15    1    1    2    0    0  0.59514806534E+01  0.89726145597E+01  0.13702229749E+02  0.17516756637E+02  0.17770000000E+01 0. -1.
</event>
<event>
 6    1  0.1108180E-002  0.1829475E+03  0.7546771E-02  0.1068099E+00
        -11   -1    0    0    0    0  0.00000000000E+00  0.00000000000E+00  0.18250000000E+03  0.18250000000E+03  0.00000000000E+00 0.  1.
         11   -1    0    0    0    0 -0.00000000000E+00 -0.00000000000E+00 -0.18250000000E+03  0.18250000000E+03  0.00000000000E+00 0.  1.
        -11    1    1    2    0    0  0.39157209466E+01  0.85607286039E+00  0.18200833933E+03  0.18205246859E+03  0.00000000000E+00 0.  1.
         11    1    1    2    0    0  0.20196244565E-01 -0.20164922296E+01 -0.11743794129E+03  0.11745525404E+03  0.00000000000E+00 0.  1.
        -15    1    1    2    0    0 -0.42160244233E+01 -0.99954647978E+00 -0.12538936611E+02  0.13384939875E+02  0.17770000000E+01 0. -1.
         15    1    1    2    0    0  0.28010723217E+00  0.21599658489E+01 -0.52031461438E+02  0.52107337496E+02  0.17770000000E+01 0. -1.
</event>
<event>
 6    1  0.1108180E-002  0.1888769E+03  0.7546771E-02  0.1063489E+00
        -11   -1    0    0    0    0  0.00000000000E+00  0.00000000000E+00  0.18250000000E+03  0.18250000000E+03  0.00000000000E+00 0.  1.
         11   -1    0    0    0    0 -0.00000000000E+00 -0.00000000000E+00 -0.18250000000E+03  0.18250000000E+03  0.00000000000E+00 0. -1.
        -11    1    1    2    0    0  0.26249981405E+01  0.21955801646E+01  0.17608984049E+03  0.17612309080E+03  0.00000000000E+00 0.  1.
         11    1    1    2    0    0 -0.74623541350E+01  0.16067334650E+01 -0.14963655659E+03  0.14983112958E+03  0.00000000000E+00 0. -1.
        -15    1    1    2    0    0  0.87821827159E+01  0.10345486224E+02 -0.10211827048E+02  0.17076151766E+02  0.17770000000E+01 0.  1.
         15    1    1    2    0    0 -0.39448267215E+01 -0.14147799853E+02 -0.16241456850E+02  0.21969627857E+02  0.17770000000E+01 0. -1.
</event>
<event>
 6    1  0.1108180E-002  0.1828508E+03  0.7546771E-02  0.1068176E+00
        -11   -1    0    0    0    0  0.00000000000E+00  0.00000000000E+00  0.18250000000E+03  0.18250000000E+03  0.00000000000E+00 0. -1.
         11   -1    0    0    0    0 -0.00000000000E+00 -0.00000000000E+00 -0.18250000000E+03  0.18250000000E+03  0.00000000000E+00 0.  1.
        -11    1    1    2    0    0  0.13856168716E+01 -0.19340621684E+01  0.15916825013E+03  0.15918603073E+03  0.00000000000E+00 0. -1.
         11    1    1    2    0    0 -0.23663694993E+01 -0.77688091312E+00 -0.18213217976E+03  0.18214920849E+03  0.00000000000E+00 0.  1.
        -15    1    1    2    0    0  0.20287680498E+00  0.28339817770E+01  0.18423258096E+02  0.18725564867E+02  0.17770000000E+01 0. -1.
         15    1    1    2    0    0  0.77787582271E+00 -0.12303869555E+00  0.45406715368E+01  0.49391959185E+01  0.17770000000E+01 0.  1.
</event>
<event>
 6    1  0.5360711E-002  0.1860526E+03  0.7546771E-02  0.1065662E+00
        -11   -1    0    0    0    0  0.00000000000E+00  0.00000000000E+00  0.18250000000E+03  0.18250000000E+03  0.00000000000E+00 0.  1.
         11   -1    0    0    0    0 -0.00000000000E+00 -0.00000000000E+00 -0.18250000000E+03  0.18250000000E+03  0.00000000000E+00 0. -1.
        -11    1    1    2    0    0 -0.14941859226E+01 -0.11886278962E+01  0.11682682526E+03  0.11684242607E+03  0.00000000000E+00 0.  1.
         11    1    1    2    0    0 -0.15045712676E+02 -0.14302449909E+02 -0.17773927487E+03  0.17894743188E+03  0.00000000000E+00 0. -1.
        -15    1    1    2    0    0  0.15598867507E+02  0.14659831752E+02  0.23901370395E+02  0.32135160965E+02  0.17770000000E+01 0. -1.
         15    1    1    2    0    0  0.94103109210E+00  0.83124605326E+00  0.37011079213E+02  0.37074981092E+02  0.17770000000E+01 0. -1.
</event>
<event>
 6    1  0.1108180E-002  0.1895962E+03  0.7546771E-02  0.1062942E+00
        -11   -1    0    0    0    0  0.00000000000E+00  0.00000000000E+00  0.18250000000E+03  0.18250000000E+03  0.00000000000E+00 0. -1.
         11   -1    0    0    0    0 -0.00000000000E+00 -0.00000000000E+00 -0.18250000000E+03  0.18250000000E+03  0.00000000000E+00 0.  1.
        -11    1    1    2    0    0  0.46747287391E+01  0.30411661581E+01  0.17531512786E+03  0.17540380793E+03  0.00000000000E+00 0. -1.
         11    1    1    2    0    0  0.35786904343E+00 -0.40485571576E+01 -0.15943175479E+03  0.15948355188E+03  0.00000000000E+00 0.  1.
        -15    1    1    2    0    0 -0.79721771052E+01 -0.83143619468E+01 -0.16451769232E+02  0.20161911175E+02  0.17770000000E+01 0. -1.
         15    1    1    2    0    0  0.29395793227E+01  0.93217529462E+01  0.56839616021E+00  0.99507290075E+01  0.17770000000E+01 0.  1.
</event>
<event>
 6    1  0.1108180E-002  0.1844100E+03  0.7546771E-02  0.1066945E+00
        -11   -1    0    0    0    0  0.00000000000E+00  0.00000000000E+00  0.18250000000E+03  0.18250000000E+03  0.00000000000E+00 0. -1.
         11   -1    0    0    0    0 -0.00000000000E+00 -0.00000000000E+00 -0.18250000000E+03  0.18250000000E+03  0.00000000000E+00 0. -1.
        -11    1    1    2    0    0 -0.40019072067E+01 -0.22841752305E+01  0.16561019930E+03  0.16567429140E+03  0.00000000000E+00 0. -1.
         11    1    1    2    0    0  0.16882955132E+01 -0.60666036232E+01 -0.18048013362E+03  0.18058995724E+03  0.00000000000E+00 0. -1.
        -15    1    1    2    0    0 -0.16520957572E+01  0.53371554381E+01  0.97380959949E+01  0.11366744968E+02  0.17770000000E+01 0. -1.
         15    1    1    2    0    0  0.39657074506E+01  0.30136234156E+01  0.51318383272E+01  0.73690063978E+01  0.17770000000E+01 0.  1.
</event>
<event>
 6    1  0.1108180E-002  0.1853047E+03  0.7546771E-02  0.1066244E+00
        -11   -1    0    0    0    0  0.00000000000E+00  0.00000000000E+00  0.18250000000E+03  0.18250000000E+03  0.00000000000E+00 0. -1.
         11   -1    0    0    0    0 -0.00000000000E+00 -0.00000000000E+00 -0.18250000000E+03  0.18250000000E+03  0.00000000000E+00 0. -1.
        -11    1    1    2    0    0  0.62813180488E+00 -0.11706832100E+01  0.64337713128E+02  0.64351428728E+02  0.00000000000E+00 0. -1.
         11    1    1    2    0    0  0.32659869930E+01 -0.59837932698E+00 -0.17966462951E+03  0.17969530830E+03  0.00000000000E+00 0. -1.
        -15    1    1    2    0    0 -0.89067611432E+01  0.48606965525E+01  0.70061394011E+01  0.12457948601E+02  0.17770000000E+01 0.  1.
         15    1    1    2    0    0  0.50126423453E+01 -0.30916340155E+01  0.10832077698E+03  0.10849531437E+03  0.17770000000E+01 0. -1.
</event>
<event>
 6    1  0.1108180E-002  0.1859080E+03  0.7546771E-02  0.1065774E+00
        -11   -1    0    0    0    0  0.00000000000E+00  0.00000000000E+00  0.18250000000E+03  0.18250000000E+03  0.00000000000E+00 0. -1.
         11   -1    0    0    0    0 -0.00000000000E+00 -0.00000000000E+00 -0.18250000000E+03  0.18250000000E+03  0.00000000000E+00 0.  1.
        -11    1    1    2    0    0  0.23503098763E+01  0.37252920471E+01  0.17903780415E+03  0.17909197937E+03  0.00000000000E+00 0. -1.
         11    1    1    2    0    0  0.24399203117E+01  0.49704977606E+01 -0.16049965159E+03  0.16059513448E+03  0.00000000000E+00 0.  1.
        -15    1    1    2    0    0  0.19411950111E+01 -0.57059708414E+00 -0.12978191328E+02  0.13254621769E+02  0.17770000000E+01 0.  1.
         15    1    1    2    0    0 -0.67314251991E+01 -0.81251927236E+01 -0.55599612392E+01  0.12058264385E+02  0.17770000000E+01 0. -1.
</event>
<event>
 6    1  0.1108180E-002  0.1847330E+03  0.7546771E-02  0.1066691E+00
        -11   -1    0    0    0    0  0.00000000000E+00  0.00000000000E+00  0.18250000000E+03  0.18250000000E+03  0.00000000000E+00 0. -1.
         11   -1    0    0    0    0 -0.00000000000E+00 -0.00000000000E+00 -0.18250000000E+03  0.18250000000E+03  0.00000000000E+00 0. -1.
        -11    1    1    2    0    0  0.42190612058E+01  0.97640368580E+01  0.17995291306E+03  0.18026699036E+03  0.00000000000E+00 0. -1.
         11    1    1    2    0    0  0.21528149018E+01  0.26758129918E+00 -0.13953851363E+03  0.13955537610E+03  0.00000000000E+00 0. -1.
        -15    1    1    2    0    0 -0.16023232448E+01  0.22255254664E+01 -0.75138431023E+00  0.33530151750E+01  0.17770000000E+01 0.  1.
         15    1    1    2    0    0 -0.47695528629E+01 -0.12257143623E+02 -0.39663015116E+02  0.41824618366E+02  0.17770000000E+01 0. -1.
</event>
<event>
 6    1  0.1108180E-002  0.1827643E+03  0.7546771E-02  0.1068245E+00
        -11   -1    0    0    0    0  0.00000000000E+00  0.00000000000E+00  0.18250000000E+03  0.18250000000E+03  0.00000000000E+00 0. -1.
         11   -1    0    0    0    0 -0.00000000000E+00 -0.00000000000E+00 -0.18250000000E+03  0.18250000000E+03  0.00000000000E+00 0. -1.
        -11    1    1    2    0    0 -0.30746296488E+01 -0.12948148950E+01  0.66419243352E+02  0.66502975727E+02  0.00000000000E+00 0. -1.
         11    1    1    2    0    0 -0.11857152491E+01 -0.24714618504E+01 -0.18221506126E+03  0.18223567871E+03  0.00000000000E+00 0. -1.
        -15    1    1    2    0    0 -0.33117717095E+00 -0.20744700400E+01  0.31953545528E+02  0.32071792982E+02  0.17770000000E+01 0. -1.
         15    1    1    2    0    0  0.45915220689E+01  0.58407467853E+01  0.83842272377E+02  0.84189552584E+02  0.17770000000E+01 0. -1.
</event>
<event>
 6    1  0.1108180E-002  0.1826591E+03  0.7546771E-02  0.1068328E+00
        -11   -1    0    0    0    0  0.00000000000E+00  0.00000000000E+00  0.18250000000E+03  0.18250000000E+03  0.00000000000E+00 0.  1.
         11   -1    0    0    0    0 -0.00000000000E+00 -0.00000000000E+00 -0.18250000000E+03  0.18250000000E+03  0.00000000000E+00 0.  1.
        -11    1    1    2    0    0  0.14206187900E+01 -0.26607019912E+01  0.18231595502E+03  0.18234090311E+03  0.00000000000E+00 0.  1.
         11    1    1    2    0    0 -0.91721183880E+00 -0.12994101210E+01 -0.77590649631E+02  0.77606949782E+02  0.00000000000E+00 0.  1.
        -15    1    1    2    0    0  0.20402178860E+00  0.12555013975E+01 -0.87183856622E+01  0.89880969178E+01  0.17770000000E+01 0. -1.
         15    1    1    2    0    0 -0.70742873975E+00  0.27046107147E+01 -0.96006919726E+02  0.96064050189E+02  0.17770000000E+01 0.  1.
</event>
<event>
 6    1  0.1108180E-002  0.1844715E+03  0.7546771E-02  0.1066896E+00
        -11   -1    0    0    0    0  0.00000000000E+00  0.00000000000E+00  0.18250000000E+03  0.18250000000E+03  0.00000000000E+00 0. -1.
         11   -1    0    0    0    0 -0.00000000000E+00 -0.00000000000E+00 -0.18250000000E+03  0.18250000000E+03  0.00000000000E+00 0.  1.
        -11    1    1    2    0    0  0.34573656872E+01 -0.31887148181E+01  0.18046718449E+03  0.18052846301E+03  0.00000000000E+00 0. -1.
         11    1    1    2    0    0 -0.33005062424E+01  0.10797736823E+01 -0.17074697254E+03  0.17078228211E+03  0.00000000000E+00 0.  1.
        -15    1    1    2    0    0 -0.35423742979E+01 -0.41483170119E+00 -0.14603327225E+01  0.42439134848E+01  0.17770000000E+01 0. -1.
         15    1    1    2    0    0  0.33855148530E+01  0.25237728370E+01 -0.82598792261E+01  0.94453413905E+01  0.17770000000E+01 0.  1.
</event>
<event>
 6    1  0.1108180E-002  0.2011992E+03  0.7546771E-02  0.1054474E+00
        -11   -1    0    0    0    0  0.00000000000E+00  0.00000000000E+00  0.18250000000E+03  0.18250000000E+03  0.00000000000E+00 0. -1.
         11   -1    0    0    0    0 -0.00000000000E+00 -0.00000000000E+00 -0.18250000000E+03  0.18250000000E+03  0.00000000000E+00 0. -1.
        -11    1    1    2    0    0  0.20919296154E+02 -0.59830341545E+01  0.16234931067E+03  0.16380083127E+03  0.00000000000E+00 0. -1.
         11    1    1    2    0    0  0.17575598719E+01  0.93489689640E+00 -0.11293421456E+03  0.11295175902E+03  0.00000000000E+00 0. -1.
        -15    1    1    2    0    0  0.12262494450E+02  0.25683433325E+01 -0.51578902965E+02  0.53108437350E+02  0.17770000000E+01 0. -1.
         15    1    1    2    0    0 -0.34939350476E+02  0.24797939256E+01  0.21638068537E+01  0.35138972363E+02  0.17770000000E+01 0.  1.
</event>
<event>
 6    1  0.1108180E-002  0.1840551E+03  0.7546771E-02  0.1067224E+00
        -11   -1    0    0    0    0  0.00000000000E+00  0.00000000000E+00  0.18250000000E+03  0.18250000000E+03  0.00000000000E+00 0. -1.
         11   -1    0    0    0    0 -0.00000000000E+00 -0.00000000000E+00 -0.18250000000E+03  0.18250000000E+03  0.00000000000E+00 0. -1.
        -11    1    1    2    0    0 -0.37042443130E+01  0.69222529365E+00  0.18090569493E+03  0.18094493931E+03  0.00000000000E+00 0. -1.
         11    1    1    2    0    0  0.25311431960E+01 -0.31270306237E+00 -0.17924478655E+03  0.17926292972E+03  0.00000000000E+00 0. -1.
        -15    1    1    2    0    0  0.78572070683E+00 -0.83802064358E+00 -0.19701544627E+01  0.28911716025E+01  0.17770000000E+01 0.  1.
         15    1    1    2    0    0  0.38738041016E+00  0.45849841230E+00  0.30924607852E+00  0.19009593666E+01  0.17770000000E+01 0. -1.
</event>
<event>
 6    1  0.1108180E-002  0.1778845E+03  0.7546771E-02  0.1072189E+00
        -11   -1    0    0    0    0  0.00000000000E+00  0.00000000000E+00  0.18250000000E+03  0.18250000000E+03  0.00000000000E+00 0. -1.
         11   -1    0    0    0    0 -0.00000000000E+00 -0.00000000000E+00 -0.18250000000E+03  0.18250000000E+03  0.00000000000E+00 0.  1.
        -11    1    1    2    0    0  0.60828346326E+00 -0.27645573947E+01  0.17719140439E+03  0.17721401349E+03  0.00000000000E+00 0. -1.
         11    1    1    2    0    0  0.25906113971E+01 -0.25401394910E+01 -0.17857477978E+03  0.17861163330E+03  0.00000000000E+00 0.  1.
        -15    1    1    2    0    0 -0.15732851470E+01  0.54622300896E+00 -0.17406294322E+01  0.29935105728E+01  0.17770000000E+01 0. -1.
         15    1    1    2    0    0 -0.16256097133E+01  0.47584738767E+01  0.31240048258E+01  0.61808426389E+01  0.17770000000E+01 0.  1.
</event>
<event>
 6    1  0.1895674E-002  0.1854928E+03  0.7546771E-02  0.1066097E+00
        -11   -1    0    0    0    0  0.00000000000E+00  0.00000000000E+00  0.18250000000E+03  0.18250000000E+03  0.00000000000E+00 0.  1.
         11   -1    0    0    0    0 -0.00000000000E+00 -0.00000000000E+00 -0.18250000000E+03  0.18250000000E+03  0.00000000000E+00 0.  1.
        -11    1    1    2    0    0 -0.16323584390E+01 -0.28451687543E+01  0.17947725087E+03  0.17950722313E+03  0.00000000000E+00 0.  1.
         11    1    1    2    0    0  0.35179168662E+01  0.13005141194E+01 -0.12196444425E+03  0.12202209938E+03  0.00000000000E+00 0.  1.
        -15    1    1    2    0    0 -0.97386784288E+00  0.23016065544E+01  0.21655680472E+01  0.37540944679E+01  0.17770000000E+01 0. -1.
         15    1    1    2    0    0 -0.91169058434E+00 -0.75695191947E+00 -0.59678374666E+02  0.59716583021E+02  0.17770000000E+01 0.  1.
</event>
<event>
 6    1  0.1108180E-002  0.1845260E+03  0.7546771E-02  0.1066853E+00
        -11   -1    0    0    0    0  0.00000000000E+00  0.00000000000E+00  0.18250000000E+03  0.18250000000E+03  0.00000000000E+00 0.  1.
         11   -1    0    0    0    0 -0.00000000000E+00 -0.00000000000E+00 -0.18250000000E+03  0.18250000000E+03  0.00000000000E+00 0. -1.
        -11    1    1    2    0    0  0.20019736941E+01  0.27311056960E+01  0.18044224196E+03  0.18047401342E+03  0.00000000000E+00 0.  1.
         11    1    1    2    0    0 -0.12352854594E+00 -0.32473894064E+01 -0.17137101550E+03  0.17140182540E+03  0.00000000000E+00 0. -1.
        -15    1    1    2    0    0  0.54401484656E+00 -0.16157485895E+01 -0.91130935930E+01  0.94399576001E+01  0.17770000000E+01 0.  1.
         15    1    1    2    0    0 -0.24224599947E+01  0.21320322999E+01  0.41867138331E-01  0.36842035790E+01  0.17770000000E+01 0. -1.
</event>
<event>
 6    1  0.1108180E-002  0.1830970E+03  0.7546771E-02  0.1067981E+00
        -11   -1    0    0    0    0  0.00000000000E+00  0.00000000000E+00  0.18250000000E+03  0.18250000000E+03  0.00000000000E+00 0. -1.
         11   -1    0    0    0    0 -0.00000000000E+00 -0.00000000000E+00 -0.18250000000E+03  0.18250000000E+03  0.00000000000E+00 0. -1.
        -11    1    1    2    0    0 -0.22444515735E+01 -0.13015987542E+01  0.14023074184E+03  0.14025474209E+03  0.00000000000E+00 0. -1.
         11    1    1    2    0    0  0.12648405571E+01 -0.37641012401E+01 -0.18185963898E+03  0.18190298670E+03  0.00000000000E+00 0. -1.
        -15    1    1    2    0    0  0.17533648584E+01  0.45109034355E+00  0.30893150227E+02  0.30997132622E+02  0.17770000000E+01 0. -1.
         15    1    1    2    0    0 -0.77375384202E+00  0.46146096507E+01  0.10735746920E+02  0.11845138588E+02  0.17770000000E+01 0. -1.
</event>
<event>
 6    1  0.1108180E-002  0.1764263E+03  0.7546771E-02  0.1073395E+00
        -11   -1    0    0    0    0  0.00000000000E+00  0.00000000000E+00  0.18250000000E+03  0.18250000000E+03  0.00000000000E+00 0.  1.
         11   -1    0    0    0    0 -0.00000000000E+00 -0.00000000000E+00 -0.18250000000E+03  0.18250000000E+03  0.00000000000E+00 0. -1.
        -11    1    1    2    0    0 -0.15861700131E+01 -0.47642463055E+01  0.17873170547E+03  0.17880222739E+03  0.00000000000E+00 0.  1.
         11    1    1    2    0    0 -0.33753598344E+01 -0.19640028439E+01 -0.17413557350E+03  0.17417935676E+03  0.00000000000E+00 0. -1.
        -15    1    1    2    0    0  0.63006854712E+01  0.55685666098E+01 -0.36310486754E+01  0.93300490340E+01  0.17770000000E+01 0. -1.
         15    1    1    2    0    0 -0.13391556237E+01  0.11596825396E+01 -0.96508329751E+00  0.26883668180E+01  0.17770000000E+01 0.  1.
</event>
<event>
 6    1  0.1108180E-002  0.1842683E+03  0.7546771E-02  0.1067056E+00
        -11   -1    0    0    0    0  0.00000000000E+00  0.00000000000E+00  0.18250000000E+03  0.18250000000E+03  0.00000000000E+00 0.  1.
         11   -1    0    0    0    0 -0.00000000000E+00 -0.00000000000E+00 -0.18250000000E+03  0.18250000000E+03  0.00000000000E+00 0.  1.
        -11    1    1    2    0    0 -0.33117183191E+01 -0.32682767460E+00  0.18070107512E+03  0.18073171510E+03  0.00000000000E+00 0.  1.
         11    1    1    2    0    0  0.97234683649E+01  0.41579744876E+01 -0.69514546664E+02  0.70314342682E+02  0.00000000000E+00 0.  1.
        -15    1    1    2    0    0  0.10356117035E+01  0.28889270691E+01 -0.93318371386E+02  0.93385729950E+02  0.17770000000E+01 0.  1.
         15    1    1    2    0    0 -0.74473617493E+01 -0.67200738822E+01 -0.17868157066E+02  0.20568212269E+02  0.17770000000E+01 0. -1.
</event>
<event>
 6    1  0.1108180E-002  0.1827925E+03  0.7546771E-02  0.1068222E+00
        -11   -1    0    0    0    0  0.00000000000E+00  0.00000000000E+00  0.18250000000E+03  0.18250000000E+03  0.00000000000E+00 0.  1.
         11   -1    0    0    0    0 -0.00000000000E+00 -0.00000000000E+00 -0.18250000000E+03  0.18250000000E+03  0.00000000000E+00 0. -1.
        -11    1    1    2    0    0  0.23894039701E+01  0.61821459215E+00  0.12711153791E+03  0.12713549666E+03  0.00000000000E+00 0.  1.
         11    1    1    2    0    0 -0.24335033560E+01  0.10897344489E+01 -0.18218802311E+03  0.18220753339E+03  0.00000000000E+00 0. -1.
        -15    1    1    2    0    0  0.32003775123E+01  0.31277111763E+00  0.19848982459E+02  0.20186135728E+02  0.17770000000E+01 0.  1.
         15    1    1    2    0    0 -0.31562781264E+01 -0.20207201586E+01  0.35227502743E+02  0.35470834217E+02  0.17770000000E+01 0. -1.
</event>
<event>
 6    1  0.1108180E-002  0.1829903E+03  0.7546771E-02  0.1068065E+00
        -11   -1    0    0    0    0  0.00000000000E+00  0.00000000000E+00  0.18250000000E+03  0.18250000000E+03  0.00000000000E+00 0. -1.
         11   -1    0    0    0    0 -0.00000000000E+00 -0.00000000000E+00 -0.18250000000E+03  0.18250000000E+03  0.00000000000E+00 0. -1.
        -11    1    1    2    0    0  0.21491287980E+01  0.10064647115E+01  0.15891023054E+03  0.15892794938E+03  0.00000000000E+00 0. -1.
         11    1    1    2    0    0  0.82351289687E+00 -0.38965311055E+01 -0.18196611826E+03  0.18200969568E+03  0.00000000000E+00 0. -1.
        -15    1    1    2    0    0 -0.54432880443E+00  0.28924559789E+01  0.16420420976E+02  0.16776487995E+02  0.17770000000E+01 0. -1.
         15    1    1    2    0    0 -0.24283128904E+01 -0.23895849221E-02  0.66354667435E+01  0.72858669428E+01  0.17770000000E+01 0.  1.
</event>
<event>
 6    1  0.1108180E-002  0.1838277E+03  0.7546771E-02  0.1067403E+00
        -11   -1    0    0    0    0  0.00000000000E+00  0.00000000000E+00  0.18250000000E+03  0.18250000000E+03  0.00000000000E+00 0. -1.
         11   -1    0    0    0    0 -0.00000000000E+00 -0.00000000000E+00 -0.18250000000E+03  0.18250000000E+03  0.00000000000E+00 0.  1.
        -11    1    1    2    0    0  0.46844817852E-02 -0.35874741667E+01  0.18113678862E+03  0.18117231076E+03  0.00000000000E+00 0. -1.
         11    1    1    2    0    0  0.28786250879E+01  0.68546907981E+01 -0.13645489651E+03  0.13665727954E+03  0.00000000000E+00 0.  1.
        -15    1    1    2    0    0 -0.29362448556E+01  0.50531708132E+01 -0.12961698992E+02  0.14328972010E+02  0.17770000000E+01 0. -1.
         15    1    1    2    0    0  0.52935285904E-01 -0.83203874447E+01 -0.31720193118E+02  0.32841437694E+02  0.17770000000E+01 0.  1.
</event>
<event>
 6    1  0.1108180E-002  0.1835170E+03  0.7546771E-02  0.1067648E+00
        -11   -1    0    0    0    0  0.00000000000E+00  0.00000000000E+00  0.18250000000E+03  0.18250000000E+03  0.00000000000E+00 0. -1.
         11   -1    0    0    0    0 -0.00000000000E+00 -0.00000000000E+00 -0.18250000000E+03  0.18250000000E+03  0.00000000000E+00 0. -1.
        -11    1    1    2    0    0  0.40743980112E+01 -0.65948472822E+01  0.18131732570E+03  0.18148296154E+03  0.00000000000E+00 0. -1.
         11    1    1    2    0    0 -0.36856991044E+01 -0.68467057788E+00 -0.14957644461E+03  0.14962341372E+03  0.00000000000E+00 0. -1.
        -15    1    1    2    0    0 -0.28202254174E+01  0.56542949170E+01 -0.10528198442E+02  0.12406668120E+02  0.17770000000E+01 0.  1.
         15    1    1    2    0    0  0.24315265107E+01  0.16252229430E+01 -0.21212682644E+02  0.21486956619E+02  0.17770000000E+01 0. -1.
</event>
<event>
 6    1  0.1108180E-002  0.1872479E+03  0.7546771E-02  0.1064737E+00
        -11   -1    0    0    0    0  0.00000000000E+00  0.00000000000E+00  0.18250000000E+03  0.18250000000E+03  0.00000000000E+00 0. -1.
         11   -1    0    0    0    0 -0.00000000000E+00 -0.00000000000E+00 -0.18250000000E+03  0.18250000000E+03  0.00000000000E+00 0.  1.
        -11    1    1    2    0    0  0.43367706364E+01  0.24731563212E+01  0.17768198571E+03  0.17775210864E+03  0.00000000000E+00 0. -1.
         11    1    1    2    0    0 -0.28339754521E+01 -0.50265107158E+01 -0.16307951441E+03  0.16318157141E+03  0.00000000000E+00 0.  1.
        -15    1    1    2    0    0 -0.75583404967E+01  0.48510025473E+01 -0.14106852433E+01  0.92632876795E+01  0.17770000000E+01 0. -1.
         15    1    1    2    0    0  0.60555453124E+01 -0.22976481526E+01 -0.13191786050E+02  0.14803032266E+02  0.17770000000E+01 0.  1.
</event>
<event>
 6    1  0.1108180E-002  0.1853652E+03  0.7546771E-02  0.1066197E+00
        -11   -1    0    0    0    0  0.00000000000E+00  0.00000000000E+00  0.18250000000E+03  0.18250000000E+03  0.00000000000E+00 0.  1.
         11   -1    0    0    0    0 -0.00000000000E+00 -0.00000000000E+00 -0.18250000000E+03  0.18250000000E+03  0.00000000000E+00 0. -1.
        -11    1    1    2    0    0  0.51728214061E+01 -0.22851356864E+01  0.15554536466E+03  0.15564813007E+03  0.00000000000E+00 0.  1.
         11    1    1    2    0    0  0.41215523812E+01  0.16146889042E+00 -0.17958746877E+03  0.17963483016E+03  0.00000000000E+00 0. -1.
        -15    1    1    2    0    0 -0.21013996185E+01 -0.37908509180E+01  0.17703608021E+02  0.18312888821E+02  0.17770000000E+01 0. -1.
         15    1    1    2    0    0 -0.71929741688E+01  0.59145177140E+01  0.63384960925E+01  0.11404150950E+02  0.17770000000E+01 0. -1.
</event>
<event>
 6    1  0.1108180E-002  0.1879966E+03  0.7546771E-02  0.1064162E+00
        -11   -1    0    0    0    0  0.00000000000E+00  0.00000000000E+00  0.18250000000E+03  0.18250000000E+03  0.00000000000E+00 0.  1.
         11   -1    0    0    0    0 -0.00000000000E+00 -0.00000000000E+00 -0.18250000000E+03  0.18250000000E+03  0.00000000000E+00 0. -1.
        -11    1    1    2    0    0  0.35940406193E+01 -0.20693742764E+00  0.17696681841E+03  0.17700343152E+03  0.00000000000E+00 0.  1.
         11    1    1    2    0    0 -0.14547726542E+01 -0.24218391893E+01 -0.14653552149E+03  0.14656275354E+03  0.00000000000E+00 0. -1.
        -15    1    1    2    0    0 -0.10562204618E+02 -0.18252885006E+01 -0.29802263206E+02  0.31721041372E+02  0.17770000000E+01 0. -1.
         15    1    1    2    0    0  0.84229366530E+01  0.44540651176E+01 -0.62903371794E+00  0.97127735663E+01  0.17770000000E+01 0.  1.
</event>
<event>
 6    1  0.1108180E-002  0.1852631E+03  0.7546771E-02  0.1066276E+00
        -11   -1    0    0    0    0  0.00000000000E+00  0.00000000000E+00  0.18250000000E+03  0.18250000000E+03  0.00000000000E+00 0. -1.
         11   -1    0    0    0    0 -0.00000000000E+00 -0.00000000000E+00 -0.18250000000E+03  0.18250000000E+03  0.00000000000E+00 0.  1.
        -11    1    1    2    0    0 -0.40495428351E+01  0.77759832942E+00  0.14272377907E+03  0.14278333435E+03  0.00000000000E+00 0. -1.
         11    1    1    2    0    0  0.57782027754E+01  0.26903621693E+01 -0.17962381242E+03  0.17973686228E+03  0.00000000000E+00 0.  1.
        -15    1    1    2    0    0 -0.56464634933E+01 -0.50644739479E+01  0.31237822789E+01  0.83932824971E+01  0.17770000000E+01 0. -1.
         15    1    1    2    0    0  0.39178035530E+01  0.15965134491E+01  0.33776251067E+02  0.34086520870E+02  0.17770000000E+01 0.  1.
</event>
<event>
 6    1  0.1108180E-002  0.1842638E+03  0.7546771E-02  0.1067059E+00
        -11   -1    0    0    0    0  0.00000000000E+00  0.00000000000E+00  0.18250000000E+03  0.18250000000E+03  0.00000000000E+00 0. -1.
         11   -1    0    0    0    0 -0.00000000000E+00 -0.00000000000E+00 -0.18250000000E+03  0.18250000000E+03  0.00000000000E+00 0.  1.
        -11    1    1    2    0    0  0.78508939275E+01 -0.10736938485E+01  0.18056242699E+03  0.18073621495E+03  0.00000000000E+00 0. -1.
         11    1    1    2    0    0  0.27035990129E+01 -0.73172743978E+00 -0.12630812788E+03  0.12633917857E+03  0.00000000000E+00 0.  1.
        -15    1    1    2    0    0 -0.11120197745E+02 -0.45413122329E+01 -0.44586131371E+02  0.46209989768E+02  0.17770000000E+01 0.  1.
         15    1    1    2    0    0  0.56570480474E+00  0.63467335212E+01 -0.96681677424E+01  0.11714616716E+02  0.17770000000E+01 0. -1.
</event>
<event>
 6    1  0.1108180E-002  0.1889808E+03  0.7546771E-02  0.1063410E+00
        -11   -1    0    0    0    0  0.00000000000E+00  0.00000000000E+00  0.18250000000E+03  0.18250000000E+03  0.00000000000E+00 0. -1.
         11   -1    0    0    0    0 -0.00000000000E+00 -0.00000000000E+00 -0.18250000000E+03  0.18250000000E+03  0.00000000000E+00 0. -1.
        -11    1    1    2    0    0 -0.36386186980E+01  0.31633653774E+01  0.11873019088E+03  0.11882804657E+03  0.00000000000E+00 0. -1.
         11    1    1    2    0    0 -0.26656079947E+01 -0.18630065578E+02 -0.17501018459E+03  0.17601917373E+03  0.00000000000E+00 0. -1.
        -15    1    1    2    0    0 -0.82961521573E+01 -0.83712949756E+01  0.80623717363E+01  0.14389728531E+02  0.17770000000E+01 0. -1.
         15    1    1    2    0    0  0.14600378850E+02  0.23837995177E+02  0.48217621981E+02  0.55763051164E+02  0.17770000000E+01 0.  1.
</event>
<event>
 6    1  0.1108180E-002  0.1852457E+03  0.7546771E-02  0.1066290E+00
        -11   -1    0    0    0    0  0.00000000000E+00  0.00000000000E+00  0.18250000000E+03  0.18250000000E+03  0.00000000000E+00 0. -1.
         11   -1    0    0    0    0 -0.00000000000E+00 -0.00000000000E+00 -0.18250000000E+03  0.18250000000E+03  0.00000000000E+00 0. -1.
        -11    1    1    2    0    0 -0.66619457430E+01  0.82747213674E+00  0.17962894250E+03  0.17975434129E+03  0.00000000000E+00 0. -1.
         11    1    1    2    0    0 -0.72762215203E+01 -0.36149919214E+01 -0.12678787286E+03  0.12704792903E+03  0.00000000000E+00 0. -1.
        -15    1    1    2    0    0  0.11154689338E+02  0.49713567039E+01 -0.52815897354E+02  0.54238530806E+02  0.17770000000E+01 0. -1.
         15    1    1    2    0    0  0.27834779252E+01 -0.21838369192E+01 -0.25172283564E-01  0.39591988702E+01  0.17770000000E+01 0.  1.
</event>
<event>
 6    1  0.1498067E-002  0.1827294E+03  0.7546771E-02  0.1068272E+00
        -11   -1    0    0    0    0  0.00000000000E+00  0.00000000000E+00  0.18250000000E+03  0.18250000000E+03  0.00000000000E+00 0.  1.
         11   -1    0    0    0    0 -0.00000000000E+00 -0.00000000000E+00 -0.18250000000E+03  0.18250000000E+03  0.00000000000E+00 0. -1.
        -11    1    1    2    0    0 -0.99083323216E+00 -0.26008002900E+01  0.18224936259E+03  0.18227061221E+03  0.00000000000E+00 0.  1.
         11    1    1    2    0    0 -0.30465184602E+00 -0.97693539284E+00 -0.66647885076E+02  0.66655740943E+02  0.00000000000E+00 0. -1.
        -15    1    1    2    0    0  0.12639050657E+01 -0.17198198038E+01 -0.11821290183E+02  0.12143140729E+02  0.17770000000E+01 0.  1.
         15    1    1    2    0    0  0.31580012445E-01  0.52975554867E+01 -0.10378018733E+03  0.10393050612E+03  0.17770000000E+01 0. -1.
</event>
<event>
 6    1  0.1108180E-002  0.1865028E+03  0.7546771E-02  0.1065313E+00
        -11   -1    0    0    0    0  0.00000000000E+00  0.00000000000E+00  0.18250000000E+03  0.18250000000E+03  0.00000000000E+00 0.  1.
         11   -1    0    0    0    0 -0.00000000000E+00 -0.00000000000E+00 -0.18250000000E+03  0.18250000000E+03  0.00000000000E+00 0. -1.
        -11    1    1    2    0    0  0.22151530900E+00  0.23744566060E+01  0.53205463289E+02  0.53258881297E+02  0.00000000000E+00 0.  1.
         11    1    1    2    0    0  0.16100522779E+01  0.24046454252E+01 -0.17847377028E+03  0.17849723042E+03  0.00000000000E+00 0. -1.
        -15    1    1    2    0    0 -0.67693858986E+01  0.24965302093E+01 -0.22137263096E+00  0.74339749375E+01  0.17770000000E+01 0. -1.
         15    1    1    2    0    0  0.49378183117E+01 -0.72756322405E+01  0.12548967963E+03  0.12580991335E+03  0.17770000000E+01 0.  1.
</event>
<event>
 6    1  0.1108180E-002  0.1767768E+03  0.7546771E-02  0.1073104E+00
        -11   -1    0    0    0    0  0.00000000000E+00  0.00000000000E+00  0.18250000000E+03  0.18250000000E+03  0.00000000000E+00 0.  1.
         11   -1    0    0    0    0 -0.00000000000E+00 -0.00000000000E+00 -0.18250000000E+03  0.18250000000E+03  0.00000000000E+00 0.  1.
        -11    1    1    2    0    0  0.22628068572E+01 -0.13610405405E+01  0.17607351709E+03  0.17609331659E+03  0.00000000000E+00 0.  1.
         11    1    1    2    0    0 -0.49530644717E+00 -0.32841847856E+01 -0.17746683361E+03  0.17749791050E+03  0.00000000000E+00 0.  1.
        -15    1    1    2    0    0 -0.39430625667E+01  0.21713170602E+01  0.44513376351E+01  0.65752943602E+01  0.17770000000E+01 0.  1.
         15    1    1    2    0    0  0.21755621566E+01  0.24739082659E+01 -0.30580211122E+01  0.48334785536E+01  0.17770000000E+01 0.  1.
</event>
<event>
 6    1  0.1108180E-002  0.2030379E+03  0.7546771E-02  0.1053189E+00
        -11   -1    0    0    0    0  0.00000000000E+00  0.00000000000E+00  0.18250000000E+03  0.18250000000E+03  0.00000000000E+00 0.  1.
         11   -1    0    0    0    0 -0.00000000000E+00 -0.00000000000E+00 -0.18250000000E+03  0.18250000000E+03  0.00000000000E+00 0. -1.
        -11    1    1    2    0    0 -0.27376674145E+01 -0.12535672657E+02  0.16145303382E+03  0.16196209446E+03  0.00000000000E+00 0.  1.
         11    1    1    2    0    0 -0.29209076891E+01  0.50972266449E+01 -0.15541558819E+03  0.15552658446E+03  0.00000000000E+00 0. -1.
        -15    1    1    2    0    0  0.48214254060E+00  0.15767735717E+01 -0.25940418013E+02  0.26053439159E+02  0.17770000000E+01 0. -1.
         15    1    1    2    0    0  0.51764325630E+01  0.58616724409E+01  0.19902972378E+02  0.21457881917E+02  0.17770000000E+01 0.  1.
</event>
<event>
 6    1  0.1108180E-002  0.2028434E+03  0.7546771E-02  0.1053324E+00
        -11   -1    0    0    0    0  0.00000000000E+00  0.00000000000E+00  0.18250000000E+03  0.18250000000E+03  0.00000000000E+00 0. -1.
         11   -1    0    0    0    0 -0.00000000000E+00 -0.00000000000E+00 -0.18250000000E+03  0.18250000000E+03  0.00000000000E+00 0. -1.
        -11    1    1    2    0    0 -0.18448715276E+01  0.28155608402E+01  0.13677410992E+03  0.13681552572E+03  0.00000000000E+00 0. -1.
         11    1    1    2    0    0 -0.68837598226E+00  0.59363091883E+01 -0.16204643845E+03  0.16215659666E+03  0.00000000000E+00 0. -1.
        -15    1    1    2    0    0  0.54808824692E+01 -0.23335182938E+01  0.44777725788E+02  0.45207165759E+02  0.17770000000E+01 0. -1.
         15    1    1    2    0    0 -0.29476349594E+01 -0.64183517347E+01 -0.19505397263E+02  0.20820711857E+02  0.17770000000E+01 0. -1.
</event>
<event>
 6    1  0.1108180E-002  0.1825788E+03  0.7546771E-02  0.1068392E+00
        -11   -1    0    0    0    0  0.00000000000E+00  0.00000000000E+00  0.18250000000E+03  0.18250000000E+03  0.00000000000E+00 0.  1.
         11   -1    0    0    0    0 -0.00000000000E+00 -0.00000000000E+00 -0.18250000000E+03  0.18250000000E+03  0.00000000000E+00 0. -1.
        -11    1    1    2    0    0 -0.90604318100E+00  0.32857584879E+00  0.15759533453E+02  0.15788976249E+02  0.00000000000E+00 0.  1.
         11    1    1    2    0    0 -0.43405105945E+01  0.59838716843E+00 -0.18236859911E+03  0.18242122695E+03  0.00000000000E+00 0. -1.
        -15    1    1    2    0    0  0.35113282686E+01  0.12340598821E+00  0.51937278608E+02  0.52086306199E+02  0.17770000000E+01 0. -1.
         15    1    1    2    0    0  0.17352255069E+01 -0.10503690054E+01  0.11467178705E+03  0.11470349060E+03  0.17770000000E+01 0.  1.
</event>
<event>
 6    1  0.1108180E-002  0.1862191E+03  0.7546771E-02  0.1065532E+00
        -11   -1    0    0    0    0  0.00000000000E+00  0.00000000000E+00  0.18250000000E+03  0.18250000000E+03  0.00000000000E+00 0. -1.
         11   -1    0    0    0    0 -0.00000000000E+00 -0.00000000000E+00 -0.18250000000E+03  0.18250000000E+03  0.00000000000E+00 0.  1.
        -11    1    1    2    0    0 -0.24480751487E+01  0.42985475806E+00  0.17460651358E+03  0.17462420345E+03  0.00000000000E+00 0. -1.
         11    1    1    2    0    0 -0.27398112406E+01 -0.24769282951E+00 -0.17875972398E+03  0.17878089057E+03  0.00000000000E+00 0.  1.
        -15    1    1    2    0    0 -0.15949592990E+01 -0.20290072350E+01 -0.19615216103E+00  0.31395812134E+01  0.17770000000E+01 0.  1.
         15    1    1    2    0    0  0.67828456884E+01  0.18468453064E+01  0.43493625566E+01  0.84553247641E+01  0.17770000000E+01 0. -1.
</event>
<event>
 6    1  0.1108180E-002  0.1844728E+03  0.7546771E-02  0.1066895E+00
        -11   -1    0    0    0    0  0.00000000000E+00  0.00000000000E+00  0.18250000000E+03  0.18250000000E+03  0.00000000000E+00 0. -1.
         11   -1    0    0    0    0 -0.00000000000E+00 -0.00000000000E+00 -0.18250000000E+03  0.18250000000E+03  0.00000000000E+00 0.  1.
        -11    1    1    2    0    0  0.22032279103E+01 -0.25429916017E+00  0.15328470714E+03  0.15330075122E+03  0.00000000000E+00 0. -1.
         11    1    1    2    0    0  0.29636537094E+01  0.44543525043E+01 -0.18044790894E+03  0.18052720665E+03  0.00000000000E+00 0.  1.
        -15    1    1    2    0    0 -0.41014347830E-02  0.20660548722E+01  0.20044547079E+02  0.20228944514E+02  0.17770000000E+01 0. -1.
         15    1    1    2    0    0 -0.51627801849E+01 -0.62661082163E+01  0.71186547187E+01  0.10943097615E+02  0.17770000000E+01 0.  1.
</event>
<event>
 6    1  0.1108180E-002  0.1831984E+03  0.7546771E-02  0.1067900E+00
        -11   -1    0    0    0    0  0.00000000000E+00  0.00000000000E+00  0.18250000000E+03  0.18250000000E+03  0.00000000000E+00 0. -1.
         11   -1    0    0    0    0 -0.00000000000E+00 -0.00000000000E+00 -0.18250000000E+03  0.18250000000E+03  0.00000000000E+00 0.  1.
        -11    1    1    2    0    0  0.29778716140E+01  0.50270255508E+00  0.16933505848E+03  0.16936198647E+03  0.00000000000E+00 0. -1.
         11    1    1    2    0    0 -0.22905558339E+01  0.18034725013E+01 -0.18177819281E+03  0.18180156914E+03  0.00000000000E+00 0.  1.
        -15    1    1    2    0    0 -0.24194556168E+01 -0.90929344207E+00  0.54914743681E+01  0.63241283811E+01  0.17770000000E+01 0.  1.
         15    1    1    2    0    0  0.17321398367E+01 -0.13968816143E+01  0.69516599609E+01  0.75123160124E+01  0.17770000000E+01 0.  1.
</event>
<event>
 6    1  0.1108180E-002  0.1865072E+03  0.7546771E-02  0.1065309E+00
        -11   -1    0    0    0    0  0.00000000000E+00  0.00000000000E+00  0.18250000000E+03  0.18250000000E+03  0.00000000000E+00 0.  1.
         11   -1    0    0    0    0 -0.00000000000E+00 -0.00000000000E+00 -0.18250000000E+03  0.18250000000E+03  0.00000000000E+00 0.  1.
        -11    1    1    2    0    0  0.26867425146E+01  0.12257598384E+01  0.17846833699E+03  0.17849276843E+03  0.00000000000E+00 0.  1.
         11    1    1    2    0    0 -0.61089068331E+00 -0.63056888190E+00 -0.14209689481E+02  0.14236786143E+02  0.00000000000E+00 0.  1.
        -15    1    1    2    0    0 -0.70105630254E+01  0.47156406022E+01 -0.83243467740E+00  0.86738651543E+01  0.17770000000E+01 0. -1.
         15    1    1    2    0    0  0.49347111941E+01 -0.53108315587E+01 -0.16342621283E+03  0.16359658027E+03  0.17770000000E+01 0.  1.
</event>
<event>
 6    1  0.1108180E-002  0.1787735E+03  0.7546771E-02  0.1071460E+00
        -11   -1    0    0    0    0  0.00000000000E+00  0.00000000000E+00  0.18250000000E+03  0.18250000000E+03  0.00000000000E+00 0. -1.
         11   -1    0    0    0    0 -0.00000000000E+00 -0.00000000000E+00 -0.18250000000E+03  0.18250000000E+03  0.00000000000E+00 0. -1.
        -11    1    1    2    0    0 -0.18243209674E+01 -0.23893959268E+01  0.17906864462E+03  0.17909387719E+03  0.00000000000E+00 0. -1.
         11    1    1    2    0    0 -0.10539704940E+01  0.29777078184E+01 -0.17843771117E+03  0.17846566719E+03  0.00000000000E+00 0. -1.
        -15    1    1    2    0    0  0.39512187441E+01  0.13641593082E+01 -0.10971704615E+00  0.45434377967E+01  0.17770000000E+01 0. -1.
         15    1    1    2    0    0 -0.10729272827E+01 -0.19524711998E+01 -0.52121640488E+00  0.28970178254E+01  0.17770000000E+01 0.  1.
</event>
<event>
 6    1  0.1108180E-002  0.1645226E+03  0.7546771E-02  0.1083740E+00
        -11   -1    0    0    0    0  0.00000000000E+00  0.00000000000E+00  0.18250000000E+03  0.18250000000E+03  0.00000000000E+00 0.  1.
         11   -1    0    0    0    0 -0.00000000000E+00 -0.00000000000E+00 -0.18250000000E+03  0.18250000000E+03  0.00000000000E+00 0. -1.
        -11    1    1    2    0    0 -0.85436945678E+01  0.18821216838E+02  0.16288918200E+03  0.16419536697E+03  0.00000000000E+00 0.  1.
         11    1    1    2    0    0 -0.26309287649E+01  0.12017973513E+00 -0.16557384810E+03  0.16559479281E+03  0.00000000000E+00 0. -1.
        -15    1    1    2    0    0  0.10718904628E+02 -0.98276580028E+01  0.14205017008E+02  0.20406322928E+02  0.17770000000E+01 0.  1.
         15    1    1    2    0    0  0.45571870500E+00 -0.91137385705E+01 -0.11520350909E+02  0.14803517296E+02  0.17770000000E+01 0. -1.
</event>
<event>
 6    1  0.1108180E-002  0.1887083E+03  0.7546771E-02  0.1063618E+00
        -11   -1    0    0    0    0  0.00000000000E+00  0.00000000000E+00  0.18250000000E+03  0.18250000000E+03  0.00000000000E+00 0. -1.
         11   -1    0    0    0    0 -0.00000000000E+00 -0.00000000000E+00 -0.18250000000E+03  0.18250000000E+03  0.00000000000E+00 0.  1.
        -11    1    1    2    0    0  0.28910418656E+01  0.95331465239E+00  0.16297706164E+03  0.16300548934E+03  0.00000000000E+00 0. -1.
         11    1    1    2    0    0  0.44682892159E+01  0.86593506838E+00 -0.17623289799E+03  0.17629166113E+03  0.00000000000E+00 0.  1.
        -15    1    1    2    0    0 -0.10372162022E+02  0.38714703839E+00  0.17083178139E+02  0.20067992729E+02  0.17770000000E+01 0. -1.
         15    1    1    2    0    0  0.30128309404E+01 -0.22063967592E+01 -0.38273417962E+01  0.56348568003E+01  0.17770000000E+01 0.  1.
</event>
<event>
 6    1  0.1108180E-002  0.1901841E+03  0.7546771E-02  0.1062498E+00
        -11   -1    0    0    0    0  0.00000000000E+00  0.00000000000E+00  0.18250000000E+03  0.18250000000E+03  0.00000000000E+00 0. -1.
         11   -1    0    0    0    0 -0.00000000000E+00 -0.00000000000E+00 -0.18250000000E+03  0.18250000000E+03  0.00000000000E+00 0.  1.
        -11    1    1    2    0    0  0.30344603763E+00 -0.66540099733E+01  0.13832579308E+03  0.13848607497E+03  0.00000000000E+00 0. -1.
         11    1    1    2    0    0  0.15889744143E+02 -0.68073607761E+01 -0.17395906973E+03  0.17481585189E+03  0.00000000000E+00 0.  1.
        -15    1    1    2    0    0 -0.20367885506E+01  0.50945787183E+01  0.34652593105E+02  0.35129235372E+02  0.17770000000E+01 0.  1.
         15    1    1    2    0    0 -0.14156401630E+02  0.83667920312E+01  0.98068354401E+00  0.16568837775E+02  0.17770000000E+01 0. -1.
</event>
<event>
 6    1  0.1108180E-002  0.1900700E+03  0.7546771E-02  0.1062584E+00
        -11   -1    0    0    0    0  0.00000000000E+00  0.00000000000E+00  0.18250000000E+03  0.18250000000E+03  0.00000000000E+00 0. -1.
         11   -1    0    0    0    0 -0.00000000000E+00 -0.00000000000E+00 -0.18250000000E+03  0.18250000000E+03  0.00000000000E+00 0.  1.
        -11    1    1    2    0    0  0.10282348335E+01  0.25590554819E+01  0.12767327017E+03  0.12770305379E+03  0.00000000000E+00 0. -1.
         11    1    1    2    0    0 -0.26462250225E+01  0.29773610876E+00 -0.17490971406E+03  0.17492998378E+03  0.00000000000E+00 0.  1.
        -15    1    1    2    0    0  0.57700371484E+01  0.81781038798E+01 -0.31080568875E+01  0.10629791079E+02  0.17770000000E+01 0.  1.
         15    1    1    2    0    0 -0.41520469595E+01 -0.11034895471E+02  0.50344500772E+02  0.51737171346E+02  0.17770000000E+01 0. -1.
</event>
<event>
 6    1  0.1108180E-002  0.1838790E+03  0.7546771E-02  0.1067362E+00
        -11   -1    0    0    0    0  0.00000000000E+00  0.00000000000E+00  0.18250000000E+03  0.18250000000E+03  0.00000000000E+00 0. -1.
         11   -1    0    0    0    0 -0.00000000000E+00 -0.00000000000E+00 -0.18250000000E+03  0.18250000000E+03  0.00000000000E+00 0. -1.
        -11    1    1    2    0    0 -0.45099904488E+01  0.11063752207E+01  0.15921330352E+03  0.15928100985E+03  0.00000000000E+00 0. -1.
         11    1    1    2    0    0  0.24544785744E+01 -0.19190390067E+01 -0.18109420541E+03  0.18112100488E+03  0.00000000000E+00 0. -1.
        -15    1    1    2    0    0 -0.16198056525E+01 -0.41259301168E+01  0.81584122933E+01  0.94532793161E+01  0.17770000000E+01 0.  1.
         15    1    1    2    0    0  0.36753175269E+01  0.49385939028E+01  0.13722489597E+02  0.15144705953E+02  0.17770000000E+01 0. -1.
</event>
<event>
 6    1  0.1108180E-002  0.1827789E+03  0.7546771E-02  0.1068233E+00
        -11   -1    0    0    0    0  0.00000000000E+00  0.00000000000E+00  0.18250000000E+03  0.18250000000E+03  0.00000000000E+00 0. -1.
         11   -1    0    0    0    0 -0.00000000000E+00 -0.00000000000E+00 -0.18250000000E+03  0.18250000000E+03  0.00000000000E+00 0. -1.
        -11    1    1    2    0    0 -0.36815646404E+01 -0.40714717907E+01  0.18213843293E+03  0.18222112817E+03  0.00000000000E+00 0. -1.
         11    1    1    2    0    0  0.25654476560E+01  0.99966101447E+00 -0.12894357829E+03  0.12897297091E+03  0.00000000000E+00 0. -1.
        -15    1    1    2    0    0 -0.10960918017E+01  0.74099402874E+00 -0.49698133057E+01  0.54412556163E+01  0.17770000000E+01 0. -1.
         15    1    1    2    0    0  0.22122087861E+01  0.23308167475E+01 -0.48225041337E+02  0.48364645304E+02  0.17770000000E+01 0.  1.
</event>
<event>
 6    1  0.1108180E-002  0.1827429E+03  0.7546771E-02  0.1068262E+00
        -11   -1    0    0    0    0  0.00000000000E+00  0.00000000000E+00  0.18250000000E+03  0.18250000000E+03  0.00000000000E+00 0. -1.
         11   -1    0    0    0    0 -0.00000000000E+00 -0.00000000000E+00 -0.18250000000E+03  0.18250000000E+03  0.00000000000E+00 0. -1.
        -11    1    1    2    0    0 -0.83839369741E+00  0.46159531361E+01  0.18219671543E+03  0.18225710697E+03  0.00000000000E+00 0. -1.
         11    1    1    2    0    0  0.35048344105E+01  0.98553060983E+00 -0.11697241331E+03  0.11702905883E+03  0.00000000000E+00 0. -1.
        -15    1    1    2    0    0 -0.14742249187E+01 -0.48990129024E+01 -0.36276385037E+02  0.36678433811E+02  0.17770000000E+01 0.  1.
         15    1    1    2    0    0 -0.11922157944E+01 -0.70247084356E+00 -0.28947917083E+02  0.29035400397E+02  0.17770000000E+01 0. -1.
</event>
<event>
 6    1  0.1108180E-002  0.2146112E+03  0.7546771E-02  0.1045428E+00
        -11   -1    0    0    0    0  0.00000000000E+00  0.00000000000E+00  0.18250000000E+03  0.18250000000E+03  0.00000000000E+00 0.  1.
         11   -1    0    0    0    0 -0.00000000000E+00 -0.00000000000E+00 -0.18250000000E+03  0.18250000000E+03  0.00000000000E+00 0. -1.
        -11    1    1    2    0    0 -0.22735538932E+01 -0.17919597198E+01  0.15036090952E+03  0.15038877377E+03  0.00000000000E+00 0.  1.
         11    1    1    2    0    0 -0.13048789957E+01  0.22352279575E+01 -0.14228751750E+03  0.14231105575E+03  0.00000000000E+00 0. -1.
        -15    1    1    2    0    0  0.22376015753E+01 -0.51093176580E+01 -0.39763004178E+02  0.40191618754E+02  0.17770000000E+01 0. -1.
         15    1    1    2    0    0  0.13408313136E+01  0.46660494202E+01  0.31689612160E+02  0.32108551721E+02  0.17770000000E+01 0.  1.
</event>
<event>
 6    1  0.1108180E-002  0.1911158E+03  0.7546771E-02  0.1061796E+00
        -11   -1    0    0    0    0  0.00000000000E+00  0.00000000000E+00  0.18250000000E+03  0.18250000000E+03  0.00000000000E+00 0. -1.
         11   -1    0    0    0    0 -0.00000000000E+00 -0.00000000000E+00 -0.18250000000E+03  0.18250000000E+03  0.00000000000E+00 0. -1.
        -11    1    1    2    0    0  0.53686410998E+01  0.64668417756E+00  0.13600298880E+03  0.13611044586E+03  0.00000000000E+00 0. -1.
         11    1    1    2    0    0  0.10211889860E+02 -0.15026024694E+02 -0.17293248996E+03  0.17388418616E+03  0.00000000000E+00 0. -1.
        -15    1    1    2    0    0 -0.43040282640E+01  0.10264363245E+02 -0.42723499977E+01  0.12053734510E+02  0.17770000000E+01 0.  1.
         15    1    1    2    0    0 -0.11276502696E+02  0.41149772708E+01  0.41201851152E+02  0.42951633477E+02  0.17770000000E+01 0. -1.
</event>
<event>
 6    1  0.1108180E-002  0.1852269E+03  0.7546771E-02  0.1066305E+00
        -11   -1    0    0    0    0  0.00000000000E+00  0.00000000000E+00  0.18250000000E+03  0.18250000000E+03  0.00000000000E+00 0. -1.
         11   -1    0    0    0    0 -0.00000000000E+00 -0.00000000000E+00 -0.18250000000E+03  0.18250000000E+03  0.00000000000E+00 0. -1.
        -11    1    1    2    0    0  0.42946919259E+00  0.34833221395E+01  0.15872556474E+03  0.15876436275E+03  0.00000000000E+00 0. -1.
         11    1    1    2    0    0 -0.93259221920E+00 -0.49174133964E+01 -0.17970339722E+03  0.17977308379E+03  0.00000000000E+00 0. -1.
        -15    1    1    2    0    0  0.59968710200E+00  0.44632561500E+01 -0.34374355875E+00  0.48534697603E+01  0.17770000000E+01 0.  1.
         15    1    1    2    0    0 -0.96564075390E-01 -0.30291648930E+01  0.21321576035E+02  0.21609083697E+02  0.17770000000E+01 0.  1.
</event>
<event>
 6    1  0.1108180E-002  0.1850277E+03  0.7546771E-02  0.1066460E+00
        -11   -1    0    0    0    0  0.00000000000E+00  0.00000000000E+00  0.18250000000E+03  0.18250000000E+03  0.00000000000E+00 0. -1.
         11   -1    0    0    0    0 -0.00000000000E+00 -0.00000000000E+00 -0.18250000000E+03  0.18250000000E+03  0.00000000000E+00 0. -1.
        -11    1    1    2    0    0 -0.12107984282E+00 -0.16022398233E+01  0.11456168307E+03  0.11457295083E+03  0.00000000000E+00 0. -1.
         11    1    1    2    0    0 -0.12869422319E+01  0.27728489748E+01 -0.17994630805E+03  0.17997227201E+03  0.00000000000E+00 0. -1.
        -15    1    1    2    0    0 -0.70531447301E+01 -0.63454405147E+01  0.55523301030E+02  0.56356065797E+02  0.17770000000E+01 0. -1.
         15    1    1    2    0    0  0.84611668049E+01  0.51748313632E+01  0.98613239463E+01  0.14098711371E+02  0.17770000000E+01 0.  1.
</event>
<event>
 6    1  0.1108180E-002  0.1638486E+03  0.7546771E-02  0.1084354E+00
        -11   -1    0    0    0    0  0.00000000000E+00  0.00000000000E+00  0.18250000000E+03  0.18250000000E+03  0.00000000000E+00 0.  1.
         11   -1    0    0    0    0 -0.00000000000E+00 -0.00000000000E+00 -0.18250000000E+03  0.18250000000E+03  0.00000000000E+00 0. -1.
        -11    1    1    2    0    0  0.21051658719E+02  0.11664705111E+02  0.16644078862E+03  0.16817185793E+03  0.00000000000E+00 0.  1.
         11    1    1    2    0    0 -0.24016741456E+01 -0.26085092317E+00 -0.16029290697E+03  0.16031111037E+03  0.00000000000E+00 0. -1.
        -15    1    1    2    0    0  0.28203241693E+01 -0.10005510792E+01 -0.11488507848E+02  0.12004118978E+02  0.17770000000E+01 0.  1.
         15    1    1    2    0    0 -0.21470308743E+02 -0.10403303109E+02  0.53406261981E+01  0.24512912726E+02  0.17770000000E+01 0. -1.
</event>
<event>
 6    1  0.1108180E-002  0.1829438E+03  0.7546771E-02  0.1068102E+00
        -11   -1    0    0    0    0  0.00000000000E+00  0.00000000000E+00  0.18250000000E+03  0.18250000000E+03  0.00000000000E+00 0. -1.
         11   -1    0    0    0    0 -0.00000000000E+00 -0.00000000000E+00 -0.18250000000E+03  0.18250000000E+03  0.00000000000E+00 0.  1.
        -11    1    1    2    0    0 -0.54559506097E+01 -0.26026696296E+01  0.18195585448E+03  0.18205623929E+03  0.00000000000E+00 0. -1.
         11    1    1    2    0    0  0.50697287265E+01 -0.37039999180E+01 -0.95216059214E+02  0.95422846829E+02  0.00000000000E+00 0.  1.
        -15    1    1    2    0    0 -0.34023968437E+01  0.57580665540E+01 -0.40310660008E+02  0.40900350536E+02  0.17770000000E+01 0.  1.
         15    1    1    2    0    0  0.37886187270E+01  0.54860299361E+00 -0.46429135255E+02  0.46620563345E+02  0.17770000000E+01 0. -1.
</event>
<event>
 6    1  0.1108180E-002  0.1849322E+03  0.7546771E-02  0.1066535E+00
        -11   -1    0    0    0    0  0.00000000000E+00  0.00000000000E+00  0.18250000000E+03  0.18250000000E+03  0.00000000000E+00 0.  1.
         11   -1    0    0    0    0 -0.00000000000E+00 -0.00000000000E+00 -0.18250000000E+03  0.18250000000E+03  0.00000000000E+00 0. -1.
        -11    1    1    2    0    0 -0.12092295413E+01  0.20554826166E+01  0.15357056796E+03  0.15358908355E+03  0.00000000000E+00 0.  1.
         11    1    1    2    0    0  0.17001590818E+01 -0.17761030927E+01 -0.18005104703E+03  0.18006783339E+03  0.00000000000E+00 0. -1.
        -15    1    1    2    0    0 -0.27823507954E+01  0.52985313483E+00 -0.11599955767E+01  0.35391438274E+01  0.17770000000E+01 0.  1.
         15    1    1    2    0    0  0.22914212548E+01 -0.80923265876E+00  0.27640474652E+02  0.27803939233E+02  0.17770000000E+01 0.  1.
</event>
<event>
 6    1  0.1108180E-002  0.1830817E+03  0.7546771E-02  0.1067993E+00
        -11   -1    0    0    0    0  0.00000000000E+00  0.00000000000E+00  0.18250000000E+03  0.18250000000E+03  0.00000000000E+00 0.  1.
         11   -1    0    0    0    0 -0.00000000000E+00 -0.00000000000E+00 -0.18250000000E+03  0.18250000000E+03  0.00000000000E+00 0. -1.
        -11    1    1    2    0    0  0.18154688872E+01  0.12304301227E+01  0.10243672069E+03  0.10246019535E+03  0.00000000000E+00 0.  1.
         11    1    1    2    0    0  0.29091172608E+01 -0.36523810452E+00 -0.18189468259E+03  0.18191831111E+03  0.00000000000E+00 0. -1.
        -15    1    1    2    0    0  0.12567118722E+01 -0.54438707957E+01  0.37538933418E+02  0.37994003541E+02  0.17770000000E+01 0.  1.
         15    1    1    2    0    0 -0.59812980202E+01  0.45786787775E+01  0.41919028485E+02  0.42627489998E+02  0.17770000000E+01 0. -1.
</event>
<event>
 6    1  0.1108180E-002  0.1828114E+03  0.7546771E-02  0.1068207E+00
        -11   -1    0    0    0    0  0.00000000000E+00  0.00000000000E+00  0.18250000000E+03  0.18250000000E+03  0.00000000000E+00 0.  1.
         11   -1    0    0    0    0 -0.00000000000E+00 -0.00000000000E+00 -0.18250000000E+03  0.18250000000E+03  0.00000000000E+00 0. -1.
        -11    1    1    2    0    0 -0.17874333204E+01 -0.20469834209E+01  0.18216830901E+03  0.18218857776E+03  0.00000000000E+00 0.  1.
         11    1    1    2    0    0  0.36305608540E+01  0.10968851162E+01 -0.12007649575E+03  0.12013637651E+03  0.00000000000E+00 0. -1.
        -15    1    1    2    0    0 -0.10629667221E+01  0.24745094653E+01 -0.96487015824E+01  0.10173901246E+02  0.17770000000E+01 0.  1.
         15    1    1    2    0    0 -0.78016081147E+00 -0.15244111606E+01 -0.52443111675E+02  0.52501144477E+02  0.17770000000E+01 0. -1.
</event>
<event>
 6    1  0.1108180E-002  0.1843829E+03  0.7546771E-02  0.1066966E+00
        -11   -1    0    0    0    0  0.00000000000E+00  0.00000000000E+00  0.18250000000E+03  0.18250000000E+03  0.00000000000E+00 0.  1.
         11   -1    0    0    0    0 -0.00000000000E+00 -0.00000000000E+00 -0.18250000000E+03  0.18250000000E+03  0.00000000000E+00 0. -1.
        -11    1    1    2    0    0  0.20780365932E+01  0.13001155050E+01  0.18060046544E+03  0.18061709956E+03  0.00000000000E+00 0.  1.
         11    1    1    2    0    0 -0.39493223442E+01  0.19470563769E+01 -0.17244563900E+03  0.17250184517E+03  0.00000000000E+00 0. -1.
        -15    1    1    2    0    0  0.62554239190E+00 -0.29997919440E+01 -0.10893563040E+00  0.35439597858E+01  0.17770000000E+01 0.  1.
         15    1    1    2    0    0  0.12457433592E+01 -0.24737993785E+00 -0.80458908035E+01  0.83370954878E+01  0.17770000000E+01 0. -1.
</event>
<event>
 6    1  0.1108180E-002  0.1828658E+03  0.7546771E-02  0.1068164E+00
        -11   -1    0    0    0    0  0.00000000000E+00  0.00000000000E+00  0.18250000000E+03  0.18250000000E+03  0.00000000000E+00 0. -1.
         11   -1    0    0    0    0 -0.00000000000E+00 -0.00000000000E+00 -0.18250000000E+03  0.18250000000E+03  0.00000000000E+00 0. -1.
        -11    1    1    2    0    0  0.12121691124E+01 -0.28672083549E+01  0.18210764442E+03  0.18213424827E+03  0.00000000000E+00 0. -1.
         11    1    1    2    0    0 -0.10681413830E+01  0.44735773394E+01 -0.11625167189E+03  0.11634261918E+03  0.00000000000E+00 0. -1.
        -15    1    1    2    0    0 -0.75113270800E+00  0.26276532896E+01 -0.46759036358E+02  0.46872528972E+02  0.17770000000E+01 0.  1.
         15    1    1    2    0    0  0.60710497860E+00 -0.42340222740E+01 -0.19096936166E+02  0.19650603579E+02  0.17770000000E+01 0. -1.
</event>
<event>
 6    1  0.1108180E-002  0.1846881E+03  0.7546771E-02  0.1066726E+00
        -11   -1    0    0    0    0  0.00000000000E+00  0.00000000000E+00  0.18250000000E+03  0.18250000000E+03  0.00000000000E+00 0.  1.
         11   -1    0    0    0    0 -0.00000000000E+00 -0.00000000000E+00 -0.18250000000E+03  0.18250000000E+03  0.00000000000E+00 0.  1.
        -11    1    1    2    0    0 -0.34840051266E+01 -0.46765599425E+01  0.18021755514E+03  0.18031188449E+03  0.00000000000E+00 0.  1.
         11    1    1    2    0    0 -0.12983237952E+01 -0.10072966734E+01 -0.58894338900E+02  0.58917259320E+02  0.00000000000E+00 0.  1.
        -15    1    1    2    0    0 -0.95643151746E+01  0.12326945112E+02 -0.41367955621E+02  0.44248109359E+02  0.17770000000E+01 0.  1.
         15    1    1    2    0    0  0.14346644096E+02 -0.66430884957E+01 -0.79955260622E+02  0.81522746837E+02  0.17770000000E+01 0. -1.
</event>
<event>
 6    1  0.1108180E-002  0.1865468E+03  0.7546771E-02  0.1065278E+00
        -11   -1    0    0    0    0  0.00000000000E+00  0.00000000000E+00  0.18250000000E+03  0.18250000000E+03  0.00000000000E+00 0. -1.
         11   -1    0    0    0    0 -0.00000000000E+00 -0.00000000000E+00 -0.18250000000E+03  0.18250000000E+03  0.00000000000E+00 0. -1.
        -11    1    1    2    0    0  0.35585584692E+00 -0.15106438979E+01  0.28597712385E+02  0.28639794553E+02  0.00000000000E+00 0. -1.
         11    1    1    2    0    0 -0.98504264882E+00 -0.22662846584E+01 -0.17843613650E+03  0.17845324644E+03  0.00000000000E+00 0. -1.
        -15    1    1    2    0    0  0.15877575679E+02  0.10783170092E+02  0.13181497738E+03  0.13321681634E+03  0.17770000000E+01 0. -1.
         15    1    1    2    0    0 -0.15248388877E+02 -0.70062415354E+01  0.18023446737E+02  0.24690142670E+02  0.17770000000E+01 0.  1.
</event>
<event>
 6    1  0.1108180E-002  0.1827842E+03  0.7546771E-02  0.1068229E+00
        -11   -1    0    0    0    0  0.00000000000E+00  0.00000000000E+00  0.18250000000E+03  0.18250000000E+03  0.00000000000E+00 0.  1.
         11   -1    0    0    0    0 -0.00000000000E+00 -0.00000000000E+00 -0.18250000000E+03  0.18250000000E+03  0.00000000000E+00 0.  1.
        -11    1    1    2    0    0 -0.20013740584E+01 -0.25302288147E+01  0.18218719953E+03  0.18221576009E+03  0.00000000000E+00 0.  1.
         11    1    1    2    0    0 -0.12261174158E+01 -0.17916106989E+01 -0.93892897410E+02  0.93917993041E+02  0.00000000000E+00 0.  1.
        -15    1    1    2    0    0  0.19285190280E+01  0.33287203389E+00 -0.68636859971E+02  0.68687744650E+02  0.17770000000E+01 0.  1.
         15    1    1    2    0    0  0.12989724462E+01  0.39889674797E+01 -0.19657442144E+02  0.20178502214E+02  0.17770000000E+01 0. -1.
</event>
<event>
 6    1  0.1108180E-002  0.1857371E+03  0.7546771E-02  0.1065907E+00
        -11   -1    0    0    0    0  0.00000000000E+00  0.00000000000E+00  0.18250000000E+03  0.18250000000E+03  0.00000000000E+00 0. -1.
         11   -1    0    0    0    0 -0.00000000000E+00 -0.00000000000E+00 -0.18250000000E+03  0.18250000000E+03  0.00000000000E+00 0. -1.
        -11    1    1    2    0    0 -0.19773875152E+01 -0.38625078885E+01  0.14766789640E+03  0.14773163729E+03  0.00000000000E+00 0. -1.
         11    1    1    2    0    0 -0.18556345542E+01  0.29792693558E+01 -0.17922855626E+03  0.17926292089E+03  0.00000000000E+00 0. -1.
        -15    1    1    2    0    0  0.59357762851E+01 -0.89324844668E+01  0.18201601614E+02  0.21200913875E+02  0.17770000000E+01 0.  1.
         15    1    1    2    0    0 -0.21027542158E+01  0.98157229995E+01  0.13359058251E+02  0.16804527951E+02  0.17770000000E+01 0.  1.
</event>
<event>
 6    1  0.1108180E-002  0.1854442E+03  0.7546771E-02  0.1066135E+00
        -11   -1    0    0    0    0  0.00000000000E+00  0.00000000000E+00  0.18250000000E+03  0.18250000000E+03  0.00000000000E+00 0. -1.
         11   -1    0    0    0    0 -0.00000000000E+00 -0.00000000000E+00 -0.18250000000E+03  0.18250000000E+03  0.00000000000E+00 0. -1.
        -11    1    1    2    0    0  0.10447148779E+00  0.36322625459E+01  0.17951901387E+03  0.17955578684E+03  0.00000000000E+00 0. -1.
         11    1    1    2    0    0 -0.97679411201E+01 -0.52431358179E+01 -0.13297861096E+03  0.13343992701E+03  0.00000000000E+00 0. -1.
        -15    1    1    2    0    0  0.83818177917E+01  0.92387256915E+01 -0.15552075971E+02  0.20015836677E+02  0.17770000000E+01 0.  1.
         15    1    1    2    0    0  0.12816518406E+01 -0.76278524195E+01 -0.30988326939E+02  0.31988449470E+02  0.17770000000E+01 0. -1.
</event>
<event>
 6    1  0.1108180E-002  0.1859034E+03  0.7546771E-02  0.1065778E+00
        -11   -1    0    0    0    0  0.00000000000E+00  0.00000000000E+00  0.18250000000E+03  0.18250000000E+03  0.00000000000E+00 0. -1.
         11   -1    0    0    0    0 -0.00000000000E+00 -0.00000000000E+00 -0.18250000000E+03  0.18250000000E+03  0.00000000000E+00 0.  1.
        -11    1    1    2    0    0 -0.10225539797E+01 -0.33341933658E+01  0.17239087111E+03  0.17242614333E+03  0.00000000000E+00 0. -1.
         11    1    1    2    0    0 -0.44245894788E+01 -0.17622167173E+01 -0.17903327599E+03  0.17909661167E+03  0.00000000000E+00 0.  1.
        -15    1    1    2    0    0  0.55410811018E+01  0.70112187987E+01  0.50808460635E+01  0.10432329296E+02  0.17770000000E+01 0.  1.
         15    1    1    2    0    0 -0.93937643367E-01 -0.19148087155E+01  0.15615588190E+01  0.30449157038E+01  0.17770000000E+01 0. -1.
</event>
<event>
 6    1  0.1108180E-002  0.1751409E+03  0.7546771E-02  0.1074468E+00
        -11   -1    0    0    0    0  0.00000000000E+00  0.00000000000E+00  0.18250000000E+03  0.18250000000E+03  0.00000000000E+00 0.  1.
         11   -1    0    0    0    0 -0.00000000000E+00 -0.00000000000E+00 -0.18250000000E+03  0.18250000000E+03  0.00000000000E+00 0.  1.
        -11    1    1    2    0    0 -0.31615484170E+01  0.44639767304E+01  0.17593459829E+03  0.17601961638E+03  0.00000000000E+00 0.  1.
         11    1    1    2    0    0 -0.41051373645E+01 -0.14042675399E+01 -0.17430072593E+03  0.17435471654E+03  0.00000000000E+00 0.  1.
        -15    1    1    2    0    0  0.75801542038E+01  0.23140443833E+01  0.13276411059E+01  0.82300606964E+01  0.17770000000E+01 0. -1.
         15    1    1    2    0    0 -0.31346842229E+00 -0.53737535738E+01 -0.29615134621E+01  0.63956063755E+01  0.17770000000E+01 0.  1.
</event>
<event>
 6    1  0.1108180E-002  0.1765098E+03  0.7546771E-02  0.1073326E+00
        -11   -1    0    0    0    0  0.00000000000E+00  0.00000000000E+00  0.18250000000E+03  0.18250000000E+03  0.00000000000E+00 0.  1.
         11   -1    0    0    0    0 -0.00000000000E+00 -0.00000000000E+00 -0.18250000000E+03  0.18250000000E+03  0.00000000000E+00 0. -1.
        -11    1    1    2    0    0  0.31569850753E+01 -0.20629969664E+01  0.17475923405E+03  0.17479992104E+03  0.00000000000E+00 0.  1.
         11    1    1    2    0    0 -0.50746940573E+01 -0.75941510661E+01 -0.17813916489E+03  0.17837316423E+03  0.00000000000E+00 0. -1.
        -15    1    1    2    0    0  0.78304116853E+00  0.21484957276E+01  0.27644307712E+01  0.40036225911E+01  0.17770000000E+01 0. -1.
         15    1    1    2    0    0  0.11346678134E+01  0.75086523049E+01  0.61550006772E+00  0.78232921342E+01  0.17770000000E+01 0.  1.
</event>
<event>
 6    1  0.1108180E-002  0.1828637E+03  0.7546771E-02  0.1068166E+00
        -11   -1    0    0    0    0  0.00000000000E+00  0.00000000000E+00  0.18250000000E+03  0.18250000000E+03  0.00000000000E+00 0. -1.
         11   -1    0    0    0    0 -0.00000000000E+00 -0.00000000000E+00 -0.18250000000E+03  0.18250000000E+03  0.00000000000E+00 0. -1.
        -11    1    1    2    0    0 -0.91166034117E+00  0.45253383738E+01  0.13070358494E+03  0.13078507915E+03  0.00000000000E+00 0. -1.
         11    1    1    2    0    0  0.33025608485E+01  0.11197912524E+01 -0.18210287754E+03  0.18213626451E+03  0.00000000000E+00 0. -1.
        -15    1    1    2    0    0  0.24738869085E+00 -0.10459708612E+01  0.25401535183E+02  0.25486289939E+02  0.17770000000E+01 0.  1.
         15    1    1    2    0    0 -0.26382891982E+01 -0.45991587649E+01  0.25997757420E+02  0.26592366407E+02  0.17770000000E+01 0. -1.
</event>
<event>
 6    1  0.1108180E-002  0.1826639E+03  0.7546771E-02  0.1068324E+00
        -11   -1    0    0    0    0  0.00000000000E+00  0.00000000000E+00  0.18250000000E+03  0.18250000000E+03  0.00000000000E+00 0.  1.
         11   -1    0    0    0    0 -0.00000000000E+00 -0.00000000000E+00 -0.18250000000E+03  0.18250000000E+03  0.00000000000E+00 0. -1.
        -11    1    1    2    0    0  0.13074468959E+01  0.13835648433E+01  0.74679997015E+02  0.74704254385E+02  0.00000000000E+00 0.  1.
         11    1    1    2    0    0 -0.38692597445E+00  0.45614325548E+01 -0.18227866070E+03  0.18233613610E+03  0.00000000000E+00 0. -1.
        -15    1    1    2    0    0 -0.29217238015E+01 -0.17534045985E+01  0.45184647072E+02  0.45347777869E+02  0.17770000000E+01 0. -1.
         15    1    1    2    0    0  0.20012028801E+01 -0.41915927996E+01  0.62414016617E+02  0.62611831649E+02  0.17770000000E+01 0.  1.
</event>
<event>
 6    1  0.1108180E-002  0.9838928E+02  0.7546771E-02  0.1166631E+00
        -11   -1    0    0    0    0  0.00000000000E+00  0.00000000000E+00  0.18250000000E+03  0.18250000000E+03  0.00000000000E+00 0. -1.
         11   -1    0    0    0    0 -0.00000000000E+00 -0.00000000000E+00 -0.18250000000E+03  0.18250000000E+03  0.00000000000E+00 0. -1.
        -11    1    1    2    0    0  0.99796265518E+01 -0.47405347745E+02  0.12233267357E+03  0.13157561691E+03  0.00000000000E+00 0. -1.
         11    1    1    2    0    0 -0.26934396447E+02 -0.30382689961E+02 -0.84026766964E+02  0.93322382780E+02  0.00000000000E+00 0. -1.
        -15    1    1    2    0    0  0.27534962677E+02  0.52463696603E+02  0.30022294768E+02  0.66446290664E+02  0.17770000000E+01 0.  1.
         15    1    1    2    0    0 -0.10580192782E+02  0.25324341103E+02 -0.68328201376E+02  0.73655709649E+02  0.17770000000E+01 0. -1.
</event>
<event>
 6    1  0.1108180E-002  0.1830102E+03  0.7546771E-02  0.1068049E+00
        -11   -1    0    0    0    0  0.00000000000E+00  0.00000000000E+00  0.18250000000E+03  0.18250000000E+03  0.00000000000E+00 0.  1.
         11   -1    0    0    0    0 -0.00000000000E+00 -0.00000000000E+00 -0.18250000000E+03  0.18250000000E+03  0.00000000000E+00 0. -1.
        -11    1    1    2    0    0  0.21409897120E+01 -0.41477553966E+01  0.18192997708E+03  0.18198984662E+03  0.00000000000E+00 0.  1.
         11    1    1    2    0    0  0.44315114923E+00  0.96300526259E+00 -0.77121016296E+02  0.77128301658E+02  0.00000000000E+00 0. -1.
        -15    1    1    2    0    0 -0.20963721146E+01 -0.40082482777E+01 -0.75169961895E+02  0.75326899117E+02  0.17770000000E+01 0.  1.
         15    1    1    2    0    0 -0.48776874663E+00  0.71929984117E+01 -0.29638998890E+02  0.30554952605E+02  0.17770000000E+01 0.  1.
</event>
<event>
 6    1  0.1108180E-002  0.1825493E+03  0.7546771E-02  0.1068416E+00
        -11   -1    0    0    0    0  0.00000000000E+00  0.00000000000E+00  0.18250000000E+03  0.18250000000E+03  0.00000000000E+00 0.  1.
         11   -1    0    0    0    0 -0.00000000000E+00 -0.00000000000E+00 -0.18250000000E+03  0.18250000000E+03  0.00000000000E+00 0. -1.
        -11    1    1    2    0    0 -0.11026865989E+01  0.39191945667E+01  0.18240526679E+03  0.18245069843E+03  0.00000000000E+00 0.  1.
         11    1    1    2    0    0  0.10381532332E+01 -0.11106456752E+01 -0.26867824978E+02  0.26910802942E+02  0.00000000000E+00 0. -1.
        -15    1    1    2    0    0 -0.44778686094E+00  0.23134393928E+00 -0.35165649104E+02  0.35214125560E+02  0.17770000000E+01 0. -1.
         15    1    1    2    0    0  0.51232022661E+00 -0.30398928308E+01 -0.12037179271E+03  0.12042437307E+03  0.17770000000E+01 0. -1.
</event>
<event>
 6    1  0.1108180E-002  0.1833331E+03  0.7546771E-02  0.1067794E+00
        -11   -1    0    0    0    0  0.00000000000E+00  0.00000000000E+00  0.18250000000E+03  0.18250000000E+03  0.00000000000E+00 0. -1.
         11   -1    0    0    0    0 -0.00000000000E+00 -0.00000000000E+00 -0.18250000000E+03  0.18250000000E+03  0.00000000000E+00 0.  1.
        -11    1    1    2    0    0 -0.14475851324E+00  0.25726412347E+01  0.18164858344E+03  0.18166685802E+03  0.00000000000E+00 0. -1.
         11    1    1    2    0    0 -0.48098452035E+01  0.50233329484E+01 -0.10965100142E+03  0.10987133656E+03  0.00000000000E+00 0.  1.
        -15    1    1    2    0    0  0.51926203953E+01 -0.81338384741E+01 -0.70145891645E+02  0.70828853433E+02  0.17770000000E+01 0.  1.
         15    1    1    2    0    0 -0.23801667853E+00  0.53786429097E+00 -0.18516903763E+01  0.26329519905E+01  0.17770000000E+01 0.  1.
</event>
<event>
 6    1  0.1108180E-002  0.1828993E+03  0.7546771E-02  0.1068137E+00
        -11   -1    0    0    0    0  0.00000000000E+00  0.00000000000E+00  0.18250000000E+03  0.18250000000E+03  0.00000000000E+00 0. -1.
         11   -1    0    0    0    0 -0.00000000000E+00 -0.00000000000E+00 -0.18250000000E+03  0.18250000000E+03  0.00000000000E+00 0. -1.
        -11    1    1    2    0    0  0.47267059720E+01 -0.66784861435E+00  0.18203814478E+03  0.18210072467E+03  0.00000000000E+00 0. -1.
         11    1    1    2    0    0 -0.10649630010E+01  0.19740622678E+00 -0.34124876326E+02  0.34142060565E+02  0.00000000000E+00 0. -1.
        -15    1    1    2    0    0 -0.22484026885E+01  0.23541109469E+01 -0.80546417081E+01  0.88674762501E+01  0.17770000000E+01 0. -1.
         15    1    1    2    0    0 -0.14133402825E+01 -0.18836685593E+01 -0.13985862674E+03  0.13988973851E+03  0.17770000000E+01 0.  1.
</event>
<event>
 6    1  0.1108180E-002  0.1833902E+03  0.7546771E-02  0.1067748E+00
        -11   -1    0    0    0    0  0.00000000000E+00  0.00000000000E+00  0.18250000000E+03  0.18250000000E+03  0.00000000000E+00 0. -1.
         11   -1    0    0    0    0 -0.00000000000E+00 -0.00000000000E+00 -0.18250000000E+03  0.18250000000E+03  0.00000000000E+00 0. -1.
        -11    1    1    2    0    0  0.36897234382E+01 -0.39745737913E+01  0.95112802692E+02  0.95267289936E+02  0.00000000000E+00 0. -1.
         11    1    1    2    0    0 -0.19359219949E+01 -0.19615461475E+01 -0.18158887464E+03  0.18160978732E+03  0.00000000000E+00 0. -1.
        -15    1    1    2    0    0 -0.64914599616E+01 -0.96554693630E+00  0.57759706640E+02  0.58158514196E+02  0.17770000000E+01 0. -1.
         15    1    1    2    0    0  0.47376585183E+01  0.69016668751E+01  0.28716365310E+02  0.29964408546E+02  0.17770000000E+01 0.  1.
</event>
<event>
 6    1  0.1108180E-002  0.1828121E+03  0.7546771E-02  0.1068207E+00
        -11   -1    0    0    0    0  0.00000000000E+00  0.00000000000E+00  0.18250000000E+03  0.18250000000E+03  0.00000000000E+00 0.  1.
         11   -1    0    0    0    0 -0.00000000000E+00 -0.00000000000E+00 -0.18250000000E+03  0.18250000000E+03  0.00000000000E+00 0.  1.
        -11    1    1    2    0    0  0.87733817013E+00  0.19122495366E+01  0.10838802356E+03  0.10840844096E+03  0.00000000000E+00 0.  1.
         11    1    1    2    0    0  0.33034053642E+01  0.68287767505E-02 -0.18215796774E+03  0.18218791877E+03  0.00000000000E+00 0.  1.
        -15    1    1    2    0    0  0.16616929620E+01 -0.24950586809E+01  0.31211618938E+02  0.31405563632E+02  0.17770000000E+01 0. -1.
         15    1    1    2    0    0 -0.58424364963E+01  0.57598036760E+00  0.42558325249E+02  0.42998076638E+02  0.17770000000E+01 0.  1.
</event>
<event>
 6    1  0.1108180E-002  0.1889234E+03  0.7546771E-02  0.1063454E+00
        -11   -1    0    0    0    0  0.00000000000E+00  0.00000000000E+00  0.18250000000E+03  0.18250000000E+03  0.00000000000E+00 0. -1.
         11   -1    0    0    0    0 -0.00000000000E+00 -0.00000000000E+00 -0.18250000000E+03  0.18250000000E+03  0.00000000000E+00 0. -1.
        -11    1    1    2    0    0  0.89190245780E+01 -0.64382205606E+01  0.15410793726E+03  0.15450001945E+03  0.00000000000E+00 0. -1.
         11    1    1    2    0    0  0.43425135136E+01  0.56598870359E+01 -0.17593200257E+03  0.17607657787E+03  0.00000000000E+00 0. -1.
        -15    1    1    2    0    0 -0.27378568355E+01  0.10982826108E+01  0.23380802622E+02  0.23633064655E+02  0.17770000000E+01 0. -1.
         15    1    1    2    0    0 -0.10523681256E+02 -0.31994908611E+00 -0.15567373096E+01  0.10790338023E+02  0.17770000000E+01 0.  1.
</event>
<event>
 6    1  0.1108180E-002  0.1926217E+03  0.7546771E-02  0.1060672E+00
        -11   -1    0    0    0    0  0.00000000000E+00  0.00000000000E+00  0.18250000000E+03  0.18250000000E+03  0.00000000000E+00 0. -1.
         11   -1    0    0    0    0 -0.00000000000E+00 -0.00000000000E+00 -0.18250000000E+03  0.18250000000E+03  0.00000000000E+00 0. -1.
        -11    1    1    2    0    0  0.13156838250E+01 -0.19618837972E+01  0.17236208144E+03  0.17237826757E+03  0.00000000000E+00 0. -1.
         11    1    1    2    0    0  0.16286799694E+02  0.13224418601E+02 -0.84879701857E+02  0.87434025865E+02  0.00000000000E+00 0. -1.
        -15    1    1    2    0    0 -0.41228449650E+01 -0.30456376687E+01 -0.89058308007E+02  0.89223392188E+02  0.17770000000E+01 0. -1.
         15    1    1    2    0    0 -0.13479638554E+02 -0.82168971350E+01  0.15759284212E+01  0.15964314375E+02  0.17770000000E+01 0.  1.
</event>
<event>
 6    1  0.1108180E-002  0.1833322E+03  0.7546771E-02  0.1067794E+00
        -11   -1    0    0    0    0  0.00000000000E+00  0.00000000000E+00  0.18250000000E+03  0.18250000000E+03  0.00000000000E+00 0.  1.
         11   -1    0    0    0    0 -0.00000000000E+00 -0.00000000000E+00 -0.18250000000E+03  0.18250000000E+03  0.00000000000E+00 0. -1.
        -11    1    1    2    0    0 -0.11925060629E+01  0.15270765468E+01  0.12698581313E+03  0.12700059358E+03  0.00000000000E+00 0.  1.
         11    1    1    2    0    0  0.80728836522E+01 -0.28258221135E+01 -0.18146631522E+03  0.18166777447E+03  0.00000000000E+00 0. -1.
        -15    1    1    2    0    0 -0.82788716683E+01  0.26301508140E+01  0.21633569691E+02  0.23380044397E+02  0.17770000000E+01 0.  1.
         15    1    1    2    0    0  0.13984940790E+01 -0.13314052473E+01  0.32846932396E+02  0.32951587556E+02  0.17770000000E+01 0.  1.
</event>
<event>
 6    1  0.1108180E-002  0.1827805E+03  0.7546771E-02  0.1068232E+00
        -11   -1    0    0    0    0  0.00000000000E+00  0.00000000000E+00  0.18250000000E+03  0.18250000000E+03  0.00000000000E+00 0.  1.
         11   -1    0    0    0    0 -0.00000000000E+00 -0.00000000000E+00 -0.18250000000E+03  0.18250000000E+03  0.00000000000E+00 0. -1.
        -11    1    1    2    0    0  0.42033690015E+01  0.19585492959E+01  0.18216052367E+03  0.18221953960E+03  0.00000000000E+00 0.  1.
         11    1    1    2    0    0 -0.57143113767E+00  0.26204614319E+01 -0.11685468806E+03  0.11688546305E+03  0.00000000000E+00 0. -1.
        -15    1    1    2    0    0 -0.29316172490E+01 -0.16251226959E+01 -0.51794890606E+02  0.51933648296E+02  0.17770000000E+01 0. -1.
         15    1    1    2    0    0 -0.70032061486E+00 -0.29538880319E+01 -0.13510945009E+02  0.13961349057E+02  0.17770000000E+01 0.  1.
</event>
<event>
 6    1  0.1108180E-002  0.1837181E+03  0.7546771E-02  0.1067489E+00
        -11   -1    0    0    0    0  0.00000000000E+00  0.00000000000E+00  0.18250000000E+03  0.18250000000E+03  0.00000000000E+00 0.  1.
         11   -1    0    0    0    0 -0.00000000000E+00 -0.00000000000E+00 -0.18250000000E+03  0.18250000000E+03  0.00000000000E+00 0. -1.
        -11    1    1    2    0    0  0.14342949908E+01 -0.32740942954E+01  0.18124670305E+03  0.18128194688E+03  0.00000000000E+00 0.  1.
         11    1    1    2    0    0 -0.21723799450E+01  0.19960749741E+01 -0.51799555799E+02  0.51883499601E+02  0.00000000000E+00 0. -1.
        -15    1    1    2    0    0 -0.80699138871E+00 -0.61230961002E+00  0.28680406415E+00  0.20654645316E+01  0.17770000000E+01 0.  1.
         15    1    1    2    0    0  0.15450763429E+01  0.18903289313E+01 -0.12973395132E+03  0.12976908899E+03  0.17770000000E+01 0. -1.
</event>
<event>
 6    1  0.1108180E-002  0.1839124E+03  0.7546771E-02  0.1067336E+00
        -11   -1    0    0    0    0  0.00000000000E+00  0.00000000000E+00  0.18250000000E+03  0.18250000000E+03  0.00000000000E+00 0. -1.
         11   -1    0    0    0    0 -0.00000000000E+00 -0.00000000000E+00 -0.18250000000E+03  0.18250000000E+03  0.00000000000E+00 0.  1.
        -11    1    1    2    0    0 -0.15972569903E+01 -0.13270188684E+01  0.14443047866E+03  0.14444540621E+03  0.00000000000E+00 0. -1.
         11    1    1    2    0    0  0.93554493830E+00  0.27779929375E+01 -0.18106389737E+03  0.18108762360E+03  0.00000000000E+00 0.  1.
        -15    1    1    2    0    0 -0.16210184680E+01  0.48480249471E+01  0.27355526972E+02  0.27885724514E+02  0.17770000000E+01 0. -1.
         15    1    1    2    0    0  0.22827305201E+01 -0.62989990162E+01  0.92778917371E+01  0.11581245672E+02  0.17770000000E+01 0.  1.
</event>
<event>
 6    1  0.1108180E-002  0.1937437E+03  0.7546771E-02  0.1059841E+00
        -11   -1    0    0    0    0  0.00000000000E+00  0.00000000000E+00  0.18250000000E+03  0.18250000000E+03  0.00000000000E+00 0. -1.
         11   -1    0    0    0    0 -0.00000000000E+00 -0.00000000000E+00 -0.18250000000E+03  0.18250000000E+03  0.00000000000E+00 0.  1.
        -11    1    1    2    0    0  0.26024825387E+01 -0.34144215817E+01  0.12865840675E+03  0.12873001522E+03  0.00000000000E+00 0. -1.
         11    1    1    2    0    0  0.10765542745E+02  0.15203207826E+02 -0.17024004834E+03  0.17125626557E+03  0.00000000000E+00 0.  1.
        -15    1    1    2    0    0 -0.49661699369E+01 -0.63716658938E+01  0.50697876190E+02  0.51368213414E+02  0.17770000000E+01 0. -1.
         15    1    1    2    0    0 -0.84018553464E+01 -0.54171203503E+01 -0.91162346006E+01  0.13645505797E+02  0.17770000000E+01 0.  1.
</event>
<event>
 6    1  0.1108180E-002  0.1828895E+03  0.7546771E-02  0.1068145E+00
        -11   -1    0    0    0    0  0.00000000000E+00  0.00000000000E+00  0.18250000000E+03  0.18250000000E+03  0.00000000000E+00 0.  1.
         11   -1    0    0    0    0 -0.00000000000E+00 -0.00000000000E+00 -0.18250000000E+03  0.18250000000E+03  0.00000000000E+00 0. -1.
        -11    1    1    2    0    0  0.21898728886E+01 -0.11422675114E+01  0.15239085439E+03  0.15241086844E+03  0.00000000000E+00 0.  1.
         11    1    1    2    0    0 -0.28122436456E+01 -0.20286382894E+01 -0.18207745770E+03  0.18211047386E+03  0.00000000000E+00 0. -1.
        -15    1    1    2    0    0  0.25325263017E+00  0.50072561751E+00  0.22764419083E+02  0.22840564096E+02  0.17770000000E+01 0.  1.
         15    1    1    2    0    0  0.36911812679E+00  0.26701801833E+01  0.69221842269E+01  0.76380936021E+01  0.17770000000E+01 0. -1.
</event>
<event>
 6    1  0.1108180E-002  0.1832686E+03  0.7546771E-02  0.1067845E+00
        -11   -1    0    0    0    0  0.00000000000E+00  0.00000000000E+00  0.18250000000E+03  0.18250000000E+03  0.00000000000E+00 0.  1.
         11   -1    0    0    0    0 -0.00000000000E+00 -0.00000000000E+00 -0.18250000000E+03  0.18250000000E+03  0.00000000000E+00 0.  1.
        -11    1    1    2    0    0  0.80371841582E+00  0.46067996030E+01  0.15550871082E+03  0.15557900793E+03  0.00000000000E+00 0.  1.
         11    1    1    2    0    0 -0.29919190264E+01 -0.18170518581E+01 -0.18169767820E+03  0.18173139388E+03  0.00000000000E+00 0.  1.
        -15    1    1    2    0    0 -0.16452107399E+01 -0.35561744406E+01  0.17165032444E+02  0.17696021102E+02  0.17770000000E+01 0.  1.
         15    1    1    2    0    0  0.38334113505E+01  0.76642669574E+00  0.90239349349E+01  0.99935770959E+01  0.17770000000E+01 0.  1.
</event>
<event>
 6    1  0.1108180E-002  0.1828293E+03  0.7546771E-02  0.1068193E+00
        -11   -1    0    0    0    0  0.00000000000E+00  0.00000000000E+00  0.18250000000E+03  0.18250000000E+03  0.00000000000E+00 0.  1.
         11   -1    0    0    0    0 -0.00000000000E+00 -0.00000000000E+00 -0.18250000000E+03  0.18250000000E+03  0.00000000000E+00 0. -1.
        -11    1    1    2    0    0  0.12746574727E+01 -0.25356423834E+01  0.18214857157E+03  0.18217067919E+03  0.00000000000E+00 0.  1.
         11    1    1    2    0    0 -0.10611117977E+01  0.35565562399E+00 -0.21053285563E+02  0.21083009324E+02  0.00000000000E+00 0. -1.
        -15    1    1    2    0    0  0.45099183538E+01 -0.38972971563E+01 -0.89687226895E+02  0.89902640038E+02  0.17770000000E+01 0.  1.
         15    1    1    2    0    0 -0.47234640288E+01  0.60772839157E+01 -0.71408059108E+02  0.71843671445E+02  0.17770000000E+01 0. -1.
</event>
<event>
 6    1  0.1108180E-002  0.1897295E+03  0.7546771E-02  0.1062841E+00
        -11   -1    0    0    0    0  0.00000000000E+00  0.00000000000E+00  0.18250000000E+03  0.18250000000E+03  0.00000000000E+00 0.  1.
         11   -1    0    0    0    0 -0.00000000000E+00 -0.00000000000E+00 -0.18250000000E+03  0.18250000000E+03  0.00000000000E+00 0.  1.
        -11    1    1    2    0    0 -0.34906515824E+01 -0.35608008214E+01  0.15807341450E+03  0.15815204179E+03  0.00000000000E+00 0.  1.
         11    1    1    2    0    0 -0.21035515318E+00  0.28752698402E+01 -0.17524678451E+03  0.17527049640E+03  0.00000000000E+00 0.  1.
        -15    1    1    2    0    0  0.30048142011E+01  0.25192305234E+01  0.23933550167E+02  0.24317647571E+02  0.17770000000E+01 0. -1.
         15    1    1    2    0    0  0.69619253450E+00 -0.18336995422E+01 -0.67601801540E+01  0.72598142380E+01  0.17770000000E+01 0. -1.
</event>
<event>
 6    1  0.1108180E-002  0.1843474E+03  0.7546771E-02  0.1066994E+00
        -11   -1    0    0    0    0  0.00000000000E+00  0.00000000000E+00  0.18250000000E+03  0.18250000000E+03  0.00000000000E+00 0.  1.
         11   -1    0    0    0    0 -0.00000000000E+00 -0.00000000000E+00 -0.18250000000E+03  0.18250000000E+03  0.00000000000E+00 0. -1.
        -11    1    1    2    0    0 -0.30788935398E+01  0.62263724263E+00  0.16372361766E+03  0.16375374879E+03  0.00000000000E+00 0.  1.
         11    1    1    2    0    0  0.50326545033E+01  0.34823594911E-01 -0.18058253052E+03  0.18065264779E+03  0.00000000000E+00 0. -1.
        -15    1    1    2    0    0 -0.59951455220E+01 -0.17329800900E+01  0.13381678227E+02  0.14871853651E+02  0.17770000000E+01 0. -1.
         15    1    1    2    0    0  0.40413845585E+01  0.10755192524E+01  0.34772346260E+01  0.57217497723E+01  0.17770000000E+01 0.  1.
</event>
<event>
 6    1  0.1108180E-002  0.1835578E+03  0.7546771E-02  0.1067616E+00
        -11   -1    0    0    0    0  0.00000000000E+00  0.00000000000E+00  0.18250000000E+03  0.18250000000E+03  0.00000000000E+00 0. -1.
         11   -1    0    0    0    0 -0.00000000000E+00 -0.00000000000E+00 -0.18250000000E+03  0.18250000000E+03  0.00000000000E+00 0.  1.
        -11    1    1    2    0    0 -0.44585916246E+01  0.40284864718E-01  0.17129844712E+03  0.17135646661E+03  0.00000000000E+00 0. -1.
         11    1    1    2    0    0  0.15551917119E+01 -0.35356071409E+01 -0.18140110136E+03  0.18144221867E+03  0.00000000000E+00 0.  1.
        -15    1    1    2    0    0  0.67652725116E+00  0.15376332931E+01  0.13555372862E+01  0.27959283968E+01  0.17770000000E+01 0.  1.
         15    1    1    2    0    0  0.22268726615E+01  0.19576889830E+01  0.87471169551E+01  0.94053863308E+01  0.17770000000E+01 0. -1.
</event>
<event>
 6    1  0.1108180E-002  0.1851898E+03  0.7546771E-02  0.1066334E+00
        -11   -1    0    0    0    0  0.00000000000E+00  0.00000000000E+00  0.18250000000E+03  0.18250000000E+03  0.00000000000E+00 0.  1.
         11   -1    0    0    0    0 -0.00000000000E+00 -0.00000000000E+00 -0.18250000000E+03  0.18250000000E+03  0.00000000000E+00 0.  1.
        -11    1    1    2    0    0  0.23743926951E+01  0.38399775393E+01  0.13178328824E+03  0.13186060150E+03  0.00000000000E+00 0.  1.
         11    1    1    2    0    0  0.46819776644E+01  0.38172846295E+01 -0.17970867488E+03  0.17981017881E+03  0.00000000000E+00 0.  1.
        -15    1    1    2    0    0 -0.34171492030E+01 -0.35568475037E+01  0.18890089618E+00  0.52460923923E+01  0.17770000000E+01 0.  1.
         15    1    1    2    0    0 -0.36392211565E+01 -0.41004146651E+01  0.47736485740E+02  0.48083127299E+02  0.17770000000E+01 0.  1.
</event>
<event>
 6    1  0.1108180E-002  0.1597972E+03  0.7546771E-02  0.1088116E+00
        -11   -1    0    0    0    0  0.00000000000E+00  0.00000000000E+00  0.18250000000E+03  0.18250000000E+03  0.00000000000E+00 0. -1.
         11   -1    0    0    0    0 -0.00000000000E+00 -0.00000000000E+00 -0.18250000000E+03  0.18250000000E+03  0.00000000000E+00 0.  1.
        -11    1    1    2    0    0  0.31553506016E+01 -0.36970008830E+00  0.16210666720E+03  0.16213779469E+03  0.00000000000E+00 0. -1.
         11    1    1    2    0    0  0.28093090723E+01  0.79292205745E+01 -0.15741151145E+03  0.15763612750E+03  0.00000000000E+00 0.  1.
        -15    1    1    2    0    0 -0.37680389779E+01  0.75658794540E+00 -0.23813388325E+02  0.24186891813E+02  0.17770000000E+01 0.  1.
         15    1    1    2    0    0 -0.21966206961E+01 -0.83161084316E+01  0.19118232567E+02  0.21039185997E+02  0.17770000000E+01 0. -1.
</event>
<event>
 6    1  0.1108180E-002  0.1825697E+03  0.7546771E-02  0.1068399E+00
        -11   -1    0    0    0    0  0.00000000000E+00  0.00000000000E+00  0.18250000000E+03  0.18250000000E+03  0.00000000000E+00 0. -1.
         11   -1    0    0    0    0 -0.00000000000E+00 -0.00000000000E+00 -0.18250000000E+03  0.18250000000E+03  0.00000000000E+00 0. -1.
        -11    1    1    2    0    0 -0.47300405264E+01  0.45125682967E+01  0.18231310930E+03  0.18243027813E+03  0.00000000000E+00 0. -1.
         11    1    1    2    0    0  0.30243488162E+00  0.73458529886E+00 -0.48453895503E+02  0.48460407261E+02  0.00000000000E+00 0. -1.
        -15    1    1    2    0    0  0.26157463727E+01 -0.11601303389E+01 -0.52356033539E+02  0.52464273639E+02  0.17770000000E+01 0.  1.
         15    1    1    2    0    0  0.18118592721E+01 -0.40870232567E+01 -0.81503180260E+02  0.81645040968E+02  0.17770000000E+01 0. -1.
</event>
<event>
 6    1  0.1108180E-002  0.1840886E+03  0.7546771E-02  0.1067197E+00
        -11   -1    0    0    0    0  0.00000000000E+00  0.00000000000E+00  0.18250000000E+03  0.18250000000E+03  0.00000000000E+00 0.  1.
         11   -1    0    0    0    0 -0.00000000000E+00 -0.00000000000E+00 -0.18250000000E+03  0.18250000000E+03  0.00000000000E+00 0. -1.
        -11    1    1    2    0    0 -0.73834578370E+00  0.26485299187E+01  0.18089054199E+03  0.18091143702E+03  0.00000000000E+00 0.  1.
         11    1    1    2    0    0 -0.27118763520E+01 -0.13160351385E+01 -0.10036540938E+03  0.10041066488E+03  0.00000000000E+00 0. -1.
        -15    1    1    2    0    0 -0.27440642559E+01 -0.25297471683E+00 -0.41887784569E+00  0.33056122727E+01  0.17770000000E+01 0.  1.
         15    1    1    2    0    0  0.61942863916E+01 -0.10795200634E+01 -0.80106254766E+02  0.80372285828E+02  0.17770000000E+01 0. -1.
</event>
<event>
 6    1  0.1108180E-002  0.1852202E+03  0.7546771E-02  0.1066310E+00
        -11   -1    0    0    0    0  0.00000000000E+00  0.00000000000E+00  0.18250000000E+03  0.18250000000E+03  0.00000000000E+00 0. -1.
         11   -1    0    0    0    0 -0.00000000000E+00 -0.00000000000E+00 -0.18250000000E+03  0.18250000000E+03  0.00000000000E+00 0. -1.
        -11    1    1    2    0    0 -0.15826389557E+00 -0.13701084807E+01  0.94366085157E+02  0.94376163688E+02  0.00000000000E+00 0. -1.
         11    1    1    2    0    0  0.25144592393E+01 -0.44246472971E+00 -0.17976164602E+03  0.17977977545E+03  0.00000000000E+00 0. -1.
        -15    1    1    2    0    0  0.64216883430E+01  0.12399435017E+01  0.21414666979E+01  0.71076824409E+01  0.17770000000E+01 0. -1.
         15    1    1    2    0    0 -0.87778836868E+01  0.57262970880E+00  0.83254094166E+02  0.83736378422E+02  0.17770000000E+01 0.  1.
</event>
<event>
 6    1  0.1108180E-002  0.1854624E+03  0.7546771E-02  0.1066121E+00
        -11   -1    0    0    0    0  0.00000000000E+00  0.00000000000E+00  0.18250000000E+03  0.18250000000E+03  0.00000000000E+00 0.  1.
         11   -1    0    0    0    0 -0.00000000000E+00 -0.00000000000E+00 -0.18250000000E+03  0.18250000000E+03  0.00000000000E+00 0. -1.
        -11    1    1    2    0    0  0.18905843915E+01  0.23842189513E+01  0.17951184598E+03  0.17953763299E+03  0.00000000000E+00 0.  1.
         11    1    1    2    0    0  0.31523207337E+01  0.12413282486E+00 -0.14476682605E+03  0.14480119633E+03  0.00000000000E+00 0. -1.
        -15    1    1    2    0    0 -0.12393775279E+02 -0.18604349540E+01 -0.15752348556E+02  0.20207946405E+02  0.17770000000E+01 0.  1.
         15    1    1    2    0    0  0.73508701535E+01 -0.64791682216E+00 -0.18992671378E+02  0.20453224276E+02  0.17770000000E+01 0. -1.
</event>
<event>
 6    1  0.1108180E-002  0.1844100E+03  0.7546771E-02  0.1066945E+00
        -11   -1    0    0    0    0  0.00000000000E+00  0.00000000000E+00  0.18250000000E+03  0.18250000000E+03  0.00000000000E+00 0. -1.
         11   -1    0    0    0    0 -0.00000000000E+00 -0.00000000000E+00 -0.18250000000E+03  0.18250000000E+03  0.00000000000E+00 0.  1.
        -11    1    1    2    0    0  0.25934801157E+01  0.65205967787E+01  0.18045359263E+03  0.18058998703E+03  0.00000000000E+00 0. -1.
         11    1    1    2    0    0  0.82565746005E+00 -0.51920443186E+01 -0.17512143039E+03  0.17520032653E+03  0.00000000000E+00 0.  1.
        -15    1    1    2    0    0 -0.41474329944E+01 -0.18427216329E+01 -0.18758699826E+01  0.52223979790E+01  0.17770000000E+01 0. -1.
         15    1    1    2    0    0  0.72829541859E+00  0.51416917280E+00 -0.34562922578E+01  0.39872884679E+01  0.17770000000E+01 0.  1.
</event>
<event>
 6    1  0.1108180E-002  0.1828377E+03  0.7546771E-02  0.1068186E+00
        -11   -1    0    0    0    0  0.00000000000E+00  0.00000000000E+00  0.18250000000E+03  0.18250000000E+03  0.00000000000E+00 0.  1.
         11   -1    0    0    0    0 -0.00000000000E+00 -0.00000000000E+00 -0.18250000000E+03  0.18250000000E+03  0.00000000000E+00 0. -1.
        -11    1    1    2    0    0 -0.19040423063E+01 -0.25119743412E+01  0.18213506026E+03  0.18216233301E+03  0.00000000000E+00 0.  1.
         11    1    1    2    0    0  0.14663852780E+00 -0.51229997164E+00 -0.33696377061E+02  0.33700590220E+02  0.00000000000E+00 0. -1.
        -15    1    1    2    0    0 -0.27584268740E+01 -0.69966513382E+00 -0.12004841857E+03  0.12009529125E+03  0.17770000000E+01 0. -1.
         15    1    1    2    0    0  0.45158306525E+01  0.37239394467E+01 -0.28390264630E+02  0.29041785521E+02  0.17770000000E+01 0. -1.
</event>
<event>
 6    1  0.1108180E-002  0.1857612E+03  0.7546771E-02  0.1065888E+00
        -11   -1    0    0    0    0  0.00000000000E+00  0.00000000000E+00  0.18250000000E+03  0.18250000000E+03  0.00000000000E+00 0.  1.
         11   -1    0    0    0    0 -0.00000000000E+00 -0.00000000000E+00 -0.18250000000E+03  0.18250000000E+03  0.00000000000E+00 0.  1.
        -11    1    1    2    0    0 -0.25920946209E+01 -0.37342444610E+01  0.17380725988E+03  0.17386669354E+03  0.00000000000E+00 0.  1.
         11    1    1    2    0    0 -0.12013988135E+01  0.35293578750E+01 -0.17920005524E+03  0.17923883375E+03  0.00000000000E+00 0.  1.
        -15    1    1    2    0    0 -0.13801209952E+01 -0.28083380919E+01 -0.66987315288E-01  0.35991267136E+01  0.17770000000E+01 0. -1.
         15    1    1    2    0    0  0.51736144296E+01  0.30132246779E+01  0.54597826825E+01  0.82953459944E+01  0.17770000000E+01 0.  1.
</event>
<event>
 6    1  0.1108180E-002  0.2076473E+03  0.7546771E-02  0.1050032E+00
        -11   -1    0    0    0    0  0.00000000000E+00  0.00000000000E+00  0.18250000000E+03  0.18250000000E+03  0.00000000000E+00 0.  1.
         11   -1    0    0    0    0 -0.00000000000E+00 -0.00000000000E+00 -0.18250000000E+03  0.18250000000E+03  0.00000000000E+00 0.  1.
        -11    1    1    2    0    0  0.78915864234E+01 -0.15755069329E+02  0.15636297675E+03  0.15735272430E+03  0.00000000000E+00 0.  1.
         11    1    1    2    0    0 -0.10334305610E+02 -0.21443789812E+01 -0.11363917290E+03  0.11412825177E+03  0.00000000000E+00 0.  1.
        -15    1    1    2    0    0  0.97250532592E+01  0.38444783957E+02  0.59675614796E+01  0.40141594305E+02  0.17770000000E+01 0. -1.
         15    1    1    2    0    0 -0.72823340725E+01 -0.20545335646E+02 -0.48691365333E+02  0.53377429625E+02  0.17770000000E+01 0.  1.
</event>
<event>
 6    1  0.1108180E-002  0.1854379E+03  0.7546771E-02  0.1066140E+00
        -11   -1    0    0    0    0  0.00000000000E+00  0.00000000000E+00  0.18250000000E+03  0.18250000000E+03  0.00000000000E+00 0.  1.
         11   -1    0    0    0    0 -0.00000000000E+00 -0.00000000000E+00 -0.18250000000E+03  0.18250000000E+03  0.00000000000E+00 0.  1.
        -11    1    1    2    0    0  0.56171569803E+01 -0.18118168684E+01  0.17946504113E+03  0.17956206760E+03  0.00000000000E+00 0.  1.
         11    1    1    2    0    0  0.12560469818E+01  0.20795317601E+01 -0.16511926953E+03  0.16513714082E+03  0.00000000000E+00 0.  1.
        -15    1    1    2    0    0 -0.58668763559E+01  0.17974105288E+01 -0.78935127973E+00  0.64367481873E+01  0.17770000000E+01 0. -1.
         15    1    1    2    0    0 -0.10063276062E+01 -0.20651254205E+01 -0.13556420321E+02  0.13864043392E+02  0.17770000000E+01 0.  1.
</event>
<event>
 6    1  0.1108180E-002  0.1827625E+03  0.7546771E-02  0.1068246E+00
        -11   -1    0    0    0    0  0.00000000000E+00  0.00000000000E+00  0.18250000000E+03  0.18250000000E+03  0.00000000000E+00 0.  1.
         11   -1    0    0    0    0 -0.00000000000E+00 -0.00000000000E+00 -0.18250000000E+03  0.18250000000E+03  0.00000000000E+00 0. -1.
        -11    1    1    2    0    0 -0.19916720384E+01  0.99271304180E+00  0.15318607903E+03  0.15320224230E+03  0.00000000000E+00 0.  1.
         11    1    1    2    0    0  0.26547437705E+01  0.94504773717E+00 -0.18221566194E+03  0.18223745015E+03  0.00000000000E+00 0. -1.
        -15    1    1    2    0    0 -0.21848294723E+01 -0.12442369888E+01  0.18259111912E+02  0.18516870748E+02  0.17770000000E+01 0.  1.
         15    1    1    2    0    0  0.15217577402E+01 -0.69352379018E+00  0.10770470997E+02  0.11043436800E+02  0.17770000000E+01 0. -1.
</event>
<event>
 6    1  0.1108180E-002  0.1864924E+03  0.7546771E-02  0.1065321E+00
        -11   -1    0    0    0    0  0.00000000000E+00  0.00000000000E+00  0.18250000000E+03  0.18250000000E+03  0.00000000000E+00 0. -1.
         11   -1    0    0    0    0 -0.00000000000E+00 -0.00000000000E+00 -0.18250000000E+03  0.18250000000E+03  0.00000000000E+00 0. -1.
        -11    1    1    2    0    0 -0.27121329123E+01  0.57789922509E+00  0.17170686152E+03  0.17172925181E+03  0.00000000000E+00 0. -1.
         11    1    1    2    0    0  0.26158164135E+01 -0.35441172716E+01 -0.17845326455E+03  0.17850762139E+03  0.00000000000E+00 0. -1.
        -15    1    1    2    0    0 -0.60373929587E+01  0.65414418278E+00  0.35759751333E+01  0.72679670818E+01  0.17770000000E+01 0. -1.
         15    1    1    2    0    0  0.61337094575E+01  0.23120738637E+01  0.31704278991E+01  0.74951597263E+01  0.17770000000E+01 0.  1.
</event>
<event>
 6    1  0.1108180E-002  0.1856080E+03  0.7546771E-02  0.1066007E+00
        -11   -1    0    0    0    0  0.00000000000E+00  0.00000000000E+00  0.18250000000E+03  0.18250000000E+03  0.00000000000E+00 0.  1.
         11   -1    0    0    0    0 -0.00000000000E+00 -0.00000000000E+00 -0.18250000000E+03  0.18250000000E+03  0.00000000000E+00 0.  1.
        -11    1    1    2    0    0  0.21409898134E+01  0.11384480272E+01  0.17937557633E+03  0.17939196549E+03  0.00000000000E+00 0.  1.
         11    1    1    2    0    0 -0.54529185466E+01  0.15264221344E+01 -0.16804197646E+03  0.16813735498E+03  0.00000000000E+00 0.  1.
        -15    1    1    2    0    0 -0.12594124300E+01 -0.19860284488E+01  0.17869725442E+01  0.34469448127E+01  0.17770000000E+01 0. -1.
         15    1    1    2    0    0  0.45713411632E+01 -0.67884171284E+00 -0.13120572406E+02  0.14023734715E+02  0.17770000000E+01 0.  1.
</event>
<event>
 6    1  0.1108180E-002  0.1795434E+03  0.7546771E-02  0.1070833E+00
        -11   -1    0    0    0    0  0.00000000000E+00  0.00000000000E+00  0.18250000000E+03  0.18250000000E+03  0.00000000000E+00 0.  1.
         11   -1    0    0    0    0 -0.00000000000E+00 -0.00000000000E+00 -0.18250000000E+03  0.18250000000E+03  0.00000000000E+00 0. -1.
        -11    1    1    2    0    0 -0.24891602674E+01  0.30762470644E+01  0.17893921224E+03  0.17898296258E+03  0.00000000000E+00 0.  1.
         11    1    1    2    0    0 -0.10134662262E+01 -0.23088520880E+01 -0.18010597138E+03  0.18012362099E+03  0.00000000000E+00 0. -1.
        -15    1    1    2    0    0  0.20728033169E+01 -0.18026877037E+01  0.69032374549E+00  0.33437213432E+01  0.17770000000E+01 0. -1.
         15    1    1    2    0    0  0.14298231768E+01  0.10352927274E+01  0.47643539618E+00  0.25496950867E+01  0.17770000000E+01 0.  1.
</event>
<event>
 6    1  0.1108180E-002  0.1871947E+03  0.7546771E-02  0.1064778E+00
        -11   -1    0    0    0    0  0.00000000000E+00  0.00000000000E+00  0.18250000000E+03  0.18250000000E+03  0.00000000000E+00 0. -1.
         11   -1    0    0    0    0 -0.00000000000E+00 -0.00000000000E+00 -0.18250000000E+03  0.18250000000E+03  0.00000000000E+00 0. -1.
        -11    1    1    2    0    0 -0.21962052970E+01 -0.14382466153E+00  0.71700674139E+02  0.71734445528E+02  0.00000000000E+00 0. -1.
         11    1    1    2    0    0 -0.15427902465E+01 -0.84513090154E+01 -0.17759758692E+03  0.17780525218E+03  0.00000000000E+00 0. -1.
        -15    1    1    2    0    0 -0.47284234436E+00  0.84997914064E+01  0.10937203755E+03  0.10971722909E+03  0.17770000000E+01 0. -1.
         15    1    1    2    0    0  0.42118378879E+01  0.95342270567E-01 -0.34751247708E+01  0.57430731943E+01  0.17770000000E+01 0. -1.
</event>
<event>
 6    1  0.1108180E-002  0.1826731E+03  0.7546771E-02  0.1068317E+00
        -11   -1    0    0    0    0  0.00000000000E+00  0.00000000000E+00  0.18250000000E+03  0.18250000000E+03  0.00000000000E+00 0.  1.
         11   -1    0    0    0    0 -0.00000000000E+00 -0.00000000000E+00 -0.18250000000E+03  0.18250000000E+03  0.00000000000E+00 0. -1.
        -11    1    1    2    0    0 -0.18562032906E+01  0.64765387280E+00  0.11265993081E+03  0.11267708265E+03  0.00000000000E+00 0.  1.
         11    1    1    2    0    0  0.10392570639E+01  0.37145703768E+01 -0.18228610663E+03  0.18232691178E+03  0.00000000000E+00 0. -1.
        -15    1    1    2    0    0 -0.41940019729E+00 -0.13395198899E+01  0.99633828767E+01  0.10217481950E+02  0.17770000000E+01 0. -1.
         15    1    1    2    0    0  0.12363464240E+01 -0.30227043596E+01  0.59662792949E+02  0.59778523615E+02  0.17770000000E+01 0.  1.
</event>
<event>
 6    1  0.1108180E-002  0.1843098E+03  0.7546771E-02  0.1067023E+00
        -11   -1    0    0    0    0  0.00000000000E+00  0.00000000000E+00  0.18250000000E+03  0.18250000000E+03  0.00000000000E+00 0.  1.
         11   -1    0    0    0    0 -0.00000000000E+00 -0.00000000000E+00 -0.18250000000E+03  0.18250000000E+03  0.00000000000E+00 0. -1.
        -11    1    1    2    0    0  0.50308882064E+01 -0.36437594131E+01  0.18058335089E+03  0.18069015866E+03  0.00000000000E+00 0.  1.
         11    1    1    2    0    0 -0.21979839076E+01  0.22545714902E+01 -0.15652602197E+03  0.15655768834E+03  0.00000000000E+00 0. -1.
        -15    1    1    2    0    0 -0.27530092776E+01  0.29640721761E+01 -0.94540495210E+00  0.45184403804E+01  0.17770000000E+01 0.  1.
         15    1    1    2    0    0 -0.79895021183E-01 -0.15748842532E+01 -0.23111923966E+02  0.23233712619E+02  0.17770000000E+01 0. -1.
</event>
<event>
 6    1  0.1108180E-002  0.1833950E+03  0.7546771E-02  0.1067745E+00
        -11   -1    0    0    0    0  0.00000000000E+00  0.00000000000E+00  0.18250000000E+03  0.18250000000E+03  0.00000000000E+00 0.  1.
         11   -1    0    0    0    0 -0.00000000000E+00 -0.00000000000E+00 -0.18250000000E+03  0.18250000000E+03  0.00000000000E+00 0.  1.
        -11    1    1    2    0    0  0.13502369675E+01  0.28514132653E+01  0.18157762686E+03  0.18160503372E+03  0.00000000000E+00 0.  1.
         11    1    1    2    0    0  0.23196080488E+01  0.14307237890E+00 -0.14861945623E+03  0.14863762586E+03  0.00000000000E+00 0.  1.
        -15    1    1    2    0    0  0.27874694535E+01 -0.17156351560E+01 -0.17006604542E+02  0.17409644367E+02  0.17770000000E+01 0. -1.
         15    1    1    2    0    0 -0.64573144698E+01 -0.12788504882E+01 -0.15951566087E+02  0.17347696053E+02  0.17770000000E+01 0.  1.
</event>
<event>
 6    1  0.1108180E-002  0.1866527E+03  0.7546771E-02  0.1065196E+00
        -11   -1    0    0    0    0  0.00000000000E+00  0.00000000000E+00  0.18250000000E+03  0.18250000000E+03  0.00000000000E+00 0.  1.
         11   -1    0    0    0    0 -0.00000000000E+00 -0.00000000000E+00 -0.18250000000E+03  0.18250000000E+03  0.00000000000E+00 0.  1.
        -11    1    1    2    0    0  0.58752555068E+00  0.45049696615E+01  0.17828938156E+03  0.17834725541E+03  0.00000000000E+00 0.  1.
         11    1    1    2    0    0  0.11996271813E+01  0.13402698611E+01 -0.12240403100E+03  0.12241724647E+03  0.00000000000E+00 0.  1.
        -15    1    1    2    0    0  0.30205389994E+01 -0.40342284722E+01 -0.58114798103E+02  0.58359970380E+02  0.17770000000E+01 0.  1.
         15    1    1    2    0    0 -0.48076917314E+01 -0.18110110503E+01  0.22294475460E+01  0.58755277354E+01  0.17770000000E+01 0. -1.
</event>
<event>
 6    1  0.1108180E-002  0.1863431E+03  0.7546771E-02  0.1065436E+00
        -11   -1    0    0    0    0  0.00000000000E+00  0.00000000000E+00  0.18250000000E+03  0.18250000000E+03  0.00000000000E+00 0.  1.
         11   -1    0    0    0    0 -0.00000000000E+00 -0.00000000000E+00 -0.18250000000E+03  0.18250000000E+03  0.00000000000E+00 0. -1.
        -11    1    1    2    0    0 -0.33440732214E+01  0.48361232908E+01  0.17856012633E+03  0.17865690479E+03  0.00000000000E+00 0.  1.
         11    1    1    2    0    0  0.13775604714E+01  0.17233603722E+01 -0.16069336758E+03  0.16070851262E+03  0.00000000000E+00 0. -1.
        -15    1    1    2    0    0 -0.93779773161E+00 -0.59276396545E+01  0.10995116361E+01  0.63547644564E+01  0.17770000000E+01 0. -1.
         15    1    1    2    0    0  0.29043104816E+01 -0.63184400852E+00 -0.18966270384E+02  0.19279818140E+02  0.17770000000E+01 0.  1.
</event>
<event>
 6    1  0.1108180E-002  0.1827044E+03  0.7546771E-02  0.1068292E+00
        -11   -1    0    0    0    0  0.00000000000E+00  0.00000000000E+00  0.18250000000E+03  0.18250000000E+03  0.00000000000E+00 0. -1.
         11   -1    0    0    0    0 -0.00000000000E+00 -0.00000000000E+00 -0.18250000000E+03  0.18250000000E+03  0.00000000000E+00 0.  1.
        -11    1    1    2    0    0  0.17302683345E+00 -0.18195633552E+01  0.10831215610E+03  0.10832757686E+03  0.00000000000E+00 0. -1.
         11    1    1    2    0    0 -0.33847387360E+01 -0.89986138148E+00 -0.18226193282E+03  0.18229557966E+03  0.00000000000E+00 0.  1.
        -15    1    1    2    0    0  0.46663204729E+01  0.25324879601E+01  0.56189428421E+02  0.56467668956E+02  0.17770000000E+01 0.  1.
         15    1    1    2    0    0 -0.14546085703E+01  0.18693677656E+00  0.17760348297E+02  0.17909174523E+02  0.17770000000E+01 0. -1.
</event>
<event>
 6    1  0.1108180E-002  0.1886667E+03  0.7546771E-02  0.1063649E+00
        -11   -1    0    0    0    0  0.00000000000E+00  0.00000000000E+00  0.18250000000E+03  0.18250000000E+03  0.00000000000E+00 0.  1.
         11   -1    0    0    0    0 -0.00000000000E+00 -0.00000000000E+00 -0.18250000000E+03  0.18250000000E+03  0.00000000000E+00 0. -1.
        -11    1    1    2    0    0  0.23154578976E+01  0.30578390729E+01  0.13449430859E+03  0.13454899022E+03  0.00000000000E+00 0.  1.
         11    1    1    2    0    0 -0.12949627861E+02  0.13543511007E+02 -0.17533481373E+03  0.17633325398E+03  0.00000000000E+00 0. -1.
        -15    1    1    2    0    0 -0.10003333368E+02 -0.42634503937E+01  0.16638721693E+02  0.19956163868E+02  0.17770000000E+01 0.  1.
         15    1    1    2    0    0  0.20637503332E+02 -0.12337899686E+02  0.24201783450E+02  0.34161591936E+02  0.17770000000E+01 0.  1.
</event>
<event>
 6    1  0.1108180E-002  0.1934964E+03  0.7546771E-02  0.1060024E+00
        -11   -1    0    0    0    0  0.00000000000E+00  0.00000000000E+00  0.18250000000E+03  0.18250000000E+03  0.00000000000E+00 0.  1.
         11   -1    0    0    0    0 -0.00000000000E+00 -0.00000000000E+00 -0.18250000000E+03  0.18250000000E+03  0.00000000000E+00 0.  1.
        -11    1    1    2    0    0 -0.10738761201E+01  0.75545403712E+01  0.17133381483E+03  0.17150364543E+03  0.00000000000E+00 0.  1.
         11    1    1    2    0    0 -0.15899594266E+01  0.44042389219E+01 -0.15946880753E+03  0.15953753748E+03  0.00000000000E+00 0.  1.
        -15    1    1    2    0    0  0.52999067405E+01 -0.33953326243E+01  0.90327310619E+01  0.11151917078E+02  0.17770000000E+01 0. -1.
         15    1    1    2    0    0 -0.26360711937E+01 -0.85634466688E+01 -0.20897738366E+02  0.22806900008E+02  0.17770000000E+01 0. -1.
</event>
<event>
 6    1  0.1108180E-002  0.1860887E+03  0.7546771E-02  0.1065634E+00
        -11   -1    0    0    0    0  0.00000000000E+00  0.00000000000E+00  0.18250000000E+03  0.18250000000E+03  0.00000000000E+00 0. -1.
         11   -1    0    0    0    0 -0.00000000000E+00 -0.00000000000E+00 -0.18250000000E+03  0.18250000000E+03  0.00000000000E+00 0.  1.
        -11    1    1    2    0    0 -0.26942231580E+01 -0.18168933026E+01  0.17888179618E+03  0.17891131028E+03  0.00000000000E+00 0. -1.
         11    1    1    2    0    0  0.11194674770E+01 -0.57832279350E+01 -0.16614636635E+03  0.16625075634E+03  0.00000000000E+00 0.  1.
        -15    1    1    2    0    0  0.38007431284E+01  0.14298278118E+01  0.97235351779E+00  0.45379793150E+01  0.17770000000E+01 0.  1.
         15    1    1    2    0    0 -0.22259874475E+01  0.61702934257E+01 -0.13707783346E+02  0.15299954063E+02  0.17770000000E+01 0.  1.
</event>
<event>
 6    1  0.1108180E-002  0.1834577E+03  0.7546771E-02  0.1067695E+00
        -11   -1    0    0    0    0  0.00000000000E+00  0.00000000000E+00  0.18250000000E+03  0.18250000000E+03  0.00000000000E+00 0. -1.
         11   -1    0    0    0    0 -0.00000000000E+00 -0.00000000000E+00 -0.18250000000E+03  0.18250000000E+03  0.00000000000E+00 0. -1.
        -11    1    1    2    0    0 -0.28954213539E+00  0.39648738416E+01  0.18149881091E+03  0.18154234333E+03  0.00000000000E+00 0. -1.
         11    1    1    2    0    0  0.82645577032E-01 -0.26860736006E+01 -0.15822579776E+03  0.15824861737E+03  0.00000000000E+00 0. -1.
        -15    1    1    2    0    0  0.25405085490E+01  0.75047166636E+00 -0.20347481011E+02  0.20595997278E+02  0.17770000000E+01 0. -1.
         15    1    1    2    0    0 -0.23336119906E+01 -0.20292719074E+01 -0.29255321412E+01  0.46130420230E+01  0.17770000000E+01 0.  1.
</event>
<event>
 6    1  0.1108180E-002  0.1442156E+03  0.7546771E-02  0.1103813E+00
        -11   -1    0    0    0    0  0.00000000000E+00  0.00000000000E+00  0.18250000000E+03  0.18250000000E+03  0.00000000000E+00 0. -1.
         11   -1    0    0    0    0 -0.00000000000E+00 -0.00000000000E+00 -0.18250000000E+03  0.18250000000E+03  0.00000000000E+00 0.  1.
        -11    1    1    2    0    0 -0.16482443871E+01  0.14130445291E+01  0.15356010263E+03  0.15357544896E+03  0.00000000000E+00 0. -1.
         11    1    1    2    0    0  0.22332124294E+02  0.29569308632E+02 -0.13291478636E+03  0.13798336212E+03  0.00000000000E+00 0.  1.
        -15    1    1    2    0    0 -0.17902790829E+02 -0.22366129664E+02 -0.41601918445E+02  0.50543357851E+02  0.17770000000E+01 0.  1.
         15    1    1    2    0    0 -0.27810890777E+01 -0.86162234973E+01  0.20956602180E+02  0.22897831071E+02  0.17770000000E+01 0. -1.
</event>
<event>
 6    1  0.1108180E-002  0.1844540E+03  0.7546771E-02  0.1066910E+00
        -11   -1    0    0    0    0  0.00000000000E+00  0.00000000000E+00  0.18250000000E+03  0.18250000000E+03  0.00000000000E+00 0.  1.
         11   -1    0    0    0    0 -0.00000000000E+00 -0.00000000000E+00 -0.18250000000E+03  0.18250000000E+03  0.00000000000E+00 0. -1.
        -11    1    1    2    0    0  0.20288730003E+01  0.40080387181E+01  0.18049005579E+03  0.18054595243E+03  0.00000000000E+00 0.  1.
         11    1    1    2    0    0 -0.99434903120E+00 -0.25657265559E+01 -0.14711957423E+03  0.14714530508E+03  0.00000000000E+00 0. -1.
        -15    1    1    2    0    0  0.11454057700E+01  0.45809132169E+01 -0.23171963510E+01  0.55519229288E+01  0.17770000000E+01 0.  1.
         15    1    1    2    0    0 -0.21799297391E+01 -0.60232253790E+01 -0.31053285207E+02  0.31756819563E+02  0.17770000000E+01 0. -1.
</event>
<event>
 6    1  0.1108180E-002  0.1893699E+03  0.7546771E-02  0.1063114E+00
        -11   -1    0    0    0    0  0.00000000000E+00  0.00000000000E+00  0.18250000000E+03  0.18250000000E+03  0.00000000000E+00 0. -1.
         11   -1    0    0    0    0 -0.00000000000E+00 -0.00000000000E+00 -0.18250000000E+03  0.18250000000E+03  0.00000000000E+00 0.  1.
        -11    1    1    2    0    0 -0.93491979025E+01 -0.46642661078E+01  0.16799011918E+03  0.16831471421E+03  0.00000000000E+00 0. -1.
         11    1    1    2    0    0 -0.19847537109E+01  0.29730591588E+01 -0.17559369309E+03  0.17563007539E+03  0.00000000000E+00 0.  1.
        -15    1    1    2    0    0  0.40628749238E+01  0.50076805640E-01  0.11595695704E+02  0.12414803591E+02  0.17770000000E+01 0. -1.
         15    1    1    2    0    0  0.72710766896E+01  0.16411301434E+01 -0.39921217858E+01  0.86404068033E+01  0.17770000000E+01 0.  1.
</event>
<event>
 6    1  0.1108180E-002  0.1861818E+03  0.7546771E-02  0.1065561E+00
        -11   -1    0    0    0    0  0.00000000000E+00  0.00000000000E+00  0.18250000000E+03  0.18250000000E+03  0.00000000000E+00 0.  1.
         11   -1    0    0    0    0 -0.00000000000E+00 -0.00000000000E+00 -0.18250000000E+03  0.18250000000E+03  0.00000000000E+00 0. -1.
        -11    1    1    2    0    0  0.17309967089E+01 -0.37592536932E+01  0.14525165039E+03  0.14531059933E+03  0.00000000000E+00 0.  1.
         11    1    1    2    0    0  0.20552951977E+01 -0.39504931198E+01 -0.17876274937E+03  0.17881820711E+03  0.00000000000E+00 0. -1.
        -15    1    1    2    0    0 -0.59575263046E+01  0.62369485272E+01  0.17825630265E+01  0.89848153316E+01  0.17770000000E+01 0. -1.
         15    1    1    2    0    0  0.21712343979E+01  0.14727982859E+01  0.31728535949E+02  0.31886378221E+02  0.17770000000E+01 0.  1.
</event>
<event>
 6    1  0.1108180E-002  0.1981973E+03  0.7546771E-02  0.1056604E+00
        -11   -1    0    0    0    0  0.00000000000E+00  0.00000000000E+00  0.18250000000E+03  0.18250000000E+03  0.00000000000E+00 0. -1.
         11   -1    0    0    0    0 -0.00000000000E+00 -0.00000000000E+00 -0.18250000000E+03  0.18250000000E+03  0.00000000000E+00 0. -1.
        -11    1    1    2    0    0  0.19656648497E+01 -0.14022369069E+01  0.16678525020E+03  0.16680272717E+03  0.00000000000E+00 0. -1.
         11    1    1    2    0    0  0.27612769536E+01  0.10850058286E+01 -0.15888002798E+03  0.15890772536E+03  0.00000000000E+00 0. -1.
        -15    1    1    2    0    0 -0.12334720663E+02  0.74209743576E+00 -0.20769522046E+02  0.24232763306E+02  0.17770000000E+01 0.  1.
         15    1    1    2    0    0  0.76077788599E+01 -0.42486635745E+00  0.12864299818E+02  0.15056784166E+02  0.17770000000E+01 0. -1.
</event>
<event>
 6    1  0.1108180E-002  0.1875054E+03  0.7546771E-02  0.1064539E+00
        -11   -1    0    0    0    0  0.00000000000E+00  0.00000000000E+00  0.18250000000E+03  0.18250000000E+03  0.00000000000E+00 0.  1.
         11   -1    0    0    0    0 -0.00000000000E+00 -0.00000000000E+00 -0.18250000000E+03  0.18250000000E+03  0.00000000000E+00 0. -1.
        -11    1    1    2    0    0 -0.35591143373E+01  0.59870069617E+00  0.13840074099E+03  0.13844779104E+03  0.00000000000E+00 0.  1.
         11    1    1    2    0    0 -0.26654746659E+01  0.14193500688E+01 -0.17746891712E+03  0.17749460795E+03  0.00000000000E+00 0. -1.
        -15    1    1    2    0    0 -0.27357162500E+01  0.35438852469E+01 -0.29844052729E+01  0.56663630202E+01  0.17770000000E+01 0. -1.
         15    1    1    2    0    0  0.89603052532E+01 -0.55619360119E+01  0.42052581401E+02  0.43391237985E+02  0.17770000000E+01 0.  1.
</event>
<event>
 6    1  0.1108180E-002  0.1842310E+03  0.7546771E-02  0.1067085E+00
        -11   -1    0    0    0    0  0.00000000000E+00  0.00000000000E+00  0.18250000000E+03  0.18250000000E+03  0.00000000000E+00 0.  1.
         11   -1    0    0    0    0 -0.00000000000E+00 -0.00000000000E+00 -0.18250000000E+03  0.18250000000E+03  0.00000000000E+00 0.  1.
        -11    1    1    2    0    0 -0.34758842617E+01  0.86312226009E+00  0.18073355128E+03  0.18076903305E+03  0.00000000000E+00 0.  1.
         11    1    1    2    0    0  0.11098048467E+01 -0.54849185919E+01 -0.97017249235E+02  0.97178509187E+02  0.00000000000E+00 0.  1.
        -15    1    1    2    0    0  0.46618532374E+01  0.70684458985E+01 -0.99374338806E+01  0.13175967674E+02  0.17770000000E+01 0.  1.
         15    1    1    2    0    0 -0.22957738224E+01 -0.24466495667E+01 -0.73778868163E+02  0.73876490090E+02  0.17770000000E+01 0. -1.
</event>
<event>
 6    1  0.1108180E-002  0.1826470E+03  0.7546771E-02  0.1068338E+00
        -11   -1    0    0    0    0  0.00000000000E+00  0.00000000000E+00  0.18250000000E+03  0.18250000000E+03  0.00000000000E+00 0. -1.
         11   -1    0    0    0    0 -0.00000000000E+00 -0.00000000000E+00 -0.18250000000E+03  0.18250000000E+03  0.00000000000E+00 0.  1.
        -11    1    1    2    0    0 -0.33907086880E+01  0.19391957123E+01  0.18231116273E+03  0.18235300229E+03  0.00000000000E+00 0. -1.
         11    1    1    2    0    0 -0.14929645021E+01  0.15863034279E+01 -0.54732264327E+02  0.54775597303E+02  0.00000000000E+00 0.  1.
        -15    1    1    2    0    0  0.18099714142E+00  0.82814004112E+00 -0.33416363075E+02  0.33474312929E+02  0.17770000000E+01 0.  1.
         15    1    1    2    0    0  0.47026760487E+01 -0.43536391813E+01 -0.94162535332E+02  0.94397087483E+02  0.17770000000E+01 0.  1.
</event>
<event>
 6    1  0.1711838E-002  0.1831742E+03  0.7546771E-02  0.1067919E+00
        -11   -1    0    0    0    0  0.00000000000E+00  0.00000000000E+00  0.18250000000E+03  0.18250000000E+03  0.00000000000E+00 0.  1.
         11   -1    0    0    0    0 -0.00000000000E+00 -0.00000000000E+00 -0.18250000000E+03  0.18250000000E+03  0.00000000000E+00 0.  1.
        -11    1    1    2    0    0  0.42842234374E+01 -0.19234382948E+01  0.18176514145E+03  0.18182579804E+03  0.00000000000E+00 0.  1.
         11    1    1    2    0    0 -0.29850226290E+01 -0.19662364547E+01 -0.54531228113E+02  0.54648250525E+02  0.00000000000E+00 0.  1.
        -15    1    1    2    0    0 -0.37960808867E+01  0.17453913443E+01 -0.77391885865E+01  0.89727024926E+01  0.17770000000E+01 0.  1.
         15    1    1    2    0    0  0.24968800784E+01  0.21442834053E+01 -0.11949472475E+03  0.11955324895E+03  0.17770000000E+01 0.  1.
</event>
<event>
 6    1  0.1108180E-002  0.1984351E+03  0.7546771E-02  0.1056434E+00
        -11   -1    0    0    0    0  0.00000000000E+00  0.00000000000E+00  0.18250000000E+03  0.18250000000E+03  0.00000000000E+00 0. -1.
         11   -1    0    0    0    0 -0.00000000000E+00 -0.00000000000E+00 -0.18250000000E+03  0.18250000000E+03  0.00000000000E+00 0.  1.
        -11    1    1    2    0    0  0.38658530268E+01  0.22204388902E+01  0.14516014658E+03  0.14522858990E+03  0.00000000000E+00 0. -1.
         11    1    1    2    0    0 -0.17977046752E+01  0.23328055790E+01 -0.16653883584E+03  0.16656487495E+03  0.00000000000E+00 0.  1.
        -15    1    1    2    0    0  0.71952688047E+01 -0.17689135386E+01 -0.14296673918E+02  0.16200418587E+02  0.17770000000E+01 0.  1.
         15    1    1    2    0    0 -0.92634171563E+01 -0.27843309305E+01  0.35675363176E+02  0.37006116560E+02  0.17770000000E+01 0. -1.
</event>
<event>
 6    1  0.1108180E-002  0.1851423E+03  0.7546771E-02  0.1066371E+00
        -11   -1    0    0    0    0  0.00000000000E+00  0.00000000000E+00  0.18250000000E+03  0.18250000000E+03  0.00000000000E+00 0. -1.
         11   -1    0    0    0    0 -0.00000000000E+00 -0.00000000000E+00 -0.18250000000E+03  0.18250000000E+03  0.00000000000E+00 0. -1.
        -11    1    1    2    0    0 -0.43808188531E+01 -0.27490672511E+01  0.16940848017E+03  0.16948740985E+03  0.00000000000E+00 0. -1.
         11    1    1    2    0    0 -0.15378542931E+01 -0.28899403333E+01 -0.17982792578E+03  0.17985772055E+03  0.00000000000E+00 0. -1.
        -15    1    1    2    0    0  0.43892240550E+01  0.42179637294E+01  0.11141492352E+02  0.12819792769E+02  0.17770000000E+01 0. -1.
         15    1    1    2    0    0  0.15294490912E+01  0.14210438550E+01 -0.72204674313E+00  0.28350768349E+01  0.17770000000E+01 0.  1.
</event>
<event>
 6    1  0.1108180E-002  0.1826085E+03  0.7546771E-02  0.1068368E+00
        -11   -1    0    0    0    0  0.00000000000E+00  0.00000000000E+00  0.18250000000E+03  0.18250000000E+03  0.00000000000E+00 0. -1.
         11   -1    0    0    0    0 -0.00000000000E+00 -0.00000000000E+00 -0.18250000000E+03  0.18250000000E+03  0.00000000000E+00 0.  1.
        -11    1    1    2    0    0 -0.23652425538E+01  0.18372465433E+01  0.18236687273E+03  0.18239146393E+03  0.00000000000E+00 0. -1.
         11    1    1    2    0    0 -0.93040386452E+00 -0.66434171560E+00 -0.43316298898E+02  0.43331382986E+02  0.00000000000E+00 0.  1.
        -15    1    1    2    0    0  0.92281671599E+00 -0.38551913444E-01 -0.10609467086E+02  0.10796832766E+02  0.17770000000E+01 0. -1.
         15    1    1    2    0    0  0.23728297023E+01 -0.11343529143E+01 -0.12844110674E+03  0.12848032031E+03  0.17770000000E+01 0.  1.
</event>
<event>
 6    1  0.1108180E-002  0.1872334E+03  0.7546771E-02  0.1064748E+00
        -11   -1    0    0    0    0  0.00000000000E+00  0.00000000000E+00  0.18250000000E+03  0.18250000000E+03  0.00000000000E+00 0.  1.
         11   -1    0    0    0    0 -0.00000000000E+00 -0.00000000000E+00 -0.18250000000E+03  0.18250000000E+03  0.00000000000E+00 0.  1.
        -11    1    1    2    0    0 -0.10034739171E+01  0.11077128152E+01  0.95358909114E+02  0.95370621970E+02  0.00000000000E+00 0.  1.
         11    1    1    2    0    0 -0.24750441704E+01  0.18416345136E+01 -0.17773982659E+03  0.17776659815E+03  0.00000000000E+00 0.  1.
        -15    1    1    2    0    0 -0.48123877012E+01 -0.38973887168E+01  0.83054682996E+02  0.83304182433E+02  0.17770000000E+01 0.  1.
         15    1    1    2    0    0  0.82909057887E+01  0.94804138798E+00 -0.67376551929E+00  0.85585974461E+01  0.17770000000E+01 0.  1.
</event>
<event>
 6    1  0.1108180E-002  0.1830462E+03  0.7546771E-02  0.1068021E+00
        -11   -1    0    0    0    0  0.00000000000E+00  0.00000000000E+00  0.18250000000E+03  0.18250000000E+03  0.00000000000E+00 0.  1.
         11   -1    0    0    0    0 -0.00000000000E+00 -0.00000000000E+00 -0.18250000000E+03  0.18250000000E+03  0.00000000000E+00 0.  1.
        -11    1    1    2    0    0  0.16013298805E+01 -0.25279482949E+01  0.18192923335E+03  0.18195384229E+03  0.00000000000E+00 0.  1.
         11    1    1    2    0    0  0.25697114192E+01  0.21597731809E+01 -0.16362111383E+03  0.16365554353E+03  0.00000000000E+00 0.  1.
        -15    1    1    2    0    0 -0.30651492740E+01  0.92863982483E+00 -0.14965248200E+02  0.15406943068E+02  0.17770000000E+01 0.  1.
         15    1    1    2    0    0 -0.11058920257E+01 -0.56046471085E+00 -0.33428713119E+01  0.39836711050E+01  0.17770000000E+01 0.  1.
</event>
<event>
 6    1  0.1108180E-002  0.1832279E+03  0.7546771E-02  0.1067877E+00
        -11   -1    0    0    0    0  0.00000000000E+00  0.00000000000E+00  0.18250000000E+03  0.18250000000E+03  0.00000000000E+00 0. -1.
         11   -1    0    0    0    0 -0.00000000000E+00 -0.00000000000E+00 -0.18250000000E+03  0.18250000000E+03  0.00000000000E+00 0. -1.
        -11    1    1    2    0    0 -0.24356335330E+01  0.13801388740E+01  0.18175057987E+03  0.18177213862E+03  0.00000000000E+00 0. -1.
         11    1    1    2    0    0  0.44981558225E+01  0.78232303517E+00 -0.16546043494E+03  0.16552341516E+03  0.00000000000E+00 0. -1.
        -15    1    1    2    0    0 -0.10742811014E+01 -0.92142930190E-01 -0.13565982251E+02  0.13724291371E+02  0.17770000000E+01 0.  1.
         15    1    1    2    0    0 -0.98824118800E+00 -0.20703189790E+01 -0.27241626854E+01  0.39801548534E+01  0.17770000000E+01 0. -1.
</event>
<event>
 6    1  0.1108180E-002  0.1827779E+03  0.7546771E-02  0.1068234E+00
        -11   -1    0    0    0    0  0.00000000000E+00  0.00000000000E+00  0.18250000000E+03  0.18250000000E+03  0.00000000000E+00 0. -1.
         11   -1    0    0    0    0 -0.00000000000E+00 -0.00000000000E+00 -0.18250000000E+03  0.18250000000E+03  0.00000000000E+00 0. -1.
        -11    1    1    2    0    0  0.11384914859E+01  0.13577915175E+01  0.60195878573E+02  0.60221952458E+02  0.00000000000E+00 0. -1.
         11    1    1    2    0    0  0.28609368780E+00 -0.32163283789E+01 -0.18219343832E+03  0.18222205022E+03  0.00000000000E+00 0. -1.
        -15    1    1    2    0    0 -0.30838402791E+01 -0.40761473752E+00  0.11121830183E+03  0.11127598399E+03  0.17770000000E+01 0. -1.
         15    1    1    2    0    0  0.16592551053E+01  0.22661515989E+01  0.10779257917E+02  0.11280013334E+02  0.17770000000E+01 0.  1.
</event>
<event>
 6    1  0.1108180E-002  0.1842798E+03  0.7546771E-02  0.1067047E+00
        -11   -1    0    0    0    0  0.00000000000E+00  0.00000000000E+00  0.18250000000E+03  0.18250000000E+03  0.00000000000E+00 0.  1.
         11   -1    0    0    0    0 -0.00000000000E+00 -0.00000000000E+00 -0.18250000000E+03  0.18250000000E+03  0.00000000000E+00 0. -1.
        -11    1    1    2    0    0  0.82434529180E+01  0.31357347680E+01  0.18050490538E+03  0.18072024849E+03  0.00000000000E+00 0.  1.
         11    1    1    2    0    0  0.14434879853E+01  0.18223281880E+01 -0.15066294871E+03  0.15068088349E+03  0.00000000000E+00 0. -1.
        -15    1    1    2    0    0 -0.45183092013E+01  0.30540123389E+01 -0.10735264262E+02  0.12171513348E+02  0.17770000000E+01 0. -1.
         15    1    1    2    0    0 -0.51686317020E+01 -0.80120752949E+01 -0.19106692410E+02  0.21427354667E+02  0.17770000000E+01 0. -1.
</event>
<event>
 6    1  0.1108180E-002  0.1871369E+03  0.7546771E-02  0.1064823E+00
        -11   -1    0    0    0    0  0.00000000000E+00  0.00000000000E+00  0.18250000000E+03  0.18250000000E+03  0.00000000000E+00 0. -1.
         11   -1    0    0    0    0 -0.00000000000E+00 -0.00000000000E+00 -0.18250000000E+03  0.18250000000E+03  0.00000000000E+00 0.  1.
        -11    1    1    2    0    0 -0.58216901546E+01  0.10592017893E+02  0.17745193798E+03  0.17786307434E+03  0.00000000000E+00 0. -1.
         11    1    1    2    0    0  0.49166332092E+01 -0.44374979626E+01 -0.17101566042E+03  0.17114385989E+03  0.00000000000E+00 0.  1.
        -15    1    1    2    0    0 -0.19690847562E+01 -0.11105210079E+01 -0.89660274144E+01  0.94158339132E+01  0.17770000000E+01 0.  1.
         15    1    1    2    0    0  0.28741417016E+01 -0.50439989226E+01  0.25297498503E+01  0.65772318613E+01  0.17770000000E+01 0. -1.
</event>
<event>
 6    1  0.1108180E-002  0.1828409E+03  0.7546771E-02  0.1068184E+00
        -11   -1    0    0    0    0  0.00000000000E+00  0.00000000000E+00  0.18250000000E+03  0.18250000000E+03  0.00000000000E+00 0.  1.
         11   -1    0    0    0    0 -0.00000000000E+00 -0.00000000000E+00 -0.18250000000E+03  0.18250000000E+03  0.00000000000E+00 0.  1.
        -11    1    1    2    0    0  0.80070149604E+00 -0.19965240151E+01  0.85653511932E+02  0.85680519007E+02  0.00000000000E+00 0.  1.
         11    1    1    2    0    0  0.39737006202E+00  0.38010929279E+01 -0.18211901860E+03  0.18215911491E+03  0.00000000000E+00 0.  1.
        -15    1    1    2    0    0 -0.10197234405E+01 -0.28649164257E+01  0.89194725399E+01  0.95896976705E+01  0.17770000000E+01 0. -1.
         15    1    1    2    0    0 -0.17834811758E+00  0.10603475129E+01  0.87546034128E+02  0.87570668408E+02  0.17770000000E+01 0.  1.
</event>
<event>
 6    1  0.1108180E-002  0.1826362E+03  0.7546771E-02  0.1068346E+00
        -11   -1    0    0    0    0  0.00000000000E+00  0.00000000000E+00  0.18250000000E+03  0.18250000000E+03  0.00000000000E+00 0. -1.
         11   -1    0    0    0    0 -0.00000000000E+00 -0.00000000000E+00 -0.18250000000E+03  0.18250000000E+03  0.00000000000E+00 0.  1.
        -11    1    1    2    0    0 -0.23223303161E+01  0.99059994073E+00  0.18234635505E+03  0.18236383333E+03  0.00000000000E+00 0. -1.
         11    1    1    2    0    0  0.67159186628E+00 -0.16930165149E+01 -0.13415435003E+03  0.13416671336E+03  0.00000000000E+00 0.  1.
        -15    1    1    2    0    0  0.81618306878E+00 -0.10426469799E+01 -0.30868419337E+02  0.30947864367E+02  0.17770000000E+01 0. -1.
         15    1    1    2    0    0  0.83455538103E+00  0.17450635540E+01 -0.17323585682E+02  0.17521588951E+02  0.17770000000E+01 0.  1.
</event>
<event>
 6    1  0.1108180E-002  0.1838567E+03  0.7546771E-02  0.1067380E+00
        -11   -1    0    0    0    0  0.00000000000E+00  0.00000000000E+00  0.18250000000E+03  0.18250000000E+03  0.00000000000E+00 0.  1.
         11   -1    0    0    0    0 -0.00000000000E+00 -0.00000000000E+00 -0.18250000000E+03  0.18250000000E+03  0.00000000000E+00 0.  1.
        -11    1    1    2    0    0 -0.91825816520E+00 -0.11917449940E+01  0.33390176956E+02  0.33424053784E+02  0.00000000000E+00 0.  1.
         11    1    1    2    0    0  0.10366972007E+02 -0.19485341267E+02 -0.17979358542E+03  0.18114327476E+03  0.00000000000E+00 0.  1.
        -15    1    1    2    0    0  0.35816391268E+01 -0.36162655023E+01  0.45426542650E+02  0.45745316931E+02  0.17770000000E+01 0.  1.
         15    1    1    2    0    0 -0.13030352968E+02  0.24293351763E+02  0.10097686581E+03  0.10468735452E+03  0.17770000000E+01 0. -1.
</event>
<event>
 6    1  0.1108180E-002  0.1841621E+03  0.7546771E-02  0.1067139E+00
        -11   -1    0    0    0    0  0.00000000000E+00  0.00000000000E+00  0.18250000000E+03  0.18250000000E+03  0.00000000000E+00 0. -1.
         11   -1    0    0    0    0 -0.00000000000E+00 -0.00000000000E+00 -0.18250000000E+03  0.18250000000E+03  0.00000000000E+00 0.  1.
        -11    1    1    2    0    0 -0.13575880984E+02 -0.18014293477E+02  0.17942553095E+03  0.18083788450E+03  0.00000000000E+00 0. -1.
         11    1    1    2    0    0 -0.14912786927E+01 -0.55525938642E+00 -0.44760945675E+02  0.44789222843E+02  0.00000000000E+00 0.  1.
        -15    1    1    2    0    0 -0.45026846511E+01 -0.11575254708E+01 -0.50002425064E+02  0.50249520153E+02  0.17770000000E+01 0.  1.
         15    1    1    2    0    0  0.19569844328E+02  0.19727078335E+02 -0.84662160208E+02  0.89123372506E+02  0.17770000000E+01 0. -1.
</event>
<event>
 6    1  0.1108180E-002  0.1916788E+03  0.7546771E-02  0.1061375E+00
        -11   -1    0    0    0    0  0.00000000000E+00  0.00000000000E+00  0.18250000000E+03  0.18250000000E+03  0.00000000000E+00 0.  1.
         11   -1    0    0    0    0 -0.00000000000E+00 -0.00000000000E+00 -0.18250000000E+03  0.18250000000E+03  0.00000000000E+00 0. -1.
        -11    1    1    2    0    0  0.16702388802E+01 -0.52828894642E+01  0.17323260998E+03  0.17332119252E+03  0.00000000000E+00 0.  1.
         11    1    1    2    0    0 -0.83947253393E+00 -0.20134749843E+01 -0.15854351237E+03  0.15855851951E+03  0.00000000000E+00 0. -1.
        -15    1    1    2    0    0  0.21900546662E+01 -0.38697821040E+01 -0.19784640291E+02  0.20355865824E+02  0.17770000000E+01 0. -1.
         15    1    1    2    0    0 -0.30208210124E+01  0.11166146553E+02  0.50955426809E+01  0.12764422143E+02  0.17770000000E+01 0. -1.
</event>
<event>
 6    1  0.1108180E-002  0.1890623E+03  0.7546771E-02  0.1063348E+00
        -11   -1    0    0    0    0  0.00000000000E+00  0.00000000000E+00  0.18250000000E+03  0.18250000000E+03  0.00000000000E+00 0. -1.
         11   -1    0    0    0    0 -0.00000000000E+00 -0.00000000000E+00 -0.18250000000E+03  0.18250000000E+03  0.00000000000E+00 0.  1.
        -11    1    1    2    0    0  0.23417347563E+01  0.37295291322E+01  0.97894267143E+02  0.97993268385E+02  0.00000000000E+00 0. -1.
         11    1    1    2    0    0  0.20834564374E+01 -0.25714328773E+01 -0.17590656446E+03  0.17593769487E+03  0.00000000000E+00 0.  1.
        -15    1    1    2    0    0 -0.15324771136E+02 -0.18387072154E+02  0.27117251274E+02  0.36213755376E+02  0.17770000000E+01 0. -1.
         15    1    1    2    0    0  0.10899579942E+02  0.17228975899E+02  0.50895046040E+02  0.54855281367E+02  0.17770000000E+01 0.  1.
</event>
<event>
 6    1  0.1108180E-002  0.1981576E+03  0.7546771E-02  0.1056632E+00
        -11   -1    0    0    0    0  0.00000000000E+00  0.00000000000E+00  0.18250000000E+03  0.18250000000E+03  0.00000000000E+00 0.  1.
         11   -1    0    0    0    0 -0.00000000000E+00 -0.00000000000E+00 -0.18250000000E+03  0.18250000000E+03  0.00000000000E+00 0. -1.
        -11    1    1    2    0    0  0.84808928820E+01 -0.66757271858E+01  0.15691010042E+03  0.15728086499E+03  0.00000000000E+00 0.  1.
         11    1    1    2    0    0 -0.35628869114E+01 -0.31662344737E+01 -0.16677430123E+03  0.16684240095E+03  0.00000000000E+00 0. -1.
        -15    1    1    2    0    0  0.12987152593E+01  0.59226673181E+01 -0.14259109628E+02  0.15596300390E+02  0.17770000000E+01 0.  1.
         15    1    1    2    0    0 -0.62167212299E+01  0.39192943414E+01  0.24123310442E+02  0.25280433673E+02  0.17770000000E+01 0. -1.
</event>
<event>
 6    1  0.1108180E-002  0.1893817E+03  0.7546771E-02  0.1063105E+00
        -11   -1    0    0    0    0  0.00000000000E+00  0.00000000000E+00  0.18250000000E+03  0.18250000000E+03  0.00000000000E+00 0. -1.
         11   -1    0    0    0    0 -0.00000000000E+00 -0.00000000000E+00 -0.18250000000E+03  0.18250000000E+03  0.00000000000E+00 0.  1.
        -11    1    1    2    0    0 -0.90348957296E+00  0.16612309464E+01  0.89427443367E+02  0.89447434892E+02  0.00000000000E+00 0. -1.
         11    1    1    2    0    0  0.12055520948E+02  0.30395212769E+00 -0.17520380408E+03  0.17561833884E+03  0.00000000000E+00 0.  1.
        -15    1    1    2    0    0  0.24092786888E+01 -0.10776291228E+02  0.82604519682E+02  0.83358247806E+02  0.17770000000E+01 0.  1.
         15    1    1    2    0    0 -0.13561310063E+02  0.88111081534E+01  0.31718410304E+01  0.16575978464E+02  0.17770000000E+01 0. -1.
</event>
<event>
 6    1  0.1108180E-002  0.1886698E+03  0.7546771E-02  0.1063647E+00
        -11   -1    0    0    0    0  0.00000000000E+00  0.00000000000E+00  0.18250000000E+03  0.18250000000E+03  0.00000000000E+00 0.  1.
         11   -1    0    0    0    0 -0.00000000000E+00 -0.00000000000E+00 -0.18250000000E+03  0.18250000000E+03  0.00000000000E+00 0. -1.
        -11    1    1    2    0    0  0.95124497424E+01  0.68577865464E+01  0.17593982014E+03  0.17633019097E+03  0.00000000000E+00 0.  1.
         11    1    1    2    0    0 -0.44318181018E+01  0.10801731168E+00 -0.16694502706E+03  0.16700387642E+03  0.00000000000E+00 0. -1.
        -15    1    1    2    0    0  0.36570116821E+01 -0.33539261553E+01 -0.10670075674E+02  0.11900873875E+02  0.17770000000E+01 0. -1.
         15    1    1    2    0    0 -0.87376433226E+01 -0.36118777028E+01  0.16752825921E+01  0.97650587370E+01  0.17770000000E+01 0. -1.
</event>
<event>
 6    1  0.1108180E-002  0.1832326E+03  0.7546771E-02  0.1067873E+00
        -11   -1    0    0    0    0  0.00000000000E+00  0.00000000000E+00  0.18250000000E+03  0.18250000000E+03  0.00000000000E+00 0.  1.
         11   -1    0    0    0    0 -0.00000000000E+00 -0.00000000000E+00 -0.18250000000E+03  0.18250000000E+03  0.00000000000E+00 0. -1.
        -11    1    1    2    0    0  0.87492800740E+01 -0.32191285810E+01  0.18152821146E+03  0.18176744551E+03  0.00000000000E+00 0.  1.
         11    1    1    2    0    0 -0.34426978523E+01  0.73096573740E-01 -0.11200271826E+03  0.11205563980E+03  0.00000000000E+00 0. -1.
        -15    1    1    2    0    0  0.18816332390E+01 -0.18935320848E-01 -0.49852470246E+02  0.49919609582E+02  0.17770000000E+01 0.  1.
         15    1    1    2    0    0 -0.71882154607E+01  0.31649673281E+01 -0.19673022951E+02  0.21257305114E+02  0.17770000000E+01 0. -1.
</event>
<event>
 6    1  0.1108180E-002  0.2100642E+03  0.7546771E-02  0.1048412E+00
        -11   -1    0    0    0    0  0.00000000000E+00  0.00000000000E+00  0.18250000000E+03  0.18250000000E+03  0.00000000000E+00 0. -1.
         11   -1    0    0    0    0 -0.00000000000E+00 -0.00000000000E+00 -0.18250000000E+03  0.18250000000E+03  0.00000000000E+00 0. -1.
        -11    1    1    2    0    0  0.24883297545E+01 -0.21486937095E+01  0.15490090535E+03  0.15493579040E+03  0.00000000000E+00 0. -1.
         11    1    1    2    0    0  0.31904875146E+01 -0.99308427006E+00 -0.13157027224E+03  0.13161269682E+03  0.00000000000E+00 0. -1.
        -15    1    1    2    0    0  0.43718005891E+01  0.43355108538E+01  0.26658078062E+02  0.27417515382E+02  0.17770000000E+01 0. -1.
         15    1    1    2    0    0 -0.10050617858E+02 -0.11937328742E+01 -0.49988711162E+02  0.51033997395E+02  0.17770000000E+01 0.  1.
</event>
<event>
 6    1  0.1108180E-002  0.1946359E+03  0.7546771E-02  0.1059185E+00
        -11   -1    0    0    0    0  0.00000000000E+00  0.00000000000E+00  0.18250000000E+03  0.18250000000E+03  0.00000000000E+00 0.  1.
         11   -1    0    0    0    0 -0.00000000000E+00 -0.00000000000E+00 -0.18250000000E+03  0.18250000000E+03  0.00000000000E+00 0.  1.
        -11    1    1    2    0    0 -0.70484874160E+01  0.13536589743E+01  0.17021283601E+03  0.17036408985E+03  0.00000000000E+00 0.  1.
         11    1    1    2    0    0  0.42066584577E+01  0.47856634923E+01 -0.15713122593E+03  0.15726035963E+03  0.00000000000E+00 0.  1.
        -15    1    1    2    0    0  0.53203971963E+01 -0.16486773584E+01  0.11125005536E+02  0.12567746041E+02  0.17770000000E+01 0.  1.
         15    1    1    2    0    0 -0.24785682379E+01 -0.44906451082E+01 -0.24206615621E+02  0.24807804474E+02  0.17770000000E+01 0. -1.
</event>
<event>
 6    1  0.1108180E-002  0.1841814E+03  0.7546771E-02  0.1067124E+00
        -11   -1    0    0    0    0  0.00000000000E+00  0.00000000000E+00  0.18250000000E+03  0.18250000000E+03  0.00000000000E+00 0. -1.
         11   -1    0    0    0    0 -0.00000000000E+00 -0.00000000000E+00 -0.18250000000E+03  0.18250000000E+03  0.00000000000E+00 0. -1.
        -11    1    1    2    0    0 -0.20621698211E+01 -0.16643677820E+01  0.16651559467E+03  0.16653668044E+03  0.00000000000E+00 0. -1.
         11    1    1    2    0    0  0.59577369259E-02 -0.42387136686E+01 -0.18076892338E+03  0.18081861184E+03  0.00000000000E+00 0. -1.
        -15    1    1    2    0    0  0.32557229470E+01  0.45173333423E+01  0.13885472783E+02  0.15065527400E+02  0.17770000000E+01 0. -1.
         15    1    1    2    0    0 -0.11995108628E+01  0.13857481083E+01  0.36785592353E+00  0.25791803175E+01  0.17770000000E+01 0.  1.
</event>
<event>
 6    1  0.1108180E-002  0.1408790E+03  0.7546771E-02  0.1107459E+00
        -11   -1    0    0    0    0  0.00000000000E+00  0.00000000000E+00  0.18250000000E+03  0.18250000000E+03  0.00000000000E+00 0.  1.
         11   -1    0    0    0    0 -0.00000000000E+00 -0.00000000000E+00 -0.18250000000E+03  0.18250000000E+03  0.00000000000E+00 0. -1.
        -11    1    1    2    0    0  0.50351957326E+00  0.66410160733E+00  0.31264179915E+02  0.31275285908E+02  0.00000000000E+00 0.  1.
         11    1    1    2    0    0  0.11871126810E+02 -0.58952596357E+02 -0.15841884173E+03  0.16944869926E+03  0.00000000000E+00 0. -1.
        -15    1    1    2    0    0 -0.45707413333E+02  0.45379846260E+02  0.10156576356E+03  0.12027992408E+03  0.17770000000E+01 0.  1.
         15    1    1    2    0    0  0.33332766950E+02  0.12908648489E+02  0.25588898251E+02  0.43996090747E+02  0.17770000000E+01 0. -1.
</event>
<event>
 6    1  0.1108180E-002  0.1834309E+03  0.7546771E-02  0.1067716E+00
        -11   -1    0    0    0    0  0.00000000000E+00  0.00000000000E+00  0.18250000000E+03  0.18250000000E+03  0.00000000000E+00 0. -1.
         11   -1    0    0    0    0 -0.00000000000E+00 -0.00000000000E+00 -0.18250000000E+03  0.18250000000E+03  0.00000000000E+00 0. -1.
        -11    1    1    2    0    0  0.31157900084E+01 -0.13045406555E+01  0.16795367997E+03  0.16798764415E+03  0.00000000000E+00 0. -1.
         11    1    1    2    0    0  0.16134644883E+01  0.35786744500E+01 -0.18152664627E+03  0.18156908736E+03  0.00000000000E+00 0. -1.
        -15    1    1    2    0    0 -0.21849885240E+01  0.68172205939E+00  0.72204623086E+01  0.77802136710E+01  0.17770000000E+01 0. -1.
         15    1    1    2    0    0 -0.25442659728E+01 -0.29558558538E+01  0.63525039938E+01  0.76630548191E+01  0.17770000000E+01 0. -1.
</event>
<event>
 6    1  0.1108180E-002  0.2091912E+03  0.7546771E-02  0.1048994E+00
        -11   -1    0    0    0    0  0.00000000000E+00  0.00000000000E+00  0.18250000000E+03  0.18250000000E+03  0.00000000000E+00 0.  1.
         11   -1    0    0    0    0 -0.00000000000E+00 -0.00000000000E+00 -0.18250000000E+03  0.18250000000E+03  0.00000000000E+00 0. -1.
        -11    1    1    2    0    0 -0.56401059172E+01  0.13954267352E+02  0.15508014606E+03  0.15580880615E+03  0.00000000000E+00 0.  1.
         11    1    1    2    0    0  0.16581395486E+01 -0.12080228299E+02 -0.98240991210E+02  0.98994816514E+02  0.00000000000E+00 0. -1.
        -15    1    1    2    0    0 -0.13109746080E+02  0.47288982718E+01 -0.79652478548E+02  0.80882031311E+02  0.17770000000E+01 0. -1.
         15    1    1    2    0    0  0.17091712448E+02 -0.66029373240E+01  0.22813323702E+02  0.29314346028E+02  0.17770000000E+01 0.  1.
</event>
<event>
 6    1  0.1108180E-002  0.1826771E+03  0.7546771E-02  0.1068314E+00
        -11   -1    0    0    0    0  0.00000000000E+00  0.00000000000E+00  0.18250000000E+03  0.18250000000E+03  0.00000000000E+00 0. -1.
         11   -1    0    0    0    0 -0.00000000000E+00 -0.00000000000E+00 -0.18250000000E+03  0.18250000000E+03  0.00000000000E+00 0. -1.
        -11    1    1    2    0    0 -0.98638867731E+00 -0.22900478626E+01  0.18230587875E+03  0.18232292974E+03  0.00000000000E+00 0. -1.
         11    1    1    2    0    0  0.29572675719E+01  0.17789017827E+00 -0.10141507800E+03  0.10145834181E+03  0.00000000000E+00 0. -1.
        -15    1    1    2    0    0 -0.30927317057E+00  0.39357243458E+00 -0.66365226030E+02  0.66390899257E+02  0.17770000000E+01 0. -1.
         15    1    1    2    0    0 -0.16616057241E+01  0.17185852498E+01 -0.14525574715E+02  0.14827829195E+02  0.17770000000E+01 0.  1.
</event>
<event>
 6    1  0.1108180E-002  0.1852595E+03  0.7546771E-02  0.1066279E+00
        -11   -1    0    0    0    0  0.00000000000E+00  0.00000000000E+00  0.18250000000E+03  0.18250000000E+03  0.00000000000E+00 0.  1.
         11   -1    0    0    0    0 -0.00000000000E+00 -0.00000000000E+00 -0.18250000000E+03  0.18250000000E+03  0.00000000000E+00 0.  1.
        -11    1    1    2    0    0  0.42005722663E+01  0.11283488985E+01  0.17968783697E+03  0.17974047049E+03  0.00000000000E+00 0.  1.
         11    1    1    2    0    0 -0.15452359026E+01  0.59185275713E+01 -0.13861330825E+03  0.13874821060E+03  0.00000000000E+00 0.  1.
        -15    1    1    2    0    0  0.32096263173E-01 -0.63034118574E+01 -0.42433895874E+02  0.42936316555E+02  0.17770000000E+01 0.  1.
         15    1    1    2    0    0 -0.26874326269E+01 -0.74346461243E+00  0.13593671533E+01  0.35750023512E+01  0.17770000000E+01 0. -1.
</event>
<event>
 6    1  0.1108180E-002  0.1958186E+03  0.7546771E-02  0.1058321E+00
        -11   -1    0    0    0    0  0.00000000000E+00  0.00000000000E+00  0.18250000000E+03  0.18250000000E+03  0.00000000000E+00 0.  1.
         11   -1    0    0    0    0 -0.00000000000E+00 -0.00000000000E+00 -0.18250000000E+03  0.18250000000E+03  0.00000000000E+00 0. -1.
        -11    1    1    2    0    0 -0.25508717751E+01  0.42725541957E+01  0.16452782135E+03  0.16460305485E+03  0.00000000000E+00 0.  1.
         11    1    1    2    0    0 -0.30576623886E+01 -0.38213208791E+01 -0.16911062450E+03  0.16918142662E+03  0.00000000000E+00 0. -1.
        -15    1    1    2    0    0 -0.40838052728E+01 -0.56370207115E+01  0.14578207691E+02  0.16252240968E+02  0.17770000000E+01 0.  1.
         15    1    1    2    0    0  0.96923394366E+01  0.51857873949E+01 -0.99954045409E+01  0.14963277569E+02  0.17770000000E+01 0. -1.
</event>
<event>
 6    1  0.1108180E-002  0.1827480E+03  0.7546771E-02  0.1068258E+00
        -11   -1    0    0    0    0  0.00000000000E+00  0.00000000000E+00  0.18250000000E+03  0.18250000000E+03  0.00000000000E+00 0. -1.
         11   -1    0    0    0    0 -0.00000000000E+00 -0.00000000000E+00 -0.18250000000E+03  0.18250000000E+03  0.00000000000E+00 0. -1.
        -11    1    1    2    0    0 -0.28649721302E+01  0.25159895709E-01  0.18222947040E+03  0.18225199198E+03  0.00000000000E+00 0. -1.
         11    1    1    2    0    0 -0.22065054123E+01  0.18120769320E+01 -0.11061528155E+03  0.11065212516E+03  0.00000000000E+00 0. -1.
        -15    1    1    2    0    0  0.28838400267E+00 -0.16141075372E+01 -0.39888369515E+02  0.39961584804E+02  0.17770000000E+01 0.  1.
         15    1    1    2    0    0  0.47830935399E+01 -0.22312929056E+00 -0.31725819331E+02  0.32134298059E+02  0.17770000000E+01 0.  1.
</event>
<event>
 6    1  0.1108180E-002  0.1833046E+03  0.7546771E-02  0.1067816E+00
        -11   -1    0    0    0    0  0.00000000000E+00  0.00000000000E+00  0.18250000000E+03  0.18250000000E+03  0.00000000000E+00 0.  1.
         11   -1    0    0    0    0 -0.00000000000E+00 -0.00000000000E+00 -0.18250000000E+03  0.18250000000E+03  0.00000000000E+00 0.  1.
        -11    1    1    2    0    0 -0.37704683338E+01  0.18592268692E+01  0.18164671927E+03  0.18169535982E+03  0.00000000000E+00 0.  1.
         11    1    1    2    0    0  0.11239278027E+00 -0.62966413314E+00 -0.40965964706E+02  0.40970957681E+02  0.00000000000E+00 0.  1.
        -15    1    1    2    0    0  0.69554454368E+01  0.29755448163E+01 -0.19069721554E+02  0.20592331032E+02  0.17770000000E+01 0. -1.
         15    1    1    2    0    0 -0.32973698832E+01 -0.42051075524E+01 -0.12161103301E+03  0.12174135147E+03  0.17770000000E+01 0.  1.
</event>
<event>
 6    1  0.1108180E-002  0.1868689E+03  0.7546771E-02  0.1065029E+00
        -11   -1    0    0    0    0  0.00000000000E+00  0.00000000000E+00  0.18250000000E+03  0.18250000000E+03  0.00000000000E+00 0. -1.
         11   -1    0    0    0    0 -0.00000000000E+00 -0.00000000000E+00 -0.18250000000E+03  0.18250000000E+03  0.00000000000E+00 0.  1.
        -11    1    1    2    0    0 -0.57998431104E+01 -0.71451590380E+01  0.17789323134E+03  0.17813111248E+03  0.00000000000E+00 0. -1.
         11    1    1    2    0    0 -0.19775965533E+01  0.24294061055E-01 -0.10031061494E+03  0.10033010988E+03  0.00000000000E+00 0.  1.
        -15    1    1    2    0    0  0.20400112198E+02 -0.65707057560E+00 -0.60368475700E+02  0.63750348287E+02  0.17770000000E+01 0.  1.
         15    1    1    2    0    0 -0.12622672535E+02  0.77779355525E+01 -0.17214140696E+02  0.22788429351E+02  0.17770000000E+01 0. -1.
</event>
<event>
 6    1  0.1108180E-002  0.1830490E+03  0.7546771E-02  0.1068019E+00
        -11   -1    0    0    0    0  0.00000000000E+00  0.00000000000E+00  0.18250000000E+03  0.18250000000E+03  0.00000000000E+00 0.  1.
         11   -1    0    0    0    0 -0.00000000000E+00 -0.00000000000E+00 -0.18250000000E+03  0.18250000000E+03  0.00000000000E+00 0. -1.
        -11    1    1    2    0    0  0.82479433918E-01  0.66198804269E+00  0.39591934707E+02  0.39597554531E+02  0.00000000000E+00 0.  1.
         11    1    1    2    0    0  0.19075269812E+01 -0.60024455509E+01 -0.18184195323E+03  0.18195099331E+03  0.00000000000E+00 0. -1.
        -15    1    1    2    0    0  0.30876201069E+01  0.33052889288E+01  0.12789123865E+03  0.12798353404E+03  0.17770000000E+01 0.  1.
         15    1    1    2    0    0 -0.50776265220E+01  0.20351685794E+01  0.14358779880E+02  0.15467918117E+02  0.17770000000E+01 0. -1.
</event>
<event>
 6    1  0.1108180E-002  0.1886292E+03  0.7546771E-02  0.1063678E+00
        -11   -1    0    0    0    0  0.00000000000E+00  0.00000000000E+00  0.18250000000E+03  0.18250000000E+03  0.00000000000E+00 0. -1.
         11   -1    0    0    0    0 -0.00000000000E+00 -0.00000000000E+00 -0.18250000000E+03  0.18250000000E+03  0.00000000000E+00 0. -1.
        -11    1    1    2    0    0 -0.24987459677E+01  0.20906601654E+01  0.17634075043E+03  0.17637084468E+03  0.00000000000E+00 0. -1.
         11    1    1    2    0    0 -0.12324592311E+01  0.83479124743E-01 -0.63759827779E+02  0.63771792848E+02  0.00000000000E+00 0. -1.
        -15    1    1    2    0    0  0.68774217310E+00 -0.16900003656E+01 -0.11818885880E+03  0.11821629821E+03  0.17770000000E+01 0. -1.
         15    1    1    2    0    0  0.30434630256E+01 -0.48413892452E+00  0.56079361437E+01  0.66410642580E+01  0.17770000000E+01 0. -1.
</event>
