<event>
 7    1  0.2559882E-004  0.5146959E+03  0.7546771E-02  0.9367514E-01
        -11   -1    0    0    0    0  0.00000000000E+00  0.00000000000E+00  0.50000000000E+03  0.50000000000E+03  0.00000000000E+00 0.  1.
         11   -1    0    0    0    0 -0.00000000000E+00 -0.00000000000E+00 -0.50000000000E+03  0.50000000000E+03  0.00000000000E+00 0. -1.
         23    2    1    2    0    0 -0.33323200791E+02  0.51698907424E+01  0.14832221661E+03  0.17911781305E+03  0.94586191002E+02 0.  0.
        -11    1    1    2    0    0 -0.58274521101E+01 -0.10123281664E+02  0.33537474434E+03  0.33557809698E+03  0.00000000000E+00 0.  1.
         11    1    1    2    0    0  0.39150652901E+02  0.49533909215E+01 -0.48369696096E+03  0.48530408997E+03  0.00000000000E+00 0. -1.
        -15    1    3    3    0    0 -0.21755742313E+02 -0.70405435406E+01 -0.61313666025E+01  0.23740955380E+02  0.17770000000E+01 0. -1.
         15    1    3    3    0    0 -0.11567458477E+02  0.12210434283E+02  0.15445358322E+03  0.15537685767E+03  0.17770000000E+01 0.  1.
</event>
<event>
 7    1  0.2559882E-004  0.4744463E+03  0.7546771E-02  0.9458876E-01
        -11   -1    0    0    0    0  0.00000000000E+00  0.00000000000E+00  0.50000000000E+03  0.50000000000E+03  0.00000000000E+00 0.  1.
         11   -1    0    0    0    0 -0.00000000000E+00 -0.00000000000E+00 -0.50000000000E+03  0.50000000000E+03  0.00000000000E+00 0. -1.
         23    2    1    2    0    0 -0.40255382758E+01 -0.21054199436E+01 -0.43935134387E+03  0.44895650823E+03  0.92258902930E+02 0.  0.
        -11    1    1    2    0    0  0.29177029457E+02 -0.23379019995E+01  0.49181910109E+03  0.49268934739E+03  0.00000000000E+00 0.  1.
         11    1    1    2    0    0 -0.25151491182E+02  0.44433219432E+01 -0.52467757225E+02  0.58354144384E+02  0.00000000000E+00 0. -1.
        -15    1    3    3    0    0  0.13912723528E+02  0.31047199003E+02 -0.71794791945E+02  0.79467869742E+02  0.17770000000E+01 0.  1.
         15    1    3    3    0    0 -0.17938261804E+02 -0.33152618947E+02 -0.36755655192E+03  0.36948863848E+03  0.17770000000E+01 0. -1.
</event>
<event>
 7    1  0.2559882E-004  0.4801087E+03  0.7546771E-02  0.9445452E-01
        -11   -1    0    0    0    0  0.00000000000E+00  0.00000000000E+00  0.50000000000E+03  0.50000000000E+03  0.00000000000E+00 0. -1.
         11   -1    0    0    0    0 -0.00000000000E+00 -0.00000000000E+00 -0.50000000000E+03  0.50000000000E+03  0.00000000000E+00 0.  1.
         23    2    1    2    0    0  0.64317274422E+01 -0.89125538393E+00 -0.45777381783E+03  0.46640306213E+03  0.89066192346E+02 0.  0.
        -11    1    1    2    0    0  0.31241728694E+02 -0.22615546914E+01  0.48562891555E+03  0.48663806248E+03  0.00000000000E+00 0. -1.
         11    1    1    2    0    0 -0.37673456136E+02  0.31528100753E+01 -0.27855097714E+02  0.46958875383E+02  0.00000000000E+00 0.  1.
        -15    1    3    3    0    0  0.33436286311E+02 -0.15982779443E+02 -0.39137656518E+03  0.39313128593E+03  0.17770000000E+01 0. -1.
         15    1    3    3    0    0 -0.27004558869E+02  0.15091524059E+02 -0.66397252658E+02  0.73271776201E+02  0.17770000000E+01 0.  1.
</event>
<event>
 6    1  0.2559882E-004  0.5259958E+03  0.7546771E-02  0.9343450E-01
        -11   -1    0    0    0    0  0.00000000000E+00  0.00000000000E+00  0.50000000000E+03  0.50000000000E+03  0.00000000000E+00 0. -1.
         11   -1    0    0    0    0 -0.00000000000E+00 -0.00000000000E+00 -0.50000000000E+03  0.50000000000E+03  0.00000000000E+00 0.  1.
        -11    1    1    2    0    0 -0.15799925201E+02 -0.10280863159E+02  0.47362918104E+03  0.47400415074E+03  0.00000000000E+00 0. -1.
         11    1    1    2    0    0 -0.55407760829E+02  0.61812127718E+01 -0.91182900043E+02  0.10687632391E+03  0.00000000000E+00 0.  1.
        -15    1    1    2    0    0  0.76583830073E+01 -0.17017512112E+02  0.98283445654E+01  0.21166025481E+02  0.17770000000E+01 0. -1.
         15    1    1    2    0    0  0.63549303023E+02  0.21117162499E+02 -0.39227462557E+03  0.39795349987E+03  0.17770000000E+01 0.  1.
</event>
<event>
 7    1  0.2559882E-004  0.5024430E+03  0.7546771E-02  0.9394360E-01
        -11   -1    0    0    0    0  0.00000000000E+00  0.00000000000E+00  0.50000000000E+03  0.50000000000E+03  0.00000000000E+00 0.  1.
         11   -1    0    0    0    0 -0.00000000000E+00 -0.00000000000E+00 -0.50000000000E+03  0.50000000000E+03  0.00000000000E+00 0.  1.
         23    2    1    2    0    0  0.62180555982E+01 -0.14274041686E+02 -0.49098710819E+03  0.50244297490E+03  0.10553762427E+03 0.  0.
        -11    1    1    2    0    0  0.67314092012E+01  0.32398110383E+01  0.47201461726E+03  0.47207373064E+03  0.00000000000E+00 0.  1.
         11    1    1    2    0    0 -0.12949464799E+02  0.11034230648E+02  0.18972490929E+02  0.25483294462E+02  0.00000000000E+00 0.  1.
        -15    1    3    3    0    0 -0.32420929449E+02  0.21549662869E+02 -0.90956542890E+02  0.98953297366E+02  0.17770000000E+01 0. -1.
         15    1    3    3    0    0  0.38638985047E+02 -0.35823704556E+02 -0.40003056530E+03  0.40348967754E+03  0.17770000000E+01 0.  1.
</event>
<event>
 7    1  0.2559882E-004  0.4974524E+03  0.7546771E-02  0.9405528E-01
        -11   -1    0    0    0    0  0.00000000000E+00  0.00000000000E+00  0.50000000000E+03  0.50000000000E+03  0.00000000000E+00 0. -1.
         11   -1    0    0    0    0 -0.00000000000E+00 -0.00000000000E+00 -0.50000000000E+03  0.50000000000E+03  0.00000000000E+00 0.  1.
         23    2    1    2    0    0  0.13338554860E+02 -0.82821837499E+00 -0.49009816061E+03  0.49682222164E+03  0.80358632993E+02 0.  0.
        -11    1    1    2    0    0 -0.61555543692E+01  0.97807998439E+01  0.49148094528E+03  0.49161679637E+03  0.00000000000E+00 0. -1.
         11    1    1    2    0    0 -0.71830004909E+01 -0.89525814689E+01 -0.13827846762E+01  0.11560981986E+02  0.00000000000E+00 0.  1.
        -15    1    3    3    0    0 -0.68060301424E+01  0.37483950487E+02 -0.23128623773E+03  0.23440957763E+03  0.17770000000E+01 0.  1.
         15    1    3    3    0    0  0.20144585002E+02 -0.38312168862E+02 -0.25881192288E+03  0.26241264402E+03  0.17770000000E+01 0. -1.
</event>
<event>
 7    1  0.2559882E-004  0.5028583E+03  0.7546771E-02  0.9393437E-01
        -11   -1    0    0    0    0  0.00000000000E+00  0.00000000000E+00  0.50000000000E+03  0.50000000000E+03  0.00000000000E+00 0. -1.
         11   -1    0    0    0    0 -0.00000000000E+00 -0.00000000000E+00 -0.50000000000E+03  0.50000000000E+03  0.00000000000E+00 0. -1.
         23    2    1    2    0    0 -0.31425357920E+01 -0.33184687190E+01 -0.49385366259E+03  0.50264993003E+03  0.93512696127E+02 0.  0.
        -11    1    1    2    0    0  0.51286349399E+01  0.56006612500E+01  0.49424157270E+03  0.49429991148E+03  0.00000000000E+00 0. -1.
         11    1    1    2    0    0 -0.19860991479E+01 -0.22821925310E+01 -0.38791010523E+00  0.30501584916E+01  0.00000000000E+00 0. -1.
        -15    1    3    3    0    0 -0.34702906908E+02  0.22192282242E+02 -0.12632242838E+03  0.13288078408E+03  0.17770000000E+01 0.  1.
         15    1    3    3    0    0  0.31560371116E+02 -0.25510750961E+02 -0.36753123422E+03  0.36976914595E+03  0.17770000000E+01 0. -1.
</event>
<event>
 7    1  0.2559882E-004  0.4158291E+03  0.7546771E-02  0.9610753E-01
        -11   -1    0    0    0    0  0.00000000000E+00  0.00000000000E+00  0.50000000000E+03  0.50000000000E+03  0.00000000000E+00 0. -1.
         11   -1    0    0    0    0 -0.00000000000E+00 -0.00000000000E+00 -0.50000000000E+03  0.50000000000E+03  0.00000000000E+00 0. -1.
         23    2    1    2    0    0  0.13463473763E+03  0.23985587317E+02  0.12275379085E+02  0.15708378298E+03  0.76307332343E+02 0.  0.
        -11    1    1    2    0    0  0.66354714450E+01 -0.97947375231E+01  0.40344527069E+03  0.40361869729E+03  0.00000000000E+00 0. -1.
         11    1    1    2    0    0 -0.14127020907E+03 -0.14190849794E+02 -0.41572064977E+03  0.43929751973E+03  0.00000000000E+00 0. -1.
        -15    1    3    3    0    0  0.13939117872E+03  0.79293455395E+01  0.89175578299E+01  0.13991231465E+03  0.17770000000E+01 0.  1.
         15    1    3    3    0    0 -0.47564410930E+01  0.16056241778E+02  0.33578212551E+01  0.17171468326E+02  0.17770000000E+01 0. -1.
</event>
<event>
 6    1  0.2559882E-004  0.5301028E+03  0.7546771E-02  0.9334862E-01
        -11   -1    0    0    0    0  0.00000000000E+00  0.00000000000E+00  0.50000000000E+03  0.50000000000E+03  0.00000000000E+00 0.  1.
         11   -1    0    0    0    0 -0.00000000000E+00 -0.00000000000E+00 -0.50000000000E+03  0.50000000000E+03  0.00000000000E+00 0.  1.
        -11    1    1    2    0    0  0.10047117971E+02  0.22571414236E+02  0.21071014799E+03  0.21215367022E+03  0.00000000000E+00 0.  1.
         11    1    1    2    0    0 -0.12082123377E+03  0.70820279971E+02 -0.44854223772E+03  0.46989724579E+03  0.00000000000E+00 0.  1.
        -15    1    1    2    0    0  0.29193905827E+02  0.84516938130E+01  0.16642965721E+03  0.16919132304E+03  0.17770000000E+01 0. -1.
         15    1    1    2    0    0  0.81580209976E+02 -0.10184338802E+03  0.71402432519E+02  0.14875776095E+03  0.17770000000E+01 0.  1.
</event>
<event>
 7    1  0.2559882E-004  0.5009461E+03  0.7546771E-02  0.9397695E-01
        -11   -1    0    0    0    0  0.00000000000E+00  0.00000000000E+00  0.50000000000E+03  0.50000000000E+03  0.00000000000E+00 0. -1.
         11   -1    0    0    0    0 -0.00000000000E+00 -0.00000000000E+00 -0.50000000000E+03  0.50000000000E+03  0.00000000000E+00 0. -1.
         23    2    1    2    0    0  0.10343844315E+02  0.53391869226E+01 -0.49267534890E+03  0.50094613392E+03  0.89902878974E+02 0.  0.
        -11    1    1    2    0    0  0.41856719041E+01 -0.14310207869E+02  0.47201406033E+03  0.47224948390E+03  0.00000000000E+00 0. -1.
         11    1    1    2    0    0 -0.14529516219E+02  0.89710209465E+01  0.20661288572E+02  0.26804382176E+02  0.00000000000E+00 0. -1.
        -15    1    3    3    0    0  0.84295233549E+01 -0.22232315645E+02 -0.34516061795E+02  0.41950553915E+02  0.17770000000E+01 0.  1.
         15    1    3    3    0    0  0.19143209603E+01  0.27571502568E+02 -0.45815928710E+03  0.45899558001E+03  0.17770000000E+01 0. -1.
</event>
<event>
 7    1  0.2559882E-004  0.5068333E+03  0.7546771E-02  0.9384648E-01
        -11   -1    0    0    0    0  0.00000000000E+00  0.00000000000E+00  0.50000000000E+03  0.50000000000E+03  0.00000000000E+00 0.  1.
         11   -1    0    0    0    0 -0.00000000000E+00 -0.00000000000E+00 -0.50000000000E+03  0.50000000000E+03  0.00000000000E+00 0. -1.
         23    2    1    2    0    0 -0.25463677576E+02 -0.79216417895E+01 -0.34606191061E+03  0.35903126623E+03  0.91833832944E+02 0.  0.
        -11    1    1    2    0    0  0.95142806792E+01  0.86401606860E+01  0.49299916149E+03  0.49316665250E+03  0.00000000000E+00 0.  1.
         11    1    1    2    0    0  0.15949396897E+02 -0.71851889651E+00 -0.14693725088E+03  0.14780208126E+03  0.00000000000E+00 0. -1.
        -15    1    3    3    0    0 -0.28403560541E+02 -0.25055035989E+02 -0.33740733547E+03  0.33953112499E+03  0.17770000000E+01 0. -1.
         15    1    3    3    0    0  0.29398829649E+01  0.17133394199E+02 -0.86545751425E+01  0.19500141244E+02  0.17770000000E+01 0.  1.
</event>
<event>
 7    1  0.2559882E-004  0.5277935E+03  0.7546771E-02  0.9339681E-01
        -11   -1    0    0    0    0  0.00000000000E+00  0.00000000000E+00  0.50000000000E+03  0.50000000000E+03  0.00000000000E+00 0. -1.
         11   -1    0    0    0    0 -0.00000000000E+00 -0.00000000000E+00 -0.50000000000E+03  0.50000000000E+03  0.00000000000E+00 0.  1.
         23    2    1    2    0    0 -0.24050237184E+02 -0.73534347795E+02 -0.10323157334E+03  0.15690148250E+03  0.89306233053E+02 0.  0.
        -11    1    1    2    0    0  0.28695813359E+02  0.23735571242E+02  0.47073579978E+03  0.47220654405E+03  0.00000000000E+00 0. -1.
         11    1    1    2    0    0 -0.46455761753E+01  0.49798776553E+02 -0.36750422644E+03  0.37089197345E+03  0.00000000000E+00 0.  1.
        -15    1    3    3    0    0 -0.36663610067E+02  0.62907708094E+01 -0.35288050856E+02  0.51304954563E+02  0.17770000000E+01 0. -1.
         15    1    3    3    0    0  0.12613372883E+02 -0.79825118605E+02 -0.67943522487E+02  0.10559652794E+03  0.17770000000E+01 0.  1.
</event>
<event>
 7    1  0.2559882E-004  0.3511517E+03  0.7546771E-02  0.9812877E-01
        -11   -1    0    0    0    0  0.00000000000E+00  0.00000000000E+00  0.50000000000E+03  0.50000000000E+03  0.00000000000E+00 0.  1.
         11   -1    0    0    0    0 -0.00000000000E+00 -0.00000000000E+00 -0.50000000000E+03  0.50000000000E+03  0.00000000000E+00 0.  1.
         23    2    1    2    0    0 -0.26581863960E+02  0.35085370028E+03 -0.22644897569E+03  0.43076605515E+03  0.10234911426E+03 0.  0.
        -11    1    1    2    0    0  0.40002946367E+02 -0.47384636396E+02  0.25658937957E+03  0.26397660728E+03  0.00000000000E+00 0.  1.
         11    1    1    2    0    0 -0.13421082407E+02 -0.30346906389E+03 -0.30140403880E+02  0.30525733756E+03  0.00000000000E+00 0.  1.
        -15    1    3    3    0    0 -0.24233828197E+02  0.61642502990E+02 -0.49053973453E+01  0.66440178026E+02  0.17770000000E+01 0. -1.
         15    1    3    3    0    0 -0.23480357628E+01  0.28921119729E+03 -0.22154357835E+03  0.36432587713E+03  0.17770000000E+01 0.  1.
</event>
<event>
 7    1  0.2559882E-004  0.5009408E+03  0.7546771E-02  0.9397707E-01
        -11   -1    0    0    0    0  0.00000000000E+00  0.00000000000E+00  0.50000000000E+03  0.50000000000E+03  0.00000000000E+00 0. -1.
         11   -1    0    0    0    0 -0.00000000000E+00 -0.00000000000E+00 -0.50000000000E+03  0.50000000000E+03  0.00000000000E+00 0. -1.
         23    2    1    2    0    0 -0.42095075988E+01  0.34172312658E+01 -0.48988233146E+03  0.49824837694E+03  0.90759842581E+02 0.  0.
        -11    1    1    2    0    0  0.62948099734E+01 -0.61129912509E+01  0.49528557864E+03  0.49536329871E+03  0.00000000000E+00 0. -1.
         11    1    1    2    0    0 -0.20853023746E+01  0.26957599851E+01 -0.54032471878E+01  0.63883243549E+01  0.00000000000E+00 0. -1.
        -15    1    3    3    0    0  0.24465257072E+02  0.38133643227E+02 -0.21915209524E+03  0.22379348097E+03  0.17770000000E+01 0.  1.
         15    1    3    3    0    0 -0.28674764670E+02 -0.34716411961E+02 -0.27073023622E+03  0.27445489597E+03  0.17770000000E+01 0. -1.
</event>
<event>
 7    1  0.2559882E-004  0.5211782E+03  0.7546771E-02  0.9353630E-01
        -11   -1    0    0    0    0  0.00000000000E+00  0.00000000000E+00  0.50000000000E+03  0.50000000000E+03  0.00000000000E+00 0.  1.
         11   -1    0    0    0    0 -0.00000000000E+00 -0.00000000000E+00 -0.50000000000E+03  0.50000000000E+03  0.00000000000E+00 0. -1.
         23    2    1    2    0    0  0.53320995787E+02  0.68159002462E+02 -0.39451653978E+03  0.41419648632E+03  0.91796791388E+02 0.  0.
        -11    1    1    2    0    0 -0.52193240127E+02 -0.16081834467E+03  0.44797731400E+03  0.47882183342E+03  0.00000000000E+00 0.  1.
         11    1    1    2    0    0 -0.11277556601E+01  0.92659342207E+02 -0.53460774225E+02  0.10698168026E+03  0.00000000000E+00 0. -1.
        -15    1    3    3    0    0  0.79817534238E+01  0.54840065557E+02 -0.87701509541E+02  0.10375863185E+03  0.17770000000E+01 0.  1.
         15    1    3    3    0    0  0.45339242364E+02  0.13318936905E+02 -0.30681503024E+03  0.31043785447E+03  0.17770000000E+01 0. -1.
</event>
<event>
 7    1  0.2559882E-004  0.5365012E+03  0.7546771E-02  0.9321646E-01
        -11   -1    0    0    0    0  0.00000000000E+00  0.00000000000E+00  0.50000000000E+03  0.50000000000E+03  0.00000000000E+00 0. -1.
         11   -1    0    0    0    0 -0.00000000000E+00 -0.00000000000E+00 -0.50000000000E+03  0.50000000000E+03  0.00000000000E+00 0. -1.
         23    2    1    2    0    0 -0.13888412798E+02 -0.60523452229E+02  0.50122097869E+02  0.12695422101E+03  0.98737901827E+02 0.  0.
        -11    1    1    2    0    0 -0.59062587753E+01  0.39523767236E+01  0.40948534079E+03  0.40954700523E+03  0.00000000000E+00 0. -1.
         11    1    1    2    0    0  0.19794671573E+02  0.56571075505E+02 -0.45960743866E+03  0.46349877376E+03  0.00000000000E+00 0. -1.
        -15    1    3    3    0    0  0.30472816523E+01 -0.35831701417E+02 -0.26476890937E+02  0.44692060085E+02  0.17770000000E+01 0.  1.
         15    1    3    3    0    0 -0.16935694450E+02 -0.24691750812E+02  0.76598988806E+02  0.82262160923E+02  0.17770000000E+01 0. -1.
</event>
<event>
 7    1  0.2559882E-004  0.4970623E+03  0.7546771E-02  0.9406407E-01
        -11   -1    0    0    0    0  0.00000000000E+00  0.00000000000E+00  0.50000000000E+03  0.50000000000E+03  0.00000000000E+00 0.  1.
         11   -1    0    0    0    0 -0.00000000000E+00 -0.00000000000E+00 -0.50000000000E+03  0.50000000000E+03  0.00000000000E+00 0.  1.
         23    2    1    2    0    0  0.95506747256E+01 -0.16470160710E+02 -0.48811960323E+03  0.49718595114E+03  0.92577758540E+02 0.  0.
        -11    1    1    2    0    0  0.33120288927E+01  0.98505000990E+01  0.48823684766E+03  0.48834743912E+03  0.00000000000E+00 0.  1.
         11    1    1    2    0    0 -0.12862703618E+02  0.66196606113E+01 -0.11724442659E+00  0.14466609735E+02  0.00000000000E+00 0.  1.
        -15    1    3    3    0    0  0.20601640220E+01 -0.36358219606E+02 -0.46213263265E+03  0.46356864896E+03  0.17770000000E+01 0.  1.
         15    1    3    3    0    0  0.74905107037E+01  0.19888058896E+02 -0.25986970578E+02  0.33617302183E+02  0.17770000000E+01 0. -1.
</event>
<event>
 7    1  0.2559882E-004  0.5242934E+03  0.7546771E-02  0.9347034E-01
        -11   -1    0    0    0    0  0.00000000000E+00  0.00000000000E+00  0.50000000000E+03  0.50000000000E+03  0.00000000000E+00 0.  1.
         11   -1    0    0    0    0 -0.00000000000E+00 -0.00000000000E+00 -0.50000000000E+03  0.50000000000E+03  0.00000000000E+00 0.  1.
         23    2    1    2    0    0  0.12915786060E+02 -0.71443167907E+02 -0.20837435322E+03  0.23728171375E+03  0.87245612103E+02 0.  0.
        -11    1    1    2    0    0 -0.12185563745E+02 -0.37002094965E+02  0.47410878796E+03  0.47570661737E+03  0.00000000000E+00 0.  1.
         11    1    1    2    0    0 -0.73022231489E+00  0.10844526287E+03 -0.26573443474E+03  0.28701166888E+03  0.00000000000E+00 0.  1.
        -15    1    3    3    0    0 -0.42833306192E+00 -0.33797613204E+02 -0.19050750221E+03  0.19349089967E+03  0.17770000000E+01 0.  1.
         15    1    3    3    0    0  0.13344119122E+02 -0.37645554704E+02 -0.17866851009E+02  0.43790814083E+02  0.17770000000E+01 0. -1.
</event>
<event>
 7    1  0.2559882E-004  0.4894689E+03  0.7546771E-02  0.9423687E-01
        -11   -1    0    0    0    0  0.00000000000E+00  0.00000000000E+00  0.50000000000E+03  0.50000000000E+03  0.00000000000E+00 0. -1.
         11   -1    0    0    0    0 -0.00000000000E+00 -0.00000000000E+00 -0.50000000000E+03  0.50000000000E+03  0.00000000000E+00 0.  1.
         23    2    1    2    0    0 -0.38263841438E+02  0.84507258392E+01 -0.47604954085E+03  0.48610086371E+03  0.90196164165E+02 0.  0.
        -11    1    1    2    0    0  0.10695235175E+02 -0.59639969793E+01  0.48473368559E+03  0.48488834103E+03  0.00000000000E+00 0. -1.
         11    1    1    2    0    0  0.27568606262E+02 -0.24867288600E+01 -0.86841447431E+01  0.29010795260E+02  0.00000000000E+00 0.  1.
        -15    1    3    3    0    0 -0.93336665634E+01  0.42976989218E+02 -0.13280590830E+03  0.13990963492E+03  0.17770000000E+01 0. -1.
         15    1    3    3    0    0 -0.28930174875E+02 -0.34526263379E+02 -0.34324363255E+03  0.34619122880E+03  0.17770000000E+01 0.  1.
</event>
<event>
 7    1  0.2559882E-004  0.3464014E+03  0.7546771E-02  0.9829539E-01
        -11   -1    0    0    0    0  0.00000000000E+00  0.00000000000E+00  0.50000000000E+03  0.50000000000E+03  0.00000000000E+00 0.  1.
         11   -1    0    0    0    0 -0.00000000000E+00 -0.00000000000E+00 -0.50000000000E+03  0.50000000000E+03  0.00000000000E+00 0. -1.
         23    2    1    2    0    0 -0.30262512717E+02 -0.26623075987E+03 -0.19755421499E+03  0.34517251418E+03  0.91223678434E+02 0.  0.
        -11    1    1    2    0    0 -0.66932152836E+02  0.85723160210E+02  0.37079798664E+03  0.38641884035E+03  0.00000000000E+00 0.  1.
         11    1    1    2    0    0  0.97194665553E+02  0.18050759966E+03 -0.17324377165E+03  0.26840864547E+03  0.00000000000E+00 0. -1.
        -15    1    3    3    0    0 -0.11396055824E+02 -0.17057866601E+01 -0.28182752970E+02  0.30499263769E+02  0.17770000000E+01 0. -1.
         15    1    3    3    0    0 -0.18866456892E+02 -0.26452497321E+03 -0.16937146202E+03  0.31467325042E+03  0.17770000000E+01 0.  1.
</event>
<event>
 7    1  0.2559882E-004  0.5147826E+03  0.7546771E-02  0.9367327E-01
        -11   -1    0    0    0    0  0.00000000000E+00  0.00000000000E+00  0.50000000000E+03  0.50000000000E+03  0.00000000000E+00 0. -1.
         11   -1    0    0    0    0 -0.00000000000E+00 -0.00000000000E+00 -0.50000000000E+03  0.50000000000E+03  0.00000000000E+00 0. -1.
         23    2    1    2    0    0 -0.95956430091E+02 -0.38448361419E+02  0.22191333339E+03  0.26117002722E+03  0.90985397787E+02 0.  0.
        -11    1    1    2    0    0  0.92022832835E+01 -0.65384202893E+01  0.25336118073E+03  0.25361254081E+03  0.00000000000E+00 0. -1.
         11    1    1    2    0    0  0.86754146808E+02  0.44986781709E+02 -0.47527451412E+03  0.48521743197E+03  0.00000000000E+00 0. -1.
        -15    1    3    3    0    0  0.36989084815E+01 -0.34301217794E+02  0.34286761691E+02  0.48672325015E+02  0.17770000000E+01 0.  1.
         15    1    3    3    0    0 -0.99655338573E+02 -0.41471436256E+01  0.18762657170E+03  0.21249770220E+03  0.17770000000E+01 0. -1.
</event>
<event>
 7    1  0.2559882E-004  0.4956279E+03  0.7546771E-02  0.9409646E-01
        -11   -1    0    0    0    0  0.00000000000E+00  0.00000000000E+00  0.50000000000E+03  0.50000000000E+03  0.00000000000E+00 0.  1.
         11   -1    0    0    0    0 -0.00000000000E+00 -0.00000000000E+00 -0.50000000000E+03  0.50000000000E+03  0.00000000000E+00 0.  1.
         23    2    1    2    0    0  0.17182722956E+02  0.47143544817E+01 -0.48433040412E+03  0.49338305897E+03  0.92376573973E+02 0.  0.
        -11    1    1    2    0    0 -0.57854755359E+01  0.73016764186E+01  0.48925120429E+03  0.48933988915E+03  0.00000000000E+00 0.  1.
         11    1    1    2    0    0 -0.11397247420E+02 -0.12016030900E+02 -0.49208001731E+01  0.17277051881E+02  0.00000000000E+00 0.  1.
        -15    1    3    3    0    0  0.31591898337E+02  0.40426652416E+02 -0.34574922879E+03  0.34953976770E+03  0.17770000000E+01 0.  1.
         15    1    3    3    0    0 -0.14409175382E+02 -0.35712297935E+02 -0.13858117533E+03  0.14384329127E+03  0.17770000000E+01 0. -1.
</event>
<event>
 7    1  0.2559882E-004  0.4395414E+03  0.7546771E-02  0.9546283E-01
        -11   -1    0    0    0    0  0.00000000000E+00  0.00000000000E+00  0.50000000000E+03  0.50000000000E+03  0.00000000000E+00 0.  1.
         11   -1    0    0    0    0 -0.00000000000E+00 -0.00000000000E+00 -0.50000000000E+03  0.50000000000E+03  0.00000000000E+00 0. -1.
         23    2    1    2    0    0  0.14282290108E+02  0.63901189050E+02  0.33707741923E+02  0.11783774961E+03  0.91990095096E+02 0.  0.
        -11    1    1    2    0    0 -0.77936004965E+01 -0.25608495902E+02  0.42297991400E+03  0.42382607626E+03  0.00000000000E+00 0.  1.
         11    1    1    2    0    0 -0.64886896114E+01 -0.38292693148E+02 -0.45668765592E+03  0.45833617413E+03  0.00000000000E+00 0. -1.
        -15    1    3    3    0    0 -0.25737208501E+01  0.36159933119E+02  0.63888653107E+02  0.73478449406E+02  0.17770000000E+01 0. -1.
         15    1    3    3    0    0  0.16856010958E+02  0.27741255931E+02 -0.30180911184E+02  0.44359300208E+02  0.17770000000E+01 0.  1.
</event>
<event>
 7    1  0.2559882E-004  0.5159880E+03  0.7546771E-02  0.9364729E-01
        -11   -1    0    0    0    0  0.00000000000E+00  0.00000000000E+00  0.50000000000E+03  0.50000000000E+03  0.00000000000E+00 0.  1.
         11   -1    0    0    0    0 -0.00000000000E+00 -0.00000000000E+00 -0.50000000000E+03  0.50000000000E+03  0.00000000000E+00 0. -1.
         23    2    1    2    0    0  0.38559580659E+02  0.62546605782E+02 -0.25156580243E+03  0.27751548533E+03  0.91271969886E+02 0.  0.
        -11    1    1    2    0    0 -0.87239278426E+02  0.14181202778E+01  0.47608290758E+03  0.48401202222E+03  0.00000000000E+00 0.  1.
         11    1    1    2    0    0  0.48679697768E+02 -0.63964726060E+02 -0.22451710514E+03  0.23847249245E+03  0.00000000000E+00 0. -1.
        -15    1    3    3    0    0 -0.55038894653E+01  0.70204136990E+02 -0.17762091988E+03  0.19107920493E+03  0.17770000000E+01 0. -1.
         15    1    3    3    0    0  0.44063470124E+02 -0.76575312082E+01 -0.73944882558E+02  0.86436280398E+02  0.17770000000E+01 0.  1.
</event>
<event>
 7    1  0.2559882E-004  0.4384057E+03  0.7546771E-02  0.9549271E-01
        -11   -1    0    0    0    0  0.00000000000E+00  0.00000000000E+00  0.50000000000E+03  0.50000000000E+03  0.00000000000E+00 0. -1.
         11   -1    0    0    0    0 -0.00000000000E+00 -0.00000000000E+00 -0.50000000000E+03  0.50000000000E+03  0.00000000000E+00 0. -1.
         23    2    1    2    0    0 -0.34877813055E+02 -0.62599334953E+02  0.24765908533E+02  0.11991662098E+03  0.92905904994E+02 0.  0.
        -11    1    1    2    0    0  0.17097790824E+02  0.10461443736E+01  0.42521713137E+03  0.42556202565E+03  0.00000000000E+00 0. -1.
         11    1    1    2    0    0  0.17780022232E+02  0.61553190579E+02 -0.44998303990E+03  0.45452135336E+03  0.00000000000E+00 0. -1.
        -15    1    3    3    0    0 -0.14563059727E+02  0.29478042868E+01  0.45749850647E+02  0.48135006200E+02  0.17770000000E+01 0. -1.
         15    1    3    3    0    0 -0.20314753329E+02 -0.65547139240E+02 -0.20983942114E+02  0.71781614783E+02  0.17770000000E+01 0.  1.
</event>
<event>
 7    1  0.2603155E-004  0.5083016E+03  0.7546771E-02  0.9381423E-01
        -11   -1    0    0    0    0  0.00000000000E+00  0.00000000000E+00  0.50000000000E+03  0.50000000000E+03  0.00000000000E+00 0. -1.
         11   -1    0    0    0    0 -0.00000000000E+00 -0.00000000000E+00 -0.50000000000E+03  0.50000000000E+03  0.00000000000E+00 0.  1.
         23    2    1    2    0    0 -0.13408302622E+02 -0.15133978292E+02  0.26696774120E+03  0.28342308807E+03  0.92994903802E+02 0.  0.
        -11    1    1    2    0    0  0.53962559849E+01 -0.34450798701E+02  0.22215846191E+03  0.22487854346E+03  0.00000000000E+00 0. -1.
         11    1    1    2    0    0  0.80120466374E+01  0.49584776994E+02 -0.48912620310E+03  0.49169836848E+03  0.00000000000E+00 0.  1.
        -15    1    3    3    0    0 -0.38514342824E+02  0.58409709948E+01  0.47191495144E+02  0.61218187561E+02  0.17770000000E+01 0.  1.
         15    1    3    3    0    0  0.25106040201E+02 -0.20974949287E+02  0.21977624605E+03  0.22220490051E+03  0.17770000000E+01 0. -1.
</event>
<event>
 7    1  0.2559882E-004  0.4352883E+03  0.7546771E-02  0.9557523E-01
        -11   -1    0    0    0    0  0.00000000000E+00  0.00000000000E+00  0.50000000000E+03  0.50000000000E+03  0.00000000000E+00 0. -1.
         11   -1    0    0    0    0 -0.00000000000E+00 -0.00000000000E+00 -0.50000000000E+03  0.50000000000E+03  0.00000000000E+00 0.  1.
         23    2    1    2    0    0  0.11466527567E+03 -0.81137838486E+02 -0.41232029753E+03  0.44331426555E+03  0.82389538208E+02 0.  0.
        -11    1    1    2    0    0 -0.81585448739E+01  0.12272346268E+02  0.42856517899E+03  0.42881847556E+03  0.00000000000E+00 0. -1.
         11    1    1    2    0    0 -0.10650673080E+03  0.68865492218E+02 -0.16244881464E+02  0.12786725889E+03  0.00000000000E+00 0.  1.
        -15    1    3    3    0    0  0.11683900295E+03 -0.42861240894E+02 -0.31636386628E+03  0.33996719283E+03  0.17770000000E+01 0.  1.
         15    1    3    3    0    0 -0.21737272780E+01 -0.38276597592E+02 -0.95956431246E+02  0.10334707272E+03  0.17770000000E+01 0. -1.
</event>
<event>
 7    1  0.2559882E-004  0.4879256E+03  0.7546771E-02  0.9427240E-01
        -11   -1    0    0    0    0  0.00000000000E+00  0.00000000000E+00  0.50000000000E+03  0.50000000000E+03  0.00000000000E+00 0.  1.
         11   -1    0    0    0    0 -0.00000000000E+00 -0.00000000000E+00 -0.50000000000E+03  0.50000000000E+03  0.00000000000E+00 0.  1.
         23    2    1    2    0    0 -0.27292543342E+02 -0.17633923132E+02 -0.47716502385E+03  0.48662226888E+03  0.89771567978E+02 0.  0.
        -11    1    1    2    0    0 -0.23133135194E+01  0.63829288348E+01  0.48137911135E+03  0.48142698517E+03  0.00000000000E+00 0.  1.
         11    1    1    2    0    0  0.29605856861E+02  0.11250994297E+02 -0.42140875004E+01  0.31950745948E+02  0.00000000000E+00 0.  1.
        -15    1    3    3    0    0 -0.53662658584E+02  0.67324512692E+01 -0.36067519106E+03  0.36471188355E+03  0.17770000000E+01 0.  1.
         15    1    3    3    0    0  0.26370115242E+02 -0.24366374401E+02 -0.11648983280E+03  0.12191038534E+03  0.17770000000E+01 0. -1.
</event>
<event>
 7    1  0.2559882E-004  0.3050381E+03  0.7546771E-02  0.9987928E-01
        -11   -1    0    0    0    0  0.00000000000E+00  0.00000000000E+00  0.50000000000E+03  0.50000000000E+03  0.00000000000E+00 0. -1.
         11   -1    0    0    0    0 -0.00000000000E+00 -0.00000000000E+00 -0.50000000000E+03  0.50000000000E+03  0.00000000000E+00 0. -1.
         23    2    1    2    0    0  0.16245242680E+03  0.23888342205E+03 -0.11152925517E+03  0.32321891980E+03  0.92604616836E+02 0.  0.
        -11    1    1    2    0    0 -0.48752405229E+00 -0.84585905831E+02  0.34394975292E+03  0.35419831406E+03  0.00000000000E+00 0. -1.
         11    1    1    2    0    0 -0.16196490275E+03 -0.15429751622E+03 -0.23242049776E+03  0.32258276614E+03  0.00000000000E+00 0. -1.
        -15    1    3    3    0    0  0.68406092864E+02  0.13414568702E+03 -0.12516282104E+02  0.15111013842E+03  0.17770000000E+01 0.  1.
         15    1    3    3    0    0  0.94046333935E+02  0.10473773503E+03 -0.99012973063E+02  0.17210878138E+03  0.17770000000E+01 0. -1.
</event>
<event>
 7    1  0.2559882E-004  0.4452038E+03  0.7546771E-02  0.9531527E-01
        -11   -1    0    0    0    0  0.00000000000E+00  0.00000000000E+00  0.50000000000E+03  0.50000000000E+03  0.00000000000E+00 0. -1.
         11   -1    0    0    0    0 -0.00000000000E+00 -0.00000000000E+00 -0.50000000000E+03  0.50000000000E+03  0.00000000000E+00 0. -1.
         23    2    1    2    0    0 -0.20023765878E+02  0.47703603020E+02  0.99729906316E+01  0.10803491343E+03  0.94315942638E+02 0.  0.
        -11    1    1    2    0    0  0.10949216766E+02  0.14034869975E+01  0.43954404154E+03  0.43968263506E+03  0.00000000000E+00 0. -1.
         11    1    1    2    0    0  0.90745491126E+01 -0.49107090017E+02 -0.44951703217E+03  0.45228245151E+03  0.00000000000E+00 0. -1.
        -15    1    3    3    0    0  0.22700998802E+01 -0.15542827244E+02 -0.27110990844E+02  0.31383058897E+02  0.17770000000E+01 0. -1.
         15    1    3    3    0    0 -0.22293865759E+02  0.63246430264E+02  0.37083981476E+02  0.76651854528E+02  0.17770000000E+01 0.  1.
</event>
<event>
 7    1  0.2559882E-004  0.5116619E+03  0.7546771E-02  0.9374087E-01
        -11   -1    0    0    0    0  0.00000000000E+00  0.00000000000E+00  0.50000000000E+03  0.50000000000E+03  0.00000000000E+00 0.  1.
         11   -1    0    0    0    0 -0.00000000000E+00 -0.00000000000E+00 -0.50000000000E+03  0.50000000000E+03  0.00000000000E+00 0.  1.
         23    2    1    2    0    0  0.22700094601E+02  0.89553314998E+01 -0.37885592984E+03  0.39087634271E+03  0.93043040878E+02 0.  0.
        -11    1    1    2    0    0 -0.55549004450E+02  0.41943455497E+02  0.48335196528E+03  0.48833806701E+03  0.00000000000E+00 0.  1.
         11    1    1    2    0    0  0.32848909849E+02 -0.50898786997E+02 -0.10449603544E+03  0.12078559028E+03  0.00000000000E+00 0.  1.
        -15    1    3    3    0    0 -0.16717192484E+02  0.35031595507E+02 -0.87953601749E+02  0.96154412265E+02  0.17770000000E+01 0. -1.
         15    1    3    3    0    0  0.39417287085E+02 -0.26076264008E+02 -0.29090232809E+03  0.29472193044E+03  0.17770000000E+01 0.  1.
</event>
<event>
 7    1  0.2559882E-004  0.5039279E+03  0.7546771E-02  0.9391063E-01
        -11   -1    0    0    0    0  0.00000000000E+00  0.00000000000E+00  0.50000000000E+03  0.50000000000E+03  0.00000000000E+00 0.  1.
         11   -1    0    0    0    0 -0.00000000000E+00 -0.00000000000E+00 -0.50000000000E+03  0.50000000000E+03  0.00000000000E+00 0. -1.
         23    2    1    2    0    0 -0.98998045456E+02  0.59588877739E+02 -0.47391979755E+03  0.49607209963E+03  0.90200366745E+02 0.  0.
        -11    1    1    2    0    0  0.34467922651E+02 -0.24981037615E+02  0.39097585413E+03  0.39328642037E+03  0.00000000000E+00 0.  1.
         11    1    1    2    0    0  0.64530122805E+02 -0.34607840124E+02  0.82943943420E+02  0.11064148000E+03  0.00000000000E+00 0. -1.
        -15    1    3    3    0    0 -0.79711011784E+02 -0.38787712385E+01 -0.27699403876E+03  0.28826679570E+03  0.17770000000E+01 0. -1.
         15    1    3    3    0    0 -0.19287033673E+02  0.63467648978E+02 -0.19692575880E+03  0.20780530393E+03  0.17770000000E+01 0.  1.
</event>
<event>
 7    1  0.2559882E-004  0.5000274E+03  0.7546771E-02  0.9399749E-01
        -11   -1    0    0    0    0  0.00000000000E+00  0.00000000000E+00  0.50000000000E+03  0.50000000000E+03  0.00000000000E+00 0. -1.
         11   -1    0    0    0    0 -0.00000000000E+00 -0.00000000000E+00 -0.50000000000E+03  0.50000000000E+03  0.00000000000E+00 0.  1.
         23    2    1    2    0    0 -0.68352377380E+00 -0.14330631236E+01 -0.49142644846E+03  0.49997264556E+03  0.92033532964E+02 0.  0.
        -11    1    1    2    0    0 -0.96247787428E+01  0.22728463677E+02  0.46014438902E+03  0.46080590076E+03  0.00000000000E+00 0. -1.
         11    1    1    2    0    0  0.10308302517E+02 -0.21295400554E+02  0.31282059440E+02  0.39221453675E+02  0.00000000000E+00 0.  1.
        -15    1    3    3    0    0 -0.29220632169E+02  0.57386864439E+01 -0.43749409242E+03  0.43850999589E+03  0.17770000000E+01 0.  1.
         15    1    3    3    0    0  0.28537108395E+02 -0.71717495676E+01 -0.53932356044E+02  0.61462649673E+02  0.17770000000E+01 0. -1.
</event>
<event>
 7    1  0.2559882E-004  0.5165324E+03  0.7546771E-02  0.9363559E-01
        -11   -1    0    0    0    0  0.00000000000E+00  0.00000000000E+00  0.50000000000E+03  0.50000000000E+03  0.00000000000E+00 0.  1.
         11   -1    0    0    0    0 -0.00000000000E+00 -0.00000000000E+00 -0.50000000000E+03  0.50000000000E+03  0.00000000000E+00 0. -1.
         23    2    1    2    0    0  0.44451296914E+02  0.26643980935E+02 -0.18784874143E+03  0.21541158430E+03  0.91810573872E+02 0.  0.
        -11    1    1    2    0    0  0.13091809433E+02 -0.13141377018E+02  0.48311165653E+03  0.48346764519E+03  0.00000000000E+00 0.  1.
         11    1    1    2    0    0 -0.57543106347E+02 -0.13502603917E+02 -0.29526291510E+03  0.30112077051E+03  0.00000000000E+00 0. -1.
        -15    1    3    3    0    0  0.27440180424E+02  0.29715387650E+01 -0.18386824377E+03  0.18593676974E+03  0.17770000000E+01 0.  1.
         15    1    3    3    0    0  0.17011116490E+02  0.23672442170E+02 -0.39804976577E+01  0.29474814556E+02  0.17770000000E+01 0. -1.
</event>
<event>
 7    1  0.2559882E-004  0.3579101E+03  0.7546771E-02  0.9789652E-01
        -11   -1    0    0    0    0  0.00000000000E+00  0.00000000000E+00  0.50000000000E+03  0.50000000000E+03  0.00000000000E+00 0. -1.
         11   -1    0    0    0    0 -0.00000000000E+00 -0.00000000000E+00 -0.50000000000E+03  0.50000000000E+03  0.00000000000E+00 0.  1.
         23    2    1    2    0    0 -0.18689276397E+02  0.13996447105E+03 -0.18254079590E+03  0.24789686835E+03  0.90511728300E+02 0.  0.
        -11    1    1    2    0    0  0.94562234907E+02  0.39410409214E+02  0.42724382976E+03  0.43935462521E+03  0.00000000000E+00 0. -1.
         11    1    1    2    0    0 -0.75872958510E+02 -0.17937488026E+03 -0.24470303386E+03  0.31274850644E+03  0.00000000000E+00 0.  1.
        -15    1    3    3    0    0 -0.43529169343E+02  0.12715391269E+03 -0.12342169367E+03  0.18248007643E+03  0.17770000000E+01 0. -1.
         15    1    3    3    0    0  0.24839892947E+02  0.12810558357E+02 -0.59119102234E+02  0.65416791919E+02  0.17770000000E+01 0.  1.
</event>
<event>
 7    1  0.2559882E-004  0.4428686E+03  0.7546771E-02  0.9537584E-01
        -11   -1    0    0    0    0  0.00000000000E+00  0.00000000000E+00  0.50000000000E+03  0.50000000000E+03  0.00000000000E+00 0. -1.
         11   -1    0    0    0    0 -0.00000000000E+00 -0.00000000000E+00 -0.50000000000E+03  0.50000000000E+03  0.00000000000E+00 0. -1.
         23    2    1    2    0    0  0.52336138338E+02  0.63281818114E+02 -0.39410920924E+03  0.41330401679E+03  0.93565386804E+02 0.  0.
        -11    1    1    2    0    0  0.18229796865E+02 -0.95515169350E+01  0.46970611193E+03  0.47015677019E+03  0.00000000000E+00 0. -1.
         11    1    1    2    0    0 -0.70565935204E+02 -0.53730301179E+02 -0.75596902689E+02  0.11653921302E+03  0.00000000000E+00 0. -1.
        -15    1    3    3    0    0  0.45920632953E+02 -0.78377290157E+01 -0.95511930828E+02  0.10628180082E+03  0.17770000000E+01 0.  1.
         15    1    3    3    0    0  0.64155053857E+01  0.71119547129E+02 -0.29859727841E+03  0.30702221597E+03  0.17770000000E+01 0. -1.
</event>
<event>
 6    1  0.2559882E-004  0.3426006E+03  0.7546771E-02  0.9843078E-01
        -11   -1    0    0    0    0  0.00000000000E+00  0.00000000000E+00  0.50000000000E+03  0.50000000000E+03  0.00000000000E+00 0.  1.
         11   -1    0    0    0    0 -0.00000000000E+00 -0.00000000000E+00 -0.50000000000E+03  0.50000000000E+03  0.00000000000E+00 0.  1.
        -11    1    1    2    0    0  0.50444338777E+02  0.83790041578E+02  0.30779348047E+03  0.32295855617E+03  0.00000000000E+00 0.  1.
         11    1    1    2    0    0 -0.27366823308E+03 -0.22817319416E+02 -0.16845581592E+03  0.32216811416E+03  0.00000000000E+00 0.  1.
        -15    1    1    2    0    0  0.93422005356E+02  0.86501295242E+02 -0.33294385708E+02  0.13161238168E+03  0.17770000000E+01 0.  1.
         15    1    1    2    0    0  0.12980188895E+03 -0.14747401740E+03 -0.10604327884E+03  0.22326094799E+03  0.17770000000E+01 0. -1.
</event>
<event>
 7    1  0.2559882E-004  0.4796343E+03  0.7546771E-02  0.9446569E-01
        -11   -1    0    0    0    0  0.00000000000E+00  0.00000000000E+00  0.50000000000E+03  0.50000000000E+03  0.00000000000E+00 0. -1.
         11   -1    0    0    0    0 -0.00000000000E+00 -0.00000000000E+00 -0.50000000000E+03  0.50000000000E+03  0.00000000000E+00 0. -1.
         23    2    1    2    0    0 -0.10852955994E+02  0.18296404016E+02 -0.45830378384E+03  0.46843207565E+03  0.94518284784E+02 0.  0.
        -11    1    1    2    0    0  0.35202608797E+02  0.17442579601E+02  0.48108661252E+03  0.48268809391E+03  0.00000000000E+00 0. -1.
         11    1    1    2    0    0 -0.24349652803E+02 -0.35738983617E+02 -0.22782828680E+02  0.48879830444E+02  0.00000000000E+00 0. -1.
        -15    1    3    3    0    0 -0.20927586977E+02  0.54941547693E+02 -0.27396907887E+03  0.28021197595E+03  0.17770000000E+01 0. -1.
         15    1    3    3    0    0  0.10074630983E+02 -0.36645143677E+02 -0.18433470497E+03  0.18822009970E+03  0.17770000000E+01 0.  1.
</event>
<event>
 7    1  0.2559882E-004  0.3347975E+03  0.7546771E-02  0.9871474E-01
        -11   -1    0    0    0    0  0.00000000000E+00  0.00000000000E+00  0.50000000000E+03  0.50000000000E+03  0.00000000000E+00 0.  1.
         11   -1    0    0    0    0 -0.00000000000E+00 -0.00000000000E+00 -0.50000000000E+03  0.50000000000E+03  0.00000000000E+00 0. -1.
         23    2    1    2    0    0  0.12515125970E+03 -0.37428092427E+03 -0.92751238272E+02  0.41582176748E+03  0.92498119106E+02 0.  0.
        -11    1    1    2    0    0  0.12360492611E+03  0.27303950137E+03 -0.99967441308E+00  0.29971610971E+03  0.00000000000E+00 0.  1.
         11    1    1    2    0    0 -0.24875618580E+03  0.10124142289E+03  0.93750912685E+02  0.28446212281E+03  0.00000000000E+00 0. -1.
        -15    1    3    3    0    0  0.12551474791E+03 -0.37601720021E+03 -0.82035571192E+02  0.40481585872E+03  0.17770000000E+01 0.  1.
         15    1    3    3    0    0 -0.36348821465E+00  0.17362759437E+01 -0.10715667080E+02  0.11005908768E+02  0.17770000000E+01 0. -1.
</event>
<event>
 7    1  0.2559882E-004  0.5195892E+03  0.7546771E-02  0.9357014E-01
        -11   -1    0    0    0    0  0.00000000000E+00  0.00000000000E+00  0.50000000000E+03  0.50000000000E+03  0.00000000000E+00 0.  1.
         11   -1    0    0    0    0 -0.00000000000E+00 -0.00000000000E+00 -0.50000000000E+03  0.50000000000E+03  0.00000000000E+00 0. -1.
         23    2    1    2    0    0 -0.98042403072E+01  0.17896963134E+02 -0.36469802697E+03  0.37664523267E+03  0.91872498598E+02 0.  0.
        -11    1    1    2    0    0  0.10261753844E+03  0.12192778119E+02  0.46916468072E+03  0.48041078325E+03  0.00000000000E+00 0.  1.
         11    1    1    2    0    0 -0.92813298136E+02 -0.30089741253E+02 -0.10446665374E+03  0.14294398408E+03  0.00000000000E+00 0. -1.
        -15    1    3    3    0    0 -0.48774125951E+02  0.24166827844E+02 -0.22135920919E+03  0.22796054078E+03  0.17770000000E+01 0. -1.
         15    1    3    3    0    0  0.38969885643E+02 -0.62698647093E+01 -0.14333881778E+03  0.14868469189E+03  0.17770000000E+01 0.  1.
</event>
<event>
 7    1  0.2559882E-004  0.4789142E+03  0.7546771E-02  0.9448268E-01
        -11   -1    0    0    0    0  0.00000000000E+00  0.00000000000E+00  0.50000000000E+03  0.50000000000E+03  0.00000000000E+00 0.  1.
         11   -1    0    0    0    0 -0.00000000000E+00 -0.00000000000E+00 -0.50000000000E+03  0.50000000000E+03  0.00000000000E+00 0. -1.
         23    2    1    2    0    0 -0.12306516190E+02  0.76824409455E+01 -0.44683439949E+03  0.45622449907E+03  0.90935926571E+02 0.  0.
        -11    1    1    2    0    0  0.79132917078E+01  0.67406536881E+01  0.49407646040E+03  0.49418580040E+03  0.00000000000E+00 0.  1.
         11    1    1    2    0    0  0.43932244825E+01 -0.14423094634E+02 -0.47242060904E+02  0.49589700530E+02  0.00000000000E+00 0. -1.
        -15    1    3    3    0    0 -0.50276180881E+02 -0.63606129280E+01 -0.27873096143E+03  0.28330594479E+03  0.17770000000E+01 0.  1.
         15    1    3    3    0    0  0.37969664691E+02  0.14043053874E+02 -0.16810343806E+03  0.17291855428E+03  0.17770000000E+01 0. -1.
</event>
<event>
 7    1  0.2559882E-004  0.5011023E+03  0.7546771E-02  0.9397347E-01
        -11   -1    0    0    0    0  0.00000000000E+00  0.00000000000E+00  0.50000000000E+03  0.50000000000E+03  0.00000000000E+00 0. -1.
         11   -1    0    0    0    0 -0.00000000000E+00 -0.00000000000E+00 -0.50000000000E+03  0.50000000000E+03  0.00000000000E+00 0. -1.
         23    2    1    2    0    0 -0.32880276857E+01 -0.29158795757E+01 -0.49091763622E+03  0.49919940677E+03  0.90446717443E+02 0.  0.
        -11    1    1    2    0    0  0.52163901746E+01  0.71537688590E+01  0.49471389224E+03  0.49479311062E+03  0.00000000000E+00 0. -1.
         11    1    1    2    0    0 -0.19283624889E+01 -0.42378892833E+01 -0.37962560283E+01  0.60074826091E+01  0.00000000000E+00 0. -1.
        -15    1    3    3    0    0  0.26946002836E+02  0.32814477326E+02 -0.19311551200E+03  0.19773627815E+03  0.17770000000E+01 0.  1.
         15    1    3    3    0    0 -0.30234030522E+02 -0.35730356901E+02 -0.29780212422E+03  0.30146312863E+03  0.17770000000E+01 0. -1.
</event>
<event>
 7    1  0.2559882E-004  0.5159975E+03  0.7546771E-02  0.9364709E-01
        -11   -1    0    0    0    0  0.00000000000E+00  0.00000000000E+00  0.50000000000E+03  0.50000000000E+03  0.00000000000E+00 0.  1.
         11   -1    0    0    0    0 -0.00000000000E+00 -0.00000000000E+00 -0.50000000000E+03  0.50000000000E+03  0.00000000000E+00 0. -1.
         23    2    1    2    0    0 -0.34852780508E+02 -0.21029795269E+02 -0.27106580940E+03  0.28972342457E+03  0.93840402401E+02 0.  0.
        -11    1    1    2    0    0 -0.38497559146E+02  0.87996141514E+02  0.47437643407E+03  0.48400246299E+03  0.00000000000E+00 0.  1.
         11    1    1    2    0    0  0.73350339654E+02 -0.66966346245E+02 -0.20331062467E+03  0.22627411244E+03  0.00000000000E+00 0. -1.
        -15    1    3    3    0    0  0.31053131178E+02 -0.35332416473E+01 -0.11919894447E+03  0.12324093007E+03  0.17770000000E+01 0.  1.
         15    1    3    3    0    0 -0.65905911686E+02 -0.17496553622E+02 -0.15186686493E+03  0.16648249450E+03  0.17770000000E+01 0. -1.
</event>
<event>
 7    1  0.2559882E-004  0.5356149E+03  0.7546771E-02  0.9323465E-01
        -11   -1    0    0    0    0  0.00000000000E+00  0.00000000000E+00  0.50000000000E+03  0.50000000000E+03  0.00000000000E+00 0.  1.
         11   -1    0    0    0    0 -0.00000000000E+00 -0.00000000000E+00 -0.50000000000E+03  0.50000000000E+03  0.00000000000E+00 0. -1.
         23    2    1    2    0    0  0.51679370677E+02  0.46635131050E+02 -0.24023502947E+03  0.26583586708E+03  0.90056904474E+02 0.  0.
        -11    1    1    2    0    0 -0.26306799764E+03 -0.18482964121E+03  0.33509211827E+03  0.46438507231E+03  0.00000000000E+00 0.  1.
         11    1    1    2    0    0  0.21138862696E+03  0.13819451016E+03 -0.94857088807E+02  0.26977906061E+03  0.00000000000E+00 0. -1.
        -15    1    3    3    0    0  0.32971563007E+02 -0.20595658467E+02 -0.12684256807E+03  0.13267818177E+03  0.17770000000E+01 0. -1.
         15    1    3    3    0    0  0.18707807670E+02  0.67230789517E+02 -0.11339246140E+03  0.13315768531E+03  0.17770000000E+01 0.  1.
</event>
<event>
 7    1  0.2559882E-004  0.4153526E+03  0.7546771E-02  0.9612096E-01
        -11   -1    0    0    0    0  0.00000000000E+00  0.00000000000E+00  0.50000000000E+03  0.50000000000E+03  0.00000000000E+00 0. -1.
         11   -1    0    0    0    0 -0.00000000000E+00 -0.00000000000E+00 -0.50000000000E+03  0.50000000000E+03  0.00000000000E+00 0. -1.
         23    2    1    2    0    0 -0.94329347958E+02 -0.69052979577E+02  0.24049508829E+02  0.16076468733E+03  0.10770592343E+03 0.  0.
        -11    1    1    2    0    0 -0.33553451297E+01  0.70799651610E+01  0.39980265126E+03  0.39987941207E+03  0.00000000000E+00 0. -1.
         11    1    1    2    0    0  0.97684693088E+02  0.61973014416E+02 -0.42385216009E+03  0.43935590060E+03  0.00000000000E+00 0. -1.
        -15    1    3    3    0    0  0.17431262239E+02  0.85525610257E+01  0.14608814962E+02  0.24363300411E+02  0.17770000000E+01 0. -1.
         15    1    3    3    0    0 -0.11176061020E+03 -0.77605540602E+02  0.94406938669E+01  0.13640138692E+03  0.17770000000E+01 0.  1.
</event>
<event>
 7    1  0.2559882E-004  0.4993706E+03  0.7546771E-02  0.9401219E-01
        -11   -1    0    0    0    0  0.00000000000E+00  0.00000000000E+00  0.50000000000E+03  0.50000000000E+03  0.00000000000E+00 0. -1.
         11   -1    0    0    0    0 -0.00000000000E+00 -0.00000000000E+00 -0.50000000000E+03  0.50000000000E+03  0.00000000000E+00 0. -1.
         23    2    1    2    0    0 -0.53391475941E+01  0.83056296005E+00 -0.48770236985E+03  0.49596747527E+03  0.90005214504E+02 0.  0.
        -11    1    1    2    0    0  0.34961082105E+01 -0.69568477271E+01  0.49457893969E+03  0.49464022086E+03  0.00000000000E+00 0. -1.
         11    1    1    2    0    0  0.18430393836E+01  0.61262847671E+01 -0.68765698461E+01  0.93923038742E+01  0.00000000000E+00 0. -1.
        -15    1    3    3    0    0  0.14782162913E+00 -0.37482442718E+02 -0.37332150144E+03  0.37520268726E+03  0.17770000000E+01 0. -1.
         15    1    3    3    0    0 -0.54869692233E+01  0.38313005678E+02 -0.11438086841E+03  0.12076478801E+03  0.17770000000E+01 0.  1.
</event>
<event>
 7    1  0.2559882E-004  0.4774999E+03  0.7546771E-02  0.9451612E-01
        -11   -1    0    0    0    0  0.00000000000E+00  0.00000000000E+00  0.50000000000E+03  0.50000000000E+03  0.00000000000E+00 0.  1.
         11   -1    0    0    0    0 -0.00000000000E+00 -0.00000000000E+00 -0.50000000000E+03  0.50000000000E+03  0.00000000000E+00 0. -1.
         23    2    1    2    0    0  0.55527234888E+01  0.12339484006E+03  0.41634091640E+03  0.45066488631E+03  0.12042409143E+03 0.  0.
        -11    1    1    2    0    0 -0.90390539331E+00 -0.24650413794E-01  0.58601768676E+02  0.58608744608E+02  0.00000000000E+00 0.  1.
         11    1    1    2    0    0 -0.46488180955E+01 -0.12337018965E+03 -0.47494268507E+03  0.49072636908E+03  0.00000000000E+00 0. -1.
        -15    1    3    3    0    0  0.27701471616E+02  0.42913778003E+02  0.31611012381E+03  0.32021513390E+03  0.17770000000E+01 0.  1.
         15    1    3    3    0    0 -0.22148748127E+02  0.80481062061E+02  0.10023079258E+03  0.13044975241E+03  0.17770000000E+01 0. -1.
</event>
<event>
 7    1  0.2559882E-004  0.3759907E+03  0.7546771E-02  0.9730128E-01
        -11   -1    0    0    0    0  0.00000000000E+00  0.00000000000E+00  0.50000000000E+03  0.50000000000E+03  0.00000000000E+00 0. -1.
         11   -1    0    0    0    0 -0.00000000000E+00 -0.00000000000E+00 -0.50000000000E+03  0.50000000000E+03  0.00000000000E+00 0. -1.
         23    2    1    2    0    0  0.44678826097E+02 -0.19683986671E+03 -0.24042121061E+01  0.22139614843E+03  0.90930433151E+02 0.  0.
        -11    1    1    2    0    0 -0.37843512992E+02  0.60782951178E+02  0.37505756950E+03  0.38183095614E+03  0.00000000000E+00 0. -1.
         11    1    1    2    0    0 -0.68353131042E+01  0.13605691554E+03 -0.37265335739E+03  0.39677289543E+03  0.00000000000E+00 0. -1.
        -15    1    3    3    0    0  0.66234073047E+02 -0.14225007014E+03 -0.24167977365E+02  0.15877431702E+03  0.17770000000E+01 0. -1.
         15    1    3    3    0    0 -0.21555246951E+02 -0.54589796573E+02  0.21763765259E+02  0.62621831402E+02  0.17770000000E+01 0.  1.
</event>
<event>
 7    1  0.2559882E-004  0.5036046E+03  0.7546771E-02  0.9391780E-01
        -11   -1    0    0    0    0  0.00000000000E+00  0.00000000000E+00  0.50000000000E+03  0.50000000000E+03  0.00000000000E+00 0. -1.
         11   -1    0    0    0    0 -0.00000000000E+00 -0.00000000000E+00 -0.50000000000E+03  0.50000000000E+03  0.00000000000E+00 0. -1.
         23    2    1    2    0    0 -0.15489594096E+02  0.61971838624E+01 -0.49490350853E+03  0.50360458945E+03  0.91704782538E+02 0.  0.
        -11    1    1    2    0    0  0.50667947735E+01 -0.57836947220E+01  0.45750098437E+03  0.45756559555E+03  0.00000000000E+00 0. -1.
         11    1    1    2    0    0  0.10422799323E+02 -0.41348914036E+00  0.37402524168E+02  0.38829815003E+02  0.00000000000E+00 0. -1.
        -15    1    3    3    0    0 -0.23160592151E+02  0.57778883160E+01 -0.28861506552E+02  0.37495883929E+02  0.17770000000E+01 0.  1.
         15    1    3    3    0    0  0.76709980544E+01  0.41929554636E+00 -0.46604200198E+03  0.46610870552E+03  0.17770000000E+01 0. -1.
</event>
<event>
 7    1  0.2559882E-004  0.3625177E+03  0.7546771E-02  0.9774131E-01
        -11   -1    0    0    0    0  0.00000000000E+00  0.00000000000E+00  0.50000000000E+03  0.50000000000E+03  0.00000000000E+00 0.  1.
         11   -1    0    0    0    0 -0.00000000000E+00 -0.00000000000E+00 -0.50000000000E+03  0.50000000000E+03  0.00000000000E+00 0. -1.
         23    2    1    2    0    0 -0.12204259841E+03  0.45610825633E+02 -0.17616538711E+03  0.24257981900E+03  0.10409602166E+03 0.  0.
        -11    1    1    2    0    0 -0.71592025708E+01  0.22465549905E+02  0.44811716641E+03  0.44873706104E+03  0.00000000000E+00 0.  1.
         11    1    1    2    0    0  0.12920180099E+03 -0.68076375539E+02 -0.27195177930E+03  0.30868311996E+03  0.00000000000E+00 0. -1.
        -15    1    3    3    0    0  0.27498416175E+01 -0.10288448678E+02  0.78250467291E+01  0.13334275025E+02  0.17770000000E+01 0.  1.
         15    1    3    3    0    0 -0.12479244003E+03  0.55899274312E+02 -0.18399043384E+03  0.22924554397E+03  0.17770000000E+01 0. -1.
</event>
<event>
 7    1  0.2559882E-004  0.5031464E+03  0.7546771E-02  0.9392797E-01
        -11   -1    0    0    0    0  0.00000000000E+00  0.00000000000E+00  0.50000000000E+03  0.50000000000E+03  0.00000000000E+00 0.  1.
         11   -1    0    0    0    0 -0.00000000000E+00 -0.00000000000E+00 -0.50000000000E+03  0.50000000000E+03  0.00000000000E+00 0. -1.
         23    2    1    2    0    0 -0.26704755165E+01 -0.15391477424E+01 -0.49477459939E+03  0.50314644754E+03  0.91350659840E+02 0.  0.
        -11    1    1    2    0    0 -0.27689657202E+00  0.79178014308E+01  0.48352417919E+03  0.48358908188E+03  0.00000000000E+00 0.  1.
         11    1    1    2    0    0  0.29473720885E+01 -0.63786536884E+01  0.11250420205E+02  0.13264470585E+02  0.00000000000E+00 0. -1.
        -15    1    3    3    0    0  0.35166939498E+02 -0.22256559124E+02 -0.14991574149E+03  0.15559548622E+03  0.17770000000E+01 0.  1.
         15    1    3    3    0    0 -0.37837415014E+02  0.20717411381E+02 -0.34485885791E+03  0.34755096132E+03  0.17770000000E+01 0. -1.
</event>
<event>
 7    1  0.2559882E-004  0.4864183E+03  0.7546771E-02  0.9430723E-01
        -11   -1    0    0    0    0  0.00000000000E+00  0.00000000000E+00  0.50000000000E+03  0.50000000000E+03  0.00000000000E+00 0. -1.
         11   -1    0    0    0    0 -0.00000000000E+00 -0.00000000000E+00 -0.50000000000E+03  0.50000000000E+03  0.00000000000E+00 0.  1.
         23    2    1    2    0    0 -0.95366316126E+01 -0.15630829452E+02 -0.46353400350E+03  0.47318980831E+03  0.93324981208E+02 0.  0.
        -11    1    1    2    0    0  0.39809808872E+01 -0.59664990633E+01  0.49121298430E+03  0.49126534914E+03  0.00000000000E+00 0. -1.
         11    1    1    2    0    0  0.55556507254E+01  0.21597328515E+02 -0.27678980795E+02  0.35544842549E+02  0.00000000000E+00 0.  1.
        -15    1    3    3    0    0  0.18462240850E+02 -0.28297098586E+02 -0.63308773455E+02  0.71782579021E+02  0.17770000000E+01 0. -1.
         15    1    3    3    0    0 -0.27998872463E+02  0.12666269134E+02 -0.40022523005E+03  0.40140722929E+03  0.17770000000E+01 0.  1.
</event>
<event>
 7    1  0.2559882E-004  0.5010849E+03  0.7546771E-02  0.9397385E-01
        -11   -1    0    0    0    0  0.00000000000E+00  0.00000000000E+00  0.50000000000E+03  0.50000000000E+03  0.00000000000E+00 0.  1.
         11   -1    0    0    0    0 -0.00000000000E+00 -0.00000000000E+00 -0.50000000000E+03  0.50000000000E+03  0.00000000000E+00 0. -1.
         23    2    1    2    0    0 -0.11743419029E+02  0.27678259451E+01 -0.49297411851E+03  0.50108489607E+03  0.88977653381E+02 0.  0.
        -11    1    1    2    0    0  0.10026627747E+02  0.81662413591E+01  0.48524074205E+03  0.48541301847E+03  0.00000000000E+00 0.  1.
         11    1    1    2    0    0  0.17167912817E+01 -0.10934067304E+02  0.77333764619E+01  0.13502085454E+02  0.00000000000E+00 0. -1.
        -15    1    3    3    0    0 -0.26082080978E+02 -0.15415689602E+02 -0.45858302605E+03  0.45958619207E+03  0.17770000000E+01 0. -1.
         15    1    3    3    0    0  0.14338661949E+02  0.18183515547E+02 -0.34391092462E+02  0.41498704002E+02  0.17770000000E+01 0.  1.
</event>
<event>
 7    1  0.2559882E-004  0.5129004E+03  0.7546771E-02  0.9371398E-01
        -11   -1    0    0    0    0  0.00000000000E+00  0.00000000000E+00  0.50000000000E+03  0.50000000000E+03  0.00000000000E+00 0. -1.
         11   -1    0    0    0    0 -0.00000000000E+00 -0.00000000000E+00 -0.50000000000E+03  0.50000000000E+03  0.00000000000E+00 0. -1.
         23    2    1    2    0    0 -0.28277998501E+02  0.38789325052E+02 -0.30764177611E+03  0.32359016563E+03  0.88107184433E+02 0.  0.
        -11    1    1    2    0    0  0.14964169693E+01  0.16094500552E+02  0.48683130671E+03  0.48709957237E+03  0.00000000000E+00 0. -1.
         11    1    1    2    0    0  0.26781581532E+02 -0.54883825604E+02 -0.17918953060E+03  0.18931026200E+03  0.00000000000E+00 0. -1.
        -15    1    3    3    0    0 -0.18800119731E+02 -0.24809932071E+02 -0.15225998187E+03  0.15541955166E+03  0.17770000000E+01 0. -1.
         15    1    3    3    0    0 -0.94778787703E+01  0.63599257123E+02 -0.15538179424E+03  0.16817061397E+03  0.17770000000E+01 0.  1.
</event>
<event>
 7    1  0.2559882E-004  0.5002687E+03  0.7546771E-02  0.9399209E-01
        -11   -1    0    0    0    0  0.00000000000E+00  0.00000000000E+00  0.50000000000E+03  0.50000000000E+03  0.00000000000E+00 0.  1.
         11   -1    0    0    0    0 -0.00000000000E+00 -0.00000000000E+00 -0.50000000000E+03  0.50000000000E+03  0.00000000000E+00 0. -1.
         23    2    1    2    0    0  0.12564082394E+02  0.11349985707E+01 -0.49019271667E+03  0.49853700654E+03  0.89950558826E+02 0.  0.
        -11    1    1    2    0    0 -0.77896705550E+01 -0.58136934552E+01  0.49378061981E+03  0.49387627854E+03  0.00000000000E+00 0.  1.
         11    1    1    2    0    0 -0.47744118392E+01  0.46786948845E+01 -0.35879031497E+01  0.75867149178E+01  0.00000000000E+00 0. -1.
        -15    1    3    3    0    0 -0.31935870209E+02 -0.23174998254E+02 -0.18672469865E+03  0.19085662463E+03  0.17770000000E+01 0.  1.
         15    1    3    3    0    0  0.44499952603E+02  0.24309996825E+02 -0.30346801802E+03  0.30768038192E+03  0.17770000000E+01 0. -1.
</event>
<event>
 7    1  0.2559882E-004  0.5047517E+03  0.7546771E-02  0.9389240E-01
        -11   -1    0    0    0    0  0.00000000000E+00  0.00000000000E+00  0.50000000000E+03  0.50000000000E+03  0.00000000000E+00 0.  1.
         11   -1    0    0    0    0 -0.00000000000E+00 -0.00000000000E+00 -0.50000000000E+03  0.50000000000E+03  0.00000000000E+00 0. -1.
         23    2    1    2    0    0 -0.23909370402E+02 -0.54579126881E+02 -0.48308802709E+03  0.49524834323E+03  0.91358308157E+02 0.  0.
        -11    1    1    2    0    0  0.99863796858E+01 -0.52282007131E+01  0.40617897139E+03  0.40633535247E+03  0.00000000000E+00 0.  1.
         11    1    1    2    0    0  0.13922990716E+02  0.59807327594E+02  0.76909055699E+02  0.98416304304E+02  0.00000000000E+00 0. -1.
        -15    1    3    3    0    0  0.31158462378E+02 -0.12173928441E+02 -0.89440844511E+02  0.95508516412E+02  0.17770000000E+01 0.  1.
         15    1    3    3    0    0 -0.55067832781E+02 -0.42405198440E+02 -0.39364718258E+03  0.39973982682E+03  0.17770000000E+01 0. -1.
</event>
<event>
 7    1  0.2559882E-004  0.5187769E+03  0.7546771E-02  0.9358748E-01
        -11   -1    0    0    0    0  0.00000000000E+00  0.00000000000E+00  0.50000000000E+03  0.50000000000E+03  0.00000000000E+00 0. -1.
         11   -1    0    0    0    0 -0.00000000000E+00 -0.00000000000E+00 -0.50000000000E+03  0.50000000000E+03  0.00000000000E+00 0. -1.
         23    2    1    2    0    0 -0.25808451350E+02 -0.54599588732E+02 -0.35368271168E+03  0.37058402583E+03  0.92703119709E+02 0.  0.
        -11    1    1    2    0    0  0.19169254866E+01 -0.17555322494E+02  0.48089899155E+03  0.48122313330E+03  0.00000000000E+00 0. -1.
         11    1    1    2    0    0  0.23891525863E+02  0.72154911227E+02 -0.12721627987E+03  0.14819284087E+03  0.00000000000E+00 0. -1.
        -15    1    3    3    0    0 -0.52775707027E+02 -0.36092732929E+02 -0.30677426349E+03  0.31337129270E+03  0.17770000000E+01 0.  1.
         15    1    3    3    0    0  0.26967255677E+02 -0.18506855803E+02 -0.46908448196E+02  0.57212733125E+02  0.17770000000E+01 0. -1.
</event>
<event>
 7    1  0.2559882E-004  0.4915620E+03  0.7546771E-02  0.9418891E-01
        -11   -1    0    0    0    0  0.00000000000E+00  0.00000000000E+00  0.50000000000E+03  0.50000000000E+03  0.00000000000E+00 0. -1.
         11   -1    0    0    0    0 -0.00000000000E+00 -0.00000000000E+00 -0.50000000000E+03  0.50000000000E+03  0.00000000000E+00 0. -1.
         23    2    1    2    0    0 -0.95225464489E+01  0.16729623333E+02 -0.47499494263E+03  0.48384692567E+03  0.90094909758E+02 0.  0.
        -11    1    1    2    0    0  0.19164590569E+02 -0.19062107182E+00  0.49089375263E+03  0.49126774191E+03  0.00000000000E+00 0. -1.
         11    1    1    2    0    0 -0.96420441198E+01 -0.16539002261E+02 -0.15898809994E+02  0.24885332423E+02  0.00000000000E+00 0. -1.
        -15    1    3    3    0    0 -0.29987776631E+02 -0.69959801166E+01 -0.58164459909E+02  0.65836711723E+02  0.17770000000E+01 0.  1.
         15    1    3    3    0    0  0.20465230182E+02  0.23725603449E+02 -0.41683048273E+03  0.41801021395E+03  0.17770000000E+01 0. -1.
</event>
<event>
 7    1  0.2559882E-004  0.3214835E+03  0.7546771E-02  0.9921897E-01
        -11   -1    0    0    0    0  0.00000000000E+00  0.00000000000E+00  0.50000000000E+03  0.50000000000E+03  0.00000000000E+00 0.  1.
         11   -1    0    0    0    0 -0.00000000000E+00 -0.00000000000E+00 -0.50000000000E+03  0.50000000000E+03  0.00000000000E+00 0. -1.
         23    2    1    2    0    0 -0.15150421694E+03  0.52652215759E+02  0.23328228409E+03  0.29746674022E+03  0.91323895518E+02 0.  0.
        -11    1    1    2    0    0  0.20013336808E+03 -0.20610077603E+03  0.12228608890E+03  0.31222553137E+03  0.00000000000E+00 0.  1.
         11    1    1    2    0    0 -0.48629151133E+02  0.15344856027E+03 -0.35556837299E+03  0.39030772841E+03  0.00000000000E+00 0. -1.
        -15    1    3    3    0    0 -0.46133878055E+02  0.34489013677E+02  0.15374961140E+03  0.16419478526E+03  0.17770000000E+01 0.  1.
         15    1    3    3    0    0 -0.10537033889E+03  0.18163202082E+02  0.79532672682E+02  0.13327195497E+03  0.17770000000E+01 0. -1.
</event>
<event>
 7    1  0.2559882E-004  0.5191605E+03  0.7546771E-02  0.9357929E-01
        -11   -1    0    0    0    0  0.00000000000E+00  0.00000000000E+00  0.50000000000E+03  0.50000000000E+03  0.00000000000E+00 0.  1.
         11   -1    0    0    0    0 -0.00000000000E+00 -0.00000000000E+00 -0.50000000000E+03  0.50000000000E+03  0.00000000000E+00 0. -1.
         23    2    1    2    0    0  0.20505405635E+02 -0.65160652887E+02 -0.41451385392E+03  0.42930323843E+03  0.88392041977E+02 0.  0.
        -11    1    1    2    0    0 -0.75319344154E+01  0.58357975189E+01  0.48074509249E+03  0.48083950599E+03  0.00000000000E+00 0.  1.
         11    1    1    2    0    0 -0.12973471220E+02  0.59324855368E+02 -0.66231238565E+02  0.89857255588E+02  0.00000000000E+00 0. -1.
        -15    1    3    3    0    0 -0.10582798546E+01  0.44678957869E+01  0.28025128825E+01  0.56651439937E+01  0.17770000000E+01 0.  1.
         15    1    3    3    0    0  0.21563685490E+02 -0.69628548674E+02 -0.41731636680E+03  0.42363809443E+03  0.17770000000E+01 0. -1.
</event>
<event>
 7    1  0.3206959E-004  0.5261163E+03  0.7546771E-02  0.9343197E-01
        -11   -1    0    0    0    0  0.00000000000E+00  0.00000000000E+00  0.50000000000E+03  0.50000000000E+03  0.00000000000E+00 0. -1.
         11   -1    0    0    0    0 -0.00000000000E+00 -0.00000000000E+00 -0.50000000000E+03  0.50000000000E+03  0.00000000000E+00 0. -1.
         23    2    1    2    0    0 -0.70448941986E+02 -0.21315903582E+02  0.93958620914E+02  0.15161038313E+03  0.93488312940E+02 0.  0.
        -11    1    1    2    0    0  0.43385604601E+01 -0.74921486681E+01  0.37440583896E+03  0.37450592471E+03  0.00000000000E+00 0. -1.
         11    1    1    2    0    0  0.66110381526E+02  0.28808052250E+02 -0.46836445987E+03  0.47388369216E+03  0.00000000000E+00 0. -1.
        -15    1    3    3    0    0  0.17354580588E+01  0.67853146642E+01  0.70195639082E+02  0.70566548625E+02  0.17770000000E+01 0.  1.
         15    1    3    3    0    0 -0.72184400045E+02 -0.28101218246E+02  0.23762981832E+02  0.81043834505E+02  0.17770000000E+01 0. -1.
</event>
<event>
 7    1  0.2559882E-004  0.4259934E+03  0.7546771E-02  0.9582570E-01
        -11   -1    0    0    0    0  0.00000000000E+00  0.00000000000E+00  0.50000000000E+03  0.50000000000E+03  0.00000000000E+00 0. -1.
         11   -1    0    0    0    0 -0.00000000000E+00 -0.00000000000E+00 -0.50000000000E+03  0.50000000000E+03  0.00000000000E+00 0. -1.
         23    2    1    2    0    0  0.62540323889E+02  0.76165723178E+02 -0.11733973459E+02  0.14225192351E+03  0.10190885197E+03 0.  0.
        -11    1    1    2    0    0  0.48570827801E+00  0.95140874678E+01  0.42800094100E+03  0.42810694840E+03  0.00000000000E+00 0. -1.
         11    1    1    2    0    0 -0.63026032167E+02 -0.85679810646E+02 -0.41626696754E+03  0.42964112809E+03  0.00000000000E+00 0. -1.
        -15    1    3    3    0    0  0.58162709505E+02  0.98574916440E+02 -0.22957012057E+02  0.11674800666E+03  0.17770000000E+01 0.  1.
         15    1    3    3    0    0  0.43776143841E+01 -0.22409193262E+02  0.11223038598E+02  0.25503916850E+02  0.17770000000E+01 0. -1.
</event>
<event>
 7    1  0.2559882E-004  0.3270843E+03  0.7546771E-02  0.9900372E-01
        -11   -1    0    0    0    0  0.00000000000E+00  0.00000000000E+00  0.50000000000E+03  0.50000000000E+03  0.00000000000E+00 0. -1.
         11   -1    0    0    0    0 -0.00000000000E+00 -0.00000000000E+00 -0.50000000000E+03  0.50000000000E+03  0.00000000000E+00 0.  1.
         23    2    1    2    0    0  0.13165910855E+03  0.20919642955E+03 -0.12079211225E+03  0.29033495636E+03  0.92770606860E+02 0.  0.
        -11    1    1    2    0    0  0.68184290303E+01 -0.73437910774E+01  0.36427047273E+03  0.36440828687E+03  0.00000000000E+00 0. -1.
         11    1    1    2    0    0 -0.13847753758E+03 -0.20185263848E+03 -0.24347836047E+03  0.34525675677E+03  0.00000000000E+00 0.  1.
        -15    1    3    3    0    0  0.10388276641E+03  0.17870443582E+03 -0.57136742094E+02  0.21446367889E+03  0.17770000000E+01 0.  1.
         15    1    3    3    0    0  0.27776342145E+02  0.30491993734E+02 -0.63655370160E+02  0.75871277464E+02  0.17770000000E+01 0. -1.
</event>
<event>
 7    1  0.2559882E-004  0.4986944E+03  0.7546771E-02  0.9402736E-01
        -11   -1    0    0    0    0  0.00000000000E+00  0.00000000000E+00  0.50000000000E+03  0.50000000000E+03  0.00000000000E+00 0.  1.
         11   -1    0    0    0    0 -0.00000000000E+00 -0.00000000000E+00 -0.50000000000E+03  0.50000000000E+03  0.00000000000E+00 0.  1.
         23    2    1    2    0    0 -0.81018448125E+00 -0.19932226027E+02 -0.48762036405E+03  0.49646228397E+03  0.91122060635E+02 0.  0.
        -11    1    1    2    0    0  0.75993306435E+01  0.12776859319E+02  0.49236700309E+03  0.49259137598E+03  0.00000000000E+00 0.  1.
         11    1    1    2    0    0 -0.67891461623E+01  0.71553667075E+01 -0.47466390402E+01  0.10946340051E+02  0.00000000000E+00 0.  1.
        -15    1    3    3    0    0  0.34580071573E+02 -0.39556405524E+02 -0.25901644868E+03  0.26429750090E+03  0.17770000000E+01 0.  1.
         15    1    3    3    0    0 -0.35390256054E+02  0.19624179497E+02 -0.22860391537E+03  0.23216478307E+03  0.17770000000E+01 0. -1.
</event>
<event>
 7    1  0.2559882E-004  0.3761116E+03  0.7546771E-02  0.9729742E-01
        -11   -1    0    0    0    0  0.00000000000E+00  0.00000000000E+00  0.50000000000E+03  0.50000000000E+03  0.00000000000E+00 0.  1.
         11   -1    0    0    0    0 -0.00000000000E+00 -0.00000000000E+00 -0.50000000000E+03  0.50000000000E+03  0.00000000000E+00 0. -1.
         23    2    1    2    0    0 -0.10244500161E+03 -0.17573014529E+03 -0.40416876952E+03  0.46172139611E+03  0.91968424248E+02 0.  0.
        -11    1    1    2    0    0  0.26968150642E+01 -0.47344446601E+01  0.31262758686E+03  0.31267506432E+03  0.00000000000E+00 0.  1.
         11    1    1    2    0    0  0.99748186544E+02  0.18046458995E+03  0.91541182654E+02  0.22560353957E+03  0.00000000000E+00 0. -1.
        -15    1    3    3    0    0 -0.10261161233E+03 -0.18535071634E+03 -0.39538882220E+03  0.44857497644E+03  0.17770000000E+01 0.  1.
         15    1    3    3    0    0  0.16661071781E+00  0.96205710524E+01 -0.87799473128E+01  0.13146419677E+02  0.17770000000E+01 0. -1.
</event>
<event>
 6    1  0.2559882E-004  0.4179626E+03  0.7546771E-02  0.9604767E-01
        -11   -1    0    0    0    0  0.00000000000E+00  0.00000000000E+00  0.50000000000E+03  0.50000000000E+03  0.00000000000E+00 0.  1.
         11   -1    0    0    0    0 -0.00000000000E+00 -0.00000000000E+00 -0.50000000000E+03  0.50000000000E+03  0.00000000000E+00 0.  1.
        -11    1    1    2    0    0 -0.90236951146E+01 -0.18856863393E+02  0.41122450004E+03  0.41175550732E+03  0.00000000000E+00 0.  1.
         11    1    1    2    0    0  0.16382721160E+03 -0.48954348011E+01 -0.63371091852E+02  0.17572482984E+03  0.00000000000E+00 0.  1.
        -15    1    1    2    0    0 -0.98903982807E+02 -0.22170593235E+02 -0.64690989559E+02  0.12025645462E+03  0.17770000000E+01 0. -1.
         15    1    1    2    0    0 -0.55899533674E+02  0.45922891428E+02 -0.28316241863E+03  0.29226320822E+03  0.17770000000E+01 0.  1.
</event>
<event>
 7    1  0.2559882E-004  0.5067470E+03  0.7546771E-02  0.9384838E-01
        -11   -1    0    0    0    0  0.00000000000E+00  0.00000000000E+00  0.50000000000E+03  0.50000000000E+03  0.00000000000E+00 0. -1.
         11   -1    0    0    0    0 -0.00000000000E+00 -0.00000000000E+00 -0.50000000000E+03  0.50000000000E+03  0.00000000000E+00 0. -1.
         23    2    1    2    0    0 -0.86567703489E+01 -0.27695816471E+02 -0.36553733065E+03  0.37612828460E+03  0.83743348738E+02 0.  0.
        -11    1    1    2    0    0 -0.68848262260E+01  0.47498047089E+01  0.49318209001E+03  0.49325301355E+03  0.00000000000E+00 0. -1.
         11    1    1    2    0    0  0.15541596575E+02  0.22946011762E+02 -0.12764475936E+03  0.13061870184E+03  0.00000000000E+00 0. -1.
        -15    1    3    3    0    0  0.31594310348E+01  0.23930969232E+02 -0.43679263235E+02  0.49937050960E+02  0.17770000000E+01 0.  1.
         15    1    3    3    0    0 -0.11816201384E+02 -0.51626785703E+02 -0.32185806741E+03  0.32619123364E+03  0.17770000000E+01 0. -1.
</event>
<event>
 7    1  0.2559882E-004  0.4894242E+03  0.7546771E-02  0.9423790E-01
        -11   -1    0    0    0    0  0.00000000000E+00  0.00000000000E+00  0.50000000000E+03  0.50000000000E+03  0.00000000000E+00 0.  1.
         11   -1    0    0    0    0 -0.00000000000E+00 -0.00000000000E+00 -0.50000000000E+03  0.50000000000E+03  0.00000000000E+00 0. -1.
         23    2    1    2    0    0  0.24433746489E+02  0.73679929016E+01 -0.46825507693E+03  0.48041229908E+03  0.10431617683E+03 0.  0.
        -11    1    1    2    0    0 -0.33884094275E+01  0.66505062409E+01  0.48765764543E+03  0.48771476264E+03  0.00000000000E+00 0.  1.
         11    1    1    2    0    0 -0.21045337062E+02 -0.14018499142E+02 -0.19402568494E+02  0.31872938277E+02  0.00000000000E+00 0. -1.
        -15    1    3    3    0    0 -0.41129053499E+00 -0.25684958474E+02 -0.27332063374E+02  0.37551107427E+02  0.17770000000E+01 0.  1.
         15    1    3    3    0    0  0.24845037024E+02  0.33052951376E+02 -0.44092301356E+03  0.44286119166E+03  0.17770000000E+01 0. -1.
</event>
<event>
 7    1  0.2559882E-004  0.4940853E+03  0.7546771E-02  0.9413142E-01
        -11   -1    0    0    0    0  0.00000000000E+00  0.00000000000E+00  0.50000000000E+03  0.50000000000E+03  0.00000000000E+00 0.  1.
         11   -1    0    0    0    0 -0.00000000000E+00 -0.00000000000E+00 -0.50000000000E+03  0.50000000000E+03  0.00000000000E+00 0.  1.
         23    2    1    2    0    0  0.19899551365E+02  0.52992224610E+01 -0.48660106242E+03  0.49375759085E+03  0.81190459264E+02 0.  0.
        -11    1    1    2    0    0 -0.20358973812E+02  0.13056793886E+02  0.48726863072E+03  0.48786851319E+03  0.00000000000E+00 0.  1.
         11    1    1    2    0    0  0.45942244762E+00 -0.18356016347E+02 -0.66756830518E+00  0.18373895955E+02  0.00000000000E+00 0.  1.
        -15    1    3    3    0    0  0.48634016764E+02 -0.75411458498E+01 -0.35684948039E+03  0.36023165582E+03  0.17770000000E+01 0.  1.
         15    1    3    3    0    0 -0.28734465399E+02  0.12840368311E+02 -0.12975158203E+03  0.13352593504E+03  0.17770000000E+01 0. -1.
</event>
<event>
 7    1  0.2559882E-004  0.4372121E+03  0.7546771E-02  0.9552422E-01
        -11   -1    0    0    0    0  0.00000000000E+00  0.00000000000E+00  0.50000000000E+03  0.50000000000E+03  0.00000000000E+00 0. -1.
         11   -1    0    0    0    0 -0.00000000000E+00 -0.00000000000E+00 -0.50000000000E+03  0.50000000000E+03  0.00000000000E+00 0.  1.
         23    2    1    2    0    0 -0.81134021270E+01 -0.35291544657E+02 -0.39078233165E+03  0.40459972715E+03  0.98380831766E+02 0.  0.
        -11    1    1    2    0    0 -0.98833252126E+02  0.15379884703E+02  0.45715307683E+03  0.46796740082E+03  0.00000000000E+00 0. -1.
         11    1    1    2    0    0  0.10694665425E+03  0.19911659954E+02 -0.66370745180E+02  0.12743287203E+03  0.00000000000E+00 0.  1.
        -15    1    3    3    0    0 -0.41992779363E+02 -0.48868567102E+02 -0.19325696290E+03  0.20372270813E+03  0.17770000000E+01 0. -1.
         15    1    3    3    0    0  0.33879377236E+02  0.13577022445E+02 -0.19752536875E+03  0.20087701902E+03  0.17770000000E+01 0.  1.
</event>
<event>
 7    1  0.2559882E-004  0.5039736E+03  0.7546771E-02  0.9390962E-01
        -11   -1    0    0    0    0  0.00000000000E+00  0.00000000000E+00  0.50000000000E+03  0.50000000000E+03  0.00000000000E+00 0.  1.
         11   -1    0    0    0    0 -0.00000000000E+00 -0.00000000000E+00 -0.50000000000E+03  0.50000000000E+03  0.00000000000E+00 0. -1.
         23    2    1    2    0    0 -0.38946828413E+01 -0.63061786555E+00 -0.49577258622E+03  0.50397363402E+03  0.90462148458E+02 0.  0.
        -11    1    1    2    0    0  0.24844891218E+01 -0.64636296296E+01  0.35548657228E+03  0.35555401034E+03  0.00000000000E+00 0.  1.
         11    1    1    2    0    0  0.14101937196E+01  0.70942474951E+01  0.14028601394E+03  0.14047235565E+03  0.00000000000E+00 0. -1.
        -15    1    3    3    0    0 -0.36185667194E+01 -0.21205291250E+02 -0.47195599782E+03  0.47244934121E+03  0.17770000000E+01 0. -1.
         15    1    3    3    0    0 -0.27611612198E+00  0.20574673384E+02 -0.23816588399E+02  0.31524292807E+02  0.17770000000E+01 0.  1.
</event>
<event>
 7    1  0.2559882E-004  0.4890494E+03  0.7546771E-02  0.9424651E-01
        -11   -1    0    0    0    0  0.00000000000E+00  0.00000000000E+00  0.50000000000E+03  0.50000000000E+03  0.00000000000E+00 0. -1.
         11   -1    0    0    0    0 -0.00000000000E+00 -0.00000000000E+00 -0.50000000000E+03  0.50000000000E+03  0.00000000000E+00 0. -1.
         23    2    1    2    0    0 -0.85986165664E+00 -0.77043296447E+01 -0.46685451726E+03  0.47581695134E+03  0.91588944929E+02 0.  0.
        -11    1    1    2    0    0  0.12374040018E+02  0.14496249568E+01  0.49393863056E+03  0.49409572862E+03  0.00000000000E+00 0. -1.
         11    1    1    2    0    0 -0.11514178361E+02  0.62547046878E+01 -0.27084113301E+02  0.30087320043E+02  0.00000000000E+00 0. -1.
        -15    1    3    3    0    0  0.13508487758E+02  0.38015512732E+02 -0.28042900870E+03  0.28332180484E+03  0.17770000000E+01 0. -1.
         15    1    3    3    0    0 -0.14368349414E+02 -0.45719842377E+02 -0.18642550856E+03  0.19249514650E+03  0.17770000000E+01 0.  1.
</event>
<event>
 7    1  0.2559882E-004  0.5035599E+03  0.7546771E-02  0.9391879E-01
        -11   -1    0    0    0    0  0.00000000000E+00  0.00000000000E+00  0.50000000000E+03  0.50000000000E+03  0.00000000000E+00 0.  1.
         11   -1    0    0    0    0 -0.00000000000E+00 -0.00000000000E+00 -0.50000000000E+03  0.50000000000E+03  0.00000000000E+00 0.  1.
         23    2    1    2    0    0 -0.15953490339E+02 -0.86435512714E+00 -0.49525945397E+03  0.50355987770E+03  0.89640184740E+02 0.  0.
        -11    1    1    2    0    0  0.10233706583E+01  0.51978323029E+01  0.39026504717E+03  0.39030100153E+03  0.00000000000E+00 0.  1.
         11    1    1    2    0    0  0.14930119681E+02 -0.43334771757E+01  0.10499440680E+03  0.10613912077E+03  0.00000000000E+00 0.  1.
        -15    1    3    3    0    0 -0.83669461609E+01 -0.43944300735E+02 -0.30889613783E+03  0.31212351570E+03  0.17770000000E+01 0.  1.
         15    1    3    3    0    0 -0.75865441783E+01  0.43079945608E+02 -0.18636331614E+03  0.19143636201E+03  0.17770000000E+01 0. -1.
</event>
<event>
 7    1  0.2559882E-004  0.5061344E+03  0.7546771E-02  0.9386187E-01
        -11   -1    0    0    0    0  0.00000000000E+00  0.00000000000E+00  0.50000000000E+03  0.50000000000E+03  0.00000000000E+00 0.  1.
         11   -1    0    0    0    0 -0.00000000000E+00 -0.00000000000E+00 -0.50000000000E+03  0.50000000000E+03  0.00000000000E+00 0. -1.
         23    2    1    2    0    0 -0.69462747000E+02 -0.87317330424E+01  0.37428311188E+03  0.39166887072E+03  0.91735162666E+02 0.  0.
        -11    1    1    2    0    0 -0.37907192892E+02  0.71852561041E+01  0.10776722793E+03  0.11446553452E+03  0.00000000000E+00 0.  1.
         11    1    1    2    0    0  0.10736993989E+03  0.15464769383E+01 -0.48205033980E+03  0.49386559476E+03  0.00000000000E+00 0. -1.
        -15    1    3    3    0    0  0.27862783298E+01 -0.54493776110E+00  0.23061173087E+03  0.23063605193E+03  0.17770000000E+01 0.  1.
         15    1    3    3    0    0 -0.72249025330E+02 -0.81867952813E+01  0.14367138100E+03  0.16103281879E+03  0.17770000000E+01 0. -1.
</event>
<event>
 7    1  0.3641439E-004  0.5085584E+03  0.7546771E-02  0.9380861E-01
        -11   -1    0    0    0    0  0.00000000000E+00  0.00000000000E+00  0.50000000000E+03  0.50000000000E+03  0.00000000000E+00 0.  1.
         11   -1    0    0    0    0 -0.00000000000E+00 -0.00000000000E+00 -0.50000000000E+03  0.50000000000E+03  0.00000000000E+00 0.  1.
         23    2    1    2    0    0 -0.20565613349E+02 -0.59669586056E+02  0.20616188816E+03  0.22790698473E+03  0.73861123765E+02 0.  0.
        -11    1    1    2    0    0  0.15567433240E+01 -0.52830306579E+01  0.28059741573E+03  0.28065146281E+03  0.00000000000E+00 0.  1.
         11    1    1    2    0    0  0.19008870025E+02  0.64952616714E+02 -0.48675930389E+03  0.49144155246E+03  0.00000000000E+00 0.  1.
        -15    1    3    3    0    0  0.93843451079E+01  0.13365471726E+02  0.54511330256E+02  0.56932807966E+02  0.17770000000E+01 0. -1.
         15    1    3    3    0    0 -0.29949958457E+02 -0.73035057782E+02  0.15165055790E+03  0.17097417676E+03  0.17770000000E+01 0.  1.
</event>
<event>
 7    1  0.2559882E-004  0.5271797E+03  0.7546771E-02  0.9340966E-01
        -11   -1    0    0    0    0  0.00000000000E+00  0.00000000000E+00  0.50000000000E+03  0.50000000000E+03  0.00000000000E+00 0.  1.
         11   -1    0    0    0    0 -0.00000000000E+00 -0.00000000000E+00 -0.50000000000E+03  0.50000000000E+03  0.00000000000E+00 0. -1.
         23    2    1    2    0    0 -0.84480163916E+02 -0.39622919461E+00 -0.37197005757E+03  0.39193644353E+03  0.90085497958E+02 0.  0.
        -11    1    1    2    0    0 -0.13677690205E+01 -0.30367932558E+02  0.47184211810E+03  0.47282033220E+03  0.00000000000E+00 0.  1.
         11    1    1    2    0    0  0.85847932937E+02  0.30764161752E+02 -0.99872060535E+02  0.13524322428E+03  0.00000000000E+00 0. -1.
        -15    1    3    3    0    0 -0.69494951147E+02 -0.28862710107E+02 -0.15196940010E+03  0.16958909329E+03  0.17770000000E+01 0.  1.
         15    1    3    3    0    0 -0.14985212769E+02  0.28466480913E+02 -0.22000065747E+03  0.22234735023E+03  0.17770000000E+01 0. -1.
</event>
<event>
 7    1  0.2559882E-004  0.5281392E+03  0.7546771E-02  0.9338958E-01
        -11   -1    0    0    0    0  0.00000000000E+00  0.00000000000E+00  0.50000000000E+03  0.50000000000E+03  0.00000000000E+00 0.  1.
         11   -1    0    0    0    0 -0.00000000000E+00 -0.00000000000E+00 -0.50000000000E+03  0.50000000000E+03  0.00000000000E+00 0. -1.
         23    2    1    2    0    0 -0.30976260937E+02  0.17276179558E+02 -0.61121190198E+02  0.11645581583E+03  0.92564366940E+02 0.  0.
        -11    1    1    2    0    0  0.51135477773E+01 -0.49667697319E+01  0.47180695816E+03  0.47186080886E+03  0.00000000000E+00 0.  1.
         11    1    1    2    0    0  0.25862713160E+02 -0.12309409826E+02 -0.41068576796E+03  0.41168337531E+03  0.00000000000E+00 0. -1.
        -15    1    3    3    0    0 -0.27119520676E+02  0.51471070424E+01 -0.84973310514E+02  0.89362085592E+02  0.17770000000E+01 0. -1.
         15    1    3    3    0    0 -0.38567402613E+01  0.12129072516E+02  0.23852120316E+02  0.27093730236E+02  0.17770000000E+01 0.  1.
</event>
<event>
 7    1  0.2559882E-004  0.4465028E+03  0.7546771E-02  0.9528175E-01
        -11   -1    0    0    0    0  0.00000000000E+00  0.00000000000E+00  0.50000000000E+03  0.50000000000E+03  0.00000000000E+00 0. -1.
         11   -1    0    0    0    0 -0.00000000000E+00 -0.00000000000E+00 -0.50000000000E+03  0.50000000000E+03  0.00000000000E+00 0. -1.
         23    2    1    2    0    0 -0.18400010680E+02 -0.38578859852E+02 -0.20243228306E+01  0.10596971468E+03  0.96946344576E+02 0.  0.
        -11    1    1    2    0    0 -0.30325386970E+00 -0.11839248407E+02  0.44632751709E+03  0.44648461595E+03  0.00000000000E+00 0. -1.
         11    1    1    2    0    0  0.18703264550E+02  0.50418108259E+02 -0.44430319426E+03  0.44754566937E+03  0.00000000000E+00 0. -1.
        -15    1    3    3    0    0  0.14615489675E+01  0.12041025875E+02  0.37024300302E+02  0.39001012440E+02  0.17770000000E+01 0.  1.
         15    1    3    3    0    0 -0.19861559648E+02 -0.50619885727E+02 -0.39048623133E+02  0.66968702244E+02  0.17770000000E+01 0. -1.
</event>
<event>
 7    1  0.2559882E-004  0.4802235E+03  0.7546771E-02  0.9445182E-01
        -11   -1    0    0    0    0  0.00000000000E+00  0.00000000000E+00  0.50000000000E+03  0.50000000000E+03  0.00000000000E+00 0.  1.
         11   -1    0    0    0    0 -0.00000000000E+00 -0.00000000000E+00 -0.50000000000E+03  0.50000000000E+03  0.00000000000E+00 0. -1.
         23    2    1    2    0    0 -0.16794712303E+02 -0.13702991782E+02 -0.45421233639E+03  0.46379311499E+03  0.91243479981E+02 0.  0.
        -11    1    1    2    0    0 -0.84927843219E+01 -0.56456814303E+01  0.48896612149E+03  0.48907245789E+03  0.00000000000E+00 0.  1.
         11    1    1    2    0    0  0.25287496625E+02  0.19348673212E+02 -0.34753785101E+02  0.47134427115E+02  0.00000000000E+00 0. -1.
        -15    1    3    3    0    0  0.30988554969E+02  0.15307435692E+02 -0.23615864084E+03  0.23868110420E+03  0.17770000000E+01 0.  1.
         15    1    3    3    0    0 -0.47783267271E+02 -0.29010427474E+02 -0.21805369555E+03  0.22511201079E+03  0.17770000000E+01 0. -1.
</event>
<event>
 7    1  0.2559882E-004  0.4753944E+03  0.7546771E-02  0.9456615E-01
        -11   -1    0    0    0    0  0.00000000000E+00  0.00000000000E+00  0.50000000000E+03  0.50000000000E+03  0.00000000000E+00 0. -1.
         11   -1    0    0    0    0 -0.00000000000E+00 -0.00000000000E+00 -0.50000000000E+03  0.50000000000E+03  0.00000000000E+00 0.  1.
         23    2    1    2    0    0  0.98746795725E+02 -0.42584259012E+02 -0.43831573021E+03  0.46040912098E+03  0.91057841797E+02 0.  0.
        -11    1    1    2    0    0 -0.94529865140E+02 -0.86023660100E+00  0.47392383344E+03  0.48326021491E+03  0.00000000000E+00 0. -1.
         11    1    1    2    0    0 -0.42169305848E+01  0.43444495613E+02 -0.35608103237E+02  0.56330664107E+02  0.00000000000E+00 0.  1.
        -15    1    3    3    0    0  0.68709687704E+02 -0.44403874604E+02 -0.41304736227E+03  0.42107482289E+03  0.17770000000E+01 0.  1.
         15    1    3    3    0    0  0.30037108021E+02  0.18196155924E+01 -0.25268367942E+02  0.39334298095E+02  0.17770000000E+01 0. -1.
</event>
<event>
 7    1  0.2559882E-004  0.5118384E+03  0.7546771E-02  0.9373703E-01
        -11   -1    0    0    0    0  0.00000000000E+00  0.00000000000E+00  0.50000000000E+03  0.50000000000E+03  0.00000000000E+00 0. -1.
         11   -1    0    0    0    0 -0.00000000000E+00 -0.00000000000E+00 -0.50000000000E+03  0.50000000000E+03  0.00000000000E+00 0.  1.
         23    2    1    2    0    0 -0.22339503449E+02  0.33084824221E+02 -0.23574378535E+03  0.25434608054E+03  0.86736021023E+02 0.  0.
        -11    1    1    2    0    0  0.36108386232E+01  0.15589092793E+02  0.48789925909E+03  0.48816159721E+03  0.00000000000E+00 0. -1.
         11    1    1    2    0    0  0.18728664826E+02 -0.48673917014E+02 -0.25215547374E+03  0.25749232225E+03  0.00000000000E+00 0.  1.
        -15    1    3    3    0    0 -0.24743422718E+02  0.53398503373E+02 -0.22190930573E+03  0.22958774974E+03  0.17770000000E+01 0.  1.
         15    1    3    3    0    0  0.24039192694E+01 -0.20313679152E+02 -0.13834479625E+02  0.24758330801E+02  0.17770000000E+01 0. -1.
</event>
<event>
 7    1  0.2559882E-004  0.5120558E+03  0.7546771E-02  0.9373231E-01
        -11   -1    0    0    0    0  0.00000000000E+00  0.00000000000E+00  0.50000000000E+03  0.50000000000E+03  0.00000000000E+00 0.  1.
         11   -1    0    0    0    0 -0.00000000000E+00 -0.00000000000E+00 -0.50000000000E+03  0.50000000000E+03  0.00000000000E+00 0. -1.
         23    2    1    2    0    0  0.18364835463E+02 -0.20057194983E+02 -0.20222688618E+03  0.22390238743E+03  0.92179213217E+02 0.  0.
        -11    1    1    2    0    0  0.75321076831E+01 -0.82303401794E+01  0.48781667796E+03  0.48794424112E+03  0.00000000000E+00 0.  1.
         11    1    1    2    0    0 -0.25896943146E+02  0.28287535163E+02 -0.28558979178E+03  0.28815337145E+03  0.00000000000E+00 0. -1.
        -15    1    3    3    0    0  0.45884694558E+02  0.17667402465E+02 -0.11049656225E+03  0.12095532358E+03  0.17770000000E+01 0.  1.
         15    1    3    3    0    0 -0.27519859095E+02 -0.37724597449E+02 -0.91730323938E+02  0.10294706385E+03  0.17770000000E+01 0. -1.
</event>
<event>
 7    1  0.2559882E-004  0.4941338E+03  0.7546771E-02  0.9413032E-01
        -11   -1    0    0    0    0  0.00000000000E+00  0.00000000000E+00  0.50000000000E+03  0.50000000000E+03  0.00000000000E+00 0. -1.
         11   -1    0    0    0    0 -0.00000000000E+00 -0.00000000000E+00 -0.50000000000E+03  0.50000000000E+03  0.00000000000E+00 0.  1.
         23    2    1    2    0    0 -0.22704794274E+02 -0.19511255115E+02 -0.48689700814E+03  0.49591517385E+03  0.89257864379E+02 0.  0.
        -11    1    1    2    0    0  0.79724326699E+01  0.67475952882E+01  0.48430872917E+03  0.48442134023E+03  0.00000000000E+00 0. -1.
         11    1    1    2    0    0  0.14732361604E+02  0.12763659827E+02  0.25882789755E+01  0.19663485924E+02  0.00000000000E+00 0.  1.
        -15    1    3    3    0    0  0.50203938861E+01 -0.51239996170E+02 -0.24325217231E+03  0.24864737808E+03  0.17770000000E+01 0.  1.
         15    1    3    3    0    0 -0.27725188161E+02  0.31728741055E+02 -0.24364483583E+03  0.24726779577E+03  0.17770000000E+01 0. -1.
</event>
<event>
 7    1  0.2559882E-004  0.4716023E+03  0.7546771E-02  0.9465694E-01
        -11   -1    0    0    0    0  0.00000000000E+00  0.00000000000E+00  0.50000000000E+03  0.50000000000E+03  0.00000000000E+00 0. -1.
         11   -1    0    0    0    0 -0.00000000000E+00 -0.00000000000E+00 -0.50000000000E+03  0.50000000000E+03  0.00000000000E+00 0. -1.
         23    2    1    2    0    0  0.42845133203E+02  0.42697729989E+02 -0.44590662018E+03  0.45933661412E+03  0.92187903560E+02 0.  0.
        -11    1    1    2    0    0 -0.45908862302E+02  0.14159374711E+02  0.47451501307E+03  0.47694088644E+03  0.00000000000E+00 0. -1.
         11    1    1    2    0    0  0.30637290991E+01 -0.56857104700E+02 -0.28608392888E+02  0.63722499437E+02  0.00000000000E+00 0. -1.
        -15    1    3    3    0    0  0.19458611458E+02  0.36095918492E+02 -0.60200013430E+02  0.72861184711E+02  0.17770000000E+01 0.  1.
         15    1    3    3    0    0  0.23386521746E+02  0.66018114972E+01 -0.38570660675E+03  0.38647542941E+03  0.17770000000E+01 0. -1.
</event>
<event>
 7    1  0.2559882E-004  0.5079622E+03  0.7546771E-02  0.9382168E-01
        -11   -1    0    0    0    0  0.00000000000E+00  0.00000000000E+00  0.50000000000E+03  0.50000000000E+03  0.00000000000E+00 0. -1.
         11   -1    0    0    0    0 -0.00000000000E+00 -0.00000000000E+00 -0.50000000000E+03  0.50000000000E+03  0.00000000000E+00 0. -1.
         23    2    1    2    0    0  0.97061466431E+01  0.39435203883E+01 -0.40011818258E+03  0.40998374123E+03  0.88782585024E+02 0.  0.
        -11    1    1    2    0    0  0.11359424452E+02  0.25193778733E+02  0.49126109889E+03  0.49203783421E+03  0.00000000000E+00 0. -1.
         11    1    1    2    0    0 -0.21065571095E+02 -0.29137299121E+02 -0.91142916309E+02  0.97978424558E+02  0.00000000000E+00 0. -1.
        -15    1    3    3    0    0  0.33703105279E+02 -0.29586412469E+02 -0.26253775412E+03  0.26634655090E+03  0.17770000000E+01 0. -1.
         15    1    3    3    0    0 -0.23996958635E+02  0.33529932857E+02 -0.13758042846E+03  0.14363719033E+03  0.17770000000E+01 0.  1.
</event>
<event>
 7    1  0.2559882E-004  0.5013641E+03  0.7546771E-02  0.9396763E-01
        -11   -1    0    0    0    0  0.00000000000E+00  0.00000000000E+00  0.50000000000E+03  0.50000000000E+03  0.00000000000E+00 0.  1.
         11   -1    0    0    0    0 -0.00000000000E+00 -0.00000000000E+00 -0.50000000000E+03  0.50000000000E+03  0.00000000000E+00 0.  1.
         23    2    1    2    0    0  0.37746090590E+02 -0.25904784565E+02 -0.49094830635E+03  0.50136410517E+03  0.90773901704E+02 0.  0.
        -11    1    1    2    0    0 -0.24040820155E+02  0.43729311303E+01  0.44807116886E+03  0.44873695628E+03  0.00000000000E+00 0.  1.
         11    1    1    2    0    0 -0.13705270435E+02  0.21531853434E+02  0.42877137482E+02  0.49898938553E+02  0.00000000000E+00 0.  1.
        -15    1    3    3    0    0  0.30368742275E+02 -0.39459236261E+02 -0.47946403365E+03  0.48204585791E+03  0.17770000000E+01 0.  1.
         15    1    3    3    0    0  0.73773483150E+01  0.13554451697E+02 -0.11484272700E+02  0.19318247265E+02  0.17770000000E+01 0. -1.
</event>
<event>
 7    1  0.2559882E-004  0.5084922E+03  0.7546771E-02  0.9381006E-01
        -11   -1    0    0    0    0  0.00000000000E+00  0.00000000000E+00  0.50000000000E+03  0.50000000000E+03  0.00000000000E+00 0.  1.
         11   -1    0    0    0    0 -0.00000000000E+00 -0.00000000000E+00 -0.50000000000E+03  0.50000000000E+03  0.00000000000E+00 0.  1.
         23    2    1    2    0    0 -0.61700246187E+02 -0.19869307246E+02 -0.35600207633E+03  0.37321625189E+03  0.91384804933E+02 0.  0.
        -11    1    1    2    0    0  0.44699486981E+02  0.48946488745E+02  0.48701759746E+03  0.49150782611E+03  0.00000000000E+00 0.  1.
         11    1    1    2    0    0  0.17000759206E+02 -0.29077181499E+02 -0.13101552113E+03  0.13527592200E+03  0.00000000000E+00 0.  1.
        -15    1    3    3    0    0 -0.66087882800E+01  0.12888418179E+02 -0.24184193259E+03  0.24228178944E+03  0.17770000000E+01 0.  1.
         15    1    3    3    0    0 -0.55091457907E+02 -0.32757725425E+02 -0.11416014374E+03  0.13093446245E+03  0.17770000000E+01 0. -1.
</event>
<event>
 7    1  0.2559882E-004  0.5106670E+03  0.7546771E-02  0.9376253E-01
        -11   -1    0    0    0    0  0.00000000000E+00  0.00000000000E+00  0.50000000000E+03  0.50000000000E+03  0.00000000000E+00 0. -1.
         11   -1    0    0    0    0 -0.00000000000E+00 -0.00000000000E+00 -0.50000000000E+03  0.50000000000E+03  0.00000000000E+00 0. -1.
         23    2    1    2    0    0  0.32521198023E+02  0.35062161995E+02 -0.33757804212E+03  0.35146529768E+03  0.85334268778E+02 0.  0.
        -11    1    1    2    0    0 -0.20055042179E+02  0.13307274177E+02  0.48874075409E+03  0.48933302869E+03  0.00000000000E+00 0. -1.
         11    1    1    2    0    0 -0.12466155844E+02 -0.48369436173E+02 -0.15116271197E+03  0.15920167363E+03  0.00000000000E+00 0. -1.
        -15    1    3    3    0    0  0.19717491136E+02 -0.14545381148E+02 -0.26279040151E+02  0.35973507609E+02  0.17770000000E+01 0.  1.
         15    1    3    3    0    0  0.12803706887E+02  0.49607543144E+02 -0.31129900197E+03  0.31549179007E+03  0.17770000000E+01 0. -1.
</event>
<event>
 7    1  0.2559882E-004  0.4871570E+03  0.7546771E-02  0.9429014E-01
        -11   -1    0    0    0    0  0.00000000000E+00  0.00000000000E+00  0.50000000000E+03  0.50000000000E+03  0.00000000000E+00 0. -1.
         11   -1    0    0    0    0 -0.00000000000E+00 -0.00000000000E+00 -0.50000000000E+03  0.50000000000E+03  0.00000000000E+00 0. -1.
         23    2    1    2    0    0 -0.96649356056E+01 -0.30645658416E+02 -0.48694047868E+03  0.49540126040E+03  0.85315952062E+02 0.  0.
        -11    1    1    2    0    0  0.11964240871E+02  0.18052310258E+01  0.47178039979E+03  0.47193553325E+03  0.00000000000E+00 0. -1.
         11    1    1    2    0    0 -0.22993052657E+01  0.28840427391E+02  0.15160078886E+02  0.32663206343E+02  0.00000000000E+00 0. -1.
        -15    1    3    3    0    0 -0.10268891348E+01 -0.44596431213E+02 -0.11912444207E+03  0.12721511941E+03  0.17770000000E+01 0.  1.
         15    1    3    3    0    0 -0.86380464708E+01  0.13950772797E+02 -0.36781603660E+03  0.36818614100E+03  0.17770000000E+01 0. -1.
</event>
<event>
 7    1  0.2559882E-004  0.5119836E+03  0.7546771E-02  0.9373388E-01
        -11   -1    0    0    0    0  0.00000000000E+00  0.00000000000E+00  0.50000000000E+03  0.50000000000E+03  0.00000000000E+00 0.  1.
         11   -1    0    0    0    0 -0.00000000000E+00 -0.00000000000E+00 -0.50000000000E+03  0.50000000000E+03  0.00000000000E+00 0. -1.
         23    2    1    2    0    0 -0.48728836104E+02  0.23110946463E+02 -0.24554584414E+03  0.26770031235E+03  0.91989566504E+02 0.  0.
        -11    1    1    2    0    0  0.24356208265E+02  0.10432265604E+01  0.48740711508E+03  0.48801640242E+03  0.00000000000E+00 0.  1.
         11    1    1    2    0    0  0.24372627839E+02 -0.24154173023E+02 -0.24186127094E+03  0.24428328523E+03  0.00000000000E+00 0. -1.
        -15    1    3    3    0    0 -0.19033895078E+02 -0.31705701142E+02 -0.48476487702E+02  0.60997280559E+02  0.17770000000E+01 0.  1.
         15    1    3    3    0    0 -0.29694941025E+02  0.54816647605E+02 -0.19706935644E+03  0.20670303179E+03  0.17770000000E+01 0. -1.
</event>
<event>
 7    1  0.2559882E-004  0.5267314E+03  0.7546771E-02  0.9341906E-01
        -11   -1    0    0    0    0  0.00000000000E+00  0.00000000000E+00  0.50000000000E+03  0.50000000000E+03  0.00000000000E+00 0.  1.
         11   -1    0    0    0    0 -0.00000000000E+00 -0.00000000000E+00 -0.50000000000E+03  0.50000000000E+03  0.00000000000E+00 0.  1.
         23    2    1    2    0    0 -0.64966977516E+02 -0.45501120427E+02 -0.34341935949E+03  0.36383207881E+03  0.90254445726E+02 0.  0.
        -11    1    1    2    0    0 -0.26917001665E+02  0.74709653050E+01  0.47244348326E+03  0.47326861842E+03  0.00000000000E+00 0.  1.
         11    1    1    2    0    0  0.91883979181E+02  0.38030155122E+02 -0.12902412377E+03  0.16289930277E+03  0.00000000000E+00 0.  1.
        -15    1    3    3    0    0 -0.84510211349E+02 -0.28955097983E+02 -0.30344252838E+03  0.31632404158E+03  0.17770000000E+01 0.  1.
         15    1    3    3    0    0  0.19543233833E+02 -0.16546022444E+02 -0.39976831112E+02  0.47508037238E+02  0.17770000000E+01 0. -1.
</event>
<event>
 7    1  0.2559882E-004  0.5130567E+03  0.7546771E-02  0.9371059E-01
        -11   -1    0    0    0    0  0.00000000000E+00  0.00000000000E+00  0.50000000000E+03  0.50000000000E+03  0.00000000000E+00 0. -1.
         11   -1    0    0    0    0 -0.00000000000E+00 -0.00000000000E+00 -0.50000000000E+03  0.50000000000E+03  0.00000000000E+00 0. -1.
         23    2    1    2    0    0  0.12473292033E+02  0.34334331390E+02 -0.40907450749E+03  0.42091136448E+03  0.92141167464E+02 0.  0.
        -11    1    1    2    0    0  0.39990123851E+02 -0.27508504425E+02  0.48451820983E+03  0.48694334730E+03  0.00000000000E+00 0. -1.
         11    1    1    2    0    0 -0.52463415884E+02 -0.68258269652E+01 -0.75443702333E+02  0.92145288223E+02  0.00000000000E+00 0. -1.
        -15    1    3    3    0    0  0.42332172564E+02  0.21383110431E+01 -0.30503680586E+03  0.30797271935E+03  0.17770000000E+01 0. -1.
         15    1    3    3    0    0 -0.29858880532E+02  0.32196020347E+02 -0.10403770163E+03  0.11293864513E+03  0.17770000000E+01 0.  1.
</event>
<event>
 7    1  0.2559882E-004  0.4873676E+03  0.7546771E-02  0.9428528E-01
        -11   -1    0    0    0    0  0.00000000000E+00  0.00000000000E+00  0.50000000000E+03  0.50000000000E+03  0.00000000000E+00 0.  1.
         11   -1    0    0    0    0 -0.00000000000E+00 -0.00000000000E+00 -0.50000000000E+03  0.50000000000E+03  0.00000000000E+00 0. -1.
         23    2    1    2    0    0  0.18440620810E+02 -0.17646808980E+02 -0.46283458041E+03  0.47223079109E+03  0.90192044389E+02 0.  0.
        -11    1    1    2    0    0 -0.94741760375E+01  0.24571188429E+02  0.49395209692E+03  0.49465359330E+03  0.00000000000E+00 0.  1.
         11    1    1    2    0    0 -0.89664447722E+01 -0.69243794490E+01 -0.31117516518E+02  0.33115615604E+02  0.00000000000E+00 0. -1.
        -15    1    3    3    0    0 -0.13894300291E+02  0.22762186006E+02 -0.55306905489E+02  0.61426217660E+02  0.17770000000E+01 0.  1.
         15    1    3    3    0    0  0.32334921101E+02 -0.40408994986E+02 -0.40752767492E+03  0.41080457343E+03  0.17770000000E+01 0. -1.
</event>
<event>
 7    1  0.3609413E-004  0.5169321E+03  0.7546771E-02  0.9362700E-01
        -11   -1    0    0    0    0  0.00000000000E+00  0.00000000000E+00  0.50000000000E+03  0.50000000000E+03  0.00000000000E+00 0.  1.
         11   -1    0    0    0    0 -0.00000000000E+00 -0.00000000000E+00 -0.50000000000E+03  0.50000000000E+03  0.00000000000E+00 0. -1.
         23    2    1    2    0    0 -0.35111987587E+02 -0.81648230589E+02  0.19206223427E+03  0.23184419140E+03  0.94681265413E+02 0.  0.
        -11    1    1    2    0    0  0.51937744635E+01  0.10754030066E+02  0.28483765863E+03  0.28508790965E+03  0.00000000000E+00 0.  1.
         11    1    1    2    0    0  0.29918213124E+02  0.70894200523E+02 -0.47689989290E+03  0.48306789895E+03  0.00000000000E+00 0. -1.
        -15    1    3    3    0    0 -0.38342146275E+00 -0.11491295380E+02  0.13364845875E+03  0.13415388603E+03  0.17770000000E+01 0.  1.
         15    1    3    3    0    0 -0.34728566125E+02 -0.70156935209E+02  0.58413775521E+02  0.97690305366E+02  0.17770000000E+01 0. -1.
</event>
<event>
 7    1  0.2559882E-004  0.4799848E+03  0.7546771E-02  0.9445744E-01
        -11   -1    0    0    0    0  0.00000000000E+00  0.00000000000E+00  0.50000000000E+03  0.50000000000E+03  0.00000000000E+00 0. -1.
         11   -1    0    0    0    0 -0.00000000000E+00 -0.00000000000E+00 -0.50000000000E+03  0.50000000000E+03  0.00000000000E+00 0. -1.
         23    2    1    2    0    0  0.40907763822E+02 -0.46676821592E+02 -0.47433623345E+03  0.48697222061E+03  0.91076399047E+02 0.  0.
        -11    1    1    2    0    0 -0.20371739286E+02  0.48060170405E+01  0.46499481799E+03  0.46546566611E+03  0.00000000000E+00 0. -1.
         11    1    1    2    0    0 -0.20536024536E+02  0.41870804552E+02  0.93414154583E+01  0.47562113287E+02  0.00000000000E+00 0. -1.
        -15    1    3    3    0    0  0.24138921080E+02 -0.19906878423E+02 -0.43661980454E+03  0.43774305564E+03  0.17770000000E+01 0. -1.
         15    1    3    3    0    0  0.16768842742E+02 -0.26769943169E+02 -0.37716428916E+02  0.49229164967E+02  0.17770000000E+01 0.  1.
</event>
<event>
 7    1  0.2559882E-004  0.4643075E+03  0.7546771E-02  0.9483419E-01
        -11   -1    0    0    0    0  0.00000000000E+00  0.00000000000E+00  0.50000000000E+03  0.50000000000E+03  0.00000000000E+00 0. -1.
         11   -1    0    0    0    0 -0.00000000000E+00 -0.00000000000E+00 -0.50000000000E+03  0.50000000000E+03  0.00000000000E+00 0. -1.
         23    2    1    2    0    0 -0.12782581829E+02 -0.65025142566E+02 -0.42450702282E+03  0.43942185190E+03  0.92161206271E+02 0.  0.
        -11    1    1    2    0    0 -0.67845667266E+01  0.12726937080E+03  0.46609356656E+03  0.48320465217E+03  0.00000000000E+00 0. -1.
         11    1    1    2    0    0  0.19567148556E+02 -0.62244228238E+02 -0.41586543742E+02  0.77373495927E+02  0.00000000000E+00 0. -1.
        -15    1    3    3    0    0 -0.35093578739E+02 -0.35795746548E+02 -0.91167535887E+02  0.10405562007E+03  0.17770000000E+01 0.  1.
         15    1    3    3    0    0  0.22310996909E+02 -0.29229396018E+02 -0.33333948693E+03  0.33536623183E+03  0.17770000000E+01 0. -1.
</event>
<event>
 7    1  0.2559882E-004  0.5106120E+03  0.7546771E-02  0.9376373E-01
        -11   -1    0    0    0    0  0.00000000000E+00  0.00000000000E+00  0.50000000000E+03  0.50000000000E+03  0.00000000000E+00 0. -1.
         11   -1    0    0    0    0 -0.00000000000E+00 -0.00000000000E+00 -0.50000000000E+03  0.50000000000E+03  0.00000000000E+00 0. -1.
         23    2    1    2    0    0  0.13978681506E+02 -0.14120151115E+02 -0.23916350246E+03  0.25904146141E+03  0.97511617842E+02 0.  0.
        -11    1    1    2    0    0  0.96720042376E+01  0.12846721818E+01  0.48929073046E+03  0.48938800247E+03  0.00000000000E+00 0. -1.
         11    1    1    2    0    0 -0.23650685743E+02  0.12835478933E+02 -0.25012722800E+03  0.25157053612E+03  0.00000000000E+00 0. -1.
        -15    1    3    3    0    0 -0.95774448000E+01  0.36928177078E+01  0.60518508093E+01  0.12047695993E+02  0.17770000000E+01 0.  1.
         15    1    3    3    0    0  0.23556126306E+02 -0.17812968823E+02 -0.24521535327E+03  0.24699376542E+03  0.17770000000E+01 0. -1.
</event>
<event>
 7    1  0.2559882E-004  0.5262794E+03  0.7546771E-02  0.9342854E-01
        -11   -1    0    0    0    0  0.00000000000E+00  0.00000000000E+00  0.50000000000E+03  0.50000000000E+03  0.00000000000E+00 0.  1.
         11   -1    0    0    0    0 -0.00000000000E+00 -0.00000000000E+00 -0.50000000000E+03  0.50000000000E+03  0.00000000000E+00 0.  1.
         23    2    1    2    0    0  0.28289558023E+02  0.69159204156E+02 -0.11465722643E+03  0.16158343139E+03  0.85904779342E+02 0.  0.
        -11    1    1    2    0    0  0.48882821297E+01 -0.13241093983E+02  0.47351030152E+03  0.47372062180E+03  0.00000000000E+00 0.  1.
         11    1    1    2    0    0 -0.33177840153E+02 -0.55918110173E+02 -0.35885307509E+03  0.36469594682E+03  0.00000000000E+00 0.  1.
        -15    1    3    3    0    0 -0.46459933333E+01  0.81282553594E+01  0.13103901041E+02  0.16202584384E+02  0.17770000000E+01 0. -1.
         15    1    3    3    0    0  0.32935551356E+02  0.61030948797E+02 -0.12776112747E+03  0.14538084700E+03  0.17770000000E+01 0.  1.
</event>
<event>
 7    1  0.2559882E-004  0.4822100E+03  0.7546771E-02  0.9440520E-01
        -11   -1    0    0    0    0  0.00000000000E+00  0.00000000000E+00  0.50000000000E+03  0.50000000000E+03  0.00000000000E+00 0.  1.
         11   -1    0    0    0    0 -0.00000000000E+00 -0.00000000000E+00 -0.50000000000E+03  0.50000000000E+03  0.00000000000E+00 0. -1.
         23    2    1    2    0    0  0.28922415333E+01 -0.33553599817E+01 -0.47780391085E+03  0.48680231928E+03  0.93060718546E+02 0.  0.
        -11    1    1    2    0    0 -0.39686013652E+02  0.24325103086E+02  0.46723635717E+03  0.46954925597E+03  0.00000000000E+00 0.  1.
         11    1    1    2    0    0  0.36793772119E+02 -0.20969743104E+02  0.10567553681E+02  0.43648424752E+02  0.00000000000E+00 0. -1.
        -15    1    3    3    0    0  0.40996617339E+02 -0.60905453208E+01 -0.37186444783E+03  0.37417127450E+03  0.17770000000E+01 0. -1.
         15    1    3    3    0    0 -0.38104375806E+02  0.27351853392E+01 -0.10593946302E+03  0.11263104478E+03  0.17770000000E+01 0.  1.
</event>
<event>
 7    1  0.2559882E-004  0.5430976E+03  0.7546771E-02  0.9308225E-01
        -11   -1    0    0    0    0  0.00000000000E+00  0.00000000000E+00  0.50000000000E+03  0.50000000000E+03  0.00000000000E+00 0. -1.
         11   -1    0    0    0    0 -0.00000000000E+00 -0.00000000000E+00 -0.50000000000E+03  0.50000000000E+03  0.00000000000E+00 0.  1.
         23    2    1    2    0    0  0.48414875156E+01  0.43621002695E+01  0.73136913990E+01  0.93532422804E+02  0.93018041872E+02 0.  0.
        -11    1    1    2    0    0  0.52033778556E+01 -0.79981668753E+01  0.44946385635E+03  0.44956512762E+03  0.00000000000E+00 0. -1.
         11    1    1    2    0    0 -0.10044865371E+02  0.36360666058E+01 -0.45677754774E+03  0.45690244957E+03  0.00000000000E+00 0.  1.
        -15    1    3    3    0    0 -0.25846679408E+01  0.29359692317E+02  0.41230417078E+02  0.50712691338E+02  0.17770000000E+01 0. -1.
         15    1    3    3    0    0  0.74261554563E+01 -0.24997592048E+02 -0.33916725679E+02  0.42819731466E+02  0.17770000000E+01 0.  1.
</event>
<event>
 7    1  0.2559882E-004  0.5013613E+03  0.7546771E-02  0.9396769E-01
        -11   -1    0    0    0    0  0.00000000000E+00  0.00000000000E+00  0.50000000000E+03  0.50000000000E+03  0.00000000000E+00 0.  1.
         11   -1    0    0    0    0 -0.00000000000E+00 -0.00000000000E+00 -0.50000000000E+03  0.50000000000E+03  0.00000000000E+00 0. -1.
         23    2    1    2    0    0  0.24923508561E+01  0.25774539860E+00 -0.49309291405E+03  0.50136131591E+03  0.90643637138E+02 0.  0.
        -11    1    1    2    0    0 -0.20724182138E+02 -0.42829584610E+01  0.46117967607E+03  0.46166495327E+03  0.00000000000E+00 0.  1.
         11    1    1    2    0    0  0.18231831282E+02  0.40252130624E+01  0.31913237982E+02  0.36973730818E+02  0.00000000000E+00 0. -1.
        -15    1    3    3    0    0  0.16043683256E+02  0.18560986152E+02 -0.35447625767E+02  0.43146284670E+02  0.17770000000E+01 0.  1.
         15    1    3    3    0    0 -0.13551332399E+02 -0.18303240754E+02 -0.45764528829E+03  0.45821503124E+03  0.17770000000E+01 0. -1.
</event>
<event>
 7    1  0.2559882E-004  0.5359169E+03  0.7546771E-02  0.9322845E-01
        -11   -1    0    0    0    0  0.00000000000E+00  0.00000000000E+00  0.50000000000E+03  0.50000000000E+03  0.00000000000E+00 0.  1.
         11   -1    0    0    0    0 -0.00000000000E+00 -0.00000000000E+00 -0.50000000000E+03  0.50000000000E+03  0.00000000000E+00 0. -1.
         23    2    1    2    0    0 -0.47250620392E+02  0.11225175586E+03 -0.30219632855E+03  0.33804945155E+03  0.90120657347E+02 0.  0.
        -11    1    1    2    0    0  0.35912094236E+00 -0.84709154750E+01  0.46400564028E+03  0.46408309556E+03  0.00000000000E+00 0.  1.
         11    1    1    2    0    0  0.46891499449E+02 -0.10378084038E+03 -0.16180931173E+03  0.19786745289E+03  0.00000000000E+00 0. -1.
        -15    1    3    3    0    0 -0.66597907542E+02  0.10948825946E+03 -0.28265764674E+03  0.31035699322E+03  0.17770000000E+01 0.  1.
         15    1    3    3    0    0  0.19347287150E+02  0.27634963927E+01 -0.19538681812E+02  0.27692458330E+02  0.17770000000E+01 0. -1.
</event>
<event>
 7    1  0.2559882E-004  0.5008828E+03  0.7546771E-02  0.9397837E-01
        -11   -1    0    0    0    0  0.00000000000E+00  0.00000000000E+00  0.50000000000E+03  0.50000000000E+03  0.00000000000E+00 0. -1.
         11   -1    0    0    0    0 -0.00000000000E+00 -0.00000000000E+00 -0.50000000000E+03  0.50000000000E+03  0.00000000000E+00 0. -1.
         23    2    1    2    0    0  0.29523636154E+02  0.82159854378E+01 -0.48994367213E+03  0.49911724695E+03  0.90189117062E+02 0.  0.
        -11    1    1    2    0    0 -0.51170952083E+02 -0.12885828075E+02  0.46304001264E+03  0.46603708458E+03  0.00000000000E+00 0. -1.
         11    1    1    2    0    0  0.21647315929E+02  0.46698426374E+01  0.26903659490E+02  0.34845668471E+02  0.00000000000E+00 0. -1.
        -15    1    3    3    0    0  0.32965916205E+02 -0.37146297522E+02 -0.26188823752E+03  0.26656182347E+03  0.17770000000E+01 0. -1.
         15    1    3    3    0    0 -0.34422800512E+01  0.45362282960E+02 -0.22805543460E+03  0.23255542348E+03  0.17770000000E+01 0.  1.
</event>
<event>
 7    1  0.2559882E-004  0.5015330E+03  0.7546771E-02  0.9396386E-01
        -11   -1    0    0    0    0  0.00000000000E+00  0.00000000000E+00  0.50000000000E+03  0.50000000000E+03  0.00000000000E+00 0. -1.
         11   -1    0    0    0    0 -0.00000000000E+00 -0.00000000000E+00 -0.50000000000E+03  0.50000000000E+03  0.00000000000E+00 0.  1.
         23    2    1    2    0    0  0.10034949286E+02 -0.22306229757E+02 -0.49261129086E+03  0.50153301893E+03  0.90946231935E+02 0.  0.
        -11    1    1    2    0    0 -0.19030575596E+02  0.30985129284E+02  0.47738162696E+03  0.47876451289E+03  0.00000000000E+00 0. -1.
         11    1    1    2    0    0  0.89956263104E+01 -0.86788995274E+01  0.15229663897E+02  0.19702468173E+02  0.00000000000E+00 0.  1.
        -15    1    3    3    0    0  0.17135953436E+02 -0.12540540456E+02 -0.48803305401E+03  0.48849803028E+03  0.17770000000E+01 0.  1.
         15    1    3    3    0    0 -0.71010041509E+01 -0.97656893012E+01 -0.45782368532E+01  0.13034988652E+02  0.17770000000E+01 0. -1.
</event>
<event>
 7    1  0.2559882E-004  0.5020284E+03  0.7546771E-02  0.9395282E-01
        -11   -1    0    0    0    0  0.00000000000E+00  0.00000000000E+00  0.50000000000E+03  0.50000000000E+03  0.00000000000E+00 0.  1.
         11   -1    0    0    0    0 -0.00000000000E+00 -0.00000000000E+00 -0.50000000000E+03  0.50000000000E+03  0.00000000000E+00 0.  1.
         23    2    1    2    0    0 -0.86300665054E+01 -0.26289266389E+02 -0.48890037059E+03  0.49797159808E+03  0.90479481424E+02 0.  0.
        -11    1    1    2    0    0 -0.52279183277E+01  0.81344491654E+01  0.47539783703E+03  0.47549616597E+03  0.00000000000E+00 0.  1.
         11    1    1    2    0    0  0.13857984833E+02  0.18154817223E+02  0.13502533557E+02  0.26532235950E+02  0.00000000000E+00 0.  1.
        -15    1    3    3    0    0 -0.12521457721E+02 -0.41214001278E+02 -0.47553590858E+03  0.47748606146E+03  0.17770000000E+01 0.  1.
         15    1    3    3    0    0  0.38913912158E+01  0.14924734890E+02 -0.13364462009E+02  0.20485536627E+02  0.17770000000E+01 0. -1.
</event>
<event>
 7    1  0.2559882E-004  0.4938984E+03  0.7546771E-02  0.9413567E-01
        -11   -1    0    0    0    0  0.00000000000E+00  0.00000000000E+00  0.50000000000E+03  0.50000000000E+03  0.00000000000E+00 0.  1.
         11   -1    0    0    0    0 -0.00000000000E+00 -0.00000000000E+00 -0.50000000000E+03  0.50000000000E+03  0.00000000000E+00 0. -1.
         23    2    1    2    0    0  0.67441066451E+01  0.14907465720E+01 -0.47665384979E+03  0.48468731493E+03  0.87608192728E+02 0.  0.
        -11    1    1    2    0    0 -0.53402796330E+01 -0.78560165031E+01  0.49538691892E+03  0.49547798642E+03  0.00000000000E+00 0.  1.
         11    1    1    2    0    0 -0.14038270121E+01  0.63652699310E+01 -0.18733069129E+02  0.19834698651E+02  0.00000000000E+00 0. -1.
        -15    1    3    3    0    0 -0.25444232843E+02  0.59344935438E+01 -0.47002898963E+02  0.53805737970E+02  0.17770000000E+01 0.  1.
         15    1    3    3    0    0  0.32188339489E+02 -0.44437469718E+01 -0.42965095083E+03  0.43088157696E+03  0.17770000000E+01 0. -1.
</event>
<event>
 7    1  0.2559882E-004  0.4958926E+03  0.7546771E-02  0.9409048E-01
        -11   -1    0    0    0    0  0.00000000000E+00  0.00000000000E+00  0.50000000000E+03  0.50000000000E+03  0.00000000000E+00 0.  1.
         11   -1    0    0    0    0 -0.00000000000E+00 -0.00000000000E+00 -0.50000000000E+03  0.50000000000E+03  0.00000000000E+00 0.  1.
         23    2    1    2    0    0  0.10348832331E+02 -0.17906735020E+01 -0.48273257241E+03  0.49191772917E+03  0.94031967742E+02 0.  0.
        -11    1    1    2    0    0 -0.49847747194E+01 -0.12232328061E+02  0.49084102220E+03  0.49101872358E+03  0.00000000000E+00 0.  1.
         11    1    1    2    0    0 -0.53640576116E+01  0.14023001563E+02 -0.81084497875E+01  0.17063547253E+02  0.00000000000E+00 0.  1.
        -15    1    3    3    0    0  0.47570387373E+02  0.64727926137E-01 -0.15707952677E+03  0.16413433950E+03  0.17770000000E+01 0. -1.
         15    1    3    3    0    0 -0.37221555042E+02 -0.18554014281E+01 -0.32565304565E+03  0.32778338967E+03  0.17770000000E+01 0.  1.
</event>
<event>
 7    1  0.2559882E-004  0.5006176E+03  0.7546771E-02  0.9398429E-01
        -11   -1    0    0    0    0  0.00000000000E+00  0.00000000000E+00  0.50000000000E+03  0.50000000000E+03  0.00000000000E+00 0. -1.
         11   -1    0    0    0    0 -0.00000000000E+00 -0.00000000000E+00 -0.50000000000E+03  0.50000000000E+03  0.00000000000E+00 0. -1.
         23    2    1    2    0    0 -0.51739569622E+01 -0.13707845429E+02 -0.49128228080E+03  0.49938238655E+03  0.88373150366E+02 0.  0.
        -11    1    1    2    0    0 -0.11401667148E+02 -0.14747119888E+01  0.46840242811E+03  0.46854349579E+03  0.00000000000E+00 0. -1.
         11    1    1    2    0    0  0.16575624110E+02  0.15182557418E+02  0.22879852697E+02  0.32074117663E+02  0.00000000000E+00 0. -1.
        -15    1    3    3    0    0 -0.27809320983E+02  0.28437044107E+02 -0.27487149796E+03  0.27774002579E+03  0.17770000000E+01 0.  1.
         15    1    3    3    0    0  0.22635364021E+02 -0.42144889536E+02 -0.21641078285E+03  0.22164236075E+03  0.17770000000E+01 0. -1.
</event>
<event>
 7    1  0.2559882E-004  0.5091463E+03  0.7546771E-02  0.9379574E-01
        -11   -1    0    0    0    0  0.00000000000E+00  0.00000000000E+00  0.50000000000E+03  0.50000000000E+03  0.00000000000E+00 0. -1.
         11   -1    0    0    0    0 -0.00000000000E+00 -0.00000000000E+00 -0.50000000000E+03  0.50000000000E+03  0.00000000000E+00 0. -1.
         23    2    1    2    0    0 -0.38689889060E+02 -0.46803452543E+02 -0.32352944327E+03  0.33825579456E+03  0.77834511653E+02 0.  0.
        -11    1    1    2    0    0  0.85026308554E+02  0.79678739123E+01  0.48336777911E+03  0.49085371553E+03  0.00000000000E+00 0. -1.
         11    1    1    2    0    0 -0.46336419494E+02  0.38835578631E+02 -0.15983833584E+03  0.17089048991E+03  0.00000000000E+00 0. -1.
        -15    1    3    3    0    0 -0.62408162414E+02 -0.36083120329E+02 -0.22143224176E+03  0.23287800611E+03  0.17770000000E+01 0. -1.
         15    1    3    3    0    0  0.23718273354E+02 -0.10720332214E+02 -0.10209720152E+03  0.10537778846E+03  0.17770000000E+01 0.  1.
</event>
<event>
 7    1  0.2559882E-004  0.5119105E+03  0.7546771E-02  0.9373546E-01
        -11   -1    0    0    0    0  0.00000000000E+00  0.00000000000E+00  0.50000000000E+03  0.50000000000E+03  0.00000000000E+00 0.  1.
         11   -1    0    0    0    0 -0.00000000000E+00 -0.00000000000E+00 -0.50000000000E+03  0.50000000000E+03  0.00000000000E+00 0.  1.
         23    2    1    2    0    0 -0.17403699214E+02 -0.55106673977E+02 -0.27035816370E+03  0.29088002362E+03  0.90432390234E+02 0.  0.
        -11    1    1    2    0    0 -0.50866298710E+01  0.21153974227E+02  0.48760430700E+03  0.48808946376E+03  0.00000000000E+00 0.  1.
         11    1    1    2    0    0  0.22490329085E+02  0.33952699750E+02 -0.21724614331E+03  0.22103051261E+03  0.00000000000E+00 0.  1.
        -15    1    3    3    0    0 -0.34926273060E+02 -0.55788860882E+02 -0.10074460249E+03  0.12035312297E+03  0.17770000000E+01 0.  1.
         15    1    3    3    0    0  0.17522573846E+02  0.68218690492E+00 -0.16961356121E+03  0.17052690066E+03  0.17770000000E+01 0. -1.
</event>
<event>
 7    1  0.2559882E-004  0.5040986E+03  0.7546771E-02  0.9390685E-01
        -11   -1    0    0    0    0  0.00000000000E+00  0.00000000000E+00  0.50000000000E+03  0.50000000000E+03  0.00000000000E+00 0. -1.
         11   -1    0    0    0    0 -0.00000000000E+00 -0.00000000000E+00 -0.50000000000E+03  0.50000000000E+03  0.00000000000E+00 0. -1.
         23    2    1    2    0    0  0.42410374807E+02  0.16492684183E+02 -0.49368790873E+03  0.50409863904E+03  0.91197796745E+02 0.  0.
        -11    1    1    2    0    0 -0.17401625381E+01 -0.28424012180E+00  0.56331816869E+02  0.56359405159E+02  0.00000000000E+00 0. -1.
         11    1    1    2    0    0 -0.40670212269E+02 -0.16208444061E+02  0.43735609186E+03  0.43954195580E+03  0.00000000000E+00 0. -1.
        -15    1    3    3    0    0  0.21461369238E+02 -0.23169884597E+02 -0.57666210818E+02  0.65772209336E+02  0.17770000000E+01 0.  1.
         15    1    3    3    0    0  0.20949005569E+02  0.39662568780E+02 -0.43602169791E+03  0.43832642970E+03  0.17770000000E+01 0. -1.
</event>
<event>
 7    1  0.2559882E-004  0.4609952E+03  0.7546771E-02  0.9491581E-01
        -11   -1    0    0    0    0  0.00000000000E+00  0.00000000000E+00  0.50000000000E+03  0.50000000000E+03  0.00000000000E+00 0.  1.
         11   -1    0    0    0    0 -0.00000000000E+00 -0.00000000000E+00 -0.50000000000E+03  0.50000000000E+03  0.00000000000E+00 0. -1.
         23    2    1    2    0    0  0.11556603692E+03  0.10366015094E+03  0.39635112158E+03  0.43554636605E+03  0.92225211422E+02 0.  0.
        -11    1    1    2    0    0 -0.33363665604E+02 -0.27688289083E+02  0.71379940672E+02  0.83515695921E+02  0.00000000000E+00 0.  1.
         11    1    1    2    0    0 -0.82202371315E+02 -0.75971861858E+02 -0.46773106225E+03  0.48093793803E+03  0.00000000000E+00 0. -1.
        -15    1    3    3    0    0 -0.10560116644E+02  0.35284743338E+02  0.72651156840E+02  0.81473170401E+02  0.17770000000E+01 0. -1.
         15    1    3    3    0    0  0.12612615356E+03  0.68375407602E+02  0.32369996474E+03  0.35407319565E+03  0.17770000000E+01 0.  1.
</event>
<event>
 7    1  0.2559882E-004  0.4950326E+03  0.7546771E-02  0.9410994E-01
        -11   -1    0    0    0    0  0.00000000000E+00  0.00000000000E+00  0.50000000000E+03  0.50000000000E+03  0.00000000000E+00 0. -1.
         11   -1    0    0    0    0 -0.00000000000E+00 -0.00000000000E+00 -0.50000000000E+03  0.50000000000E+03  0.00000000000E+00 0. -1.
         23    2    1    2    0    0 -0.22671530906E+02 -0.10154017982E+02 -0.48516711103E+03  0.49454627681E+03  0.92583972088E+02 0.  0.
        -11    1    1    2    0    0  0.49871846859E+01  0.15352052985E+02  0.48669078352E+03  0.48695839278E+03  0.00000000000E+00 0. -1.
         11    1    1    2    0    0  0.17684346220E+02 -0.51980350029E+01 -0.15236724884E+01  0.18495330410E+02  0.00000000000E+00 0. -1.
        -15    1    3    3    0    0 -0.52652195414E+01  0.30784242835E+02 -0.66182385170E+02  0.73202854996E+02  0.17770000000E+01 0.  1.
         15    1    3    3    0    0 -0.17406311365E+02 -0.40938260817E+02 -0.41898472586E+03  0.42134342181E+03  0.17770000000E+01 0. -1.
</event>
<event>
 7    1  0.2559882E-004  0.5110582E+03  0.7546771E-02  0.9375401E-01
        -11   -1    0    0    0    0  0.00000000000E+00  0.00000000000E+00  0.50000000000E+03  0.50000000000E+03  0.00000000000E+00 0.  1.
         11   -1    0    0    0    0 -0.00000000000E+00 -0.00000000000E+00 -0.50000000000E+03  0.50000000000E+03  0.00000000000E+00 0.  1.
         23    2    1    2    0    0 -0.58720242148E+02  0.32739594686E+00 -0.28345928042E+03  0.30309649263E+03  0.89833992224E+02 0.  0.
        -11    1    1    2    0    0  0.29256723435E+02 -0.30363241928E+02  0.48712031965E+03  0.48894180446E+03  0.00000000000E+00 0.  1.
         11    1    1    2    0    0  0.29463518713E+02  0.30035845981E+02 -0.20366103923E+03  0.20796170291E+03  0.00000000000E+00 0.  1.
        -15    1    3    3    0    0  0.35518920733E+00  0.88388025364E+01  0.37314964969E+01  0.97638304347E+01  0.17770000000E+01 0. -1.
         15    1    3    3    0    0 -0.59075431356E+02 -0.85114065896E+01 -0.28719077692E+03  0.29333266219E+03  0.17770000000E+01 0.  1.
</event>
<event>
 7    1  0.2559882E-004  0.4581185E+03  0.7546771E-02  0.9498730E-01
        -11   -1    0    0    0    0  0.00000000000E+00  0.00000000000E+00  0.50000000000E+03  0.50000000000E+03  0.00000000000E+00 0. -1.
         11   -1    0    0    0    0 -0.00000000000E+00 -0.00000000000E+00 -0.50000000000E+03  0.50000000000E+03  0.00000000000E+00 0. -1.
         23    2    1    2    0    0 -0.26450467650E+02  0.86117381338E+01 -0.40949210271E+03  0.41991020324E+03  0.88696151745E+02 0.  0.
        -11    1    1    2    0    0 -0.50498168408E+01 -0.12216084840E+02  0.49175277676E+03  0.49193040852E+03  0.00000000000E+00 0. -1.
         11    1    1    2    0    0  0.31500284491E+02  0.36043467062E+01 -0.82260674053E+02  0.88159388234E+02  0.00000000000E+00 0. -1.
        -15    1    3    3    0    0 -0.45566327271E+02 -0.79891482966E+01 -0.37052788598E+03  0.37340887602E+03  0.17770000000E+01 0. -1.
         15    1    3    3    0    0  0.19115859621E+02  0.16600886430E+02 -0.38964216725E+02  0.46501327221E+02  0.17770000000E+01 0.  1.
</event>
<event>
 7    1  0.2559882E-004  0.5020052E+03  0.7546771E-02  0.9395334E-01
        -11   -1    0    0    0    0  0.00000000000E+00  0.00000000000E+00  0.50000000000E+03  0.50000000000E+03  0.00000000000E+00 0.  1.
         11   -1    0    0    0    0 -0.00000000000E+00 -0.00000000000E+00 -0.50000000000E+03  0.50000000000E+03  0.00000000000E+00 0.  1.
         23    2    1    2    0    0  0.24950092384E+01  0.12268422393E+02 -0.49356827056E+03  0.50200521783E+03  0.90790207455E+02 0.  0.
        -11    1    1    2    0    0 -0.68277194065E+01  0.49613840003E+01  0.45945411906E+03  0.45953163178E+03  0.00000000000E+00 0.  1.
         11    1    1    2    0    0  0.43327101682E+01 -0.17229806393E+02  0.34114151494E+02  0.38463150390E+02  0.00000000000E+00 0.  1.
        -15    1    3    3    0    0  0.49737095297E+01 -0.12047332336E+02 -0.46129305165E+03  0.46148056647E+03  0.17770000000E+01 0.  1.
         15    1    3    3    0    0 -0.24787002914E+01  0.24315754729E+02 -0.32275218909E+02  0.40524651359E+02  0.17770000000E+01 0. -1.
</event>
<event>
 7    1  0.2559882E-004  0.5022714E+03  0.7546771E-02  0.9394742E-01
        -11   -1    0    0    0    0  0.00000000000E+00  0.00000000000E+00  0.50000000000E+03  0.50000000000E+03  0.00000000000E+00 0.  1.
         11   -1    0    0    0    0 -0.00000000000E+00 -0.00000000000E+00 -0.50000000000E+03  0.50000000000E+03  0.00000000000E+00 0. -1.
         23    2    1    2    0    0 -0.28263515256E+01 -0.81661331908E+00 -0.49439807384E+03  0.50227138734E+03  0.88534942264E+02 0.  0.
        -11    1    1    2    0    0  0.54859626885E+01  0.96502244563E+01  0.48271381256E+03  0.48284143097E+03  0.00000000000E+00 0.  1.
         11    1    1    2    0    0 -0.26596111629E+01 -0.88336111372E+01  0.11684261277E+02  0.14887181696E+02  0.00000000000E+00 0. -1.
        -15    1    3    3    0    0 -0.41012893158E+02 -0.10824638193E+02 -0.34994515708E+03  0.35251099400E+03  0.17770000000E+01 0. -1.
         15    1    3    3    0    0  0.38186541633E+02  0.10008024874E+02 -0.14445291676E+03  0.14976039334E+03  0.17770000000E+01 0.  1.
</event>
<event>
 7    1  0.2559882E-004  0.4739441E+03  0.7546771E-02  0.9460077E-01
        -11   -1    0    0    0    0  0.00000000000E+00  0.00000000000E+00  0.50000000000E+03  0.50000000000E+03  0.00000000000E+00 0. -1.
         11   -1    0    0    0    0 -0.00000000000E+00 -0.00000000000E+00 -0.50000000000E+03  0.50000000000E+03  0.00000000000E+00 0. -1.
         23    2    1    2    0    0 -0.11487911801E+02 -0.39507055010E+01 -0.43900693897E+03  0.44856882214E+03  0.91319852951E+02 0.  0.
        -11    1    1    2    0    0 -0.87163596758E+01 -0.12596773232E+02  0.49206012744E+03  0.49229850969E+03  0.00000000000E+00 0. -1.
         11    1    1    2    0    0  0.20204271477E+02  0.16547478733E+02 -0.53053188470E+02  0.59132668172E+02  0.00000000000E+00 0. -1.
        -15    1    3    3    0    0  0.33516900205E+02 -0.22757452436E+02 -0.14611246465E+03  0.15163539922E+03  0.17770000000E+01 0.  1.
         15    1    3    3    0    0 -0.45004812006E+02  0.18806746935E+02 -0.29289447432E+03  0.29693342292E+03  0.17770000000E+01 0. -1.
</event>
<event>
 7    1  0.2559882E-004  0.5299172E+03  0.7546771E-02  0.9335249E-01
        -11   -1    0    0    0    0  0.00000000000E+00  0.00000000000E+00  0.50000000000E+03  0.50000000000E+03  0.00000000000E+00 0.  1.
         11   -1    0    0    0    0 -0.00000000000E+00 -0.00000000000E+00 -0.50000000000E+03  0.50000000000E+03  0.00000000000E+00 0. -1.
         23    2    1    2    0    0  0.50037246660E+02  0.25753945989E+02 -0.50102052983E+02  0.10958730879E+03  0.79574937936E+02 0.  0.
        -11    1    1    2    0    0 -0.30088266387E+02  0.79315772468E+00  0.46911819625E+03  0.47008277454E+03  0.00000000000E+00 0.  1.
         11    1    1    2    0    0 -0.19948980273E+02 -0.26547103714E+02 -0.41901614326E+03  0.42032991667E+03  0.00000000000E+00 0. -1.
        -15    1    3    3    0    0 -0.61353675355E+01 -0.22500307327E+02 -0.12023814358E+02  0.26298981070E+02  0.17770000000E+01 0.  1.
         15    1    3    3    0    0  0.56172614196E+02  0.48254253316E+02 -0.38078238624E+02  0.83288327720E+02  0.17770000000E+01 0. -1.
</event>
<event>
 7    1  0.2559882E-004  0.5174917E+03  0.7546771E-02  0.9361499E-01
        -11   -1    0    0    0    0  0.00000000000E+00  0.00000000000E+00  0.50000000000E+03  0.50000000000E+03  0.00000000000E+00 0.  1.
         11   -1    0    0    0    0 -0.00000000000E+00 -0.00000000000E+00 -0.50000000000E+03  0.50000000000E+03  0.00000000000E+00 0. -1.
         23    2    1    2    0    0  0.64610734181E+02 -0.21724646461E+02 -0.21106427344E+03  0.23934564445E+03  0.89953892411E+02 0.  0.
        -11    1    1    2    0    0 -0.12792156248E+02 -0.12625074177E+02  0.48217342233E+03  0.48250828072E+03  0.00000000000E+00 0.  1.
         11    1    1    2    0    0 -0.51818577933E+02  0.34349720637E+02 -0.27110914890E+03  0.27814607483E+03  0.00000000000E+00 0. -1.
        -15    1    3    3    0    0  0.10674145602E+02 -0.27306949454E+01  0.74812867814E+01  0.13435827482E+02  0.17770000000E+01 0.  1.
         15    1    3    3    0    0  0.53936588578E+02 -0.18993951515E+02 -0.21854556022E+03  0.22590981697E+03  0.17770000000E+01 0. -1.
</event>
<event>
 7    1  0.2559882E-004  0.5014332E+03  0.7546771E-02  0.9396609E-01
        -11   -1    0    0    0    0  0.00000000000E+00  0.00000000000E+00  0.50000000000E+03  0.50000000000E+03  0.00000000000E+00 0.  1.
         11   -1    0    0    0    0 -0.00000000000E+00 -0.00000000000E+00 -0.50000000000E+03  0.50000000000E+03  0.00000000000E+00 0. -1.
         23    2    1    2    0    0  0.14314774018E+01 -0.66680305772E+01 -0.49290988927E+03  0.50136161111E+03  0.91415504124E+02 0.  0.
        -11    1    1    2    0    0  0.40226138346E+01  0.75183192714E+01  0.49304308225E+03  0.49311680919E+03  0.00000000000E+00 0.  1.
         11    1    1    2    0    0 -0.54540912363E+01 -0.85028869416E+00 -0.13319298637E+00  0.55215797060E+01  0.00000000000E+00 0. -1.
        -15    1    3    3    0    0 -0.19692354348E+02  0.35272343055E+02 -0.15447645075E+03  0.15968111525E+03  0.17770000000E+01 0.  1.
         15    1    3    3    0    0  0.21123831749E+02 -0.41940373632E+02 -0.33843343852E+03  0.34168049585E+03  0.17770000000E+01 0. -1.
</event>
<event>
 7    1  0.2559882E-004  0.5283490E+03  0.7546771E-02  0.9338519E-01
        -11   -1    0    0    0    0  0.00000000000E+00  0.00000000000E+00  0.50000000000E+03  0.50000000000E+03  0.00000000000E+00 0. -1.
         11   -1    0    0    0    0 -0.00000000000E+00 -0.00000000000E+00 -0.50000000000E+03  0.50000000000E+03  0.00000000000E+00 0. -1.
         23    2    1    2    0    0  0.19944040854E+02  0.90325734748E+02 -0.26511010479E+03  0.29518004733E+03  0.91057067582E+02 0.  0.
        -11    1    1    2    0    0  0.11301092420E+03 -0.59051765492E+02  0.45408814243E+03  0.47165095260E+03  0.00000000000E+00 0. -1.
         11    1    1    2    0    0 -0.13295496505E+03 -0.31273969255E+02 -0.18897803763E+03  0.23316900007E+03  0.00000000000E+00 0. -1.
        -15    1    3    3    0    0  0.27934068589E+02 -0.52410122067E+01 -0.30537860908E+02  0.41755228112E+02  0.17770000000E+01 0.  1.
         15    1    3    3    0    0 -0.79900277344E+01  0.95566746954E+02 -0.23457224388E+03  0.25342481922E+03  0.17770000000E+01 0. -1.
</event>
<event>
 7    1  0.2559882E-004  0.5113381E+03  0.7546771E-02  0.9374791E-01
        -11   -1    0    0    0    0  0.00000000000E+00  0.00000000000E+00  0.50000000000E+03  0.50000000000E+03  0.00000000000E+00 0.  1.
         11   -1    0    0    0    0 -0.00000000000E+00 -0.00000000000E+00 -0.50000000000E+03  0.50000000000E+03  0.00000000000E+00 0.  1.
         23    2    1    2    0    0  0.42376972912E+01 -0.25449560910E+02 -0.87890395015E+02  0.10992240336E+03  0.60766561501E+02 0.  0.
        -11    1    1    2    0    0  0.63919127296E+01  0.41946542787E+01  0.48860205141E+03  0.48866186297E+03  0.00000000000E+00 0.  1.
         11    1    1    2    0    0 -0.10629610021E+02  0.21254906631E+02 -0.40071165640E+03  0.40141573367E+03  0.00000000000E+00 0.  1.
        -15    1    3    3    0    0  0.82660656262E+01 -0.23935417400E+02 -0.96690119264E+02  0.99966839198E+02  0.17770000000E+01 0.  1.
         15    1    3    3    0    0 -0.40283683350E+01 -0.15141435103E+01  0.87997242488E+01  0.99555641662E+01  0.17770000000E+01 0. -1.
</event>
<event>
 7    1  0.2559882E-004  0.5274477E+03  0.7546771E-02  0.9340405E-01
        -11   -1    0    0    0    0  0.00000000000E+00  0.00000000000E+00  0.50000000000E+03  0.50000000000E+03  0.00000000000E+00 0.  1.
         11   -1    0    0    0    0 -0.00000000000E+00 -0.00000000000E+00 -0.50000000000E+03  0.50000000000E+03  0.00000000000E+00 0. -1.
         23    2    1    2    0    0  0.80622112312E+01  0.52025182027E+02  0.87957521861E+02  0.14398606893E+03  0.10111302378E+03 0.  0.
        -11    1    1    2    0    0 -0.26684951090E+00 -0.15767501770E+02  0.38313724281E+03  0.38346164365E+03  0.00000000000E+00 0.  1.
         11    1    1    2    0    0 -0.77953617203E+01 -0.36257680257E+02 -0.47109476468E+03  0.47255228742E+03  0.00000000000E+00 0. -1.
        -15    1    3    3    0    0  0.49160417767E+01  0.35699352958E+02 -0.15440259362E+02  0.39245007409E+02  0.17770000000E+01 0. -1.
         15    1    3    3    0    0  0.31461694544E+01  0.16325829070E+02  0.10339778122E+03  0.10474106152E+03  0.17770000000E+01 0.  1.
</event>
<event>
 7    1  0.2559882E-004  0.4856625E+03  0.7546771E-02  0.9432475E-01
        -11   -1    0    0    0    0  0.00000000000E+00  0.00000000000E+00  0.50000000000E+03  0.50000000000E+03  0.00000000000E+00 0. -1.
         11   -1    0    0    0    0 -0.00000000000E+00 -0.00000000000E+00 -0.50000000000E+03  0.50000000000E+03  0.00000000000E+00 0. -1.
         23    2    1    2    0    0  0.45951652791E+01 -0.48038341875E+01 -0.46023644062E+03  0.46849648856E+03  0.87333762953E+02 0.  0.
        -11    1    1    2    0    0 -0.10449642502E+02  0.93771681141E+01  0.49538222277E+03  0.49558114668E+03  0.00000000000E+00 0. -1.
         11    1    1    2    0    0  0.58544772229E+01 -0.45733339266E+01 -0.35145782152E+02  0.35922364758E+02  0.00000000000E+00 0. -1.
        -15    1    3    3    0    0 -0.52601472757E+01 -0.71390075938E+01 -0.45785127915E+03  0.45794059236E+03  0.17770000000E+01 0. -1.
         15    1    3    3    0    0  0.98553125549E+01  0.23351734063E+01 -0.23851614672E+01  0.10555896201E+02  0.17770000000E+01 0.  1.
</event>
<event>
 7    1  0.2559882E-004  0.5341989E+03  0.7546771E-02  0.9326379E-01
        -11   -1    0    0    0    0  0.00000000000E+00  0.00000000000E+00  0.50000000000E+03  0.50000000000E+03  0.00000000000E+00 0. -1.
         11   -1    0    0    0    0 -0.00000000000E+00 -0.00000000000E+00 -0.50000000000E+03  0.50000000000E+03  0.00000000000E+00 0. -1.
         23    2    1    2    0    0 -0.31657250439E+02  0.80503581395E+02 -0.11060436468E+03  0.16716052249E+03  0.90698989355E+02 0.  0.
        -11    1    1    2    0    0 -0.62050844720E+01  0.41204860447E+01  0.46574151855E+03  0.46580107726E+03  0.00000000000E+00 0. -1.
         11    1    1    2    0    0  0.37862334911E+02 -0.84624067440E+02 -0.35513715387E+03  0.36703840025E+03  0.00000000000E+00 0. -1.
        -15    1    3    3    0    0  0.46847888621E+01 -0.15538791876E+01  0.13220275613E+02  0.14223051835E+02  0.17770000000E+01 0.  1.
         15    1    3    3    0    0 -0.36342039301E+02  0.82057460583E+02 -0.12382464029E+03  0.15293747065E+03  0.17770000000E+01 0. -1.
</event>
<event>
 7    1  0.2559882E-004  0.5228654E+03  0.7546771E-02  0.9350052E-01
        -11   -1    0    0    0    0  0.00000000000E+00  0.00000000000E+00  0.50000000000E+03  0.50000000000E+03  0.00000000000E+00 0.  1.
         11   -1    0    0    0    0 -0.00000000000E+00 -0.00000000000E+00 -0.50000000000E+03  0.50000000000E+03  0.00000000000E+00 0. -1.
         23    2    1    2    0    0  0.45001081535E+02 -0.22848626738E+02 -0.12461399564E+03  0.16289570762E+03  0.91973945063E+02 0.  0.
        -11    1    1    2    0    0  0.81150846533E+01 -0.36441737983E+02  0.47567169810E+03  0.47713459238E+03  0.00000000000E+00 0.  1.
         11    1    1    2    0    0 -0.53116166188E+02  0.59290364721E+02 -0.35105770246E+03  0.35996970000E+03  0.00000000000E+00 0. -1.
        -15    1    3    3    0    0 -0.23300158041E+02 -0.17170067521E+02 -0.12713238918E+02  0.31662166006E+02  0.17770000000E+01 0.  1.
         15    1    3    3    0    0  0.68301239575E+02 -0.56785592170E+01 -0.11190075672E+03  0.13123354162E+03  0.17770000000E+01 0. -1.
</event>
<event>
 7    1  0.2559882E-004  0.4978774E+03  0.7546771E-02  0.9404572E-01
        -11   -1    0    0    0    0  0.00000000000E+00  0.00000000000E+00  0.50000000000E+03  0.50000000000E+03  0.00000000000E+00 0.  1.
         11   -1    0    0    0    0 -0.00000000000E+00 -0.00000000000E+00 -0.50000000000E+03  0.50000000000E+03  0.00000000000E+00 0.  1.
         23    2    1    2    0    0  0.11465647022E+00 -0.66108737834E+01 -0.48748344777E+03  0.49427161223E+03  0.81367057277E+02 0.  0.
        -11    1    1    2    0    0  0.79907422335E+01  0.66511748692E+01  0.49473998543E+03  0.49484921266E+03  0.00000000000E+00 0.  1.
         11    1    1    2    0    0 -0.81053987037E+01 -0.40301085726E-01 -0.72565376563E+01  0.10879175110E+02  0.00000000000E+00 0.  1.
        -15    1    3    3    0    0  0.22944069706E+02  0.20147387903E+02 -0.37861337815E+03  0.37984680520E+03  0.17770000000E+01 0.  1.
         15    1    3    3    0    0 -0.22829413235E+02 -0.26758261687E+02 -0.10887006962E+03  0.11442480704E+03  0.17770000000E+01 0. -1.
</event>
<event>
 7    1  0.2559882E-004  0.5140097E+03  0.7546771E-02  0.9368996E-01
        -11   -1    0    0    0    0  0.00000000000E+00  0.00000000000E+00  0.50000000000E+03  0.50000000000E+03  0.00000000000E+00 0. -1.
         11   -1    0    0    0    0 -0.00000000000E+00 -0.00000000000E+00 -0.50000000000E+03  0.50000000000E+03  0.00000000000E+00 0.  1.
         23    2    1    2    0    0  0.68246393690E+01 -0.28697061445E+02 -0.29357291816E+03  0.30885450986E+03  0.91301439991E+02 0.  0.
        -11    1    1    2    0    0 -0.75687233175E+02 -0.24179375452E+02  0.47945108128E+03  0.48599026616E+03  0.00000000000E+00 0. -1.
         11    1    1    2    0    0  0.68862593806E+02  0.52876436898E+02 -0.18587816311E+03  0.20515522398E+03  0.00000000000E+00 0.  1.
        -15    1    3    3    0    0 -0.28613948245E+02 -0.33181392160E+00 -0.30391118876E+02  0.41780928306E+02  0.17770000000E+01 0. -1.
         15    1    3    3    0    0  0.35438587614E+02 -0.28365247524E+02 -0.26318179929E+03  0.26707358156E+03  0.17770000000E+01 0.  1.
</event>
<event>
 7    1  0.2559882E-004  0.5146579E+03  0.7546771E-02  0.9367596E-01
        -11   -1    0    0    0    0  0.00000000000E+00  0.00000000000E+00  0.50000000000E+03  0.50000000000E+03  0.00000000000E+00 0.  1.
         11   -1    0    0    0    0 -0.00000000000E+00 -0.00000000000E+00 -0.50000000000E+03  0.50000000000E+03  0.00000000000E+00 0.  1.
         23    2    1    2    0    0 -0.46076488725E+02  0.10076036085E+02  0.12216122436E+03  0.15527956100E+03  0.83449433843E+02 0.  0.
        -11    1    1    2    0    0 -0.16626457123E+02  0.69952805379E+00  0.35899281524E+03  0.35937831016E+03  0.00000000000E+00 0.  1.
         11    1    1    2    0    0  0.62702945848E+02 -0.10775564139E+02 -0.48115403961E+03  0.48534212884E+03  0.00000000000E+00 0.  1.
        -15    1    3    3    0    0  0.12504730813E+02  0.25100620311E+02  0.69877499461E+02  0.75315550138E+02  0.17770000000E+01 0. -1.
         15    1    3    3    0    0 -0.58581219539E+02 -0.15024584226E+02  0.52283724903E+02  0.79964010858E+02  0.17770000000E+01 0.  1.
</event>
<event>
 7    1  0.2559882E-004  0.5092589E+03  0.7546771E-02  0.9379327E-01
        -11   -1    0    0    0    0  0.00000000000E+00  0.00000000000E+00  0.50000000000E+03  0.50000000000E+03  0.00000000000E+00 0. -1.
         11   -1    0    0    0    0 -0.00000000000E+00 -0.00000000000E+00 -0.50000000000E+03  0.50000000000E+03  0.00000000000E+00 0.  1.
         23    2    1    2    0    0  0.13370672382E+02 -0.29636247270E+02 -0.31980361276E+03  0.33415056394E+03  0.91242351012E+02 0.  0.
        -11    1    1    2    0    0  0.30346786453E+02  0.23286655480E+02  0.48924800687E+03  0.49074108041E+03  0.00000000000E+00 0. -1.
         11    1    1    2    0    0 -0.43717458835E+02  0.63495917901E+01 -0.16944439411E+03  0.17510835565E+03  0.00000000000E+00 0.  1.
        -15    1    3    3    0    0  0.22609534132E+02  0.24635745344E+02 -0.19324990550E+03  0.19612953547E+03  0.17770000000E+01 0. -1.
         15    1    3    3    0    0 -0.92388617499E+01 -0.54271992614E+02 -0.12655370726E+03  0.13802102847E+03  0.17770000000E+01 0.  1.
</event>
<event>
 7    1  0.2559882E-004  0.5345401E+03  0.7546771E-02  0.9325676E-01
        -11   -1    0    0    0    0  0.00000000000E+00  0.00000000000E+00  0.50000000000E+03  0.50000000000E+03  0.00000000000E+00 0.  1.
         11   -1    0    0    0    0 -0.00000000000E+00 -0.00000000000E+00 -0.50000000000E+03  0.50000000000E+03  0.00000000000E+00 0.  1.
         23    2    1    2    0    0  0.48229401862E+02  0.92109993895E+02  0.72866835042E+02  0.15495079684E+03  0.88824814169E+02 0.  0.
        -11    1    1    2    0    0 -0.30886634949E+01  0.78030680171E+01  0.37949652577E+03  0.37958930542E+03  0.00000000000E+00 0.  1.
         11    1    1    2    0    0 -0.45140738367E+02 -0.99913061912E+02 -0.45236336082E+03  0.46545989775E+03  0.00000000000E+00 0.  1.
        -15    1    3    3    0    0 -0.85275320367E+01 -0.13378905433E+02  0.14999089195E+02  0.21905349093E+02  0.17770000000E+01 0. -1.
         15    1    3    3    0    0  0.56756933898E+02  0.10548889933E+03  0.57867745846E+02  0.13304544774E+03  0.17770000000E+01 0.  1.
</event>
<event>
 7    1  0.2559882E-004  0.5201366E+03  0.7546771E-02  0.9355847E-01
        -11   -1    0    0    0    0  0.00000000000E+00  0.00000000000E+00  0.50000000000E+03  0.50000000000E+03  0.00000000000E+00 0. -1.
         11   -1    0    0    0    0 -0.00000000000E+00 -0.00000000000E+00 -0.50000000000E+03  0.50000000000E+03  0.00000000000E+00 0.  1.
         23    2    1    2    0    0 -0.33145889476E+02 -0.27514921461E+02 -0.10476601634E+03  0.14372134899E+03  0.88454435070E+02 0.  0.
        -11    1    1    2    0    0 -0.29197526479E+00  0.17259978412E+02  0.47955283685E+03  0.47986343415E+03  0.00000000000E+00 0. -1.
         11    1    1    2    0    0  0.33437864740E+02  0.10254943049E+02 -0.37478682051E+03  0.37641521686E+03  0.00000000000E+00 0.  1.
        -15    1    3    3    0    0 -0.92546078301E+01 -0.26861541645E+02 -0.11440205166E+03  0.11789053116E+03  0.17770000000E+01 0. -1.
         15    1    3    3    0    0 -0.23891281646E+02 -0.65337981570E+00  0.96360353185E+01  0.25830817825E+02  0.17770000000E+01 0.  1.
</event>
<event>
 7    1  0.2559882E-004  0.5193357E+03  0.7546771E-02  0.9357555E-01
        -11   -1    0    0    0    0  0.00000000000E+00  0.00000000000E+00  0.50000000000E+03  0.50000000000E+03  0.00000000000E+00 0. -1.
         11   -1    0    0    0    0 -0.00000000000E+00 -0.00000000000E+00 -0.50000000000E+03  0.50000000000E+03  0.00000000000E+00 0. -1.
         23    2    1    2    0    0 -0.69437257954E+02  0.65454265725E+02 -0.35373040950E+03  0.37790453748E+03  0.92632840572E+02 0.  0.
        -11    1    1    2    0    0  0.76688207279E+02  0.78871915014E+01  0.47444169775E+03  0.48066434598E+03  0.00000000000E+00 0. -1.
         11    1    1    2    0    0 -0.72509493251E+01 -0.73341457227E+02 -0.12071128826E+03  0.14143111654E+03  0.00000000000E+00 0. -1.
        -15    1    3    3    0    0 -0.31648144493E+02 -0.68059118966E+01 -0.30395471182E+02  0.44440610752E+02  0.17770000000E+01 0.  1.
         15    1    3    3    0    0 -0.37789113461E+02  0.72260177622E+02 -0.32333493831E+03  0.33346392673E+03  0.17770000000E+01 0. -1.
</event>
<event>
 7    1  0.2559882E-004  0.5205761E+03  0.7546771E-02  0.9354911E-01
        -11   -1    0    0    0    0  0.00000000000E+00  0.00000000000E+00  0.50000000000E+03  0.50000000000E+03  0.00000000000E+00 0. -1.
         11   -1    0    0    0    0 -0.00000000000E+00 -0.00000000000E+00 -0.50000000000E+03  0.50000000000E+03  0.00000000000E+00 0. -1.
         23    2    1    2    0    0  0.50117691766E+02  0.53333170753E+01  0.98965712692E+02  0.14320210190E+03  0.90401340701E+02 0.  0.
        -11    1    1    2    0    0  0.33148423962E+01  0.95940979886E+01  0.37723743313E+03  0.37737397346E+03  0.00000000000E+00 0. -1.
         11    1    1    2    0    0 -0.53432534162E+02 -0.14927415064E+02 -0.47620314582E+03  0.47942392464E+03  0.00000000000E+00 0. -1.
        -15    1    3    3    0    0  0.16590427373E+02  0.97504493727E+01 -0.14903224648E+02  0.24404454046E+02  0.17770000000E+01 0.  1.
         15    1    3    3    0    0  0.33527264393E+02 -0.44171322973E+01  0.11386893734E+03  0.11879764785E+03  0.17770000000E+01 0. -1.
</event>
<event>
 7    1  0.2559882E-004  0.5038344E+03  0.7546771E-02  0.9391271E-01
        -11   -1    0    0    0    0  0.00000000000E+00  0.00000000000E+00  0.50000000000E+03  0.50000000000E+03  0.00000000000E+00 0.  1.
         11   -1    0    0    0    0 -0.00000000000E+00 -0.00000000000E+00 -0.50000000000E+03  0.50000000000E+03  0.00000000000E+00 0. -1.
         23    2    1    2    0    0 -0.12852789954E+00 -0.11680054638E+02 -0.49569526422E+03  0.50383443486E+03  0.89436584129E+02 0.  0.
        -11    1    1    2    0    0 -0.90266301629E-01  0.12783455967E+02  0.49377224449E+03  0.49393770288E+03  0.00000000000E+00 0.  1.
         11    1    1    2    0    0  0.21879420117E+00 -0.11034013290E+01  0.19230197290E+01  0.22278622653E+01  0.00000000000E+00 0. -1.
        -15    1    3    3    0    0  0.33533549285E+02 -0.14457310978E+02 -0.96252055982E+02  0.10296178310E+03  0.17770000000E+01 0.  1.
         15    1    3    3    0    0 -0.33662077185E+02  0.27772563402E+01 -0.39944320824E+03  0.40087265176E+03  0.17770000000E+01 0. -1.
</event>
<event>
 7    1  0.2559882E-004  0.5009036E+03  0.7546771E-02  0.9397790E-01
        -11   -1    0    0    0    0  0.00000000000E+00  0.00000000000E+00  0.50000000000E+03  0.50000000000E+03  0.00000000000E+00 0.  1.
         11   -1    0    0    0    0 -0.00000000000E+00 -0.00000000000E+00 -0.50000000000E+03  0.50000000000E+03  0.00000000000E+00 0. -1.
         23    2    1    2    0    0  0.47793675019E+01 -0.38084902977E+02 -0.48871187219E+03  0.49909644040E+03  0.93726520336E+02 0.  0.
        -11    1    1    2    0    0  0.57344302431E+01  0.10004891864E+02  0.45741972056E+03  0.45756505800E+03  0.00000000000E+00 0.  1.
         11    1    1    2    0    0 -0.10513797745E+02  0.28080011114E+02  0.31292151631E+02  0.43338501599E+02  0.00000000000E+00 0. -1.
        -15    1    3    3    0    0  0.15466870194E+02  0.28983339008E+02 -0.13829776306E+03  0.14215726155E+03  0.17770000000E+01 0.  1.
         15    1    3    3    0    0 -0.10687502692E+02 -0.67068241985E+02 -0.35041410912E+03  0.35693917885E+03  0.17770000000E+01 0. -1.
</event>
<event>
 7    1  0.2559882E-004  0.5111153E+03  0.7546771E-02  0.9375276E-01
        -11   -1    0    0    0    0  0.00000000000E+00  0.00000000000E+00  0.50000000000E+03  0.50000000000E+03  0.00000000000E+00 0. -1.
         11   -1    0    0    0    0 -0.00000000000E+00 -0.00000000000E+00 -0.50000000000E+03  0.50000000000E+03  0.00000000000E+00 0.  1.
         23    2    1    2    0    0 -0.87506012684E+00 -0.68614837441E+02  0.22937897603E+03  0.25595428799E+03  0.90493763572E+02 0.  0.
        -11    1    1    2    0    0  0.14080030048E+01  0.33877490581E+01  0.25513461188E+03  0.25516098740E+03  0.00000000000E+00 0. -1.
         11    1    1    2    0    0 -0.53294287792E+00  0.65227088383E+02 -0.48451358791E+03  0.48888472461E+03  0.00000000000E+00 0.  1.
        -15    1    3    3    0    0 -0.54711447452E+01 -0.87260063589E+02  0.14441121292E+03  0.16882537803E+03  0.17770000000E+01 0. -1.
         15    1    3    3    0    0  0.45960846183E+01  0.18645226149E+02  0.84967763115E+02  0.87128909954E+02  0.17770000000E+01 0.  1.
</event>
<event>
 7    1  0.2559882E-004  0.5160255E+03  0.7546771E-02  0.9364649E-01
        -11   -1    0    0    0    0  0.00000000000E+00  0.00000000000E+00  0.50000000000E+03  0.50000000000E+03  0.00000000000E+00 0. -1.
         11   -1    0    0    0    0 -0.00000000000E+00 -0.00000000000E+00 -0.50000000000E+03  0.50000000000E+03  0.00000000000E+00 0. -1.
         23    2    1    2    0    0 -0.49214474298E+01  0.11074823442E+02 -0.11705181216E+03  0.14892470805E+03  0.91271953962E+02 0.  0.
        -11    1    1    2    0    0 -0.15115114893E+02 -0.11351683480E+02  0.48360524408E+03  0.48397454429E+03  0.00000000000E+00 0. -1.
         11    1    1    2    0    0  0.20036562323E+02  0.27686003721E+00 -0.36655343192E+03  0.36710074766E+03  0.00000000000E+00 0. -1.
        -15    1    3    3    0    0  0.29654977692E+01 -0.24195626938E+02 -0.10919427107E+03  0.11189624258E+03  0.17770000000E+01 0. -1.
         15    1    3    3    0    0 -0.78869451991E+01  0.35270450380E+02 -0.78575410926E+01  0.37028465477E+02  0.17770000000E+01 0.  1.
</event>
<event>
 7    1  0.2559882E-004  0.5098242E+03  0.7546771E-02  0.9378092E-01
        -11   -1    0    0    0    0  0.00000000000E+00  0.00000000000E+00  0.50000000000E+03  0.50000000000E+03  0.00000000000E+00 0.  1.
         11   -1    0    0    0    0 -0.00000000000E+00 -0.00000000000E+00 -0.50000000000E+03  0.50000000000E+03  0.00000000000E+00 0.  1.
         23    2    1    2    0    0  0.22198462192E+02 -0.11946740213E+01  0.20186919365E+03  0.22266516053E+03  0.91292953722E+02 0.  0.
        -11    1    1    2    0    0  0.31261656149E+02  0.83622014283E+01  0.28532985161E+03  0.28715908792E+03  0.00000000000E+00 0.  1.
         11    1    1    2    0    0 -0.53460118341E+02 -0.71675274070E+01 -0.48719904526E+03  0.49017575155E+03  0.00000000000E+00 0.  1.
        -15    1    3    3    0    0  0.22370484196E+02  0.58324510744E+01  0.26763974067E+01  0.23340455882E+02  0.17770000000E+01 0. -1.
         15    1    3    3    0    0 -0.17202200379E+00 -0.70271250957E+01  0.19919279625E+03  0.19932470465E+03  0.17770000000E+01 0.  1.
</event>
<event>
 7    1  0.2559882E-004  0.5197464E+03  0.7546771E-02  0.9356678E-01
        -11   -1    0    0    0    0  0.00000000000E+00  0.00000000000E+00  0.50000000000E+03  0.50000000000E+03  0.00000000000E+00 0.  1.
         11   -1    0    0    0    0 -0.00000000000E+00 -0.00000000000E+00 -0.50000000000E+03  0.50000000000E+03  0.00000000000E+00 0. -1.
         23    2    1    2    0    0 -0.27412815379E+02 -0.58288113098E+02 -0.20890499346E+03  0.24399865727E+03  0.10837472898E+03 0.  0.
        -11    1    1    2    0    0 -0.13240035465E+01  0.16603250367E+02  0.47996471154E+03  0.48025362595E+03  0.00000000000E+00 0.  1.
         11    1    1    2    0    0  0.28736818925E+02  0.41684862730E+02 -0.27105971808E+03  0.27574771678E+03  0.00000000000E+00 0. -1.
        -15    1    3    3    0    0 -0.37305799886E+01 -0.79737510486E+02 -0.19170506798E+03  0.20766795281E+03  0.17770000000E+01 0. -1.
         15    1    3    3    0    0 -0.23682235390E+02  0.21449397389E+02 -0.17199925487E+02  0.36330704469E+02  0.17770000000E+01 0.  1.
</event>
<event>
 7    1  0.2559882E-004  0.5039294E+03  0.7546771E-02  0.9391060E-01
        -11   -1    0    0    0    0  0.00000000000E+00  0.00000000000E+00  0.50000000000E+03  0.50000000000E+03  0.00000000000E+00 0. -1.
         11   -1    0    0    0    0 -0.00000000000E+00 -0.00000000000E+00 -0.50000000000E+03  0.50000000000E+03  0.00000000000E+00 0. -1.
         23    2    1    2    0    0  0.23737863054E+01 -0.26582092274E+02 -0.49452178336E+03  0.50392937513E+03  0.93170694995E+02 0.  0.
        -11    1    1    2    0    0 -0.11946946285E+02  0.24984741103E+02  0.42117001210E+03  0.42207954926E+03  0.00000000000E+00 0. -1.
         11    1    1    2    0    0  0.95731599793E+01  0.15973511713E+01  0.73351771261E+02  0.73991075610E+02  0.00000000000E+00 0. -1.
        -15    1    3    3    0    0  0.27546008020E+02 -0.42649167265E+02 -0.15545784792E+03  0.16354826271E+03  0.17770000000E+01 0.  1.
         15    1    3    3    0    0 -0.25172221715E+02  0.16067074991E+02 -0.33906393544E+03  0.34038111242E+03  0.17770000000E+01 0. -1.
</event>
<event>
 7    1  0.2559882E-004  0.4142206E+03  0.7546771E-02  0.9615292E-01
        -11   -1    0    0    0    0  0.00000000000E+00  0.00000000000E+00  0.50000000000E+03  0.50000000000E+03  0.00000000000E+00 0. -1.
         11   -1    0    0    0    0 -0.00000000000E+00 -0.00000000000E+00 -0.50000000000E+03  0.50000000000E+03  0.00000000000E+00 0.  1.
         23    2    1    2    0    0 -0.99945113280E+02 -0.45489667903E+02 -0.34413735274E+03  0.37388939248E+03  0.96459445921E+02 0.  0.
        -11    1    1    2    0    0 -0.16315257777E+02  0.16438563881E+02  0.45931520378E+03  0.45989876108E+03  0.00000000000E+00 0. -1.
         11    1    1    2    0    0  0.11626037106E+03  0.29051104022E+02 -0.11517785105E+03  0.16621184644E+03  0.00000000000E+00 0.  1.
        -15    1    3    3    0    0  0.90931230898E+01  0.14613114680E+02 -0.80322418310E+02  0.82164935467E+02  0.17770000000E+01 0. -1.
         15    1    3    3    0    0 -0.10903823637E+03 -0.60102782583E+02 -0.26381493443E+03  0.29172445701E+03  0.17770000000E+01 0.  1.
</event>
<event>
 7    1  0.2559882E-004  0.5112015E+03  0.7546771E-02  0.9375089E-01
        -11   -1    0    0    0    0  0.00000000000E+00  0.00000000000E+00  0.50000000000E+03  0.50000000000E+03  0.00000000000E+00 0. -1.
         11   -1    0    0    0    0 -0.00000000000E+00 -0.00000000000E+00 -0.50000000000E+03  0.50000000000E+03  0.00000000000E+00 0. -1.
         23    2    1    2    0    0  0.29975169837E+02 -0.64805117789E+02 -0.33264359603E+03  0.35214297748E+03  0.90855382420E+02 0.  0.
        -11    1    1    2    0    0  0.16195757786E+02  0.60348962049E+02  0.48478827353E+03  0.48879849626E+03  0.00000000000E+00 0. -1.
         11    1    1    2    0    0 -0.46170927623E+02  0.44561557400E+01 -0.15214467751E+03  0.15905852626E+03  0.00000000000E+00 0. -1.
        -15    1    3    3    0    0  0.10827076027E+01 -0.20644273559E+02 -0.64862257508E+01  0.21739069438E+02  0.17770000000E+01 0.  1.
         15    1    3    3    0    0  0.28892462235E+02 -0.44160844230E+02 -0.32615737028E+03  0.33040390804E+03  0.17770000000E+01 0. -1.
</event>
<event>
 7    1  0.2559882E-004  0.4196168E+03  0.7546771E-02  0.9600152E-01
        -11   -1    0    0    0    0  0.00000000000E+00  0.00000000000E+00  0.50000000000E+03  0.50000000000E+03  0.00000000000E+00 0.  1.
         11   -1    0    0    0    0 -0.00000000000E+00 -0.00000000000E+00 -0.50000000000E+03  0.50000000000E+03  0.00000000000E+00 0.  1.
         23    2    1    2    0    0 -0.92185170353E+02 -0.50684323333E+02 -0.21209700498E+02  0.15393266120E+03  0.11035581780E+03 0.  0.
        -11    1    1    2    0    0  0.22427579067E+02  0.35492603144E+02  0.42951771406E+03  0.43156481306E+03  0.00000000000E+00 0.  1.
         11    1    1    2    0    0  0.69757591286E+02  0.15191720189E+02 -0.40830801356E+03  0.41450252574E+03  0.00000000000E+00 0.  1.
        -15    1    3    3    0    0 -0.92770283349E+02 -0.51557467653E+02 -0.55361417681E+02  0.11971859605E+03  0.17770000000E+01 0. -1.
         15    1    3    3    0    0  0.58511299617E+00  0.87314431990E+00  0.34151717184E+02  0.34214065146E+02  0.17770000000E+01 0.  1.
</event>
<event>
 7    1  0.2559882E-004  0.5304435E+03  0.7546771E-02  0.9334154E-01
        -11   -1    0    0    0    0  0.00000000000E+00  0.00000000000E+00  0.50000000000E+03  0.50000000000E+03  0.00000000000E+00 0. -1.
         11   -1    0    0    0    0 -0.00000000000E+00 -0.00000000000E+00 -0.50000000000E+03  0.50000000000E+03  0.00000000000E+00 0.  1.
         23    2    1    2    0    0  0.24777211549E+02  0.46236813504E+02  0.35567139146E+02  0.97526669497E+02  0.74126086778E+02 0.  0.
        -11    1    1    2    0    0 -0.12174538464E+02 -0.12091277431E+02  0.43257662892E+03  0.43291680294E+03  0.00000000000E+00 0. -1.
         11    1    1    2    0    0 -0.12602673086E+02 -0.34145536074E+02 -0.46814376807E+03  0.46955652757E+03  0.00000000000E+00 0.  1.
        -15    1    3    3    0    0  0.34162699241E+02  0.30893024326E+02  0.54482021667E+02  0.71364678836E+02  0.17770000000E+01 0. -1.
         15    1    3    3    0    0 -0.93854876913E+01  0.15343789179E+02 -0.18914882521E+02  0.26161990661E+02  0.17770000000E+01 0.  1.
</event>
<event>
 7    1  0.2559882E-004  0.5361358E+03  0.7546771E-02  0.9322396E-01
        -11   -1    0    0    0    0  0.00000000000E+00  0.00000000000E+00  0.50000000000E+03  0.50000000000E+03  0.00000000000E+00 0. -1.
         11   -1    0    0    0    0 -0.00000000000E+00 -0.00000000000E+00 -0.50000000000E+03  0.50000000000E+03  0.00000000000E+00 0.  1.
         23    2    1    2    0    0 -0.40554564518E+02  0.13743265329E+02  0.37115548470E+02  0.11087997533E+03  0.95306111797E+02 0.  0.
        -11    1    1    2    0    0  0.36896790597E+01 -0.53795573868E+01  0.42520579204E+03  0.42525582765E+03  0.00000000000E+00 0. -1.
         11    1    1    2    0    0  0.36864885459E+02 -0.83637079417E+01 -0.46232134051E+03  0.46386419702E+03  0.00000000000E+00 0.  1.
        -15    1    3    3    0    0 -0.12620482318E+02 -0.64254880412E+01  0.64982268050E+02  0.66531318643E+02  0.17770000000E+01 0. -1.
         15    1    3    3    0    0 -0.27934082200E+02  0.20168753370E+02 -0.27866719580E+02  0.44348656688E+02  0.17770000000E+01 0.  1.
</event>
<event>
 7    1  0.2559882E-004  0.4815943E+03  0.7546771E-02  0.9441963E-01
        -11   -1    0    0    0    0  0.00000000000E+00  0.00000000000E+00  0.50000000000E+03  0.50000000000E+03  0.00000000000E+00 0.  1.
         11   -1    0    0    0    0 -0.00000000000E+00 -0.00000000000E+00 -0.50000000000E+03  0.50000000000E+03  0.00000000000E+00 0. -1.
         23    2    1    2    0    0  0.32760421466E+01 -0.15212378156E+02 -0.45205440774E+03  0.46229823112E+03  0.95521296260E+02 0.  0.
        -11    1    1    2    0    0 -0.68435559125E+01 -0.52378791553E+01  0.49232237790E+03  0.49239779997E+03  0.00000000000E+00 0.  1.
         11    1    1    2    0    0  0.35675137660E+01  0.20450257311E+02 -0.40267970158E+02  0.45303968912E+02  0.00000000000E+00 0. -1.
        -15    1    3    3    0    0  0.11312780362E+02 -0.33041581094E+02 -0.57801845278E+02  0.67556910286E+02  0.17770000000E+01 0.  1.
         15    1    3    3    0    0 -0.80367382150E+01  0.17829202939E+02 -0.39425256246E+03  0.39474132083E+03  0.17770000000E+01 0. -1.
</event>
<event>
 7    1  0.2559882E-004  0.5088577E+03  0.7546771E-02  0.9380205E-01
        -11   -1    0    0    0    0  0.00000000000E+00  0.00000000000E+00  0.50000000000E+03  0.50000000000E+03  0.00000000000E+00 0.  1.
         11   -1    0    0    0    0 -0.00000000000E+00 -0.00000000000E+00 -0.50000000000E+03  0.50000000000E+03  0.00000000000E+00 0.  1.
         23    2    1    2    0    0 -0.18466162771E+02  0.47883891216E+02 -0.47964623239E+03  0.49114233890E+03  0.92338630115E+02 0.  0.
        -11    1    1    2    0    0 -0.41458319080E+02 -0.75647359466E+02  0.37742469933E+03  0.38715722759E+03  0.00000000000E+00 0.  1.
         11    1    1    2    0    0  0.59924481851E+02  0.27763468250E+02  0.10222153306E+03  0.12170043351E+03  0.00000000000E+00 0.  1.
        -15    1    3    3    0    0 -0.34391856829E+02 -0.17105909063E+02 -0.15893162362E+03  0.16351706534E+03  0.17770000000E+01 0. -1.
         15    1    3    3    0    0  0.15925694058E+02  0.64989800278E+02 -0.32071460877E+03  0.32762527356E+03  0.17770000000E+01 0.  1.
</event>
<event>
 7    1  0.2559882E-004  0.5234178E+03  0.7546771E-02  0.9348883E-01
        -11   -1    0    0    0    0  0.00000000000E+00  0.00000000000E+00  0.50000000000E+03  0.50000000000E+03  0.00000000000E+00 0. -1.
         11   -1    0    0    0    0 -0.00000000000E+00 -0.00000000000E+00 -0.50000000000E+03  0.50000000000E+03  0.00000000000E+00 0.  1.
         23    2    1    2    0    0  0.71306925970E+02 -0.40257494105E+02 -0.38352912722E+03  0.40264098523E+03  0.91213091398E+02 0.  0.
        -11    1    1    2    0    0 -0.10069495457E+02 -0.67184140636E+01  0.47642843674E+03  0.47658219350E+03  0.00000000000E+00 0. -1.
         11    1    1    2    0    0 -0.61237430513E+02  0.46975908169E+02 -0.92899309526E+02  0.12077682126E+03  0.00000000000E+00 0.  1.
        -15    1    3    3    0    0  0.85496388884E+02 -0.10316195962E+02 -0.31400718004E+03  0.32560670027E+03  0.17770000000E+01 0.  1.
         15    1    3    3    0    0 -0.14189462914E+02 -0.29941298143E+02 -0.69521947173E+02  0.77034284965E+02  0.17770000000E+01 0. -1.
</event>
<event>
 7    1  0.2559882E-004  0.5036043E+03  0.7546771E-02  0.9391781E-01
        -11   -1    0    0    0    0  0.00000000000E+00  0.00000000000E+00  0.50000000000E+03  0.50000000000E+03  0.00000000000E+00 0.  1.
         11   -1    0    0    0    0 -0.00000000000E+00 -0.00000000000E+00 -0.50000000000E+03  0.50000000000E+03  0.00000000000E+00 0.  1.
         23    2    1    2    0    0  0.29715937876E+02 -0.11330457783E+03 -0.47264828263E+03  0.49639566171E+03  0.96391335549E+02 0.  0.
        -11    1    1    2    0    0  0.98238068392E+01  0.10726222611E+02  0.29041403902E+03  0.29077804782E+03  0.00000000000E+00 0.  1.
         11    1    1    2    0    0 -0.39539744715E+02  0.10257835522E+03  0.18223424361E+03  0.21282629047E+03  0.00000000000E+00 0.  1.
        -15    1    3    3    0    0 -0.14719777663E+02 -0.13773865677E+02 -0.22384324031E+03  0.22475619056E+03  0.17770000000E+01 0.  1.
         15    1    3    3    0    0  0.44435715539E+02 -0.99530712152E+02 -0.24880504232E+03  0.27163947116E+03  0.17770000000E+01 0. -1.
</event>
<event>
 7    1  0.2559882E-004  0.5403571E+03  0.7546771E-02  0.9313776E-01
        -11   -1    0    0    0    0  0.00000000000E+00  0.00000000000E+00  0.50000000000E+03  0.50000000000E+03  0.00000000000E+00 0.  1.
         11   -1    0    0    0    0 -0.00000000000E+00 -0.00000000000E+00 -0.50000000000E+03  0.50000000000E+03  0.00000000000E+00 0. -1.
         23    2    1    2    0    0  0.13870436926E+02 -0.19454647480E+02  0.15240027460E+02  0.96871681073E+02  0.92633643067E+02 0.  0.
        -11    1    1    2    0    0  0.55483077468E+01 -0.30609028559E+01  0.44344017717E+03  0.44348544911E+03  0.00000000000E+00 0.  1.
         11    1    1    2    0    0 -0.19418744673E+02  0.22515550336E+02 -0.45868020463E+03  0.45964286981E+03  0.00000000000E+00 0. -1.
        -15    1    3    3    0    0  0.17819225347E+02  0.42945002279E+01  0.50718954190E+02  0.53958665359E+02  0.17770000000E+01 0. -1.
         15    1    3    3    0    0 -0.39487884207E+01 -0.23749147708E+02 -0.35478926730E+02  0.42913015715E+02  0.17770000000E+01 0.  1.
</event>
<event>
 7    1  0.2559882E-004  0.5294610E+03  0.7546771E-02  0.9336199E-01
        -11   -1    0    0    0    0  0.00000000000E+00  0.00000000000E+00  0.50000000000E+03  0.50000000000E+03  0.00000000000E+00 0. -1.
         11   -1    0    0    0    0 -0.00000000000E+00 -0.00000000000E+00 -0.50000000000E+03  0.50000000000E+03  0.00000000000E+00 0.  1.
         23    2    1    2    0    0 -0.10503026342E+02  0.63787557876E+02  0.75180307830E+02  0.13498265852E+03  0.91591884536E+02 0.  0.
        -11    1    1    2    0    0  0.59592168737E+01 -0.24349752309E+02  0.39368102615E+03  0.39447835562E+03  0.00000000000E+00 0. -1.
         11    1    1    2    0    0  0.45438094681E+01 -0.39437805567E+02 -0.46886133398E+03  0.47053898586E+03  0.00000000000E+00 0.  1.
        -15    1    3    3    0    0  0.22137437164E+02  0.16912234491E+02  0.72594364669E+02  0.77776534445E+02  0.17770000000E+01 0. -1.
         15    1    3    3    0    0 -0.32640463505E+02  0.46875323385E+02  0.25859431608E+01  0.57206124072E+02  0.17770000000E+01 0.  1.
</event>
<event>
 7    1  0.2559882E-004  0.5293235E+03  0.7546771E-02  0.9336486E-01
        -11   -1    0    0    0    0  0.00000000000E+00  0.00000000000E+00  0.50000000000E+03  0.50000000000E+03  0.00000000000E+00 0.  1.
         11   -1    0    0    0    0 -0.00000000000E+00 -0.00000000000E+00 -0.50000000000E+03  0.50000000000E+03  0.00000000000E+00 0. -1.
         23    2    1    2    0    0  0.58927341265E+02  0.82154469926E+02 -0.17933755280E+03  0.21824969976E+03  0.72451260324E+02 0.  0.
        -11    1    1    2    0    0 -0.13484521946E+01  0.10834522362E+02  0.47054987220E+03  0.47067652101E+03  0.00000000000E+00 0.  1.
         11    1    1    2    0    0 -0.57578889071E+02 -0.92988992289E+02 -0.29121231940E+03  0.31107377923E+03  0.00000000000E+00 0. -1.
        -15    1    3    3    0    0  0.74165245960E+02  0.57727252381E+02 -0.15062692732E+03  0.17755153714E+03  0.17770000000E+01 0. -1.
         15    1    3    3    0    0 -0.15237904695E+02  0.24427217546E+02 -0.28710625482E+02  0.40698162626E+02  0.17770000000E+01 0.  1.
</event>
<event>
 7    1  0.2559882E-004  0.4776754E+03  0.7546771E-02  0.9451197E-01
        -11   -1    0    0    0    0  0.00000000000E+00  0.00000000000E+00  0.50000000000E+03  0.50000000000E+03  0.00000000000E+00 0.  1.
         11   -1    0    0    0    0 -0.00000000000E+00 -0.00000000000E+00 -0.50000000000E+03  0.50000000000E+03  0.00000000000E+00 0. -1.
         23    2    1    2    0    0  0.50792178921E+02  0.11620518225E+02 -0.48026678076E+03  0.49117431718E+03  0.88775825950E+02 0.  0.
        -11    1    1    2    0    0 -0.51587107843E+01 -0.49212910637E+01  0.45720184931E+03  0.45725743560E+03  0.00000000000E+00 0.  1.
         11    1    1    2    0    0 -0.45633468137E+02 -0.66992271611E+01  0.23064931451E+02  0.51568247223E+02  0.00000000000E+00 0. -1.
        -15    1    3    3    0    0 -0.10484569346E+02  0.16372061326E+02 -0.30145398767E+03  0.30208547631E+03  0.17770000000E+01 0. -1.
         15    1    3    3    0    0  0.61276748268E+02 -0.47515431014E+01 -0.17881279309E+03  0.18908884087E+03  0.17770000000E+01 0.  1.
</event>
<event>
 7    1  0.2559882E-004  0.5106389E+03  0.7546771E-02  0.9376314E-01
        -11   -1    0    0    0    0  0.00000000000E+00  0.00000000000E+00  0.50000000000E+03  0.50000000000E+03  0.00000000000E+00 0.  1.
         11   -1    0    0    0    0 -0.00000000000E+00 -0.00000000000E+00 -0.50000000000E+03  0.50000000000E+03  0.00000000000E+00 0. -1.
         23    2    1    2    0    0  0.26476929466E+02 -0.60715984090E+01 -0.36530879223E+03  0.38101040844E+03  0.10478800296E+03 0.  0.
        -11    1    1    2    0    0  0.48474266972E+01 -0.16466521882E+02  0.48905998283E+03  0.48936112504E+03  0.00000000000E+00 0.  1.
         11    1    1    2    0    0 -0.31324356163E+02  0.22538120291E+02 -0.12375119061E+03  0.12962846652E+03  0.00000000000E+00 0. -1.
        -15    1    3    3    0    0 -0.81733194824E+01 -0.44130154803E+02 -0.86304351010E+02  0.97292715280E+02  0.17770000000E+01 0.  1.
         15    1    3    3    0    0  0.34650248948E+02  0.38058556394E+02 -0.27900444122E+03  0.28371769316E+03  0.17770000000E+01 0. -1.
</event>
<event>
 7    1  0.2559882E-004  0.5033287E+03  0.7546771E-02  0.9392392E-01
        -11   -1    0    0    0    0  0.00000000000E+00  0.00000000000E+00  0.50000000000E+03  0.50000000000E+03  0.00000000000E+00 0.  1.
         11   -1    0    0    0    0 -0.00000000000E+00 -0.00000000000E+00 -0.50000000000E+03  0.50000000000E+03  0.00000000000E+00 0. -1.
         23    2    1    2    0    0 -0.35932232016E-01  0.11227158886E+02 -0.49482470771E+03  0.50332866578E+03  0.91445087563E+02 0.  0.
        -11    1    1    2    0    0 -0.21123651629E+01 -0.77069649354E+01  0.49094254427E+03  0.49100757751E+03  0.00000000000E+00 0.  1.
         11    1    1    2    0    0  0.21482973949E+01 -0.35201939503E+01  0.38821634450E+01  0.56637567178E+01  0.00000000000E+00 0. -1.
        -15    1    3    3    0    0  0.13229234837E+02  0.24291151339E+02 -0.43265011315E+02  0.51381821891E+02  0.17770000000E+01 0.  1.
         15    1    3    3    0    0 -0.13265167069E+02 -0.13063992454E+02 -0.45155969640E+03  0.45194684389E+03  0.17770000000E+01 0. -1.
</event>
<event>
 7    1  0.2559882E-004  0.5006250E+03  0.7546771E-02  0.9398412E-01
        -11   -1    0    0    0    0  0.00000000000E+00  0.00000000000E+00  0.50000000000E+03  0.50000000000E+03  0.00000000000E+00 0.  1.
         11   -1    0    0    0    0 -0.00000000000E+00 -0.00000000000E+00 -0.50000000000E+03  0.50000000000E+03  0.00000000000E+00 0. -1.
         23    2    1    2    0    0  0.89766389351E+01 -0.24436478341E+02 -0.49116892146E+03  0.50062497659E+03  0.93277737212E+02 0.  0.
        -11    1    1    2    0    0  0.55537436763E+01  0.13170057225E+02  0.47401052290E+03  0.47422596965E+03  0.00000000000E+00 0.  1.
         11    1    1    2    0    0 -0.14530382611E+02  0.11266421116E+02  0.17158398560E+02  0.25149053754E+02  0.00000000000E+00 0. -1.
        -15    1    3    3    0    0 -0.37439940969E+02  0.10261033636E+02 -0.19548090258E+03  0.19930624424E+03  0.17770000000E+01 0.  1.
         15    1    3    3    0    0  0.46416579904E+02 -0.34697511978E+02 -0.29568801888E+03  0.30131873235E+03  0.17770000000E+01 0. -1.
</event>
<event>
 7    1  0.2559882E-004  0.5363858E+03  0.7546771E-02  0.9321883E-01
        -11   -1    0    0    0    0  0.00000000000E+00  0.00000000000E+00  0.50000000000E+03  0.50000000000E+03  0.00000000000E+00 0.  1.
         11   -1    0    0    0    0 -0.00000000000E+00 -0.00000000000E+00 -0.50000000000E+03  0.50000000000E+03  0.00000000000E+00 0.  1.
         23    2    1    2    0    0 -0.98702465669E+01  0.11867323134E+03 -0.28082242977E+03  0.31818152795E+03  0.90539991504E+02 0.  0.
        -11    1    1    2    0    0  0.12117011774E+02  0.71398488876E+00  0.46345526768E+03  0.46361418970E+03  0.00000000000E+00 0.  1.
         11    1    1    2    0    0 -0.22467652075E+01 -0.11938721623E+03 -0.18263283791E+03  0.21820428235E+03  0.00000000000E+00 0.  1.
        -15    1    3    3    0    0 -0.20053513633E+02  0.12428707168E+03 -0.19877899863E+03  0.23529910246E+03  0.17770000000E+01 0.  1.
         15    1    3    3    0    0  0.10183267067E+02 -0.56138403408E+01 -0.82043431143E+02  0.82882425485E+02  0.17770000000E+01 0. -1.
</event>
<event>
 7    1  0.2559882E-004  0.5142420E+03  0.7546771E-02  0.9368494E-01
        -11   -1    0    0    0    0  0.00000000000E+00  0.00000000000E+00  0.50000000000E+03  0.50000000000E+03  0.00000000000E+00 0. -1.
         11   -1    0    0    0    0 -0.00000000000E+00 -0.00000000000E+00 -0.50000000000E+03  0.50000000000E+03  0.00000000000E+00 0.  1.
         23    2    1    2    0    0 -0.74476468622E+01 -0.46882773213E+02  0.31017289608E+03  0.32662448022E+03  0.90680007408E+02 0.  0.
        -11    1    1    2    0    0  0.85569340412E+02  0.36580134277E-01  0.16696777742E+03  0.18761756862E+03  0.00000000000E+00 0. -1.
         11    1    1    2    0    0 -0.78121693550E+02  0.46846193079E+02 -0.47714067351E+03  0.48575795117E+03  0.00000000000E+00 0.  1.
        -15    1    3    3    0    0 -0.37222247816E+02 -0.35304272689E+02  0.85812961929E+02  0.99994547684E+02  0.17770000000E+01 0. -1.
         15    1    3    3    0    0  0.29774600954E+02 -0.11578500524E+02  0.22435993415E+03  0.22662993253E+03  0.17770000000E+01 0.  1.
</event>
<event>
 7    1  0.2559882E-004  0.4691888E+03  0.7546771E-02  0.9471521E-01
        -11   -1    0    0    0    0  0.00000000000E+00  0.00000000000E+00  0.50000000000E+03  0.50000000000E+03  0.00000000000E+00 0.  1.
         11   -1    0    0    0    0 -0.00000000000E+00 -0.00000000000E+00 -0.50000000000E+03  0.50000000000E+03  0.00000000000E+00 0.  1.
         23    2    1    2    0    0  0.53482245266E+02 -0.26544668872E+02 -0.42711758758E+03  0.44102414306E+03  0.92238230341E+02 0.  0.
        -11    1    1    2    0    0 -0.93584491826E+02  0.43409628183E+02  0.47973565465E+03  0.49070230413E+03  0.00000000000E+00 0.  1.
         11    1    1    2    0    0  0.40102246561E+02 -0.16864959311E+02 -0.52618067073E+02  0.68273552817E+02  0.00000000000E+00 0.  1.
        -15    1    3    3    0    0  0.12995846110E+02 -0.20114176771E+02 -0.18400177992E+02  0.30252213182E+02  0.17770000000E+01 0. -1.
         15    1    3    3    0    0  0.40486399156E+02 -0.64304921011E+01 -0.40871740959E+03  0.41077192988E+03  0.17770000000E+01 0.  1.
</event>
<event>
 7    1  0.2559882E-004  0.4698876E+03  0.7546771E-02  0.9469830E-01
        -11   -1    0    0    0    0  0.00000000000E+00  0.00000000000E+00  0.50000000000E+03  0.50000000000E+03  0.00000000000E+00 0.  1.
         11   -1    0    0    0    0 -0.00000000000E+00 -0.00000000000E+00 -0.50000000000E+03  0.50000000000E+03  0.00000000000E+00 0. -1.
         23    2    1    2    0    0 -0.33564449510E+02  0.39883672440E+02 -0.47164027116E+03  0.48332093034E+03  0.91854758882E+02 0.  0.
        -11    1    1    2    0    0 -0.92411909044E+01  0.65724409511E+01  0.44964648464E+03  0.44978945935E+03  0.00000000000E+00 0.  1.
         11    1    1    2    0    0  0.42805640414E+02 -0.46456113392E+02  0.21993786517E+02  0.66889610315E+02  0.00000000000E+00 0. -1.
        -15    1    3    3    0    0 -0.61173522178E+02  0.28890747167E+02 -0.22692718406E+03  0.23680367329E+03  0.17770000000E+01 0.  1.
         15    1    3    3    0    0  0.27609072668E+02  0.10992925274E+02 -0.24471308709E+03  0.24651725705E+03  0.17770000000E+01 0. -1.
</event>
<event>
 6    1  0.2559882E-004  0.5167728E+03  0.7546771E-02  0.9363042E-01
        -11   -1    0    0    0    0  0.00000000000E+00  0.00000000000E+00  0.50000000000E+03  0.50000000000E+03  0.00000000000E+00 0. -1.
         11   -1    0    0    0    0 -0.00000000000E+00 -0.00000000000E+00 -0.50000000000E+03  0.50000000000E+03  0.00000000000E+00 0. -1.
        -11    1    1    2    0    0 -0.14712443715E+01  0.69056253118E-01  0.81603311371E+02  0.81616602205E+02  0.00000000000E+00 0. -1.
         11    1    1    2    0    0  0.17059670395E+02 -0.24460960862E+02  0.40050184132E+03  0.40161062718E+03  0.00000000000E+00 0. -1.
        -15    1    1    2    0    0  0.54153693760E+02  0.47791565407E+02 -0.79198597506E+02  0.10720182763E+03  0.17770000000E+01 0.  1.
         15    1    1    2    0    0 -0.69742119784E+02 -0.23399660798E+02 -0.40290655519E+03  0.40957094299E+03  0.17770000000E+01 0. -1.
</event>
<event>
 7    1  0.2559882E-004  0.5352421E+03  0.7546771E-02  0.9324232E-01
        -11   -1    0    0    0    0  0.00000000000E+00  0.00000000000E+00  0.50000000000E+03  0.50000000000E+03  0.00000000000E+00 0. -1.
         11   -1    0    0    0    0 -0.00000000000E+00 -0.00000000000E+00 -0.50000000000E+03  0.50000000000E+03  0.00000000000E+00 0.  1.
         23    2    1    2    0    0  0.29708917019E+02  0.47969963748E+01  0.24337195655E+02  0.96695309587E+02  0.88611810043E+02 0.  0.
        -11    1    1    2    0    0  0.11151413110E+02  0.20999561831E+02  0.43790177343E+03  0.43854680341E+03  0.00000000000E+00 0. -1.
         11    1    1    2    0    0 -0.40860330129E+02 -0.25796558206E+02 -0.46223896908E+03  0.46475788700E+03  0.00000000000E+00 0.  1.
        -15    1    3    3    0    0  0.39410002808E+02  0.24645782930E+02 -0.17216891295E+02  0.49599818673E+02  0.17770000000E+01 0.  1.
         15    1    3    3    0    0 -0.97010857889E+01 -0.19848786555E+02  0.41554086950E+02  0.47095490914E+02  0.17770000000E+01 0. -1.
</event>
<event>
 7    1  0.2559882E-004  0.4888687E+03  0.7546771E-02  0.9425067E-01
        -11   -1    0    0    0    0  0.00000000000E+00  0.00000000000E+00  0.50000000000E+03  0.50000000000E+03  0.00000000000E+00 0.  1.
         11   -1    0    0    0    0 -0.00000000000E+00 -0.00000000000E+00 -0.50000000000E+03  0.50000000000E+03  0.00000000000E+00 0. -1.
         23    2    1    2    0    0  0.51873571854E+01  0.72776493521E+01 -0.46536013784E+03  0.47439917742E+03  0.91731394808E+02 0.  0.
        -11    1    1    2    0    0 -0.92464592373E+01 -0.17433155629E+01  0.49504421719E+03  0.49513363159E+03  0.00000000000E+00 0.  1.
         11    1    1    2    0    0  0.40591020519E+01 -0.55343337892E+01 -0.29684079352E+02  0.30467190992E+02  0.00000000000E+00 0. -1.
        -15    1    3    3    0    0  0.30948168875E+02  0.84942229094E+01 -0.58745748242E+02  0.66963883139E+02  0.17770000000E+01 0.  1.
         15    1    3    3    0    0 -0.25760811690E+02 -0.12165735573E+01 -0.40661438960E+03  0.40743529428E+03  0.17770000000E+01 0. -1.
</event>
<event>
 7    1  0.2559882E-004  0.5039912E+03  0.7546771E-02  0.9390923E-01
        -11   -1    0    0    0    0  0.00000000000E+00  0.00000000000E+00  0.50000000000E+03  0.50000000000E+03  0.00000000000E+00 0.  1.
         11   -1    0    0    0    0 -0.00000000000E+00 -0.00000000000E+00 -0.50000000000E+03  0.50000000000E+03  0.00000000000E+00 0.  1.
         23    2    1    2    0    0  0.44240850718E+01  0.91063502982E+01 -0.49565233231E+03  0.50399121363E+03  0.90738143808E+02 0.  0.
        -11    1    1    2    0    0 -0.48174967318E+01 -0.60562646014E+01  0.47971682122E+03  0.47977923588E+03  0.00000000000E+00 0.  1.
         11    1    1    2    0    0  0.39341166000E+00 -0.30500856967E+01  0.15935511089E+02  0.16229550492E+02  0.00000000000E+00 0.  1.
        -15    1    3    3    0    0 -0.26650284410E+02 -0.17013359023E+02 -0.75415188306E+02  0.81794256525E+02  0.17770000000E+01 0.  1.
         15    1    3    3    0    0  0.31074369481E+02  0.26119709321E+02 -0.42023714401E+03  0.42219695710E+03  0.17770000000E+01 0. -1.
</event>
<event>
 7    1  0.2559882E-004  0.4689995E+03  0.7546771E-02  0.9471979E-01
        -11   -1    0    0    0    0  0.00000000000E+00  0.00000000000E+00  0.50000000000E+03  0.50000000000E+03  0.00000000000E+00 0. -1.
         11   -1    0    0    0    0 -0.00000000000E+00 -0.00000000000E+00 -0.50000000000E+03  0.50000000000E+03  0.00000000000E+00 0.  1.
         23    2    1    2    0    0  0.52190717362E+02  0.53021690360E+02 -0.45263664822E+03  0.47517004089E+03  0.12398169954E+03 0.  0.
        -11    1    1    2    0    0 -0.40423625917E+01  0.51475054123E+01  0.44919272945E+03  0.44924040969E+03  0.00000000000E+00 0. -1.
         11    1    1    2    0    0 -0.48148354770E+02 -0.58169195772E+02  0.34439187700E+01  0.75589549412E+02  0.00000000000E+00 0.  1.
        -15    1    3    3    0    0  0.25930740415E+02 -0.56093149982E+01 -0.10825732881E+02  0.28709265658E+02  0.17770000000E+01 0. -1.
         15    1    3    3    0    0  0.26259976947E+02  0.58631005358E+02 -0.44181091534E+03  0.44646077524E+03  0.17770000000E+01 0.  1.
</event>
<event>
 7    1  0.2559882E-004  0.5316582E+03  0.7546771E-02  0.9331632E-01
        -11   -1    0    0    0    0  0.00000000000E+00  0.00000000000E+00  0.50000000000E+03  0.50000000000E+03  0.00000000000E+00 0. -1.
         11   -1    0    0    0    0 -0.00000000000E+00 -0.00000000000E+00 -0.50000000000E+03  0.50000000000E+03  0.00000000000E+00 0.  1.
         23    2    1    2    0    0 -0.43914327285E+02 -0.19440858413E+02 -0.53832516183E+02  0.11611851197E+03  0.90989856069E+02 0.  0.
        -11    1    1    2    0    0  0.25650999859E+02 -0.17740361670E+02  0.46730223729E+03  0.46834183585E+03  0.00000000000E+00 0. -1.
         11    1    1    2    0    0  0.18263327426E+02  0.37181220083E+02 -0.41346972111E+03  0.41553965218E+03  0.00000000000E+00 0.  1.
        -15    1    3    3    0    0 -0.64079958255E+02  0.33388729208E+01 -0.13548248555E+02  0.65605654408E+02  0.17770000000E+01 0. -1.
         15    1    3    3    0    0  0.20165630971E+02 -0.22779731334E+02 -0.40284267627E+02  0.50512857565E+02  0.17770000000E+01 0.  1.
</event>
<event>
 7    1  0.2559882E-004  0.5098775E+03  0.7546771E-02  0.9377975E-01
        -11   -1    0    0    0    0  0.00000000000E+00  0.00000000000E+00  0.50000000000E+03  0.50000000000E+03  0.00000000000E+00 0.  1.
         11   -1    0    0    0    0 -0.00000000000E+00 -0.00000000000E+00 -0.50000000000E+03  0.50000000000E+03  0.00000000000E+00 0. -1.
         23    2    1    2    0    0 -0.12138874920E+02  0.81373796385E+01 -0.24829138801E+03  0.26632266507E+03  0.95213335923E+02 0.  0.
        -11    1    1    2    0    0 -0.91791831846E+01  0.14982451519E+02  0.48980740986E+03  0.49012246430E+03  0.00000000000E+00 0.  1.
         11    1    1    2    0    0  0.21318058105E+02 -0.23119831157E+02 -0.24151602186E+03  0.24355487063E+03  0.00000000000E+00 0. -1.
        -15    1    3    3    0    0 -0.99986534976E+01  0.51693741710E+02 -0.13651143496E+03  0.14632411151E+03  0.17770000000E+01 0.  1.
         15    1    3    3    0    0 -0.21402214229E+01 -0.43556362071E+02 -0.11177995305E+03  0.11999855356E+03  0.17770000000E+01 0. -1.
</event>
<event>
 7    1  0.2559882E-004  0.3417261E+03  0.7546771E-02  0.9846220E-01
        -11   -1    0    0    0    0  0.00000000000E+00  0.00000000000E+00  0.50000000000E+03  0.50000000000E+03  0.00000000000E+00 0.  1.
         11   -1    0    0    0    0 -0.00000000000E+00 -0.00000000000E+00 -0.50000000000E+03  0.50000000000E+03  0.00000000000E+00 0. -1.
         23    2    1    2    0    0 -0.29974304331E+02  0.85502389686E+02 -0.23835353796E+03  0.27052868845E+03  0.90356209828E+02 0.  0.
        -11    1    1    2    0    0  0.15927634499E+03  0.11532481886E+03  0.39679282614E+03  0.44284682995E+03  0.00000000000E+00 0.  1.
         11    1    1    2    0    0 -0.12930204066E+03 -0.20082720854E+03 -0.15843928818E+03  0.28662448160E+03  0.00000000000E+00 0. -1.
        -15    1    3    3    0    0 -0.24552097693E+01  0.32745789219E+02 -0.97487965907E+01  0.34300313855E+02  0.17770000000E+01 0.  1.
         15    1    3    3    0    0 -0.27519094561E+02  0.52756600467E+02 -0.22860474137E+03  0.23622837460E+03  0.17770000000E+01 0. -1.
</event>
<event>
 7    1  0.2559882E-004  0.5129805E+03  0.7546771E-02  0.9371224E-01
        -11   -1    0    0    0    0  0.00000000000E+00  0.00000000000E+00  0.50000000000E+03  0.50000000000E+03  0.00000000000E+00 0.  1.
         11   -1    0    0    0    0 -0.00000000000E+00 -0.00000000000E+00 -0.50000000000E+03  0.50000000000E+03  0.00000000000E+00 0. -1.
         23    2    1    2    0    0  0.26912708666E+02 -0.26669388729E+02  0.11986117472E+03  0.14908232529E+03  0.80145419875E+02 0.  0.
        -11    1    1    2    0    0  0.15677732335E+02 -0.20795081668E+02  0.36296507326E+03  0.36389816037E+03  0.00000000000E+00 0.  1.
         11    1    1    2    0    0 -0.42590441000E+02  0.47464470397E+02 -0.48282624798E+03  0.48701951434E+03  0.00000000000E+00 0. -1.
        -15    1    3    3    0    0  0.95653952753E+01  0.28736320481E+02  0.36164612537E+02  0.47204976756E+02  0.17770000000E+01 0. -1.
         15    1    3    3    0    0  0.17347313390E+02 -0.55405709210E+02  0.83696562181E+02  0.10187734854E+03  0.17770000000E+01 0.  1.
</event>
<event>
 7    1  0.2559882E-004  0.5398988E+03  0.7546771E-02  0.9314708E-01
        -11   -1    0    0    0    0  0.00000000000E+00  0.00000000000E+00  0.50000000000E+03  0.50000000000E+03  0.00000000000E+00 0.  1.
         11   -1    0    0    0    0 -0.00000000000E+00 -0.00000000000E+00 -0.50000000000E+03  0.50000000000E+03  0.00000000000E+00 0. -1.
         23    2    1    2    0    0 -0.10508527786E+03 -0.23880150284E+02 -0.23245068013E+03  0.27773267782E+03  0.10718649373E+03 0.  0.
        -11    1    1    2    0    0 -0.89634264204E+01 -0.47050332578E+02  0.45760138602E+03  0.46010119028E+03  0.00000000000E+00 0.  1.
         11    1    1    2    0    0  0.11404870428E+03  0.70930482862E+02 -0.22515070590E+03  0.26216613190E+03  0.00000000000E+00 0. -1.
        -15    1    3    3    0    0 -0.16613998939E+02  0.23963871589E+02 -0.58319424149E+01  0.29790290089E+02  0.17770000000E+01 0.  1.
         15    1    3    3    0    0 -0.88471278921E+02 -0.47844021873E+02 -0.22661873771E+03  0.24794238773E+03  0.17770000000E+01 0. -1.
</event>
<event>
 7    1  0.2559882E-004  0.4842701E+03  0.7546771E-02  0.9435711E-01
        -11   -1    0    0    0    0  0.00000000000E+00  0.00000000000E+00  0.50000000000E+03  0.50000000000E+03  0.00000000000E+00 0. -1.
         11   -1    0    0    0    0 -0.00000000000E+00 -0.00000000000E+00 -0.50000000000E+03  0.50000000000E+03  0.00000000000E+00 0. -1.
         23    2    1    2    0    0 -0.19435170223E+02 -0.66714706759E+01 -0.46651995685E+03  0.47542256930E+03  0.89238528094E+02 0.  0.
        -11    1    1    2    0    0 -0.14659260621E+02  0.80930613233E+01  0.48532573585E+03  0.48561451939E+03  0.00000000000E+00 0. -1.
         11    1    1    2    0    0  0.34094430843E+02 -0.14215906474E+01 -0.18805779001E+02  0.38962911317E+02  0.00000000000E+00 0. -1.
        -15    1    3    3    0    0  0.14065275331E+02 -0.38313100615E+02 -0.29484767708E+03  0.29766430094E+03  0.17770000000E+01 0. -1.
         15    1    3    3    0    0 -0.33500445554E+02  0.31641629939E+02 -0.17167227977E+03  0.17775826835E+03  0.17770000000E+01 0.  1.
</event>
<event>
 7    1  0.2559882E-004  0.5035642E+03  0.7546771E-02  0.9391870E-01
        -11   -1    0    0    0    0  0.00000000000E+00  0.00000000000E+00  0.50000000000E+03  0.50000000000E+03  0.00000000000E+00 0.  1.
         11   -1    0    0    0    0 -0.00000000000E+00 -0.00000000000E+00 -0.50000000000E+03  0.50000000000E+03  0.00000000000E+00 0. -1.
         23    2    1    2    0    0  0.87446573314E+01  0.42831716784E+01 -0.49264534810E+03  0.50356418358E+03  0.10383945971E+03 0.  0.
        -11    1    1    2    0    0 -0.77474488356E+00  0.71423940027E+01  0.46853677696E+03  0.46859185373E+03  0.00000000000E+00 0.  1.
         11    1    1    2    0    0 -0.79699124478E+01 -0.11425565681E+02  0.24108571138E+02  0.27843962683E+02  0.00000000000E+00 0. -1.
        -15    1    3    3    0    0 -0.23470057990E+02  0.33209231601E+02 -0.92252903293E+02  0.10083378690E+03  0.17770000000E+01 0.  1.
         15    1    3    3    0    0  0.32214715321E+02 -0.28926059923E+02 -0.40039244481E+03  0.40273039668E+03  0.17770000000E+01 0. -1.
</event>
<event>
 7    1  0.2559882E-004  0.5110771E+03  0.7546771E-02  0.9375359E-01
        -11   -1    0    0    0    0  0.00000000000E+00  0.00000000000E+00  0.50000000000E+03  0.50000000000E+03  0.00000000000E+00 0.  1.
         11   -1    0    0    0    0 -0.00000000000E+00 -0.00000000000E+00 -0.50000000000E+03  0.50000000000E+03  0.00000000000E+00 0. -1.
         23    2    1    2    0    0  0.29318534173E+02 -0.85797507665E+02  0.22753846136E+03  0.25806219080E+03  0.81249948644E+02 0.  0.
        -11    1    1    2    0    0  0.35996296733E+01  0.17681539137E+01  0.25298315983E+03  0.25301494592E+03  0.00000000000E+00 0.  1.
         11    1    1    2    0    0 -0.32918163847E+02  0.84029353752E+02 -0.48052162119E+03  0.48892286328E+03  0.00000000000E+00 0. -1.
        -15    1    3    3    0    0  0.76898741860E+01 -0.80372361753E+02  0.22016430338E+03  0.23450869688E+03  0.17770000000E+01 0.  1.
         15    1    3    3    0    0  0.21628659987E+02 -0.54251459121E+01  0.73741579772E+01  0.23553493921E+02  0.17770000000E+01 0. -1.
</event>
<event>
 7    1  0.2559882E-004  0.5033871E+03  0.7546771E-02  0.9392262E-01
        -11   -1    0    0    0    0  0.00000000000E+00  0.00000000000E+00  0.50000000000E+03  0.50000000000E+03  0.00000000000E+00 0.  1.
         11   -1    0    0    0    0 -0.00000000000E+00 -0.00000000000E+00 -0.50000000000E+03  0.50000000000E+03  0.00000000000E+00 0. -1.
         23    2    1    2    0    0  0.51310304507E+02 -0.38013325425E+01 -0.49237941461E+03  0.50338713339E+03  0.91180703286E+02 0.  0.
        -11    1    1    2    0    0 -0.21653538230E+02  0.15071183614E+02  0.33679482330E+03  0.33782653729E+03  0.00000000000E+00 0.  1.
         11    1    1    2    0    0 -0.29656766277E+02 -0.11269851072E+02  0.15558459130E+03  0.15878632933E+03  0.00000000000E+00 0. -1.
        -15    1    3    3    0    0  0.28749363877E+02 -0.44383501673E+02 -0.18152449808E+03  0.18907861401E+03  0.17770000000E+01 0.  1.
         15    1    3    3    0    0  0.22560940630E+02  0.40582169130E+02 -0.31085491653E+03  0.31430851938E+03  0.17770000000E+01 0. -1.
</event>
<event>
 7    1  0.2848085E-004  0.5101455E+03  0.7546771E-02  0.9377390E-01
        -11   -1    0    0    0    0  0.00000000000E+00  0.00000000000E+00  0.50000000000E+03  0.50000000000E+03  0.00000000000E+00 0. -1.
         11   -1    0    0    0    0 -0.00000000000E+00 -0.00000000000E+00 -0.50000000000E+03  0.50000000000E+03  0.00000000000E+00 0. -1.
         23    2    1    2    0    0  0.22105478387E+02  0.17294686835E+02 -0.21054496866E+03  0.22936964740E+03  0.86564963782E+02 0.  0.
        -11    1    1    2    0    0 -0.44721458427E+01  0.59901154262E+01  0.48979746694E+03  0.48985450921E+03  0.00000000000E+00 0. -1.
         11    1    1    2    0    0 -0.17633332544E+02 -0.23284802262E+02 -0.27925249828E+03  0.28077584339E+03  0.00000000000E+00 0. -1.
        -15    1    3    3    0    0  0.18767440633E+02  0.23042405597E+02 -0.21753434489E+03  0.21956210561E+03  0.17770000000E+01 0. -1.
         15    1    3    3    0    0  0.33380377543E+01 -0.57477187620E+01  0.69893762287E+01  0.98075417961E+01  0.17770000000E+01 0.  1.
</event>
<event>
 7    1  0.2559882E-004  0.3942161E+03  0.7546771E-02  0.9673647E-01
        -11   -1    0    0    0    0  0.00000000000E+00  0.00000000000E+00  0.50000000000E+03  0.50000000000E+03  0.00000000000E+00 0.  1.
         11   -1    0    0    0    0 -0.00000000000E+00 -0.00000000000E+00 -0.50000000000E+03  0.50000000000E+03  0.00000000000E+00 0. -1.
         23    2    1    2    0    0  0.63313729304E+02 -0.13486146472E+03 -0.31748135026E+03  0.35873347573E+03  0.75492091387E+02 0.  0.
        -11    1    1    2    0    0 -0.36326138794E+02 -0.10274336788E+02  0.44475416429E+03  0.44635346645E+03  0.00000000000E+00 0.  1.
         11    1    1    2    0    0 -0.26987590510E+02  0.14513580151E+03 -0.12727281403E+03  0.19491305783E+03  0.00000000000E+00 0. -1.
        -15    1    3    3    0    0  0.99947671306E+01 -0.60402671373E+00 -0.26966891022E+00  0.10173036350E+02  0.17770000000E+01 0. -1.
         15    1    3    3    0    0  0.53318962173E+02 -0.13425743800E+03 -0.31721168135E+03  0.34856043938E+03  0.17770000000E+01 0.  1.
</event>
<event>
 7    1  0.2559882E-004  0.5132098E+03  0.7546771E-02  0.9370727E-01
        -11   -1    0    0    0    0  0.00000000000E+00  0.00000000000E+00  0.50000000000E+03  0.50000000000E+03  0.00000000000E+00 0.  1.
         11   -1    0    0    0    0 -0.00000000000E+00 -0.00000000000E+00 -0.50000000000E+03  0.50000000000E+03  0.00000000000E+00 0. -1.
         23    2    1    2    0    0  0.38025768547E+02 -0.45184637238E+02 -0.18192809185E+03  0.20176125307E+03  0.64204066232E+02 0.  0.
        -11    1    1    2    0    0 -0.12556565585E+01 -0.71639423422E+01  0.48673586701E+03  0.48679020428E+03  0.00000000000E+00 0.  1.
         11    1    1    2    0    0 -0.36770111988E+02  0.52348579580E+02 -0.30480777516E+03  0.31144854265E+03  0.00000000000E+00 0. -1.
        -15    1    3    3    0    0  0.54498902787E+02 -0.41224774060E+02 -0.16002201109E+03  0.17401095990E+03  0.17770000000E+01 0. -1.
         15    1    3    3    0    0 -0.16473134240E+02 -0.39598631775E+01 -0.21906080758E+02  0.27750293174E+02  0.17770000000E+01 0.  1.
</event>
<event>
 7    1  0.2559882E-004  0.5016971E+03  0.7546771E-02  0.9396020E-01
        -11   -1    0    0    0    0  0.00000000000E+00  0.00000000000E+00  0.50000000000E+03  0.50000000000E+03  0.00000000000E+00 0.  1.
         11   -1    0    0    0    0 -0.00000000000E+00 -0.00000000000E+00 -0.50000000000E+03  0.50000000000E+03  0.00000000000E+00 0.  1.
         23    2    1    2    0    0  0.10821047008E+02  0.37454981292E+01 -0.49311343178E+03  0.50169706115E+03  0.91694933054E+02 0.  0.
        -11    1    1    2    0    0  0.10642486092E+02 -0.64875732589E+01  0.44895571757E+03  0.44912869810E+03  0.00000000000E+00 0.  1.
         11    1    1    2    0    0 -0.21463533101E+02  0.27420751297E+01  0.44157714210E+02  0.49174240751E+02  0.00000000000E+00 0.  1.
        -15    1    3    3    0    0 -0.24856709576E+02  0.46168811780E+00 -0.39758521987E+02  0.46925120846E+02  0.17770000000E+01 0. -1.
         15    1    3    3    0    0  0.35677756584E+02  0.32838100114E+01 -0.45335490979E+03  0.45477194030E+03  0.17770000000E+01 0.  1.
</event>
<event>
 7    1  0.2559882E-004  0.5053014E+03  0.7546771E-02  0.9388025E-01
        -11   -1    0    0    0    0  0.00000000000E+00  0.00000000000E+00  0.50000000000E+03  0.50000000000E+03  0.00000000000E+00 0.  1.
         11   -1    0    0    0    0 -0.00000000000E+00 -0.00000000000E+00 -0.50000000000E+03  0.50000000000E+03  0.00000000000E+00 0. -1.
         23    2    1    2    0    0 -0.23560631105E+02 -0.12992047381E+02 -0.49087883572E+03  0.50530142975E+03  0.11680585138E+03 0.  0.
        -11    1    1    2    0    0  0.31873090237E+02  0.15921674337E+02  0.47652319138E+03  0.47785326777E+03  0.00000000000E+00 0.  1.
         11    1    1    2    0    0 -0.83124591320E+01 -0.29296269569E+01  0.14355644343E+02  0.16845302473E+02  0.00000000000E+00 0. -1.
        -15    1    3    3    0    0  0.34975467274E+02  0.30570927193E+02 -0.17151615515E+03  0.17770428838E+03  0.17770000000E+01 0.  1.
         15    1    3    3    0    0 -0.58536098379E+02 -0.43562974574E+02 -0.31936268057E+03  0.32759714138E+03  0.17770000000E+01 0. -1.
</event>
<event>
 7    1  0.2559882E-004  0.5102811E+03  0.7546771E-02  0.9377094E-01
        -11   -1    0    0    0    0  0.00000000000E+00  0.00000000000E+00  0.50000000000E+03  0.50000000000E+03  0.00000000000E+00 0. -1.
         11   -1    0    0    0    0 -0.00000000000E+00 -0.00000000000E+00 -0.50000000000E+03  0.50000000000E+03  0.00000000000E+00 0. -1.
         23    2    1    2    0    0 -0.39227089638E+02  0.48776666846E+01 -0.23150238697E+03  0.25158747657E+03  0.90223871566E+02 0.  0.
        -11    1    1    2    0    0  0.18468679176E+02 -0.17122079873E+02  0.48907091320E+03  0.48971891516E+03  0.00000000000E+00 0. -1.
         11    1    1    2    0    0  0.20758410462E+02  0.12244413188E+02 -0.25756852622E+03  0.25869360827E+03  0.00000000000E+00 0. -1.
        -15    1    3    3    0    0 -0.10455839894E+02 -0.28398935422E+00  0.60658027771E+01  0.12221167300E+02  0.17770000000E+01 0.  1.
         15    1    3    3    0    0 -0.28771249744E+02  0.51616560388E+01 -0.23756818975E+03  0.23936630927E+03  0.17770000000E+01 0. -1.
</event>
<event>
 7    1  0.2559882E-004  0.5024408E+03  0.7546771E-02  0.9394365E-01
        -11   -1    0    0    0    0  0.00000000000E+00  0.00000000000E+00  0.50000000000E+03  0.50000000000E+03  0.00000000000E+00 0. -1.
         11   -1    0    0    0    0 -0.00000000000E+00 -0.00000000000E+00 -0.50000000000E+03  0.50000000000E+03  0.00000000000E+00 0. -1.
         23    2    1    2    0    0  0.32148393865E+02  0.14546247510E+02 -0.48838705083E+03  0.49755922813E+03  0.88307199759E+02 0.  0.
        -11    1    1    2    0    0 -0.10161329647E+02 -0.32535090446E+01  0.47342979077E+03  0.47355000235E+03  0.00000000000E+00 0. -1.
         11    1    1    2    0    0 -0.21987064218E+02 -0.11292738465E+02  0.14957260063E+02  0.28890769522E+02  0.00000000000E+00 0. -1.
        -15    1    3    3    0    0  0.55160068471E+02 -0.12516360598E+02 -0.35635076039E+03  0.36081617840E+03  0.17770000000E+01 0. -1.
         15    1    3    3    0    0 -0.23011674606E+02  0.27062608108E+02 -0.13203629044E+03  0.13674304973E+03  0.17770000000E+01 0.  1.
</event>
<event>
 7    1  0.2559882E-004  0.5075053E+03  0.7546771E-02  0.9383171E-01
        -11   -1    0    0    0    0  0.00000000000E+00  0.00000000000E+00  0.50000000000E+03  0.50000000000E+03  0.00000000000E+00 0. -1.
         11   -1    0    0    0    0 -0.00000000000E+00 -0.00000000000E+00 -0.50000000000E+03  0.50000000000E+03  0.00000000000E+00 0.  1.
         23    2    1    2    0    0 -0.22990823679E+02  0.42768284153E+02 -0.38166648227E+03  0.39497939232E+03  0.89340430741E+02 0.  0.
        -11    1    1    2    0    0  0.60833149785E+02 -0.72960076790E+02  0.48324648825E+03  0.49249468355E+03  0.00000000000E+00 0. -1.
         11    1    1    2    0    0 -0.37842326106E+02  0.30191792637E+02 -0.10158000598E+03  0.11252592414E+03  0.00000000000E+00 0.  1.
        -15    1    3    3    0    0 -0.83567007344E+01 -0.27991124221E+02 -0.10088907856E+03  0.10504809082E+03  0.17770000000E+01 0.  1.
         15    1    3    3    0    0 -0.14634122945E+02  0.70759408375E+02 -0.28077740371E+03  0.28993130150E+03  0.17770000000E+01 0. -1.
</event>
<event>
 7    1  0.3290309E-004  0.5090473E+03  0.7546771E-02  0.9379790E-01
        -11   -1    0    0    0    0  0.00000000000E+00  0.00000000000E+00  0.50000000000E+03  0.50000000000E+03  0.00000000000E+00 0. -1.
         11   -1    0    0    0    0 -0.00000000000E+00 -0.00000000000E+00 -0.50000000000E+03  0.50000000000E+03  0.00000000000E+00 0. -1.
         23    2    1    2    0    0  0.17769018457E+01  0.51588366506E+02  0.26867394642E+03  0.28795742814E+03  0.89829137778E+02 0.  0.
        -11    1    1    2    0    0 -0.62065447763E+01 -0.12123779193E+02  0.22066996199E+03  0.22108988974E+03  0.00000000000E+00 0. -1.
         11    1    1    2    0    0  0.44296429306E+01 -0.39464587313E+02 -0.48934390841E+03  0.49095268213E+03  0.00000000000E+00 0. -1.
        -15    1    3    3    0    0  0.10196135661E+02  0.49178178649E+02  0.56584049764E+02  0.75679368750E+02  0.17770000000E+01 0. -1.
         15    1    3    3    0    0 -0.84192338156E+01  0.24101878570E+01  0.21208989666E+03  0.21227805939E+03  0.17770000000E+01 0.  1.
</event>
<event>
 7    1  0.2559882E-004  0.4928994E+03  0.7546771E-02  0.9415840E-01
        -11   -1    0    0    0    0  0.00000000000E+00  0.00000000000E+00  0.50000000000E+03  0.50000000000E+03  0.00000000000E+00 0. -1.
         11   -1    0    0    0    0 -0.00000000000E+00 -0.00000000000E+00 -0.50000000000E+03  0.50000000000E+03  0.00000000000E+00 0. -1.
         23    2    1    2    0    0 -0.40130057637E+02 -0.94538627438E+00 -0.47858645503E+03  0.48838611446E+03  0.88683068145E+02 0.  0.
        -11    1    1    2    0    0  0.27874477819E+02  0.16254770351E+02  0.48855198333E+03  0.48961642588E+03  0.00000000000E+00 0. -1.
         11    1    1    2    0    0  0.12255579818E+02 -0.15309384076E+02 -0.99655282978E+01  0.21997459665E+02  0.00000000000E+00 0. -1.
        -15    1    3    3    0    0  0.14809844882E+02 -0.17636794256E+02 -0.41117146747E+02  0.47161059176E+02  0.17770000000E+01 0.  1.
         15    1    3    3    0    0 -0.54939902518E+02  0.16691407981E+02 -0.43746930828E+03  0.44122505528E+03  0.17770000000E+01 0. -1.
</event>
<event>
 7    1  0.2559882E-004  0.4070101E+03  0.7546771E-02  0.9635912E-01
        -11   -1    0    0    0    0  0.00000000000E+00  0.00000000000E+00  0.50000000000E+03  0.50000000000E+03  0.00000000000E+00 0.  1.
         11   -1    0    0    0    0 -0.00000000000E+00 -0.00000000000E+00 -0.50000000000E+03  0.50000000000E+03  0.00000000000E+00 0.  1.
         23    2    1    2    0    0 -0.14109515423E+03  0.30746618951E+02  0.13486246744E+02  0.17316025191E+03  0.94601251934E+02 0.  0.
        -11    1    1    2    0    0  0.14140765608E+02  0.20478458007E+02  0.39512359903E+03  0.39590653822E+03  0.00000000000E+00 0.  1.
         11    1    1    2    0    0  0.12695438862E+03 -0.51225076957E+02 -0.40860984578E+03  0.43093320987E+03  0.00000000000E+00 0.  1.
        -15    1    3    3    0    0 -0.82143859930E+02  0.51221617448E+02 -0.24770398121E+02  0.99939972835E+02  0.17770000000E+01 0. -1.
         15    1    3    3    0    0 -0.58951294298E+02 -0.20474998497E+02  0.38256644865E+02  0.73220279078E+02  0.17770000000E+01 0.  1.
</event>
<event>
 7    1  0.2559882E-004  0.4701323E+03  0.7546771E-02  0.9469239E-01
        -11   -1    0    0    0    0  0.00000000000E+00  0.00000000000E+00  0.50000000000E+03  0.50000000000E+03  0.00000000000E+00 0.  1.
         11   -1    0    0    0    0 -0.00000000000E+00 -0.00000000000E+00 -0.50000000000E+03  0.50000000000E+03  0.00000000000E+00 0. -1.
         23    2    1    2    0    0 -0.60376280274E+02  0.77327580659E+01 -0.44704173092E+03  0.46031794246E+03  0.91330215153E+02 0.  0.
        -11    1    1    2    0    0  0.20173509740E+02  0.39121925311E+02  0.47129844507E+03  0.47334946906E+03  0.00000000000E+00 0.  1.
         11    1    1    2    0    0  0.40202770534E+02 -0.46854683377E+02 -0.24256714144E+02  0.66332588477E+02  0.00000000000E+00 0. -1.
        -15    1    3    3    0    0  0.14420631092E+02  0.19800381538E+02 -0.21061201621E+03  0.21203912095E+03  0.17770000000E+01 0. -1.
         15    1    3    3    0    0 -0.74796911366E+02 -0.12067623472E+02 -0.23642971471E+03  0.24827882151E+03  0.17770000000E+01 0.  1.
</event>
<event>
 7    1  0.2559882E-004  0.5226871E+03  0.7546771E-02  0.9350429E-01
        -11   -1    0    0    0    0  0.00000000000E+00  0.00000000000E+00  0.50000000000E+03  0.50000000000E+03  0.00000000000E+00 0.  1.
         11   -1    0    0    0    0 -0.00000000000E+00 -0.00000000000E+00 -0.50000000000E+03  0.50000000000E+03  0.00000000000E+00 0.  1.
         23    2    1    2    0    0  0.10744453883E+02 -0.61981403771E+02  0.10232217683E+03  0.15069556492E+03  0.91006525669E+02 0.  0.
        -11    1    1    2    0    0 -0.45123216829E+00  0.86534410305E+01  0.37189061177E+03  0.37199154934E+03  0.00000000000E+00 0.  1.
         11    1    1    2    0    0 -0.10293221715E+02  0.53327962741E+02 -0.47421278860E+03  0.47731288574E+03  0.00000000000E+00 0.  1.
        -15    1    3    3    0    0 -0.14029637722E+01 -0.39657239944E+02  0.11540920452E+03  0.12205370623E+03  0.17770000000E+01 0.  1.
         15    1    3    3    0    0  0.12147417655E+02 -0.22324163828E+02 -0.13087027698E+02  0.28641858691E+02  0.17770000000E+01 0. -1.
</event>
<event>
 7    1  0.2559882E-004  0.5140517E+03  0.7546771E-02  0.9368905E-01
        -11   -1    0    0    0    0  0.00000000000E+00  0.00000000000E+00  0.50000000000E+03  0.50000000000E+03  0.00000000000E+00 0. -1.
         11   -1    0    0    0    0 -0.00000000000E+00 -0.00000000000E+00 -0.50000000000E+03  0.50000000000E+03  0.00000000000E+00 0. -1.
         23    2    1    2    0    0 -0.39208782751E+02  0.10222635538E+02 -0.97862582809E+02  0.12521162874E+03  0.66776013183E+02 0.  0.
        -11    1    1    2    0    0  0.14964971939E+02  0.34401072148E+01  0.48570559400E+03  0.48594825729E+03  0.00000000000E+00 0. -1.
         11    1    1    2    0    0  0.24243810812E+02 -0.13662742753E+02 -0.38784301119E+03  0.38884011397E+03  0.00000000000E+00 0. -1.
        -15    1    3    3    0    0 -0.23745612147E+02  0.96800531727E+01  0.41490205535E+00  0.25707730323E+02  0.17770000000E+01 0.  1.
         15    1    3    3    0    0 -0.15463170605E+02  0.54258236553E+00 -0.98277484864E+02  0.99503898421E+02  0.17770000000E+01 0. -1.
</event>
<event>
 7    1  0.2559882E-004  0.4897474E+03  0.7546771E-02  0.9423047E-01
        -11   -1    0    0    0    0  0.00000000000E+00  0.00000000000E+00  0.50000000000E+03  0.50000000000E+03  0.00000000000E+00 0.  1.
         11   -1    0    0    0    0 -0.00000000000E+00 -0.00000000000E+00 -0.50000000000E+03  0.50000000000E+03  0.00000000000E+00 0. -1.
         23    2    1    2    0    0  0.43412397293E+01 -0.14370928677E+02 -0.47458303643E+03  0.48357172755E+03  0.91581588014E+02 0.  0.
        -11    1    1    2    0    0  0.18493096570E+02  0.26969148207E+02  0.48661137549E+03  0.48770888892E+03  0.00000000000E+00 0.  1.
         11    1    1    2    0    0 -0.22834336300E+02 -0.12598219530E+02 -0.12028339064E+02  0.28719383528E+02  0.00000000000E+00 0. -1.
        -15    1    3    3    0    0 -0.16360283545E+02  0.35047947762E+02 -0.22354407445E+03  0.22687249386E+03  0.17770000000E+01 0.  1.
         15    1    3    3    0    0  0.20701523274E+02 -0.49418876440E+02 -0.25103896198E+03  0.25669923369E+03  0.17770000000E+01 0. -1.
</event>
<event>
 7    1  0.2559882E-004  0.5317537E+03  0.7546771E-02  0.9331434E-01
        -11   -1    0    0    0    0  0.00000000000E+00  0.00000000000E+00  0.50000000000E+03  0.50000000000E+03  0.00000000000E+00 0. -1.
         11   -1    0    0    0    0 -0.00000000000E+00 -0.00000000000E+00 -0.50000000000E+03  0.50000000000E+03  0.00000000000E+00 0. -1.
         23    2    1    2    0    0  0.59427090219E+02 -0.24122022999E+02 -0.63482507190E+02  0.12057937827E+03  0.79974412776E+02 0.  0.
        -11    1    1    2    0    0  0.40867641286E+01 -0.12594182961E+02  0.46805908770E+03  0.46824632904E+03  0.00000000000E+00 0. -1.
         11    1    1    2    0    0 -0.63513854348E+02  0.36716205960E+02 -0.40457658051E+03  0.41117429269E+03  0.00000000000E+00 0. -1.
        -15    1    3    3    0    0  0.78982456534E+02 -0.16363333853E+02 -0.44238349113E+02  0.92011827479E+02  0.17770000000E+01 0. -1.
         15    1    3    3    0    0 -0.19555366314E+02 -0.77586891464E+01 -0.19244158077E+02  0.28567550789E+02  0.17770000000E+01 0.  1.
</event>
<event>
 7    1  0.2559882E-004  0.5229302E+03  0.7546771E-02  0.9349914E-01
        -11   -1    0    0    0    0  0.00000000000E+00  0.00000000000E+00  0.50000000000E+03  0.50000000000E+03  0.00000000000E+00 0. -1.
         11   -1    0    0    0    0 -0.00000000000E+00 -0.00000000000E+00 -0.50000000000E+03  0.50000000000E+03  0.00000000000E+00 0. -1.
         23    2    1    2    0    0  0.84889992430E+02 -0.37317915773E+02 -0.28616610916E+03  0.31540233653E+03  0.94808513347E+02 0.  0.
        -11    1    1    2    0    0 -0.15404871077E+02 -0.63449889462E+01  0.47677878154E+03  0.47706978050E+03  0.00000000000E+00 0. -1.
         11    1    1    2    0    0 -0.69485121352E+02  0.43662904720E+02 -0.19061267238E+03  0.20752788297E+03  0.00000000000E+00 0. -1.
        -15    1    3    3    0    0  0.41218370375E+02  0.21156482506E+02 -0.18452138953E+03  0.19025733030E+03  0.17770000000E+01 0.  1.
         15    1    3    3    0    0  0.43671622055E+02 -0.58474398279E+02 -0.10164471963E+03  0.12514500623E+03  0.17770000000E+01 0. -1.
</event>
<event>
 7    1  0.2559882E-004  0.5139767E+03  0.7546771E-02  0.9369068E-01
        -11   -1    0    0    0    0  0.00000000000E+00  0.00000000000E+00  0.50000000000E+03  0.50000000000E+03  0.00000000000E+00 0.  1.
         11   -1    0    0    0    0 -0.00000000000E+00 -0.00000000000E+00 -0.50000000000E+03  0.50000000000E+03  0.00000000000E+00 0. -1.
         23    2    1    2    0    0 -0.26430005441E+02 -0.30193859265E+02 -0.18515571711E+03  0.20958253516E+03  0.89621343098E+02 0.  0.
        -11    1    1    2    0    0 -0.24243311391E+01 -0.62737369717E+01  0.48597680070E+03  0.48602334098E+03  0.00000000000E+00 0.  1.
         11    1    1    2    0    0  0.28854336580E+02  0.36467596236E+02 -0.30082108359E+03  0.30439412387E+03  0.00000000000E+00 0. -1.
        -15    1    3    3    0    0 -0.47655458230E+02 -0.17353374956E+02 -0.46878346219E+02  0.69086318434E+02  0.17770000000E+01 0.  1.
         15    1    3    3    0    0  0.21225452790E+02 -0.12840484309E+02 -0.13827737089E+03  0.14049621672E+03  0.17770000000E+01 0. -1.
</event>
<event>
 6    1  0.2559882E-004  0.3420726E+03  0.7546771E-02  0.9844974E-01
        -11   -1    0    0    0    0  0.00000000000E+00  0.00000000000E+00  0.50000000000E+03  0.50000000000E+03  0.00000000000E+00 0.  1.
         11   -1    0    0    0    0 -0.00000000000E+00 -0.00000000000E+00 -0.50000000000E+03  0.50000000000E+03  0.00000000000E+00 0.  1.
        -11    1    1    2    0    0 -0.89623084243E+01 -0.56236086080E+01  0.35332476470E+03  0.35348314994E+03  0.00000000000E+00 0.  1.
         11    1    1    2    0    0 -0.42650929723E+02 -0.97492853476E+02 -0.32390277193E+03  0.34093542489E+03  0.00000000000E+00 0.  1.
        -15    1    1    2    0    0 -0.99865439149E+01 -0.80595253750E+00  0.11604090233E+03  0.11648617670E+03  0.17770000000E+01 0. -1.
         15    1    1    2    0    0  0.61599782062E+02  0.10392241462E+03 -0.14546289510E+03  0.18909524846E+03  0.17770000000E+01 0.  1.
</event>
<event>
 7    1  0.2559882E-004  0.5254804E+03  0.7546771E-02  0.9344534E-01
        -11   -1    0    0    0    0  0.00000000000E+00  0.00000000000E+00  0.50000000000E+03  0.50000000000E+03  0.00000000000E+00 0.  1.
         11   -1    0    0    0    0 -0.00000000000E+00 -0.00000000000E+00 -0.50000000000E+03  0.50000000000E+03  0.00000000000E+00 0. -1.
         23    2    1    2    0    0  0.11881984631E+03  0.18267423586E+02  0.16091354268E+03  0.22334396508E+03  0.97660144783E+02 0.  0.
        -11    1    1    2    0    0 -0.77642190980E+01 -0.33463385949E+02  0.30017714455E+03  0.30213639206E+03  0.00000000000E+00 0.  1.
         11    1    1    2    0    0 -0.11105562721E+03  0.15195962363E+02 -0.46109068723E+03  0.47451964286E+03  0.00000000000E+00 0. -1.
        -15    1    3    3    0    0  0.10525141958E+03  0.18594456367E+02  0.62178542058E+02  0.12366464310E+03  0.17770000000E+01 0.  1.
         15    1    3    3    0    0  0.13568426729E+02 -0.32703278096E+00  0.98735000620E+02  0.99679321981E+02  0.17770000000E+01 0. -1.
</event>
<event>
 7    1  0.2559882E-004  0.3661855E+03  0.7546771E-02  0.9761952E-01
        -11   -1    0    0    0    0  0.00000000000E+00  0.00000000000E+00  0.50000000000E+03  0.50000000000E+03  0.00000000000E+00 0.  1.
         11   -1    0    0    0    0 -0.00000000000E+00 -0.00000000000E+00 -0.50000000000E+03  0.50000000000E+03  0.00000000000E+00 0. -1.
         23    2    1    2    0    0 -0.85725723245E+02  0.97581395848E+02 -0.17481606325E+03  0.23593264534E+03  0.90733283458E+02 0.  0.
        -11    1    1    2    0    0 -0.59320954369E+01 -0.29579878306E+01  0.45469024522E+03  0.45473856065E+03  0.00000000000E+00 0.  1.
         11    1    1    2    0    0  0.91657818682E+02 -0.94623408017E+02 -0.27987418197E+03  0.30932879401E+03  0.00000000000E+00 0. -1.
        -15    1    3    3    0    0 -0.19264841751E+02 -0.66687563137E+01 -0.72839187744E+02  0.75659179474E+02  0.17770000000E+01 0.  1.
         15    1    3    3    0    0 -0.66460881494E+02  0.10425015216E+03 -0.10197687550E+03  0.16027346587E+03  0.17770000000E+01 0. -1.
</event>
<event>
 7    1  0.2559882E-004  0.4859286E+03  0.7546771E-02  0.9431858E-01
        -11   -1    0    0    0    0  0.00000000000E+00  0.00000000000E+00  0.50000000000E+03  0.50000000000E+03  0.00000000000E+00 0.  1.
         11   -1    0    0    0    0 -0.00000000000E+00 -0.00000000000E+00 -0.50000000000E+03  0.50000000000E+03  0.00000000000E+00 0. -1.
         23    2    1    2    0    0 -0.10414507280E+02  0.15957642022E+02 -0.46747474198E+03  0.47888227702E+03  0.10213957393E+03 0.  0.
        -11    1    1    2    0    0 -0.20734129080E+02  0.41754836649E+00  0.48243395683E+03  0.48287948927E+03  0.00000000000E+00 0.  1.
         11    1    1    2    0    0  0.31148636360E+02 -0.16375190389E+02 -0.14959214859E+02  0.38238233701E+02  0.00000000000E+00 0. -1.
        -15    1    3    3    0    0  0.62019020740E+01 -0.35642143666E+02 -0.82442432004E+02  0.90048533126E+02  0.17770000000E+01 0.  1.
         15    1    3    3    0    0 -0.16616409354E+02  0.51599785688E+02 -0.38503230997E+03  0.38883374390E+03  0.17770000000E+01 0. -1.
</event>
<event>
 7    1  0.2559882E-004  0.5190819E+03  0.7546771E-02  0.9358096E-01
        -11   -1    0    0    0    0  0.00000000000E+00  0.00000000000E+00  0.50000000000E+03  0.50000000000E+03  0.00000000000E+00 0. -1.
         11   -1    0    0    0    0 -0.00000000000E+00 -0.00000000000E+00 -0.50000000000E+03  0.50000000000E+03  0.00000000000E+00 0.  1.
         23    2    1    2    0    0  0.20270597898E+02 -0.32053555586E+02 -0.12125366245E+03  0.15773628473E+03  0.93487738762E+02 0.  0.
        -11    1    1    2    0    0 -0.11003880554E+02 -0.29217383532E+01  0.48078327346E+03  0.48091805745E+03  0.00000000000E+00 0. -1.
         11    1    1    2    0    0 -0.92667173434E+01  0.34975293939E+02 -0.35952961101E+03  0.36134565782E+03  0.00000000000E+00 0.  1.
        -15    1    3    3    0    0 -0.10063542341E+02 -0.20865364207E+02 -0.12312876356E+03  0.12530158998E+03  0.17770000000E+01 0.  1.
         15    1    3    3    0    0  0.30334140239E+02 -0.11188191379E+02  0.18751011077E+01  0.32434694750E+02  0.17770000000E+01 0. -1.
</event>
<event>
 7    1  0.2559882E-004  0.4454700E+03  0.7546771E-02  0.9530839E-01
        -11   -1    0    0    0    0  0.00000000000E+00  0.00000000000E+00  0.50000000000E+03  0.50000000000E+03  0.00000000000E+00 0. -1.
         11   -1    0    0    0    0 -0.00000000000E+00 -0.00000000000E+00 -0.50000000000E+03  0.50000000000E+03  0.00000000000E+00 0.  1.
         23    2    1    2    0    0  0.11661455347E+02  0.34048751721E+02  0.15073091133E+02  0.10820595250E+03  0.10092582943E+03 0.  0.
        -11    1    1    2    0    0 -0.15338071039E+02  0.18061127992E+01  0.43750776057E+03  0.43778026341E+03  0.00000000000E+00 0. -1.
         11    1    1    2    0    0  0.36766156921E+01 -0.35854864521E+02 -0.45258085171E+03  0.45401378409E+03  0.00000000000E+00 0.  1.
        -15    1    3    3    0    0  0.25136429508E+02 -0.19434511730E+02 -0.24615929783E+02  0.40232350946E+02  0.17770000000E+01 0.  1.
         15    1    3    3    0    0 -0.13474974161E+02  0.53483263452E+02  0.39689020916E+02  0.67973601555E+02  0.17770000000E+01 0. -1.
</event>
<event>
 7    1  0.2559882E-004  0.4806450E+03  0.7546771E-02  0.9444191E-01
        -11   -1    0    0    0    0  0.00000000000E+00  0.00000000000E+00  0.50000000000E+03  0.50000000000E+03  0.00000000000E+00 0.  1.
         11   -1    0    0    0    0 -0.00000000000E+00 -0.00000000000E+00 -0.50000000000E+03  0.50000000000E+03  0.00000000000E+00 0.  1.
         23    2    1    2    0    0  0.22243755694E+02 -0.37565977981E+02 -0.45995685825E+03  0.47085514621E+03  0.90764915580E+02 0.  0.
        -11    1    1    2    0    0  0.78341890435E+01  0.10830231900E+02  0.48272346388E+03  0.48290849136E+03  0.00000000000E+00 0.  1.
         11    1    1    2    0    0 -0.30077944738E+02  0.26735746081E+02 -0.22766605639E+02  0.46236362427E+02  0.00000000000E+00 0.  1.
        -15    1    3    3    0    0  0.48629870747E+02 -0.46323342309E+02 -0.38644400874E+03  0.39224080103E+03  0.17770000000E+01 0.  1.
         15    1    3    3    0    0 -0.26386115053E+02  0.87573643275E+01 -0.73512849503E+02  0.78614345183E+02  0.17770000000E+01 0. -1.
</event>
<event>
 7    1  0.2559882E-004  0.4872785E+03  0.7546771E-02  0.9428734E-01
        -11   -1    0    0    0    0  0.00000000000E+00  0.00000000000E+00  0.50000000000E+03  0.50000000000E+03  0.00000000000E+00 0. -1.
         11   -1    0    0    0    0 -0.00000000000E+00 -0.00000000000E+00 -0.50000000000E+03  0.50000000000E+03  0.00000000000E+00 0.  1.
         23    2    1    2    0    0 -0.10135375752E+03 -0.11205030857E+03 -0.44849073984E+03  0.48102025535E+03  0.86073727237E+02 0.  0.
        -11    1    1    2    0    0  0.86604374481E+02  0.13951942337E+03  0.45786543142E+03  0.48642238894E+03  0.00000000000E+00 0. -1.
         11    1    1    2    0    0  0.14749383038E+02 -0.27469114809E+02 -0.93746915741E+01  0.32557355705E+02  0.00000000000E+00 0.  1.
        -15    1    3    3    0    0 -0.50986102861E+02 -0.77296775911E+02 -0.37034471194E+03  0.38174957452E+03  0.17770000000E+01 0.  1.
         15    1    3    3    0    0 -0.50367654658E+02 -0.34753532654E+02 -0.78146027902E+02  0.99270680836E+02  0.17770000000E+01 0. -1.
</event>
<event>
 7    1  0.2559882E-004  0.5013295E+03  0.7546771E-02  0.9396840E-01
        -11   -1    0    0    0    0  0.00000000000E+00  0.00000000000E+00  0.50000000000E+03  0.50000000000E+03  0.00000000000E+00 0. -1.
         11   -1    0    0    0    0 -0.00000000000E+00 -0.00000000000E+00 -0.50000000000E+03  0.50000000000E+03  0.00000000000E+00 0.  1.
         23    2    1    2    0    0 -0.33756394693E+02 -0.19761972755E+01 -0.49261431809E+03  0.50132946810E+03  0.86711992617E+02 0.  0.
        -11    1    1    2    0    0  0.40163997195E+02 -0.21076617462E+02  0.41448829106E+03  0.41696272484E+03  0.00000000000E+00 0. -1.
         11    1    1    2    0    0 -0.64076025016E+01  0.23052814737E+02  0.78126027022E+02  0.81707807065E+02  0.00000000000E+00 0.  1.
        -15    1    3    3    0    0 -0.52277186329E+02  0.19658073581E+02 -0.41285761882E+03  0.41662202920E+03  0.17770000000E+01 0.  1.
         15    1    3    3    0    0  0.18520791636E+02 -0.21634270856E+02 -0.79756699268E+02  0.84707438902E+02  0.17770000000E+01 0. -1.
</event>
<event>
 7    1  0.2559882E-004  0.5203077E+03  0.7546771E-02  0.9355482E-01
        -11   -1    0    0    0    0  0.00000000000E+00  0.00000000000E+00  0.50000000000E+03  0.50000000000E+03  0.00000000000E+00 0.  1.
         11   -1    0    0    0    0 -0.00000000000E+00 -0.00000000000E+00 -0.50000000000E+03  0.50000000000E+03  0.00000000000E+00 0. -1.
         23    2    1    2    0    0 -0.68674528679E+02 -0.40242521218E+02 -0.16987318591E+03  0.21068014763E+03  0.95883126303E+02 0.  0.
        -11    1    1    2    0    0  0.63540183616E+02 -0.99572081598E+01  0.47536109854E+03  0.47969227108E+03  0.00000000000E+00 0.  1.
         11    1    1    2    0    0  0.51343450629E+01  0.50199729378E+02 -0.30548791264E+03  0.30962758129E+03  0.00000000000E+00 0. -1.
        -15    1    3    3    0    0 -0.13574715279E+02 -0.43284961543E+01  0.11080056124E+02  0.18136541748E+02  0.17770000000E+01 0.  1.
         15    1    3    3    0    0 -0.55099813400E+02 -0.35914025063E+02 -0.18095324203E+03  0.19254360588E+03  0.17770000000E+01 0. -1.
</event>
<event>
 7    1  0.2559882E-004  0.5261244E+03  0.7546771E-02  0.9343180E-01
        -11   -1    0    0    0    0  0.00000000000E+00  0.00000000000E+00  0.50000000000E+03  0.50000000000E+03  0.00000000000E+00 0. -1.
         11   -1    0    0    0    0 -0.00000000000E+00 -0.00000000000E+00 -0.50000000000E+03  0.50000000000E+03  0.00000000000E+00 0. -1.
         23    2    1    2    0    0 -0.34207094745E+02  0.65264265611E+02 -0.38482312475E+03  0.40271392655E+03  0.93059763598E+02 0.  0.
        -11    1    1    2    0    0  0.15904641222E+02  0.18872145247E+02  0.47323250947E+03  0.47387564138E+03  0.00000000000E+00 0. -1.
         11    1    1    2    0    0  0.18302453522E+02 -0.84136410858E+02 -0.88409384715E+02  0.12341043207E+03  0.00000000000E+00 0. -1.
        -15    1    3    3    0    0  0.13416334308E+02  0.42033725793E+02 -0.65345616573E+02  0.78867226809E+02  0.17770000000E+01 0.  1.
         15    1    3    3    0    0 -0.47623429053E+02  0.23230539819E+02 -0.31947750818E+03  0.32384669974E+03  0.17770000000E+01 0. -1.
</event>
<event>
 7    1  0.2559882E-004  0.4974972E+03  0.7546771E-02  0.9405427E-01
        -11   -1    0    0    0    0  0.00000000000E+00  0.00000000000E+00  0.50000000000E+03  0.50000000000E+03  0.00000000000E+00 0. -1.
         11   -1    0    0    0    0 -0.00000000000E+00 -0.00000000000E+00 -0.50000000000E+03  0.50000000000E+03  0.00000000000E+00 0. -1.
         23    2    1    2    0    0  0.11093448915E+02 -0.16164746710E+00 -0.48428588020E+03  0.49281583512E+03  0.90617563685E+02 0.  0.
        -11    1    1    2    0    0 -0.43209697725E+01 -0.59344164223E+01  0.49389043276E+03  0.49394498444E+03  0.00000000000E+00 0. -1.
         11    1    1    2    0    0 -0.67724791422E+01  0.60960638894E+01 -0.96045525635E+01  0.13239180436E+02  0.00000000000E+00 0. -1.
        -15    1    3    3    0    0  0.33946677227E+02 -0.11173548563E+02 -0.44218719359E+03  0.44363261488E+03  0.17770000000E+01 0. -1.
         15    1    3    3    0    0 -0.22853228312E+02  0.11011901096E+02 -0.42098686607E+02  0.49183220239E+02  0.17770000000E+01 0.  1.
</event>
<event>
 7    1  0.2559882E-004  0.3496031E+03  0.7546771E-02  0.9818277E-01
        -11   -1    0    0    0    0  0.00000000000E+00  0.00000000000E+00  0.50000000000E+03  0.50000000000E+03  0.00000000000E+00 0. -1.
         11   -1    0    0    0    0 -0.00000000000E+00 -0.00000000000E+00 -0.50000000000E+03  0.50000000000E+03  0.00000000000E+00 0. -1.
         23    2    1    2    0    0 -0.16848636466E+03  0.80740376262E+02 -0.22656565146E+03  0.30721557428E+03  0.90237194221E+02 0.  0.
        -11    1    1    2    0    0  0.15476841188E+02 -0.78199781348E+01  0.42866560041E+03  0.42901617877E+03  0.00000000000E+00 0. -1.
         11    1    1    2    0    0  0.15300952348E+03 -0.72920398127E+02 -0.20209994895E+03  0.26376824695E+03  0.00000000000E+00 0. -1.
        -15    1    3    3    0    0  0.89933571336E+01  0.15986651226E+02 -0.17231086544E+02  0.25229378955E+02  0.17770000000E+01 0.  1.
         15    1    3    3    0    0 -0.17747972180E+03  0.64753725036E+02 -0.20933456492E+03  0.28198619532E+03  0.17770000000E+01 0. -1.
</event>
<event>
 7    1  0.2559882E-004  0.5263420E+03  0.7546771E-02  0.9342723E-01
        -11   -1    0    0    0    0  0.00000000000E+00  0.00000000000E+00  0.50000000000E+03  0.50000000000E+03  0.00000000000E+00 0.  1.
         11   -1    0    0    0    0 -0.00000000000E+00 -0.00000000000E+00 -0.50000000000E+03  0.50000000000E+03  0.00000000000E+00 0. -1.
         23    2    1    2    0    0 -0.41614213076E+02 -0.75579186347E+02 -0.35591022675E+03  0.37908893420E+03  0.97940667677E+02 0.  0.
        -11    1    1    2    0    0  0.54666586569E+01 -0.52071575547E+01  0.47359785569E+03  0.47365802829E+03  0.00000000000E+00 0.  1.
         11    1    1    2    0    0  0.36147554419E+02  0.80786343901E+02 -0.11768762894E+03  0.14725303751E+03  0.00000000000E+00 0. -1.
        -15    1    3    3    0    0 -0.17835871198E+02  0.22405968644E+02 -0.60955227300E+02  0.67370937328E+02  0.17770000000E+01 0.  1.
         15    1    3    3    0    0 -0.23778341879E+02 -0.97985154991E+02 -0.29495499945E+03  0.31171799687E+03  0.17770000000E+01 0. -1.
</event>
<event>
 7    1  0.2559882E-004  0.4825890E+03  0.7546771E-02  0.9439634E-01
        -11   -1    0    0    0    0  0.00000000000E+00  0.00000000000E+00  0.50000000000E+03  0.50000000000E+03  0.00000000000E+00 0. -1.
         11   -1    0    0    0    0 -0.00000000000E+00 -0.00000000000E+00 -0.50000000000E+03  0.50000000000E+03  0.00000000000E+00 0. -1.
         23    2    1    2    0    0 -0.14430718098E+03  0.11843801911E+03  0.41610061439E+03  0.46415372314E+03  0.86295020470E+02 0.  0.
        -11    1    1    2    0    0  0.90291778186E+00  0.12466625276E+00  0.41682876774E+02  0.41692841332E+02  0.00000000000E+00 0. -1.
         11    1    1    2    0    0  0.14340426320E+03 -0.11856268536E+03 -0.45778349116E+03  0.49415343553E+03  0.00000000000E+00 0. -1.
        -15    1    3    3    0    0 -0.78835061881E+02  0.69903188859E+02  0.13377590133E+03  0.17029554399E+03  0.17770000000E+01 0. -1.
         15    1    3    3    0    0 -0.65472119104E+02  0.48534830252E+02  0.28232471305E+03  0.29385817915E+03  0.17770000000E+01 0.  1.
</event>
<event>
 7    1  0.2559882E-004  0.3416831E+03  0.7546771E-02  0.9846375E-01
        -11   -1    0    0    0    0  0.00000000000E+00  0.00000000000E+00  0.50000000000E+03  0.50000000000E+03  0.00000000000E+00 0. -1.
         11   -1    0    0    0    0 -0.00000000000E+00 -0.00000000000E+00 -0.50000000000E+03  0.50000000000E+03  0.00000000000E+00 0.  1.
         23    2    1    2    0    0  0.36384414331E+02  0.45144150077E+02 -0.24812065548E+03  0.27067498243E+03  0.91319584683E+02 0.  0.
        -11    1    1    2    0    0  0.16867742185E+03  0.14480485064E+03  0.36417879167E+03  0.42666932127E+03  0.00000000000E+00 0. -1.
         11    1    1    2    0    0 -0.20506183618E+03 -0.18994900072E+03 -0.11605813619E+03  0.30265569630E+03  0.00000000000E+00 0.  1.
        -15    1    3    3    0    0 -0.22622966255E+02  0.63145366706E+00 -0.12512510048E+03  0.12716778615E+03  0.17770000000E+01 0.  1.
         15    1    3    3    0    0  0.59007380586E+02  0.44512696410E+02 -0.12299555500E+03  0.14350719628E+03  0.17770000000E+01 0. -1.
</event>
<event>
 7    1  0.2559882E-004  0.5035549E+03  0.7546771E-02  0.9391890E-01
        -11   -1    0    0    0    0  0.00000000000E+00  0.00000000000E+00  0.50000000000E+03  0.50000000000E+03  0.00000000000E+00 0. -1.
         11   -1    0    0    0    0 -0.00000000000E+00 -0.00000000000E+00 -0.50000000000E+03  0.50000000000E+03  0.00000000000E+00 0. -1.
         23    2    1    2    0    0  0.44025981623E+01 -0.46777345878E+02 -0.48527686480E+03  0.49644513611E+03  0.93576891903E+02 0.  0.
        -11    1    1    2    0    0 -0.11922454348E+02  0.13930442581E+02  0.46254330859E+03  0.46290659368E+03  0.00000000000E+00 0. -1.
         11    1    1    2    0    0  0.75198561854E+01  0.32846903297E+02  0.22733556214E+02  0.40648270214E+02  0.00000000000E+00 0. -1.
        -15    1    3    3    0    0 -0.43977438093E+02 -0.14081662060E+02 -0.22397928264E+03  0.22869670974E+03  0.17770000000E+01 0.  1.
         15    1    3    3    0    0  0.48380036255E+02 -0.32695683817E+02 -0.26129758216E+03  0.26774842637E+03  0.17770000000E+01 0. -1.
</event>
<event>
 7    1  0.2559882E-004  0.5228173E+03  0.7546771E-02  0.9350153E-01
        -11   -1    0    0    0    0  0.00000000000E+00  0.00000000000E+00  0.50000000000E+03  0.50000000000E+03  0.00000000000E+00 0.  1.
         11   -1    0    0    0    0 -0.00000000000E+00 -0.00000000000E+00 -0.50000000000E+03  0.50000000000E+03  0.00000000000E+00 0.  1.
         23    2    1    2    0    0 -0.28735806142E+01  0.63168078103E+02  0.11524775165E+03  0.16073226554E+03  0.92489747378E+02 0.  0.
        -11    1    1    2    0    0 -0.19285911430E+02 -0.30389500463E+02  0.36029173906E+03  0.36208508026E+03  0.00000000000E+00 0.  1.
         11    1    1    2    0    0  0.22159492044E+02 -0.32778577640E+02 -0.47553949071E+03  0.47718265419E+03  0.00000000000E+00 0.  1.
        -15    1    3    3    0    0  0.86845347994E+01  0.53092892144E+02  0.10486246183E+02  0.54839724917E+02  0.17770000000E+01 0. -1.
         15    1    3    3    0    0 -0.11558115414E+02  0.10075185958E+02  0.10476150547E+03  0.10589254063E+03  0.17770000000E+01 0.  1.
</event>
<event>
 7    1  0.2559882E-004  0.4966845E+03  0.7546771E-02  0.9407259E-01
        -11   -1    0    0    0    0  0.00000000000E+00  0.00000000000E+00  0.50000000000E+03  0.50000000000E+03  0.00000000000E+00 0. -1.
         11   -1    0    0    0    0 -0.00000000000E+00 -0.00000000000E+00 -0.50000000000E+03  0.50000000000E+03  0.00000000000E+00 0. -1.
         23    2    1    2    0    0 -0.55365641208E+01  0.18038401714E+00 -0.48110998915E+03  0.48955645536E+03  0.90377072549E+02 0.  0.
        -11    1    1    2    0    0  0.68497534598E+01 -0.30812620354E+01  0.49557514195E+03  0.49563205568E+03  0.00000000000E+00 0. -1.
         11    1    1    2    0    0 -0.13131893390E+01  0.29008780183E+01 -0.14465152802E+02  0.14811488956E+02  0.00000000000E+00 0. -1.
        -15    1    3    3    0    0 -0.17741138017E+01  0.17278562564E+02 -0.46610089752E+03  0.46642780856E+03  0.17770000000E+01 0. -1.
         15    1    3    3    0    0 -0.37624503191E+01 -0.17098178546E+02 -0.15009091632E+02  0.23128646797E+02  0.17770000000E+01 0.  1.
</event>
<event>
 7    1  0.2559882E-004  0.4398316E+03  0.7546771E-02  0.9545521E-01
        -11   -1    0    0    0    0  0.00000000000E+00  0.00000000000E+00  0.50000000000E+03  0.50000000000E+03  0.00000000000E+00 0. -1.
         11   -1    0    0    0    0 -0.00000000000E+00 -0.00000000000E+00 -0.50000000000E+03  0.50000000000E+03  0.00000000000E+00 0.  1.
         23    2    1    2    0    0 -0.27926921765E+02  0.30986510270E+02 -0.39732854760E+03  0.40922645403E+03  0.88635428373E+02 0.  0.
        -11    1    1    2    0    0 -0.20928039914E+02  0.55844289337E+02  0.46597959240E+03  0.46978031891E+03  0.00000000000E+00 0. -1.
         11    1    1    2    0    0  0.48854961679E+02 -0.86830799607E+02 -0.68651044795E+02  0.12099322705E+03  0.00000000000E+00 0.  1.
        -15    1    3    3    0    0  0.29755130268E+02  0.11186746343E+02 -0.80318496610E+02  0.86398667222E+02  0.17770000000E+01 0.  1.
         15    1    3    3    0    0 -0.57682052033E+02  0.19799763927E+02 -0.31701005099E+03  0.32282778681E+03  0.17770000000E+01 0. -1.
</event>
<event>
 7    1  0.2559882E-004  0.5025537E+03  0.7546771E-02  0.9394114E-01
        -11   -1    0    0    0    0  0.00000000000E+00  0.00000000000E+00  0.50000000000E+03  0.50000000000E+03  0.00000000000E+00 0.  1.
         11   -1    0    0    0    0 -0.00000000000E+00 -0.00000000000E+00 -0.50000000000E+03  0.50000000000E+03  0.00000000000E+00 0.  1.
         23    2    1    2    0    0  0.99071234464E+01  0.70753577654E+01 -0.49378415603E+03  0.50255374663E+03  0.92678280718E+02 0.  0.
        -11    1    1    2    0    0 -0.84041085392E+01  0.45219461748E+01  0.47639513700E+03  0.47649071722E+03  0.00000000000E+00 0.  1.
         11    1    1    2    0    0 -0.15030149071E+01 -0.11597303940E+02  0.17389019034E+02  0.20955536153E+02  0.00000000000E+00 0.  1.
        -15    1    3    3    0    0 -0.26125975879E+02 -0.41428255367E+01 -0.45351190818E+02  0.52532065033E+02  0.17770000000E+01 0. -1.
         15    1    3    3    0    0  0.36033099325E+02  0.11218183302E+02 -0.44843296522E+03  0.45002168160E+03  0.17770000000E+01 0.  1.
</event>
<event>
 7    1  0.2559882E-004  0.5038462E+03  0.7546771E-02  0.9391244E-01
        -11   -1    0    0    0    0  0.00000000000E+00  0.00000000000E+00  0.50000000000E+03  0.50000000000E+03  0.00000000000E+00 0. -1.
         11   -1    0    0    0    0 -0.00000000000E+00 -0.00000000000E+00 -0.50000000000E+03  0.50000000000E+03  0.00000000000E+00 0.  1.
         23    2    1    2    0    0 -0.10738086056E+00  0.53797773457E+01 -0.49524278013E+03  0.50384624880E+03  0.92556348354E+02 0.  0.
        -11    1    1    2    0    0 -0.58909347099E+01 -0.55755123331E+01  0.47426542928E+03  0.47433478353E+03  0.00000000000E+00 0. -1.
         11    1    1    2    0    0  0.59983155705E+01  0.19573498745E+00  0.20977350848E+02  0.21818967677E+02  0.00000000000E+00 0.  1.
        -15    1    3    3    0    0 -0.44397371075E+01  0.26400909039E+02 -0.46957235136E+03  0.47033825079E+03  0.17770000000E+01 0.  1.
         15    1    3    3    0    0  0.43323562470E+01 -0.21021131694E+02 -0.25670428772E+02  0.33507998010E+02  0.17770000000E+01 0. -1.
</event>
<event>
 7    1  0.2559882E-004  0.5395069E+03  0.7546771E-02  0.9315506E-01
        -11   -1    0    0    0    0  0.00000000000E+00  0.00000000000E+00  0.50000000000E+03  0.50000000000E+03  0.00000000000E+00 0.  1.
         11   -1    0    0    0    0 -0.00000000000E+00 -0.00000000000E+00 -0.50000000000E+03  0.50000000000E+03  0.00000000000E+00 0.  1.
         23    2    1    2    0    0  0.72389703768E+02 -0.65574688741E+02 -0.18489838319E+03  0.22802904136E+03  0.90936915397E+02 0.  0.
        -11    1    1    2    0    0  0.18880040882E+02 -0.56225533837E+02  0.45665751411E+03  0.46049305293E+03  0.00000000000E+00 0.  1.
         11    1    1    2    0    0 -0.91269744650E+02  0.12180022258E+03 -0.27175913092E+03  0.31147790571E+03  0.00000000000E+00 0.  1.
        -15    1    3    3    0    0  0.91854705717E+02 -0.37524261362E+02 -0.13557568108E+03  0.16801571409E+03  0.17770000000E+01 0.  1.
         15    1    3    3    0    0 -0.19465001949E+02 -0.28050427379E+02 -0.49322702117E+02  0.60013327272E+02  0.17770000000E+01 0. -1.
</event>
<event>
 7    1  0.2559882E-004  0.4910741E+03  0.7546771E-02  0.9420007E-01
        -11   -1    0    0    0    0  0.00000000000E+00  0.00000000000E+00  0.50000000000E+03  0.50000000000E+03  0.00000000000E+00 0. -1.
         11   -1    0    0    0    0 -0.00000000000E+00 -0.00000000000E+00 -0.50000000000E+03  0.50000000000E+03  0.00000000000E+00 0. -1.
         23    2    1    2    0    0  0.71022950341E+01  0.30037882044E+01 -0.48020223964E+03  0.48908032390E+03  0.92444074638E+02 0.  0.
        -11    1    1    2    0    0 -0.30377533448E+02  0.87058803649E+01  0.48361144394E+03  0.48464277112E+03  0.00000000000E+00 0. -1.
         11    1    1    2    0    0  0.23275238413E+02 -0.11709668569E+02 -0.34092043021E+01  0.26276904977E+02  0.00000000000E+00 0. -1.
        -15    1    3    3    0    0 -0.25176317659E+02  0.23380881865E+01 -0.37881869623E+02  0.45579681902E+02  0.17770000000E+01 0.  1.
         15    1    3    3    0    0  0.32278612693E+02  0.66570001788E+00 -0.44232037001E+03  0.44350064200E+03  0.17770000000E+01 0. -1.
</event>
<event>
 7    1  0.2559882E-004  0.4527172E+03  0.7546771E-02  0.9512305E-01
        -11   -1    0    0    0    0  0.00000000000E+00  0.00000000000E+00  0.50000000000E+03  0.50000000000E+03  0.00000000000E+00 0.  1.
         11   -1    0    0    0    0 -0.00000000000E+00 -0.00000000000E+00 -0.50000000000E+03  0.50000000000E+03  0.00000000000E+00 0. -1.
         23    2    1    2    0    0 -0.44899050578E+02  0.92439685885E+02 -0.41307889880E+03  0.43687895792E+03  0.98326125569E+02 0.  0.
        -11    1    1    2    0    0  0.55733386593E+01 -0.15467565146E+02  0.46300848051E+03  0.46330029214E+03  0.00000000000E+00 0.  1.
         11    1    1    2    0    0  0.39325711918E+02 -0.76972120740E+02 -0.49929581708E+02  0.99820749940E+02  0.00000000000E+00 0. -1.
        -15    1    3    3    0    0 -0.68219243875E+01  0.10218492472E+03 -0.31352545184E+03  0.32983278214E+03  0.17770000000E+01 0. -1.
         15    1    3    3    0    0 -0.38077126190E+02 -0.97452388337E+01 -0.99553446962E+02  0.10704617578E+03  0.17770000000E+01 0.  1.
</event>
<event>
 7    1  0.2559882E-004  0.5227528E+03  0.7546771E-02  0.9350290E-01
        -11   -1    0    0    0    0  0.00000000000E+00  0.00000000000E+00  0.50000000000E+03  0.50000000000E+03  0.00000000000E+00 0. -1.
         11   -1    0    0    0    0 -0.00000000000E+00 -0.00000000000E+00 -0.50000000000E+03  0.50000000000E+03  0.00000000000E+00 0. -1.
         23    2    1    2    0    0 -0.42954117147E+02  0.73979946097E+02 -0.40618953773E+03  0.42552759897E+03  0.93625361519E+02 0.  0.
        -11    1    1    2    0    0 -0.11954528452E+02 -0.34200594821E+02  0.47587007566E+03  0.47724723188E+03  0.00000000000E+00 0. -1.
         11    1    1    2    0    0  0.54908645600E+02 -0.39779351276E+02 -0.69680537924E+02  0.97225169143E+02  0.00000000000E+00 0. -1.
        -15    1    3    3    0    0  0.16986040219E+02  0.15754958898E+02 -0.20822969388E+02  0.31200930681E+02  0.17770000000E+01 0.  1.
         15    1    3    3    0    0 -0.59940157367E+02  0.58224987199E+02 -0.38536656834E+03  0.39432666829E+03  0.17770000000E+01 0. -1.
</event>
<event>
 7    1  0.2559882E-004  0.5239159E+03  0.7546771E-02  0.9347831E-01
        -11   -1    0    0    0    0  0.00000000000E+00  0.00000000000E+00  0.50000000000E+03  0.50000000000E+03  0.00000000000E+00 0.  1.
         11   -1    0    0    0    0 -0.00000000000E+00 -0.00000000000E+00 -0.50000000000E+03  0.50000000000E+03  0.00000000000E+00 0. -1.
         23    2    1    2    0    0  0.58542029969E+01  0.13551294945E+02 -0.74606244869E+02  0.12174958149E+03  0.95073442829E+02 0.  0.
        -11    1    1    2    0    0  0.76435627368E+00  0.11300324471E+02  0.47594938458E+03  0.47608412939E+03  0.00000000000E+00 0.  1.
         11    1    1    2    0    0 -0.66185592706E+01 -0.24851619416E+02 -0.40134313971E+03  0.40216628912E+03  0.00000000000E+00 0. -1.
        -15    1    3    3    0    0  0.36348700449E+02  0.24241815075E+02 -0.77782677743E+02  0.89231139791E+02  0.17770000000E+01 0. -1.
         15    1    3    3    0    0 -0.30494497453E+02 -0.10690520130E+02  0.31764328740E+01  0.32518441696E+02  0.17770000000E+01 0.  1.
</event>
<event>
 7    1  0.2559882E-004  0.4600019E+03  0.7546771E-02  0.9494044E-01
        -11   -1    0    0    0    0  0.00000000000E+00  0.00000000000E+00  0.50000000000E+03  0.50000000000E+03  0.00000000000E+00 0.  1.
         11   -1    0    0    0    0 -0.00000000000E+00 -0.00000000000E+00 -0.50000000000E+03  0.50000000000E+03  0.00000000000E+00 0. -1.
         23    2    1    2    0    0  0.43260772217E+02 -0.13013894554E+02 -0.46149128639E+03  0.47256507844E+03  0.91119098345E+02 0.  0.
        -11    1    1    2    0    0 -0.11864044587E+03 -0.46345888746E+01  0.42606002604E+03  0.44229422402E+03  0.00000000000E+00 0.  1.
         11    1    1    2    0    0  0.75379673651E+02  0.17648483428E+02  0.35431260348E+02  0.85140697536E+02  0.00000000000E+00 0. -1.
        -15    1    3    3    0    0  0.71375666887E+02 -0.88743589553E+01 -0.29431929028E+03  0.30298554822E+03  0.17770000000E+01 0. -1.
         15    1    3    3    0    0 -0.28114894670E+02 -0.41395355984E+01 -0.16717199611E+03  0.16957953022E+03  0.17770000000E+01 0.  1.
</event>
<event>
 7    1  0.2559882E-004  0.4355433E+03  0.7546771E-02  0.9556845E-01
        -11   -1    0    0    0    0  0.00000000000E+00  0.00000000000E+00  0.50000000000E+03  0.50000000000E+03  0.00000000000E+00 0.  1.
         11   -1    0    0    0    0 -0.00000000000E+00 -0.00000000000E+00 -0.50000000000E+03  0.50000000000E+03  0.00000000000E+00 0. -1.
         23    2    1    2    0    0 -0.62979062149E+02  0.47615446573E+02 -0.31472521840E+02  0.12477666075E+03  0.91351532094E+02 0.  0.
        -11    1    1    2    0    0  0.36101088062E+01  0.99940034041E+02  0.43244501968E+03  0.44385779067E+03  0.00000000000E+00 0.  1.
         11    1    1    2    0    0  0.59368953343E+02 -0.14755548061E+03 -0.40097249784E+03  0.43136554858E+03  0.00000000000E+00 0. -1.
        -15    1    3    3    0    0 -0.60049581814E+01 -0.13180839807E+02  0.21531095835E+02  0.26010380190E+02  0.17770000000E+01 0.  1.
         15    1    3    3    0    0 -0.56974103968E+02  0.60796286379E+02 -0.53003617675E+02  0.98766280562E+02  0.17770000000E+01 0. -1.
</event>
<event>
 7    1  0.2559882E-004  0.5308295E+03  0.7546771E-02  0.9333351E-01
        -11   -1    0    0    0    0  0.00000000000E+00  0.00000000000E+00  0.50000000000E+03  0.50000000000E+03  0.00000000000E+00 0.  1.
         11   -1    0    0    0    0 -0.00000000000E+00 -0.00000000000E+00 -0.50000000000E+03  0.50000000000E+03  0.00000000000E+00 0.  1.
         23    2    1    2    0    0  0.13561353077E+03 -0.99810342090E+02 -0.32891516926E+03  0.37824136165E+03  0.80797307990E+02 0.  0.
        -11    1    1    2    0    0 -0.77654059814E+02  0.47976655723E+02  0.46020539193E+03  0.46917045438E+03  0.00000000000E+00 0.  1.
         11    1    1    2    0    0 -0.57959470960E+02  0.51833686367E+02 -0.13129022267E+03  0.15258818397E+03  0.00000000000E+00 0.  1.
        -15    1    3    3    0    0  0.13764997449E+02 -0.54459048576E+02 -0.86449661673E+02  0.10311141963E+03  0.17770000000E+01 0. -1.
         15    1    3    3    0    0  0.12184853332E+03 -0.45351293514E+02 -0.24246550759E+03  0.27512994202E+03  0.17770000000E+01 0.  1.
</event>
<event>
 7    1  0.2559882E-004  0.4888991E+03  0.7546771E-02  0.9424997E-01
        -11   -1    0    0    0    0  0.00000000000E+00  0.00000000000E+00  0.50000000000E+03  0.50000000000E+03  0.00000000000E+00 0. -1.
         11   -1    0    0    0    0 -0.00000000000E+00 -0.00000000000E+00 -0.50000000000E+03  0.50000000000E+03  0.00000000000E+00 0.  1.
         23    2    1    2    0    0 -0.65555299347E+02  0.91310360592E+01 -0.47392529550E+03  0.48725031329E+03  0.91797652402E+02 0.  0.
        -11    1    1    2    0    0  0.38603788184E+02  0.32022918794E+01  0.48077180373E+03  0.48232979837E+03  0.00000000000E+00 0. -1.
         11    1    1    2    0    0  0.26951511163E+02 -0.12333327939E+02 -0.68465082234E+01  0.30419888344E+02  0.00000000000E+00 0.  1.
        -15    1    3    3    0    0 -0.54596263034E+02  0.31330474863E+02 -0.15419610343E+03  0.16655913855E+03  0.17770000000E+01 0. -1.
         15    1    3    3    0    0 -0.10959036313E+02 -0.22199438804E+02 -0.31972919208E+03  0.32069117474E+03  0.17770000000E+01 0.  1.
</event>
