<event>
 7    1  0.1557436E-003  0.1941103E+03  0.7546771E-02  0.1059571E+00
        -11   -1    0    0    0    0  0.00000000000E+00  0.00000000000E+00  0.18250000000E+03  0.18250000000E+03  0.00000000000E+00 0. -1.
         11   -1    0    0    0    0 -0.00000000000E+00 -0.00000000000E+00 -0.18250000000E+03  0.18250000000E+03  0.00000000000E+00 0.  1.
         23    2    1    2    0    0 -0.83801726478E+01 -0.21272731672E+01 -0.16777887548E+03  0.19411031262E+03  0.97233275273E+02 0.  0.
        -11    1    1    2    0    0  0.50027849791E+00 -0.22969514406E+01  0.15612409597E+03  0.15614179327E+03  0.00000000000E+00 0. -1.
         11    1    1    2    0    0  0.78798941498E+01  0.44242246078E+01  0.11654779518E+02  0.14747894114E+02  0.00000000000E+00 0.  1.
        -15    1    3    3    0    0  0.15772226051E+02 -0.42441807601E+02 -0.11396177033E+03  0.12263976914E+03  0.17770000000E+01 0. -1.
         15    1    3    3    0    0 -0.24152398699E+02  0.40314534434E+02 -0.53817105149E+02  0.71470543479E+02  0.17770000000E+01 0.  1.
</event>
<event>
 7    1  0.1557436E-003  0.1547785E+03  0.7546771E-02  0.1092949E+00
        -11   -1    0    0    0    0  0.00000000000E+00  0.00000000000E+00  0.18250000000E+03  0.18250000000E+03  0.00000000000E+00 0. -1.
         11   -1    0    0    0    0 -0.00000000000E+00 -0.00000000000E+00 -0.18250000000E+03  0.18250000000E+03  0.00000000000E+00 0. -1.
         23    2    1    2    0    0 -0.27956725138E+02 -0.25015209945E+02 -0.13893962028E+03  0.17068820422E+03  0.91776390044E+02 0.  0.
        -11    1    1    2    0    0  0.80590333339E+02  0.11352795255E+02  0.86486292571E+02  0.11875843798E+03  0.00000000000E+00 0. -1.
         11    1    1    2    0    0 -0.52633608201E+02  0.13662414691E+02  0.52453327706E+02  0.75553357800E+02  0.00000000000E+00 0. -1.
        -15    1    3    3    0    0 -0.28589188421E+02 -0.56952291550E+02 -0.11196242818E+03  0.12883962224E+03  0.17770000000E+01 0. -1.
         15    1    3    3    0    0  0.63246328337E+00  0.31937081605E+02 -0.26977192099E+02  0.41848581980E+02  0.17770000000E+01 0.  1.
</event>
<event>
 7    1  0.1557436E-003  0.1860827E+03  0.7546771E-02  0.1065638E+00
        -11   -1    0    0    0    0  0.00000000000E+00  0.00000000000E+00  0.18250000000E+03  0.18250000000E+03  0.00000000000E+00 0. -1.
         11   -1    0    0    0    0 -0.00000000000E+00 -0.00000000000E+00 -0.18250000000E+03  0.18250000000E+03  0.00000000000E+00 0.  1.
         23    2    1    2    0    0  0.15752210642E+02  0.36382909770E+02 -0.15722188773E+03  0.18608270565E+03  0.91302809905E+02 0.  0.
        -11    1    1    2    0    0  0.10549780385E+01 -0.15749791285E+01  0.13360856353E+03  0.13362201086E+03  0.00000000000E+00 0. -1.
         11    1    1    2    0    0 -0.16807188680E+02 -0.34807930641E+02  0.23613324199E+02  0.45295283491E+02  0.00000000000E+00 0.  1.
        -15    1    3    3    0    0  0.16314865758E+02  0.25327006753E+02 -0.17744114996E+01  0.30231413810E+02  0.17770000000E+01 0. -1.
         15    1    3    3    0    0 -0.56265511686E+00  0.11055903017E+02 -0.15544747623E+03  0.15585129184E+03  0.17770000000E+01 0.  1.
</event>
<event>
 7    1  0.1557436E-003  0.1656392E+03  0.7546771E-02  0.1082729E+00
        -11   -1    0    0    0    0  0.00000000000E+00  0.00000000000E+00  0.18250000000E+03  0.18250000000E+03  0.00000000000E+00 0. -1.
         11   -1    0    0    0    0 -0.00000000000E+00 -0.00000000000E+00 -0.18250000000E+03  0.18250000000E+03  0.00000000000E+00 0. -1.
         23    2    1    2    0    0  0.37767040110E+02 -0.34607183958E+02 -0.12326788530E+03  0.16189637546E+03  0.91604903484E+02 0.  0.
        -11    1    1    2    0    0 -0.39725121549E+01 -0.36348587602E+01  0.14680443705E+03  0.14690315105E+03  0.00000000000E+00 0. -1.
         11    1    1    2    0    0 -0.33794527955E+02  0.38242042718E+02 -0.23536551756E+02  0.56200473481E+02  0.00000000000E+00 0. -1.
        -15    1    3    3    0    0  0.55139657028E+02  0.10329358448E+02 -0.57515512792E+02  0.80363358341E+02  0.17770000000E+01 0.  1.
         15    1    3    3    0    0 -0.17372616918E+02 -0.44936542406E+02 -0.65752372507E+02  0.81533017124E+02  0.17770000000E+01 0. -1.
</event>
<event>
 7    1  0.1557436E-003  0.1850213E+03  0.7546771E-02  0.1066465E+00
        -11   -1    0    0    0    0  0.00000000000E+00  0.00000000000E+00  0.18250000000E+03  0.18250000000E+03  0.00000000000E+00 0. -1.
         11   -1    0    0    0    0 -0.00000000000E+00 -0.00000000000E+00 -0.18250000000E+03  0.18250000000E+03  0.00000000000E+00 0. -1.
         23    2    1    2    0    0  0.39675481972E+02  0.59906210520E+01 -0.15582910749E+03  0.18502134429E+03  0.91324452869E+02 0.  0.
        -11    1    1    2    0    0  0.47224456645E+01 -0.73515292510E+01  0.12638608003E+03  0.12668775671E+03  0.00000000000E+00 0. -1.
         11    1    1    2    0    0 -0.44397927637E+02  0.13609081990E+01  0.29443027461E+02  0.53290898994E+02  0.00000000000E+00 0. -1.
        -15    1    3    3    0    0  0.34333641597E+02  0.36061049397E+02 -0.14373391510E+03  0.15212427258E+03  0.17770000000E+01 0. -1.
         15    1    3    3    0    0  0.53418403752E+01 -0.30070428345E+02 -0.12095192397E+02  0.32897071717E+02  0.17770000000E+01 0.  1.
</event>
<event>
 7    1  0.1557436E-003  0.1647806E+03  0.7546771E-02  0.1083505E+00
        -11   -1    0    0    0    0  0.00000000000E+00  0.00000000000E+00  0.18250000000E+03  0.18250000000E+03  0.00000000000E+00 0. -1.
         11   -1    0    0    0    0 -0.00000000000E+00 -0.00000000000E+00 -0.18250000000E+03  0.18250000000E+03  0.00000000000E+00 0. -1.
         23    2    1    2    0    0 -0.22124409819E+02  0.14360357328E+02 -0.11245845009E+03  0.14766177611E+03  0.91985801921E+02 0.  0.
        -11    1    1    2    0    0 -0.12270243886E+02 -0.79253345799E+01  0.15868815317E+03  0.15935902789E+03  0.00000000000E+00 0. -1.
         11    1    1    2    0    0  0.34394653705E+02 -0.64350227485E+01 -0.46229703087E+02  0.57979196000E+02  0.00000000000E+00 0. -1.
        -15    1    3    3    0    0 -0.58388499037E+01 -0.44347153542E+01 -0.12105421892E+03  0.12128907830E+03  0.17770000000E+01 0. -1.
         15    1    3    3    0    0 -0.16285559916E+02  0.18795072683E+02  0.85957688295E+01  0.26372697808E+02  0.17770000000E+01 0.  1.
</event>
<event>
 7    1  0.1557436E-003  0.1509371E+03  0.7546771E-02  0.1096786E+00
        -11   -1    0    0    0    0  0.00000000000E+00  0.00000000000E+00  0.18250000000E+03  0.18250000000E+03  0.00000000000E+00 0.  1.
         11   -1    0    0    0    0 -0.00000000000E+00 -0.00000000000E+00 -0.18250000000E+03  0.18250000000E+03  0.00000000000E+00 0. -1.
         23    2    1    2    0    0 -0.38941667721E+02 -0.70408426885E+01 -0.95374462936E+02  0.14031671529E+03  0.95007712625E+02 0.  0.
        -11    1    1    2    0    0  0.96211142288E+01  0.83776922925E+02  0.11267271749E+03  0.14073478575E+03  0.00000000000E+00 0.  1.
         11    1    1    2    0    0  0.29320553493E+02 -0.76736080237E+02 -0.17298254553E+02  0.83948498961E+02  0.00000000000E+00 0. -1.
        -15    1    3    3    0    0  0.21533833297E+02  0.89947144551E+01 -0.68158750391E+02  0.72065136151E+02  0.17770000000E+01 0.  1.
         15    1    3    3    0    0 -0.60475501019E+02 -0.16035557144E+02 -0.27215712546E+02  0.68251579138E+02  0.17770000000E+01 0. -1.
</event>
<event>
 7    1  0.1557436E-003  0.1777476E+03  0.7546771E-02  0.1072302E+00
        -11   -1    0    0    0    0  0.00000000000E+00  0.00000000000E+00  0.18250000000E+03  0.18250000000E+03  0.00000000000E+00 0. -1.
         11   -1    0    0    0    0 -0.00000000000E+00 -0.00000000000E+00 -0.18250000000E+03  0.18250000000E+03  0.00000000000E+00 0.  1.
         23    2    1    2    0    0  0.75302478452E+01  0.56685379818E+01 -0.13681076713E+03  0.16485716500E+03  0.91497879174E+02 0.  0.
        -11    1    1    2    0    0 -0.19298738376E+02  0.56156365750E+01  0.16572990860E+03  0.16694424003E+03  0.00000000000E+00 0. -1.
         11    1    1    2    0    0  0.11768490531E+02 -0.11284174557E+02 -0.28919141469E+02  0.33198594972E+02  0.00000000000E+00 0.  1.
        -15    1    3    3    0    0  0.23331894734E+02  0.10930543684E+02 -0.14424018386E+03  0.14653410001E+03  0.17770000000E+01 0.  1.
         15    1    3    3    0    0 -0.15801646888E+02 -0.52620057026E+01  0.74294167341E+01  0.18323064984E+02  0.17770000000E+01 0. -1.
</event>
<event>
 7    1  0.1557436E-003  0.1509818E+03  0.7546771E-02  0.1096741E+00
        -11   -1    0    0    0    0  0.00000000000E+00  0.00000000000E+00  0.18250000000E+03  0.18250000000E+03  0.00000000000E+00 0. -1.
         11   -1    0    0    0    0 -0.00000000000E+00 -0.00000000000E+00 -0.18250000000E+03  0.18250000000E+03  0.00000000000E+00 0.  1.
         23    2    1    2    0    0 -0.21668295360E+02 -0.19311260237E+01 -0.74568046489E+02  0.12568193490E+03  0.98804407448E+02 0.  0.
        -11    1    1    2    0    0  0.45141057014E+01 -0.40533426995E+02  0.14759053071E+03  0.15312184890E+03  0.00000000000E+00 0. -1.
         11    1    1    2    0    0  0.17154189659E+02  0.42464553019E+02 -0.73022484222E+02  0.86196216204E+02  0.00000000000E+00 0.  1.
        -15    1    3    3    0    0  0.31379138773E+01  0.35911898088E+02  0.26239697313E+01  0.36187758620E+02  0.17770000000E+01 0.  1.
         15    1    3    3    0    0 -0.24806209237E+02 -0.37843024111E+02 -0.77192016221E+02  0.89494176279E+02  0.17770000000E+01 0. -1.
</event>
<event>
 7    1  0.1557436E-003  0.1470337E+03  0.7546771E-02  0.1100817E+00
        -11   -1    0    0    0    0  0.00000000000E+00  0.00000000000E+00  0.18250000000E+03  0.18250000000E+03  0.00000000000E+00 0.  1.
         11   -1    0    0    0    0 -0.00000000000E+00 -0.00000000000E+00 -0.18250000000E+03  0.18250000000E+03  0.00000000000E+00 0. -1.
         23    2    1    2    0    0  0.60152755562E+02  0.47710815810E+02 -0.88872954378E+02  0.14831507617E+03  0.90577501914E+02 0.  0.
        -11    1    1    2    0    0 -0.91621701873E+00  0.34377451103E+01  0.12878361942E+03  0.12883275273E+03  0.00000000000E+00 0.  1.
         11    1    1    2    0    0 -0.59236538543E+02 -0.51148560920E+02 -0.39910665042E+02  0.87852171099E+02  0.00000000000E+00 0. -1.
        -15    1    3    3    0    0  0.36752897136E+02  0.52717386984E+02 -0.10229615831E+03  0.12082036282E+03  0.17770000000E+01 0. -1.
         15    1    3    3    0    0  0.23399858426E+02 -0.50065711745E+01  0.13423203934E+02  0.27494713349E+02  0.17770000000E+01 0.  1.
</event>
<event>
 7    1  0.1557436E-003  0.1794675E+03  0.7546771E-02  0.1070895E+00
        -11   -1    0    0    0    0  0.00000000000E+00  0.00000000000E+00  0.18250000000E+03  0.18250000000E+03  0.00000000000E+00 0.  1.
         11   -1    0    0    0    0 -0.00000000000E+00 -0.00000000000E+00 -0.18250000000E+03  0.18250000000E+03  0.00000000000E+00 0. -1.
         23    2    1    2    0    0 -0.42941841516E+01 -0.27499230189E+02 -0.14495281440E+03  0.17277769524E+03  0.89811836038E+02 0.  0.
        -11    1    1    2    0    0 -0.41268711689E+01  0.66537523875E+01  0.16312588515E+03  0.16331367944E+03  0.00000000000E+00 0.  1.
         11    1    1    2    0    0  0.84210553205E+01  0.20845477801E+02 -0.18173070745E+02  0.28908625318E+02  0.00000000000E+00 0. -1.
        -15    1    3    3    0    0 -0.20935237410E+01 -0.29959620258E+02 -0.15715696837E+03  0.16001072503E+03  0.17770000000E+01 0. -1.
         15    1    3    3    0    0 -0.22006604105E+01  0.24603900691E+01  0.12204153966E+02  0.12766970219E+02  0.17770000000E+01 0.  1.
</event>
<event>
 7    1  0.1557436E-003  0.1923995E+03  0.7546771E-02  0.1060837E+00
        -11   -1    0    0    0    0  0.00000000000E+00  0.00000000000E+00  0.18250000000E+03  0.18250000000E+03  0.00000000000E+00 0. -1.
         11   -1    0    0    0    0 -0.00000000000E+00 -0.00000000000E+00 -0.18250000000E+03  0.18250000000E+03  0.00000000000E+00 0. -1.
         23    2    1    2    0    0  0.35518472810E+02 -0.50020678711E+02 -0.15639465413E+03  0.19239950761E+03  0.93779808485E+02 0.  0.
        -11    1    1    2    0    0 -0.22226722179E+01 -0.63929402315E+00  0.50714838951E+02  0.50767547296E+02  0.00000000000E+00 0. -1.
         11    1    1    2    0    0 -0.33295800592E+02  0.50659972734E+02  0.10567981518E+03  0.12183294509E+03  0.00000000000E+00 0. -1.
        -15    1    3    3    0    0 -0.53628179344E+01  0.17471360479E+02 -0.13383372519E+01  0.18410788381E+02  0.17770000000E+01 0.  1.
         15    1    3    3    0    0  0.40881290744E+02 -0.67492039190E+02 -0.15505631688E+03  0.17398871923E+03  0.17770000000E+01 0. -1.
</event>
<event>
 7    1  0.1557436E-003  0.1914382E+03  0.7546771E-02  0.1061555E+00
        -11   -1    0    0    0    0  0.00000000000E+00  0.00000000000E+00  0.18250000000E+03  0.18250000000E+03  0.00000000000E+00 0. -1.
         11   -1    0    0    0    0 -0.00000000000E+00 -0.00000000000E+00 -0.18250000000E+03  0.18250000000E+03  0.00000000000E+00 0. -1.
         23    2    1    2    0    0 -0.13690353923E+01 -0.43124502692E+01 -0.16954444383E+03  0.19143819396E+03  0.88785089887E+02 0.  0.
        -11    1    1    2    0    0  0.55667947423E+01  0.11421835454E+02  0.16161761622E+03  0.16211632059E+03  0.00000000000E+00 0. -1.
         11    1    1    2    0    0 -0.41977593500E+01 -0.71093851849E+01  0.79268276109E+01  0.11445485452E+02  0.00000000000E+00 0. -1.
        -15    1    3    3    0    0  0.29621091270E+02  0.12705082481E+02 -0.20480989192E+02  0.38229004906E+02  0.17770000000E+01 0.  1.
         15    1    3    3    0    0 -0.30990126662E+02 -0.17017532750E+02 -0.14906345464E+03  0.15320918905E+03  0.17770000000E+01 0. -1.
</event>
<event>
 7    1  0.1557436E-003  0.1649062E+03  0.7546771E-02  0.1083391E+00
        -11   -1    0    0    0    0  0.00000000000E+00  0.00000000000E+00  0.18250000000E+03  0.18250000000E+03  0.00000000000E+00 0.  1.
         11   -1    0    0    0    0 -0.00000000000E+00 -0.00000000000E+00 -0.18250000000E+03  0.18250000000E+03  0.00000000000E+00 0.  1.
         23    2    1    2    0    0  0.10454983737E+02 -0.30265666668E+02 -0.14064071189E+03  0.16936838179E+03  0.88772302253E+02 0.  0.
        -11    1    1    2    0    0 -0.22563387997E+01 -0.25036185566E+02  0.13734695435E+03  0.13962839082E+03  0.00000000000E+00 0.  1.
         11    1    1    2    0    0 -0.81986449372E+01  0.55301852234E+02  0.32937575374E+01  0.56003227390E+02  0.00000000000E+00 0.  1.
        -15    1    3    3    0    0  0.43786799959E+02 -0.21726269317E+02 -0.40621807421E+02  0.63581472114E+02  0.17770000000E+01 0.  1.
         15    1    3    3    0    0 -0.33331816222E+02 -0.85393973508E+01 -0.10001890447E+03  0.10578690968E+03  0.17770000000E+01 0. -1.
</event>
<event>
 7    1  0.1557436E-003  0.1922361E+03  0.7546771E-02  0.1060959E+00
        -11   -1    0    0    0    0  0.00000000000E+00  0.00000000000E+00  0.18250000000E+03  0.18250000000E+03  0.00000000000E+00 0.  1.
         11   -1    0    0    0    0 -0.00000000000E+00 -0.00000000000E+00 -0.18250000000E+03  0.18250000000E+03  0.00000000000E+00 0.  1.
         23    2    1    2    0    0 -0.29181987183E+01  0.18449402175E+01 -0.17009064540E+03  0.19226731226E+03  0.89576626538E+02 0.  0.
        -11    1    1    2    0    0  0.32702779111E+01 -0.44829449022E+01  0.16997837406E+03  0.17006892474E+03  0.00000000000E+00 0.  1.
         11    1    1    2    0    0 -0.35207919280E+00  0.26380046847E+01  0.11227133830E+00  0.26637630014E+01  0.00000000000E+00 0.  1.
        -15    1    3    3    0    0 -0.22219655663E+02  0.37839205951E+02 -0.56610438458E+02  0.71647875588E+02  0.17770000000E+01 0. -1.
         15    1    3    3    0    0  0.19301456945E+02 -0.35994265734E+02 -0.11348020694E+03  0.12061943667E+03  0.17770000000E+01 0.  1.
</event>
<event>
 7    1  0.1557436E-003  0.1934960E+03  0.7546771E-02  0.1060024E+00
        -11   -1    0    0    0    0  0.00000000000E+00  0.00000000000E+00  0.18250000000E+03  0.18250000000E+03  0.00000000000E+00 0. -1.
         11   -1    0    0    0    0 -0.00000000000E+00 -0.00000000000E+00 -0.18250000000E+03  0.18250000000E+03  0.00000000000E+00 0. -1.
         23    2    1    2    0    0 -0.26881529080E+01 -0.16390138545E+01 -0.16996439676E+03  0.19349604172E+03  0.92427860855E+02 0.  0.
        -11    1    1    2    0    0  0.73053570206E+01  0.98683082849E+01  0.12228108773E+03  0.12289595667E+03  0.00000000000E+00 0. -1.
         11    1    1    2    0    0 -0.46172041126E+01 -0.82292944304E+01  0.47683309030E+02  0.48608001612E+02  0.00000000000E+00 0. -1.
        -15    1    3    3    0    0 -0.30426866010E+01 -0.59910981780E+01  0.10705918740E+02  0.12764232222E+02  0.17770000000E+01 0.  1.
         15    1    3    3    0    0  0.35453369292E+00  0.43520843236E+01 -0.18067031550E+03  0.18073180950E+03  0.17770000000E+01 0. -1.
</event>
<event>
 7    1  0.1557436E-003  0.1514716E+03  0.7546771E-02  0.1096245E+00
        -11   -1    0    0    0    0  0.00000000000E+00  0.00000000000E+00  0.18250000000E+03  0.18250000000E+03  0.00000000000E+00 0. -1.
         11   -1    0    0    0    0 -0.00000000000E+00 -0.00000000000E+00 -0.18250000000E+03  0.18250000000E+03  0.00000000000E+00 0.  1.
         23    2    1    2    0    0 -0.17269852793E+02  0.20490076067E+02 -0.94972670296E+02  0.12615081983E+03  0.78588359232E+02 0.  0.
        -11    1    1    2    0    0 -0.15894542672E+01 -0.19148714752E+01  0.16446607817E+03  0.16448490498E+03  0.00000000000E+00 0. -1.
         11    1    1    2    0    0  0.18859307060E+02 -0.18575204592E+02 -0.69493407870E+02  0.74364275198E+02  0.00000000000E+00 0.  1.
        -15    1    3    3    0    0 -0.40124068212E+02  0.24450151235E+02 -0.26807088461E+02  0.54125118623E+02  0.17770000000E+01 0.  1.
         15    1    3    3    0    0  0.22854215419E+02 -0.39600751673E+01 -0.68165581835E+02  0.72025701202E+02  0.17770000000E+01 0. -1.
</event>
<event>
 7    1  0.1557436E-003  0.1935966E+03  0.7546771E-02  0.1059950E+00
        -11   -1    0    0    0    0  0.00000000000E+00  0.00000000000E+00  0.18250000000E+03  0.18250000000E+03  0.00000000000E+00 0.  1.
         11   -1    0    0    0    0 -0.00000000000E+00 -0.00000000000E+00 -0.18250000000E+03  0.18250000000E+03  0.00000000000E+00 0.  1.
         23    2    1    2    0    0  0.20485357581E+01  0.27584961559E+01 -0.17091686971E+03  0.19359660050E+03  0.90858470012E+02 0.  0.
        -11    1    1    2    0    0 -0.56560968074E+00 -0.29252196581E+01  0.16872766806E+03  0.16875397119E+03  0.00000000000E+00 0.  1.
         11    1    1    2    0    0 -0.14829260773E+01  0.16672350219E+00  0.21892016584E+01  0.26494283115E+01  0.00000000000E+00 0.  1.
        -15    1    3    3    0    0  0.95555796570E+01 -0.21327413505E+02 -0.28188048159E+01  0.23606589313E+02  0.17770000000E+01 0. -1.
         15    1    3    3    0    0 -0.75070438990E+01  0.24085909661E+02 -0.16809806490E+03  0.16999001119E+03  0.17770000000E+01 0.  1.
</event>
<event>
 7    1  0.1557436E-003  0.1817451E+03  0.7546771E-02  0.1069057E+00
        -11   -1    0    0    0    0  0.00000000000E+00  0.00000000000E+00  0.18250000000E+03  0.18250000000E+03  0.00000000000E+00 0. -1.
         11   -1    0    0    0    0 -0.00000000000E+00 -0.00000000000E+00 -0.18250000000E+03  0.18250000000E+03  0.00000000000E+00 0. -1.
         23    2    1    2    0    0 -0.76416842175E+00 -0.23447928356E+02 -0.16099776963E+03  0.18756649084E+03  0.93330152490E+02 0.  0.
        -11    1    1    2    0    0  0.46187891381E+01 -0.58411146191E+00  0.15107919081E+03  0.15115090570E+03  0.00000000000E+00 0. -1.
         11    1    1    2    0    0 -0.38546207164E+01  0.24032039818E+02  0.99185788241E+01  0.26282603459E+02  0.00000000000E+00 0. -1.
        -15    1    3    3    0    0 -0.22692872504E+01 -0.19882848932E+02  0.56455199749E+01  0.20868803777E+02  0.17770000000E+01 0.  1.
         15    1    3    3    0    0  0.15051188287E+01 -0.35650794237E+01 -0.16664328960E+03  0.16669768707E+03  0.17770000000E+01 0. -1.
</event>
<event>
 7    1  0.1557436E-003  0.1661166E+03  0.7546771E-02  0.1082300E+00
        -11   -1    0    0    0    0  0.00000000000E+00  0.00000000000E+00  0.18250000000E+03  0.18250000000E+03  0.00000000000E+00 0. -1.
         11   -1    0    0    0    0 -0.00000000000E+00 -0.00000000000E+00 -0.18250000000E+03  0.18250000000E+03  0.00000000000E+00 0. -1.
         23    2    1    2    0    0  0.98492820465E+02  0.16310904998E+02  0.63729815852E+02  0.15015618287E+03  0.92295766538E+02 0.  0.
        -11    1    1    2    0    0  0.54362342812E+01  0.17927186189E+01  0.55413448235E+02  0.55708318306E+02  0.00000000000E+00 0. -1.
         11    1    1    2    0    0 -0.10392905475E+03 -0.18103623617E+02 -0.11914326409E+03  0.15913549882E+03  0.00000000000E+00 0. -1.
        -15    1    3    3    0    0  0.14062528457E+02  0.28589316406E+02 -0.13887221375E+02  0.34801097191E+02  0.17770000000E+01 0.  1.
         15    1    3    3    0    0  0.84430292008E+02 -0.12278411408E+02  0.77617037227E+02  0.11535508568E+03  0.17770000000E+01 0. -1.
</event>
<event>
 7    1  0.1557436E-003  0.1927855E+03  0.7546771E-02  0.1060550E+00
        -11   -1    0    0    0    0  0.00000000000E+00  0.00000000000E+00  0.18250000000E+03  0.18250000000E+03  0.00000000000E+00 0. -1.
         11   -1    0    0    0    0 -0.00000000000E+00 -0.00000000000E+00 -0.18250000000E+03  0.18250000000E+03  0.00000000000E+00 0. -1.
         23    2    1    2    0    0  0.19069640552E-01 -0.28175313709E+01 -0.17204611566E+03  0.19278545513E+03  0.86939214102E+02 0.  0.
        -11    1    1    2    0    0  0.11219774344E+01 -0.13554324194E+01  0.11157705030E+03  0.11159092339E+03  0.00000000000E+00 0. -1.
         11    1    1    2    0    0 -0.11410470749E+01  0.41729637903E+01  0.60469065364E+02  0.60623621479E+02  0.00000000000E+00 0. -1.
        -15    1    3    3    0    0 -0.22339261798E+02 -0.34647427571E+01 -0.16855956845E+03  0.17007802005E+03  0.17770000000E+01 0. -1.
         15    1    3    3    0    0  0.22358331438E+02  0.64721138623E+00 -0.34865472103E+01  0.22707435076E+02  0.17770000000E+01 0.  1.
</event>
<event>
 7    1  0.1557436E-003  0.1753144E+03  0.7546771E-02  0.1074323E+00
        -11   -1    0    0    0    0  0.00000000000E+00  0.00000000000E+00  0.18250000000E+03  0.18250000000E+03  0.00000000000E+00 0.  1.
         11   -1    0    0    0    0 -0.00000000000E+00 -0.00000000000E+00 -0.18250000000E+03  0.18250000000E+03  0.00000000000E+00 0.  1.
         23    2    1    2    0    0  0.18685519217E+02  0.14193274715E+01 -0.15029222812E+03  0.17773463637E+03  0.93009053385E+02 0.  0.
        -11    1    1    2    0    0  0.93463157670E+01 -0.27778075703E+02  0.14557868846E+03  0.14849959475E+03  0.00000000000E+00 0.  1.
         11    1    1    2    0    0 -0.28031834984E+02  0.26358748231E+02  0.47135396655E+01  0.38765768882E+02  0.00000000000E+00 0.  1.
        -15    1    3    3    0    0 -0.18784035613E+02  0.30779682380E+02 -0.25612878629E+02  0.44265179566E+02  0.17770000000E+01 0.  1.
         15    1    3    3    0    0  0.37469554830E+02 -0.29360354909E+02 -0.12467934949E+03  0.13346945680E+03  0.17770000000E+01 0. -1.
</event>
<event>
 7    1  0.1557436E-003  0.1931770E+03  0.7546771E-02  0.1060260E+00
        -11   -1    0    0    0    0  0.00000000000E+00  0.00000000000E+00  0.18250000000E+03  0.18250000000E+03  0.00000000000E+00 0.  1.
         11   -1    0    0    0    0 -0.00000000000E+00 -0.00000000000E+00 -0.18250000000E+03  0.18250000000E+03  0.00000000000E+00 0.  1.
         23    2    1    2    0    0 -0.50008094522E+02 -0.11356888281E+02 -0.10140207337E+03  0.12679517630E+03  0.56256980174E+02 0.  0.
        -11    1    1    2    0    0  0.39805358466E+02  0.84948641747E+01  0.16693266825E+03  0.17182300489E+03  0.00000000000E+00 0.  1.
         11    1    1    2    0    0  0.10202736055E+02  0.28620241059E+01 -0.65530594874E+02  0.66381818818E+02  0.00000000000E+00 0.  1.
        -15    1    3    3    0    0 -0.68851949942E+00 -0.22093138762E+02 -0.50177427676E+02  0.54859026756E+02  0.17770000000E+01 0. -1.
         15    1    3    3    0    0 -0.49319575022E+02  0.10736250481E+02 -0.51224645697E+02  0.71936149540E+02  0.17770000000E+01 0.  1.
</event>
<event>
 7    1  0.1557436E-003  0.1796990E+03  0.7546771E-02  0.1070707E+00
        -11   -1    0    0    0    0  0.00000000000E+00  0.00000000000E+00  0.18250000000E+03  0.18250000000E+03  0.00000000000E+00 0. -1.
         11   -1    0    0    0    0 -0.00000000000E+00 -0.00000000000E+00 -0.18250000000E+03  0.18250000000E+03  0.00000000000E+00 0.  1.
         23    2    1    2    0    0 -0.26593145279E+02 -0.66722598501E+02  0.11448273418E+03  0.16740111047E+03  0.98781247396E+02 0.  0.
        -11    1    1    2    0    0 -0.51699768160E+00  0.10998104107E+01  0.33469569348E+02  0.33491624951E+02  0.00000000000E+00 0. -1.
         11    1    1    2    0    0  0.27110142961E+02  0.65622788090E+02 -0.14795230352E+03  0.16410726457E+03  0.00000000000E+00 0.  1.
        -15    1    3    3    0    0 -0.17211880176E+02 -0.75814405494E+02  0.32362468512E+02  0.84229211066E+02  0.17770000000E+01 0.  1.
         15    1    3    3    0    0 -0.93812651033E+01  0.90918069938E+01  0.82120265665E+02  0.83171899408E+02  0.17770000000E+01 0. -1.
</event>
<event>
 7    1  0.1557436E-003  0.1506326E+03  0.7546771E-02  0.1097096E+00
        -11   -1    0    0    0    0  0.00000000000E+00  0.00000000000E+00  0.18250000000E+03  0.18250000000E+03  0.00000000000E+00 0. -1.
         11   -1    0    0    0    0 -0.00000000000E+00 -0.00000000000E+00 -0.18250000000E+03  0.18250000000E+03  0.00000000000E+00 0.  1.
         23    2    1    2    0    0 -0.53226439096E+02 -0.55524522436E+02 -0.91102028253E+02  0.15014181448E+03  0.91252169798E+02 0.  0.
        -11    1    1    2    0    0  0.84527289018E+01  0.13588019966E+00  0.13230614449E+03  0.13257595166E+03  0.00000000000E+00 0. -1.
         11    1    1    2    0    0  0.44773710194E+02  0.55388642237E+02 -0.41204116239E+02  0.82282233856E+02  0.00000000000E+00 0.  1.
        -15    1    3    3    0    0 -0.39012164311E+01 -0.65428056897E+00  0.17948295802E+02  0.18464740017E+02  0.17770000000E+01 0. -1.
         15    1    3    3    0    0 -0.49325222664E+02 -0.54870241867E+02 -0.10905032405E+03  0.13167707446E+03  0.17770000000E+01 0.  1.
</event>
<event>
 7    1  0.1557436E-003  0.1375480E+03  0.7546771E-02  0.1111212E+00
        -11   -1    0    0    0    0  0.00000000000E+00  0.00000000000E+00  0.18250000000E+03  0.18250000000E+03  0.00000000000E+00 0. -1.
         11   -1    0    0    0    0 -0.00000000000E+00 -0.00000000000E+00 -0.18250000000E+03  0.18250000000E+03  0.00000000000E+00 0.  1.
         23    2    1    2    0    0  0.12157734447E+02 -0.43295805993E+02 -0.14351458615E+02  0.12237623999E+03  0.11290545792E+03 0.  0.
        -11    1    1    2    0    0 -0.26015783859E+01 -0.49703539700E+00  0.12407219270E+03  0.12410046034E+03  0.00000000000E+00 0. -1.
         11    1    1    2    0    0 -0.95561560612E+01  0.43792841390E+02 -0.10972073409E+03  0.11852329967E+03  0.00000000000E+00 0.  1.
        -15    1    3    3    0    0  0.37364667081E+01 -0.44638111308E+01  0.48018773821E+02  0.48402966454E+02  0.17770000000E+01 0. -1.
         15    1    3    3    0    0  0.84212677390E+01 -0.38831994862E+02 -0.62370232435E+02  0.73973273541E+02  0.17770000000E+01 0.  1.
</event>
<event>
 7    1  0.1557436E-003  0.1738136E+03  0.7546771E-02  0.1075587E+00
        -11   -1    0    0    0    0  0.00000000000E+00  0.00000000000E+00  0.18250000000E+03  0.18250000000E+03  0.00000000000E+00 0. -1.
         11   -1    0    0    0    0 -0.00000000000E+00 -0.00000000000E+00 -0.18250000000E+03  0.18250000000E+03  0.00000000000E+00 0. -1.
         23    2    1    2    0    0  0.17808255640E+02 -0.13883169360E+02 -0.15785817537E+03  0.18359418575E+03  0.90982114460E+02 0.  0.
        -11    1    1    2    0    0  0.14619055944E+02  0.27138037453E+02  0.13744779562E+03  0.14086194090E+03  0.00000000000E+00 0. -1.
         11    1    1    2    0    0 -0.32427311584E+02 -0.13254868093E+02  0.20410379750E+02  0.40543873351E+02  0.00000000000E+00 0. -1.
        -15    1    3    3    0    0  0.19505297466E+02  0.27944734412E+02 -0.20099652884E+02  0.39604527338E+02  0.17770000000E+01 0.  1.
         15    1    3    3    0    0 -0.16970418258E+01 -0.41827903772E+02 -0.13775852248E+03  0.14398965841E+03  0.17770000000E+01 0. -1.
</event>
<event>
 7    1  0.1557436E-003  0.1278011E+03  0.7546771E-02  0.1122904E+00
        -11   -1    0    0    0    0  0.00000000000E+00  0.00000000000E+00  0.18250000000E+03  0.18250000000E+03  0.00000000000E+00 0. -1.
         11   -1    0    0    0    0 -0.00000000000E+00 -0.00000000000E+00 -0.18250000000E+03  0.18250000000E+03  0.00000000000E+00 0. -1.
         23    2    1    2    0    0 -0.24714298584E+02  0.38489414804E+02 -0.11525935285E+02  0.10508159884E+03  0.93899220578E+02 0.  0.
        -11    1    1    2    0    0  0.31978967267E+01 -0.22763272735E+01  0.13212052786E+03  0.13217882618E+03  0.00000000000E+00 0. -1.
         11    1    1    2    0    0  0.21516401857E+02 -0.36213087530E+02 -0.12059459257E+03  0.12773957498E+03  0.00000000000E+00 0. -1.
        -15    1    3    3    0    0 -0.33922503620E+02 -0.79350396074E+01 -0.37374837174E+02  0.51124722867E+02  0.17770000000E+01 0. -1.
         15    1    3    3    0    0  0.92082050366E+01  0.46424454411E+02  0.25848901890E+02  0.53956875978E+02  0.17770000000E+01 0.  1.
</event>
<event>
 7    1  0.1557436E-003  0.1538071E+03  0.7546771E-02  0.1093908E+00
        -11   -1    0    0    0    0  0.00000000000E+00  0.00000000000E+00  0.18250000000E+03  0.18250000000E+03  0.00000000000E+00 0. -1.
         11   -1    0    0    0    0 -0.00000000000E+00 -0.00000000000E+00 -0.18250000000E+03  0.18250000000E+03  0.00000000000E+00 0.  1.
         23    2    1    2    0    0  0.21397024365E+02 -0.29880606943E+01 -0.85439899392E+02  0.12677046972E+03  0.91126365159E+02 0.  0.
        -11    1    1    2    0    0 -0.86256094093E+01 -0.33694758493E+00  0.16114838564E+03  0.16137941896E+03  0.00000000000E+00 0. -1.
         11    1    1    2    0    0 -0.12771414956E+02  0.33250082793E+01 -0.75708486244E+02  0.76850111317E+02  0.00000000000E+00 0.  1.
        -15    1    3    3    0    0  0.66566370300E+01 -0.71377160054E+01  0.18874647581E+02  0.21322942026E+02  0.17770000000E+01 0. -1.
         15    1    3    3    0    0  0.14740387335E+02  0.41496553111E+01 -0.10431454697E+03  0.10544752770E+03  0.17770000000E+01 0.  1.
</event>
<event>
 7    1  0.1557436E-003  0.1328639E+03  0.7546771E-02  0.1116693E+00
        -11   -1    0    0    0    0  0.00000000000E+00  0.00000000000E+00  0.18250000000E+03  0.18250000000E+03  0.00000000000E+00 0.  1.
         11   -1    0    0    0    0 -0.00000000000E+00 -0.00000000000E+00 -0.18250000000E+03  0.18250000000E+03  0.00000000000E+00 0.  1.
         23    2    1    2    0    0  0.72303970864E+02  0.32306088348E+02 -0.60015457314E+02  0.12988409248E+03  0.83644932996E+02 0.  0.
        -11    1    1    2    0    0  0.20411600465E+01 -0.89130862334E+00  0.12895302256E+03  0.12897225591E+03  0.00000000000E+00 0.  1.
         11    1    1    2    0    0 -0.74345130910E+02 -0.31414779725E+02 -0.68937565249E+02  0.10614365161E+03  0.00000000000E+00 0.  1.
        -15    1    3    3    0    0  0.89963897975E+01  0.27586345772E+02  0.14075998828E+02  0.32299117240E+02  0.17770000000E+01 0.  1.
         15    1    3    3    0    0  0.63307581067E+02  0.47197425757E+01 -0.74091456143E+02  0.97584975241E+02  0.17770000000E+01 0. -1.
</event>
<event>
 7    1  0.1557436E-003  0.1895906E+03  0.7546771E-02  0.1062947E+00
        -11   -1    0    0    0    0  0.00000000000E+00  0.00000000000E+00  0.18250000000E+03  0.18250000000E+03  0.00000000000E+00 0. -1.
         11   -1    0    0    0    0 -0.00000000000E+00 -0.00000000000E+00 -0.18250000000E+03  0.18250000000E+03  0.00000000000E+00 0.  1.
         23    2    1    2    0    0  0.35406246433E+01  0.61061654386E+00 -0.16668578045E+03  0.18991194443E+03  0.90936727233E+02 0.  0.
        -11    1    1    2    0    0  0.28672501250E+01  0.55870386509E+01  0.16603059746E+03  0.16614931664E+03  0.00000000000E+00 0. -1.
         11    1    1    2    0    0 -0.64078747683E+01 -0.61976551947E+01  0.65518298263E+00  0.89387389323E+01  0.00000000000E+00 0.  1.
        -15    1    3    3    0    0  0.12379982507E+02  0.39566022598E+02 -0.12687140208E+03  0.13348499731E+03  0.17770000000E+01 0. -1.
         15    1    3    3    0    0 -0.88393578640E+01 -0.38955406054E+02 -0.39814378364E+02  0.56426947125E+02  0.17770000000E+01 0.  1.
</event>
<event>
 7    1  0.1557436E-003  0.1936017E+03  0.7546771E-02  0.1059946E+00
        -11   -1    0    0    0    0  0.00000000000E+00  0.00000000000E+00  0.18250000000E+03  0.18250000000E+03  0.00000000000E+00 0.  1.
         11   -1    0    0    0    0 -0.00000000000E+00 -0.00000000000E+00 -0.18250000000E+03  0.18250000000E+03  0.00000000000E+00 0. -1.
         23    2    1    2    0    0 -0.16711441253E+01  0.26100844878E+02 -0.16865193826E+03  0.19360172947E+03  0.91400801692E+02 0.  0.
        -11    1    1    2    0    0 -0.20421747694E+01 -0.17454786715E+01  0.56875511098E+02  0.56938922858E+02  0.00000000000E+00 0.  1.
         11    1    1    2    0    0  0.37133188947E+01 -0.24355366207E+02  0.11177642716E+03  0.11445934767E+03  0.00000000000E+00 0. -1.
        -15    1    3    3    0    0  0.31020394269E+02 -0.56949491976E+01 -0.18368207121E+02  0.36541018990E+02  0.17770000000E+01 0.  1.
         15    1    3    3    0    0 -0.32691538394E+02  0.31795794076E+02 -0.15028373114E+03  0.15706071048E+03  0.17770000000E+01 0. -1.
</event>
<event>
 7    1  0.1557436E-003  0.1993189E+03  0.7546771E-02  0.1055803E+00
        -11   -1    0    0    0    0  0.00000000000E+00  0.00000000000E+00  0.18250000000E+03  0.18250000000E+03  0.00000000000E+00 0. -1.
         11   -1    0    0    0    0 -0.00000000000E+00 -0.00000000000E+00 -0.18250000000E+03  0.18250000000E+03  0.00000000000E+00 0. -1.
         23    2    1    2    0    0 -0.58437363201E+01  0.26565076514E+01 -0.16250336205E+03  0.19931892819E+03  0.11523665289E+03 0.  0.
        -11    1    1    2    0    0  0.10417384616E+02 -0.13077955928E+02  0.13319926444E+03  0.13424454879E+03  0.00000000000E+00 0. -1.
         11    1    1    2    0    0 -0.45736482955E+01  0.10421448276E+02  0.29304097609E+02  0.31436523020E+02  0.00000000000E+00 0. -1.
        -15    1    3    3    0    0  0.54726098326E+01 -0.27120130726E+02  0.55416099517E+01  0.28272214608E+02  0.17770000000E+01 0.  1.
         15    1    3    3    0    0 -0.11316346153E+02  0.29776638377E+02 -0.16804497200E+03  0.17104671358E+03  0.17770000000E+01 0. -1.
</event>
<event>
 7    1  0.1557436E-003  0.1834115E+03  0.7546771E-02  0.1067732E+00
        -11   -1    0    0    0    0  0.00000000000E+00  0.00000000000E+00  0.18250000000E+03  0.18250000000E+03  0.00000000000E+00 0. -1.
         11   -1    0    0    0    0 -0.00000000000E+00 -0.00000000000E+00 -0.18250000000E+03  0.18250000000E+03  0.00000000000E+00 0.  1.
         23    2    1    2    0    0  0.75971840685E+01 -0.94589546198E+01 -0.16319521401E+03  0.18658845777E+03  0.89640312734E+02 0.  0.
        -11    1    1    2    0    0 -0.26788439323E+02  0.10103113752E+02  0.15484992738E+03  0.15747442141E+03  0.00000000000E+00 0. -1.
         11    1    1    2    0    0  0.19191255254E+02 -0.64415913197E+00  0.83452866322E+01  0.20937120819E+02  0.00000000000E+00 0.  1.
        -15    1    3    3    0    0 -0.23948467763E+02 -0.75895945786E+00 -0.14891491328E+03  0.15084069164E+03  0.17770000000E+01 0.  1.
         15    1    3    3    0    0  0.31545651831E+02 -0.86999951620E+01 -0.14280300735E+02  0.35747766131E+02  0.17770000000E+01 0. -1.
</event>
