<LesHouchesEvents version="3.0">
<header>
<!--
#*********************************************************************
#                                                                    *
#                        MadGraph5_aMC@NLO                           *
#                                                                    *
#                           Going Beyond                             *
#                                                                    *
#                   http://madgraph.hep.uiuc.edu                     *
#                   http://madgraph.phys.ucl.ac.be                   *
#                   http://amcatnlo.cern.ch                          *
#                                                                    *
#                     The MadGraph5_aMC@NLO team                     *
#                                                                    *
#....................................................................*
#                                                                    *
# This file contains all the information necessary to reproduce      *
# the events generated:                                              *
#                                                                    *
# 1. software version                                                *
# 2. proc_card          : code generation info including model       *
# 3. param_card         : model primary parameters in the LH format  *
# 4. run_card           : running parameters (collider and cuts)     *
# 5. pythia_card        : present only if pythia has been run        *
# 6. pgs_card           : present only if pgs has been run           *
# 7. delphes_cards      : present only if delphes has been run       *
#                                                                    *
#                                                                    *
#*********************************************************************
-->
<MGVersion>
2.6.6
</MGVersion>
<MG5ProcCard>
<![CDATA[
#************************************************************
#*                     MadGraph5_aMC@NLO                    *
#*                                                          *
#*                *                       *                 *
#*                  *        * *        *                   *
#*                    * * * * 5 * * * *                     *
#*                  *        * *        *                   *
#*                *                       *                 *
#*                                                          *
#*                                                          *
#*         VERSION 2.6.6                 2018-06-28         *
#*                                                          *
#*    The MadGraph5_aMC@NLO Development Team - Find us at   *
#*    https://server06.fynu.ucl.ac.be/projects/madgraph     *
#*                                                          *
#************************************************************
#*                                                          *
#*               Command File for MadGraph5_aMC@NLO         *
#*                                                          *
#*     run as ./bin/mg5_aMC  filename                       *
#*                                                          *
#************************************************************
set default_unset_couplings 99
set group_subprocesses Auto
set ignore_six_quark_processes False
set loop_color_flows False
set gauge unitary
set complex_mass_scheme False
set max_npoint_for_channel 0
import model sm
define p = g u c d s u~ c~ d~ s~
define j = g u c d s u~ c~ d~ s~
define l+ = e+ mu+
define l- = e- mu-
define vl = ve vm vt
define vl~ = ve~ vm~ vt~
generate e+ e- > e+ e- ta+ ta-
output ee_tautauee
]]>
</MG5ProcCard>
<MGProcCard>
#*********************************************************************
#                        MadGraph/MadEvent                           *
#                   http://madgraph.hep.uiuc.edu                     *
#                                                                    *
#                          proc_card.dat                             *
#*********************************************************************
#                                                                    *
#            This Files is generated by MADGRAPH 5                   *
#                                                                    *
# WARNING: This Files is generated for MADEVENT (compatibility issue)*
#          This files is NOT a valid MG4 proc_card.dat               *
#          Running this in MG4 will NEVER reproduce the result of MG5*
#                                                                    *
#*********************************************************************
#*********************************************************************
# Process(es) requested : mg2 input                                  *
#*********************************************************************
# Begin PROCESS # This is TAG. Do not modify this line
e+ e- > e+ e- ta+ ta-           #Process
# Be carefull the coupling are here in MG5 convention
          
end_coup           # End the couplings input

done               # this tells MG there are no more procs
# End PROCESS  # This is TAG. Do not modify this line
#*********************************************************************
# Model information                                                  *
#*********************************************************************
# Begin MODEL  # This is TAG. Do not modify this line
sm
# End   MODEL  # This is TAG. Do not modify this line
#*********************************************************************
# Start multiparticle definitions                                    *
#*********************************************************************
# Begin MULTIPARTICLES # This is TAG. Do not modify this line

# End  MULTIPARTICLES # This is TAG. Do not modify this line
</MGProcCard>
<MGRunCard>
<![CDATA[
#*********************************************************************
#                       MadGraph5_aMC@NLO                            *
#                                                                    *
#                     run_card.dat MadEvent                          *
#                                                                    *
#  This file is used to set the parameters of the run.               *
#                                                                    *
#  Some notation/conventions:                                        *
#                                                                    *
#   Lines starting with a '# ' are info or comments                  *
#                                                                    *
#   mind the format:   value    = variable     ! comment             *
#                                                                    *
#   To display more options, you can type the command:               *
#      update full_run_card                                          *
#*********************************************************************
#
#*******************                                                 
# Running parameters
#*******************                                                 
#                                                                    
#*********************************************************************
# Tag name for the run (one word)                                    *
#*********************************************************************
  tag_1     = run_tag ! name of the run 
#*********************************************************************
# Number of events and rnd seed                                      *
# Warning: Do not generate more than 1M events in a single run       *
#*********************************************************************
  10000 = nevents ! Number of unweighted events requested 
 75 = iseed   ! rnd seed (0=assigned automatically=default))
#*********************************************************************
# Collider type and energy                                           *
# lpp: 0=No PDF, 1=proton, -1=antiproton, 2=photon from proton,      *
#                                         3=photon from electron     *
#*********************************************************************
     0        = lpp1    ! beam 1 type 
     0        = lpp2    ! beam 2 type
     500.0     = ebeam1  ! beam 1 total energy in GeV
     500.0     = ebeam2  ! beam 2 total energy in GeV
#*********************************************************************
# Beam polarization from -100 (left-handed) to 100 (right-handed)    *
#*********************************************************************
     0.0     = polbeam1 ! beam polarization for beam 1
     0.0     = polbeam2 ! beam polarization for beam 2

#*********************************************************************
# PDF CHOICE: this automatically fixes also alpha_s and its evol.    *
#*********************************************************************
     nn23lo1    = pdlabel     ! PDF set                                     
     230000    = lhaid     ! if pdlabel=lhapdf, this is the lhapdf number
# To see heavy ion options: type "update ion_pdf"
#*********************************************************************
# Renormalization and factorization scales                           *
#*********************************************************************
 False = fixed_ren_scale  ! if .true. use fixed ren scale
 False        = fixed_fac_scale  ! if .true. use fixed fac scale
 91.188  = scale            ! fixed ren scale
 91.188  = dsqrt_q2fact1    ! fixed fact scale for pdf1
 91.188  = dsqrt_q2fact2    ! fixed fact scale for pdf2
 -1 = dynamical_scale_choice ! Choose one of the preselected dynamical choices
 1.0  = scalefact        ! scale factor for event-by-event scales
#*********************************************************************
# Type and output format
#*********************************************************************
  False     = gridpack  !True = setting up the grid pack
  -1.0 = time_of_flight ! threshold (in mm) below which the invariant livetime is not written (-1 means not written)
  3.0 = lhe_version       ! Change the way clustering information pass to shower.        
  True = clusinfo         ! include clustering tag in output
  average =  event_norm       ! average/sum. Normalization of the weight in the LHEF

#*********************************************************************
# Matching parameter (MLM only)
#*********************************************************************
 0 = ickkw            ! 0 no matching, 1 MLM
 1.0 = alpsfact         ! scale factor for QCD emission vx
 False = chcluster        ! cluster only according to channel diag
 5 = asrwgtflavor     ! highest quark flavor for a_s reweight
 False  = auto_ptj_mjj  ! Automatic setting of ptj and mjj if xqcut >0
                                   ! (turn off for VBF and single top processes) 
 0.0   = xqcut   ! minimum kt jet measure between partons
#*********************************************************************
#
#*********************************************************************
# handling of the helicities:
#  0: sum over all helicities
#  1: importance sampling over helicities
#*********************************************************************
   0  = nhel          ! using helicities importance sampling or not.
#*********************************************************************
# Generation bias, check the wiki page below for more information:   *
#  'cp3.irmp.ucl.ac.be/projects/madgraph/wiki/LOEventGenerationBias' *
#*********************************************************************
 None = bias_module  ! Bias type of bias, [None, ptj_bias, -custom_folder-]
 {} = bias_parameters ! Specifies the parameters of the module.
#
#*******************************                                                 
# Parton level cuts definition *
#*******************************                                     
#                                                                    
#
#*********************************************************************
# BW cutoff (M+/-bwcutoff*Gamma) ! Define on/off-shell for "$" and decay  
#*********************************************************************
  15.0  = bwcutoff      ! (M+/-bwcutoff*Gamma)
#*********************************************************************
# Apply pt/E/eta/dr/mij/kt_durham cuts on decay products or not
# (note that etmiss/ptll/ptheavy/ht/sorted cuts always apply)
#*********************************************************************
   False  = cut_decays    ! Cut decay products 
#*********************************************************************
# Standard Cuts                                                      *
#*********************************************************************
# Minimum and maximum pt's (for max, -1 means no cut)                *
#*********************************************************************
 20.0  = ptj       ! minimum pt for the jets 
 0.0  = ptb       ! minimum pt for the b 
 10.0  = pta       ! minimum pt for the photons 
 0.5  = ptl       ! minimum pt for the charged leptons 
 0.0  = misset    ! minimum missing Et (sum of neutrino's momenta)
 -1.0  = ptjmax    ! maximum pt for the jets
 -1.0  = ptbmax    ! maximum pt for the b
 -1.0  = ptamax    ! maximum pt for the photons
 -1.0  = ptlmax    ! maximum pt for the charged leptons
 -1.0  = missetmax ! maximum missing Et (sum of neutrino's momenta)
 {} = pt_min_pdg ! pt cut for other particles (use pdg code). Applied on particle and anti-particle
 {}	= pt_max_pdg ! pt cut for other particles (syntax e.g. {6: 100, 25: 50}) 
#*********************************************************************
# Minimum and maximum E's (in the center of mass frame)              *
#*********************************************************************
  0.0  = ej     ! minimum E for the jets
  0.0  = eb     ! minimum E for the b
  0.0  = ea     ! minimum E for the photons
  0.0  = el     ! minimum E for the charged leptons
  -1.0   = ejmax ! maximum E for the jets
 -1.0   = ebmax ! maximum E for the b
 -1.0   = eamax ! maximum E for the photons
 -1.0   = elmax ! maximum E for the charged leptons
 {} = e_min_pdg ! E cut for other particles (use pdg code). Applied on particle and anti-particle
 {} = e_max_pdg ! E cut for other particles (syntax e.g. {6: 100, 25: 50})

#*********************************************************************
# Maximum and minimum absolute rapidity (for max, -1 means no cut)   *
#*********************************************************************
  5.0 = etaj    ! max rap for the jets 
  -1.0  = etab    ! max rap for the b
 2.5  = etaa    ! max rap for the photons 
 5.0  = etal    ! max rap for the charged leptons 
 0.0  = etajmin ! min rap for the jets
 0.0  = etabmin ! min rap for the b
 0.0  = etaamin ! min rap for the photons
 0.0  = etalmin ! main rap for the charged leptons
 {} = eta_min_pdg ! rap cut for other particles (use pdg code). Applied on particle and anti-particle
 {} = eta_max_pdg ! rap cut for other particles (syntax e.g. {6: 2.5, 23: 5})
#*********************************************************************
# Minimum and maximum DeltaR distance                                *
#*********************************************************************
 0.4 = drjj    ! min distance between jets 
 0.0   = drbb    ! min distance between b's 
 0.4 = drll    ! min distance between leptons 
 0.4 = draa    ! min distance between gammas 
 0.0   = drbj    ! min distance between b and jet 
 0.4 = draj    ! min distance between gamma and jet 
 0.4 = drjl    ! min distance between jet and lepton 
 0.0   = drab    ! min distance between gamma and b 
 0.0   = drbl    ! min distance between b and lepton 
 0.4 = dral    ! min distance between gamma and lepton 
 -1.0  = drjjmax ! max distance between jets
 -1.0  = drbbmax ! max distance between b's
 -1.0  = drllmax ! max distance between leptons
 -1.0  = draamax ! max distance between gammas
 -1.0  = drbjmax ! max distance between b and jet
 -1.0  = drajmax ! max distance between gamma and jet
 -1.0  = drjlmax ! max distance between jet and lepton
 -1.0  = drabmax ! max distance between gamma and b
 -1.0  = drblmax ! max distance between b and lepton
 -1.0  = dralmax ! maxdistance between gamma and lepton
#*********************************************************************
# Minimum and maximum invariant mass for pairs                       *
# WARNING: for four lepton final state mmll cut require to have      *
#          different lepton masses for each flavor!                  *           
#*********************************************************************
 0.0   = mmjj    ! min invariant mass of a jet pair 
 0.0   = mmbb    ! min invariant mass of a b pair 
 0.0   = mmaa    ! min invariant mass of gamma gamma pair
 0.0   = mmll    ! min invariant mass of l+l- (same flavour) lepton pair
 -1.0  = mmjjmax ! max invariant mass of a jet pair
 -1.0  = mmbbmax ! max invariant mass of a b pair
 -1.0  = mmaamax ! max invariant mass of gamma gamma pair
 -1.0  = mmllmax ! max invariant mass of l+l- (same flavour) lepton pair
 {} = mxx_min_pdg ! min invariant mass of a pair of particles X/X~ (e.g. {6:250})
 {'default': False} = mxx_only_part_antipart ! if True the invariant mass is applied only 
                       ! to pairs of particle/antiparticle and not to pairs of the same pdg codes.  
#*********************************************************************
# Minimum and maximum invariant mass for all letpons                 *
#*********************************************************************
 0.0   = mmnl    ! min invariant mass for all letpons (l+- and vl) 
 -1.0  = mmnlmax ! max invariant mass for all letpons (l+- and vl) 
#*********************************************************************
# Minimum and maximum pt for 4-momenta sum of leptons                *
#*********************************************************************
 0.0   = ptllmin  ! Minimum pt for 4-momenta sum of leptons(l and vl)
 -1.0  = ptllmax  ! Maximum pt for 4-momenta sum of leptons(l and vl)
#*********************************************************************
# Inclusive cuts                                                     *
#*********************************************************************
 0.0  = ptheavy   ! minimum pt for at least one heavy final state
 0.0  = xptj ! minimum pt for at least one jet  
 0.0  = xptb ! minimum pt for at least one b 
 0.0  = xpta ! minimum pt for at least one photon 
 0.0  = xptl ! minimum pt for at least one charged lepton 
#*********************************************************************
# Control the pt's of the jets sorted by pt                          *
#*********************************************************************
 0.0   = ptj1min ! minimum pt for the leading jet in pt
 0.0   = ptj2min ! minimum pt for the second jet in pt
 0.0   = ptj3min ! minimum pt for the third jet in pt
 0.0   = ptj4min ! minimum pt for the fourth jet in pt
 -1.0  = ptj1max ! maximum pt for the leading jet in pt 
 -1.0  = ptj2max ! maximum pt for the second jet in pt
 -1.0  = ptj3max ! maximum pt for the third jet in pt
 -1.0  = ptj4max ! maximum pt for the fourth jet in pt
 0   = cutuse  ! reject event if fails any (0) / all (1) jet pt cuts
#*********************************************************************
# Control the pt's of leptons sorted by pt                           *
#*********************************************************************
 0.0   = ptl1min ! minimum pt for the leading lepton in pt
 0.0   = ptl2min ! minimum pt for the second lepton in pt
 0.0   = ptl3min ! minimum pt for the third lepton in pt
 0.0   = ptl4min ! minimum pt for the fourth lepton in pt
 -1.0  = ptl1max ! maximum pt for the leading lepton in pt 
 -1.0  = ptl2max ! maximum pt for the second lepton in pt
 -1.0  = ptl3max ! maximum pt for the third lepton in pt
 -1.0  = ptl4max ! maximum pt for the fourth lepton in pt
#*********************************************************************
# Control the Ht(k)=Sum of k leading jets                            *
#*********************************************************************
 0.0   = htjmin ! minimum jet HT=Sum(jet pt)
 -1.0  = htjmax ! maximum jet HT=Sum(jet pt)
 0.0   = ihtmin  !inclusive Ht for all partons (including b)
 -1.0  = ihtmax  !inclusive Ht for all partons (including b)
 0.0   = ht2min ! minimum Ht for the two leading jets
 0.0   = ht3min ! minimum Ht for the three leading jets
 0.0   = ht4min ! minimum Ht for the four leading jets
 -1.0  = ht2max ! maximum Ht for the two leading jets
 -1.0  = ht3max ! maximum Ht for the three leading jets
 -1.0  = ht4max ! maximum Ht for the four leading jets
#***********************************************************************
# Photon-isolation cuts, according to hep-ph/9801442                   *
# When ptgmin=0, all the other parameters are ignored                  *
# When ptgmin>0, pta and draj are not going to be used                 *
#***********************************************************************
 0.0 = ptgmin ! Min photon transverse momentum
 0.4 = R0gamma ! Radius of isolation code
 1.0 = xn ! n parameter of eq.(3.4) in hep-ph/9801442
 1.0 = epsgamma ! epsilon_gamma parameter of eq.(3.4) in hep-ph/9801442
 True = isoEM ! isolate photons from EM energy (photons and leptons)
#*********************************************************************
# WBF cuts                                                           *
#*********************************************************************
 0.0   = xetamin ! minimum rapidity for two jets in the WBF case  
 0.0   = deltaeta ! minimum rapidity for two jets in the WBF case 
#***********************************************************************
# Turn on either the ktdurham or ptlund cut to activate                *
# CKKW(L) merging with Pythia8 [arXiv:1410.3012, arXiv:1109.4829]      *
#***********************************************************************
 -1.0  =  ktdurham        
 0.4   =  dparameter
 -1.0  =  ptlund
 1, 2, 3, 4, 5, 6, 21  =  pdgs_for_merging_cut ! PDGs for two cuts above   
#*********************************************************************
# maximal pdg code for quark to be considered as a light jet         *
# (otherwise b cuts are applied)                                     *
#*********************************************************************
 4 = maxjetflavor    ! Maximum jet pdg code
#*********************************************************************
#
#*********************************************************************
# Store info for systematics studies                                 *
# WARNING: Do not use for interference type of computation           *
#*********************************************************************
   False  = use_syst      ! Enable systematics studies
#
systematics = systematics_program ! none, systematics [python], SysCalc [depreceted, C++]
['--mur=0.5,1,2', '--muf=0.5,1,2', '--pdf=errorset'] = systematics_arguments ! see: https://cp3.irmp.ucl.ac.be/projects/madgraph/wiki/Systematics#Systematicspythonmodule
# Syscalc is deprecated but to see the associate options type'update syscalc'
]]>
</MGRunCard>
<slha>
######################################################################
## PARAM_CARD AUTOMATICALY GENERATED BY MG5 FOLLOWING UFO MODEL   ####
######################################################################
##                                                                  ##
##  Width set on Auto will be computed following the information    ##
##        present in the decay.py files of the model.               ##
##        See  arXiv:1402.1178 for more details.                    ##
##                                                                  ##
######################################################################

###################################
## INFORMATION FOR MASS
###################################
Block mass 
    5 4.700000e+00 # MB 
    6 1.730000e+02 # MT 
   15 1.777000e+00 # MTA 
   23 9.118800e+01 # MZ 
   25 1.250000e+02 # MH 
## Dependent parameters, given by model restrictions.
## Those values should be edited following the 
## analytical expression. MG5 ignores those values 
## but they are important for interfacing the output of MG5
## to external program such as Pythia.
  1 0.000000e+00 # d : 0.0 
  2 0.000000e+00 # u : 0.0 
  3 0.000000e+00 # s : 0.0 
  4 0.000000e+00 # c : 0.0 
  11 0.000000e+00 # e- : 0.0 
  12 0.000000e+00 # ve : 0.0 
  13 0.000000e+00 # mu- : 0.0 
  14 0.000000e+00 # vm : 0.0 
  16 0.000000e+00 # vt : 0.0 
  21 0.000000e+00 # g : 0.0 
  22 0.000000e+00 # a : 0.0 
  24 8.041900e+01 # w+ : cmath.sqrt(MZ__exp__2/2. + cmath.sqrt(MZ__exp__4/4. - (aEW*cmath.pi*MZ__exp__2)/(Gf*sqrt__2))) 

###################################
## INFORMATION FOR SMINPUTS
###################################
Block sminputs 
    1 1.325070e+02 # aEWM1 
    2 1.166390e-05 # Gf 
    3 1.180000e-01 # aS 

###################################
## INFORMATION FOR YUKAWA
###################################
Block yukawa 
    5 4.700000e+00 # ymb 
    6 1.730000e+02 # ymt 
   15 1.777000e+00 # ymtau 

###################################
## INFORMATION FOR DECAY
###################################
DECAY   6 1.491500e+00 # WT 
DECAY  23 2.441404e+00 # WZ 
DECAY  24 2.047600e+00 # WW 
DECAY  25 6.382339e-03 # WH 
## Dependent parameters, given by model restrictions.
## Those values should be edited following the 
## analytical expression. MG5 ignores those values 
## but they are important for interfacing the output of MG5
## to external program such as Pythia.
DECAY  1 0.000000e+00 # d : 0.0 
DECAY  2 0.000000e+00 # u : 0.0 
DECAY  3 0.000000e+00 # s : 0.0 
DECAY  4 0.000000e+00 # c : 0.0 
DECAY  5 0.000000e+00 # b : 0.0 
DECAY  11 0.000000e+00 # e- : 0.0 
DECAY  12 0.000000e+00 # ve : 0.0 
DECAY  13 0.000000e+00 # mu- : 0.0 
DECAY  14 0.000000e+00 # vm : 0.0 
DECAY  15 0.000000e+00 # ta- : 0.0 
DECAY  16 0.000000e+00 # vt : 0.0 
DECAY  21 0.000000e+00 # g : 0.0 
DECAY  22 0.000000e+00 # a : 0.0
</slha>
<MGGenerationInfo>
#  Number of Events        :  10000
#  Integrated weight (pb)  :  7.08916E-01
</MGGenerationInfo>
</header>
<init>
  -11 11 5.000000e+02 5.000000e+02 0 0 247000 247000 -4 1 
  7.08987E-01 4.94939E-03 7.089164e-01 1 
<generator name='MadGraph5_aMC@NLO' version='2.6.6'>please cite 1405.0301 </generator>
</init>
<event>
 7 1 7.08916e-05 5.15977600e+02 7.54677100e-03 9.36475200e-02
      -11 -1    0    0    0    0 +0.0000000000e+00 +0.0000000000e+00 +5.0000000000e+02 5.0000000000e+02 0.0000000000e+00 0.0000e+00 -1.0000e+00
       11 -1    0    0    0    0 -0.0000000000e+00 -0.0000000000e+00 -5.0000000000e+02 5.0000000000e+02 0.0000000000e+00 0.0000e+00 -1.0000e+00
       23  2    1    2    0    0 +5.5389319874e+01 +1.4701413648e+00 -2.3017899111e+02 2.5427530252e+02 9.2754641136e+01 0.0000e+00 0.0000e+00
      -11  1    1    2    0    0 -1.6157921539e+01 +7.1375026087e+01 +4.7845818544e+02 4.8402242509e+02 0.0000000000e+00 0.0000e+00 -1.0000e+00
       11  1    1    2    0    0 -3.9231398335e+01 -7.2845167452e+01 -2.4827919433e+02 2.6170227239e+02 0.0000000000e+00 0.0000e+00 -1.0000e+00
      -15  1    3    3    0    0 +2.1187881935e+01 +4.1539910926e+01 -5.9349893190e+01 7.5498729071e+01 1.7770000000e+00 0.0000e+00 1.0000e+00
       15  1    3    3    0    0 +3.4201437939e+01 -4.0069769561e+01 -1.7082909792e+02 1.7877657345e+02 1.7770000000e+00 0.0000e+00 -1.0000e+00
</event>
<event>
 6 1 7.08916e-05 5.01064100e+02 7.54677100e-03 9.39743200e-02
      -11 -1    0    0    0    0 +0.0000000000e+00 +0.0000000000e+00 +5.0000000000e+02 5.0000000000e+02 0.0000000000e+00 0.0000e+00 1.0000e+00
       11 -1    0    0    0    0 -0.0000000000e+00 -0.0000000000e+00 -5.0000000000e+02 5.0000000000e+02 0.0000000000e+00 0.0000e+00 1.0000e+00
      -11  1    1    2    0    0 +8.0136530616e+00 +8.3018215187e-01 +2.3575752174e+02 2.3589513962e+02 0.0000000000e+00 0.0000e+00 1.0000e+00
       11  1    1    2    0    0 +1.4149959708e+01 +1.7302362881e+01 -4.9843498303e+02 4.9893589310e+02 0.0000000000e+00 0.0000e+00 1.0000e+00
      -15  1    1    2    0    0 -3.8123001453e+00 -1.4938530106e-01 +1.2693738736e+02 1.2700714148e+02 1.7770000000e+00 0.0000e+00 -1.0000e+00
       15  1    1    2    0    0 -1.8351312625e+01 -1.7983159732e+01 +1.3574007393e+02 1.3816182580e+02 1.7770000000e+00 0.0000e+00 1.0000e+00
</event>
<event>
 6 1 7.08916e-05 5.08194200e+02 7.54677100e-03 9.38165900e-02
      -11 -1    0    0    0    0 +0.0000000000e+00 +0.0000000000e+00 +5.0000000000e+02 5.0000000000e+02 0.0000000000e+00 0.0000e+00 -1.0000e+00
       11 -1    0    0    0    0 -0.0000000000e+00 -0.0000000000e+00 -5.0000000000e+02 5.0000000000e+02 0.0000000000e+00 0.0000e+00 1.0000e+00
      -11  1    1    2    0    0 +8.7204198280e+00 -6.2842558798e+00 +4.5947960393e+02 4.5960531330e+02 0.0000000000e+00 0.0000e+00 -1.0000e+00
       11  1    1    2    0    0 -1.7042861797e+00 -1.3577122192e+01 -4.9161540375e+02 4.9180580318e+02 0.0000000000e+00 0.0000e+00 1.0000e+00
      -15  1    1    2    0    0 -1.0477285561e+01 +9.6699549335e+00 +3.4547933959e+01 3.7416560651e+01 1.7770000000e+00 0.0000e+00 -1.0000e+00
       15  1    1    2    0    0 +3.4611519125e+00 +1.0191423138e+01 -2.4121341386e+00 1.1172322867e+01 1.7770000000e+00 0.0000e+00 1.0000e+00
</event>
<event>
 6 1 7.08916e-05 5.03106500e+02 7.54677100e-03 9.39288500e-02
      -11 -1    0    0    0    0 +0.0000000000e+00 +0.0000000000e+00 +5.0000000000e+02 5.0000000000e+02 0.0000000000e+00 0.0000e+00 1.0000e+00
       11 -1    0    0    0    0 -0.0000000000e+00 -0.0000000000e+00 -5.0000000000e+02 5.0000000000e+02 0.0000000000e+00 0.0000e+00 -1.0000e+00
      -11  1    1    2    0    0 -2.1309288186e+01 -1.6825647876e+01 +8.9555626292e+01 9.3580972372e+01 0.0000000000e+00 0.0000e+00 1.0000e+00
       11  1    1    2    0    0 -2.1948026113e+00 -1.3889221278e+01 -4.9669448176e+02 4.9689348541e+02 0.0000000000e+00 0.0000e+00 -1.0000e+00
      -15  1    1    2    0    0 +2.0904731088e+01 +2.7840613475e+01 +3.9698905546e+02 3.9851671913e+02 1.7770000000e+00 0.0000e+00 1.0000e+00
       15  1    1    2    0    0 +2.5993597097e+00 +2.8742556789e+00 +1.0149800013e+01 1.1008823094e+01 1.7770000000e+00 0.0000e+00 -1.0000e+00
</event>
<event>
 6 1 7.08916e-05 5.01325900e+02 7.54677100e-03 9.39684800e-02
      -11 -1    0    0    0    0 +0.0000000000e+00 +0.0000000000e+00 +5.0000000000e+02 5.0000000000e+02 0.0000000000e+00 0.0000e+00 -1.0000e+00
       11 -1    0    0    0    0 -0.0000000000e+00 -0.0000000000e+00 -5.0000000000e+02 5.0000000000e+02 0.0000000000e+00 0.0000e+00 -1.0000e+00
      -11  1    1    2    0    0 +7.3348362568e+00 -8.7064037024e+00 +4.9854412855e+02 4.9867409137e+02 0.0000000000e+00 0.0000e+00 -1.0000e+00
       11  1    1    2    0    0 +3.1896449588e+00 +5.4048587339e+00 -4.4288317378e+02 4.4292763738e+02 0.0000000000e+00 0.0000e+00 -1.0000e+00
      -15  1    1    2    0    0 -7.1691280507e+00 -3.2007140887e+00 -4.2323016441e+01 4.3081741113e+01 1.7770000000e+00 0.0000e+00 -1.0000e+00
       15  1    1    2    0    0 -3.3553531649e+00 +6.5022590572e+00 -1.3337938328e+01 1.5316530140e+01 1.7770000000e+00 0.0000e+00 1.0000e+00
</event>
<event>
 6 1 7.08916e-05 5.04556200e+02 7.54677100e-03 9.38967200e-02
      -11 -1    0    0    0    0 +0.0000000000e+00 +0.0000000000e+00 +5.0000000000e+02 5.0000000000e+02 0.0000000000e+00 0.0000e+00 1.0000e+00
       11 -1    0    0    0    0 -0.0000000000e+00 -0.0000000000e+00 -5.0000000000e+02 5.0000000000e+02 0.0000000000e+00 0.0000e+00 -1.0000e+00
      -11  1    1    2    0    0 +1.2415877228e+01 -9.2703004547e+00 +4.9520142933e+02 4.9544378903e+02 0.0000000000e+00 0.0000e+00 1.0000e+00
       11  1    1    2    0    0 -6.4884631192e+00 -9.1052475117e+00 -4.6797338733e+02 4.6810692895e+02 0.0000000000e+00 0.0000e+00 -1.0000e+00
      -15  1    1    2    0    0 -1.6258363343e+00 +1.5063737617e+01 -2.6650744336e+01 3.0707970259e+01 1.7770000000e+00 0.0000e+00 -1.0000e+00
       15  1    1    2    0    0 -4.3015777744e+00 +3.3118103495e+00 -5.7729765982e-01 5.7413117602e+00 1.7770000000e+00 0.0000e+00 1.0000e+00
</event>
<event>
 6 1 7.08916e-05 5.01049400e+02 7.54677100e-03 9.39746500e-02
      -11 -1    0    0    0    0 +0.0000000000e+00 +0.0000000000e+00 +5.0000000000e+02 5.0000000000e+02 0.0000000000e+00 0.0000e+00 -1.0000e+00
       11 -1    0    0    0    0 -0.0000000000e+00 -0.0000000000e+00 -5.0000000000e+02 5.0000000000e+02 0.0000000000e+00 0.0000e+00 -1.0000e+00
      -11  1    1    2    0    0 -1.1376201585e+01 +1.5092885604e+00 +4.9881863142e+02 4.9895062177e+02 0.0000000000e+00 0.0000e+00 -1.0000e+00
       11  1    1    2    0    0 +1.6178888191e+01 -2.8786886929e+00 -2.3599197923e+02 2.3656343236e+02 0.0000000000e+00 0.0000e+00 -1.0000e+00
      -15  1    1    2    0    0 -1.3922805977e+01 -1.0633957094e+00 -2.2564991807e+02 2.2608851937e+02 1.7770000000e+00 0.0000e+00 -1.0000e+00
       15  1    1    2    0    0 +9.1201193701e+00 +2.4327958418e+00 -3.7176734120e+01 3.8397426499e+01 1.7770000000e+00 0.0000e+00 1.0000e+00
</event>
<event>
 6 1 7.08916e-05 4.86359300e+02 7.54677100e-03 9.43086000e-02
      -11 -1    0    0    0    0 +0.0000000000e+00 +0.0000000000e+00 +5.0000000000e+02 5.0000000000e+02 0.0000000000e+00 0.0000e+00 1.0000e+00
       11 -1    0    0    0    0 -0.0000000000e+00 -0.0000000000e+00 -5.0000000000e+02 5.0000000000e+02 0.0000000000e+00 0.0000e+00 1.0000e+00
      -11  1    1    2    0    0 +8.0399515033e+00 +3.2492845978e+00 +4.8494329166e+02 4.8502081893e+02 0.0000000000e+00 0.0000e+00 1.0000e+00
       11  1    1    2    0    0 +1.8978693914e+00 -1.6938320279e+01 -4.8755059483e+02 4.8784843048e+02 0.0000000000e+00 0.0000e+00 1.0000e+00
      -15  1    1    2    0    0 +5.1570239919e+00 +8.2939047827e+00 +4.4861907450e+00 1.0893456265e+01 1.7770000000e+00 0.0000e+00 1.0000e+00
       15  1    1    2    0    0 -1.5094844887e+01 +5.3951308990e+00 -1.8788875766e+00 1.6237294328e+01 1.7770000000e+00 0.0000e+00 -1.0000e+00
</event>
<event>
 6 1 7.08916e-05 5.04003500e+02 7.54677100e-03 9.39089600e-02
      -11 -1    0    0    0    0 +0.0000000000e+00 +0.0000000000e+00 +5.0000000000e+02 5.0000000000e+02 0.0000000000e+00 0.0000e+00 -1.0000e+00
       11 -1    0    0    0    0 -0.0000000000e+00 -0.0000000000e+00 -5.0000000000e+02 5.0000000000e+02 0.0000000000e+00 0.0000e+00 -1.0000e+00
      -11  1    1    2    0    0 +8.6721673091e+00 +3.8760308674e+00 +4.9590557232e+02 4.9599653906e+02 0.0000000000e+00 0.0000e+00 -1.0000e+00
       11  1    1    2    0    0 +2.5639243374e+01 -9.5584160204e+00 -3.7622863899e+02 3.7722237860e+02 0.0000000000e+00 0.0000e+00 -1.0000e+00
      -15  1    1    2    0    0 -3.0171689073e+01 +6.1783753259e+00 -1.1797209345e+02 1.2193881951e+02 1.7770000000e+00 0.0000e+00 -1.0000e+00
       15  1    1    2    0    0 -4.1397216100e+00 -4.9599017290e-01 -1.7048398829e+00 4.8422628270e+00 1.7770000000e+00 0.0000e+00 1.0000e+00
</event>
<event>
 6 1 7.08916e-05 5.00241600e+02 7.54677100e-03 9.39926900e-02
      -11 -1    0    0    0    0 +0.0000000000e+00 +0.0000000000e+00 +5.0000000000e+02 5.0000000000e+02 0.0000000000e+00 0.0000e+00 -1.0000e+00
       11 -1    0    0    0    0 -0.0000000000e+00 -0.0000000000e+00 -5.0000000000e+02 5.0000000000e+02 0.0000000000e+00 0.0000e+00 -1.0000e+00
      -11  1    1    2    0    0 -6.6183320246e+00 -2.4829917235e+00 +4.9970836922e+02 4.9975836344e+02 0.0000000000e+00 0.0000e+00 -1.0000e+00
       11  1    1    2    0    0 +5.1085943317e-01 +1.1134174154e-01 -2.3171961541e+01 2.3177859608e+01 0.0000000000e+00 0.0000e+00 -1.0000e+00
      -15  1    1    2    0    0 -7.8189065789e+00 +1.9306438692e+00 -2.0195914028e+02 2.0212747155e+02 1.7770000000e+00 0.0000e+00 -1.0000e+00
       15  1    1    2    0    0 +1.3926379170e+01 +4.4100611276e-01 -2.7457726740e+02 2.7493630540e+02 1.7770000000e+00 0.0000e+00 1.0000e+00
</event>
<event>
 6 1 7.08916e-05 5.00600500e+02 7.54677100e-03 9.39846700e-02
      -11 -1    0    0    0    0 +0.0000000000e+00 +0.0000000000e+00 +5.0000000000e+02 5.0000000000e+02 0.0000000000e+00 0.0000e+00 1.0000e+00
       11 -1    0    0    0    0 -0.0000000000e+00 -0.0000000000e+00 -5.0000000000e+02 5.0000000000e+02 0.0000000000e+00 0.0000e+00 1.0000e+00
      -11  1    1    2    0    0 +8.9887988832e+00 +1.0633492120e+00 +4.9931745309e+02 4.9939948756e+02 0.0000000000e+00 0.0000e+00 1.0000e+00
       11  1    1    2    0    0 -1.1291109593e+01 -1.0540428691e+01 -3.8409611991e+02 3.8440658049e+02 0.0000000000e+00 0.0000e+00 1.0000e+00
      -15  1    1    2    0    0 +5.6909880464e+00 +8.6316826967e+00 -6.7306837671e+01 6.8119464307e+01 1.7770000000e+00 0.0000e+00 -1.0000e+00
       15  1    1    2    0    0 -3.3886773361e+00 +8.4539678210e-01 -4.7914495509e+01 4.8074467638e+01 1.7770000000e+00 0.0000e+00 1.0000e+00
</event>
<event>
 6 1 7.08916e-05 5.02531000e+02 7.54677100e-03 9.39416400e-02
      -11 -1    0    0    0    0 +0.0000000000e+00 +0.0000000000e+00 +5.0000000000e+02 5.0000000000e+02 0.0000000000e+00 0.0000e+00 -1.0000e+00
       11 -1    0    0    0    0 -0.0000000000e+00 -0.0000000000e+00 -5.0000000000e+02 5.0000000000e+02 0.0000000000e+00 0.0000e+00 1.0000e+00
      -11  1    1    2    0    0 +1.0622608097e+01 +6.3792922784e+00 +4.9731470394e+02 4.9746904419e+02 0.0000000000e+00 0.0000e+00 -1.0000e+00
       11  1    1    2    0    0 +7.8458930756e+00 +1.8787838807e+00 -4.4328842422e+02 4.4336183295e+02 0.0000000000e+00 0.0000e+00 1.0000e+00
      -15  1    1    2    0    0 +1.1398331002e+00 -9.9881755514e-01 -2.0163604157e+00 3.0854974203e+00 1.7770000000e+00 0.0000e+00 1.0000e+00
       15  1    1    2    0    0 -1.9608334273e+01 -7.2592586040e+00 -5.2009919296e+01 5.6083625441e+01 1.7770000000e+00 0.0000e+00 1.0000e+00
</event>
<event>
 6 1 7.08916e-05 5.05869900e+02 7.54677100e-03 9.38677000e-02
      -11 -1    0    0    0    0 +0.0000000000e+00 +0.0000000000e+00 +5.0000000000e+02 5.0000000000e+02 0.0000000000e+00 0.0000e+00 1.0000e+00
       11 -1    0    0    0    0 -0.0000000000e+00 -0.0000000000e+00 -5.0000000000e+02 5.0000000000e+02 0.0000000000e+00 0.0000e+00 1.0000e+00
      -11  1    1    2    0    0 +1.9157320239e+01 -1.4184011620e+01 +4.9355485647e+02 4.9413013007e+02 0.0000000000e+00 0.0000e+00 1.0000e+00
       11  1    1    2    0    0 +9.1831543278e+00 +7.2363556981e+00 -4.4222851885e+02 4.4238304448e+02 0.0000000000e+00 0.0000e+00 1.0000e+00
      -15  1    1    2    0    0 -4.8758470568e+00 -7.5231093387e+00 -8.2433107556e+00 1.2307760148e+01 1.7770000000e+00 0.0000e+00 -1.0000e+00
       15  1    1    2    0    0 -2.3464627510e+01 +1.4470765261e+01 -4.3083026866e+01 5.1179065294e+01 1.7770000000e+00 0.0000e+00 1.0000e+00
</event>
<event>
 6 1 7.08916e-05 5.00914800e+02 7.54677100e-03 9.39776500e-02
      -11 -1    0    0    0    0 +0.0000000000e+00 +0.0000000000e+00 +5.0000000000e+02 5.0000000000e+02 0.0000000000e+00 0.0000e+00 -1.0000e+00
       11 -1    0    0    0    0 -0.0000000000e+00 -0.0000000000e+00 -5.0000000000e+02 5.0000000000e+02 0.0000000000e+00 0.0000e+00 -1.0000e+00
      -11  1    1    2    0    0 +2.6250748498e+01 +2.7359634043e+01 +4.9764278657e+02 4.9908515746e+02 0.0000000000e+00 0.0000e+00 -1.0000e+00
       11  1    1    2    0    0 -1.2204629505e+01 -1.7136109196e-01 -3.2701096901e+02 3.2723868384e+02 0.0000000000e+00 0.0000e+00 -1.0000e+00
      -15  1    1    2    0    0 -1.4398229229e+01 -2.5020659074e+01 -1.4267476151e+02 1.4557674157e+02 1.7770000000e+00 0.0000e+00 -1.0000e+00
       15  1    1    2    0    0 +3.5211023584e-01 -2.1676138770e+00 -2.7957056041e+01 2.8099417129e+01 1.7770000000e+00 0.0000e+00 1.0000e+00
</event>
<event>
 6 1 7.08916e-05 5.03167600e+02 7.54677100e-03 9.39275000e-02
      -11 -1    0    0    0    0 +0.0000000000e+00 +0.0000000000e+00 +5.0000000000e+02 5.0000000000e+02 0.0000000000e+00 0.0000e+00 1.0000e+00
       11 -1    0    0    0    0 -0.0000000000e+00 -0.0000000000e+00 -5.0000000000e+02 5.0000000000e+02 0.0000000000e+00 0.0000e+00 1.0000e+00
      -11  1    1    2    0    0 -1.5346329894e+01 +2.1249058178e+01 +4.9614053080e+02 4.9683242508e+02 0.0000000000e+00 0.0000e+00 1.0000e+00
       11  1    1    2    0    0 -1.0057276598e+00 -1.0049779788e+01 -4.3687441684e+02 4.3699115054e+02 0.0000000000e+00 0.0000e+00 1.0000e+00
      -15  1    1    2    0    0 +1.4525817119e+01 -1.6407246452e+01 -5.4153984132e+01 5.8446632285e+01 1.7770000000e+00 0.0000e+00 1.0000e+00
       15  1    1    2    0    0 +1.8262404347e+00 +5.2079680616e+00 -5.1121298278e+00 7.7297920951e+00 1.7770000000e+00 0.0000e+00 -1.0000e+00
</event>
<event>
 6 1 7.08916e-05 5.02895600e+02 7.54677100e-03 9.39335400e-02
      -11 -1    0    0    0    0 +0.0000000000e+00 +0.0000000000e+00 +5.0000000000e+02 5.0000000000e+02 0.0000000000e+00 0.0000e+00 -1.0000e+00
       11 -1    0    0    0    0 -0.0000000000e+00 -0.0000000000e+00 -5.0000000000e+02 5.0000000000e+02 0.0000000000e+00 0.0000e+00 1.0000e+00
      -11  1    1    2    0    0 -8.5433583275e+00 -1.3539237461e+01 +4.7701260198e+02 4.7728117747e+02 0.0000000000e+00 0.0000e+00 -1.0000e+00
       11  1    1    2    0    0 +4.2263038913e+00 +6.3756293053e+00 -4.9704557351e+02 4.9710442810e+02 0.0000000000e+00 0.0000e+00 1.0000e+00
      -15  1    1    2    0    0 +6.0173388842e+00 +7.6624484048e+00 +2.0760404130e+01 2.3001599758e+01 1.7770000000e+00 0.0000e+00 1.0000e+00
       15  1    1    2    0    0 -1.7002844481e+00 -4.9884024920e-01 -7.2743260287e-01 2.6127946705e+00 1.7770000000e+00 0.0000e+00 -1.0000e+00
</event>
<event>
 6 1 7.08916e-05 5.01135700e+02 7.54677100e-03 9.39727200e-02
      -11 -1    0    0    0    0 +0.0000000000e+00 +0.0000000000e+00 +5.0000000000e+02 5.0000000000e+02 0.0000000000e+00 0.0000e+00 1.0000e+00
       11 -1    0    0    0    0 -0.0000000000e+00 -0.0000000000e+00 -5.0000000000e+02 5.0000000000e+02 0.0000000000e+00 0.0000e+00 1.0000e+00
      -11  1    1    2    0    0 -7.3738482881e+00 -1.1884477802e+00 +4.9880835105e+02 4.9886426724e+02 0.0000000000e+00 0.0000e+00 1.0000e+00
       11  1    1    2    0    0 +4.2976697560e-01 -7.1366052322e+00 -4.1361859682e+02 4.1368038323e+02 0.0000000000e+00 0.0000e+00 1.0000e+00
      -15  1    1    2    0    0 +4.0915695665e+00 -4.4935225738e+00 -3.3558299208e+01 3.4150400604e+01 1.7770000000e+00 0.0000e+00 -1.0000e+00
       15  1    1    2    0    0 +2.8525117460e+00 +1.2818575586e+01 -5.1631455023e+01 5.3304948927e+01 1.7770000000e+00 0.0000e+00 1.0000e+00
</event>
<event>
 6 1 7.08916e-05 5.01291400e+02 7.54677100e-03 9.39692500e-02
      -11 -1    0    0    0    0 +0.0000000000e+00 +0.0000000000e+00 +5.0000000000e+02 5.0000000000e+02 0.0000000000e+00 0.0000e+00 -1.0000e+00
       11 -1    0    0    0    0 -0.0000000000e+00 -0.0000000000e+00 -5.0000000000e+02 5.0000000000e+02 0.0000000000e+00 0.0000e+00 -1.0000e+00
      -11  1    1    2    0    0 +8.5638395387e-01 -3.0839384426e+00 +1.7301725590e+02 1.7304685755e+02 0.0000000000e+00 0.0000e+00 -1.0000e+00
       11  1    1    2    0    0 -1.5349108437e+01 -1.8112982814e+01 -4.9814316472e+02 4.9870862017e+02 0.0000000000e+00 0.0000e+00 -1.0000e+00
      -15  1    1    2    0    0 -3.6976526528e+00 -4.7406461722e+00 +1.5852511338e+02 1.5864903297e+02 1.7770000000e+00 0.0000e+00 1.0000e+00
       15  1    1    2    0    0 +1.8190377136e+01 +2.5937567429e+01 +1.6660079544e+02 1.6959548931e+02 1.7770000000e+00 0.0000e+00 -1.0000e+00
</event>
<event>
 6 1 7.08916e-05 5.03869500e+02 7.54677100e-03 9.39119300e-02
      -11 -1    0    0    0    0 +0.0000000000e+00 +0.0000000000e+00 +5.0000000000e+02 5.0000000000e+02 0.0000000000e+00 0.0000e+00 -1.0000e+00
       11 -1    0    0    0    0 -0.0000000000e+00 -0.0000000000e+00 -5.0000000000e+02 5.0000000000e+02 0.0000000000e+00 0.0000e+00 1.0000e+00
      -11  1    1    2    0    0 -5.5545211822e+00 -5.1789396998e+00 +4.9607237953e+02 4.9613050688e+02 0.0000000000e+00 0.0000e+00 -1.0000e+00
       11  1    1    2    0    0 -1.1606368374e+01 -5.4233594141e+00 -3.7654132122e+02 3.7675918993e+02 0.0000000000e+00 0.0000e+00 1.0000e+00
      -15  1    1    2    0    0 +1.5326002869e+00 +6.8860918136e+00 -1.0537344372e+02 1.0562427512e+02 1.7770000000e+00 0.0000e+00 1.0000e+00
       15  1    1    2    0    0 +1.5628289270e+01 +3.7162073003e+00 -1.4157614595e+01 2.1486028070e+01 1.7770000000e+00 0.0000e+00 -1.0000e+00
</event>
<event>
 6 1 7.08916e-05 5.02932100e+02 7.54677100e-03 9.39327300e-02
      -11 -1    0    0    0    0 +0.0000000000e+00 +0.0000000000e+00 +5.0000000000e+02 5.0000000000e+02 0.0000000000e+00 0.0000e+00 1.0000e+00
       11 -1    0    0    0    0 -0.0000000000e+00 -0.0000000000e+00 -5.0000000000e+02 5.0000000000e+02 0.0000000000e+00 0.0000e+00 1.0000e+00
      -11  1    1    2    0    0 +1.4937087708e+01 -2.0518456698e+01 +4.9641956456e+02 4.9706791058e+02 0.0000000000e+00 0.0000e+00 1.0000e+00
       11  1    1    2    0    0 -2.6583053385e+01 +9.7083250970e+00 -4.3676998226e+02 4.3768587789e+02 0.0000000000e+00 0.0000e+00 1.0000e+00
      -15  1    1    2    0    0 +1.6395253391e+01 +3.4353330508e+00 -3.1688273075e+01 3.5887466146e+01 1.7770000000e+00 0.0000e+00 1.0000e+00
       15  1    1    2    0    0 -4.7492877139e+00 +7.3747985500e+00 -2.7961309227e+01 2.9358745377e+01 1.7770000000e+00 0.0000e+00 -1.0000e+00
</event>
<event>
 6 1 7.08916e-05 5.04214200e+02 7.54677100e-03 9.39042900e-02
      -11 -1    0    0    0    0 +0.0000000000e+00 +0.0000000000e+00 +5.0000000000e+02 5.0000000000e+02 0.0000000000e+00 0.0000e+00 1.0000e+00
       11 -1    0    0    0    0 -0.0000000000e+00 -0.0000000000e+00 -5.0000000000e+02 5.0000000000e+02 0.0000000000e+00 0.0000e+00 1.0000e+00
      -11  1    1    2    0    0 -4.8932091139e+00 -1.3251252262e+01 +4.9558454495e+02 4.9578582107e+02 0.0000000000e+00 0.0000e+00 1.0000e+00
       11  1    1    2    0    0 -5.2757254933e+00 -2.3379855290e+00 -2.1025443780e+02 2.1033361137e+02 0.0000000000e+00 0.0000e+00 1.0000e+00
      -15  1    1    2    0    0 -8.9961461044e-01 +7.9556510311e+00 +2.7111854055e-02 8.2012288000e+00 1.7770000000e+00 0.0000e+00 -1.0000e+00
       15  1    1    2    0    0 +1.1068549218e+01 +7.6335867602e+00 -2.8535721900e+02 2.8567933876e+02 1.7770000000e+00 0.0000e+00 1.0000e+00
</event>
<event>
 6 1 7.08916e-05 5.04985900e+02 7.54677100e-03 9.38872200e-02
      -11 -1    0    0    0    0 +0.0000000000e+00 +0.0000000000e+00 +5.0000000000e+02 5.0000000000e+02 0.0000000000e+00 0.0000e+00 -1.0000e+00
       11 -1    0    0    0    0 -0.0000000000e+00 -0.0000000000e+00 -5.0000000000e+02 5.0000000000e+02 0.0000000000e+00 0.0000e+00 1.0000e+00
      -11  1    1    2    0    0 -1.5689731845e-01 -9.7886057920e+00 +4.8197037021e+02 4.8206978663e+02 0.0000000000e+00 0.0000e+00 -1.0000e+00
       11  1    1    2    0    0 +1.3275881757e+01 +1.5212597674e+00 -4.9483368732e+02 4.9501408199e+02 0.0000000000e+00 0.0000e+00 1.0000e+00
      -15  1    1    2    0    0 +8.3821672592e-01 +2.5885077246e+00 +3.8719518494e-01 3.2727096772e+00 1.7770000000e+00 0.0000e+00 -1.0000e+00
       15  1    1    2    0    0 -1.3957201165e+01 +5.6788383000e+00 +1.2476121919e+01 1.9643421696e+01 1.7770000000e+00 0.0000e+00 1.0000e+00
</event>
<event>
 6 1 7.08916e-05 4.98974400e+02 7.54677100e-03 9.40210800e-02
      -11 -1    0    0    0    0 +0.0000000000e+00 +0.0000000000e+00 +5.0000000000e+02 5.0000000000e+02 0.0000000000e+00 0.0000e+00 1.0000e+00
       11 -1    0    0    0    0 -0.0000000000e+00 -0.0000000000e+00 -5.0000000000e+02 5.0000000000e+02 0.0000000000e+00 0.0000e+00 1.0000e+00
      -11  1    1    2    0    0 -7.2057639386e-01 -3.0035098417e-01 +2.1275711856e+00 2.2662745206e+00 0.0000000000e+00 0.0000e+00 1.0000e+00
       11  1    1    2    0    0 -1.0774518172e+00 -9.3980582585e+00 -4.9972798634e+02 4.9981751143e+02 0.0000000000e+00 0.0000e+00 1.0000e+00
      -15  1    1    2    0    0 +5.1863407258e-02 +6.0149192046e+00 +4.6154351445e+02 4.6158613000e+02 1.7770000000e+00 0.0000e+00 1.0000e+00
       15  1    1    2    0    0 +1.7461648038e+00 +3.6834900381e+00 +3.6056900701e+01 3.6330084056e+01 1.7770000000e+00 0.0000e+00 -1.0000e+00
</event>
<event>
 6 1 7.08916e-05 5.00383900e+02 7.54677100e-03 9.39895100e-02
      -11 -1    0    0    0    0 +0.0000000000e+00 +0.0000000000e+00 +5.0000000000e+02 5.0000000000e+02 0.0000000000e+00 0.0000e+00 -1.0000e+00
       11 -1    0    0    0    0 -0.0000000000e+00 -0.0000000000e+00 -5.0000000000e+02 5.0000000000e+02 0.0000000000e+00 0.0000e+00 -1.0000e+00
      -11  1    1    2    0    0 +7.7090764817e+00 -1.7818191943e+01 +4.9394033451e+02 4.9432172912e+02 0.0000000000e+00 0.0000e+00 -1.0000e+00
       11  1    1    2    0    0 -1.1202651639e+00 +5.9550567905e+00 -4.9770589456e+00 7.8414801641e+00 0.0000000000e+00 0.0000e+00 -1.0000e+00
      -15  1    1    2    0    0 -3.5274608778e+01 +1.3657922830e+01 -8.7509077936e+01 9.5351105556e+01 1.7770000000e+00 0.0000e+00 1.0000e+00
       15  1    1    2    0    0 +2.8685797460e+01 -1.7947876777e+00 -4.0145419763e+02 4.0248568516e+02 1.7770000000e+00 0.0000e+00 -1.0000e+00
</event>
<event>
 7 1 7.08916e-05 5.23677800e+02 7.54677100e-03 9.34833400e-02
      -11 -1    0    0    0    0 +0.0000000000e+00 +0.0000000000e+00 +5.0000000000e+02 5.0000000000e+02 0.0000000000e+00 0.0000e+00 1.0000e+00
       11 -1    0    0    0    0 -0.0000000000e+00 -0.0000000000e+00 -5.0000000000e+02 5.0000000000e+02 0.0000000000e+00 0.0000e+00 -1.0000e+00
       23  2    1    2    0    0 -1.1049081900e+00 -5.1116481098e+01 -2.5985323106e+02 2.8036097590e+02 9.2002498088e+01 0.0000e+00 0.0000e+00
      -11  1    1    2    0    0 -8.9963397884e+00 -6.9002551188e+01 +4.7121181193e+02 4.7632222066e+02 0.0000000000e+00 0.0000e+00 1.0000e+00
       11  1    1    2    0    0 +1.0101247978e+01 +1.2011903229e+02 -2.1135858087e+02 2.4331680344e+02 0.0000000000e+00 0.0000e+00 -1.0000e+00
      -15  1    3    3    0    0 -3.8432908008e+01 -3.3324985188e+01 -7.3093918372e+01 8.9070318781e+01 1.7770000000e+00 0.0000e+00 1.0000e+00
       15  1    3    3    0    0 +3.7327999818e+01 -1.7791495909e+01 -1.8675931269e+02 1.9129065712e+02 1.7770000000e+00 0.0000e+00 -1.0000e+00
</event>
<event>
 7 1 7.08916e-05 5.36974500e+02 7.54677100e-03 9.32067700e-02
      -11 -1    0    0    0    0 +0.0000000000e+00 +0.0000000000e+00 +5.0000000000e+02 5.0000000000e+02 0.0000000000e+00 0.0000e+00 1.0000e+00
       11 -1    0    0    0    0 -0.0000000000e+00 -0.0000000000e+00 -5.0000000000e+02 5.0000000000e+02 0.0000000000e+00 0.0000e+00 1.0000e+00
       23  2    1    2    0    0 +1.0913796167e+02 -4.0824759556e+01 +2.9021517303e+02 3.2422448470e+02 8.5550652547e+01 0.0000e+00 0.0000e+00
      -11  1    1    2    0    0 -1.2117201911e+02 +2.8725265355e+01 +1.7249573147e+02 2.1275003281e+02 0.0000000000e+00 0.0000e+00 1.0000e+00
       11  1    1    2    0    0 +1.2034057439e+01 +1.2099494201e+01 -4.6271090450e+02 4.6302548249e+02 0.0000000000e+00 0.0000e+00 1.0000e+00
      -15  1    3    3    0    0 +1.2075372402e+02 -4.1443347853e+01 +2.8287582565e+02 3.1035609131e+02 1.7770000000e+00 0.0000e+00 1.0000e+00
       15  1    3    3    0    0 -1.1615762343e+01 +6.1858829770e-01 +7.3393473736e+00 1.3868393388e+01 1.7770000000e+00 0.0000e+00 -1.0000e+00
</event>
<event>
 6 1 7.08916e-05 4.85945100e+02 7.54677100e-03 9.43182000e-02
      -11 -1    0    0    0    0 +0.0000000000e+00 +0.0000000000e+00 +5.0000000000e+02 5.0000000000e+02 0.0000000000e+00 0.0000e+00 -1.0000e+00
       11 -1    0    0    0    0 -0.0000000000e+00 -0.0000000000e+00 -5.0000000000e+02 5.0000000000e+02 0.0000000000e+00 0.0000e+00 -1.0000e+00
      -11  1    1    2    0    0 -2.6970474956e+01 +1.0011065059e+01 +4.8698133808e+02 4.8783035123e+02 0.0000000000e+00 0.0000e+00 -1.0000e+00
       11  1    1    2    0    0 +1.0241188796e+01 +4.0637141673e+00 -4.8418432384e+02 4.8430966867e+02 0.0000000000e+00 0.0000e+00 -1.0000e+00
      -15  1    1    2    0    0 +8.8350988263e+00 -9.7965037597e+00 -9.6369799045e+00 1.6433489218e+01 1.7770000000e+00 0.0000e+00 1.0000e+00
       15  1    1    2    0    0 +7.8941873341e+00 -4.2782754666e+00 +6.8399656658e+00 1.1426490885e+01 1.7770000000e+00 0.0000e+00 -1.0000e+00
</event>
<event>
 6 1 7.08916e-05 5.11577400e+02 7.54677100e-03 9.37427100e-02
      -11 -1    0    0    0    0 +0.0000000000e+00 +0.0000000000e+00 +5.0000000000e+02 5.0000000000e+02 0.0000000000e+00 0.0000e+00 -1.0000e+00
       11 -1    0    0    0    0 -0.0000000000e+00 -0.0000000000e+00 -5.0000000000e+02 5.0000000000e+02 0.0000000000e+00 0.0000e+00 -1.0000e+00
      -11  1    1    2    0    0 +6.5547416728e+00 -3.5516260994e+00 +4.8836573492e+02 4.8842263433e+02 0.0000000000e+00 0.0000e+00 -1.0000e+00
       11  1    1    2    0    0 -1.1585320407e+01 +1.4767274345e+01 -4.3866964510e+02 4.3907100744e+02 0.0000000000e+00 0.0000e+00 -1.0000e+00
      -15  1    1    2    0    0 +4.0370788771e+00 -1.1001942456e+01 -6.0428715015e+01 6.1580257153e+01 1.7770000000e+00 0.0000e+00 -1.0000e+00
       15  1    1    2    0    0 +9.9349985758e-01 -2.1370578956e-01 +1.0732625197e+01 1.0926101078e+01 1.7770000000e+00 0.0000e+00 1.0000e+00
</event>
<event>
 6 1 7.08916e-05 5.03469100e+02 7.54677100e-03 9.39208100e-02
      -11 -1    0    0    0    0 +0.0000000000e+00 +0.0000000000e+00 +5.0000000000e+02 5.0000000000e+02 0.0000000000e+00 0.0000e+00 -1.0000e+00
       11 -1    0    0    0    0 -0.0000000000e+00 -0.0000000000e+00 -5.0000000000e+02 5.0000000000e+02 0.0000000000e+00 0.0000e+00 -1.0000e+00
      -11  1    1    2    0    0 +2.3308154874e+00 -1.2044204095e+01 +1.7304256862e+02 1.7347687485e+02 0.0000000000e+00 0.0000e+00 -1.0000e+00
       11  1    1    2    0    0 +2.7460074560e+01 -4.4393238935e+00 -4.9575106889e+02 4.9653085060e+02 0.0000000000e+00 0.0000e+00 -1.0000e+00
      -15  1    1    2    0    0 -2.2673963603e+01 +3.6467650919e+00 +3.4971390852e+01 4.1875570781e+01 1.7770000000e+00 0.0000e+00 1.0000e+00
       15  1    1    2    0    0 -7.1169264441e+00 +1.2836762897e+01 +2.8773710942e+02 2.8811670376e+02 1.7770000000e+00 0.0000e+00 -1.0000e+00
</event>
<event>
 6 1 7.08916e-05 5.12313500e+02 7.54677100e-03 9.37267100e-02
      -11 -1    0    0    0    0 +0.0000000000e+00 +0.0000000000e+00 +5.0000000000e+02 5.0000000000e+02 0.0000000000e+00 0.0000e+00 -1.0000e+00
       11 -1    0    0    0    0 -0.0000000000e+00 -0.0000000000e+00 -5.0000000000e+02 5.0000000000e+02 0.0000000000e+00 0.0000e+00 -1.0000e+00
      -11  1    1    2    0    0 -7.8153696402e+00 -2.1226207423e+01 +4.8716167319e+02 4.8768650557e+02 0.0000000000e+00 0.0000e+00 -1.0000e+00
       11  1    1    2    0    0 +9.2614668340e+00 +2.1442112644e+01 -2.3330863958e+02 2.3447486063e+02 0.0000000000e+00 0.0000e+00 -1.0000e+00
      -15  1    1    2    0    0 -1.6179002070e+01 -4.7543825482e+01 -6.2687866176e+01 8.0343647815e+01 1.7770000000e+00 0.0000e+00 1.0000e+00
       15  1    1    2    0    0 +1.4732904876e+01 +4.7327920261e+01 -1.9116516743e+02 1.9749498599e+02 1.7770000000e+00 0.0000e+00 -1.0000e+00
</event>
<event>
 6 1 7.08916e-05 5.01333600e+02 7.54677100e-03 9.39683100e-02
      -11 -1    0    0    0    0 +0.0000000000e+00 +0.0000000000e+00 +5.0000000000e+02 5.0000000000e+02 0.0000000000e+00 0.0000e+00 1.0000e+00
       11 -1    0    0    0    0 -0.0000000000e+00 -0.0000000000e+00 -5.0000000000e+02 5.0000000000e+02 0.0000000000e+00 0.0000e+00 -1.0000e+00
      -11  1    1    2    0    0 -3.5037107783e+00 -6.5503837450e+00 +2.4714688206e+02 2.4725849799e+02 0.0000000000e+00 0.0000e+00 1.0000e+00
       11  1    1    2    0    0 -1.2238784006e+01 +3.2670014205e+00 -4.9850551942e+02 4.9866643564e+02 0.0000000000e+00 0.0000e+00 -1.0000e+00
      -15  1    1    2    0    0 +5.3113604998e+00 +7.3228200953e-01 +5.2050790657e+00 7.6809741818e+00 1.7770000000e+00 0.0000e+00 -1.0000e+00
       15  1    1    2    0    0 +1.0431134284e+01 +2.5511003149e+00 +2.4615355830e+02 2.4639409219e+02 1.7770000000e+00 0.0000e+00 1.0000e+00
</event>
<event>
 6 1 7.08916e-05 5.35201100e+02 7.54677100e-03 9.32431600e-02
      -11 -1    0    0    0    0 +0.0000000000e+00 +0.0000000000e+00 +5.0000000000e+02 5.0000000000e+02 0.0000000000e+00 0.0000e+00 1.0000e+00
       11 -1    0    0    0    0 -0.0000000000e+00 -0.0000000000e+00 -5.0000000000e+02 5.0000000000e+02 0.0000000000e+00 0.0000e+00 1.0000e+00
      -11  1    1    2    0    0 +2.5869275319e+01 -1.0446862643e+02 +4.5216707426e+02 4.6479885580e+02 0.0000000000e+00 0.0000e+00 1.0000e+00
       11  1    1    2    0    0 -8.3603881671e+00 -3.4461279667e+00 -2.6849341625e+02 2.6864565223e+02 0.0000000000e+00 0.0000e+00 1.0000e+00
      -15  1    1    2    0    0 +3.0198645727e+01 +6.7645913354e+01 -1.6557018842e+00 7.4120353986e+01 1.7770000000e+00 0.0000e+00 1.0000e+00
       15  1    1    2    0    0 -4.7707532878e+01 +4.0268841042e+01 -1.8201795612e+02 1.9243513798e+02 1.7770000000e+00 0.0000e+00 -1.0000e+00
</event>
<event>
 6 1 7.08916e-05 5.01963100e+02 7.54677100e-03 9.39542800e-02
      -11 -1    0    0    0    0 +0.0000000000e+00 +0.0000000000e+00 +5.0000000000e+02 5.0000000000e+02 0.0000000000e+00 0.0000e+00 1.0000e+00
       11 -1    0    0    0    0 -0.0000000000e+00 -0.0000000000e+00 -5.0000000000e+02 5.0000000000e+02 0.0000000000e+00 0.0000e+00 -1.0000e+00
      -11  1    1    2    0    0 +7.6915112798e+00 +3.2677547887e+00 +4.9796673824e+02 4.9803685603e+02 0.0000000000e+00 0.0000e+00 1.0000e+00
       11  1    1    2    0    0 -7.6492447780e+00 +3.5480533588e+00 -4.0358003092e+02 4.0366810747e+02 0.0000000000e+00 0.0000e+00 -1.0000e+00
      -15  1    1    2    0    0 -7.9419493460e+00 -1.4267820042e+01 -5.7937230447e+01 6.0220641387e+01 1.7770000000e+00 0.0000e+00 -1.0000e+00
       15  1    1    2    0    0 +7.8996828442e+00 +7.4520118946e+00 -3.6449476872e+01 3.8074395118e+01 1.7770000000e+00 0.0000e+00 1.0000e+00
</event>
<event>
 6 1 7.08916e-05 5.09844900e+02 7.54677100e-03 9.37804600e-02
      -11 -1    0    0    0    0 +0.0000000000e+00 +0.0000000000e+00 +5.0000000000e+02 5.0000000000e+02 0.0000000000e+00 0.0000e+00 1.0000e+00
       11 -1    0    0    0    0 -0.0000000000e+00 -0.0000000000e+00 -5.0000000000e+02 5.0000000000e+02 0.0000000000e+00 0.0000e+00 1.0000e+00
      -11  1    1    2    0    0 -8.4927944906e+00 -2.6050156343e+00 +4.9007457431e+02 4.9015507959e+02 0.0000000000e+00 0.0000e+00 1.0000e+00
       11  1    1    2    0    0 -5.3613016674e+00 -7.7384493329e+00 -1.9770667568e+02 1.9793068676e+02 0.0000000000e+00 0.0000e+00 1.0000e+00
      -15  1    1    2    0    0 +6.8170822391e+00 +2.6636139233e+00 +8.2153689006e+00 1.1145288895e+01 1.7770000000e+00 0.0000e+00 -1.0000e+00
       15  1    1    2    0    0 +7.0370139189e+00 +7.6798510439e+00 -3.0058326753e+02 3.0076894475e+02 1.7770000000e+00 0.0000e+00 1.0000e+00
</event>
<event>
 6 1 7.08916e-05 4.52657200e+02 7.54677100e-03 9.51245700e-02
      -11 -1    0    0    0    0 +0.0000000000e+00 +0.0000000000e+00 +5.0000000000e+02 5.0000000000e+02 0.0000000000e+00 0.0000e+00 -1.0000e+00
       11 -1    0    0    0    0 -0.0000000000e+00 -0.0000000000e+00 -5.0000000000e+02 5.0000000000e+02 0.0000000000e+00 0.0000e+00 -1.0000e+00
      -11  1    1    2    0    0 +8.3373831598e+00 -7.1477691533e+00 +4.4901713676e+02 4.4915141285e+02 0.0000000000e+00 0.0000e+00 -1.0000e+00
       11  1    1    2    0    0 -1.2461938525e+01 -2.2802135254e+01 -4.5595438694e+02 4.5669425249e+02 0.0000000000e+00 0.0000e+00 -1.0000e+00
      -15  1    1    2    0    0 -1.3462023138e+01 +1.2644797211e+01 +4.5047849722e+01 4.8719436132e+01 1.7770000000e+00 0.0000e+00 -1.0000e+00
       15  1    1    2    0    0 +1.7586578503e+01 +1.7305107196e+01 -3.8110599539e+01 4.5434898533e+01 1.7770000000e+00 0.0000e+00 1.0000e+00
</event>
<event>
 7 1 7.08916e-05 5.06621100e+02 7.54677100e-03 9.38511500e-02
      -11 -1    0    0    0    0 +0.0000000000e+00 +0.0000000000e+00 +5.0000000000e+02 5.0000000000e+02 0.0000000000e+00 0.0000e+00 -1.0000e+00
       11 -1    0    0    0    0 -0.0000000000e+00 -0.0000000000e+00 -5.0000000000e+02 5.0000000000e+02 0.0000000000e+00 0.0000e+00 1.0000e+00
       23  2    1    2    0    0 +9.5736856891e+00 +3.0779517470e+00 +4.0768750287e+02 4.1693404275e+02 8.6739649277e+01 0.0000e+00 0.0000e+00
      -11  1    1    2    0    0 -2.6604190049e+01 -6.7536120519e+00 +8.5383682994e+01 8.9687053277e+01 0.0000000000e+00 0.0000e+00 -1.0000e+00
       11  1    1    2    0    0 +1.7030504360e+01 +3.6756603049e+00 -4.9307118587e+02 4.9337890398e+02 0.0000000000e+00 0.0000e+00 1.0000e+00
      -15  1    3    3    0    0 +3.4981148112e+01 +1.7284866062e+01 +9.2611191500e+01 1.0051088418e+02 1.7770000000e+00 0.0000e+00 1.0000e+00
       15  1    3    3    0    0 -2.5407462422e+01 -1.4206914315e+01 +3.1507631137e+02 3.1642315857e+02 1.7770000000e+00 0.0000e+00 -1.0000e+00
</event>
<event>
 6 1 7.08916e-05 5.01918600e+02 7.54677100e-03 9.39552700e-02
      -11 -1    0    0    0    0 +0.0000000000e+00 +0.0000000000e+00 +5.0000000000e+02 5.0000000000e+02 0.0000000000e+00 0.0000e+00 1.0000e+00
       11 -1    0    0    0    0 -0.0000000000e+00 -0.0000000000e+00 -5.0000000000e+02 5.0000000000e+02 0.0000000000e+00 0.0000e+00 -1.0000e+00
      -11  1    1    2    0    0 -1.3099594698e+01 +1.8731304983e+00 +4.9790553682e+02 4.9808135038e+02 0.0000000000e+00 0.0000e+00 1.0000e+00
       11  1    1    2    0    0 -8.9424208372e-01 +6.8226635689e+00 -3.6461357270e+02 3.6467849650e+02 0.0000000000e+00 0.0000e+00 -1.0000e+00
      -15  1    1    2    0    0 +1.1212787671e+01 +6.9334472687e+00 -9.2163212774e+01 9.3118284006e+01 1.7770000000e+00 0.0000e+00 -1.0000e+00
       15  1    1    2    0    0 +2.7810491101e+00 -1.5629241336e+01 -4.1128751339e+01 4.4121869120e+01 1.7770000000e+00 0.0000e+00 1.0000e+00
</event>
<event>
 6 1 7.08916e-05 5.15853400e+02 7.54677100e-03 9.36501900e-02
      -11 -1    0    0    0    0 +0.0000000000e+00 +0.0000000000e+00 +5.0000000000e+02 5.0000000000e+02 0.0000000000e+00 0.0000e+00 1.0000e+00
       11 -1    0    0    0    0 -0.0000000000e+00 -0.0000000000e+00 -5.0000000000e+02 5.0000000000e+02 0.0000000000e+00 0.0000e+00 1.0000e+00
      -11  1    1    2    0    0 +1.1787536640e+01 +6.8270723781e+00 +4.8395490186e+02 4.8414657075e+02 0.0000000000e+00 0.0000e+00 1.0000e+00
       11  1    1    2    0    0 +6.8027360391e+00 +1.0271818739e+00 -4.4449498383e+02 4.4454822345e+02 0.0000000000e+00 0.0000e+00 1.0000e+00
      -15  1    1    2    0    0 -2.8215138884e+01 -1.0206780978e+01 +5.3608784861e-01 3.0061895472e+01 1.7770000000e+00 0.0000e+00 1.0000e+00
       15  1    1    2    0    0 +9.6248662047e+00 +2.3525267265e+00 -3.9996005878e+01 4.1243310326e+01 1.7770000000e+00 0.0000e+00 -1.0000e+00
</event>
<event>
 6 1 7.08916e-05 5.00283100e+02 7.54677100e-03 9.39917700e-02
      -11 -1    0    0    0    0 +0.0000000000e+00 +0.0000000000e+00 +5.0000000000e+02 5.0000000000e+02 0.0000000000e+00 0.0000e+00 1.0000e+00
       11 -1    0    0    0    0 -0.0000000000e+00 -0.0000000000e+00 -5.0000000000e+02 5.0000000000e+02 0.0000000000e+00 0.0000e+00 -1.0000e+00
      -11  1    1    2    0    0 -9.6752890858e+00 +6.1044501715e+00 +4.9958594890e+02 4.9971691573e+02 0.0000000000e+00 0.0000e+00 1.0000e+00
       11  1    1    2    0    0 +4.9001513668e-01 -3.9402458049e+00 -1.7069030152e+02 1.7073647732e+02 0.0000000000e+00 0.0000e+00 -1.0000e+00
      -15  1    1    2    0    0 +1.1392413782e+01 -6.4904713809e+00 -1.5182858565e+02 1.5240403689e+02 1.7770000000e+00 0.0000e+00 1.0000e+00
       15  1    1    2    0    0 -2.2071398329e+00 +4.3262670143e+00 -1.7706706172e+02 1.7714257006e+02 1.7770000000e+00 0.0000e+00 -1.0000e+00
</event>
<event>
 6 1 7.08916e-05 5.00733200e+02 7.54677100e-03 9.39817100e-02
      -11 -1    0    0    0    0 +0.0000000000e+00 +0.0000000000e+00 +5.0000000000e+02 5.0000000000e+02 0.0000000000e+00 0.0000e+00 -1.0000e+00
       11 -1    0    0    0    0 -0.0000000000e+00 -0.0000000000e+00 -5.0000000000e+02 5.0000000000e+02 0.0000000000e+00 0.0000e+00 -1.0000e+00
      -11  1    1    2    0    0 -7.8320078894e+00 +4.2359945017e+00 +4.9918737979e+02 4.9926678654e+02 0.0000000000e+00 0.0000e+00 -1.0000e+00
       11  1    1    2    0    0 +1.2410969727e+00 +1.3665136113e+01 -1.8372563736e+02 1.8423730917e+02 0.0000000000e+00 0.0000e+00 -1.0000e+00
      -15  1    1    2    0    0 +2.1312091828e+00 -1.4272888362e+01 -2.8870194391e+02 2.8906785975e+02 1.7770000000e+00 0.0000e+00 -1.0000e+00
       15  1    1    2    0    0 +4.4597017339e+00 -3.6282422528e+00 -2.6759798520e+01 2.7428044539e+01 1.7770000000e+00 0.0000e+00 1.0000e+00
</event>
<event>
 6 1 7.08916e-05 5.03916100e+02 7.54677100e-03 9.39109000e-02
      -11 -1    0    0    0    0 +0.0000000000e+00 +0.0000000000e+00 +5.0000000000e+02 5.0000000000e+02 0.0000000000e+00 0.0000e+00 -1.0000e+00
       11 -1    0    0    0    0 -0.0000000000e+00 -0.0000000000e+00 -5.0000000000e+02 5.0000000000e+02 0.0000000000e+00 0.0000e+00 1.0000e+00
      -11  1    1    2    0    0 +9.6919236160e+00 -3.1008842276e+01 +4.0202571874e+02 4.0333628675e+02 0.0000000000e+00 0.0000e+00 -1.0000e+00
       11  1    1    2    0    0 -1.3679151036e+01 +3.1495690480e+01 -4.9489407052e+02 4.9608390291e+02 0.0000000000e+00 0.0000e+00 1.0000e+00
      -15  1    1    2    0    0 -3.4171414757e+00 +1.5661819487e+01 +6.8486610655e+01 7.0360095320e+01 1.7770000000e+00 0.0000e+00 -1.0000e+00
       15  1    1    2    0    0 +7.4043688957e+00 -1.6148667690e+01 +2.4381741126e+01 3.0219715026e+01 1.7770000000e+00 0.0000e+00 1.0000e+00
</event>
<event>
 6 1 7.08916e-05 4.69515900e+02 7.54677100e-03 9.47072900e-02
      -11 -1    0    0    0    0 +0.0000000000e+00 +0.0000000000e+00 +5.0000000000e+02 5.0000000000e+02 0.0000000000e+00 0.0000e+00 1.0000e+00
       11 -1    0    0    0    0 -0.0000000000e+00 -0.0000000000e+00 -5.0000000000e+02 5.0000000000e+02 0.0000000000e+00 0.0000e+00 1.0000e+00
      -11  1    1    2    0    0 -5.6443017504e+00 -9.9980244887e+00 +4.7116021421e+02 4.7130008072e+02 0.0000000000e+00 0.0000e+00 1.0000e+00
       11  1    1    2    0    0 -4.1969727038e+01 -1.6683051514e+01 -4.6714692966e+02 4.6932508572e+02 0.0000000000e+00 0.0000e+00 1.0000e+00
      -15  1    1    2    0    0 +3.8872286397e+01 +2.4657259421e+01 -1.1583586779e+01 4.7501287388e+01 1.7770000000e+00 0.0000e+00 -1.0000e+00
       15  1    1    2    0    0 +8.7417423913e+00 +2.0238165814e+00 +7.5703022345e+00 1.1873546164e+01 1.7770000000e+00 0.0000e+00 1.0000e+00
</event>
<event>
 6 1 7.08916e-05 5.00594900e+02 7.54677100e-03 9.39848000e-02
      -11 -1    0    0    0    0 +0.0000000000e+00 +0.0000000000e+00 +5.0000000000e+02 5.0000000000e+02 0.0000000000e+00 0.0000e+00 1.0000e+00
       11 -1    0    0    0    0 -0.0000000000e+00 -0.0000000000e+00 -5.0000000000e+02 5.0000000000e+02 0.0000000000e+00 0.0000e+00 -1.0000e+00
      -11  1    1    2    0    0 +4.7820393695e+00 -2.3135738082e+00 +3.7007806646e+02 3.7011619230e+02 0.0000000000e+00 0.0000e+00 1.0000e+00
       11  1    1    2    0    0 -6.2339779981e+00 +4.5251717550e+00 -4.9934568089e+02 4.9940509478e+02 0.0000000000e+00 0.0000e+00 -1.0000e+00
      -15  1    1    2    0    0 +6.4708418836e+00 -2.2405957962e+00 +2.2670484626e+01 2.3748698204e+01 1.7770000000e+00 0.0000e+00 1.0000e+00
       15  1    1    2    0    0 -5.0189032550e+00 +2.8997849428e-02 +1.0659712980e+02 1.0673001472e+02 1.7770000000e+00 0.0000e+00 -1.0000e+00
</event>
<event>
 6 1 7.08916e-05 5.00408100e+02 7.54677100e-03 9.39889700e-02
      -11 -1    0    0    0    0 +0.0000000000e+00 +0.0000000000e+00 +5.0000000000e+02 5.0000000000e+02 0.0000000000e+00 0.0000e+00 -1.0000e+00
       11 -1    0    0    0    0 -0.0000000000e+00 -0.0000000000e+00 -5.0000000000e+02 5.0000000000e+02 0.0000000000e+00 0.0000e+00 1.0000e+00
      -11  1    1    2    0    0 +5.4928468338e+01 -3.0191647113e+01 +4.9564441411e+02 4.9959189087e+02 0.0000000000e+00 0.0000e+00 -1.0000e+00
       11  1    1    2    0    0 -4.7562341033e+01 +2.0478850659e+01 -3.5971471431e+02 3.6342294273e+02 0.0000000000e+00 0.0000e+00 1.0000e+00
      -15  1    1    2    0    0 -1.2918569005e+00 +5.1787173668e+00 -1.0276724224e+02 1.0292109509e+02 1.7770000000e+00 0.0000e+00 1.0000e+00
       15  1    1    2    0    0 -6.0742704042e+00 +4.5340790876e+00 -3.3162457554e+01 3.4064071309e+01 1.7770000000e+00 0.0000e+00 -1.0000e+00
</event>
<event>
 6 1 7.08916e-05 5.74914000e+02 7.54677100e-03 9.24621100e-02
      -11 -1    0    0    0    0 +0.0000000000e+00 +0.0000000000e+00 +5.0000000000e+02 5.0000000000e+02 0.0000000000e+00 0.0000e+00 1.0000e+00
       11 -1    0    0    0    0 -0.0000000000e+00 -0.0000000000e+00 -5.0000000000e+02 5.0000000000e+02 0.0000000000e+00 0.0000e+00 1.0000e+00
      -11  1    1    2    0    0 +3.6399032430e+01 -1.0795648321e+01 +4.2338713726e+02 4.2508599551e+02 0.0000000000e+00 0.0000e+00 1.0000e+00
       11  1    1    2    0    0 -2.7523686713e+00 +3.9752266273e+00 -2.2764500046e+02 2.2769634207e+02 0.0000000000e+00 0.0000e+00 1.0000e+00
      -15  1    1    2    0    0 +2.4186265915e+00 -1.5923013109e+01 -2.6520164963e+02 2.6569618890e+02 1.7770000000e+00 0.0000e+00 1.0000e+00
       15  1    1    2    0    0 -3.6065290351e+01 +2.2743434803e+01 +6.9459512822e+01 8.1521473522e+01 1.7770000000e+00 0.0000e+00 -1.0000e+00
</event>
<event>
 6 1 7.08916e-05 5.00236200e+02 7.54677100e-03 9.39928100e-02
      -11 -1    0    0    0    0 +0.0000000000e+00 +0.0000000000e+00 +5.0000000000e+02 5.0000000000e+02 0.0000000000e+00 0.0000e+00 -1.0000e+00
       11 -1    0    0    0    0 -0.0000000000e+00 -0.0000000000e+00 -5.0000000000e+02 5.0000000000e+02 0.0000000000e+00 0.0000e+00 -1.0000e+00
      -11  1    1    2    0    0 +1.1501017617e+01 +2.1723390808e+01 +4.9915897524e+02 4.9976380589e+02 0.0000000000e+00 0.0000e+00 -1.0000e+00
       11  1    1    2    0    0 +2.7513526651e+00 -4.1215165153e+00 -2.7615900873e+01 2.8056992371e+01 0.0000000000e+00 0.0000e+00 -1.0000e+00
      -15  1    1    2    0    0 +4.2670152459e-01 -4.0245936121e+00 -8.0762891450e+01 8.0883754811e+01 1.7770000000e+00 0.0000e+00 1.0000e+00
       15  1    1    2    0    0 -1.4679071806e+01 -1.3577280681e+01 -3.9078018291e+02 3.9129544693e+02 1.7770000000e+00 0.0000e+00 -1.0000e+00
</event>
<event>
 6 1 7.08916e-05 5.08426300e+02 7.54677100e-03 9.38115000e-02
      -11 -1    0    0    0    0 +0.0000000000e+00 +0.0000000000e+00 +5.0000000000e+02 5.0000000000e+02 0.0000000000e+00 0.0000e+00 1.0000e+00
       11 -1    0    0    0    0 -0.0000000000e+00 -0.0000000000e+00 -5.0000000000e+02 5.0000000000e+02 0.0000000000e+00 0.0000e+00 -1.0000e+00
      -11  1    1    2    0    0 -1.1004873313e+01 -6.5800833801e+00 +4.7822667078e+02 4.7839852987e+02 0.0000000000e+00 0.0000e+00 1.0000e+00
       11  1    1    2    0    0 -2.6082265444e+00 -7.1310950490e+00 -4.9151501451e+02 4.9157366167e+02 0.0000000000e+00 0.0000e+00 -1.0000e+00
      -15  1    1    2    0    0 +1.3278974896e+01 +4.0821820789e+00 +6.2827542524e-01 1.4019552198e+01 1.7770000000e+00 0.0000e+00 -1.0000e+00
       15  1    1    2    0    0 +3.3412496067e-01 +9.6289963502e+00 +1.2660068299e+01 1.6008256261e+01 1.7770000000e+00 0.0000e+00 1.0000e+00
</event>
<event>
 6 1 7.08916e-05 5.01032500e+02 7.54677100e-03 9.39750200e-02
      -11 -1    0    0    0    0 +0.0000000000e+00 +0.0000000000e+00 +5.0000000000e+02 5.0000000000e+02 0.0000000000e+00 0.0000e+00 1.0000e+00
       11 -1    0    0    0    0 -0.0000000000e+00 -0.0000000000e+00 -5.0000000000e+02 5.0000000000e+02 0.0000000000e+00 0.0000e+00 1.0000e+00
      -11  1    1    2    0    0 +1.8010214717e+00 -8.2207402153e+00 +4.4829717676e+02 4.4837616233e+02 0.0000000000e+00 0.0000e+00 1.0000e+00
       11  1    1    2    0    0 -5.2122625361e+00 -4.8401554477e+00 -4.9891684047e+02 4.9896754252e+02 0.0000000000e+00 0.0000e+00 1.0000e+00
      -15  1    1    2    0    0 +1.0362369243e+00 +6.9963487557e+00 +1.9655503041e+01 2.0964713489e+01 1.7770000000e+00 0.0000e+00 1.0000e+00
       15  1    1    2    0    0 +2.3750041402e+00 +6.0645469073e+00 +3.0964160662e+01 3.1691581664e+01 1.7770000000e+00 0.0000e+00 -1.0000e+00
</event>
<event>
 7 1 7.08916e-05 4.84544900e+02 7.54677100e-03 9.43507200e-02
      -11 -1    0    0    0    0 +0.0000000000e+00 +0.0000000000e+00 +5.0000000000e+02 5.0000000000e+02 0.0000000000e+00 0.0000e+00 -1.0000e+00
       11 -1    0    0    0    0 -0.0000000000e+00 -0.0000000000e+00 -5.0000000000e+02 5.0000000000e+02 0.0000000000e+00 0.0000e+00 1.0000e+00
       23  2    1    2    0    0 -1.0647427883e+01 +1.6099803085e+01 +4.5984371362e+02 4.6923275620e+02 9.1381437677e+01 0.0000e+00 0.0000e+00
      -11  1    1    2    0    0 +1.6945652767e+01 -1.3865189060e+01 +3.2057216711e+01 3.8820919086e+01 0.0000000000e+00 0.0000e+00 -1.0000e+00
       11  1    1    2    0    0 -6.2982248837e+00 -2.2346140253e+00 -4.9190093033e+02 4.9194632471e+02 0.0000000000e+00 0.0000e+00 1.0000e+00
      -15  1    3    3    0    0 +5.9658669681e+00 +4.4751847484e+01 +1.2809362965e+02 1.3582877128e+02 1.7770000000e+00 0.0000e+00 1.0000e+00
       15  1    3    3    0    0 -1.6613294851e+01 -2.8652044399e+01 +3.3175008397e+02 3.3340398492e+02 1.7770000000e+00 0.0000e+00 -1.0000e+00
</event>
<event>
 6 1 7.08916e-05 5.11844000e+02 7.54677100e-03 9.37369100e-02
      -11 -1    0    0    0    0 +0.0000000000e+00 +0.0000000000e+00 +5.0000000000e+02 5.0000000000e+02 0.0000000000e+00 0.0000e+00 1.0000e+00
       11 -1    0    0    0    0 -0.0000000000e+00 -0.0000000000e+00 -5.0000000000e+02 5.0000000000e+02 0.0000000000e+00 0.0000e+00 -1.0000e+00
      -11  1    1    2    0    0 -6.4403789406e+00 -5.8272535168e-01 +4.7014861981e+02 4.7019309093e+02 0.0000000000e+00 0.0000e+00 1.0000e+00
       11  1    1    2    0    0 +1.3335520702e+00 -7.2158056069e+00 -4.8810083007e+02 4.8815598586e+02 0.0000000000e+00 0.0000e+00 -1.0000e+00
      -15  1    1    2    0    0 +3.8122309923e+00 +3.0563046717e+00 -1.1033789226e+01 1.2197390584e+01 1.7770000000e+00 0.0000e+00 -1.0000e+00
       15  1    1    2    0    0 +1.2945958782e+00 +4.7422262869e+00 +2.8985999489e+01 2.9453532623e+01 1.7770000000e+00 0.0000e+00 1.0000e+00
</event>
<event>
 6 1 7.08916e-05 5.07925900e+02 7.54677100e-03 9.38224800e-02
      -11 -1    0    0    0    0 +0.0000000000e+00 +0.0000000000e+00 +5.0000000000e+02 5.0000000000e+02 0.0000000000e+00 0.0000e+00 1.0000e+00
       11 -1    0    0    0    0 -0.0000000000e+00 -0.0000000000e+00 -5.0000000000e+02 5.0000000000e+02 0.0000000000e+00 0.0000e+00 1.0000e+00
      -11  1    1    2    0    0 +4.8659963955e+00 +1.0659223126e+01 +4.1853987218e+02 4.1870385902e+02 0.0000000000e+00 0.0000e+00 1.0000e+00
       11  1    1    2    0    0 +1.6785596088e+01 +4.7030828734e-01 -4.9178751081e+02 4.9207411353e+02 0.0000000000e+00 0.0000e+00 1.0000e+00
      -15  1    1    2    0    0 -1.6262231732e+01 -1.1216586492e+01 +4.6276554082e+00 2.0367742070e+01 1.7770000000e+00 0.0000e+00 -1.0000e+00
       15  1    1    2    0    0 -5.3893607509e+00 +8.7055078232e-02 +6.8619983221e+01 6.8854285372e+01 1.7770000000e+00 0.0000e+00 1.0000e+00
</event>
<event>
 6 1 7.08916e-05 5.04222200e+02 7.54677100e-03 9.39041100e-02
      -11 -1    0    0    0    0 +0.0000000000e+00 +0.0000000000e+00 +5.0000000000e+02 5.0000000000e+02 0.0000000000e+00 0.0000e+00 1.0000e+00
       11 -1    0    0    0    0 -0.0000000000e+00 -0.0000000000e+00 -5.0000000000e+02 5.0000000000e+02 0.0000000000e+00 0.0000e+00 -1.0000e+00
      -11  1    1    2    0    0 -4.4264614489e+00 +5.7386108536e+00 +4.9572481448e+02 4.9577778985e+02 0.0000000000e+00 0.0000e+00 1.0000e+00
       11  1    1    2    0    0 -2.4950284238e+00 -6.4197016685e+00 -2.2958513598e+02 2.2968842461e+02 0.0000000000e+00 0.0000e+00 -1.0000e+00
      -15  1    1    2    0    0 +1.2459902013e+01 -9.9284812271e+00 -1.1797145232e+01 1.9903624350e+01 1.7770000000e+00 0.0000e+00 1.0000e+00
       15  1    1    2    0    0 -5.5384121403e+00 +1.0609572042e+01 -2.5434253327e+02 2.5463016119e+02 1.7770000000e+00 0.0000e+00 -1.0000e+00
</event>
<event>
 6 1 7.08916e-05 5.00570300e+02 7.54677100e-03 9.39853500e-02
      -11 -1    0    0    0    0 +0.0000000000e+00 +0.0000000000e+00 +5.0000000000e+02 5.0000000000e+02 0.0000000000e+00 0.0000e+00 1.0000e+00
       11 -1    0    0    0    0 -0.0000000000e+00 -0.0000000000e+00 -5.0000000000e+02 5.0000000000e+02 0.0000000000e+00 0.0000e+00 -1.0000e+00
      -11  1    1    2    0    0 +1.1216081086e+00 -5.4081297657e+00 +3.3853393529e+02 3.3857898814e+02 0.0000000000e+00 0.0000e+00 1.0000e+00
       11  1    1    2    0    0 -5.4778502383e+00 -9.5928423308e+00 -4.9930755290e+02 4.9942973665e+02 0.0000000000e+00 0.0000e+00 -1.0000e+00
      -15  1    1    2    0    0 +2.2263843011e-02 +2.2135755163e+00 +8.2002986109e+01 8.2052104617e+01 1.7770000000e+00 0.0000e+00 1.0000e+00
       15  1    1    2    0    0 +4.3339782867e+00 +1.2787396580e+01 +7.8770631502e+01 7.9939170594e+01 1.7770000000e+00 0.0000e+00 -1.0000e+00
</event>
<event>
 6 1 7.08916e-05 5.00250400e+02 7.54677100e-03 9.39925000e-02
      -11 -1    0    0    0    0 +0.0000000000e+00 +0.0000000000e+00 +5.0000000000e+02 5.0000000000e+02 0.0000000000e+00 0.0000e+00 -1.0000e+00
       11 -1    0    0    0    0 -0.0000000000e+00 -0.0000000000e+00 -5.0000000000e+02 5.0000000000e+02 0.0000000000e+00 0.0000e+00 1.0000e+00
      -11  1    1    2    0    0 -3.8508038308e+00 +5.5338438113e+00 +4.5257957176e+02 4.5262978347e+02 0.0000000000e+00 0.0000e+00 -1.0000e+00
       11  1    1    2    0    0 +6.9310701047e+00 -7.0459291024e+00 -4.9965188572e+02 4.9974962907e+02 0.0000000000e+00 0.0000e+00 1.0000e+00
      -15  1    1    2    0    0 -4.5984690590e-01 +1.8349794779e+00 +3.6176727553e+01 3.6269711252e+01 1.7770000000e+00 0.0000e+00 1.0000e+00
       15  1    1    2    0    0 -2.6204193680e+00 -3.2289418691e-01 +1.0895586413e+01 1.1350876204e+01 1.7770000000e+00 0.0000e+00 -1.0000e+00
</event>
<event>
 6 1 7.08916e-05 5.00239400e+02 7.54677100e-03 9.39927400e-02
      -11 -1    0    0    0    0 +0.0000000000e+00 +0.0000000000e+00 +5.0000000000e+02 5.0000000000e+02 0.0000000000e+00 0.0000e+00 1.0000e+00
       11 -1    0    0    0    0 -0.0000000000e+00 -0.0000000000e+00 -5.0000000000e+02 5.0000000000e+02 0.0000000000e+00 0.0000e+00 -1.0000e+00
      -11  1    1    2    0    0 +3.4171662516e+00 -8.5575239453e+00 +3.2453029013e+02 3.2466108090e+02 0.0000000000e+00 0.0000e+00 1.0000e+00
       11  1    1    2    0    0 +1.0713797140e+00 +7.2022107545e+00 -4.9970752285e+02 4.9976057076e+02 0.0000000000e+00 0.0000e+00 -1.0000e+00
      -15  1    1    2    0    0 -3.8047204399e+00 -3.0327425643e+00 +1.3765908318e+02 1.3775650379e+02 1.7770000000e+00 0.0000e+00 1.0000e+00
       15  1    1    2    0    0 -6.8382552572e-01 +4.3880557551e+00 +3.7518149548e+01 3.7821844550e+01 1.7770000000e+00 0.0000e+00 -1.0000e+00
</event>
<event>
 6 1 7.08916e-05 5.02407400e+02 7.54677100e-03 9.39443900e-02
      -11 -1    0    0    0    0 +0.0000000000e+00 +0.0000000000e+00 +5.0000000000e+02 5.0000000000e+02 0.0000000000e+00 0.0000e+00 -1.0000e+00
       11 -1    0    0    0    0 -0.0000000000e+00 -0.0000000000e+00 -5.0000000000e+02 5.0000000000e+02 0.0000000000e+00 0.0000e+00 -1.0000e+00
      -11  1    1    2    0    0 -9.9248973117e+00 +9.0472745016e+00 +4.9741137023e+02 4.9759263257e+02 0.0000000000e+00 0.0000e+00 -1.0000e+00
       11  1    1    2    0    0 +3.3405444910e+00 -6.3673777878e+00 -3.3492407462e+02 3.3500125148e+02 0.0000000000e+00 0.0000e+00 -1.0000e+00
      -15  1    1    2    0    0 -2.2597474768e-01 +5.1060980008e+00 -1.5347983495e+02 1.5357519581e+02 1.7770000000e+00 0.0000e+00 -1.0000e+00
       15  1    1    2    0    0 +6.8103275684e+00 -7.7859947147e+00 -9.0074606555e+00 1.3830920134e+01 1.7770000000e+00 0.0000e+00 1.0000e+00
</event>
<event>
 6 1 7.08916e-05 5.05287700e+02 7.54677100e-03 9.38805500e-02
      -11 -1    0    0    0    0 +0.0000000000e+00 +0.0000000000e+00 +5.0000000000e+02 5.0000000000e+02 0.0000000000e+00 0.0000e+00 -1.0000e+00
       11 -1    0    0    0    0 -0.0000000000e+00 -0.0000000000e+00 -5.0000000000e+02 5.0000000000e+02 0.0000000000e+00 0.0000e+00 -1.0000e+00
      -11  1    1    2    0    0 +1.2340931074e+01 -1.0781715458e+00 +4.9455719527e+02 4.9471232088e+02 0.0000000000e+00 0.0000e+00 -1.0000e+00
       11  1    1    2    0    0 -6.4607734365e+00 +2.8520150959e+00 -4.8432257442e+02 4.8437406172e+02 0.0000000000e+00 0.0000e+00 -1.0000e+00
      -15  1    1    2    0    0 +4.3460683811e+00 -1.9730595740e-01 -9.2420994625e+00 1.0368286816e+01 1.7770000000e+00 0.0000e+00 -1.0000e+00
       15  1    1    2    0    0 -1.0226226018e+01 -1.5765375927e+00 -9.9252139429e-01 1.0545330582e+01 1.7770000000e+00 0.0000e+00 1.0000e+00
</event>
<event>
 6 1 7.08916e-05 5.16691600e+02 7.54677100e-03 9.36321600e-02
      -11 -1    0    0    0    0 +0.0000000000e+00 +0.0000000000e+00 +5.0000000000e+02 5.0000000000e+02 0.0000000000e+00 0.0000e+00 -1.0000e+00
       11 -1    0    0    0    0 -0.0000000000e+00 -0.0000000000e+00 -5.0000000000e+02 5.0000000000e+02 0.0000000000e+00 0.0000e+00 1.0000e+00
      -11  1    1    2    0    0 +7.7599956518e+00 -3.1577207415e-01 +4.3805185566e+02 4.3812069740e+02 0.0000000000e+00 0.0000e+00 -1.0000e+00
       11  1    1    2    0    0 +6.5472186484e+00 +1.1101898894e+00 -4.8326276637e+02 4.8330839011e+02 0.0000000000e+00 0.0000e+00 1.0000e+00
      -15  1    1    2    0    0 -2.5182221354e+01 -9.6082323551e+00 +5.5083261041e+01 6.1349700710e+01 1.7770000000e+00 0.0000e+00 1.0000e+00
       15  1    1    2    0    0 +1.0875007054e+01 +8.8138145398e+00 -9.8723503298e+00 1.7221211781e+01 1.7770000000e+00 0.0000e+00 -1.0000e+00
</event>
<event>
 6 1 7.08916e-05 5.07261100e+02 7.54677100e-03 9.38370700e-02
      -11 -1    0    0    0    0 +0.0000000000e+00 +0.0000000000e+00 +5.0000000000e+02 5.0000000000e+02 0.0000000000e+00 0.0000e+00 -1.0000e+00
       11 -1    0    0    0    0 -0.0000000000e+00 -0.0000000000e+00 -5.0000000000e+02 5.0000000000e+02 0.0000000000e+00 0.0000e+00 -1.0000e+00
      -11  1    1    2    0    0 +6.6155738757e-01 +9.4948408251e+00 +4.7353758228e+02 4.7363322465e+02 0.0000000000e+00 0.0000e+00 -1.0000e+00
       11  1    1    2    0    0 +4.8924598983e+00 +6.3859194681e+00 -4.9267320941e+02 4.9273888359e+02 0.0000000000e+00 0.0000e+00 -1.0000e+00
      -15  1    1    2    0    0 -3.4261136833e+00 -9.7859479006e+00 +2.3423258541e+01 2.5677028663e+01 1.7770000000e+00 0.0000e+00 1.0000e+00
       15  1    1    2    0    0 -2.1279036025e+00 -6.0948123926e+00 -4.2876314089e+00 7.9508630942e+00 1.7770000000e+00 0.0000e+00 -1.0000e+00
</event>
<event>
 6 1 7.08916e-05 5.04847000e+02 7.54677100e-03 9.38902900e-02
      -11 -1    0    0    0    0 +0.0000000000e+00 +0.0000000000e+00 +5.0000000000e+02 5.0000000000e+02 0.0000000000e+00 0.0000e+00 1.0000e+00
       11 -1    0    0    0    0 -0.0000000000e+00 -0.0000000000e+00 -5.0000000000e+02 5.0000000000e+02 0.0000000000e+00 0.0000e+00 1.0000e+00
      -11  1    1    2    0    0 +7.6300106732e+00 +1.3439273504e+00 +4.9509243444e+02 4.9515304891e+02 0.0000000000e+00 0.0000e+00 1.0000e+00
       11  1    1    2    0    0 +5.0250725654e+00 +1.5410665022e+01 -4.6849203917e+02 4.6877236557e+02 0.0000000000e+00 0.0000e+00 1.0000e+00
      -15  1    1    2    0    0 -2.7643634425e+00 +1.2933064495e+00 -2.4678733756e+00 4.3084190619e+00 1.7770000000e+00 0.0000e+00 1.0000e+00
       15  1    1    2    0    0 -9.8907197961e+00 -1.8047898821e+01 -2.4132521889e+01 3.1766166462e+01 1.7770000000e+00 0.0000e+00 -1.0000e+00
</event>
<event>
 6 1 7.08916e-05 5.15519600e+02 7.54677100e-03 9.36573800e-02
      -11 -1    0    0    0    0 +0.0000000000e+00 +0.0000000000e+00 +5.0000000000e+02 5.0000000000e+02 0.0000000000e+00 0.0000e+00 1.0000e+00
       11 -1    0    0    0    0 -0.0000000000e+00 -0.0000000000e+00 -5.0000000000e+02 5.0000000000e+02 0.0000000000e+00 0.0000e+00 -1.0000e+00
      -11  1    1    2    0    0 +4.6789494076e+00 +5.6358470785e+00 +4.4539724002e+02 4.4545746908e+02 0.0000000000e+00 0.0000e+00 1.0000e+00
       11  1    1    2    0    0 -8.4490119030e+00 -5.2970608004e+00 -4.8437780804e+02 4.8448044912e+02 0.0000000000e+00 0.0000e+00 -1.0000e+00
      -15  1    1    2    0    0 +8.8815164173e+00 -7.6542259372e+00 +5.2468394220e+01 5.3791808201e+01 1.7770000000e+00 0.0000e+00 1.0000e+00
       15  1    1    2    0    0 -5.1114539219e+00 +7.3154396591e+00 -1.3487826201e+01 1.6270273606e+01 1.7770000000e+00 0.0000e+00 -1.0000e+00
</event>
<event>
 6 1 7.08916e-05 3.78605600e+02 7.54677100e-03 9.72181600e-02
      -11 -1    0    0    0    0 +0.0000000000e+00 +0.0000000000e+00 +5.0000000000e+02 5.0000000000e+02 0.0000000000e+00 0.0000e+00 -1.0000e+00
       11 -1    0    0    0    0 -0.0000000000e+00 -0.0000000000e+00 -5.0000000000e+02 5.0000000000e+02 0.0000000000e+00 0.0000e+00 1.0000e+00
      -11  1    1    2    0    0 +7.2155873694e-01 -7.7738700903e-02 +1.3800335860e+01 1.3819405203e+01 0.0000000000e+00 0.0000e+00 -1.0000e+00
       11  1    1    2    0    0 -7.9701502117e+00 -1.0566906549e+00 -4.6444834080e+02 4.6451792340e+02 0.0000000000e+00 0.0000e+00 1.0000e+00
      -15  1    1    2    0    0 +1.2751001996e+02 -2.9646563613e+01 +2.9360559077e+02 3.2147336528e+02 1.7770000000e+00 0.0000e+00 1.0000e+00
       15  1    1    2    0    0 -1.2026142848e+02 +3.0780992969e+01 +1.5704241416e+02 2.0018930612e+02 1.7770000000e+00 0.0000e+00 -1.0000e+00
</event>
<event>
 6 1 7.08916e-05 5.05111600e+02 7.54677100e-03 9.38844400e-02
      -11 -1    0    0    0    0 +0.0000000000e+00 +0.0000000000e+00 +5.0000000000e+02 5.0000000000e+02 0.0000000000e+00 0.0000e+00 1.0000e+00
       11 -1    0    0    0    0 -0.0000000000e+00 -0.0000000000e+00 -5.0000000000e+02 5.0000000000e+02 0.0000000000e+00 0.0000e+00 -1.0000e+00
      -11  1    1    2    0    0 -2.3219300788e+00 +2.4328980018e+00 +2.1362913868e+02 2.1365560898e+02 0.0000000000e+00 0.0000e+00 1.0000e+00
       11  1    1    2    0    0 -4.6677117992e+01 +5.5101582948e+00 -4.9265136878e+02 4.9488835746e+02 0.0000000000e+00 0.0000e+00 -1.0000e+00
      -15  1    1    2    0    0 +6.0445437422e+01 +4.5988601831e+00 +1.5806797751e+02 1.6930281646e+02 1.7770000000e+00 0.0000e+00 1.0000e+00
       15  1    1    2    0    0 -1.1446389351e+01 -1.2541916480e+01 +1.2095425259e+02 1.2215321710e+02 1.7770000000e+00 0.0000e+00 -1.0000e+00
</event>
<event>
 7 1 7.08916e-05 3.51151700e+02 7.54677100e-03 9.81287700e-02
      -11 -1    0    0    0    0 +0.0000000000e+00 +0.0000000000e+00 +5.0000000000e+02 5.0000000000e+02 0.0000000000e+00 0.0000e+00 1.0000e+00
       11 -1    0    0    0    0 -0.0000000000e+00 -0.0000000000e+00 -5.0000000000e+02 5.0000000000e+02 0.0000000000e+00 0.0000e+00 1.0000e+00
       23  2    1    2    0    0 -2.6581863960e+01 +3.5085370028e+02 -2.2644897569e+02 4.3076605515e+02 1.0234911426e+02 0.0000e+00 0.0000e+00
      -11  1    1    2    0    0 +4.0002946367e+01 -4.7384636396e+01 +2.5658937957e+02 2.6397660728e+02 0.0000000000e+00 0.0000e+00 1.0000e+00
       11  1    1    2    0    0 -1.3421082407e+01 -3.0346906389e+02 -3.0140403880e+01 3.0525733756e+02 0.0000000000e+00 0.0000e+00 1.0000e+00
      -15  1    3    3    0    0 -2.4233828197e+01 +6.1642502990e+01 -4.9053973453e+00 6.6440178026e+01 1.7770000000e+00 0.0000e+00 -1.0000e+00
       15  1    3    3    0    0 -2.3480357628e+00 +2.8921119729e+02 -2.2154357835e+02 3.6432587713e+02 1.7770000000e+00 0.0000e+00 1.0000e+00
</event>
<event>
 6 1 7.08916e-05 5.11166900e+02 7.54677100e-03 9.37516400e-02
      -11 -1    0    0    0    0 +0.0000000000e+00 +0.0000000000e+00 +5.0000000000e+02 5.0000000000e+02 0.0000000000e+00 0.0000e+00 -1.0000e+00
       11 -1    0    0    0    0 -0.0000000000e+00 -0.0000000000e+00 -5.0000000000e+02 5.0000000000e+02 0.0000000000e+00 0.0000e+00 1.0000e+00
      -11  1    1    2    0    0 -3.5648741694e+00 +5.8672769307e+00 +4.8878486241e+02 4.8883307477e+02 0.0000000000e+00 0.0000e+00 -1.0000e+00
       11  1    1    2    0    0 +9.8094968102e+00 +3.9373131722e+00 -4.7442610090e+02 4.7454383768e+02 0.0000000000e+00 0.0000e+00 1.0000e+00
      -15  1    1    2    0    0 +4.3961254942e+00 -8.8125442135e+00 +7.3128609696e+00 1.2394455189e+01 1.7770000000e+00 0.0000e+00 -1.0000e+00
       15  1    1    2    0    0 -1.0640748135e+01 -9.9204588938e-01 -2.1671622480e+01 2.4228632356e+01 1.7770000000e+00 0.0000e+00 1.0000e+00
</event>
<event>
 6 1 7.08916e-05 5.06433600e+02 7.54677100e-03 9.38552800e-02
      -11 -1    0    0    0    0 +0.0000000000e+00 +0.0000000000e+00 +5.0000000000e+02 5.0000000000e+02 0.0000000000e+00 0.0000e+00 1.0000e+00
       11 -1    0    0    0    0 -0.0000000000e+00 -0.0000000000e+00 -5.0000000000e+02 5.0000000000e+02 0.0000000000e+00 0.0000e+00 1.0000e+00
      -11  1    1    2    0    0 -3.5513487386e+00 +8.3746980301e+00 +4.9348256402e+02 4.9356639740e+02 0.0000000000e+00 0.0000e+00 1.0000e+00
       11  1    1    2    0    0 +1.0590861562e+01 +1.5326150915e+01 -4.4045920943e+02 4.4085300546e+02 0.0000000000e+00 0.0000e+00 1.0000e+00
      -15  1    1    2    0    0 -2.9667245001e+00 -8.7285209864e+00 +9.0892506578e-01 9.4325185738e+00 1.7770000000e+00 0.0000e+00 -1.0000e+00
       15  1    1    2    0    0 -4.0727883236e+00 -1.4972327959e+01 -5.3932279659e+01 5.6148078573e+01 1.7770000000e+00 0.0000e+00 1.0000e+00
</event>
<event>
 6 1 7.08916e-05 5.00576700e+02 7.54677100e-03 9.39852000e-02
      -11 -1    0    0    0    0 +0.0000000000e+00 +0.0000000000e+00 +5.0000000000e+02 5.0000000000e+02 0.0000000000e+00 0.0000e+00 -1.0000e+00
       11 -1    0    0    0    0 -0.0000000000e+00 -0.0000000000e+00 -5.0000000000e+02 5.0000000000e+02 0.0000000000e+00 0.0000e+00 -1.0000e+00
      -11  1    1    2    0    0 -2.5492613544e+00 +1.2924947776e+00 +2.0564208970e+02 2.0566195159e+02 0.0000000000e+00 0.0000e+00 -1.0000e+00
       11  1    1    2    0    0 +2.1539858710e+00 +2.8140069883e+01 -4.9862522865e+02 4.9942328924e+02 0.0000000000e+00 0.0000e+00 -1.0000e+00
      -15  1    1    2    0    0 +4.2148338011e+00 -2.6777086168e+01 +2.0517037266e+02 2.0696090624e+02 1.7770000000e+00 0.0000e+00 1.0000e+00
       15  1    1    2    0    0 -3.8195583177e+00 -2.6554784929e+00 +8.7812766295e+01 8.7953852930e+01 1.7770000000e+00 0.0000e+00 -1.0000e+00
</event>
<event>
 6 1 7.08916e-05 4.78137000e+02 7.54677100e-03 9.45010400e-02
      -11 -1    0    0    0    0 +0.0000000000e+00 +0.0000000000e+00 +5.0000000000e+02 5.0000000000e+02 0.0000000000e+00 0.0000e+00 -1.0000e+00
       11 -1    0    0    0    0 -0.0000000000e+00 -0.0000000000e+00 -5.0000000000e+02 5.0000000000e+02 0.0000000000e+00 0.0000e+00 1.0000e+00
      -11  1    1    2    0    0 +3.3041766436e+00 -7.7765566332e+00 +4.8069534577e+02 4.8076959956e+02 0.0000000000e+00 0.0000e+00 -1.0000e+00
       11  1    1    2    0    0 +1.0869177304e+01 +7.5847456165e+00 -4.7543920296e+02 4.7562390930e+02 0.0000000000e+00 0.0000e+00 1.0000e+00
      -15  1    1    2    0    0 -2.6979061040e+01 +3.7625751429e+00 +3.5993564730e+00 2.7534338603e+01 1.7770000000e+00 0.0000e+00 1.0000e+00
       15  1    1    2    0    0 +1.2805707092e+01 -3.5707641261e+00 -8.8554992827e+00 1.6072152535e+01 1.7770000000e+00 0.0000e+00 -1.0000e+00
</event>
<event>
 6 1 7.08916e-05 5.03601100e+02 7.54677100e-03 9.39178800e-02
      -11 -1    0    0    0    0 +0.0000000000e+00 +0.0000000000e+00 +5.0000000000e+02 5.0000000000e+02 0.0000000000e+00 0.0000e+00 -1.0000e+00
       11 -1    0    0    0    0 -0.0000000000e+00 -0.0000000000e+00 -5.0000000000e+02 5.0000000000e+02 0.0000000000e+00 0.0000e+00 1.0000e+00
      -11  1    1    2    0    0 -2.3073014900e+00 +7.7481856709e+00 +4.9633305168e+02 4.9639888821e+02 0.0000000000e+00 0.0000e+00 -1.0000e+00
       11  1    1    2    0    0 +7.2515435815e+00 +4.5057640169e+00 -4.6426537348e+02 4.6434386375e+02 0.0000000000e+00 0.0000e+00 1.0000e+00
      -15  1    1    2    0    0 -1.5058805485e-01 -8.4082393923e+00 -2.4231875099e+00 8.9303265981e+00 1.7770000000e+00 0.0000e+00 -1.0000e+00
       15  1    1    2    0    0 -4.7936540366e+00 -3.8457102955e+00 -2.9644490695e+01 3.0326921444e+01 1.7770000000e+00 0.0000e+00 1.0000e+00
</event>
<event>
 6 1 7.08916e-05 5.00309700e+02 7.54677100e-03 9.39911700e-02
      -11 -1    0    0    0    0 +0.0000000000e+00 +0.0000000000e+00 +5.0000000000e+02 5.0000000000e+02 0.0000000000e+00 0.0000e+00 1.0000e+00
       11 -1    0    0    0    0 -0.0000000000e+00 -0.0000000000e+00 -5.0000000000e+02 5.0000000000e+02 0.0000000000e+00 0.0000e+00 -1.0000e+00
      -11  1    1    2    0    0 +1.3686579077e+00 +8.4308028220e+00 +3.8693032518e+02 3.8702458346e+02 0.0000000000e+00 0.0000e+00 1.0000e+00
       11  1    1    2    0    0 -6.4857186369e+00 -3.3111905316e+00 -4.9963720643e+02 4.9969027064e+02 0.0000000000e+00 0.0000e+00 -1.0000e+00
      -15  1    1    2    0    0 +4.3639966076e+00 +4.4088244098e-01 +3.0196844194e+01 3.0565437540e+01 1.7770000000e+00 0.0000e+00 1.0000e+00
       15  1    1    2    0    0 +7.5306412157e-01 -5.5604947313e+00 +8.2510037055e+01 8.2719708360e+01 1.7770000000e+00 0.0000e+00 -1.0000e+00
</event>
<event>
 6 1 7.08916e-05 5.00387900e+02 7.54677100e-03 9.39894200e-02
      -11 -1    0    0    0    0 +0.0000000000e+00 +0.0000000000e+00 +5.0000000000e+02 5.0000000000e+02 0.0000000000e+00 0.0000e+00 -1.0000e+00
       11 -1    0    0    0    0 -0.0000000000e+00 -0.0000000000e+00 -5.0000000000e+02 5.0000000000e+02 0.0000000000e+00 0.0000e+00 -1.0000e+00
      -11  1    1    2    0    0 -3.7309899591e+00 +1.5381374703e+00 +1.9806920772e+02 1.9811031573e+02 0.0000000000e+00 0.0000e+00 -1.0000e+00
       11  1    1    2    0    0 -2.2571437955e+01 -6.5223310066e+00 -4.9905938679e+02 4.9961213171e+02 0.0000000000e+00 0.0000e+00 -1.0000e+00
      -15  1    1    2    0    0 +2.4106185769e+01 +5.6376580635e+00 +2.5863582842e+02 2.5982405750e+02 1.7770000000e+00 0.0000e+00 -1.0000e+00
       15  1    1    2    0    0 +2.1962421448e+00 -6.5346452714e-01 +4.2354350642e+01 4.2453495059e+01 1.7770000000e+00 0.0000e+00 -1.0000e+00
</event>
<event>
 7 1 7.08916e-05 5.03777200e+02 7.54677100e-03 9.39139700e-02
      -11 -1    0    0    0    0 +0.0000000000e+00 +0.0000000000e+00 +5.0000000000e+02 5.0000000000e+02 0.0000000000e+00 0.0000e+00 -1.0000e+00
       11 -1    0    0    0    0 -0.0000000000e+00 -0.0000000000e+00 -5.0000000000e+02 5.0000000000e+02 0.0000000000e+00 0.0000e+00 -1.0000e+00
       23  2    1    2    0    0 -2.1757243828e+01 -7.4104079739e+00 +4.9548363256e+02 5.0377724695e+02 8.8086279266e+01 0.0000e+00 0.0000e+00
      -11  1    1    2    0    0 +1.7415796804e+01 +5.2818695309e+00 -2.3839399264e+02 2.3908764889e+02 0.0000000000e+00 0.0000e+00 -1.0000e+00
       11  1    1    2    0    0 +4.3414470248e+00 +2.1285384430e+00 -2.5708963992e+02 2.5713510417e+02 0.0000000000e+00 0.0000e+00 -1.0000e+00
      -15  1    3    3    0    0 +8.9262595051e+00 -2.5389916517e+01 +4.9474578800e+01 5.6349069610e+01 1.7770000000e+00 0.0000e+00 1.0000e+00
       15  1    3    3    0    0 -3.0683503334e+01 +1.7979508543e+01 +4.4600905376e+02 4.4742817734e+02 1.7770000000e+00 0.0000e+00 -1.0000e+00
</event>
<event>
 6 1 7.08916e-05 5.75958600e+02 7.54677100e-03 9.24424800e-02
      -11 -1    0    0    0    0 +0.0000000000e+00 +0.0000000000e+00 +5.0000000000e+02 5.0000000000e+02 0.0000000000e+00 0.0000e+00 -1.0000e+00
       11 -1    0    0    0    0 -0.0000000000e+00 -0.0000000000e+00 -5.0000000000e+02 5.0000000000e+02 0.0000000000e+00 0.0000e+00 -1.0000e+00
      -11  1    1    2    0    0 -1.2527966653e+01 -8.8825460225e+01 +3.0223137073e+02 3.1526292802e+02 0.0000000000e+00 0.0000e+00 -1.0000e+00
       11  1    1    2    0    0 -5.0122167982e+00 -8.5137610902e+00 -4.2392630795e+02 4.2404141427e+02 0.0000000000e+00 0.0000e+00 -1.0000e+00
      -15  1    1    2    0    0 -3.0260042057e+01 +1.3699386313e+02 +1.3764190928e+02 1.9654882752e+02 1.7770000000e+00 0.0000e+00 -1.0000e+00
       15  1    1    2    0    0 +4.7800225509e+01 -3.9654641811e+01 -1.5946972070e+01 6.4146830187e+01 1.7770000000e+00 0.0000e+00 1.0000e+00
</event>
<event>
 6 1 7.08916e-05 5.07573700e+02 7.54677100e-03 9.38302100e-02
      -11 -1    0    0    0    0 +0.0000000000e+00 +0.0000000000e+00 +5.0000000000e+02 5.0000000000e+02 0.0000000000e+00 0.0000e+00 -1.0000e+00
       11 -1    0    0    0    0 -0.0000000000e+00 -0.0000000000e+00 -5.0000000000e+02 5.0000000000e+02 0.0000000000e+00 0.0000e+00 -1.0000e+00
      -11  1    1    2    0    0 -3.1733192524e+00 -9.0110388057e+00 +4.9233357763e+02 4.9242625889e+02 0.0000000000e+00 0.0000e+00 -1.0000e+00
       11  1    1    2    0    0 +1.7309571719e+00 +2.8811543883e+01 -4.6441808356e+02 4.6531414938e+02 0.0000000000e+00 0.0000e+00 -1.0000e+00
      -15  1    1    2    0    0 +4.8991175399e+00 -2.0227047331e+01 -8.6609585825e+00 2.2612048314e+01 1.7770000000e+00 0.0000e+00 1.0000e+00
       15  1    1    2    0    0 -3.4567554595e+00 +4.2654225377e-01 -1.9254535486e+01 1.9647543418e+01 1.7770000000e+00 0.0000e+00 -1.0000e+00
</event>
<event>
 6 1 7.08916e-05 5.07798500e+02 7.54677100e-03 9.38252700e-02
      -11 -1    0    0    0    0 +0.0000000000e+00 +0.0000000000e+00 +5.0000000000e+02 5.0000000000e+02 0.0000000000e+00 0.0000e+00 -1.0000e+00
       11 -1    0    0    0    0 -0.0000000000e+00 -0.0000000000e+00 -5.0000000000e+02 5.0000000000e+02 0.0000000000e+00 0.0000e+00 -1.0000e+00
      -11  1    1    2    0    0 +2.3745549425e+01 -1.9890477918e+01 +4.3426871555e+02 4.3537202429e+02 0.0000000000e+00 0.0000e+00 -1.0000e+00
       11  1    1    2    0    0 -2.3643771573e+00 +2.0341039149e+01 -4.9177528014e+02 4.9220145704e+02 0.0000000000e+00 0.0000e+00 -1.0000e+00
      -15  1    1    2    0    0 -7.0594193782e+00 -1.2895850730e+01 +4.9654326846e+01 5.1815521531e+01 1.7770000000e+00 0.0000e+00 1.0000e+00
       15  1    1    2    0    0 -1.4321752889e+01 +1.2445289498e+01 +7.8522377443e+00 2.0610997140e+01 1.7770000000e+00 0.0000e+00 -1.0000e+00
</event>
<event>
 6 1 7.08916e-05 5.00636500e+02 7.54677100e-03 9.39838700e-02
      -11 -1    0    0    0    0 +0.0000000000e+00 +0.0000000000e+00 +5.0000000000e+02 5.0000000000e+02 0.0000000000e+00 0.0000e+00 -1.0000e+00
       11 -1    0    0    0    0 -0.0000000000e+00 -0.0000000000e+00 -5.0000000000e+02 5.0000000000e+02 0.0000000000e+00 0.0000e+00 1.0000e+00
      -11  1    1    2    0    0 +2.9131034803e+01 +4.8870816394e+01 +4.9611184383e+02 4.9936353037e+02 0.0000000000e+00 0.0000e+00 -1.0000e+00
       11  1    1    2    0    0 -3.1451615442e+01 -4.0636196356e+01 -3.8301871877e+02 3.8645031181e+02 0.0000000000e+00 0.0000e+00 1.0000e+00
      -15  1    1    2    0    0 +5.1834249687e+00 -9.9762717224e+00 -6.9238637979e+01 7.0167945745e+01 1.7770000000e+00 0.0000e+00 -1.0000e+00
       15  1    1    2    0    0 -2.8628443306e+00 +1.7416516852e+00 -4.3854487080e+01 4.4018212075e+01 1.7770000000e+00 0.0000e+00 1.0000e+00
</event>
<event>
 6 1 7.08916e-05 5.12539300e+02 7.54677100e-03 9.37218100e-02
      -11 -1    0    0    0    0 +0.0000000000e+00 +0.0000000000e+00 +5.0000000000e+02 5.0000000000e+02 0.0000000000e+00 0.0000e+00 -1.0000e+00
       11 -1    0    0    0    0 -0.0000000000e+00 -0.0000000000e+00 -5.0000000000e+02 5.0000000000e+02 0.0000000000e+00 0.0000e+00 -1.0000e+00
      -11  1    1    2    0    0 -1.8110820465e+00 +7.0336360954e+00 +4.8740659454e+02 4.8746070658e+02 0.0000000000e+00 0.0000e+00 -1.0000e+00
       11  1    1    2    0    0 +7.1914585347e+00 -1.1521879952e+01 -4.1793049044e+02 4.1815112774e+02 0.0000000000e+00 0.0000e+00 -1.0000e+00
      -15  1    1    2    0    0 -3.5876492829e+00 +4.4691530829e+00 +1.1712687516e+01 1.3160141888e+01 1.7770000000e+00 0.0000e+00 1.0000e+00
       15  1    1    2    0    0 -1.7927272054e+00 +1.9090773707e-02 -8.1188791619e+01 8.1228023790e+01 1.7770000000e+00 0.0000e+00 -1.0000e+00
</event>
<event>
 6 1 7.08916e-05 4.11858400e+02 7.54677100e-03 9.62199800e-02
      -11 -1    0    0    0    0 +0.0000000000e+00 +0.0000000000e+00 +5.0000000000e+02 5.0000000000e+02 0.0000000000e+00 0.0000e+00 1.0000e+00
       11 -1    0    0    0    0 -0.0000000000e+00 -0.0000000000e+00 -5.0000000000e+02 5.0000000000e+02 0.0000000000e+00 0.0000e+00 -1.0000e+00
      -11  1    1    2    0    0 -6.6898169901e-01 -1.4864515132e+01 +3.6636062416e+02 3.6666266278e+02 0.0000000000e+00 0.0000e+00 1.0000e+00
       11  1    1    2    0    0 +1.1082662337e+02 -2.7909601524e+01 -2.4867022307e+02 2.7367565867e+02 0.0000000000e+00 0.0000e+00 -1.0000e+00
      -15  1    1    2    0    0 +6.4778252211e+01 +1.8012982559e+00 +7.3017141569e+01 9.7642855995e+01 1.7770000000e+00 0.0000e+00 1.0000e+00
       15  1    1    2    0    0 -1.7493589388e+02 +4.0972818400e+01 -1.9070754266e+02 2.6201882255e+02 1.7770000000e+00 0.0000e+00 -1.0000e+00
</event>
<event>
 6 1 7.08916e-05 5.11787700e+02 7.54677100e-03 9.37381300e-02
      -11 -1    0    0    0    0 +0.0000000000e+00 +0.0000000000e+00 +5.0000000000e+02 5.0000000000e+02 0.0000000000e+00 0.0000e+00 1.0000e+00
       11 -1    0    0    0    0 -0.0000000000e+00 -0.0000000000e+00 -5.0000000000e+02 5.0000000000e+02 0.0000000000e+00 0.0000e+00 -1.0000e+00
      -11  1    1    2    0    0 +4.5824194980e+01 +2.2838908760e+01 +3.9689666164e+02 4.0018549776e+02 0.0000000000e+00 0.0000e+00 1.0000e+00
       11  1    1    2    0    0 -9.5886535094e+00 +2.4828920020e-01 -4.8811805418e+02 4.8821228860e+02 0.0000000000e+00 0.0000e+00 -1.0000e+00
      -15  1    1    2    0    0 -4.0596091420e+01 -1.0927815811e+01 +8.8903146608e+01 9.8358461776e+01 1.7770000000e+00 0.0000e+00 1.0000e+00
       15  1    1    2    0    0 +4.3605499495e+00 -1.2159382149e+01 +2.3182459328e+00 1.3243751860e+01 1.7770000000e+00 0.0000e+00 -1.0000e+00
</event>
<event>
 6 1 7.08916e-05 5.01879300e+02 7.54677100e-03 9.39561400e-02
      -11 -1    0    0    0    0 +0.0000000000e+00 +0.0000000000e+00 +5.0000000000e+02 5.0000000000e+02 0.0000000000e+00 0.0000e+00 1.0000e+00
       11 -1    0    0    0    0 -0.0000000000e+00 -0.0000000000e+00 -5.0000000000e+02 5.0000000000e+02 0.0000000000e+00 0.0000e+00 1.0000e+00
      -11  1    1    2    0    0 +6.1880628988e+00 +6.2240453735e+00 +4.4220367464e+02 4.4229076491e+02 0.0000000000e+00 0.0000e+00 1.0000e+00
       11  1    1    2    0    0 -6.4635474650e+00 +6.7241554948e+00 -4.9803334166e+02 4.9812066924e+02 0.0000000000e+00 0.0000e+00 1.0000e+00
      -15  1    1    2    0    0 +3.5376965622e+00 -1.3556372948e+01 +5.3080953702e+01 5.4927551551e+01 1.7770000000e+00 0.0000e+00 -1.0000e+00
       15  1    1    2    0    0 -3.2622119960e+00 +6.0817207989e-01 +2.7487133214e+00 4.6610143004e+00 1.7770000000e+00 0.0000e+00 1.0000e+00
</event>
<event>
 6 1 7.08916e-05 5.57874800e+02 7.54677100e-03 9.27887800e-02
      -11 -1    0    0    0    0 +0.0000000000e+00 +0.0000000000e+00 +5.0000000000e+02 5.0000000000e+02 0.0000000000e+00 0.0000e+00 1.0000e+00
       11 -1    0    0    0    0 -0.0000000000e+00 -0.0000000000e+00 -5.0000000000e+02 5.0000000000e+02 0.0000000000e+00 0.0000e+00 1.0000e+00
      -11  1    1    2    0    0 -2.0004280584e+01 +3.5601373977e+00 +2.7689312389e+02 2.7763761971e+02 0.0000000000e+00 0.0000e+00 1.0000e+00
       11  1    1    2    0    0 +1.2473015278e+00 -8.0949463927e+00 -4.4204928521e+02 4.4212515702e+02 0.0000000000e+00 0.0000e+00 1.0000e+00
      -15  1    1    2    0    0 +1.0178649847e+02 -3.1775030967e+00 +7.8082664234e+00 1.0215045057e+02 1.7770000000e+00 0.0000e+00 1.0000e+00
       15  1    1    2    0    0 -8.3029519418e+01 +7.7123120917e+00 +1.5734789490e+02 1.7808677270e+02 1.7770000000e+00 0.0000e+00 -1.0000e+00
</event>
<event>
 6 1 7.08916e-05 5.00492100e+02 7.54677100e-03 9.39870900e-02
      -11 -1    0    0    0    0 +0.0000000000e+00 +0.0000000000e+00 +5.0000000000e+02 5.0000000000e+02 0.0000000000e+00 0.0000e+00 1.0000e+00
       11 -1    0    0    0    0 -0.0000000000e+00 -0.0000000000e+00 -5.0000000000e+02 5.0000000000e+02 0.0000000000e+00 0.0000e+00 1.0000e+00
      -11  1    1    2    0    0 -3.0441989345e+00 -6.1294642333e+00 +4.9946097582e+02 4.9950786164e+02 0.0000000000e+00 0.0000e+00 1.0000e+00
       11  1    1    2    0    0 -4.1164576783e+00 +5.4325756545e+00 -3.9839236824e+02 3.9845067094e+02 0.0000000000e+00 0.0000e+00 1.0000e+00
      -15  1    1    2    0    0 +6.1000305834e+00 +2.1193541309e-01 -9.8511108169e+01 9.8716014159e+01 1.7770000000e+00 0.0000e+00 1.0000e+00
       15  1    1    2    0    0 +1.0606260294e+00 +4.8495316572e-01 -2.5574994101e+00 3.3254532593e+00 1.7770000000e+00 0.0000e+00 -1.0000e+00
</event>
<event>
 6 1 7.08916e-05 5.05311200e+02 7.54677100e-03 9.38800300e-02
      -11 -1    0    0    0    0 +0.0000000000e+00 +0.0000000000e+00 +5.0000000000e+02 5.0000000000e+02 0.0000000000e+00 0.0000e+00 1.0000e+00
       11 -1    0    0    0    0 -0.0000000000e+00 -0.0000000000e+00 -5.0000000000e+02 5.0000000000e+02 0.0000000000e+00 0.0000e+00 -1.0000e+00
      -11  1    1    2    0    0 +1.1221020947e+01 +1.3374721940e+00 +4.9455967759e+02 4.9468876563e+02 0.0000000000e+00 0.0000e+00 1.0000e+00
       11  1    1    2    0    0 +7.6573617160e+00 -1.9925074268e+00 -4.7401647501e+02 4.7408250743e+02 0.0000000000e+00 0.0000e+00 -1.0000e+00
      -15  1    1    2    0    0 -3.1960371643e+00 +2.4525129878e-01 -1.3414043073e+01 1.3905721208e+01 1.7770000000e+00 0.0000e+00 1.0000e+00
       15  1    1    2    0    0 -1.5682345499e+01 +4.0978393407e-01 -7.1291595121e+00 1.7323005731e+01 1.7770000000e+00 0.0000e+00 -1.0000e+00
</event>
<event>
 6 1 7.08916e-05 5.02473000e+02 7.54677100e-03 9.39429300e-02
      -11 -1    0    0    0    0 +0.0000000000e+00 +0.0000000000e+00 +5.0000000000e+02 5.0000000000e+02 0.0000000000e+00 0.0000e+00 -1.0000e+00
       11 -1    0    0    0    0 -0.0000000000e+00 -0.0000000000e+00 -5.0000000000e+02 5.0000000000e+02 0.0000000000e+00 0.0000e+00 1.0000e+00
      -11  1    1    2    0    0 -3.9679599412e-01 +6.5309949420e+00 +4.4935696791e+02 4.4940460161e+02 0.0000000000e+00 0.0000e+00 -1.0000e+00
       11  1    1    2    0    0 -9.8634616491e+00 -4.1362588658e-01 -4.9742907912e+02 4.9752703215e+02 0.0000000000e+00 0.0000e+00 1.0000e+00
      -15  1    1    2    0    0 +6.7003770480e+00 -8.8000173035e+00 +4.6774636919e+01 4.8097398527e+01 1.7770000000e+00 0.0000e+00 1.0000e+00
       15  1    1    2    0    0 +3.5598805952e+00 +2.6826482480e+00 +1.2974742958e+00 4.9709677149e+00 1.7770000000e+00 0.0000e+00 -1.0000e+00
</event>
<event>
 6 1 7.08916e-05 5.00281900e+02 7.54677100e-03 9.39917900e-02
      -11 -1    0    0    0    0 +0.0000000000e+00 +0.0000000000e+00 +5.0000000000e+02 5.0000000000e+02 0.0000000000e+00 0.0000e+00 -1.0000e+00
       11 -1    0    0    0    0 -0.0000000000e+00 -0.0000000000e+00 -5.0000000000e+02 5.0000000000e+02 0.0000000000e+00 0.0000e+00 -1.0000e+00
      -11  1    1    2    0    0 -2.7346788894e+00 +4.2457870280e+00 +2.4936369806e+02 2.4941483333e+02 0.0000000000e+00 0.0000e+00 -1.0000e+00
       11  1    1    2    0    0 +3.9730515553e+00 +8.5758221066e+00 -4.9962872879e+02 4.9971811704e+02 0.0000000000e+00 0.0000e+00 -1.0000e+00
      -15  1    1    2    0    0 +4.7193650610e-02 -1.1493841128e+01 +2.4017292455e+02 2.4045436579e+02 1.7770000000e+00 0.0000e+00 -1.0000e+00
       15  1    1    2    0    0 -1.2855663165e+00 -1.3277680062e+00 +1.0092106182e+01 1.0412683843e+01 1.7770000000e+00 0.0000e+00 1.0000e+00
</event>
<event>
 6 1 7.08916e-05 4.90173200e+02 7.54677100e-03 9.42207000e-02
      -11 -1    0    0    0    0 +0.0000000000e+00 +0.0000000000e+00 +5.0000000000e+02 5.0000000000e+02 0.0000000000e+00 0.0000e+00 1.0000e+00
       11 -1    0    0    0    0 -0.0000000000e+00 -0.0000000000e+00 -5.0000000000e+02 5.0000000000e+02 0.0000000000e+00 0.0000e+00 1.0000e+00
      -11  1    1    2    0    0 -1.9807351011e+00 -8.8892220376e+00 +4.9213895636e+02 4.9222321557e+02 0.0000000000e+00 0.0000e+00 1.0000e+00
       11  1    1    2    0    0 +1.7853638412e+01 +1.5113495155e+01 -4.8772077894e+02 4.8828140283e+02 0.0000000000e+00 0.0000e+00 1.0000e+00
      -15  1    1    2    0    0 -9.1403879797e+00 +3.3638718793e-01 -3.1969478836e+00 9.8507894877e+00 1.7770000000e+00 0.0000e+00 -1.0000e+00
       15  1    1    2    0    0 -6.7325153308e+00 -6.5606603054e+00 -1.2212295359e+00 9.6445921066e+00 1.7770000000e+00 0.0000e+00 1.0000e+00
</event>
<event>
 6 1 7.08916e-05 5.01579500e+02 7.54677100e-03 9.39628200e-02
      -11 -1    0    0    0    0 +0.0000000000e+00 +0.0000000000e+00 +5.0000000000e+02 5.0000000000e+02 0.0000000000e+00 0.0000e+00 1.0000e+00
       11 -1    0    0    0    0 -0.0000000000e+00 -0.0000000000e+00 -5.0000000000e+02 5.0000000000e+02 0.0000000000e+00 0.0000e+00 -1.0000e+00
      -11  1    1    2    0    0 +5.8074539165e+00 -8.0012421503e+00 +4.9832239900e+02 4.9842046481e+02 0.0000000000e+00 0.0000e+00 1.0000e+00
       11  1    1    2    0    0 -1.3633252394e+01 -9.9759253682e+00 -4.2634641532e+02 4.2668097042e+02 0.0000000000e+00 0.0000e+00 -1.0000e+00
      -15  1    1    2    0    0 +4.6748067863e+00 +8.3381673943e+00 -2.5378939351e+01 2.7177695737e+01 1.7770000000e+00 0.0000e+00 -1.0000e+00
       15  1    1    2    0    0 +3.1509916910e+00 +9.6390001242e+00 -4.6597044331e+01 4.7720869035e+01 1.7770000000e+00 0.0000e+00 1.0000e+00
</event>
<event>
 6 1 7.08916e-05 5.04183300e+02 7.54677100e-03 9.39049800e-02
      -11 -1    0    0    0    0 +0.0000000000e+00 +0.0000000000e+00 +5.0000000000e+02 5.0000000000e+02 0.0000000000e+00 0.0000e+00 1.0000e+00
       11 -1    0    0    0    0 -0.0000000000e+00 -0.0000000000e+00 -5.0000000000e+02 5.0000000000e+02 0.0000000000e+00 0.0000e+00 1.0000e+00
      -11  1    1    2    0    0 +4.4082113558e+00 -6.8519937771e+00 +4.9574977062e+02 4.9581671736e+02 0.0000000000e+00 0.0000e+00 1.0000e+00
       11  1    1    2    0    0 -8.7872110783e+00 -9.6898622829e-01 -4.4061490725e+02 4.4070358576e+02 0.0000000000e+00 0.0000e+00 1.0000e+00
      -15  1    1    2    0    0 -1.5272818346e+00 +9.3188584002e+00 -1.8093634113e+00 9.7777930353e+00 1.7770000000e+00 0.0000e+00 -1.0000e+00
       15  1    1    2    0    0 +5.9062815571e+00 -1.4978783948e+00 -5.3325499958e+01 5.3701903843e+01 1.7770000000e+00 0.0000e+00 1.0000e+00
</event>
<event>
 6 1 7.08916e-05 5.06937800e+02 7.54677100e-03 9.38441800e-02
      -11 -1    0    0    0    0 +0.0000000000e+00 +0.0000000000e+00 +5.0000000000e+02 5.0000000000e+02 0.0000000000e+00 0.0000e+00 -1.0000e+00
       11 -1    0    0    0    0 -0.0000000000e+00 -0.0000000000e+00 -5.0000000000e+02 5.0000000000e+02 0.0000000000e+00 0.0000e+00 -1.0000e+00
      -11  1    1    2    0    0 +1.2896463420e+01 -7.5758355046e+00 +4.9283530282e+02 4.9306221489e+02 0.0000000000e+00 0.0000e+00 -1.0000e+00
       11  1    1    2    0    0 +2.6039013872e+00 +5.1213542991e+00 -2.8582605988e+02 2.8588379646e+02 0.0000000000e+00 0.0000e+00 -1.0000e+00
      -15  1    1    2    0    0 -2.9559511422e+01 -2.4323726136e+01 -6.1795861229e+01 7.2713785232e+01 1.7770000000e+00 0.0000e+00 -1.0000e+00
       15  1    1    2    0    0 +1.4059146616e+01 +2.6778207341e+01 -1.4521338171e+02 1.4834020342e+02 1.7770000000e+00 0.0000e+00 1.0000e+00
</event>
<event>
 6 1 7.08916e-05 4.52294500e+02 7.54677100e-03 9.51337600e-02
      -11 -1    0    0    0    0 +0.0000000000e+00 +0.0000000000e+00 +5.0000000000e+02 5.0000000000e+02 0.0000000000e+00 0.0000e+00 -1.0000e+00
       11 -1    0    0    0    0 -0.0000000000e+00 -0.0000000000e+00 -5.0000000000e+02 5.0000000000e+02 0.0000000000e+00 0.0000e+00 1.0000e+00
      -11  1    1    2    0    0 -5.2846994602e+01 -2.5762517796e+01 +4.5746329425e+02 4.6122573404e+02 0.0000000000e+00 0.0000e+00 -1.0000e+00
       11  1    1    2    0    0 -1.0004014554e+00 -1.5685004316e+01 -4.4571101268e+02 4.4598803458e+02 0.0000000000e+00 0.0000e+00 1.0000e+00
      -15  1    1    2    0    0 -9.4475326900e+00 +9.0470326878e+00 -1.6931979095e+01 2.1469846750e+01 1.7770000000e+00 0.0000e+00 1.0000e+00
       15  1    1    2    0    0 +6.3294928747e+01 +3.2400489424e+01 +5.1796975331e+00 7.1316384622e+01 1.7770000000e+00 0.0000e+00 -1.0000e+00
</event>
<event>
 6 1 7.08916e-05 5.01232400e+02 7.54677100e-03 9.39705600e-02
      -11 -1    0    0    0    0 +0.0000000000e+00 +0.0000000000e+00 +5.0000000000e+02 5.0000000000e+02 0.0000000000e+00 0.0000e+00 -1.0000e+00
       11 -1    0    0    0    0 -0.0000000000e+00 -0.0000000000e+00 -5.0000000000e+02 5.0000000000e+02 0.0000000000e+00 0.0000e+00 1.0000e+00
      -11  1    1    2    0    0 +4.8341921206e+00 +5.2606228081e+00 +1.6062746814e+02 1.6078627767e+02 0.0000000000e+00 0.0000e+00 -1.0000e+00
       11  1    1    2    0    0 +1.2402943769e+01 -1.6344646810e-01 -4.9861328639e+02 4.9876755016e+02 0.0000000000e+00 0.0000e+00 1.0000e+00
      -15  1    1    2    0    0 -2.3236452915e+00 +2.6994712817e+00 +2.8793786434e+00 4.9127408861e+00 1.7770000000e+00 0.0000e+00 1.0000e+00
       15  1    1    2    0    0 -1.4913490598e+01 -7.7966476218e+00 +3.3510643961e+02 3.3553343129e+02 1.7770000000e+00 0.0000e+00 -1.0000e+00
</event>
<event>
 6 1 7.08916e-05 4.79589500e+02 7.54677100e-03 9.44667500e-02
      -11 -1    0    0    0    0 +0.0000000000e+00 +0.0000000000e+00 +5.0000000000e+02 5.0000000000e+02 0.0000000000e+00 0.0000e+00 1.0000e+00
       11 -1    0    0    0    0 -0.0000000000e+00 -0.0000000000e+00 -5.0000000000e+02 5.0000000000e+02 0.0000000000e+00 0.0000e+00 1.0000e+00
      -11  1    1    2    0    0 +7.1143694809e+00 +2.3308782270e+00 +4.8325803300e+02 4.8331601846e+02 0.0000000000e+00 0.0000e+00 1.0000e+00
       11  1    1    2    0    0 +6.5311089353e+00 -9.9374735046e-01 -4.7594298272e+02 4.7598882940e+02 0.0000000000e+00 0.0000e+00 1.0000e+00
      -15  1    1    2    0    0 -1.0004763601e+01 +3.2659493298e-01 -2.2607317078e+01 2.4788111534e+01 1.7770000000e+00 0.0000e+00 -1.0000e+00
       15  1    1    2    0    0 -3.6407148150e+00 -1.6637258096e+00 +1.5292266795e+01 1.5907040600e+01 1.7770000000e+00 0.0000e+00 -1.0000e+00
</event>
<event>
 6 1 7.08916e-05 5.17682900e+02 7.54677100e-03 9.36109000e-02
      -11 -1    0    0    0    0 +0.0000000000e+00 +0.0000000000e+00 +5.0000000000e+02 5.0000000000e+02 0.0000000000e+00 0.0000e+00 1.0000e+00
       11 -1    0    0    0    0 -0.0000000000e+00 -0.0000000000e+00 -5.0000000000e+02 5.0000000000e+02 0.0000000000e+00 0.0000e+00 1.0000e+00
      -11  1    1    2    0    0 +3.9846023353e+00 -2.0978136735e+01 +2.7435704944e+02 2.7518675450e+02 0.0000000000e+00 0.0000e+00 1.0000e+00
       11  1    1    2    0    0 +1.0083429527e+01 +1.1223129959e+01 -4.8208103563e+02 4.8231707321e+02 0.0000000000e+00 0.0000e+00 1.0000e+00
      -15  1    1    2    0    0 +1.9360599800e+01 +1.3989685758e+01 +2.0737306129e+02 2.0875173870e+02 1.7770000000e+00 0.0000e+00 1.0000e+00
       15  1    1    2    0    0 -3.3428631662e+01 -4.2346789810e+00 +3.5092490216e-01 3.3744433588e+01 1.7770000000e+00 0.0000e+00 -1.0000e+00
</event>
<event>
 6 1 7.08916e-05 5.20284500e+02 7.54677100e-03 9.35553200e-02
      -11 -1    0    0    0    0 +0.0000000000e+00 +0.0000000000e+00 +5.0000000000e+02 5.0000000000e+02 0.0000000000e+00 0.0000e+00 1.0000e+00
       11 -1    0    0    0    0 -0.0000000000e+00 -0.0000000000e+00 -5.0000000000e+02 5.0000000000e+02 0.0000000000e+00 0.0000e+00 1.0000e+00
      -11  1    1    2    0    0 +4.6457938532e+00 +1.0685955273e+01 +4.7957395834e+02 4.7971549334e+02 0.0000000000e+00 0.0000e+00 1.0000e+00
       11  1    1    2    0    0 -3.1355610524e+01 +1.0758451192e+01 -4.4070005841e+02 4.4194508716e+02 0.0000000000e+00 0.0000e+00 1.0000e+00
      -15  1    1    2    0    0 -1.8657319393e+01 -5.3866781963e+00 -1.4916953442e+01 2.4551682181e+01 1.7770000000e+00 0.0000e+00 -1.0000e+00
       15  1    1    2    0    0 +4.5367136064e+01 -1.6057728269e+01 -2.3956946488e+01 5.3787737319e+01 1.7770000000e+00 0.0000e+00 1.0000e+00
</event>
<event>
 6 1 7.08916e-05 5.00479600e+02 7.54677100e-03 9.39873700e-02
      -11 -1    0    0    0    0 +0.0000000000e+00 +0.0000000000e+00 +5.0000000000e+02 5.0000000000e+02 0.0000000000e+00 0.0000e+00 1.0000e+00
       11 -1    0    0    0    0 -0.0000000000e+00 -0.0000000000e+00 -5.0000000000e+02 5.0000000000e+02 0.0000000000e+00 0.0000e+00 1.0000e+00
      -11  1    1    2    0    0 -5.3645762031e+00 +4.6344134150e+00 +4.9947009764e+02 4.9952040490e+02 0.0000000000e+00 0.0000e+00 1.0000e+00
       11  1    1    2    0    0 +1.7906880548e+00 +2.9634620257e+00 -1.8501146124e+02 1.8504385821e+02 0.0000000000e+00 0.0000e+00 1.0000e+00
      -15  1    1    2    0    0 +8.0159821404e+00 +1.7643386797e+00 -4.5301874044e+01 4.6073705967e+01 1.7770000000e+00 0.0000e+00 -1.0000e+00
       15  1    1    2    0    0 -4.4420939921e+00 -9.3622141204e+00 -2.6915676236e+02 2.6936203093e+02 1.7770000000e+00 0.0000e+00 1.0000e+00
</event>
<event>
 6 1 7.08916e-05 5.00109700e+02 7.54677100e-03 9.39956400e-02
      -11 -1    0    0    0    0 +0.0000000000e+00 +0.0000000000e+00 +5.0000000000e+02 5.0000000000e+02 0.0000000000e+00 0.0000e+00 1.0000e+00
       11 -1    0    0    0    0 -0.0000000000e+00 -0.0000000000e+00 -5.0000000000e+02 5.0000000000e+02 0.0000000000e+00 0.0000e+00 1.0000e+00
      -11  1    1    2    0    0 +1.1855022397e+01 +1.2209955453e+00 +4.9974817943e+02 4.9989026319e+02 0.0000000000e+00 0.0000e+00 1.0000e+00
       11  1    1    2    0    0 -8.2164660752e+00 +1.9572188183e+00 -2.1874985103e+02 2.1891285560e+02 0.0000000000e+00 0.0000e+00 1.0000e+00
      -15  1    1    2    0    0 +2.1381881431e+00 +1.2580561355e+00 -8.8581039612e+01 8.8633587660e+01 1.7770000000e+00 0.0000e+00 -1.0000e+00
       15  1    1    2    0    0 -5.7767444646e+00 -4.4362704991e+00 -1.9241728878e+02 1.9256329355e+02 1.7770000000e+00 0.0000e+00 1.0000e+00
</event>
<event>
 6 1 7.08916e-05 5.04849900e+02 7.54677100e-03 9.38902300e-02
      -11 -1    0    0    0    0 +0.0000000000e+00 +0.0000000000e+00 +5.0000000000e+02 5.0000000000e+02 0.0000000000e+00 0.0000e+00 1.0000e+00
       11 -1    0    0    0    0 -0.0000000000e+00 -0.0000000000e+00 -5.0000000000e+02 5.0000000000e+02 0.0000000000e+00 0.0000e+00 -1.0000e+00
      -11  1    1    2    0    0 +8.8625209556e+00 +1.3247031136e+00 +4.5479768195e+02 4.5488595342e+02 0.0000000000e+00 0.0000e+00 1.0000e+00
       11  1    1    2    0    0 +1.8534376342e+01 -7.7004648342e+00 -4.9474312057e+02 4.9515005364e+02 0.0000000000e+00 0.0000e+00 -1.0000e+00
      -15  1    1    2    0    0 -2.1743503088e+01 +5.2136029470e+00 +2.3695252463e+01 3.2627968072e+01 1.7770000000e+00 0.0000e+00 -1.0000e+00
       15  1    1    2    0    0 -5.6533942087e+00 +1.1621587735e+00 +1.6250186156e+01 1.7336024867e+01 1.7770000000e+00 0.0000e+00 1.0000e+00
</event>
<event>
 6 1 7.08916e-05 5.00760400e+02 7.54677100e-03 9.39811000e-02
      -11 -1    0    0    0    0 +0.0000000000e+00 +0.0000000000e+00 +5.0000000000e+02 5.0000000000e+02 0.0000000000e+00 0.0000e+00 -1.0000e+00
       11 -1    0    0    0    0 -0.0000000000e+00 -0.0000000000e+00 -5.0000000000e+02 5.0000000000e+02 0.0000000000e+00 0.0000e+00 1.0000e+00
      -11  1    1    2    0    0 -5.6832383742e+00 +2.4309698623e+00 +2.5406534439e+02 2.5414052812e+02 0.0000000000e+00 0.0000e+00 -1.0000e+00
       11  1    1    2    0    0 +6.9399324662e+00 -5.7440740585e+00 -4.9915834772e+02 4.9923963500e+02 0.0000000000e+00 0.0000e+00 1.0000e+00
      -15  1    1    2    0    0 -6.6846033129e+00 +6.5852329076e+00 +3.1277556480e+01 3.2703095913e+01 1.7770000000e+00 0.0000e+00 -1.0000e+00
       15  1    1    2    0    0 +5.4279092209e+00 -3.2721287114e+00 +2.1381544686e+02 2.1391674097e+02 1.7770000000e+00 0.0000e+00 -1.0000e+00
</event>
<event>
 6 1 7.08916e-05 5.06189200e+02 7.54677100e-03 9.38606600e-02
      -11 -1    0    0    0    0 +0.0000000000e+00 +0.0000000000e+00 +5.0000000000e+02 5.0000000000e+02 0.0000000000e+00 0.0000e+00 1.0000e+00
       11 -1    0    0    0    0 -0.0000000000e+00 -0.0000000000e+00 -5.0000000000e+02 5.0000000000e+02 0.0000000000e+00 0.0000e+00 -1.0000e+00
      -11  1    1    2    0    0 -4.5589323278e+00 +8.0890773807e+00 +4.9372350887e+02 4.9381081423e+02 0.0000000000e+00 0.0000e+00 1.0000e+00
       11  1    1    2    0    0 -1.9134615678e+01 -7.0965320754e+00 -2.4736065820e+02 2.4820110699e+02 0.0000000000e+00 0.0000e+00 -1.0000e+00
      -15  1    1    2    0    0 +7.1486276416e+00 -8.6337322738e+00 -4.1199936709e-01 1.1356570020e+01 1.7770000000e+00 0.0000e+00 -1.0000e+00
       15  1    1    2    0    0 +1.6544920364e+01 +7.6411869685e+00 -2.4595085130e+02 2.4663150876e+02 1.7770000000e+00 0.0000e+00 1.0000e+00
</event>
<event>
 6 1 7.08916e-05 5.45927400e+02 7.54677100e-03 9.30252900e-02
      -11 -1    0    0    0    0 +0.0000000000e+00 +0.0000000000e+00 +5.0000000000e+02 5.0000000000e+02 0.0000000000e+00 0.0000e+00 -1.0000e+00
       11 -1    0    0    0    0 -0.0000000000e+00 -0.0000000000e+00 -5.0000000000e+02 5.0000000000e+02 0.0000000000e+00 0.0000e+00 -1.0000e+00
      -11  1    1    2    0    0 +5.5344475300e+00 +8.3429828494e+00 +4.5396216658e+02 4.5407255385e+02 0.0000000000e+00 0.0000e+00 -1.0000e+00
       11  1    1    2    0    0 -3.0638894515e+00 -1.4707933062e+00 -1.9701787906e+02 1.9704719059e+02 0.0000000000e+00 0.0000e+00 -1.0000e+00
      -15  1    1    2    0    0 -8.3303286122e+00 -5.2346990157e+00 +4.5390765547e+01 4.6478766921e+01 1.7770000000e+00 0.0000e+00 1.0000e+00
       15  1    1    2    0    0 +5.8597705337e+00 -1.6374905275e+00 -3.0233505307e+02 3.0240148864e+02 1.7770000000e+00 0.0000e+00 -1.0000e+00
</event>
<event>
 6 1 7.08916e-05 5.03246400e+02 7.54677100e-03 9.39257500e-02
      -11 -1    0    0    0    0 +0.0000000000e+00 +0.0000000000e+00 +5.0000000000e+02 5.0000000000e+02 0.0000000000e+00 0.0000e+00 -1.0000e+00
       11 -1    0    0    0    0 -0.0000000000e+00 -0.0000000000e+00 -5.0000000000e+02 5.0000000000e+02 0.0000000000e+00 0.0000e+00 1.0000e+00
      -11  1    1    2    0    0 -6.1036805762e+00 -1.1724255048e+01 +4.3216301603e+02 4.3236510671e+02 0.0000000000e+00 0.0000e+00 -1.0000e+00
       11  1    1    2    0    0 -1.9365969654e+01 +9.4053137036e+00 -4.9628688783e+02 4.9675363686e+02 0.0000000000e+00 0.0000e+00 1.0000e+00
      -15  1    1    2    0    0 +5.0955311236e+00 +7.0635806481e+00 +2.4063902384e+01 2.5653220772e+01 1.7770000000e+00 0.0000e+00 -1.0000e+00
       15  1    1    2    0    0 +2.0374119107e+01 -4.7446393035e+00 +4.0059969407e+01 4.5228035657e+01 1.7770000000e+00 0.0000e+00 1.0000e+00
</event>
<event>
 6 1 7.08916e-05 5.07508900e+02 7.54677100e-03 9.38316300e-02
      -11 -1    0    0    0    0 +0.0000000000e+00 +0.0000000000e+00 +5.0000000000e+02 5.0000000000e+02 0.0000000000e+00 0.0000e+00 1.0000e+00
       11 -1    0    0    0    0 -0.0000000000e+00 -0.0000000000e+00 -5.0000000000e+02 5.0000000000e+02 0.0000000000e+00 0.0000e+00 1.0000e+00
      -11  1    1    2    0    0 +1.0548521634e+01 -1.2579433097e+01 +4.9221738026e+02 4.9249107898e+02 0.0000000000e+00 0.0000e+00 1.0000e+00
       11  1    1    2    0    0 -4.8993038962e+01 -1.0674012456e+01 -1.5388308030e+02 1.6184639265e+02 0.0000000000e+00 0.0000e+00 1.0000e+00
      -15  1    1    2    0    0 +7.1419438307e+00 +6.0442462958e+00 -5.6751537839e+00 1.1086269636e+01 1.7770000000e+00 0.0000e+00 -1.0000e+00
       15  1    1    2    0    0 +3.1302573497e+01 +1.7209199257e+01 -3.3265914617e+02 3.3457625874e+02 1.7770000000e+00 0.0000e+00 1.0000e+00
</event>
<event>
 6 1 7.08916e-05 4.83370500e+02 7.54677100e-03 9.43780800e-02
      -11 -1    0    0    0    0 +0.0000000000e+00 +0.0000000000e+00 +5.0000000000e+02 5.0000000000e+02 0.0000000000e+00 0.0000e+00 1.0000e+00
       11 -1    0    0    0    0 -0.0000000000e+00 -0.0000000000e+00 -5.0000000000e+02 5.0000000000e+02 0.0000000000e+00 0.0000e+00 1.0000e+00
      -11  1    1    2    0    0 +9.1553224421e+00 +2.6575341165e+01 +4.8619080743e+02 4.8700263851e+02 0.0000000000e+00 0.0000e+00 1.0000e+00
       11  1    1    2    0    0 -6.2719796716e+00 -3.2269822115e+00 -4.7999266685e+02 4.8004448895e+02 0.0000000000e+00 0.0000e+00 1.0000e+00
      -15  1    1    2    0    0 -6.3412105177e+00 -2.5730290555e+01 -1.8043084730e+00 2.6620895194e+01 1.7770000000e+00 0.0000e+00 1.0000e+00
       15  1    1    2    0    0 +3.4578677473e+00 +2.3819316019e+00 -4.3938321106e+00 6.3319773476e+00 1.7770000000e+00 0.0000e+00 -1.0000e+00
</event>
<event>
 6 1 7.08916e-05 5.06779000e+02 7.54677100e-03 9.38476800e-02
      -11 -1    0    0    0    0 +0.0000000000e+00 +0.0000000000e+00 +5.0000000000e+02 5.0000000000e+02 0.0000000000e+00 0.0000e+00 1.0000e+00
       11 -1    0    0    0    0 -0.0000000000e+00 -0.0000000000e+00 -5.0000000000e+02 5.0000000000e+02 0.0000000000e+00 0.0000e+00 -1.0000e+00
      -11  1    1    2    0    0 -3.4231363155e+00 -6.7908480441e+00 +4.7890401602e+02 4.7896439329e+02 0.0000000000e+00 0.0000e+00 1.0000e+00
       11  1    1    2    0    0 -9.1311741252e+00 +1.6117545135e+01 -4.9287305136e+02 4.9322104411e+02 0.0000000000e+00 0.0000e+00 -1.0000e+00
      -15  1    1    2    0    0 +7.9197452122e+00 -8.1726742382e+00 -1.4182890248e+00 1.1605353988e+01 1.7770000000e+00 0.0000e+00 1.0000e+00
       15  1    1    2    0    0 +4.6345652285e+00 -1.1540228525e+00 +1.5387324366e+01 1.6209208609e+01 1.7770000000e+00 0.0000e+00 -1.0000e+00
</event>
<event>
 6 1 7.08916e-05 5.06078800e+02 7.54677100e-03 9.38631000e-02
      -11 -1    0    0    0    0 +0.0000000000e+00 +0.0000000000e+00 +5.0000000000e+02 5.0000000000e+02 0.0000000000e+00 0.0000e+00 1.0000e+00
       11 -1    0    0    0    0 -0.0000000000e+00 -0.0000000000e+00 -5.0000000000e+02 5.0000000000e+02 0.0000000000e+00 0.0000e+00 -1.0000e+00
      -11  1    1    2    0    0 -1.4247583953e+00 -2.7784446970e+01 +4.9313702353e+02 4.9392117732e+02 0.0000000000e+00 0.0000e+00 1.0000e+00
       11  1    1    2    0    0 -9.5653799894e+00 +1.3744538081e+01 -1.7482324350e+02 1.7562339049e+02 0.0000000000e+00 0.0000e+00 -1.0000e+00
      -15  1    1    2    0    0 +1.6173222471e+01 -2.1674252977e+01 -2.6295893564e+02 2.6435186008e+02 1.7770000000e+00 0.0000e+00 -1.0000e+00
       15  1    1    2    0    0 -5.1830840860e+00 +3.5714161867e+01 -5.5354844391e+01 6.6103572105e+01 1.7770000000e+00 0.0000e+00 1.0000e+00
</event>
<event>
 6 1 7.08916e-05 5.00494400e+02 7.54677100e-03 9.39870400e-02
      -11 -1    0    0    0    0 +0.0000000000e+00 +0.0000000000e+00 +5.0000000000e+02 5.0000000000e+02 0.0000000000e+00 0.0000e+00 1.0000e+00
       11 -1    0    0    0    0 -0.0000000000e+00 -0.0000000000e+00 -5.0000000000e+02 5.0000000000e+02 0.0000000000e+00 0.0000e+00 -1.0000e+00
      -11  1    1    2    0    0 -3.0918062684e+00 -2.6060492028e+00 +2.2685577143e+02 2.2689180635e+02 0.0000000000e+00 0.0000e+00 1.0000e+00
       11  1    1    2    0    0 -6.2849324856e+00 -5.4911074238e+00 -4.9943582665e+02 4.9950555310e+02 0.0000000000e+00 0.0000e+00 -1.0000e+00
      -15  1    1    2    0    0 -5.7489950100e+00 +1.8245352358e+00 +1.1300290345e+02 1.1317770889e+02 1.7770000000e+00 0.0000e+00 1.0000e+00
       15  1    1    2    0    0 +1.5125733764e+01 +6.2726213908e+00 +1.5957715177e+02 1.6042493166e+02 1.7770000000e+00 0.0000e+00 -1.0000e+00
</event>
<event>
 6 1 7.08916e-05 5.01598000e+02 7.54677100e-03 9.39624100e-02
      -11 -1    0    0    0    0 +0.0000000000e+00 +0.0000000000e+00 +5.0000000000e+02 5.0000000000e+02 0.0000000000e+00 0.0000e+00 1.0000e+00
       11 -1    0    0    0    0 -0.0000000000e+00 -0.0000000000e+00 -5.0000000000e+02 5.0000000000e+02 0.0000000000e+00 0.0000e+00 -1.0000e+00
      -11  1    1    2    0    0 -8.4964743032e+00 +3.6042896054e+00 +1.4609522813e+02 1.4638646338e+02 0.0000000000e+00 0.0000e+00 1.0000e+00
       11  1    1    2    0    0 +2.6438184819e+01 -3.0877687904e+01 -4.9674147798e+02 4.9840195142e+02 0.0000000000e+00 0.0000e+00 -1.0000e+00
      -15  1    1    2    0    0 -1.7889190038e+00 +9.6386098609e+00 +2.8738658270e+02 2.8755922638e+02 1.7770000000e+00 0.0000e+00 -1.0000e+00
       15  1    1    2    0    0 -1.6152791512e+01 +1.7634788438e+01 +6.3259667155e+01 6.7652358824e+01 1.7770000000e+00 0.0000e+00 1.0000e+00
</event>
<event>
 6 1 7.08916e-05 5.05246600e+02 7.54677100e-03 9.38814600e-02
      -11 -1    0    0    0    0 +0.0000000000e+00 +0.0000000000e+00 +5.0000000000e+02 5.0000000000e+02 0.0000000000e+00 0.0000e+00 -1.0000e+00
       11 -1    0    0    0    0 -0.0000000000e+00 -0.0000000000e+00 -5.0000000000e+02 5.0000000000e+02 0.0000000000e+00 0.0000e+00 1.0000e+00
      -11  1    1    2    0    0 -1.4122166656e+01 +2.5665060815e+01 +4.9388538851e+02 4.9475338091e+02 0.0000000000e+00 0.0000e+00 -1.0000e+00
       11  1    1    2    0    0 +2.3234795418e+00 -1.0416316163e+01 -4.7072378146e+02 4.7084474790e+02 0.0000000000e+00 0.0000e+00 1.0000e+00
      -15  1    1    2    0    0 +1.0949060093e+01 -1.5549768093e+01 -2.5153964864e+01 3.1584123892e+01 1.7770000000e+00 0.0000e+00 1.0000e+00
       15  1    1    2    0    0 +8.4962702197e-01 +3.0102344080e-01 +1.9923578114e+00 2.8177472983e+00 1.7770000000e+00 0.0000e+00 -1.0000e+00
</event>
<event>
 6 1 7.08916e-05 5.08026500e+02 7.54677100e-03 9.38202700e-02
      -11 -1    0    0    0    0 +0.0000000000e+00 +0.0000000000e+00 +5.0000000000e+02 5.0000000000e+02 0.0000000000e+00 0.0000e+00 -1.0000e+00
       11 -1    0    0    0    0 -0.0000000000e+00 -0.0000000000e+00 -5.0000000000e+02 5.0000000000e+02 0.0000000000e+00 0.0000e+00 -1.0000e+00
      -11  1    1    2    0    0 +5.5011263134e+00 +4.5895594888e+00 +4.9192133411e+02 4.9197350071e+02 0.0000000000e+00 0.0000e+00 -1.0000e+00
       11  1    1    2    0    0 -1.2481011333e+01 -2.0495762069e+00 -4.6762090257e+02 4.6779192482e+02 0.0000000000e+00 0.0000e+00 -1.0000e+00
      -15  1    1    2    0    0 +3.3141450154e+00 -8.0468167388e-01 -3.1526265143e+01 3.1759946358e+01 1.7770000000e+00 0.0000e+00 -1.0000e+00
       15  1    1    2    0    0 +3.6657400042e+00 -1.7353016080e+00 +7.2258335986e+00 8.4746281124e+00 1.7770000000e+00 0.0000e+00 1.0000e+00
</event>
<event>
 6 1 7.08916e-05 5.08819600e+02 7.54677100e-03 9.38028900e-02
      -11 -1    0    0    0    0 +0.0000000000e+00 +0.0000000000e+00 +5.0000000000e+02 5.0000000000e+02 0.0000000000e+00 0.0000e+00 1.0000e+00
       11 -1    0    0    0    0 -0.0000000000e+00 -0.0000000000e+00 -5.0000000000e+02 5.0000000000e+02 0.0000000000e+00 0.0000e+00 1.0000e+00
      -11  1    1    2    0    0 +3.3338367292e+00 -1.1914535325e+01 +3.4278750391e+02 3.4301070458e+02 0.0000000000e+00 0.0000e+00 1.0000e+00
       11  1    1    2    0    0 -4.8413060365e+00 -4.9902288013e+00 -4.9113116608e+02 4.9118037718e+02 0.0000000000e+00 0.0000e+00 1.0000e+00
      -15  1    1    2    0    0 +9.8094055370e+00 +4.8692307447e+00 +1.5051298939e+02 1.5092134226e+02 1.7770000000e+00 0.0000e+00 1.0000e+00
       15  1    1    2    0    0 -8.3019362297e+00 +1.2035533382e+01 -2.1693272214e+00 1.4887575979e+01 1.7770000000e+00 0.0000e+00 -1.0000e+00
</event>
<event>
 6 1 7.08916e-05 5.26809900e+02 7.54677100e-03 9.34174100e-02
      -11 -1    0    0    0    0 +0.0000000000e+00 +0.0000000000e+00 +5.0000000000e+02 5.0000000000e+02 0.0000000000e+00 0.0000e+00 1.0000e+00
       11 -1    0    0    0    0 -0.0000000000e+00 -0.0000000000e+00 -5.0000000000e+02 5.0000000000e+02 0.0000000000e+00 0.0000e+00 -1.0000e+00
      -11  1    1    2    0    0 +3.3289308479e+01 +4.8651086760e+01 +4.0467540733e+02 4.0894656326e+02 0.0000000000e+00 0.0000e+00 1.0000e+00
       11  1    1    2    0    0 -5.6490339795e+01 +2.3397455198e+01 -4.6922309585e+02 4.7319014474e+02 0.0000000000e+00 0.0000e+00 -1.0000e+00
      -15  1    1    2    0    0 +1.6219762542e+01 -4.4766011748e+01 +2.5145466366e-01 4.7647638590e+01 1.7770000000e+00 0.0000e+00 -1.0000e+00
       15  1    1    2    0    0 +6.9812687734e+00 -2.7282530209e+01 +6.4296233849e+01 7.0215653415e+01 1.7770000000e+00 0.0000e+00 1.0000e+00
</event>
<event>
 6 1 7.08916e-05 5.38009800e+02 7.54677100e-03 9.31855900e-02
      -11 -1    0    0    0    0 +0.0000000000e+00 +0.0000000000e+00 +5.0000000000e+02 5.0000000000e+02 0.0000000000e+00 0.0000e+00 -1.0000e+00
       11 -1    0    0    0    0 -0.0000000000e+00 -0.0000000000e+00 -5.0000000000e+02 5.0000000000e+02 0.0000000000e+00 0.0000e+00 1.0000e+00
      -11  1    1    2    0    0 +3.7527679844e+00 -8.7605025055e+00 +4.6189190151e+02 4.6199021457e+02 0.0000000000e+00 0.0000e+00 -1.0000e+00
       11  1    1    2    0    0 +1.1223189114e+01 -7.7102229928e+00 -4.4529125345e+02 4.4549939160e+02 0.0000000000e+00 0.0000e+00 1.0000e+00
      -15  1    1    2    0    0 -1.2297581426e+01 +3.8249998160e-01 -5.2015301882e+01 5.3480147476e+01 1.7770000000e+00 0.0000e+00 1.0000e+00
       15  1    1    2    0    0 -2.6783756728e+00 +1.6088225517e+01 +3.5414653823e+01 3.9030246360e+01 1.7770000000e+00 0.0000e+00 -1.0000e+00
</event>
<event>
 6 1 7.08916e-05 5.00278200e+02 7.54677100e-03 9.39918700e-02
      -11 -1    0    0    0    0 +0.0000000000e+00 +0.0000000000e+00 +5.0000000000e+02 5.0000000000e+02 0.0000000000e+00 0.0000e+00 1.0000e+00
       11 -1    0    0    0    0 -0.0000000000e+00 -0.0000000000e+00 -5.0000000000e+02 5.0000000000e+02 0.0000000000e+00 0.0000e+00 -1.0000e+00
      -11  1    1    2    0    0 -1.8175428840e+00 +8.1239870868e+00 +4.9965245961e+02 4.9972180563e+02 0.0000000000e+00 0.0000e+00 1.0000e+00
       11  1    1    2    0    0 +5.7470721478e+00 -6.3725886374e+00 -2.8668695147e+02 2.8681535326e+02 0.0000000000e+00 0.0000e+00 -1.0000e+00
      -15  1    1    2    0    0 +4.4666541777e-01 +5.0511407792e+00 -1.2289710699e+02 1.2301451202e+02 1.7770000000e+00 0.0000e+00 -1.0000e+00
       15  1    1    2    0    0 -4.3761946816e+00 -6.8025392286e+00 -9.0068401154e+01 9.0448329090e+01 1.7770000000e+00 0.0000e+00 1.0000e+00
</event>
<event>
 6 1 7.08916e-05 5.08312200e+02 7.54677100e-03 9.38140000e-02
      -11 -1    0    0    0    0 +0.0000000000e+00 +0.0000000000e+00 +5.0000000000e+02 5.0000000000e+02 0.0000000000e+00 0.0000e+00 -1.0000e+00
       11 -1    0    0    0    0 -0.0000000000e+00 -0.0000000000e+00 -5.0000000000e+02 5.0000000000e+02 0.0000000000e+00 0.0000e+00 1.0000e+00
      -11  1    1    2    0    0 -3.2549356653e+00 +1.2919113834e+01 +4.9150731019e+02 4.9168784211e+02 0.0000000000e+00 0.0000e+00 -1.0000e+00
       11  1    1    2    0    0 +3.6776308273e+01 -3.3696161730e+01 -7.9300422905e+01 9.3682897257e+01 0.0000000000e+00 0.0000e+00 1.0000e+00
      -15  1    1    2    0    0 -3.4859417588e+01 +1.9650036097e+01 -4.0550400279e+02 4.0747755389e+02 1.7770000000e+00 0.0000e+00 1.0000e+00
       15  1    1    2    0    0 +1.3380449803e+00 +1.1270117989e+00 -6.7028844893e+00 7.1517067502e+00 1.7770000000e+00 0.0000e+00 -1.0000e+00
</event>
<event>
 6 1 7.08916e-05 5.00861400e+02 7.54677100e-03 9.39788400e-02
      -11 -1    0    0    0    0 +0.0000000000e+00 +0.0000000000e+00 +5.0000000000e+02 5.0000000000e+02 0.0000000000e+00 0.0000e+00 1.0000e+00
       11 -1    0    0    0    0 -0.0000000000e+00 -0.0000000000e+00 -5.0000000000e+02 5.0000000000e+02 0.0000000000e+00 0.0000e+00 -1.0000e+00
      -11  1    1    2    0    0 +2.4843547779e+01 -6.4282468839e+00 +4.9847848673e+02 4.9913858391e+02 0.0000000000e+00 0.0000e+00 1.0000e+00
       11  1    1    2    0    0 -9.7521239547e+00 -7.9105688631e+00 -3.4303620579e+02 3.4326596031e+02 0.0000000000e+00 0.0000e+00 -1.0000e+00
      -15  1    1    2    0    0 -1.2987600922e+01 +1.5606508313e+01 -1.4989082260e+02 1.5127014678e+02 1.7770000000e+00 0.0000e+00 -1.0000e+00
       15  1    1    2    0    0 -2.1038229019e+00 -1.2676925664e+00 -5.5514583313e+00 6.3253089924e+00 1.7770000000e+00 0.0000e+00 1.0000e+00
</event>
<event>
 6 1 7.08916e-05 5.60135200e+02 7.54677100e-03 9.27447400e-02
      -11 -1    0    0    0    0 +0.0000000000e+00 +0.0000000000e+00 +5.0000000000e+02 5.0000000000e+02 0.0000000000e+00 0.0000e+00 1.0000e+00
       11 -1    0    0    0    0 -0.0000000000e+00 -0.0000000000e+00 -5.0000000000e+02 5.0000000000e+02 0.0000000000e+00 0.0000e+00 -1.0000e+00
      -11  1    1    2    0    0 -5.6358948766e+00 +7.9971563136e+00 +4.3975595797e+02 4.3986477512e+02 0.0000000000e+00 0.0000e+00 1.0000e+00
       11  1    1    2    0    0 +5.9568030111e-01 -6.6819495033e+00 -4.0654881157e+02 4.0660415575e+02 0.0000000000e+00 0.0000e+00 -1.0000e+00
      -15  1    1    2    0    0 -1.0095082318e+01 +6.8637402525e+00 -9.1704492115e+01 9.2530498866e+01 1.7770000000e+00 0.0000e+00 1.0000e+00
       15  1    1    2    0    0 +1.5135296894e+01 -8.1789470627e+00 +5.8497345714e+01 6.1000570258e+01 1.7770000000e+00 0.0000e+00 -1.0000e+00
</event>
<event>
 6 1 7.08916e-05 5.27058500e+02 7.54677100e-03 9.34122000e-02
      -11 -1    0    0    0    0 +0.0000000000e+00 +0.0000000000e+00 +5.0000000000e+02 5.0000000000e+02 0.0000000000e+00 0.0000e+00 1.0000e+00
       11 -1    0    0    0    0 -0.0000000000e+00 -0.0000000000e+00 -5.0000000000e+02 5.0000000000e+02 0.0000000000e+00 0.0000e+00 -1.0000e+00
      -11  1    1    2    0    0 -6.5067215656e+00 -1.9964214134e+00 +4.7289249390e+02 4.7294146985e+02 0.0000000000e+00 0.0000e+00 1.0000e+00
       11  1    1    2    0    0 -3.8259844794e+01 -3.2971859481e+01 -4.1759340256e+02 4.2063667113e+02 0.0000000000e+00 0.0000e+00 -1.0000e+00
      -15  1    1    2    0    0 +4.4538060746e+00 +5.6592155670e+00 +1.7024187503e+01 1.8569970342e+01 1.7770000000e+00 0.0000e+00 -1.0000e+00
       15  1    1    2    0    0 +4.0312760285e+01 +2.9309065328e+01 -7.2323278841e+01 8.7851888673e+01 1.7770000000e+00 0.0000e+00 1.0000e+00
</event>
<event>
 6 1 7.08916e-05 5.09622400e+02 7.54677100e-03 9.37853300e-02
      -11 -1    0    0    0    0 +0.0000000000e+00 +0.0000000000e+00 +5.0000000000e+02 5.0000000000e+02 0.0000000000e+00 0.0000e+00 -1.0000e+00
       11 -1    0    0    0    0 -0.0000000000e+00 -0.0000000000e+00 -5.0000000000e+02 5.0000000000e+02 0.0000000000e+00 0.0000e+00 1.0000e+00
      -11  1    1    2    0    0 +7.1536633514e+00 +8.0098069217e+01 +4.8373886038e+02 4.9037756946e+02 0.0000000000e+00 0.0000e+00 -1.0000e+00
       11  1    1    2    0    0 -1.8161789314e+01 -5.6046683716e+00 -3.7521450058e+02 3.7569560065e+02 0.0000000000e+00 0.0000e+00 1.0000e+00
      -15  1    1    2    0    0 -5.7084617963e+00 -2.4017628686e+01 -4.1937604226e+01 4.8696544035e+01 1.7770000000e+00 0.0000e+00 -1.0000e+00
       15  1    1    2    0    0 +1.6716587759e+01 -5.0475772160e+01 -6.6586755565e+01 8.5230285856e+01 1.7770000000e+00 0.0000e+00 1.0000e+00
</event>
<event>
 6 1 7.08916e-05 5.17450200e+02 7.54677100e-03 9.36158800e-02
      -11 -1    0    0    0    0 +0.0000000000e+00 +0.0000000000e+00 +5.0000000000e+02 5.0000000000e+02 0.0000000000e+00 0.0000e+00 -1.0000e+00
       11 -1    0    0    0    0 -0.0000000000e+00 -0.0000000000e+00 -5.0000000000e+02 5.0000000000e+02 0.0000000000e+00 0.0000e+00 1.0000e+00
      -11  1    1    2    0    0 +1.6135043991e+01 +8.4275506712e+00 +4.8220632953e+02 4.8254979794e+02 0.0000000000e+00 0.0000e+00 -1.0000e+00
       11  1    1    2    0    0 -7.6065139317e-01 +5.8353834909e+00 -4.2595777540e+02 4.2599842337e+02 0.0000000000e+00 0.0000e+00 1.0000e+00
      -15  1    1    2    0    0 -5.6253900719e+00 -9.4652012933e+00 +1.5370907784e+01 1.8990986917e+01 1.7770000000e+00 0.0000e+00 1.0000e+00
       15  1    1    2    0    0 -9.7490025260e+00 -4.7977328689e+00 -7.1619461911e+01 7.2460791773e+01 1.7770000000e+00 0.0000e+00 -1.0000e+00
</event>
<event>
 6 1 7.08916e-05 5.00836300e+02 7.54677100e-03 9.39794000e-02
      -11 -1    0    0    0    0 +0.0000000000e+00 +0.0000000000e+00 +5.0000000000e+02 5.0000000000e+02 0.0000000000e+00 0.0000e+00 1.0000e+00
       11 -1    0    0    0    0 -0.0000000000e+00 -0.0000000000e+00 -5.0000000000e+02 5.0000000000e+02 0.0000000000e+00 0.0000e+00 1.0000e+00
      -11  1    1    2    0    0 -1.3899438028e+01 +6.0594013935e+00 +4.9893334650e+02 4.9916369557e+02 0.0000000000e+00 0.0000e+00 1.0000e+00
       11  1    1    2    0    0 -5.1652560027e+00 -4.7529480505e+00 -3.7245525982e+02 3.7252139664e+02 0.0000000000e+00 0.0000e+00 1.0000e+00
      -15  1    1    2    0    0 +3.9210495268e+00 +1.4105786562e+00 -5.4576516461e+01 5.4764205824e+01 1.7770000000e+00 0.0000e+00 -1.0000e+00
       15  1    1    2    0    0 +1.5143644504e+01 -2.7170319992e+00 -7.1901570221e+01 7.3550701975e+01 1.7770000000e+00 0.0000e+00 1.0000e+00
</event>
<event>
 6 1 7.08916e-05 4.86238700e+02 7.54677100e-03 9.43113900e-02
      -11 -1    0    0    0    0 +0.0000000000e+00 +0.0000000000e+00 +5.0000000000e+02 5.0000000000e+02 0.0000000000e+00 0.0000e+00 1.0000e+00
       11 -1    0    0    0    0 -0.0000000000e+00 -0.0000000000e+00 -5.0000000000e+02 5.0000000000e+02 0.0000000000e+00 0.0000e+00 1.0000e+00
      -11  1    1    2    0    0 -9.6765038822e+00 +1.7337030827e+01 +4.8287046328e+02 4.8327848253e+02 0.0000000000e+00 0.0000e+00 1.0000e+00
       11  1    1    2    0    0 +1.6601791224e+01 +6.9483650997e+00 -4.8921652382e+02 4.8954745064e+02 0.0000000000e+00 0.0000e+00 1.0000e+00
      -15  1    1    2    0    0 -4.8519703600e+00 -1.7422264839e+01 +7.5716824503e+00 1.9686671446e+01 1.7770000000e+00 0.0000e+00 1.0000e+00
       15  1    1    2    0    0 -2.0733169819e+00 -6.8631310880e+00 -1.2256219146e+00 7.4873953893e+00 1.7770000000e+00 0.0000e+00 -1.0000e+00
</event>
<event>
 6 1 7.08916e-05 5.14144400e+02 7.54677100e-03 9.36870500e-02
      -11 -1    0    0    0    0 +0.0000000000e+00 +0.0000000000e+00 +5.0000000000e+02 5.0000000000e+02 0.0000000000e+00 0.0000e+00 -1.0000e+00
       11 -1    0    0    0    0 -0.0000000000e+00 -0.0000000000e+00 -5.0000000000e+02 5.0000000000e+02 0.0000000000e+00 0.0000e+00 1.0000e+00
      -11  1    1    2    0    0 -1.8833139562e+01 -4.2831327198e-01 +4.8549028689e+02 4.8585562594e+02 0.0000000000e+00 0.0000e+00 -1.0000e+00
       11  1    1    2    0    0 -1.0516875574e-01 -2.6404356596e+01 -1.9251559749e+02 1.9431792605e+02 0.0000000000e+00 0.0000e+00 1.0000e+00
      -15  1    1    2    0    0 +1.2623273643e+01 -2.5705539962e+01 -2.4998197153e+02 2.5162326133e+02 1.7770000000e+00 0.0000e+00 1.0000e+00
       15  1    1    2    0    0 +6.3150346741e+00 +5.2538209830e+01 -4.2992717868e+01 6.8203186683e+01 1.7770000000e+00 0.0000e+00 -1.0000e+00
</event>
<event>
 6 1 7.08916e-05 5.00648000e+02 7.54677100e-03 9.39836100e-02
      -11 -1    0    0    0    0 +0.0000000000e+00 +0.0000000000e+00 +5.0000000000e+02 5.0000000000e+02 0.0000000000e+00 0.0000e+00 1.0000e+00
       11 -1    0    0    0    0 -0.0000000000e+00 -0.0000000000e+00 -5.0000000000e+02 5.0000000000e+02 0.0000000000e+00 0.0000e+00 1.0000e+00
      -11  1    1    2    0    0 -6.5337647497e+00 +2.1371408295e+00 +4.9930470416e+02 4.9935202518e+02 0.0000000000e+00 0.0000e+00 1.0000e+00
       11  1    1    2    0    0 -5.8752395475e+00 +3.5713967294e+00 -3.4620783868e+02 3.4627610497e+02 0.0000000000e+00 0.0000e+00 1.0000e+00
      -15  1    1    2    0    0 +1.0257563120e+01 -4.9452276300e+00 -1.4845914001e+02 1.4890583218e+02 1.7770000000e+00 0.0000e+00 1.0000e+00
       15  1    1    2    0    0 +2.1514411770e+00 -7.6330992882e-01 -4.6377254766e+00 5.4660376674e+00 1.7770000000e+00 0.0000e+00 -1.0000e+00
</event>
<event>
 6 1 7.08916e-05 5.14190500e+02 7.54677100e-03 9.36860500e-02
      -11 -1    0    0    0    0 +0.0000000000e+00 +0.0000000000e+00 +5.0000000000e+02 5.0000000000e+02 0.0000000000e+00 0.0000e+00 -1.0000e+00
       11 -1    0    0    0    0 -0.0000000000e+00 -0.0000000000e+00 -5.0000000000e+02 5.0000000000e+02 0.0000000000e+00 0.0000e+00 -1.0000e+00
      -11  1    1    2    0    0 -1.6849797985e+00 -1.1365892518e+01 +1.9327935912e+02 1.9362059119e+02 0.0000000000e+00 0.0000e+00 -1.0000e+00
       11  1    1    2    0    0 +2.8958449304e+01 +1.7227363253e+01 -4.8463955554e+02 4.8580950240e+02 0.0000000000e+00 0.0000e+00 -1.0000e+00
      -15  1    1    2    0    0 -1.5245868459e+00 +9.9319937616e+00 +2.9010568384e+02 2.9028509157e+02 1.7770000000e+00 0.0000e+00 -1.0000e+00
       15  1    1    2    0    0 -2.5748882659e+01 -1.5793464496e+01 +1.2545125811e+00 3.0284814839e+01 1.7770000000e+00 0.0000e+00 1.0000e+00
</event>
<event>
 6 1 7.08916e-05 4.66315300e+02 7.54677100e-03 9.47850600e-02
      -11 -1    0    0    0    0 +0.0000000000e+00 +0.0000000000e+00 +5.0000000000e+02 5.0000000000e+02 0.0000000000e+00 0.0000e+00 1.0000e+00
       11 -1    0    0    0    0 -0.0000000000e+00 -0.0000000000e+00 -5.0000000000e+02 5.0000000000e+02 0.0000000000e+00 0.0000e+00 1.0000e+00
      -11  1    1    2    0    0 +2.1965797972e+01 -2.5462877281e+01 +4.7472075446e+02 4.7591033726e+02 0.0000000000e+00 0.0000e+00 1.0000e+00
       11  1    1    2    0    0 +8.8010437175e+00 +1.1685210683e+01 -4.5725878734e+02 4.5749273341e+02 0.0000000000e+00 0.0000e+00 1.0000e+00
      -15  1    1    2    0    0 -2.4810072043e+01 +2.1327072608e+01 +1.2508438408e+01 3.5071390922e+01 1.7770000000e+00 0.0000e+00 -1.0000e+00
       15  1    1    2    0    0 -5.9567696468e+00 -7.5494060104e+00 -2.9970405525e+01 3.1525538410e+01 1.7770000000e+00 0.0000e+00 1.0000e+00
</event>
<event>
 6 1 7.08916e-05 5.01524900e+02 7.54677100e-03 9.39640400e-02
      -11 -1    0    0    0    0 +0.0000000000e+00 +0.0000000000e+00 +5.0000000000e+02 5.0000000000e+02 0.0000000000e+00 0.0000e+00 1.0000e+00
       11 -1    0    0    0    0 -0.0000000000e+00 -0.0000000000e+00 -5.0000000000e+02 5.0000000000e+02 0.0000000000e+00 0.0000e+00 1.0000e+00
      -11  1    1    2    0    0 -1.3420474513e+01 +8.2417554415e-01 +4.9829372435e+02 4.9847509880e+02 0.0000000000e+00 0.0000e+00 1.0000e+00
       11  1    1    2    0    0 +9.4044193551e+00 +3.7262316006e+00 -4.5795943382e+02 4.5807114178e+02 0.0000000000e+00 0.0000e+00 1.0000e+00
      -15  1    1    2    0    0 -4.4945580090e-01 +2.3450424436e-01 +6.1432477219e-01 1.9473383587e+00 1.7770000000e+00 0.0000e+00 1.0000e+00
       15  1    1    2    0    0 +4.4655109590e+00 -4.7849113891e+00 -4.0948615304e+01 4.1506421063e+01 1.7770000000e+00 0.0000e+00 -1.0000e+00
</event>
<event>
 6 1 7.08916e-05 5.02330600e+02 7.54677100e-03 9.39461000e-02
      -11 -1    0    0    0    0 +0.0000000000e+00 +0.0000000000e+00 +5.0000000000e+02 5.0000000000e+02 0.0000000000e+00 0.0000e+00 -1.0000e+00
       11 -1    0    0    0    0 -0.0000000000e+00 -0.0000000000e+00 -5.0000000000e+02 5.0000000000e+02 0.0000000000e+00 0.0000e+00 1.0000e+00
      -11  1    1    2    0    0 +2.0444399054e+00 -6.9036266831e+00 +4.9761726719e+02 4.9766935249e+02 0.0000000000e+00 0.0000e+00 -1.0000e+00
       11  1    1    2    0    0 -3.6478277219e+00 +3.0896388758e+00 -2.7123044210e+02 2.7127256632e+02 0.0000000000e+00 0.0000e+00 1.0000e+00
      -15  1    1    2    0    0 -3.9810773266e+00 -4.2860717499e+00 -2.1778043431e+02 2.1786623117e+02 1.7770000000e+00 0.0000e+00 1.0000e+00
       15  1    1    2    0    0 +5.5844651431e+00 +8.1000595572e+00 -8.6063907801e+00 1.3191850023e+01 1.7770000000e+00 0.0000e+00 -1.0000e+00
</event>
<event>
 6 1 7.08916e-05 5.03652000e+02 7.54677100e-03 9.39167500e-02
      -11 -1    0    0    0    0 +0.0000000000e+00 +0.0000000000e+00 +5.0000000000e+02 5.0000000000e+02 0.0000000000e+00 0.0000e+00 -1.0000e+00
       11 -1    0    0    0    0 -0.0000000000e+00 -0.0000000000e+00 -5.0000000000e+02 5.0000000000e+02 0.0000000000e+00 0.0000e+00 1.0000e+00
      -11  1    1    2    0    0 -9.4518475104e+00 +1.9844553534e+01 +4.9586102634e+02 4.9634796381e+02 0.0000000000e+00 0.0000e+00 -1.0000e+00
       11  1    1    2    0    0 -5.5973512581e+00 -4.1423789804e+00 -3.4577877275e+02 3.4584888222e+02 0.0000000000e+00 0.0000e+00 1.0000e+00
      -15  1    1    2    0    0 +2.7784288582e+01 -2.7886684396e+00 -1.1395511000e+02 1.1733996842e+02 1.7770000000e+00 0.0000e+00 -1.0000e+00
       15  1    1    2    0    0 -1.2735089813e+01 -1.2913506114e+01 -3.6127143588e+01 4.0463185558e+01 1.7770000000e+00 0.0000e+00 1.0000e+00
</event>
<event>
 6 1 7.08916e-05 5.06276800e+02 7.54677100e-03 9.38587300e-02
      -11 -1    0    0    0    0 +0.0000000000e+00 +0.0000000000e+00 +5.0000000000e+02 5.0000000000e+02 0.0000000000e+00 0.0000e+00 1.0000e+00
       11 -1    0    0    0    0 -0.0000000000e+00 -0.0000000000e+00 -5.0000000000e+02 5.0000000000e+02 0.0000000000e+00 0.0000e+00 1.0000e+00
      -11  1    1    2    0    0 +9.9577492538e+00 +1.0119866569e+01 +4.9351903881e+02 4.9372321207e+02 0.0000000000e+00 0.0000e+00 1.0000e+00
       11  1    1    2    0    0 -1.3816811409e+00 -8.7452270916e+00 -4.7588808282e+02 4.7597043543e+02 0.0000000000e+00 0.0000e+00 1.0000e+00
      -15  1    1    2    0    0 -1.1081612940e+01 -2.3316778823e+00 +9.0005367062e-01 1.1498116920e+01 1.7770000000e+00 0.0000e+00 -1.0000e+00
       15  1    1    2    0    0 +2.5055448273e+00 +9.5703840495e-01 -1.8531009661e+01 1.8808235575e+01 1.7770000000e+00 0.0000e+00 1.0000e+00
</event>
<event>
 6 1 7.08916e-05 5.04456100e+02 7.54677100e-03 9.38989400e-02
      -11 -1    0    0    0    0 +0.0000000000e+00 +0.0000000000e+00 +5.0000000000e+02 5.0000000000e+02 0.0000000000e+00 0.0000e+00 1.0000e+00
       11 -1    0    0    0    0 -0.0000000000e+00 -0.0000000000e+00 -5.0000000000e+02 5.0000000000e+02 0.0000000000e+00 0.0000e+00 -1.0000e+00
      -11  1    1    2    0    0 +8.8425432243e+00 -1.7918225478e+01 +4.1980016295e+02 4.2027542183e+02 0.0000000000e+00 0.0000e+00 1.0000e+00
       11  1    1    2    0    0 +1.0173624847e+01 +1.0887005615e-01 -4.9543939592e+02 4.9554385227e+02 0.0000000000e+00 0.0000e+00 -1.0000e+00
      -15  1    1    2    0    0 +4.3504795785e-01 +1.2120707236e+01 +4.9840966099e+01 5.1326215927e+01 1.7770000000e+00 0.0000e+00 1.0000e+00
       15  1    1    2    0    0 -1.9451216029e+01 +5.6886481853e+00 +2.5798266867e+01 3.2854509973e+01 1.7770000000e+00 0.0000e+00 -1.0000e+00
</event>
<event>
 6 1 7.08916e-05 5.03677000e+02 7.54677100e-03 9.39162000e-02
      -11 -1    0    0    0    0 +0.0000000000e+00 +0.0000000000e+00 +5.0000000000e+02 5.0000000000e+02 0.0000000000e+00 0.0000e+00 -1.0000e+00
       11 -1    0    0    0    0 -0.0000000000e+00 -0.0000000000e+00 -5.0000000000e+02 5.0000000000e+02 0.0000000000e+00 0.0000e+00 -1.0000e+00
      -11  1    1    2    0    0 -1.1184999638e+01 -1.2762362648e+01 +4.9603281447e+02 4.9632301493e+02 0.0000000000e+00 0.0000e+00 -1.0000e+00
       11  1    1    2    0    0 +1.2325643784e+01 -1.8304642349e+00 -4.0741596096e+02 4.0760647362e+02 0.0000000000e+00 0.0000e+00 -1.0000e+00
      -15  1    1    2    0    0 +6.3969187627e+00 -4.3249899704e-01 -8.6945979027e-01 6.7097924235e+00 1.7770000000e+00 0.0000e+00 -1.0000e+00
       15  1    1    2    0    0 -7.5375629086e+00 +1.5025325880e+01 -8.7747393721e+01 8.9360719034e+01 1.7770000000e+00 0.0000e+00 1.0000e+00
</event>
<event>
 6 1 7.08916e-05 5.01353200e+02 7.54677100e-03 9.39678700e-02
      -11 -1    0    0    0    0 +0.0000000000e+00 +0.0000000000e+00 +5.0000000000e+02 5.0000000000e+02 0.0000000000e+00 0.0000e+00 1.0000e+00
       11 -1    0    0    0    0 -0.0000000000e+00 -0.0000000000e+00 -5.0000000000e+02 5.0000000000e+02 0.0000000000e+00 0.0000e+00 1.0000e+00
      -11  1    1    2    0    0 +1.7786862482e+01 +2.2223353623e+01 +1.0765946129e+02 1.1135892209e+02 0.0000000000e+00 0.0000e+00 1.0000e+00
       11  1    1    2    0    0 -1.4990391615e+01 -3.5915032871e+01 -4.9712575545e+02 4.9864678697e+02 0.0000000000e+00 0.0000e+00 1.0000e+00
      -15  1    1    2    0    0 +4.1142907277e+00 +1.0730567748e+00 +1.6261784668e+02 1.6268312951e+02 1.7770000000e+00 0.0000e+00 -1.0000e+00
       15  1    1    2    0    0 -6.9107615948e+00 +1.2618622473e+01 +2.2684844748e+02 2.2731116143e+02 1.7770000000e+00 0.0000e+00 1.0000e+00
</event>
<event>
 6 1 7.08916e-05 5.09126600e+02 7.54677100e-03 9.37961700e-02
      -11 -1    0    0    0    0 +0.0000000000e+00 +0.0000000000e+00 +5.0000000000e+02 5.0000000000e+02 0.0000000000e+00 0.0000e+00 -1.0000e+00
       11 -1    0    0    0    0 -0.0000000000e+00 -0.0000000000e+00 -5.0000000000e+02 5.0000000000e+02 0.0000000000e+00 0.0000e+00 1.0000e+00
      -11  1    1    2    0    0 +9.3821000749e+00 +1.0253645667e+01 +4.7155261557e+02 4.7175738500e+02 0.0000000000e+00 0.0000e+00 -1.0000e+00
       11  1    1    2    0    0 -4.1600050604e+00 -7.1881788724e+00 -4.9080309858e+02 4.9087336160e+02 0.0000000000e+00 0.0000e+00 1.0000e+00
      -15  1    1    2    0    0 -6.4167382861e+00 -1.1654676972e+01 +2.3869439276e+01 2.7384555609e+01 1.7770000000e+00 0.0000e+00 1.0000e+00
       15  1    1    2    0    0 +1.1946432716e+00 +8.5892101773e+00 -4.6189562642e+00 9.9846977915e+00 1.7770000000e+00 0.0000e+00 -1.0000e+00
</event>
<event>
 6 1 7.08916e-05 5.02436600e+02 7.54677100e-03 9.39437400e-02
      -11 -1    0    0    0    0 +0.0000000000e+00 +0.0000000000e+00 +5.0000000000e+02 5.0000000000e+02 0.0000000000e+00 0.0000e+00 1.0000e+00
       11 -1    0    0    0    0 -0.0000000000e+00 -0.0000000000e+00 -5.0000000000e+02 5.0000000000e+02 0.0000000000e+00 0.0000e+00 1.0000e+00
      -11  1    1    2    0    0 -8.9609057895e+00 +1.2918963370e+00 +4.9748100809e+02 4.9756338313e+02 0.0000000000e+00 0.0000e+00 1.0000e+00
       11  1    1    2    0    0 +6.3779204028e+00 +8.8621876124e+00 -4.7042858985e+02 4.7055528303e+02 0.0000000000e+00 0.0000e+00 1.0000e+00
      -15  1    1    2    0    0 -3.9477199894e+00 -8.2786874665e+00 -1.1498778432e+01 1.4815559176e+01 1.7770000000e+00 0.0000e+00 1.0000e+00
       15  1    1    2    0    0 +6.5307053760e+00 -1.8753964829e+00 -1.5553639800e+01 1.7065774659e+01 1.7770000000e+00 0.0000e+00 -1.0000e+00
</event>
<event>
 6 1 7.08916e-05 5.07883400e+02 7.54677100e-03 9.38234100e-02
      -11 -1    0    0    0    0 +0.0000000000e+00 +0.0000000000e+00 +5.0000000000e+02 5.0000000000e+02 0.0000000000e+00 0.0000e+00 -1.0000e+00
       11 -1    0    0    0    0 -0.0000000000e+00 -0.0000000000e+00 -5.0000000000e+02 5.0000000000e+02 0.0000000000e+00 0.0000e+00 -1.0000e+00
      -11  1    1    2    0    0 -9.2592105207e+00 +3.9816324337e+00 +4.4397127152e+02 4.4408566326e+02 0.0000000000e+00 0.0000e+00 -1.0000e+00
       11  1    1    2    0    0 -3.1555129704e+00 +1.2163092047e+01 -4.9195613076e+02 4.9211658442e+02 0.0000000000e+00 0.0000e+00 -1.0000e+00
      -15  1    1    2    0    0 -7.2657755839e-02 -5.8154086275e+00 +4.7078448741e+01 4.7469593652e+01 1.7770000000e+00 0.0000e+00 -1.0000e+00
       15  1    1    2    0    0 +1.2487381247e+01 -1.0329315853e+01 +9.0641050065e-01 1.6328158665e+01 1.7770000000e+00 0.0000e+00 1.0000e+00
</event>
<event>
 6 1 7.08916e-05 5.00163600e+02 7.54677100e-03 9.39944400e-02
      -11 -1    0    0    0    0 +0.0000000000e+00 +0.0000000000e+00 +5.0000000000e+02 5.0000000000e+02 0.0000000000e+00 0.0000e+00 1.0000e+00
       11 -1    0    0    0    0 -0.0000000000e+00 -0.0000000000e+00 -5.0000000000e+02 5.0000000000e+02 0.0000000000e+00 0.0000e+00 -1.0000e+00
      -11  1    1    2    0    0 +2.1387305517e+00 -6.6899408524e+00 +4.9978709415e+02 4.9983644220e+02 0.0000000000e+00 0.0000e+00 1.0000e+00
       11  1    1    2    0    0 +4.8586656203e+00 +1.3327062666e+00 -2.4662746895e+02 2.4667892325e+02 0.0000000000e+00 0.0000e+00 -1.0000e+00
      -15  1    1    2    0    0 -3.7750524807e+00 +7.2794808912e+00 -1.9273818821e+02 1.9292073187e+02 1.7770000000e+00 0.0000e+00 1.0000e+00
       15  1    1    2    0    0 -3.2223436912e+00 -1.9222463054e+00 -6.0421436987e+01 6.0563902668e+01 1.7770000000e+00 0.0000e+00 -1.0000e+00
</event>
<event>
 6 1 7.08916e-05 5.16545900e+02 7.54677100e-03 9.36352900e-02
      -11 -1    0    0    0    0 +0.0000000000e+00 +0.0000000000e+00 +5.0000000000e+02 5.0000000000e+02 0.0000000000e+00 0.0000e+00 1.0000e+00
       11 -1    0    0    0    0 -0.0000000000e+00 -0.0000000000e+00 -5.0000000000e+02 5.0000000000e+02 0.0000000000e+00 0.0000e+00 -1.0000e+00
      -11  1    1    2    0    0 +1.5012248399e+01 -1.3774672214e+00 +4.8321895620e+02 4.8345405640e+02 0.0000000000e+00 0.0000e+00 1.0000e+00
       11  1    1    2    0    0 +5.3004364169e+00 +2.1908225640e+00 -2.7767232985e+02 2.7773155581e+02 0.0000000000e+00 0.0000e+00 -1.0000e+00
      -15  1    1    2    0    0 -7.8077463567e+00 -2.1211165344e-01 -2.1969380703e+02 2.1983978819e+02 1.7770000000e+00 0.0000e+00 -1.0000e+00
       15  1    1    2    0    0 -1.2504938460e+01 -6.0124368919e-01 +1.4147180680e+01 1.8974599602e+01 1.7770000000e+00 0.0000e+00 1.0000e+00
</event>
<event>
 6 1 7.08916e-05 5.03088100e+02 7.54677100e-03 9.39292600e-02
      -11 -1    0    0    0    0 +0.0000000000e+00 +0.0000000000e+00 +5.0000000000e+02 5.0000000000e+02 0.0000000000e+00 0.0000e+00 -1.0000e+00
       11 -1    0    0    0    0 -0.0000000000e+00 -0.0000000000e+00 -5.0000000000e+02 5.0000000000e+02 0.0000000000e+00 0.0000e+00 1.0000e+00
      -11  1    1    2    0    0 -1.0815552615e+01 -4.8180334001e+00 +3.2331182504e+02 3.2352855489e+02 0.0000000000e+00 0.0000e+00 -1.0000e+00
       11  1    1    2    0    0 -7.9558797500e-01 -3.0936449271e+01 -4.9594728794e+02 4.9691187274e+02 0.0000000000e+00 0.0000e+00 1.0000e+00
      -15  1    1    2    0    0 -1.4874256857e+00 +1.7598339924e+01 +1.3150119054e+02 1.3269376340e+02 1.7770000000e+00 0.0000e+00 -1.0000e+00
       15  1    1    2    0    0 +1.3098566276e+01 +1.8156142748e+01 +4.1134272362e+01 4.6865808963e+01 1.7770000000e+00 0.0000e+00 1.0000e+00
</event>
<event>
 6 1 7.08916e-05 4.99539000e+02 7.54677100e-03 9.40084200e-02
      -11 -1    0    0    0    0 +0.0000000000e+00 +0.0000000000e+00 +5.0000000000e+02 5.0000000000e+02 0.0000000000e+00 0.0000e+00 1.0000e+00
       11 -1    0    0    0    0 -0.0000000000e+00 -0.0000000000e+00 -5.0000000000e+02 5.0000000000e+02 0.0000000000e+00 0.0000e+00 -1.0000e+00
      -11  1    1    2    0    0 +7.8373072569e+00 -6.8146875464e+00 +4.9384941750e+02 4.9395861215e+02 0.0000000000e+00 0.0000e+00 1.0000e+00
       11  1    1    2    0    0 -5.8977444939e+00 -5.7910959574e-01 +1.0164902129e+00 6.0126541886e+00 0.0000000000e+00 0.0000e+00 -1.0000e+00
      -15  1    1    2    0    0 -3.6459787231e+01 +5.4148972121e+00 -2.7112787501e+02 2.7362770243e+02 1.7770000000e+00 0.0000e+00 -1.0000e+00
       15  1    1    2    0    0 +3.4520224468e+01 +1.9788999301e+00 -2.2373803270e+02 2.2640103124e+02 1.7770000000e+00 0.0000e+00 1.0000e+00
</event>
<event>
 6 1 7.08916e-05 5.01799900e+02 7.54677100e-03 9.39579100e-02
      -11 -1    0    0    0    0 +0.0000000000e+00 +0.0000000000e+00 +5.0000000000e+02 5.0000000000e+02 0.0000000000e+00 0.0000e+00 -1.0000e+00
       11 -1    0    0    0    0 -0.0000000000e+00 -0.0000000000e+00 -5.0000000000e+02 5.0000000000e+02 0.0000000000e+00 0.0000e+00 -1.0000e+00
      -11  1    1    2    0    0 +1.0082269353e+01 +5.3592111426e+00 +4.9806927672e+02 4.9820013821e+02 0.0000000000e+00 0.0000e+00 -1.0000e+00
       11  1    1    2    0    0 -1.3627125153e+01 -2.0296817529e+00 -4.6309088050e+02 4.6329578214e+02 0.0000000000e+00 0.0000e+00 -1.0000e+00
      -15  1    1    2    0    0 -3.5408516560e+00 -6.4524125883e+00 -1.1980007687e+01 1.4172140694e+01 1.7770000000e+00 0.0000e+00 1.0000e+00
       15  1    1    2    0    0 +7.0857074555e+00 +3.1228831986e+00 -2.2998388531e+01 2.4331938961e+01 1.7770000000e+00 0.0000e+00 -1.0000e+00
</event>
<event>
 6 1 7.08916e-05 5.03967800e+02 7.54677100e-03 9.39097500e-02
      -11 -1    0    0    0    0 +0.0000000000e+00 +0.0000000000e+00 +5.0000000000e+02 5.0000000000e+02 0.0000000000e+00 0.0000e+00 1.0000e+00
       11 -1    0    0    0    0 -0.0000000000e+00 -0.0000000000e+00 -5.0000000000e+02 5.0000000000e+02 0.0000000000e+00 0.0000e+00 -1.0000e+00
      -11  1    1    2    0    0 +4.8725763140e+00 -1.1644035491e+01 +4.0053902920e+02 4.0073786878e+02 0.0000000000e+00 0.0000e+00 1.0000e+00
       11  1    1    2    0    0 +9.9568756167e-02 -1.5996045729e+01 -4.9577419611e+02 4.9603219343e+02 0.0000000000e+00 0.0000e+00 -1.0000e+00
      -15  1    1    2    0    0 -5.7187106777e+00 +2.2715861067e+01 +3.1600446847e+01 3.9375880508e+01 1.7770000000e+00 0.0000e+00 -1.0000e+00
       15  1    1    2    0    0 +7.4656560752e-01 +4.9242201523e+00 +6.3634720066e+01 6.3854057280e+01 1.7770000000e+00 0.0000e+00 1.0000e+00
</event>
<event>
 6 1 7.08916e-05 5.00098100e+02 7.54677100e-03 9.39959000e-02
      -11 -1    0    0    0    0 +0.0000000000e+00 +0.0000000000e+00 +5.0000000000e+02 5.0000000000e+02 0.0000000000e+00 0.0000e+00 1.0000e+00
       11 -1    0    0    0    0 -0.0000000000e+00 -0.0000000000e+00 -5.0000000000e+02 5.0000000000e+02 0.0000000000e+00 0.0000e+00 -1.0000e+00
      -11  1    1    2    0    0 -2.6269788020e+00 -5.1921992359e+00 +3.5813731485e+02 3.5818458404e+02 0.0000000000e+00 0.0000e+00 1.0000e+00
       11  1    1    2    0    0 +6.2398256717e+00 +2.8117982704e+00 -4.9985500466e+02 4.9990185769e+02 0.0000000000e+00 0.0000e+00 -1.0000e+00
      -15  1    1    2    0    0 -5.8996373963e-01 +3.0469645769e+00 +9.1106577270e+01 9.1176741559e+01 1.7770000000e+00 0.0000e+00 1.0000e+00
       15  1    1    2    0    0 -3.0228831301e+00 -6.6656361146e-01 +5.0611112538e+01 5.0736816719e+01 1.7770000000e+00 0.0000e+00 -1.0000e+00
</event>
<event>
 6 1 7.08916e-05 5.18294500e+02 7.54677100e-03 9.35978000e-02
      -11 -1    0    0    0    0 +0.0000000000e+00 +0.0000000000e+00 +5.0000000000e+02 5.0000000000e+02 0.0000000000e+00 0.0000e+00 -1.0000e+00
       11 -1    0    0    0    0 -0.0000000000e+00 -0.0000000000e+00 -5.0000000000e+02 5.0000000000e+02 0.0000000000e+00 0.0000e+00 1.0000e+00
      -11  1    1    2    0    0 +4.4138247641e+00 -6.7226563738e+00 +4.8163839074e+02 4.8170552767e+02 0.0000000000e+00 0.0000e+00 -1.0000e+00
       11  1    1    2    0    0 +4.4321612260e+00 +8.2188941971e+00 -4.3226106890e+02 4.3236191548e+02 0.0000000000e+00 0.0000e+00 1.0000e+00
      -15  1    1    2    0    0 -1.1040720404e+01 -1.4377730221e+00 -6.7072408797e+01 6.8013457853e+01 1.7770000000e+00 0.0000e+00 -1.0000e+00
       15  1    1    2    0    0 +2.1947344141e+00 -5.8464801223e-02 +1.7695086956e+01 1.7919098991e+01 1.7770000000e+00 0.0000e+00 1.0000e+00
</event>
<event>
 6 1 7.08916e-05 4.86562400e+02 7.54677100e-03 9.43039000e-02
      -11 -1    0    0    0    0 +0.0000000000e+00 +0.0000000000e+00 +5.0000000000e+02 5.0000000000e+02 0.0000000000e+00 0.0000e+00 -1.0000e+00
       11 -1    0    0    0    0 -0.0000000000e+00 -0.0000000000e+00 -5.0000000000e+02 5.0000000000e+02 0.0000000000e+00 0.0000e+00 -1.0000e+00
      -11  1    1    2    0    0 -1.1248812486e+01 -4.6027661007e+00 +4.9072187155e+02 4.9087236269e+02 0.0000000000e+00 0.0000e+00 -1.0000e+00
       11  1    1    2    0    0 +4.1867778189e+00 -7.8377408824e+00 -4.8231213300e+02 4.8239398102e+02 0.0000000000e+00 0.0000e+00 -1.0000e+00
      -15  1    1    2    0    0 +9.4152499653e+00 +3.3143113124e+00 +4.1293809898e+00 1.0947196342e+01 1.7770000000e+00 0.0000e+00 1.0000e+00
       15  1    1    2    0    0 -2.3532152985e+00 +9.1261956707e+00 -1.2539119541e+01 1.5786459943e+01 1.7770000000e+00 0.0000e+00 -1.0000e+00
</event>
<event>
 6 1 7.08916e-05 5.11475700e+02 7.54677100e-03 9.37449200e-02
      -11 -1    0    0    0    0 +0.0000000000e+00 +0.0000000000e+00 +5.0000000000e+02 5.0000000000e+02 0.0000000000e+00 0.0000e+00 1.0000e+00
       11 -1    0    0    0    0 -0.0000000000e+00 -0.0000000000e+00 -5.0000000000e+02 5.0000000000e+02 0.0000000000e+00 0.0000e+00 -1.0000e+00
      -11  1    1    2    0    0 -5.2940981068e+00 +1.0534809797e+01 +4.8838203723e+02 4.8852433305e+02 0.0000000000e+00 0.0000e+00 1.0000e+00
       11  1    1    2    0    0 -4.6693037942e+00 +2.1400142466e+01 -4.3366992598e+02 4.3422272303e+02 0.0000000000e+00 0.0000e+00 -1.0000e+00
      -15  1    1    2    0    0 +1.6416000190e+01 -2.7674224688e+01 -5.9727544112e+01 6.7866670973e+01 1.7770000000e+00 0.0000e+00 1.0000e+00
       15  1    1    2    0    0 -6.4525982893e+00 -4.2607275747e+00 +5.0154328586e+00 9.3862729509e+00 1.7770000000e+00 0.0000e+00 -1.0000e+00
</event>
<event>
 6 1 7.08916e-05 5.00590900e+02 7.54677100e-03 9.39848900e-02
      -11 -1    0    0    0    0 +0.0000000000e+00 +0.0000000000e+00 +5.0000000000e+02 5.0000000000e+02 0.0000000000e+00 0.0000e+00 -1.0000e+00
       11 -1    0    0    0    0 -0.0000000000e+00 -0.0000000000e+00 -5.0000000000e+02 5.0000000000e+02 0.0000000000e+00 0.0000e+00 1.0000e+00
      -11  1    1    2    0    0 +5.7676217399e+00 -4.6638840513e+00 +2.1898483242e+02 2.1911041533e+02 0.0000000000e+00 0.0000e+00 -1.0000e+00
       11  1    1    2    0    0 +1.1034476907e+01 +3.2616792143e+00 -4.9927656101e+02 4.9940913349e+02 0.0000000000e+00 0.0000e+00 1.0000e+00
      -15  1    1    2    0    0 -8.7353283633e+00 -8.9013549573e+00 +1.4450932719e+02 1.4505737987e+02 1.7770000000e+00 0.0000e+00 -1.0000e+00
       15  1    1    2    0    0 -8.0667702838e+00 +1.0303559794e+01 +1.3578240140e+02 1.3642307131e+02 1.7770000000e+00 0.0000e+00 1.0000e+00
</event>
<event>
 6 1 7.08916e-05 5.00632900e+02 7.54677100e-03 9.39839500e-02
      -11 -1    0    0    0    0 +0.0000000000e+00 +0.0000000000e+00 +5.0000000000e+02 5.0000000000e+02 0.0000000000e+00 0.0000e+00 -1.0000e+00
       11 -1    0    0    0    0 -0.0000000000e+00 -0.0000000000e+00 -5.0000000000e+02 5.0000000000e+02 0.0000000000e+00 0.0000e+00 -1.0000e+00
      -11  1    1    2    0    0 -1.1325871700e+01 +1.8134961997e+01 +4.9890911449e+02 4.9936705612e+02 0.0000000000e+00 0.0000e+00 -1.0000e+00
       11  1    1    2    0    0 +4.7856149498e-02 -3.5448298299e+00 -2.2431898911e+02 2.2434700129e+02 0.0000000000e+00 0.0000e+00 -1.0000e+00
      -15  1    1    2    0    0 +1.2682171271e+01 -1.6131490175e+01 -1.2613557080e+02 1.2780611251e+02 1.7770000000e+00 0.0000e+00 1.0000e+00
       15  1    1    2    0    0 -1.4041557201e+00 +1.5413580070e+00 -1.4845455458e+02 1.4847983009e+02 1.7770000000e+00 0.0000e+00 -1.0000e+00
</event>
<event>
 6 1 7.08916e-05 5.21842700e+02 7.54677100e-03 9.35221900e-02
      -11 -1    0    0    0    0 +0.0000000000e+00 +0.0000000000e+00 +5.0000000000e+02 5.0000000000e+02 0.0000000000e+00 0.0000e+00 1.0000e+00
       11 -1    0    0    0    0 -0.0000000000e+00 -0.0000000000e+00 -5.0000000000e+02 5.0000000000e+02 0.0000000000e+00 0.0000e+00 -1.0000e+00
      -11  1    1    2    0    0 -2.4630338501e+01 +7.3544550460e+01 +4.7182507708e+02 4.7815725221e+02 0.0000000000e+00 0.0000e+00 1.0000e+00
       11  1    1    2    0    0 -3.8926299489e+00 +6.1352294669e+01 -8.0688418259e+01 1.0143903327e+02 0.0000000000e+00 0.0000e+00 -1.0000e+00
      -15  1    1    2    0    0 +2.5924144692e+01 -1.0970717603e+02 -2.1811922050e+02 2.4553386290e+02 1.7770000000e+00 0.0000e+00 -1.0000e+00
       15  1    1    2    0    0 +2.5988237582e+00 -2.5189669104e+01 -1.7301743833e+02 1.7486985163e+02 1.7770000000e+00 0.0000e+00 1.0000e+00
</event>
<event>
 6 1 7.08916e-05 4.56382100e+02 7.54677100e-03 9.50307200e-02
      -11 -1    0    0    0    0 +0.0000000000e+00 +0.0000000000e+00 +5.0000000000e+02 5.0000000000e+02 0.0000000000e+00 0.0000e+00 1.0000e+00
       11 -1    0    0    0    0 -0.0000000000e+00 -0.0000000000e+00 -5.0000000000e+02 5.0000000000e+02 0.0000000000e+00 0.0000e+00 1.0000e+00
      -11  1    1    2    0    0 -2.7597841797e+01 -2.2523739748e+01 +4.5344581638e+02 4.5484290487e+02 0.0000000000e+00 0.0000e+00 1.0000e+00
       11  1    1    2    0    0 -4.3034323135e+00 -1.1231772019e+01 -4.5896132325e+02 4.5911890451e+02 0.0000000000e+00 0.0000e+00 1.0000e+00
      -15  1    1    2    0    0 +2.3402669994e+01 +2.3764290426e+01 +3.8219280812e+01 5.0757242016e+01 1.7770000000e+00 0.0000e+00 1.0000e+00
       15  1    1    2    0    0 +8.4986041170e+00 +9.9912213414e+00 -3.2703773935e+01 3.5280948604e+01 1.7770000000e+00 0.0000e+00 1.0000e+00
</event>
<event>
 6 1 7.08916e-05 5.16750600e+02 7.54677100e-03 9.36309000e-02
      -11 -1    0    0    0    0 +0.0000000000e+00 +0.0000000000e+00 +5.0000000000e+02 5.0000000000e+02 0.0000000000e+00 0.0000e+00 -1.0000e+00
       11 -1    0    0    0    0 -0.0000000000e+00 -0.0000000000e+00 -5.0000000000e+02 5.0000000000e+02 0.0000000000e+00 0.0000e+00 1.0000e+00
      -11  1    1    2    0    0 -8.8687452728e+00 +1.1267487181e+01 +4.8303656703e+02 4.8324935178e+02 0.0000000000e+00 0.0000e+00 -1.0000e+00
       11  1    1    2    0    0 +9.1015565359e+00 -3.0345991198e+00 -4.7694518213e+02 4.7704166891e+02 0.0000000000e+00 0.0000e+00 1.0000e+00
      -15  1    1    2    0    0 -1.9754607237e+00 +1.1675258751e+00 -2.1387480545e+01 2.1583503302e+01 1.7770000000e+00 0.0000e+00 1.0000e+00
       15  1    1    2    0    0 +1.7426494606e+00 -9.4004139365e+00 +1.5296095646e+01 1.8125476003e+01 1.7770000000e+00 0.0000e+00 -1.0000e+00
</event>
<event>
 6 1 7.08916e-05 5.06984100e+02 7.54677100e-03 9.38431600e-02
      -11 -1    0    0    0    0 +0.0000000000e+00 +0.0000000000e+00 +5.0000000000e+02 5.0000000000e+02 0.0000000000e+00 0.0000e+00 -1.0000e+00
       11 -1    0    0    0    0 -0.0000000000e+00 -0.0000000000e+00 -5.0000000000e+02 5.0000000000e+02 0.0000000000e+00 0.0000e+00 1.0000e+00
      -11  1    1    2    0    0 +4.5482194208e+00 -1.8974942627e+01 +3.5758363578e+02 3.5811561168e+02 0.0000000000e+00 0.0000e+00 -1.0000e+00
       11  1    1    2    0    0 -4.3719054736e+01 +7.8244024314e+01 -4.8480015588e+02 4.9301589653e+02 0.0000000000e+00 0.0000e+00 1.0000e+00
      -15  1    1    2    0    0 +4.0958955803e+01 -5.5690828710e+01 +1.2685065863e+02 1.4447612878e+02 1.7770000000e+00 0.0000e+00 -1.0000e+00
       15  1    1    2    0    0 -1.7881204879e+00 -3.5782529780e+00 +3.6586146670e-01 4.3923630162e+00 1.7770000000e+00 0.0000e+00 1.0000e+00
</event>
<event>
 6 1 7.08916e-05 5.02521600e+02 7.54677100e-03 9.39418500e-02
      -11 -1    0    0    0    0 +0.0000000000e+00 +0.0000000000e+00 +5.0000000000e+02 5.0000000000e+02 0.0000000000e+00 0.0000e+00 1.0000e+00
       11 -1    0    0    0    0 -0.0000000000e+00 -0.0000000000e+00 -5.0000000000e+02 5.0000000000e+02 0.0000000000e+00 0.0000e+00 -1.0000e+00
      -11  1    1    2    0    0 +1.3953931201e+00 -5.1966113748e+00 +1.8857456048e+02 1.8865130997e+02 0.0000000000e+00 0.0000e+00 1.0000e+00
       11  1    1    2    0    0 -2.7804671553e-01 +1.0691701641e+01 -4.9736341647e+02 4.9747839936e+02 0.0000000000e+00 0.0000e+00 -1.0000e+00
      -15  1    1    2    0    0 +4.4581064248e+00 -7.8280366549e+00 +5.8963189031e+00 1.0912248915e+01 1.7770000000e+00 0.0000e+00 1.0000e+00
       15  1    1    2    0    0 -5.5754528293e+00 +2.3329463886e+00 +3.0289253709e+02 3.0295804176e+02 1.7770000000e+00 0.0000e+00 1.0000e+00
</event>
<event>
 6 1 7.08916e-05 5.00622300e+02 7.54677100e-03 9.39841800e-02
      -11 -1    0    0    0    0 +0.0000000000e+00 +0.0000000000e+00 +5.0000000000e+02 5.0000000000e+02 0.0000000000e+00 0.0000e+00 -1.0000e+00
       11 -1    0    0    0    0 -0.0000000000e+00 -0.0000000000e+00 -5.0000000000e+02 5.0000000000e+02 0.0000000000e+00 0.0000e+00 1.0000e+00
      -11  1    1    2    0    0 -3.2187649870e+00 +6.9228886725e+00 +4.0602938129e+02 4.0610115157e+02 0.0000000000e+00 0.0000e+00 -1.0000e+00
       11  1    1    2    0    0 +7.6742428825e-01 +6.8089033088e+00 -4.9933071634e+02 4.9937772716e+02 0.0000000000e+00 0.0000e+00 1.0000e+00
      -15  1    1    2    0    0 +3.2216021213e+00 -1.0775769715e+01 +7.7303246850e+01 7.8137351093e+01 1.7770000000e+00 0.0000e+00 -1.0000e+00
       15  1    1    2    0    0 -7.7026142261e-01 -2.9560222659e+00 +1.5998088196e+01 1.6383770178e+01 1.7770000000e+00 0.0000e+00 1.0000e+00
</event>
<event>
 6 1 7.08916e-05 5.05391800e+02 7.54677100e-03 9.38782500e-02
      -11 -1    0    0    0    0 +0.0000000000e+00 +0.0000000000e+00 +5.0000000000e+02 5.0000000000e+02 0.0000000000e+00 0.0000e+00 -1.0000e+00
       11 -1    0    0    0    0 -0.0000000000e+00 -0.0000000000e+00 -5.0000000000e+02 5.0000000000e+02 0.0000000000e+00 0.0000e+00 -1.0000e+00
      -11  1    1    2    0    0 +5.0830009919e+00 +1.1238175267e+01 +4.9445439974e+02 4.9460821557e+02 0.0000000000e+00 0.0000e+00 -1.0000e+00
       11  1    1    2    0    0 -5.9129241302e+00 -8.3702167600e+00 -3.9668271319e+02 3.9681506794e+02 0.0000000000e+00 0.0000e+00 -1.0000e+00
      -15  1    1    2    0    0 +2.8505803503e+00 +1.7309218606e-01 -1.0237964809e+02 1.0243488586e+02 1.7770000000e+00 0.0000e+00 -1.0000e+00
       15  1    1    2    0    0 -2.0206572120e+00 -3.0410506929e+00 +4.6079615424e+00 6.1418306279e+00 1.7770000000e+00 0.0000e+00 1.0000e+00
</event>
<event>
 6 1 7.08916e-05 5.08895800e+02 7.54677100e-03 9.38012200e-02
      -11 -1    0    0    0    0 +0.0000000000e+00 +0.0000000000e+00 +5.0000000000e+02 5.0000000000e+02 0.0000000000e+00 0.0000e+00 -1.0000e+00
       11 -1    0    0    0    0 -0.0000000000e+00 -0.0000000000e+00 -5.0000000000e+02 5.0000000000e+02 0.0000000000e+00 0.0000e+00 1.0000e+00
      -11  1    1    2    0    0 +1.0470002623e+01 -1.3688678498e+01 +4.9080174082e+02 4.9110421467e+02 0.0000000000e+00 0.0000e+00 -1.0000e+00
       11  1    1    2    0    0 +1.9502364849e+01 +1.2586240338e+01 -4.5615699328e+02 4.5674714909e+02 0.0000000000e+00 0.0000e+00 1.0000e+00
      -15  1    1    2    0    0 -3.1753804766e+01 -4.3696494158e+00 -2.4629693120e+01 4.0462049692e+01 1.7770000000e+00 0.0000e+00 -1.0000e+00
       15  1    1    2    0    0 +1.7814372934e+00 +5.4720875761e+00 -1.0015054417e+01 1.1686586552e+01 1.7770000000e+00 0.0000e+00 1.0000e+00
</event>
<event>
 6 1 7.08916e-05 5.06059500e+02 7.54677100e-03 9.38635200e-02
      -11 -1    0    0    0    0 +0.0000000000e+00 +0.0000000000e+00 +5.0000000000e+02 5.0000000000e+02 0.0000000000e+00 0.0000e+00 -1.0000e+00
       11 -1    0    0    0    0 -0.0000000000e+00 -0.0000000000e+00 -5.0000000000e+02 5.0000000000e+02 0.0000000000e+00 0.0000e+00 -1.0000e+00
      -11  1    1    2    0    0 -5.8855368976e+00 -8.4761180230e+00 +4.9383266441e+02 4.9394046662e+02 0.0000000000e+00 0.0000e+00 -1.0000e+00
       11  1    1    2    0    0 -8.7386468266e+00 +8.1386934976e+00 -4.7720891471e+02 4.7735830417e+02 0.0000000000e+00 0.0000e+00 -1.0000e+00
      -15  1    1    2    0    0 +9.2455213852e+00 +6.7415313782e+00 -1.9848422613e+00 1.1748414310e+01 1.7770000000e+00 0.0000e+00 -1.0000e+00
       15  1    1    2    0    0 +5.3786623390e+00 -6.4041068529e+00 -1.4638907438e+01 1.6952814903e+01 1.7770000000e+00 0.0000e+00 1.0000e+00
</event>
<event>
 6 1 7.08916e-05 4.86434800e+02 7.54677100e-03 9.43068500e-02
      -11 -1    0    0    0    0 +0.0000000000e+00 +0.0000000000e+00 +5.0000000000e+02 5.0000000000e+02 0.0000000000e+00 0.0000e+00 1.0000e+00
       11 -1    0    0    0    0 -0.0000000000e+00 -0.0000000000e+00 -5.0000000000e+02 5.0000000000e+02 0.0000000000e+00 0.0000e+00 -1.0000e+00
      -11  1    1    2    0    0 +2.0285335155e+01 +1.6153288777e+01 -6.8003854104e+00 2.6807998851e+01 0.0000000000e+00 0.0000e+00 1.0000e+00
       11  1    1    2    0    0 -2.4525432110e+00 -1.9236252392e+01 -4.8281069949e+02 4.8319997921e+02 0.0000000000e+00 0.0000e+00 -1.0000e+00
      -15  1    1    2    0    0 -7.7500643939e+00 +2.1475014760e+00 +1.5055566767e+02 1.5078077482e+02 1.7770000000e+00 0.0000e+00 -1.0000e+00
       15  1    1    2    0    0 -1.0082727550e+01 +9.3546213817e-01 +3.3905541723e+02 3.3921124711e+02 1.7770000000e+00 0.0000e+00 1.0000e+00
</event>
<event>
 6 1 7.08916e-05 5.04500000e+02 7.54677100e-03 9.38979600e-02
      -11 -1    0    0    0    0 +0.0000000000e+00 +0.0000000000e+00 +5.0000000000e+02 5.0000000000e+02 0.0000000000e+00 0.0000e+00 -1.0000e+00
       11 -1    0    0    0    0 -0.0000000000e+00 -0.0000000000e+00 -5.0000000000e+02 5.0000000000e+02 0.0000000000e+00 0.0000e+00 1.0000e+00
      -11  1    1    2    0    0 -1.2291383011e+01 -1.1073513656e+01 +4.9522370686e+02 4.9549997037e+02 0.0000000000e+00 0.0000e+00 -1.0000e+00
       11  1    1    2    0    0 -1.0670352422e+01 +1.2696294837e+00 -4.2031916006e+02 4.2045649560e+02 0.0000000000e+00 0.0000e+00 1.0000e+00
      -15  1    1    2    0    0 +1.8777670071e+01 +1.0434952819e+01 -2.1509747960e+01 3.0451865623e+01 1.7770000000e+00 0.0000e+00 1.0000e+00
       15  1    1    2    0    0 +4.1840653615e+00 -6.3106864720e-01 -5.3394798838e+01 5.3591668406e+01 1.7770000000e+00 0.0000e+00 -1.0000e+00
</event>
<event>
 6 1 7.08916e-05 5.07102100e+02 7.54677100e-03 9.38405700e-02
      -11 -1    0    0    0    0 +0.0000000000e+00 +0.0000000000e+00 +5.0000000000e+02 5.0000000000e+02 0.0000000000e+00 0.0000e+00 1.0000e+00
       11 -1    0    0    0    0 -0.0000000000e+00 -0.0000000000e+00 -5.0000000000e+02 5.0000000000e+02 0.0000000000e+00 0.0000e+00 -1.0000e+00
      -11  1    1    2    0    0 +8.8055804117e+00 +9.0228129006e+00 +2.7008300385e+02 2.7037710400e+02 0.0000000000e+00 0.0000e+00 1.0000e+00
       11  1    1    2    0    0 +1.6472836799e+01 +1.0353007256e+01 -4.9251377532e+02 4.9289791843e+02 0.0000000000e+00 0.0000e+00 -1.0000e+00
      -15  1    1    2    0    0 -7.1669736400e+00 +5.4169514715e+00 +1.9588258303e+02 1.9609653984e+02 1.7770000000e+00 0.0000e+00 1.0000e+00
       15  1    1    2    0    0 -1.8111443571e+01 -2.4792771629e+01 +2.6548188447e+01 4.0628437726e+01 1.7770000000e+00 0.0000e+00 -1.0000e+00
</event>
<event>
 6 1 7.08916e-05 5.01447900e+02 7.54677100e-03 9.39657600e-02
      -11 -1    0    0    0    0 +0.0000000000e+00 +0.0000000000e+00 +5.0000000000e+02 5.0000000000e+02 0.0000000000e+00 0.0000e+00 -1.0000e+00
       11 -1    0    0    0    0 -0.0000000000e+00 -0.0000000000e+00 -5.0000000000e+02 5.0000000000e+02 0.0000000000e+00 0.0000e+00 -1.0000e+00
      -11  1    1    2    0    0 -1.6949233853e+00 -7.7143144264e+00 +4.9848950429e+02 4.9855207281e+02 0.0000000000e+00 0.0000e+00 -1.0000e+00
       11  1    1    2    0    0 +8.2775747252e+00 +1.3094729628e+00 -2.9600790785e+02 2.9612651768e+02 0.0000000000e+00 0.0000e+00 -1.0000e+00
      -15  1    1    2    0    0 +5.6333978608e+00 +3.1845696935e+00 -8.0875499010e+00 1.0509179225e+01 1.7770000000e+00 0.0000e+00 1.0000e+00
       15  1    1    2    0    0 -1.2216049201e+01 +3.2202717702e+00 -1.9439404654e+02 1.9481223029e+02 1.7770000000e+00 0.0000e+00 -1.0000e+00
</event>
<event>
 6 1 7.08916e-05 4.84918300e+02 7.54677100e-03 9.43420300e-02
      -11 -1    0    0    0    0 +0.0000000000e+00 +0.0000000000e+00 +5.0000000000e+02 5.0000000000e+02 0.0000000000e+00 0.0000e+00 -1.0000e+00
       11 -1    0    0    0    0 -0.0000000000e+00 -0.0000000000e+00 -5.0000000000e+02 5.0000000000e+02 0.0000000000e+00 0.0000e+00 -1.0000e+00
      -11  1    1    2    0    0 +6.2706734406e+00 -2.8397394961e+00 +4.8338752727e+02 4.8343653874e+02 0.0000000000e+00 0.0000e+00 -1.0000e+00
       11  1    1    2    0    0 +6.2873943001e+00 -5.4408634724e+00 -4.8645048630e+02 4.8652154109e+02 0.0000000000e+00 0.0000e+00 -1.0000e+00
      -15  1    1    2    0    0 +4.7471549042e-01 +2.3466223283e+00 +1.2466702037e+01 1.2818283030e+01 1.7770000000e+00 0.0000e+00 -1.0000e+00
       15  1    1    2    0    0 -1.3032783231e+01 +5.9339806403e+00 -9.4037430069e+00 1.7223637146e+01 1.7770000000e+00 0.0000e+00 1.0000e+00
</event>
<event>
 6 1 7.08916e-05 5.00523700e+02 7.54677100e-03 9.39863900e-02
      -11 -1    0    0    0    0 +0.0000000000e+00 +0.0000000000e+00 +5.0000000000e+02 5.0000000000e+02 0.0000000000e+00 0.0000e+00 1.0000e+00
       11 -1    0    0    0    0 -0.0000000000e+00 -0.0000000000e+00 -5.0000000000e+02 5.0000000000e+02 0.0000000000e+00 0.0000e+00 1.0000e+00
      -11  1    1    2    0    0 -1.2545318092e+01 +5.0689633330e+00 +4.9929300160e+02 4.9947630659e+02 0.0000000000e+00 0.0000e+00 1.0000e+00
       11  1    1    2    0    0 +8.2864512910e+00 +7.8740890500e+00 -3.6555708767e+02 3.6573576651e+02 0.0000000000e+00 0.0000e+00 1.0000e+00
      -15  1    1    2    0    0 +3.7638641857e+00 -9.9738258729e+00 -1.2349232588e+02 1.2396433421e+02 1.7770000000e+00 0.0000e+00 1.0000e+00
       15  1    1    2    0    0 +4.9500261558e-01 -2.9692265101e+00 -1.0243588055e+01 1.0823592698e+01 1.7770000000e+00 0.0000e+00 -1.0000e+00
</event>
<event>
 6 1 7.08916e-05 5.16115400e+02 7.54677100e-03 9.36445500e-02
      -11 -1    0    0    0    0 +0.0000000000e+00 +0.0000000000e+00 +5.0000000000e+02 5.0000000000e+02 0.0000000000e+00 0.0000e+00 -1.0000e+00
       11 -1    0    0    0    0 -0.0000000000e+00 -0.0000000000e+00 -5.0000000000e+02 5.0000000000e+02 0.0000000000e+00 0.0000e+00 1.0000e+00
      -11  1    1    2    0    0 -5.0065281710e+00 -2.8816091023e+00 +4.1413690625e+02 4.1417719168e+02 0.0000000000e+00 0.0000e+00 -1.0000e+00
       11  1    1    2    0    0 -1.5352193677e+01 +1.3001329867e+01 -4.8346620745e+02 4.8388459179e+02 0.0000000000e+00 0.0000e+00 1.0000e+00
      -15  1    1    2    0    0 -1.7216114859e+00 +6.4027206995e+00 +7.3648583500e+01 7.3967765675e+01 1.7770000000e+00 0.0000e+00 -1.0000e+00
       15  1    1    2    0    0 +2.2080333334e+01 -1.6522441464e+01 -4.3192822965e+00 2.7970450848e+01 1.7770000000e+00 0.0000e+00 1.0000e+00
</event>
<event>
 6 1 7.08916e-05 5.11219800e+02 7.54677100e-03 9.37504900e-02
      -11 -1    0    0    0    0 +0.0000000000e+00 +0.0000000000e+00 +5.0000000000e+02 5.0000000000e+02 0.0000000000e+00 0.0000e+00 1.0000e+00
       11 -1    0    0    0    0 -0.0000000000e+00 -0.0000000000e+00 -5.0000000000e+02 5.0000000000e+02 0.0000000000e+00 0.0000e+00 -1.0000e+00
      -11  1    1    2    0    0 +7.2059828171e+00 +1.6548622852e+01 +4.8844678971e+02 4.8878016478e+02 0.0000000000e+00 0.0000e+00 1.0000e+00
       11  1    1    2    0    0 -4.3186962406e+01 +1.3087575764e+01 -2.7103806689e+02 2.7476905223e+02 0.0000000000e+00 0.0000e+00 -1.0000e+00
      -15  1    1    2    0    0 -5.0290098527e+00 -9.3896842095e+00 +3.1055915118e+00 1.1236526923e+01 1.7770000000e+00 0.0000e+00 1.0000e+00
       15  1    1    2    0    0 +4.1009989442e+01 -2.0246514407e+01 -2.2051431433e+02 2.2521425606e+02 1.7770000000e+00 0.0000e+00 -1.0000e+00
</event>
<event>
 6 1 7.08916e-05 5.03289100e+02 7.54677100e-03 9.39248000e-02
      -11 -1    0    0    0    0 +0.0000000000e+00 +0.0000000000e+00 +5.0000000000e+02 5.0000000000e+02 0.0000000000e+00 0.0000e+00 1.0000e+00
       11 -1    0    0    0    0 -0.0000000000e+00 -0.0000000000e+00 -5.0000000000e+02 5.0000000000e+02 0.0000000000e+00 0.0000e+00 -1.0000e+00
      -11  1    1    2    0    0 -1.2532418322e+01 +6.2495895942e+00 +4.9651346652e+02 4.9671092329e+02 0.0000000000e+00 0.0000e+00 1.0000e+00
       11  1    1    2    0    0 +2.0541046260e+00 +6.1222031311e+00 -4.3742127393e+02 4.3746893787e+02 0.0000000000e+00 0.0000e+00 -1.0000e+00
      -15  1    1    2    0    0 -3.1787635932e+00 +4.0437062057e-01 -3.5375728787e+01 3.5564982353e+01 1.7770000000e+00 0.0000e+00 -1.0000e+00
       15  1    1    2    0    0 +1.3657077289e+01 -1.2776163346e+01 -2.3716463800e+01 3.0255156488e+01 1.7770000000e+00 0.0000e+00 1.0000e+00
</event>
<event>
 6 1 7.08916e-05 5.06940800e+02 7.54677100e-03 9.38441200e-02
      -11 -1    0    0    0    0 +0.0000000000e+00 +0.0000000000e+00 +5.0000000000e+02 5.0000000000e+02 0.0000000000e+00 0.0000e+00 1.0000e+00
       11 -1    0    0    0    0 -0.0000000000e+00 -0.0000000000e+00 -5.0000000000e+02 5.0000000000e+02 0.0000000000e+00 0.0000e+00 -1.0000e+00
      -11  1    1    2    0    0 -1.5672566137e+01 +7.1799112535e+00 +3.2358002649e+02 3.2403890815e+02 0.0000000000e+00 0.0000e+00 1.0000e+00
       11  1    1    2    0    0 -3.4009191774e+00 +8.9823332116e+00 -4.9296565215e+02 4.9305920817e+02 0.0000000000e+00 0.0000e+00 -1.0000e+00
      -15  1    1    2    0    0 +9.2913980750e-01 -3.8752334504e+00 -5.2848069567e+00 6.8532947292e+00 1.7770000000e+00 0.0000e+00 -1.0000e+00
       15  1    1    2    0    0 +1.8144345507e+01 -1.2287011015e+01 +1.7467043261e+02 1.7604858895e+02 1.7770000000e+00 0.0000e+00 1.0000e+00
</event>
<event>
 6 1 7.08916e-05 5.07548800e+02 7.54677100e-03 9.38307500e-02
      -11 -1    0    0    0    0 +0.0000000000e+00 +0.0000000000e+00 +5.0000000000e+02 5.0000000000e+02 0.0000000000e+00 0.0000e+00 -1.0000e+00
       11 -1    0    0    0    0 -0.0000000000e+00 -0.0000000000e+00 -5.0000000000e+02 5.0000000000e+02 0.0000000000e+00 0.0000e+00 1.0000e+00
      -11  1    1    2    0    0 -1.0498406847e+01 -2.3134003040e+01 +4.9179551113e+02 4.9245123963e+02 0.0000000000e+00 0.0000e+00 -1.0000e+00
       11  1    1    2    0    0 +2.6214511784e+00 -5.8912382814e+00 -4.6413521239e+02 4.6418000180e+02 0.0000000000e+00 0.0000e+00 1.0000e+00
      -15  1    1    2    0    0 +4.5764493840e+00 +1.8839407444e+00 -8.2791555592e+00 9.8079186103e+00 1.7770000000e+00 0.0000e+00 1.0000e+00
       15  1    1    2    0    0 +3.3005062843e+00 +2.7141300577e+01 -1.9381143182e+01 3.3560839960e+01 1.7770000000e+00 0.0000e+00 -1.0000e+00
</event>
<event>
 6 1 7.08916e-05 5.01056700e+02 7.54677100e-03 9.39744800e-02
      -11 -1    0    0    0    0 +0.0000000000e+00 +0.0000000000e+00 +5.0000000000e+02 5.0000000000e+02 0.0000000000e+00 0.0000e+00 1.0000e+00
       11 -1    0    0    0    0 -0.0000000000e+00 -0.0000000000e+00 -5.0000000000e+02 5.0000000000e+02 0.0000000000e+00 0.0000e+00 -1.0000e+00
      -11  1    1    2    0    0 -6.3111426710e+00 +5.4264431251e-01 +4.3533188326e+02 4.3537796633e+02 0.0000000000e+00 0.0000e+00 1.0000e+00
       11  1    1    2    0    0 -4.1330301095e+00 -8.0823283640e+00 -4.9886066696e+02 4.9894325430e+02 0.0000000000e+00 0.0000e+00 -1.0000e+00
      -15  1    1    2    0    0 +2.5146830922e+00 +6.7281407022e+00 +1.8671750470e+01 2.0084409451e+01 1.7770000000e+00 0.0000e+00 1.0000e+00
       15  1    1    2    0    0 +7.9294896883e+00 +8.1154334924e-01 +4.4857033233e+01 4.5594369925e+01 1.7770000000e+00 0.0000e+00 -1.0000e+00
</event>
<event>
 6 1 7.08916e-05 5.01293000e+02 7.54677100e-03 9.39692100e-02
      -11 -1    0    0    0    0 +0.0000000000e+00 +0.0000000000e+00 +5.0000000000e+02 5.0000000000e+02 0.0000000000e+00 0.0000e+00 1.0000e+00
       11 -1    0    0    0    0 -0.0000000000e+00 -0.0000000000e+00 -5.0000000000e+02 5.0000000000e+02 0.0000000000e+00 0.0000e+00 -1.0000e+00
      -11  1    1    2    0    0 -2.0926992782e-01 -1.8907673384e+00 +2.5292981829e+01 2.5364418480e+01 0.0000000000e+00 0.0000e+00 1.0000e+00
       11  1    1    2    0    0 +6.8501630417e+00 +2.1470733448e+00 -4.9865527986e+02 4.9870695081e+02 0.0000000000e+00 0.0000e+00 -1.0000e+00
      -15  1    1    2    0    0 +2.9934332584e+00 -8.4534254723e+00 +4.4159047631e+02 4.4168509998e+02 1.7770000000e+00 0.0000e+00 1.0000e+00
       15  1    1    2    0    0 -9.6343263722e+00 +8.1971194659e+00 +3.1771821722e+01 3.4243530728e+01 1.7770000000e+00 0.0000e+00 -1.0000e+00
</event>
<event>
 6 1 7.08916e-05 5.00150900e+02 7.54677100e-03 9.39947200e-02
      -11 -1    0    0    0    0 +0.0000000000e+00 +0.0000000000e+00 +5.0000000000e+02 5.0000000000e+02 0.0000000000e+00 0.0000e+00 1.0000e+00
       11 -1    0    0    0    0 -0.0000000000e+00 -0.0000000000e+00 -5.0000000000e+02 5.0000000000e+02 0.0000000000e+00 0.0000e+00 -1.0000e+00
      -11  1    1    2    0    0 -3.5759173941e+00 +7.1452663369e+00 +1.9885635116e+02 1.9901680938e+02 0.0000000000e+00 0.0000e+00 1.0000e+00
       11  1    1    2    0    0 +9.0006397502e+00 -1.8320481365e+00 -4.9976474079e+02 4.9984914129e+02 0.0000000000e+00 0.0000e+00 -1.0000e+00
      -15  1    1    2    0    0 -8.9042201912e-01 -6.3589217695e+00 +1.6527111743e+02 1.6540534672e+02 1.7770000000e+00 0.0000e+00 1.0000e+00
       15  1    1    2    0    0 -4.5343003370e+00 +1.0457035691e+00 +1.3563727219e+02 1.3572870261e+02 1.7770000000e+00 0.0000e+00 -1.0000e+00
</event>
<event>
 6 1 7.08916e-05 5.01299800e+02 7.54677100e-03 9.39690600e-02
      -11 -1    0    0    0    0 +0.0000000000e+00 +0.0000000000e+00 +5.0000000000e+02 5.0000000000e+02 0.0000000000e+00 0.0000e+00 1.0000e+00
       11 -1    0    0    0    0 -0.0000000000e+00 -0.0000000000e+00 -5.0000000000e+02 5.0000000000e+02 0.0000000000e+00 0.0000e+00 1.0000e+00
      -11  1    1    2    0    0 +2.5529441023e+01 -6.0395186749e+00 +3.7311592991e+02 3.7403706407e+02 0.0000000000e+00 0.0000e+00 1.0000e+00
       11  1    1    2    0    0 -6.8613757420e+00 +1.2196434031e+01 -4.9850382127e+02 4.9870020182e+02 0.0000000000e+00 0.0000e+00 1.0000e+00
      -15  1    1    2    0    0 -1.5335297956e+01 -7.0892380025e+00 +1.1323973125e+02 1.1450686932e+02 1.7770000000e+00 0.0000e+00 1.0000e+00
       15  1    1    2    0    0 -3.3327673245e+00 +9.3232264654e-01 +1.2148160106e+01 1.2755864789e+01 1.7770000000e+00 0.0000e+00 1.0000e+00
</event>
<event>
 6 1 7.08916e-05 5.00093500e+02 7.54677100e-03 9.39960100e-02
      -11 -1    0    0    0    0 +0.0000000000e+00 +0.0000000000e+00 +5.0000000000e+02 5.0000000000e+02 0.0000000000e+00 0.0000e+00 -1.0000e+00
       11 -1    0    0    0    0 -0.0000000000e+00 -0.0000000000e+00 -5.0000000000e+02 5.0000000000e+02 0.0000000000e+00 0.0000e+00 1.0000e+00
      -11  1    1    2    0    0 -9.8291318654e-01 -6.9983565085e+00 +4.9985656454e+02 4.9990651948e+02 0.0000000000e+00 0.0000e+00 -1.0000e+00
       11  1    1    2    0    0 +8.8814858991e-03 -1.6480345400e+00 -1.0978708488e+02 1.0979945402e+02 0.0000000000e+00 0.0000e+00 1.0000e+00
      -15  1    1    2    0    0 +9.1350440852e-01 +7.0328279383e-01 -1.6440600728e+01 1.6576494753e+01 1.7770000000e+00 0.0000e+00 1.0000e+00
       15  1    1    2    0    0 +6.0527292121e-02 +7.9431082546e+00 -3.7362887893e+02 3.7371753175e+02 1.7770000000e+00 0.0000e+00 1.0000e+00
</event>
<event>
 6 1 7.08916e-05 5.20409300e+02 7.54677100e-03 9.35526600e-02
      -11 -1    0    0    0    0 +0.0000000000e+00 +0.0000000000e+00 +5.0000000000e+02 5.0000000000e+02 0.0000000000e+00 0.0000e+00 -1.0000e+00
       11 -1    0    0    0    0 -0.0000000000e+00 -0.0000000000e+00 -5.0000000000e+02 5.0000000000e+02 0.0000000000e+00 0.0000e+00 -1.0000e+00
      -11  1    1    2    0    0 -1.0112364232e+01 -7.2859426932e+00 +4.7942876412e+02 4.7959074714e+02 0.0000000000e+00 0.0000e+00 -1.0000e+00
       11  1    1    2    0    0 -2.2199057747e+01 -2.0738357496e+01 -4.3836717689e+02 4.3941854696e+02 0.0000000000e+00 0.0000e+00 -1.0000e+00
      -15  1    1    2    0    0 -8.3290157617e+00 +7.9040665298e+00 -3.2884443473e+01 3.4876799205e+01 1.7770000000e+00 0.0000e+00 1.0000e+00
       15  1    1    2    0    0 +4.0640437740e+01 +2.0120233660e+01 -8.1771437596e+00 4.6113906702e+01 1.7770000000e+00 0.0000e+00 -1.0000e+00
</event>
<event>
 6 1 7.08916e-05 5.83255700e+02 7.54677100e-03 9.23065300e-02
      -11 -1    0    0    0    0 +0.0000000000e+00 +0.0000000000e+00 +5.0000000000e+02 5.0000000000e+02 0.0000000000e+00 0.0000e+00 -1.0000e+00
       11 -1    0    0    0    0 -0.0000000000e+00 -0.0000000000e+00 -5.0000000000e+02 5.0000000000e+02 0.0000000000e+00 0.0000e+00 -1.0000e+00
      -11  1    1    2    0    0 +2.2106612096e+00 -3.9284178441e+00 +2.0930468014e+02 2.0935321497e+02 0.0000000000e+00 0.0000e+00 -1.0000e+00
       11  1    1    2    0    0 -3.5331169800e+01 +1.7217177415e+01 -4.1488685541e+02 4.1674431675e+02 0.0000000000e+00 0.0000e+00 -1.0000e+00
      -15  1    1    2    0    0 +9.6354862814e+01 -4.2720636625e+01 +2.6313006010e+02 2.8346057687e+02 1.7770000000e+00 0.0000e+00 -1.0000e+00
       15  1    1    2    0    0 -6.3234354223e+01 +2.9431877054e+01 -5.7547884843e+01 9.0441891399e+01 1.7770000000e+00 0.0000e+00 1.0000e+00
</event>
<event>
 6 1 7.08916e-05 5.07214300e+02 7.54677100e-03 9.38381000e-02
      -11 -1    0    0    0    0 +0.0000000000e+00 +0.0000000000e+00 +5.0000000000e+02 5.0000000000e+02 0.0000000000e+00 0.0000e+00 1.0000e+00
       11 -1    0    0    0    0 -0.0000000000e+00 -0.0000000000e+00 -5.0000000000e+02 5.0000000000e+02 0.0000000000e+00 0.0000e+00 -1.0000e+00
      -11  1    1    2    0    0 +2.7656533164e+01 +6.5464871549e+00 +4.9196542047e+02 4.9278566868e+02 0.0000000000e+00 0.0000e+00 1.0000e+00
       11  1    1    2    0    0 +5.9729077991e+00 +4.4360144490e+00 -4.5462532006e+02 4.5468619452e+02 0.0000000000e+00 0.0000e+00 -1.0000e+00
      -15  1    1    2    0    0 -3.2905185474e+01 -1.1051750619e+01 -3.6590128254e+01 5.0466698301e+01 1.7770000000e+00 0.0000e+00 1.0000e+00
       15  1    1    2    0    0 -7.2425548915e-01 +6.9249014591e-02 -7.4997215804e-01 2.0614384971e+00 1.7770000000e+00 0.0000e+00 -1.0000e+00
</event>
<event>
 6 1 7.08916e-05 5.08903700e+02 7.54677100e-03 9.38010500e-02
      -11 -1    0    0    0    0 +0.0000000000e+00 +0.0000000000e+00 +5.0000000000e+02 5.0000000000e+02 0.0000000000e+00 0.0000e+00 -1.0000e+00
       11 -1    0    0    0    0 -0.0000000000e+00 -0.0000000000e+00 -5.0000000000e+02 5.0000000000e+02 0.0000000000e+00 0.0000e+00 1.0000e+00
      -11  1    1    2    0    0 +1.6568606011e+01 -1.5195208373e+01 +4.5743036453e+02 4.5798247943e+02 0.0000000000e+00 0.0000e+00 -1.0000e+00
       11  1    1    2    0    0 +6.8067357119e+00 -1.3450553072e+01 -4.9086489384e+02 4.9109631747e+02 0.0000000000e+00 0.0000e+00 1.0000e+00
      -15  1    1    2    0    0 -2.5107667280e+00 +3.7403674362e+00 +9.0332754463e+00 1.0249492300e+01 1.7770000000e+00 0.0000e+00 1.0000e+00
       15  1    1    2    0    0 -2.0864574995e+01 +2.4905394008e+01 +2.4401253861e+01 4.0671710801e+01 1.7770000000e+00 0.0000e+00 -1.0000e+00
</event>
<event>
 6 1 7.08916e-05 5.10779500e+02 7.54677100e-03 9.37600800e-02
      -11 -1    0    0    0    0 +0.0000000000e+00 +0.0000000000e+00 +5.0000000000e+02 5.0000000000e+02 0.0000000000e+00 0.0000e+00 -1.0000e+00
       11 -1    0    0    0    0 -0.0000000000e+00 -0.0000000000e+00 -5.0000000000e+02 5.0000000000e+02 0.0000000000e+00 0.0000e+00 -1.0000e+00
      -11  1    1    2    0    0 -2.0721456865e+01 -1.5118706659e+01 +4.8854756501e+02 4.8922047928e+02 0.0000000000e+00 0.0000e+00 -1.0000e+00
       11  1    1    2    0    0 -1.2069804744e+01 +3.7168873561e+00 -4.5560630737e+02 4.5578131023e+02 0.0000000000e+00 0.0000e+00 -1.0000e+00
      -15  1    1    2    0    0 -2.9461953435e+00 +3.1335564128e+00 -1.1657207607e+01 1.2551791146e+01 1.7770000000e+00 0.0000e+00 1.0000e+00
       15  1    1    2    0    0 +3.5737456953e+01 +8.2682628903e+00 -2.1284050035e+01 4.2446419349e+01 1.7770000000e+00 0.0000e+00 -1.0000e+00
</event>
<event>
 6 1 7.08916e-05 5.00198100e+02 7.54677100e-03 9.39936600e-02
      -11 -1    0    0    0    0 +0.0000000000e+00 +0.0000000000e+00 +5.0000000000e+02 5.0000000000e+02 0.0000000000e+00 0.0000e+00 -1.0000e+00
       11 -1    0    0    0    0 -0.0000000000e+00 -0.0000000000e+00 -5.0000000000e+02 5.0000000000e+02 0.0000000000e+00 0.0000e+00 1.0000e+00
      -11  1    1    2    0    0 -7.6148991985e+00 +1.4413693983e+01 +1.4784132295e+02 1.4873734580e+02 0.0000000000e+00 0.0000e+00 -1.0000e+00
       11  1    1    2    0    0 +1.8378040421e+01 -2.1633614954e+01 -4.9899511425e+02 4.9980185045e+02 0.0000000000e+00 0.0000e+00 1.0000e+00
      -15  1    1    2    0    0 -3.6198399356e+00 +5.9944496450e+00 +1.7175983893e+02 1.7191171184e+02 1.7770000000e+00 0.0000e+00 -1.0000e+00
       15  1    1    2    0    0 -7.1433012870e+00 +1.2254713254e+00 +1.7939395237e+02 1.7954909192e+02 1.7770000000e+00 0.0000e+00 -1.0000e+00
</event>
<event>
 6 1 7.08916e-05 5.00280200e+02 7.54677100e-03 9.39918300e-02
      -11 -1    0    0    0    0 +0.0000000000e+00 +0.0000000000e+00 +5.0000000000e+02 5.0000000000e+02 0.0000000000e+00 0.0000e+00 -1.0000e+00
       11 -1    0    0    0    0 -0.0000000000e+00 -0.0000000000e+00 -5.0000000000e+02 5.0000000000e+02 0.0000000000e+00 0.0000e+00 1.0000e+00
      -11  1    1    2    0    0 -9.7102267889e-01 -3.6430312559e+00 +1.0590768538e+02 1.0597477240e+02 0.0000000000e+00 0.0000e+00 -1.0000e+00
       11  1    1    2    0    0 +3.8063560580e-01 -1.7617903811e+01 -4.9940902082e+02 4.9971982700e+02 0.0000000000e+00 0.0000e+00 1.0000e+00
      -15  1    1    2    0    0 -1.0802548254e+00 +9.4430290270e+00 +8.1626674033e+01 8.2197380678e+01 1.7770000000e+00 0.0000e+00 1.0000e+00
       15  1    1    2    0    0 +1.6706418984e+00 +1.1817906040e+01 +3.1187466140e+02 3.1210801992e+02 1.7770000000e+00 0.0000e+00 -1.0000e+00
</event>
<event>
 6 1 7.08916e-05 5.09807500e+02 7.54677100e-03 9.37812800e-02
      -11 -1    0    0    0    0 +0.0000000000e+00 +0.0000000000e+00 +5.0000000000e+02 5.0000000000e+02 0.0000000000e+00 0.0000e+00 1.0000e+00
       11 -1    0    0    0    0 -0.0000000000e+00 -0.0000000000e+00 -5.0000000000e+02 5.0000000000e+02 0.0000000000e+00 0.0000e+00 -1.0000e+00
      -11  1    1    2    0    0 -8.4674204313e+00 -7.6126951783e+00 +4.9006020783e+02 4.9019246999e+02 0.0000000000e+00 0.0000e+00 1.0000e+00
       11  1    1    2    0    0 -2.1198986567e+00 +9.1029920195e+00 -4.7088437711e+02 4.7097712794e+02 0.0000000000e+00 0.0000e+00 -1.0000e+00
      -15  1    1    2    0    0 +1.7325803986e+01 -4.5635106254e+00 +2.0596495365e-01 1.8005811938e+01 1.7770000000e+00 0.0000e+00 1.0000e+00
       15  1    1    2    0    0 -6.7384848982e+00 +3.0732137842e+00 -1.9381795675e+01 2.0824590134e+01 1.7770000000e+00 0.0000e+00 -1.0000e+00
</event>
<event>
 6 1 7.08916e-05 5.13284500e+02 7.54677100e-03 9.37056600e-02
      -11 -1    0    0    0    0 +0.0000000000e+00 +0.0000000000e+00 +5.0000000000e+02 5.0000000000e+02 0.0000000000e+00 0.0000e+00 -1.0000e+00
       11 -1    0    0    0    0 -0.0000000000e+00 -0.0000000000e+00 -5.0000000000e+02 5.0000000000e+02 0.0000000000e+00 0.0000e+00 1.0000e+00
      -11  1    1    2    0    0 -1.6762409894e+01 -2.3123348038e+00 +4.8642125532e+02 4.8671548455e+02 0.0000000000e+00 0.0000e+00 -1.0000e+00
       11  1    1    2    0    0 +6.1033943246e+00 -2.5945920291e+01 -4.6508017789e+02 4.6584333640e+02 0.0000000000e+00 0.0000e+00 1.0000e+00
      -15  1    1    2    0    0 -2.1140300604e+00 +8.7817757996e+00 +6.3726395348e+00 1.1196292821e+01 1.7770000000e+00 0.0000e+00 -1.0000e+00
       15  1    1    2    0    0 +1.2773045629e+01 +1.9476479295e+01 -2.7713716963e+01 3.6244886222e+01 1.7770000000e+00 0.0000e+00 1.0000e+00
</event>
<event>
 6 1 7.08916e-05 5.00125500e+02 7.54677100e-03 9.39952900e-02
      -11 -1    0    0    0    0 +0.0000000000e+00 +0.0000000000e+00 +5.0000000000e+02 5.0000000000e+02 0.0000000000e+00 0.0000e+00 1.0000e+00
       11 -1    0    0    0    0 -0.0000000000e+00 -0.0000000000e+00 -5.0000000000e+02 5.0000000000e+02 0.0000000000e+00 0.0000e+00 1.0000e+00
      -11  1    1    2    0    0 -7.6733424009e+00 -8.5386252000e+00 +4.9974267761e+02 4.9987451638e+02 0.0000000000e+00 0.0000e+00 1.0000e+00
       11  1    1    2    0    0 +6.0816753106e-01 +6.2201675079e-01 -5.6726935477e+01 5.6733605395e+01 0.0000000000e+00 0.0000e+00 1.0000e+00
      -15  1    1    2    0    0 +8.0568093940e+00 +1.1173219796e+01 -2.9559505900e+02 2.9592118824e+02 1.7770000000e+00 0.0000e+00 1.0000e+00
       15  1    1    2    0    0 -9.9163452413e-01 -3.2566113465e+00 -1.4742068314e+02 1.4747068998e+02 1.7770000000e+00 0.0000e+00 -1.0000e+00
</event>
<event>
 6 1 7.08916e-05 5.02159700e+02 7.54677100e-03 9.39499000e-02
      -11 -1    0    0    0    0 +0.0000000000e+00 +0.0000000000e+00 +5.0000000000e+02 5.0000000000e+02 0.0000000000e+00 0.0000e+00 1.0000e+00
       11 -1    0    0    0    0 -0.0000000000e+00 -0.0000000000e+00 -5.0000000000e+02 5.0000000000e+02 0.0000000000e+00 0.0000e+00 1.0000e+00
      -11  1    1    2    0    0 +8.1643074804e+00 +2.8588892724e+00 +4.9776514800e+02 4.9784030745e+02 0.0000000000e+00 0.0000e+00 1.0000e+00
       11  1    1    2    0    0 +7.2367676960e+00 -4.4739499462e+00 -3.3682022341e+02 3.3692766276e+02 0.0000000000e+00 0.0000e+00 1.0000e+00
      -15  1    1    2    0    0 -4.0175711611e+00 +5.4633974983e+00 -1.4508767066e+02 1.4525694303e+02 1.7770000000e+00 0.0000e+00 1.0000e+00
       15  1    1    2    0    0 -1.1383504015e+01 -3.8483368245e+00 -1.5857253920e+01 1.9975086755e+01 1.7770000000e+00 0.0000e+00 -1.0000e+00
</event>
<event>
 6 1 7.08916e-05 5.00384300e+02 7.54677100e-03 9.39895000e-02
      -11 -1    0    0    0    0 +0.0000000000e+00 +0.0000000000e+00 +5.0000000000e+02 5.0000000000e+02 0.0000000000e+00 0.0000e+00 -1.0000e+00
       11 -1    0    0    0    0 -0.0000000000e+00 -0.0000000000e+00 -5.0000000000e+02 5.0000000000e+02 0.0000000000e+00 0.0000e+00 -1.0000e+00
      -11  1    1    2    0    0 +3.5209887248e+00 +1.0629316766e+01 +4.9949016256e+02 4.9961565451e+02 0.0000000000e+00 0.0000e+00 -1.0000e+00
       11  1    1    2    0    0 +5.0971206465e+00 +5.1246772634e+00 -2.1988978433e+02 2.2000854576e+02 0.0000000000e+00 0.0000e+00 -1.0000e+00
      -15  1    1    2    0    0 +4.6946606394e-01 -5.0480307847e+00 -4.0207112847e+01 4.0564426110e+01 1.7770000000e+00 0.0000e+00 1.0000e+00
       15  1    1    2    0    0 -9.0875754353e+00 -1.0705963244e+01 -2.3939326538e+02 2.3981137362e+02 1.7770000000e+00 0.0000e+00 -1.0000e+00
</event>
<event>
 6 1 7.08916e-05 5.01073600e+02 7.54677100e-03 9.39741100e-02
      -11 -1    0    0    0    0 +0.0000000000e+00 +0.0000000000e+00 +5.0000000000e+02 5.0000000000e+02 0.0000000000e+00 0.0000e+00 -1.0000e+00
       11 -1    0    0    0    0 -0.0000000000e+00 -0.0000000000e+00 -5.0000000000e+02 5.0000000000e+02 0.0000000000e+00 0.0000e+00 -1.0000e+00
      -11  1    1    2    0    0 +5.8780699314e+00 -1.4912294863e+00 +2.8818039894e+02 2.8824419821e+02 0.0000000000e+00 0.0000e+00 -1.0000e+00
       11  1    1    2    0    0 +1.6225098081e+00 -7.0940659921e+00 -4.9887328637e+02 4.9892636146e+02 0.0000000000e+00 0.0000e+00 -1.0000e+00
      -15  1    1    2    0    0 -5.4383979645e+00 +9.0185501729e-01 +7.5145861057e+00 9.4876892989e+00 1.7770000000e+00 0.0000e+00 1.0000e+00
       15  1    1    2    0    0 -2.0621817750e+00 +7.6834404611e+00 +2.0317830133e+02 2.0334175102e+02 1.7770000000e+00 0.0000e+00 -1.0000e+00
</event>
<event>
 6 1 7.08916e-05 5.12591800e+02 7.54677100e-03 9.37206700e-02
      -11 -1    0    0    0    0 +0.0000000000e+00 +0.0000000000e+00 +5.0000000000e+02 5.0000000000e+02 0.0000000000e+00 0.0000e+00 1.0000e+00
       11 -1    0    0    0    0 -0.0000000000e+00 -0.0000000000e+00 -5.0000000000e+02 5.0000000000e+02 0.0000000000e+00 0.0000e+00 1.0000e+00
      -11  1    1    2    0    0 -7.4711647755e+00 +6.4043401032e+00 +4.8730885765e+02 4.8740820328e+02 0.0000000000e+00 0.0000e+00 1.0000e+00
       11  1    1    2    0    0 -3.6621238411e-01 -1.2503535035e+01 -4.6521005829e+02 4.6537820193e+02 0.0000000000e+00 0.0000e+00 1.0000e+00
      -15  1    1    2    0    0 -2.5070065929e+00 -1.1005648080e+01 +5.8255898870e+00 1.2825934596e+01 1.7770000000e+00 0.0000e+00 -1.0000e+00
       15  1    1    2    0    0 +1.0344383752e+01 +1.7104843012e+01 -2.7924389255e+01 3.4387660199e+01 1.7770000000e+00 0.0000e+00 1.0000e+00
</event>
<event>
 6 1 7.08916e-05 5.07159900e+02 7.54677100e-03 9.38393000e-02
      -11 -1    0    0    0    0 +0.0000000000e+00 +0.0000000000e+00 +5.0000000000e+02 5.0000000000e+02 0.0000000000e+00 0.0000e+00 -1.0000e+00
       11 -1    0    0    0    0 -0.0000000000e+00 -0.0000000000e+00 -5.0000000000e+02 5.0000000000e+02 0.0000000000e+00 0.0000e+00 -1.0000e+00
      -11  1    1    2    0    0 +6.6070233959e+00 -3.2447303581e+00 +2.1385747334e+01 2.2617056004e+01 0.0000000000e+00 0.0000e+00 -1.0000e+00
       11  1    1    2    0    0 -7.3188561232e+00 +1.7014018305e+00 -4.9278286049e+02 4.9284014448e+02 0.0000000000e+00 0.0000e+00 -1.0000e+00
      -15  1    1    2    0    0 -8.2330301718e+00 +8.7693325062e+00 +4.7268044179e+02 4.7283680246e+02 1.7770000000e+00 0.0000e+00 -1.0000e+00
       15  1    1    2    0    0 +8.9448628991e+00 -7.2260039785e+00 -1.2833286365e+00 1.1705997060e+01 1.7770000000e+00 0.0000e+00 1.0000e+00
</event>
<event>
 6 1 7.08916e-05 5.05065500e+02 7.54677100e-03 9.38854600e-02
      -11 -1    0    0    0    0 +0.0000000000e+00 +0.0000000000e+00 +5.0000000000e+02 5.0000000000e+02 0.0000000000e+00 0.0000e+00 1.0000e+00
       11 -1    0    0    0    0 -0.0000000000e+00 -0.0000000000e+00 -5.0000000000e+02 5.0000000000e+02 0.0000000000e+00 0.0000e+00 1.0000e+00
      -11  1    1    2    0    0 +3.5645479861e+00 -2.0796635487e+01 +4.3705519797e+02 4.3756422629e+02 0.0000000000e+00 0.0000e+00 1.0000e+00
       11  1    1    2    0    0 +5.8319865259e+00 +7.3207742092e+00 -4.9484595180e+02 4.9493446214e+02 0.0000000000e+00 0.0000e+00 1.0000e+00
      -15  1    1    2    0    0 +1.0460933245e+00 +2.1478186400e+01 +3.7079443152e+01 4.2900461953e+01 1.7770000000e+00 0.0000e+00 1.0000e+00
       15  1    1    2    0    0 -1.0442627836e+01 -8.0023251218e+00 +2.0711310671e+01 2.4600849624e+01 1.7770000000e+00 0.0000e+00 -1.0000e+00
</event>
<event>
 6 1 7.08916e-05 5.01167600e+02 7.54677100e-03 9.39720100e-02
      -11 -1    0    0    0    0 +0.0000000000e+00 +0.0000000000e+00 +5.0000000000e+02 5.0000000000e+02 0.0000000000e+00 0.0000e+00 -1.0000e+00
       11 -1    0    0    0    0 -0.0000000000e+00 -0.0000000000e+00 -5.0000000000e+02 5.0000000000e+02 0.0000000000e+00 0.0000e+00 1.0000e+00
      -11  1    1    2    0    0 -2.9905279818e-01 +6.2261374079e+00 +4.2645110156e+02 4.2649665444e+02 0.0000000000e+00 0.0000e+00 -1.0000e+00
       11  1    1    2    0    0 +1.2896342076e+01 -4.6441925144e+00 -4.9864403265e+02 4.9883239215e+02 0.0000000000e+00 0.0000e+00 1.0000e+00
      -15  1    1    2    0    0 -5.3103135442e+00 -4.0782392623e+00 +5.8106916516e+01 5.8518398316e+01 1.7770000000e+00 0.0000e+00 1.0000e+00
       15  1    1    2    0    0 -7.2869757335e+00 +2.4962943688e+00 +1.4086014566e+01 1.6152555100e+01 1.7770000000e+00 0.0000e+00 -1.0000e+00
</event>
<event>
 6 1 7.08916e-05 5.10037700e+02 7.54677100e-03 9.37762600e-02
      -11 -1    0    0    0    0 +0.0000000000e+00 +0.0000000000e+00 +5.0000000000e+02 5.0000000000e+02 0.0000000000e+00 0.0000e+00 -1.0000e+00
       11 -1    0    0    0    0 -0.0000000000e+00 -0.0000000000e+00 -5.0000000000e+02 5.0000000000e+02 0.0000000000e+00 0.0000e+00 -1.0000e+00
      -11  1    1    2    0    0 -7.9974487075e+00 +2.8570278430e+01 +4.8906323937e+02 4.8996231702e+02 0.0000000000e+00 0.0000e+00 -1.0000e+00
       11  1    1    2    0    0 -2.5354067369e+00 -1.0171706709e+01 -4.0884053981e+02 4.0897491230e+02 0.0000000000e+00 0.0000e+00 -1.0000e+00
      -15  1    1    2    0    0 +1.8052930396e+01 -9.6343231020e+00 -8.5722451847e+01 8.8148879501e+01 1.7770000000e+00 0.0000e+00 -1.0000e+00
       15  1    1    2    0    0 -7.5200749518e+00 -8.7642486197e+00 +5.4997522854e+00 1.2913891178e+01 1.7770000000e+00 0.0000e+00 1.0000e+00
</event>
<event>
 6 1 7.08916e-05 5.05449700e+02 7.54677100e-03 9.38769700e-02
      -11 -1    0    0    0    0 +0.0000000000e+00 +0.0000000000e+00 +5.0000000000e+02 5.0000000000e+02 0.0000000000e+00 0.0000e+00 -1.0000e+00
       11 -1    0    0    0    0 -0.0000000000e+00 -0.0000000000e+00 -5.0000000000e+02 5.0000000000e+02 0.0000000000e+00 0.0000e+00 1.0000e+00
      -11  1    1    2    0    0 +1.2403960040e+01 -3.8439876381e+00 +4.7196808538e+02 4.7214670186e+02 0.0000000000e+00 0.0000e+00 -1.0000e+00
       11  1    1    2    0    0 -2.4308845514e+00 +6.6653553963e+00 -4.9449940690e+02 4.9455030036e+02 0.0000000000e+00 0.0000e+00 1.0000e+00
      -15  1    1    2    0    0 -1.8991025009e+00 -1.1592719525e+01 +1.4818208686e+01 1.8993019085e+01 1.7770000000e+00 0.0000e+00 1.0000e+00
       15  1    1    2    0    0 -8.0739729878e+00 +8.7713517670e+00 +7.7131128351e+00 1.4309978694e+01 1.7770000000e+00 0.0000e+00 -1.0000e+00
</event>
<event>
 7 1 7.08916e-05 4.44708800e+02 7.54677100e-03 9.53280800e-02
      -11 -1    0    0    0    0 +0.0000000000e+00 +0.0000000000e+00 +5.0000000000e+02 5.0000000000e+02 0.0000000000e+00 0.0000e+00 1.0000e+00
       11 -1    0    0    0    0 -0.0000000000e+00 -0.0000000000e+00 -5.0000000000e+02 5.0000000000e+02 0.0000000000e+00 0.0000e+00 1.0000e+00
       23  2    1    2    0    0 -6.1817802827e+00 -5.3954351468e+01 +4.5226117027e+02 4.6449395858e+02 9.0913062687e+01 0.0000e+00 0.0000e+00
      -11  1    1    2    0    0 +9.1870966499e+01 +5.3017590833e+01 -3.8309596920e+01 1.1277750059e+02 0.0000000000e+00 0.0000e+00 1.0000e+00
       11  1    1    2    0    0 -8.5689186216e+01 +9.3676063480e-01 -4.1395157335e+02 4.2272854083e+02 0.0000000000e+00 0.0000e+00 1.0000e+00
      -15  1    3    3    0    0 +2.3963010869e+01 +1.6560768318e+01 +1.2697461356e+02 1.3028505346e+02 1.7770000000e+00 0.0000e+00 -1.0000e+00
       15  1    3    3    0    0 -3.0144791152e+01 -7.0515119786e+01 +3.2528655671e+02 3.3420890512e+02 1.7770000000e+00 0.0000e+00 1.0000e+00
</event>
<event>
 6 1 7.08916e-05 5.09785500e+02 7.54677100e-03 9.37817600e-02
      -11 -1    0    0    0    0 +0.0000000000e+00 +0.0000000000e+00 +5.0000000000e+02 5.0000000000e+02 0.0000000000e+00 0.0000e+00 1.0000e+00
       11 -1    0    0    0    0 -0.0000000000e+00 -0.0000000000e+00 -5.0000000000e+02 5.0000000000e+02 0.0000000000e+00 0.0000e+00 -1.0000e+00
      -11  1    1    2    0    0 -7.6048562997e+00 +2.3348778686e-01 +4.9015540347e+02 4.9021445094e+02 0.0000000000e+00 0.0000e+00 1.0000e+00
       11  1    1    2    0    0 +5.5590294767e+00 -1.1171156846e+01 -4.8042749846e+02 4.8058951178e+02 0.0000000000e+00 0.0000e+00 -1.0000e+00
      -15  1    1    2    0    0 +4.0495926643e+00 -4.8279952169e+00 -1.1370081372e+01 1.3120412264e+01 1.7770000000e+00 0.0000e+00 -1.0000e+00
       15  1    1    2    0    0 -2.0037658413e+00 +1.5765664276e+01 +1.6421763602e+00 1.6075625021e+01 1.7770000000e+00 0.0000e+00 1.0000e+00
</event>
<event>
 6 1 7.08916e-05 5.09111700e+02 7.54677100e-03 9.37964900e-02
      -11 -1    0    0    0    0 +0.0000000000e+00 +0.0000000000e+00 +5.0000000000e+02 5.0000000000e+02 0.0000000000e+00 0.0000e+00 1.0000e+00
       11 -1    0    0    0    0 -0.0000000000e+00 -0.0000000000e+00 -5.0000000000e+02 5.0000000000e+02 0.0000000000e+00 0.0000e+00 -1.0000e+00
      -11  1    1    2    0    0 -5.3482465016e+00 +2.8840649264e+01 +4.9001113467e+02 4.9088827536e+02 0.0000000000e+00 0.0000e+00 1.0000e+00
       11  1    1    2    0    0 -1.0435360331e+01 -3.8676970180e+00 -4.6984336347e+02 4.6997515043e+02 0.0000000000e+00 0.0000e+00 -1.0000e+00
      -15  1    1    2    0    0 +1.4187770588e+01 -1.4205412289e+01 -5.7033221599e+00 2.0946889631e+01 1.7770000000e+00 0.0000e+00 1.0000e+00
       15  1    1    2    0    0 +1.5958362446e+00 -1.0767539957e+01 -1.4464449042e+01 1.8189684580e+01 1.7770000000e+00 0.0000e+00 -1.0000e+00
</event>
<event>
 6 1 7.08916e-05 5.00900200e+02 7.54677100e-03 9.39779800e-02
      -11 -1    0    0    0    0 +0.0000000000e+00 +0.0000000000e+00 +5.0000000000e+02 5.0000000000e+02 0.0000000000e+00 0.0000e+00 1.0000e+00
       11 -1    0    0    0    0 -0.0000000000e+00 -0.0000000000e+00 -5.0000000000e+02 5.0000000000e+02 0.0000000000e+00 0.0000e+00 -1.0000e+00
      -11  1    1    2    0    0 -2.4758952926e+00 -7.7197668734e+00 +3.4087977754e+02 3.4097616866e+02 0.0000000000e+00 0.0000e+00 1.0000e+00
       11  1    1    2    0    0 -1.0508430598e+01 +1.6673518515e+01 -4.9871051929e+02 4.9909980503e+02 0.0000000000e+00 0.0000e+00 -1.0000e+00
      -15  1    1    2    0    0 +1.1084883507e+00 -1.0212094601e+01 +1.1352481887e+02 1.1400244669e+02 1.7770000000e+00 0.0000e+00 1.0000e+00
       15  1    1    2    0    0 +1.1875837540e+01 +1.2583429602e+00 +4.4305922875e+01 4.5921579623e+01 1.7770000000e+00 0.0000e+00 -1.0000e+00
</event>
<event>
 6 1 7.08916e-05 5.14000600e+02 7.54677100e-03 9.36901600e-02
      -11 -1    0    0    0    0 +0.0000000000e+00 +0.0000000000e+00 +5.0000000000e+02 5.0000000000e+02 0.0000000000e+00 0.0000e+00 -1.0000e+00
       11 -1    0    0    0    0 -0.0000000000e+00 -0.0000000000e+00 -5.0000000000e+02 5.0000000000e+02 0.0000000000e+00 0.0000e+00 1.0000e+00
      -11  1    1    2    0    0 +4.2276086301e+00 -5.2841847545e+00 +4.8595224533e+02 4.8599936217e+02 0.0000000000e+00 0.0000e+00 -1.0000e+00
       11  1    1    2    0    0 -1.7877135822e+01 -7.9690303896e+00 -4.5829863136e+02 4.5871639706e+02 0.0000000000e+00 0.0000e+00 1.0000e+00
      -15  1    1    2    0    0 -5.9517545808e+00 +1.9618837709e+01 +2.1239395527e-01 2.0579723415e+01 1.7770000000e+00 0.0000e+00 1.0000e+00
       15  1    1    2    0    0 +1.9601281772e+01 -6.3656225651e+00 -2.7866007932e+01 3.4704517355e+01 1.7770000000e+00 0.0000e+00 -1.0000e+00
</event>
<event>
 6 1 7.08916e-05 5.08636900e+02 7.54677100e-03 9.38068900e-02
      -11 -1    0    0    0    0 +0.0000000000e+00 +0.0000000000e+00 +5.0000000000e+02 5.0000000000e+02 0.0000000000e+00 0.0000e+00 -1.0000e+00
       11 -1    0    0    0    0 -0.0000000000e+00 -0.0000000000e+00 -5.0000000000e+02 5.0000000000e+02 0.0000000000e+00 0.0000e+00 1.0000e+00
      -11  1    1    2    0    0 -1.1037565343e+00 -7.4246486962e+00 +4.3697199118e+02 4.3703645701e+02 0.0000000000e+00 0.0000e+00 -1.0000e+00
       11  1    1    2    0    0 +5.0925366729e+00 +5.2112455334e+00 -4.9130902742e+02 4.9136305460e+02 0.0000000000e+00 0.0000e+00 1.0000e+00
      -15  1    1    2    0    0 -1.8124006592e+00 -5.5226131645e+00 -7.2529926434e+00 9.4629637851e+00 1.7770000000e+00 0.0000e+00 -1.0000e+00
       15  1    1    2    0    0 -2.1763794794e+00 +7.7360163272e+00 +6.1590028883e+01 6.2137524597e+01 1.7770000000e+00 0.0000e+00 -1.0000e+00
</event>
<event>
 6 1 7.08916e-05 5.00685300e+02 7.54677100e-03 9.39827800e-02
      -11 -1    0    0    0    0 +0.0000000000e+00 +0.0000000000e+00 +5.0000000000e+02 5.0000000000e+02 0.0000000000e+00 0.0000e+00 1.0000e+00
       11 -1    0    0    0    0 -0.0000000000e+00 -0.0000000000e+00 -5.0000000000e+02 5.0000000000e+02 0.0000000000e+00 0.0000e+00 1.0000e+00
      -11  1    1    2    0    0 -1.0428318049e+01 -2.6875909132e+00 +3.9876888324e+02 3.9891427049e+02 0.0000000000e+00 0.0000e+00 1.0000e+00
       11  1    1    2    0    0 +6.9596673204e+00 +1.8315927083e+00 -4.9926278916e+02 4.9931465465e+02 0.0000000000e+00 0.0000e+00 1.0000e+00
      -15  1    1    2    0    0 +7.7451367913e+00 -4.0814967863e+00 +6.7610721586e+01 6.8198336947e+01 1.7770000000e+00 0.0000e+00 1.0000e+00
       15  1    1    2    0    0 -4.2764860625e+00 +4.9374949912e+00 +3.2883184336e+01 3.3572737912e+01 1.7770000000e+00 0.0000e+00 -1.0000e+00
</event>
<event>
 6 1 7.08916e-05 5.08506900e+02 7.54677100e-03 9.38097400e-02
      -11 -1    0    0    0    0 +0.0000000000e+00 +0.0000000000e+00 +5.0000000000e+02 5.0000000000e+02 0.0000000000e+00 0.0000e+00 -1.0000e+00
       11 -1    0    0    0    0 -0.0000000000e+00 -0.0000000000e+00 -5.0000000000e+02 5.0000000000e+02 0.0000000000e+00 0.0000e+00 1.0000e+00
      -11  1    1    2    0    0 +7.1429419878e-01 -2.9315444404e+01 +2.1896682572e+02 2.2092165186e+02 0.0000000000e+00 0.0000e+00 -1.0000e+00
       11  1    1    2    0    0 +6.4149320278e+00 +2.5983517954e+01 -4.9076387923e+02 4.9149311258e+02 0.0000000000e+00 0.0000e+00 1.0000e+00
      -15  1    1    2    0    0 -7.4736722130e+00 +6.9041722498e+00 +2.7908150139e+02 2.7927256492e+02 1.7770000000e+00 0.0000e+00 -1.0000e+00
       15  1    1    2    0    0 +3.4444598639e-01 -3.5722457997e+00 -7.2844478849e+00 8.3126706346e+00 1.7770000000e+00 0.0000e+00 1.0000e+00
</event>
<event>
 6 1 7.08916e-05 5.23713600e+02 7.54677100e-03 9.34825800e-02
      -11 -1    0    0    0    0 +0.0000000000e+00 +0.0000000000e+00 +5.0000000000e+02 5.0000000000e+02 0.0000000000e+00 0.0000e+00 1.0000e+00
       11 -1    0    0    0    0 -0.0000000000e+00 -0.0000000000e+00 -5.0000000000e+02 5.0000000000e+02 0.0000000000e+00 0.0000e+00 -1.0000e+00
      -11  1    1    2    0    0 +1.2364460829e+01 +7.3408465989e+00 +4.5775480162e+02 4.5798059601e+02 0.0000000000e+00 0.0000e+00 1.0000e+00
       11  1    1    2    0    0 -5.9124614798e+00 +1.8622013751e+01 -4.7588550476e+02 4.7628641618e+02 0.0000000000e+00 0.0000e+00 -1.0000e+00
      -15  1    1    2    0    0 +1.7477246483e+01 -7.9389646399e+00 -1.2400605993e+01 2.2921912271e+01 1.7770000000e+00 0.0000e+00 1.0000e+00
       15  1    1    2    0    0 -2.3929245832e+01 -1.8023895710e+01 +3.0531309130e+01 4.2811075540e+01 1.7770000000e+00 0.0000e+00 1.0000e+00
</event>
<event>
 6 1 7.08916e-05 5.35507700e+02 7.54677100e-03 9.32368600e-02
      -11 -1    0    0    0    0 +0.0000000000e+00 +0.0000000000e+00 +5.0000000000e+02 5.0000000000e+02 0.0000000000e+00 0.0000e+00 -1.0000e+00
       11 -1    0    0    0    0 -0.0000000000e+00 -0.0000000000e+00 -5.0000000000e+02 5.0000000000e+02 0.0000000000e+00 0.0000e+00 1.0000e+00
      -11  1    1    2    0    0 +8.3110932819e+01 -1.6313824359e+02 +4.2688594383e+02 4.6449232794e+02 0.0000000000e+00 0.0000e+00 -1.0000e+00
       11  1    1    2    0    0 -8.9847853471e+00 -1.2842669944e+01 -1.4374542709e+02 1.4459740090e+02 0.0000000000e+00 0.0000e+00 1.0000e+00
      -15  1    1    2    0    0 -1.4255392796e+01 +2.5375295157e+01 +2.7783977552e+01 4.0276903626e+01 1.7770000000e+00 0.0000e+00 -1.0000e+00
       15  1    1    2    0    0 -5.9870754675e+01 +1.5060561837e+02 -3.1092449429e+02 3.5063336754e+02 1.7770000000e+00 0.0000e+00 1.0000e+00
</event>
<event>
 6 1 7.08916e-05 5.00085400e+02 7.54677100e-03 9.39961900e-02
      -11 -1    0    0    0    0 +0.0000000000e+00 +0.0000000000e+00 +5.0000000000e+02 5.0000000000e+02 0.0000000000e+00 0.0000e+00 -1.0000e+00
       11 -1    0    0    0    0 -0.0000000000e+00 -0.0000000000e+00 -5.0000000000e+02 5.0000000000e+02 0.0000000000e+00 0.0000e+00 -1.0000e+00
      -11  1    1    2    0    0 +9.0918703742e-01 -2.6901486913e+00 +3.1712981224e+01 3.1839860225e+01 0.0000000000e+00 0.0000e+00 -1.0000e+00
       11  1    1    2    0    0 +6.9967975758e+00 +1.0528218614e+00 -4.9986451940e+02 4.9991459407e+02 0.0000000000e+00 0.0000e+00 -1.0000e+00
      -15  1    1    2    0    0 -1.3753992755e+00 -2.5114996688e-01 +1.4496385783e+02 1.4498149056e+02 1.7770000000e+00 0.0000e+00 -1.0000e+00
       15  1    1    2    0    0 -6.5305853377e+00 +1.8884767967e+00 +3.2318768035e+02 3.2326405514e+02 1.7770000000e+00 0.0000e+00 -1.0000e+00
</event>
<event>
 6 1 7.08916e-05 5.03664100e+02 7.54677100e-03 9.39164800e-02
      -11 -1    0    0    0    0 +0.0000000000e+00 +0.0000000000e+00 +5.0000000000e+02 5.0000000000e+02 0.0000000000e+00 0.0000e+00 1.0000e+00
       11 -1    0    0    0    0 -0.0000000000e+00 -0.0000000000e+00 -5.0000000000e+02 5.0000000000e+02 0.0000000000e+00 0.0000e+00 1.0000e+00
      -11  1    1    2    0    0 -7.0888096771e+00 -8.2131735335e+00 +4.9621735786e+02 4.9633594841e+02 0.0000000000e+00 0.0000e+00 1.0000e+00
       11  1    1    2    0    0 +9.7334363677e+00 +1.1886833881e+01 -3.0794721215e+02 3.0833021596e+02 0.0000000000e+00 0.0000e+00 1.0000e+00
      -15  1    1    2    0    0 -1.5872769839e+01 -7.6481225792e+00 -2.0935246940e+01 2.7420446656e+01 1.7770000000e+00 0.0000e+00 1.0000e+00
       15  1    1    2    0    0 +1.3228143148e+01 +3.9744622318e+00 -1.6733489877e+02 1.6791338897e+02 1.7770000000e+00 0.0000e+00 -1.0000e+00
</event>
<event>
 6 1 7.08916e-05 5.03666900e+02 7.54677100e-03 9.39164200e-02
      -11 -1    0    0    0    0 +0.0000000000e+00 +0.0000000000e+00 +5.0000000000e+02 5.0000000000e+02 0.0000000000e+00 0.0000e+00 1.0000e+00
       11 -1    0    0    0    0 -0.0000000000e+00 -0.0000000000e+00 -5.0000000000e+02 5.0000000000e+02 0.0000000000e+00 0.0000e+00 -1.0000e+00
      -11  1    1    2    0    0 -1.0568417533e+01 +3.2853891770e+00 +4.9620965169e+02 4.9633305719e+02 0.0000000000e+00 0.0000e+00 1.0000e+00
       11  1    1    2    0    0 -1.0363421136e+01 +2.8653043451e-01 -4.3606608457e+02 4.3618930834e+02 0.0000000000e+00 0.0000e+00 -1.0000e+00
      -15  1    1    2    0    0 +9.9327422819e+00 -1.6888976703e+00 -5.3774713343e+00 1.1557970044e+01 1.7770000000e+00 0.0000e+00 -1.0000e+00
       15  1    1    2    0    0 +1.0999096387e+01 -1.8830219412e+00 -5.4766095789e+01 5.5919664430e+01 1.7770000000e+00 0.0000e+00 1.0000e+00
</event>
<event>
 6 1 7.08916e-05 5.24967800e+02 7.54677100e-03 9.34561200e-02
      -11 -1    0    0    0    0 +0.0000000000e+00 +0.0000000000e+00 +5.0000000000e+02 5.0000000000e+02 0.0000000000e+00 0.0000e+00 1.0000e+00
       11 -1    0    0    0    0 -0.0000000000e+00 -0.0000000000e+00 -5.0000000000e+02 5.0000000000e+02 0.0000000000e+00 0.0000e+00 1.0000e+00
      -11  1    1    2    0    0 +1.7361792569e+01 +2.0763922637e+01 +4.2802004985e+02 4.2887496476e+02 0.0000000000e+00 0.0000e+00 1.0000e+00
       11  1    1    2    0    0 +2.6620968965e+00 +7.0635204027e+00 -4.7497217373e+02 4.7503215249e+02 0.0000000000e+00 0.0000e+00 1.0000e+00
      -15  1    1    2    0    0 -1.7365705716e+01 -4.2748629127e+01 -5.7189766268e-01 4.6178975987e+01 1.7770000000e+00 0.0000e+00 -1.0000e+00
       15  1    1    2    0    0 -2.6581837495e+00 +1.4921186087e+01 +4.7524021550e+01 4.9913906764e+01 1.7770000000e+00 0.0000e+00 1.0000e+00
</event>
<event>
 6 1 7.08916e-05 5.04999100e+02 7.54677100e-03 9.38869300e-02
      -11 -1    0    0    0    0 +0.0000000000e+00 +0.0000000000e+00 +5.0000000000e+02 5.0000000000e+02 0.0000000000e+00 0.0000e+00 -1.0000e+00
       11 -1    0    0    0    0 -0.0000000000e+00 -0.0000000000e+00 -5.0000000000e+02 5.0000000000e+02 0.0000000000e+00 0.0000e+00 1.0000e+00
      -11  1    1    2    0    0 -3.4816560414e+00 +5.0008760443e+00 +4.0307383355e+02 4.0311989033e+02 0.0000000000e+00 0.0000e+00 -1.0000e+00
       11  1    1    2    0    0 -2.3396940501e+01 +2.2701457949e+01 -4.9392620777e+02 4.9500088055e+02 0.0000000000e+00 0.0000e+00 1.0000e+00
      -15  1    1    2    0    0 +2.4701287952e+01 -3.0997882399e+01 +6.8930612238e+01 7.9533699601e+01 1.7770000000e+00 0.0000e+00 -1.0000e+00
       15  1    1    2    0    0 +2.1773085904e+00 +3.2955484055e+00 +2.1921761984e+01 2.2345529519e+01 1.7770000000e+00 0.0000e+00 1.0000e+00
</event>
<event>
 6 1 7.08916e-05 4.76302000e+02 7.54677100e-03 9.45445500e-02
      -11 -1    0    0    0    0 +0.0000000000e+00 +0.0000000000e+00 +5.0000000000e+02 5.0000000000e+02 0.0000000000e+00 0.0000e+00 -1.0000e+00
       11 -1    0    0    0    0 -0.0000000000e+00 -0.0000000000e+00 -5.0000000000e+02 5.0000000000e+02 0.0000000000e+00 0.0000e+00 -1.0000e+00
      -11  1    1    2    0    0 -7.9422257705e+00 +2.6498197668e+01 +4.6700005212e+02 4.6781864232e+02 0.0000000000e+00 0.0000e+00 -1.0000e+00
       11  1    1    2    0    0 -2.4687377289e+00 +1.1217792623e+01 -4.8563486825e+02 4.8577068540e+02 0.0000000000e+00 0.0000e+00 -1.0000e+00
      -15  1    1    2    0    0 +8.3286063111e+00 -1.0502187983e+01 +3.7851662630e-01 1.3526368299e+01 1.7770000000e+00 0.0000e+00 -1.0000e+00
       15  1    1    2    0    0 +2.0823571883e+00 -2.7213802308e+01 +1.8256299504e+01 3.2884303978e+01 1.7770000000e+00 0.0000e+00 1.0000e+00
</event>
<event>
 6 1 7.08916e-05 5.05495300e+02 7.54677100e-03 9.38759700e-02
      -11 -1    0    0    0    0 +0.0000000000e+00 +0.0000000000e+00 +5.0000000000e+02 5.0000000000e+02 0.0000000000e+00 0.0000e+00 1.0000e+00
       11 -1    0    0    0    0 -0.0000000000e+00 -0.0000000000e+00 -5.0000000000e+02 5.0000000000e+02 0.0000000000e+00 0.0000e+00 -1.0000e+00
      -11  1    1    2    0    0 +1.5381183441e+01 -1.6281414140e+00 +4.9426279012e+02 4.9450473946e+02 0.0000000000e+00 0.0000e+00 1.0000e+00
       11  1    1    2    0    0 +5.4187206223e+00 -9.5148016870e+00 -1.6874490881e+02 1.6909978780e+02 0.0000000000e+00 0.0000e+00 -1.0000e+00
      -15  1    1    2    0    0 -1.3961172935e+01 -6.3906051589e+00 -3.1374495965e+02 3.1412547114e+02 1.7770000000e+00 0.0000e+00 -1.0000e+00
       15  1    1    2    0    0 -6.8387311283e+00 +1.7533548260e+01 -1.1772921657e+01 2.2270001603e+01 1.7770000000e+00 0.0000e+00 1.0000e+00
</event>
<event>
 6 1 7.08916e-05 5.00212300e+02 7.54677100e-03 9.39933500e-02
      -11 -1    0    0    0    0 +0.0000000000e+00 +0.0000000000e+00 +5.0000000000e+02 5.0000000000e+02 0.0000000000e+00 0.0000e+00 1.0000e+00
       11 -1    0    0    0    0 -0.0000000000e+00 -0.0000000000e+00 -5.0000000000e+02 5.0000000000e+02 0.0000000000e+00 0.0000e+00 1.0000e+00
      -11  1    1    2    0    0 -7.7629047736e+00 -3.6699805127e+00 +4.9971393002e+02 4.9978769823e+02 0.0000000000e+00 0.0000e+00 1.0000e+00
       11  1    1    2    0    0 +3.9044833858e+00 +3.9211711705e+00 -3.7465437304e+02 3.7469523591e+02 0.0000000000e+00 0.0000e+00 1.0000e+00
      -15  1    1    2    0    0 -1.0262305514e+00 -3.4562396435e+00 -7.1003978575e+01 7.1117659158e+01 1.7770000000e+00 0.0000e+00 -1.0000e+00
       15  1    1    2    0    0 +4.8846519392e+00 +3.2050489858e+00 -5.4055578406e+01 5.4399406700e+01 1.7770000000e+00 0.0000e+00 1.0000e+00
</event>
<event>
 6 1 7.08916e-05 4.79289600e+02 7.54677100e-03 9.44738200e-02
      -11 -1    0    0    0    0 +0.0000000000e+00 +0.0000000000e+00 +5.0000000000e+02 5.0000000000e+02 0.0000000000e+00 0.0000e+00 1.0000e+00
       11 -1    0    0    0    0 -0.0000000000e+00 -0.0000000000e+00 -5.0000000000e+02 5.0000000000e+02 0.0000000000e+00 0.0000e+00 -1.0000e+00
      -11  1    1    2    0    0 +1.9131181784e+01 +1.9604781309e+01 +4.8286629291e+02 4.8364264328e+02 0.0000000000e+00 0.0000e+00 1.0000e+00
       11  1    1    2    0    0 -7.9412183902e+00 +1.5203568771e+01 -4.7535356185e+02 4.7566292710e+02 0.0000000000e+00 0.0000e+00 -1.0000e+00
      -15  1    1    2    0    0 +1.1209344031e+00 -3.7285188669e+00 +3.4196172663e+00 5.4781254207e+00 1.7770000000e+00 0.0000e+00 1.0000e+00
       15  1    1    2    0    0 -1.2310897797e+01 -3.1079831213e+01 -1.0932348331e+01 3.5216304205e+01 1.7770000000e+00 0.0000e+00 -1.0000e+00
</event>
<event>
 6 1 7.08916e-05 5.01789700e+02 7.54677100e-03 9.39581400e-02
      -11 -1    0    0    0    0 +0.0000000000e+00 +0.0000000000e+00 +5.0000000000e+02 5.0000000000e+02 0.0000000000e+00 0.0000e+00 1.0000e+00
       11 -1    0    0    0    0 -0.0000000000e+00 -0.0000000000e+00 -5.0000000000e+02 5.0000000000e+02 0.0000000000e+00 0.0000e+00 -1.0000e+00
      -11  1    1    2    0    0 -5.0785197315e+00 -9.1808501417e+00 +4.9809978857e+02 4.9821027564e+02 0.0000000000e+00 0.0000e+00 1.0000e+00
       11  1    1    2    0    0 -3.5456835949e+00 -7.4118328444e+00 -3.3675110054e+02 3.3685131862e+02 0.0000000000e+00 0.0000e+00 -1.0000e+00
      -15  1    1    2    0    0 +6.9154692953e+00 +1.0713271678e+00 -7.9598260716e+00 1.0746535142e+01 1.7770000000e+00 0.0000e+00 1.0000e+00
       15  1    1    2    0    0 +1.7087340311e+00 +1.5521355818e+01 -1.5338886196e+02 1.5419187060e+02 1.7770000000e+00 0.0000e+00 -1.0000e+00
</event>
<event>
 6 1 7.08916e-05 5.00827200e+02 7.54677100e-03 9.39796100e-02
      -11 -1    0    0    0    0 +0.0000000000e+00 +0.0000000000e+00 +5.0000000000e+02 5.0000000000e+02 0.0000000000e+00 0.0000e+00 1.0000e+00
       11 -1    0    0    0    0 -0.0000000000e+00 -0.0000000000e+00 -5.0000000000e+02 5.0000000000e+02 0.0000000000e+00 0.0000e+00 1.0000e+00
      -11  1    1    2    0    0 -2.8031186171e+01 -6.9124546991e+00 +4.9833721887e+02 4.9917282893e+02 0.0000000000e+00 0.0000e+00 1.0000e+00
       11  1    1    2    0    0 -2.7434759300e+00 +7.2240711686e-01 -1.1553268336e+02 1.1556751039e+02 0.0000000000e+00 0.0000e+00 1.0000e+00
      -15  1    1    2    0    0 -1.5263681075e+00 -4.8619356634e+00 -1.3504412823e+02 1.3515192384e+02 1.7770000000e+00 0.0000e+00 -1.0000e+00
       15  1    1    2    0    0 +3.2301030209e+01 +1.1051983246e+01 -2.4776040728e+02 2.5010773685e+02 1.7770000000e+00 0.0000e+00 1.0000e+00
</event>
<event>
 6 1 7.08916e-05 5.00080000e+02 7.54677100e-03 9.39963100e-02
      -11 -1    0    0    0    0 +0.0000000000e+00 +0.0000000000e+00 +5.0000000000e+02 5.0000000000e+02 0.0000000000e+00 0.0000e+00 -1.0000e+00
       11 -1    0    0    0    0 -0.0000000000e+00 -0.0000000000e+00 -5.0000000000e+02 5.0000000000e+02 0.0000000000e+00 0.0000e+00 1.0000e+00
      -11  1    1    2    0    0 +5.4953060534e-01 +6.0208336383e+00 +2.8333380971e+02 2.8339830653e+02 0.0000000000e+00 0.0000e+00 -1.0000e+00
       11  1    1    2    0    0 -3.8649028791e+00 -7.6652181091e+00 -4.9984627795e+02 4.9991998822e+02 0.0000000000e+00 0.0000e+00 1.0000e+00
      -15  1    1    2    0    0 +4.7468044298e+00 +2.3209648628e+00 +1.0859106662e+02 1.0873406325e+02 1.7770000000e+00 0.0000e+00 -1.0000e+00
       15  1    1    2    0    0 -1.4314321560e+00 -6.7658039206e-01 +1.0792140161e+02 1.0794764200e+02 1.7770000000e+00 0.0000e+00 -1.0000e+00
</event>
<event>
 7 1 7.08916e-05 4.09067800e+02 7.54677100e-03 9.62998100e-02
      -11 -1    0    0    0    0 +0.0000000000e+00 +0.0000000000e+00 +5.0000000000e+02 5.0000000000e+02 0.0000000000e+00 0.0000e+00 1.0000e+00
       11 -1    0    0    0    0 -0.0000000000e+00 -0.0000000000e+00 -5.0000000000e+02 5.0000000000e+02 0.0000000000e+00 0.0000e+00 1.0000e+00
       23  2    1    2    0    0 +2.0518590818e+02 -3.2541367411e+02 -2.0168298266e+02 4.4356555672e+02 8.9883599147e+01 0.0000e+00 0.0000e+00
      -11  1    1    2    0    0 -3.0530807914e+00 +1.3517341526e+00 +1.7342398643e+02 1.7345612574e+02 0.0000000000e+00 0.0000e+00 1.0000e+00
       11  1    1    2    0    0 -2.0213282739e+02 +3.2406193996e+02 +2.8258996224e+01 3.8297831754e+02 0.0000000000e+00 0.0000e+00 1.0000e+00
      -15  1    3    3    0    0 +1.4743429588e+02 -1.5125179693e+02 -1.1707525686e+02 2.4150310800e+02 1.7770000000e+00 0.0000e+00 1.0000e+00
       15  1    3    3    0    0 +5.7751612303e+01 -1.7416187719e+02 -8.4607725797e+01 2.0206244872e+02 1.7770000000e+00 0.0000e+00 -1.0000e+00
</event>
<event>
 6 1 7.08916e-05 5.00469800e+02 7.54677100e-03 9.39875900e-02
      -11 -1    0    0    0    0 +0.0000000000e+00 +0.0000000000e+00 +5.0000000000e+02 5.0000000000e+02 0.0000000000e+00 0.0000e+00 -1.0000e+00
       11 -1    0    0    0    0 -0.0000000000e+00 -0.0000000000e+00 -5.0000000000e+02 5.0000000000e+02 0.0000000000e+00 0.0000e+00 1.0000e+00
      -11  1    1    2    0    0 -7.4145786785e+00 -2.0455867725e+00 +4.9947097757e+02 4.9953019712e+02 0.0000000000e+00 0.0000e+00 -1.0000e+00
       11  1    1    2    0    0 -1.1119593109e+00 -9.4027596707e+00 -1.8876842917e+02 1.8900573588e+02 0.0000000000e+00 0.0000e+00 1.0000e+00
      -15  1    1    2    0    0 +1.3294833833e+01 +7.9679650657e+00 -2.2363938968e+02 2.2418290617e+02 1.7770000000e+00 0.0000e+00 -1.0000e+00
       15  1    1    2    0    0 -4.7682958436e+00 +3.4803813775e+00 -8.7063158723e+01 8.7281160828e+01 1.7770000000e+00 0.0000e+00 1.0000e+00
</event>
<event>
 6 1 7.08916e-05 4.84096400e+02 7.54677100e-03 9.43611600e-02
      -11 -1    0    0    0    0 +0.0000000000e+00 +0.0000000000e+00 +5.0000000000e+02 5.0000000000e+02 0.0000000000e+00 0.0000e+00 1.0000e+00
       11 -1    0    0    0    0 -0.0000000000e+00 -0.0000000000e+00 -5.0000000000e+02 5.0000000000e+02 0.0000000000e+00 0.0000e+00 1.0000e+00
      -11  1    1    2    0    0 -1.6594129065e+00 +1.3924708937e+01 +4.8179763568e+02 4.8200167315e+02 0.0000000000e+00 0.0000e+00 1.0000e+00
       11  1    1    2    0    0 +9.7641544995e+00 +5.6780415519e+00 -4.8630282269e+02 4.8643397726e+02 0.0000000000e+00 0.0000e+00 1.0000e+00
      -15  1    1    2    0    0 -1.3716601472e+01 -2.1036891954e+01 +3.8766697794e+00 2.5473167777e+01 1.7770000000e+00 0.0000e+00 1.0000e+00
       15  1    1    2    0    0 +5.6118598793e+00 +1.4341414649e+00 +6.2851723477e-01 6.0911818197e+00 1.7770000000e+00 0.0000e+00 -1.0000e+00
</event>
<event>
 6 1 7.08916e-05 5.02674500e+02 7.54677100e-03 9.39384500e-02
      -11 -1    0    0    0    0 +0.0000000000e+00 +0.0000000000e+00 +5.0000000000e+02 5.0000000000e+02 0.0000000000e+00 0.0000e+00 1.0000e+00
       11 -1    0    0    0    0 -0.0000000000e+00 -0.0000000000e+00 -5.0000000000e+02 5.0000000000e+02 0.0000000000e+00 0.0000e+00 1.0000e+00
      -11  1    1    2    0    0 +1.6402422303e+00 -6.7487916875e+00 +4.9727701277e+02 4.9732551113e+02 0.0000000000e+00 0.0000e+00 1.0000e+00
       11  1    1    2    0    0 +6.2506006675e+00 +6.1807330504e-01 -4.5923129575e+02 4.5927424816e+02 0.0000000000e+00 0.0000e+00 1.0000e+00
      -15  1    1    2    0    0 -8.8352757355e+00 -1.4400042424e+00 -7.3426203362e+00 1.1713561027e+01 1.7770000000e+00 0.0000e+00 1.0000e+00
       15  1    1    2    0    0 +9.4443283765e-01 +7.5707226249e+00 -3.0703096690e+01 3.1686679690e+01 1.7770000000e+00 0.0000e+00 -1.0000e+00
</event>
<event>
 6 1 7.08916e-05 5.09987100e+02 7.54677100e-03 9.37773600e-02
      -11 -1    0    0    0    0 +0.0000000000e+00 +0.0000000000e+00 +5.0000000000e+02 5.0000000000e+02 0.0000000000e+00 0.0000e+00 1.0000e+00
       11 -1    0    0    0    0 -0.0000000000e+00 -0.0000000000e+00 -5.0000000000e+02 5.0000000000e+02 0.0000000000e+00 0.0000e+00 1.0000e+00
      -11  1    1    2    0    0 +5.8148472983e+00 +1.8419460027e+00 +1.2522205905e+02 1.2537052798e+02 0.0000000000e+00 0.0000e+00 1.0000e+00
       11  1    1    2    0    0 -1.7633483385e+01 -1.3344376396e+01 -4.8951368555e+02 4.9001291867e+02 0.0000000000e+00 0.0000e+00 1.0000e+00
      -15  1    1    2    0    0 -3.4070414427e+00 +4.4984761062e+00 +3.6742652342e+02 3.6747415155e+02 1.7770000000e+00 0.0000e+00 1.0000e+00
       15  1    1    2    0    0 +1.5225677530e+01 +7.0039542876e+00 -3.1348969105e+00 1.7142401802e+01 1.7770000000e+00 0.0000e+00 -1.0000e+00
</event>
<event>
 6 1 7.08916e-05 5.00055900e+02 7.54677100e-03 9.39968500e-02
      -11 -1    0    0    0    0 +0.0000000000e+00 +0.0000000000e+00 +5.0000000000e+02 5.0000000000e+02 0.0000000000e+00 0.0000e+00 -1.0000e+00
       11 -1    0    0    0    0 -0.0000000000e+00 -0.0000000000e+00 -5.0000000000e+02 5.0000000000e+02 0.0000000000e+00 0.0000e+00 -1.0000e+00
      -11  1    1    2    0    0 +2.5632383877e+00 -8.6498222665e+00 +4.9986271214e+02 4.9994411749e+02 0.0000000000e+00 0.0000e+00 -1.0000e+00
       11  1    1    2    0    0 -1.2677397760e+00 +4.4361692056e+00 -1.5906402348e+02 1.5913092197e+02 0.0000000000e+00 0.0000e+00 -1.0000e+00
      -15  1    1    2    0    0 +2.2648427985e+00 +5.2239218428e-01 -5.7594286127e+01 5.7668552349e+01 1.7770000000e+00 0.0000e+00 -1.0000e+00
       15  1    1    2    0    0 -3.5603414102e+00 +3.6912608766e+00 -2.8320440254e+02 2.8325640820e+02 1.7770000000e+00 0.0000e+00 -1.0000e+00
</event>
<event>
 6 1 7.08916e-05 4.83829900e+02 7.54677100e-03 9.43673700e-02
      -11 -1    0    0    0    0 +0.0000000000e+00 +0.0000000000e+00 +5.0000000000e+02 5.0000000000e+02 0.0000000000e+00 0.0000e+00 1.0000e+00
       11 -1    0    0    0    0 -0.0000000000e+00 -0.0000000000e+00 -5.0000000000e+02 5.0000000000e+02 0.0000000000e+00 0.0000e+00 1.0000e+00
      -11  1    1    2    0    0 -7.7290592718e+00 +9.9066054837e+00 +4.7788700223e+02 4.7805215833e+02 0.0000000000e+00 0.0000e+00 1.0000e+00
       11  1    1    2    0    0 -1.2519506791e+01 +1.1939774040e+00 -4.8979491962e+02 4.8995635206e+02 0.0000000000e+00 0.0000e+00 1.0000e+00
      -15  1    1    2    0    0 -1.9316407539e+00 -4.2802094438e+00 +6.2932111044e+00 8.0506933794e+00 1.7770000000e+00 0.0000e+00 1.0000e+00
       15  1    1    2    0    0 +2.2180206817e+01 -6.8203734439e+00 +5.6147062914e+00 2.3940796229e+01 1.7770000000e+00 0.0000e+00 -1.0000e+00
</event>
<event>
 6 1 7.08916e-05 5.48066400e+02 7.54677100e-03 9.29824800e-02
      -11 -1    0    0    0    0 +0.0000000000e+00 +0.0000000000e+00 +5.0000000000e+02 5.0000000000e+02 0.0000000000e+00 0.0000e+00 1.0000e+00
       11 -1    0    0    0    0 -0.0000000000e+00 -0.0000000000e+00 -5.0000000000e+02 5.0000000000e+02 0.0000000000e+00 0.0000e+00 -1.0000e+00
      -11  1    1    2    0    0 -3.8755392171e+00 +1.7575094924e+01 +2.4525005808e+02 2.4590952555e+02 0.0000000000e+00 0.0000e+00 1.0000e+00
       11  1    1    2    0    0 -1.7697899415e+01 +1.5930358386e+00 -4.5158417359e+02 4.5193364473e+02 0.0000000000e+00 0.0000e+00 -1.0000e+00
      -15  1    1    2    0    0 -3.1699260021e+01 +4.1654241544e+01 -2.4312645873e+01 5.7742370949e+01 1.7770000000e+00 0.0000e+00 1.0000e+00
       15  1    1    2    0    0 +5.3272698653e+01 -6.0822372306e+01 +2.3064676138e+02 2.4441445877e+02 1.7770000000e+00 0.0000e+00 -1.0000e+00
</event>
<event>
 6 1 7.08916e-05 5.04286700e+02 7.54677100e-03 9.39026900e-02
      -11 -1    0    0    0    0 +0.0000000000e+00 +0.0000000000e+00 +5.0000000000e+02 5.0000000000e+02 0.0000000000e+00 0.0000e+00 -1.0000e+00
       11 -1    0    0    0    0 -0.0000000000e+00 -0.0000000000e+00 -5.0000000000e+02 5.0000000000e+02 0.0000000000e+00 0.0000e+00 1.0000e+00
      -11  1    1    2    0    0 +2.1462080321e+01 +3.1818183741e+00 +2.5936431181e+01 3.3814838788e+01 0.0000000000e+00 0.0000e+00 -1.0000e+00
       11  1    1    2    0    0 -5.6994691616e+00 -1.4516136130e+01 -4.9546789125e+02 4.9571325725e+02 0.0000000000e+00 0.0000e+00 1.0000e+00
      -15  1    1    2    0    0 -9.0425818362e+00 +1.6075150512e+01 +4.0068683745e+02 4.0111504358e+02 1.7770000000e+00 0.0000e+00 -1.0000e+00
       15  1    1    2    0    0 -6.7200293232e+00 -4.7408327559e+00 +6.8844622618e+01 6.9356860379e+01 1.7770000000e+00 0.0000e+00 1.0000e+00
</event>
<event>
 7 1 7.08916e-05 5.21131700e+02 7.54677100e-03 9.35372900e-02
      -11 -1    0    0    0    0 +0.0000000000e+00 +0.0000000000e+00 +5.0000000000e+02 5.0000000000e+02 0.0000000000e+00 0.0000e+00 -1.0000e+00
       11 -1    0    0    0    0 -0.0000000000e+00 -0.0000000000e+00 -5.0000000000e+02 5.0000000000e+02 0.0000000000e+00 0.0000e+00 1.0000e+00
       23  2    1    2    0    0 -5.3697815076e+01 -3.9842000466e+01 +2.6586117759e+02 2.9973206110e+02 1.2118705524e+02 0.0000e+00 0.0000e+00
      -11  1    1    2    0    0 +4.9958107384e+01 +3.4209720256e+01 +2.1295937053e+02 2.2139966339e+02 0.0000000000e+00 0.0000e+00 -1.0000e+00
       11  1    1    2    0    0 +3.7397076923e+00 +5.6322802103e+00 -4.7882054812e+02 4.7886827551e+02 0.0000000000e+00 0.0000e+00 1.0000e+00
      -15  1    3    3    0    0 -2.4069196987e+00 +1.3552837060e+01 -8.0094368182e+00 1.6024402078e+01 1.7770000000e+00 0.0000e+00 1.0000e+00
       15  1    3    3    0    0 -5.1290895377e+01 -5.3394837527e+01 +2.7387061441e+02 2.8370765902e+02 1.7770000000e+00 0.0000e+00 -1.0000e+00
</event>
<event>
 6 1 7.08916e-05 5.32912500e+02 7.54677100e-03 9.32903500e-02
      -11 -1    0    0    0    0 +0.0000000000e+00 +0.0000000000e+00 +5.0000000000e+02 5.0000000000e+02 0.0000000000e+00 0.0000e+00 -1.0000e+00
       11 -1    0    0    0    0 -0.0000000000e+00 -0.0000000000e+00 -5.0000000000e+02 5.0000000000e+02 0.0000000000e+00 0.0000e+00 1.0000e+00
      -11  1    1    2    0    0 +1.6910885590e+01 +1.0044770030e+01 +4.0174502526e+02 4.0222623084e+02 0.0000000000e+00 0.0000e+00 -1.0000e+00
       11  1    1    2    0    0 -6.0767556823e+00 -8.0641097675e+00 -4.6697834978e+02 4.6708750356e+02 0.0000000000e+00 0.0000e+00 1.0000e+00
      -15  1    1    2    0    0 -2.0803216286e+01 -1.3236429309e+01 +9.4529753290e+01 9.7708796199e+01 1.7770000000e+00 0.0000e+00 -1.0000e+00
       15  1    1    2    0    0 +9.9690863787e+00 +1.1255769046e+01 -2.9296428771e+01 3.2977469396e+01 1.7770000000e+00 0.0000e+00 1.0000e+00
</event>
<event>
 6 1 7.08916e-05 5.00799400e+02 7.54677100e-03 9.39802300e-02
      -11 -1    0    0    0    0 +0.0000000000e+00 +0.0000000000e+00 +5.0000000000e+02 5.0000000000e+02 0.0000000000e+00 0.0000e+00 1.0000e+00
       11 -1    0    0    0    0 -0.0000000000e+00 -0.0000000000e+00 -5.0000000000e+02 5.0000000000e+02 0.0000000000e+00 0.0000e+00 1.0000e+00
      -11  1    1    2    0    0 -9.4666301760e-01 +8.6809599168e+00 +4.9912423536e+02 4.9920061855e+02 0.0000000000e+00 0.0000e+00 1.0000e+00
       11  1    1    2    0    0 +9.5345954913e+00 +6.0961420066e+00 -7.0867114572e+01 7.1765028993e+01 0.0000000000e+00 0.0000e+00 1.0000e+00
      -15  1    1    2    0    0 -9.0892343458e-01 -5.7304137795e+00 -3.0578780155e+01 3.1175043041e+01 1.7770000000e+00 0.0000e+00 1.0000e+00
       15  1    1    2    0    0 -7.6790090392e+00 -9.0466881439e+00 -3.9767834064e+02 3.9785930941e+02 1.7770000000e+00 0.0000e+00 1.0000e+00
</event>
<event>
 6 1 7.08916e-05 5.00378400e+02 7.54677100e-03 9.39896300e-02
      -11 -1    0    0    0    0 +0.0000000000e+00 +0.0000000000e+00 +5.0000000000e+02 5.0000000000e+02 0.0000000000e+00 0.0000e+00 -1.0000e+00
       11 -1    0    0    0    0 -0.0000000000e+00 -0.0000000000e+00 -5.0000000000e+02 5.0000000000e+02 0.0000000000e+00 0.0000e+00 -1.0000e+00
      -11  1    1    2    0    0 -2.9938721126e-01 +1.4962707081e+01 +2.6546420184e+02 2.6588571736e+02 0.0000000000e+00 0.0000e+00 -1.0000e+00
       11  1    1    2    0    0 -7.5840078617e+00 -8.5199187403e+00 -4.9949134715e+02 4.9962156886e+02 0.0000000000e+00 0.0000e+00 -1.0000e+00
      -15  1    1    2    0    0 +6.0465619390e+00 +1.4268883438e+00 +9.4898802400e+01 9.5118543657e+01 1.7770000000e+00 0.0000e+00 1.0000e+00
       15  1    1    2    0    0 +1.8368331340e+00 -7.8696766842e+00 +1.3912834291e+02 1.3937417013e+02 1.7770000000e+00 0.0000e+00 -1.0000e+00
</event>
<event>
 6 1 7.08916e-05 5.06120700e+02 7.54677100e-03 9.38621700e-02
      -11 -1    0    0    0    0 +0.0000000000e+00 +0.0000000000e+00 +5.0000000000e+02 5.0000000000e+02 0.0000000000e+00 0.0000e+00 -1.0000e+00
       11 -1    0    0    0    0 -0.0000000000e+00 -0.0000000000e+00 -5.0000000000e+02 5.0000000000e+02 0.0000000000e+00 0.0000e+00 -1.0000e+00
      -11  1    1    2    0    0 -3.5015391337e-01 -7.5117161799e+00 +4.9382203811e+02 4.9387929073e+02 0.0000000000e+00 0.0000e+00 -1.0000e+00
       11  1    1    2    0    0 -7.2776890779e+00 -3.7499578347e+00 -4.8052736602e+02 4.8059710407e+02 0.0000000000e+00 0.0000e+00 -1.0000e+00
      -15  1    1    2    0    0 +6.5711184854e+00 +9.2168686132e+00 +4.5763622748e-01 1.1467232670e+01 1.7770000000e+00 0.0000e+00 1.0000e+00
       15  1    1    2    0    0 +1.0567245058e+00 +2.0448054014e+00 -1.3752308316e+01 1.4056372534e+01 1.7770000000e+00 0.0000e+00 -1.0000e+00
</event>
<event>
 6 1 7.08916e-05 5.65319100e+02 7.54677100e-03 9.26445600e-02
      -11 -1    0    0    0    0 +0.0000000000e+00 +0.0000000000e+00 +5.0000000000e+02 5.0000000000e+02 0.0000000000e+00 0.0000e+00 1.0000e+00
       11 -1    0    0    0    0 -0.0000000000e+00 -0.0000000000e+00 -5.0000000000e+02 5.0000000000e+02 0.0000000000e+00 0.0000e+00 -1.0000e+00
      -11  1    1    2    0    0 +1.9313795701e+00 -8.1416478550e+00 +3.8528617271e+02 3.8537702519e+02 0.0000000000e+00 0.0000e+00 1.0000e+00
       11  1    1    2    0    0 -5.9679126167e+00 +3.3302925510e+00 -4.3462714200e+02 4.3468087075e+02 0.0000000000e+00 0.0000e+00 -1.0000e+00
      -15  1    1    2    0    0 -1.1865033665e+01 -5.4483110510e+00 -6.3835207817e+01 6.5180937422e+01 1.7770000000e+00 0.0000e+00 1.0000e+00
       15  1    1    2    0    0 +1.5901566712e+01 +1.0259666355e+01 +1.1317617710e+02 1.1476116665e+02 1.7770000000e+00 0.0000e+00 -1.0000e+00
</event>
<event>
 6 1 7.08916e-05 5.20392300e+02 7.54677100e-03 9.35530200e-02
      -11 -1    0    0    0    0 +0.0000000000e+00 +0.0000000000e+00 +5.0000000000e+02 5.0000000000e+02 0.0000000000e+00 0.0000e+00 1.0000e+00
       11 -1    0    0    0    0 -0.0000000000e+00 -0.0000000000e+00 -5.0000000000e+02 5.0000000000e+02 0.0000000000e+00 0.0000e+00 1.0000e+00
      -11  1    1    2    0    0 +1.3459142752e+01 -7.5185352247e+00 +4.4634645413e+02 4.4661262187e+02 0.0000000000e+00 0.0000e+00 1.0000e+00
       11  1    1    2    0    0 -2.0016180400e+01 +2.1652063277e+00 -4.7918492703e+02 4.7960768331e+02 0.0000000000e+00 0.0000e+00 1.0000e+00
      -15  1    1    2    0    0 +3.6829898055e+00 +1.6328291063e+00 +5.2907752936e+01 5.3090663912e+01 1.7770000000e+00 0.0000e+00 -1.0000e+00
       15  1    1    2    0    0 +2.8740478427e+00 +3.7204997906e+00 -2.0069280042e+01 2.0689030912e+01 1.7770000000e+00 0.0000e+00 1.0000e+00
</event>
<event>
 6 1 7.08916e-05 5.10309700e+02 7.54677100e-03 9.37703200e-02
      -11 -1    0    0    0    0 +0.0000000000e+00 +0.0000000000e+00 +5.0000000000e+02 5.0000000000e+02 0.0000000000e+00 0.0000e+00 1.0000e+00
       11 -1    0    0    0    0 -0.0000000000e+00 -0.0000000000e+00 -5.0000000000e+02 5.0000000000e+02 0.0000000000e+00 0.0000e+00 -1.0000e+00
      -11  1    1    2    0    0 +1.6747684567e+01 -1.0149667422e+01 +4.3914293468e+02 4.3957936458e+02 0.0000000000e+00 0.0000e+00 1.0000e+00
       11  1    1    2    0    0 +7.9922488698e+00 +1.7532066327e+01 -4.8931108259e+02 4.8969029492e+02 0.0000000000e+00 0.0000e+00 -1.0000e+00
      -15  1    1    2    0    0 -3.3902959552e+01 +5.0249229269e+00 +3.3768344955e+01 4.8146852096e+01 1.7770000000e+00 0.0000e+00 1.0000e+00
       15  1    1    2    0    0 +9.1630261152e+00 -1.2407321832e+01 +1.6399802954e+01 2.2583488406e+01 1.7770000000e+00 0.0000e+00 -1.0000e+00
</event>
<event>
 6 1 7.08916e-05 5.02023000e+02 7.54677100e-03 9.39529400e-02
      -11 -1    0    0    0    0 +0.0000000000e+00 +0.0000000000e+00 +5.0000000000e+02 5.0000000000e+02 0.0000000000e+00 0.0000e+00 1.0000e+00
       11 -1    0    0    0    0 -0.0000000000e+00 -0.0000000000e+00 -5.0000000000e+02 5.0000000000e+02 0.0000000000e+00 0.0000e+00 -1.0000e+00
      -11  1    1    2    0    0 -1.3484598474e+01 +8.9219349955e+00 +3.7990523033e+02 3.8024915431e+02 0.0000000000e+00 0.0000e+00 1.0000e+00
       11  1    1    2    0    0 -6.2916744947e+00 -2.6158610279e+00 -4.9793037494e+02 4.9797699363e+02 0.0000000000e+00 0.0000e+00 -1.0000e+00
      -15  1    1    2    0    0 +1.2809029929e+01 -9.5611809303e+00 +1.0707277813e+02 1.0827384252e+02 1.7770000000e+00 0.0000e+00 1.0000e+00
       15  1    1    2    0    0 +6.9672430394e+00 +3.2551069627e+00 +1.0952366484e+01 1.3500009538e+01 1.7770000000e+00 0.0000e+00 1.0000e+00
</event>
<event>
 6 1 7.08916e-05 5.03073300e+02 7.54677100e-03 9.39295900e-02
      -11 -1    0    0    0    0 +0.0000000000e+00 +0.0000000000e+00 +5.0000000000e+02 5.0000000000e+02 0.0000000000e+00 0.0000e+00 1.0000e+00
       11 -1    0    0    0    0 -0.0000000000e+00 -0.0000000000e+00 -5.0000000000e+02 5.0000000000e+02 0.0000000000e+00 0.0000e+00 -1.0000e+00
      -11  1    1    2    0    0 +3.6168889853e+00 -1.2263089939e+01 +4.9676215131e+02 4.9692665478e+02 0.0000000000e+00 0.0000e+00 1.0000e+00
       11  1    1    2    0    0 +5.8745649089e+00 +8.0820238452e-01 -3.7540543256e+02 3.7545226394e+02 0.0000000000e+00 0.0000e+00 -1.0000e+00
      -15  1    1    2    0    0 -3.1919724185e+00 -3.2233994132e+00 -1.0343100835e+02 1.0354569141e+02 1.7770000000e+00 0.0000e+00 1.0000e+00
       15  1    1    2    0    0 -6.2994814757e+00 +1.4678286967e+01 -1.7925710396e+01 2.4075389869e+01 1.7770000000e+00 0.0000e+00 -1.0000e+00
</event>
<event>
 6 1 7.08916e-05 5.00910300e+02 7.54677100e-03 9.39777500e-02
      -11 -1    0    0    0    0 +0.0000000000e+00 +0.0000000000e+00 +5.0000000000e+02 5.0000000000e+02 0.0000000000e+00 0.0000e+00 -1.0000e+00
       11 -1    0    0    0    0 -0.0000000000e+00 -0.0000000000e+00 -5.0000000000e+02 5.0000000000e+02 0.0000000000e+00 0.0000e+00 -1.0000e+00
      -11  1    1    2    0    0 -2.9571604718e+00 -1.0720157401e+01 +3.6849321182e+02 3.6866097397e+02 0.0000000000e+00 0.0000e+00 -1.0000e+00
       11  1    1    2    0    0 +1.4768890445e+01 -6.7620750587e+00 -4.9882534200e+02 4.9908973903e+02 0.0000000000e+00 0.0000e+00 -1.0000e+00
      -15  1    1    2    0    0 -6.8942979940e+00 +7.9113462212e+00 +4.6019866048e+01 4.7234590544e+01 1.7770000000e+00 0.0000e+00 1.0000e+00
       15  1    1    2    0    0 -4.9174319795e+00 +9.5708862380e+00 +8.4312264138e+01 8.5014696457e+01 1.7770000000e+00 0.0000e+00 -1.0000e+00
</event>
<event>
 6 1 7.08916e-05 5.15982300e+02 7.54677100e-03 9.36474200e-02
      -11 -1    0    0    0    0 +0.0000000000e+00 +0.0000000000e+00 +5.0000000000e+02 5.0000000000e+02 0.0000000000e+00 0.0000e+00 -1.0000e+00
       11 -1    0    0    0    0 -0.0000000000e+00 -0.0000000000e+00 -5.0000000000e+02 5.0000000000e+02 0.0000000000e+00 0.0000e+00 -1.0000e+00
      -11  1    1    2    0    0 +3.4059892530e+00 -5.3101168597e+00 +1.8444665896e+02 1.8455451256e+02 0.0000000000e+00 0.0000e+00 -1.0000e+00
       11  1    1    2    0    0 +2.5580682776e+01 -8.0620850904e+00 -4.8327404330e+02 4.8401773674e+02 0.0000000000e+00 0.0000e+00 -1.0000e+00
      -15  1    1    2    0    0 +3.7004514914e+01 +4.5399583130e+01 +1.9956843164e+02 2.0799320400e+02 1.7770000000e+00 0.0000e+00 -1.0000e+00
       15  1    1    2    0    0 -6.5991186943e+01 -3.2027381180e+01 +9.9258952701e+01 1.2343454670e+02 1.7770000000e+00 0.0000e+00 1.0000e+00
</event>
<event>
 6 1 7.08916e-05 5.01240400e+02 7.54677100e-03 9.39703900e-02
      -11 -1    0    0    0    0 +0.0000000000e+00 +0.0000000000e+00 +5.0000000000e+02 5.0000000000e+02 0.0000000000e+00 0.0000e+00 1.0000e+00
       11 -1    0    0    0    0 -0.0000000000e+00 -0.0000000000e+00 -5.0000000000e+02 5.0000000000e+02 0.0000000000e+00 0.0000e+00 1.0000e+00
      -11  1    1    2    0    0 -1.1493334096e+00 -8.7337959605e+00 +4.2875207679e+02 4.2884256261e+02 0.0000000000e+00 0.0000e+00 1.0000e+00
       11  1    1    2    0    0 +8.3513124107e+00 -5.8043312504e+00 -4.9865593328e+02 4.9875963597e+02 0.0000000000e+00 0.0000e+00 1.0000e+00
      -15  1    1    2    0    0 -6.6986246479e+00 +1.3820241769e+01 +6.7661471010e+01 6.9405353129e+01 1.7770000000e+00 0.0000e+00 -1.0000e+00
       15  1    1    2    0    0 -5.0335435319e-01 +7.1788544193e-01 +2.2423854814e+00 2.9924482886e+00 1.7770000000e+00 0.0000e+00 1.0000e+00
</event>
<event>
 6 1 7.08916e-05 5.02092400e+02 7.54677100e-03 9.39514000e-02
      -11 -1    0    0    0    0 +0.0000000000e+00 +0.0000000000e+00 +5.0000000000e+02 5.0000000000e+02 0.0000000000e+00 0.0000e+00 -1.0000e+00
       11 -1    0    0    0    0 -0.0000000000e+00 -0.0000000000e+00 -5.0000000000e+02 5.0000000000e+02 0.0000000000e+00 0.0000e+00 1.0000e+00
      -11  1    1    2    0    0 +2.1609317377e+00 +6.9015721928e+00 +4.8353752608e+02 4.8359160503e+02 0.0000000000e+00 0.0000e+00 -1.0000e+00
       11  1    1    2    0    0 -8.8273189508e+00 +1.3820081337e+00 -4.9782742546e+02 4.9790759890e+02 0.0000000000e+00 0.0000e+00 1.0000e+00
      -15  1    1    2    0    0 +1.2868341883e+00 -3.6834480778e+00 +3.8449421853e+00 5.7589097387e+00 1.7770000000e+00 0.0000e+00 1.0000e+00
       15  1    1    2    0    0 +5.3795530249e+00 -4.6001322486e+00 +1.0444957195e+01 1.2741886330e+01 1.7770000000e+00 0.0000e+00 -1.0000e+00
</event>
<event>
 6 1 7.08916e-05 5.00835100e+02 7.54677100e-03 9.39794300e-02
      -11 -1    0    0    0    0 +0.0000000000e+00 +0.0000000000e+00 +5.0000000000e+02 5.0000000000e+02 0.0000000000e+00 0.0000e+00 1.0000e+00
       11 -1    0    0    0    0 -0.0000000000e+00 -0.0000000000e+00 -5.0000000000e+02 5.0000000000e+02 0.0000000000e+00 0.0000e+00 1.0000e+00
      -11  1    1    2    0    0 +4.7475731549e+00 +8.6966939376e+00 +1.9732096314e+02 1.9756956858e+02 0.0000000000e+00 0.0000e+00 1.0000e+00
       11  1    1    2    0    0 +1.2237175981e+01 -1.7742352714e+00 -4.9901171022e+02 4.9916488591e+02 0.0000000000e+00 0.0000e+00 1.0000e+00
      -15  1    1    2    0    0 -9.6175647909e+00 +4.9873812596e+00 +5.0553564732e+01 5.1731925930e+01 1.7770000000e+00 0.0000e+00 -1.0000e+00
       15  1    1    2    0    0 -7.3671843455e+00 -1.1909839926e+01 +2.5113718235e+02 2.5153361958e+02 1.7770000000e+00 0.0000e+00 1.0000e+00
</event>
<event>
 6 1 7.08916e-05 5.11264500e+02 7.54677100e-03 9.37495200e-02
      -11 -1    0    0    0    0 +0.0000000000e+00 +0.0000000000e+00 +5.0000000000e+02 5.0000000000e+02 0.0000000000e+00 0.0000e+00 -1.0000e+00
       11 -1    0    0    0    0 -0.0000000000e+00 -0.0000000000e+00 -5.0000000000e+02 5.0000000000e+02 0.0000000000e+00 0.0000e+00 -1.0000e+00
      -11  1    1    2    0    0 -6.8255091444e+00 +8.5688401837e-01 +4.8868713285e+02 4.8873554775e+02 0.0000000000e+00 0.0000e+00 -1.0000e+00
       11  1    1    2    0    0 -7.0342232534e+00 +3.6850149027e+00 -4.5826312596e+02 4.5833192366e+02 0.0000000000e+00 0.0000e+00 -1.0000e+00
      -15  1    1    2    0    0 +1.7886123715e+01 +5.3499767789e+00 +1.8943094066e+00 1.8848920665e+01 1.7770000000e+00 0.0000e+00 -1.0000e+00
       15  1    1    2    0    0 -4.0263913177e+00 -9.8918757000e+00 -3.2318316296e+01 3.4083607924e+01 1.7770000000e+00 0.0000e+00 1.0000e+00
</event>
<event>
 6 1 7.08916e-05 5.01704800e+02 7.54677100e-03 9.39600300e-02
      -11 -1    0    0    0    0 +0.0000000000e+00 +0.0000000000e+00 +5.0000000000e+02 5.0000000000e+02 0.0000000000e+00 0.0000e+00 -1.0000e+00
       11 -1    0    0    0    0 -0.0000000000e+00 -0.0000000000e+00 -5.0000000000e+02 5.0000000000e+02 0.0000000000e+00 0.0000e+00 1.0000e+00
      -11  1    1    2    0    0 +6.8183566748e+00 -2.2903951276e+00 +4.9824324845e+02 4.9829516406e+02 0.0000000000e+00 0.0000e+00 -1.0000e+00
       11  1    1    2    0    0 -8.5333125292e-01 -7.2116014219e+00 -4.7084792545e+02 4.7090392255e+02 0.0000000000e+00 0.0000e+00 1.0000e+00
      -15  1    1    2    0    0 -4.0162809589e-01 +3.2317077412e+00 -2.5036644531e+00 4.4756345635e+00 1.7770000000e+00 0.0000e+00 -1.0000e+00
       15  1    1    2    0    0 -5.5633973260e+00 +6.2702888083e+00 -2.4891658543e+01 2.6325278831e+01 1.7770000000e+00 0.0000e+00 1.0000e+00
</event>
<event>
 6 1 7.08916e-05 5.09625900e+02 7.54677100e-03 9.37852500e-02
      -11 -1    0    0    0    0 +0.0000000000e+00 +0.0000000000e+00 +5.0000000000e+02 5.0000000000e+02 0.0000000000e+00 0.0000e+00 1.0000e+00
       11 -1    0    0    0    0 -0.0000000000e+00 -0.0000000000e+00 -5.0000000000e+02 5.0000000000e+02 0.0000000000e+00 0.0000e+00 1.0000e+00
      -11  1    1    2    0    0 +2.5962327697e-02 +1.0446526252e+01 +3.2563251823e+02 3.2580004222e+02 0.0000000000e+00 0.0000e+00 1.0000e+00
       11  1    1    2    0    0 +2.1497236821e+01 +2.2434626910e+01 -4.8938871390e+02 4.9037409900e+02 0.0000000000e+00 0.0000e+00 1.0000e+00
      -15  1    1    2    0    0 -2.9442365840e+01 +1.6150153803e+01 +7.2322792906e+01 7.9758538583e+01 1.7770000000e+00 0.0000e+00 -1.0000e+00
       15  1    1    2    0    0 +7.9191666919e+00 -4.9031306965e+01 +9.1433402766e+01 1.0406732020e+02 1.7770000000e+00 0.0000e+00 1.0000e+00
</event>
<event>
 6 1 7.08916e-05 5.00483400e+02 7.54677100e-03 9.39872900e-02
      -11 -1    0    0    0    0 +0.0000000000e+00 +0.0000000000e+00 +5.0000000000e+02 5.0000000000e+02 0.0000000000e+00 0.0000e+00 1.0000e+00
       11 -1    0    0    0    0 -0.0000000000e+00 -0.0000000000e+00 -5.0000000000e+02 5.0000000000e+02 0.0000000000e+00 0.0000e+00 -1.0000e+00
      -11  1    1    2    0    0 +7.3388687175e+00 -3.4843878208e+00 +4.9945055641e+02 4.9951662460e+02 0.0000000000e+00 0.0000e+00 1.0000e+00
       11  1    1    2    0    0 -4.3561741602e+00 -7.5368947692e+00 -3.8729122504e+02 3.8738904738e+02 0.0000000000e+00 0.0000e+00 -1.0000e+00
      -15  1    1    2    0    0 -1.5450410000e+00 +5.7142693867e+00 -8.9384091791e+01 8.9597509009e+01 1.7770000000e+00 0.0000e+00 -1.0000e+00
       15  1    1    2    0    0 -1.4376535574e+00 +5.3070132033e+00 -2.2775239576e+01 2.3496819011e+01 1.7770000000e+00 0.0000e+00 1.0000e+00
</event>
<event>
 6 1 7.08916e-05 5.00115300e+02 7.54677100e-03 9.39955200e-02
      -11 -1    0    0    0    0 +0.0000000000e+00 +0.0000000000e+00 +5.0000000000e+02 5.0000000000e+02 0.0000000000e+00 0.0000e+00 -1.0000e+00
       11 -1    0    0    0    0 -0.0000000000e+00 -0.0000000000e+00 -5.0000000000e+02 5.0000000000e+02 0.0000000000e+00 0.0000e+00 -1.0000e+00
      -11  1    1    2    0    0 -8.2802545083e+00 -2.5537779888e+00 +4.9980961681e+02 4.9988472416e+02 0.0000000000e+00 0.0000e+00 -1.0000e+00
       11  1    1    2    0    0 +4.3601981968e+00 +2.8668476805e+00 -9.2166132663e+01 9.2313737624e+01 0.0000000000e+00 0.0000e+00 -1.0000e+00
      -15  1    1    2    0    0 -2.1065608264e+00 +2.8015975810e+00 -9.8208713540e+01 9.8287311957e+01 1.7770000000e+00 0.0000e+00 -1.0000e+00
       15  1    1    2    0    0 +6.0266171379e+00 -3.1146672727e+00 -3.0943477061e+02 3.0951422626e+02 1.7770000000e+00 0.0000e+00 1.0000e+00
</event>
<event>
 6 1 7.08916e-05 5.01857300e+02 7.54677100e-03 9.39566300e-02
      -11 -1    0    0    0    0 +0.0000000000e+00 +0.0000000000e+00 +5.0000000000e+02 5.0000000000e+02 0.0000000000e+00 0.0000e+00 1.0000e+00
       11 -1    0    0    0    0 -0.0000000000e+00 -0.0000000000e+00 -5.0000000000e+02 5.0000000000e+02 0.0000000000e+00 0.0000e+00 -1.0000e+00
      -11  1    1    2    0    0 -2.9921352770e+00 -6.0465214122e+00 +2.8375064699e+02 2.8383083512e+02 0.0000000000e+00 0.0000e+00 1.0000e+00
       11  1    1    2    0    0 -1.6157231304e+00 -8.0158803374e+00 -4.9807559991e+02 4.9814271863e+02 0.0000000000e+00 0.0000e+00 -1.0000e+00
      -15  1    1    2    0    0 +7.0417240506e+00 +1.6635363544e+01 +2.1311031560e+02 2.1388194300e+02 1.7770000000e+00 0.0000e+00 1.0000e+00
       15  1    1    2    0    0 -2.4338656431e+00 -2.5729617939e+00 +1.2146373221e+00 4.1445032496e+00 1.7770000000e+00 0.0000e+00 -1.0000e+00
</event>
<event>
 6 1 7.08916e-05 5.01011300e+02 7.54677100e-03 9.39755000e-02
      -11 -1    0    0    0    0 +0.0000000000e+00 +0.0000000000e+00 +5.0000000000e+02 5.0000000000e+02 0.0000000000e+00 0.0000e+00 -1.0000e+00
       11 -1    0    0    0    0 -0.0000000000e+00 -0.0000000000e+00 -5.0000000000e+02 5.0000000000e+02 0.0000000000e+00 0.0000e+00 1.0000e+00
      -11  1    1    2    0    0 +7.0943958732e+00 +9.3652184721e+00 +3.4180199636e+02 3.4200386327e+02 0.0000000000e+00 0.0000e+00 -1.0000e+00
       11  1    1    2    0    0 +1.5571147962e+01 -1.1838083757e+01 -4.9860518947e+02 4.9898871314e+02 0.0000000000e+00 0.0000e+00 1.0000e+00
      -15  1    1    2    0    0 -1.5379369922e+01 +2.5896571427e+00 +1.3581798747e+02 1.3672203477e+02 1.7770000000e+00 0.0000e+00 -1.0000e+00
       15  1    1    2    0    0 -7.2861739128e+00 -1.1679185735e-01 +2.0985205635e+01 2.2285388827e+01 1.7770000000e+00 0.0000e+00 1.0000e+00
</event>
<event>
 6 1 7.08916e-05 5.02249400e+02 7.54677100e-03 9.39479100e-02
      -11 -1    0    0    0    0 +0.0000000000e+00 +0.0000000000e+00 +5.0000000000e+02 5.0000000000e+02 0.0000000000e+00 0.0000e+00 -1.0000e+00
       11 -1    0    0    0    0 -0.0000000000e+00 -0.0000000000e+00 -5.0000000000e+02 5.0000000000e+02 0.0000000000e+00 0.0000e+00 1.0000e+00
      -11  1    1    2    0    0 -1.0991260964e+01 -2.5032290564e+00 +4.9762296807e+02 4.9775063267e+02 0.0000000000e+00 0.0000e+00 -1.0000e+00
       11  1    1    2    0    0 -2.9718097147e+00 +7.9485278818e+00 -1.6181251207e+02 1.6203487220e+02 0.0000000000e+00 0.0000e+00 1.0000e+00
      -15  1    1    2    0    0 +4.9428672772e+00 -8.3012219953e-01 -3.2585708132e+02 3.2590046980e+02 1.7770000000e+00 0.0000e+00 1.0000e+00
       15  1    1    2    0    0 +9.0202034012e+00 -4.6151766259e+00 -9.9533746777e+00 1.4314025330e+01 1.7770000000e+00 0.0000e+00 -1.0000e+00
</event>
<event>
 6 1 7.08916e-05 5.01215600e+02 7.54677100e-03 9.39709400e-02
      -11 -1    0    0    0    0 +0.0000000000e+00 +0.0000000000e+00 +5.0000000000e+02 5.0000000000e+02 0.0000000000e+00 0.0000e+00 1.0000e+00
       11 -1    0    0    0    0 -0.0000000000e+00 -0.0000000000e+00 -5.0000000000e+02 5.0000000000e+02 0.0000000000e+00 0.0000e+00 1.0000e+00
      -11  1    1    2    0    0 +8.0157462494e+00 +1.0929384633e+01 +4.9860017509e+02 4.9878436046e+02 0.0000000000e+00 0.0000e+00 1.0000e+00
       11  1    1    2    0    0 -1.3618816483e+01 +1.2268736903e+01 -2.5185932703e+02 2.5252547333e+02 0.0000000000e+00 0.0000e+00 1.0000e+00
      -15  1    1    2    0    0 +3.6261324548e+00 -1.6143824367e+01 -7.6802298988e+01 7.8584494403e+01 1.7770000000e+00 0.0000e+00 -1.0000e+00
       15  1    1    2    0    0 +1.9769377783e+00 -7.0542971691e+00 -1.6993854908e+02 1.7010567181e+02 1.7770000000e+00 0.0000e+00 1.0000e+00
</event>
<event>
 6 1 7.08916e-05 5.00686300e+02 7.54677100e-03 9.39827500e-02
      -11 -1    0    0    0    0 +0.0000000000e+00 +0.0000000000e+00 +5.0000000000e+02 5.0000000000e+02 0.0000000000e+00 0.0000e+00 1.0000e+00
       11 -1    0    0    0    0 -0.0000000000e+00 -0.0000000000e+00 -5.0000000000e+02 5.0000000000e+02 0.0000000000e+00 0.0000e+00 -1.0000e+00
      -11  1    1    2    0    0 +5.1012705808e+00 +1.6766389359e+01 +4.9900604335e+02 4.9931369506e+02 0.0000000000e+00 0.0000e+00 1.0000e+00
       11  1    1    2    0    0 -4.1513039459e+00 +3.0043918674e+00 -2.7222980161e+02 2.7227802809e+02 0.0000000000e+00 0.0000e+00 -1.0000e+00
      -15  1    1    2    0    0 +9.9993970493e-01 -7.5692058246e+00 -1.7397017345e+02 1.7414669602e+02 1.7770000000e+00 0.0000e+00 1.0000e+00
       15  1    1    2    0    0 -1.9499063398e+00 -1.2201575402e+01 -5.2806068288e+01 5.4261580829e+01 1.7770000000e+00 0.0000e+00 -1.0000e+00
</event>
<event>
 6 1 7.08916e-05 5.00288800e+02 7.54677100e-03 9.39916400e-02
      -11 -1    0    0    0    0 +0.0000000000e+00 +0.0000000000e+00 +5.0000000000e+02 5.0000000000e+02 0.0000000000e+00 0.0000e+00 -1.0000e+00
       11 -1    0    0    0    0 -0.0000000000e+00 -0.0000000000e+00 -5.0000000000e+02 5.0000000000e+02 0.0000000000e+00 0.0000e+00 -1.0000e+00
      -11  1    1    2    0    0 +5.9028681185e+00 +3.4826154203e+00 +4.9966421898e+02 4.9971122080e+02 0.0000000000e+00 0.0000e+00 -1.0000e+00
       11  1    1    2    0    0 -8.5115022661e-01 -6.4436144382e+00 -8.3057225527e+01 8.3311147729e+01 0.0000000000e+00 0.0000e+00 -1.0000e+00
      -15  1    1    2    0    0 -8.3235132608e+00 -1.9639418605e+00 -3.4330297862e+02 3.4341408067e+02 1.7770000000e+00 0.0000e+00 1.0000e+00
       15  1    1    2    0    0 +3.2717953689e+00 +4.9249408784e+00 -7.3304014834e+01 7.3563550807e+01 1.7770000000e+00 0.0000e+00 1.0000e+00
</event>
<event>
 6 1 7.08916e-05 4.85045300e+02 7.54677100e-03 9.43390800e-02
      -11 -1    0    0    0    0 +0.0000000000e+00 +0.0000000000e+00 +5.0000000000e+02 5.0000000000e+02 0.0000000000e+00 0.0000e+00 1.0000e+00
       11 -1    0    0    0    0 -0.0000000000e+00 -0.0000000000e+00 -5.0000000000e+02 5.0000000000e+02 0.0000000000e+00 0.0000e+00 -1.0000e+00
      -11  1    1    2    0    0 -1.2986558450e+01 -1.5884705632e+01 +4.8234514209e+02 4.8278132800e+02 0.0000000000e+00 0.0000e+00 1.0000e+00
       11  1    1    2    0    0 -5.3402699972e+00 +5.0199773061e+00 -4.8750186920e+02 4.8755696193e+02 0.0000000000e+00 0.0000e+00 -1.0000e+00
      -15  1    1    2    0    0 +2.8865298288e+00 -5.3390052215e+00 +3.2975350582e+00 7.1322154810e+00 1.7770000000e+00 0.0000e+00 -1.0000e+00
       15  1    1    2    0    0 +1.5440298619e+01 +1.6203733548e+01 +1.8591920516e+00 2.2529494588e+01 1.7770000000e+00 0.0000e+00 1.0000e+00
</event>
<event>
 6 1 7.08916e-05 5.00279000e+02 7.54677100e-03 9.39918600e-02
      -11 -1    0    0    0    0 +0.0000000000e+00 +0.0000000000e+00 +5.0000000000e+02 5.0000000000e+02 0.0000000000e+00 0.0000e+00 -1.0000e+00
       11 -1    0    0    0    0 -0.0000000000e+00 -0.0000000000e+00 -5.0000000000e+02 5.0000000000e+02 0.0000000000e+00 0.0000e+00 -1.0000e+00
      -11  1    1    2    0    0 +6.5602316423e+00 -1.6195068673e+01 +4.9941538215e+02 4.9972096296e+02 0.0000000000e+00 0.0000e+00 -1.0000e+00
       11  1    1    2    0    0 +5.6293619575e-01 -4.6860594079e+00 -1.1341117522e+02 1.1350934197e+02 0.0000000000e+00 0.0000e+00 -1.0000e+00
      -15  1    1    2    0    0 -1.4912798389e+00 +7.3791701181e+00 -7.0827006970e+01 7.1248148836e+01 1.7770000000e+00 0.0000e+00 1.0000e+00
       15  1    1    2    0    0 -5.6318879991e+00 +1.3501957963e+01 -3.1517719996e+02 3.1552154623e+02 1.7770000000e+00 0.0000e+00 -1.0000e+00
</event>
<event>
 6 1 7.08916e-05 5.03834400e+02 7.54677100e-03 9.39127100e-02
      -11 -1    0    0    0    0 +0.0000000000e+00 +0.0000000000e+00 +5.0000000000e+02 5.0000000000e+02 0.0000000000e+00 0.0000e+00 1.0000e+00
       11 -1    0    0    0    0 -0.0000000000e+00 -0.0000000000e+00 -5.0000000000e+02 5.0000000000e+02 0.0000000000e+00 0.0000e+00 -1.0000e+00
      -11  1    1    2    0    0 +7.9462732091e+00 +1.3459343466e+00 +4.9610016866e+02 4.9616562974e+02 0.0000000000e+00 0.0000e+00 1.0000e+00
       11  1    1    2    0    0 -5.8662221820e+00 +4.0064362404e+00 -2.0907272154e+02 2.0919337223e+02 0.0000000000e+00 0.0000e+00 -1.0000e+00
      -15  1    1    2    0    0 -8.3483378104e+00 +3.2027398274e+00 -1.9019117077e+00 9.3127484527e+00 1.7770000000e+00 0.0000e+00 1.0000e+00
       15  1    1    2    0    0 +6.2682867833e+00 -8.5551104144e+00 -2.8512553541e+02 2.8532824957e+02 1.7770000000e+00 0.0000e+00 -1.0000e+00
</event>
<event>
 6 1 7.08916e-05 5.06331700e+02 7.54677100e-03 9.38575200e-02
      -11 -1    0    0    0    0 +0.0000000000e+00 +0.0000000000e+00 +5.0000000000e+02 5.0000000000e+02 0.0000000000e+00 0.0000e+00 -1.0000e+00
       11 -1    0    0    0    0 -0.0000000000e+00 -0.0000000000e+00 -5.0000000000e+02 5.0000000000e+02 0.0000000000e+00 0.0000e+00 1.0000e+00
      -11  1    1    2    0    0 +3.9152936068e+01 -2.8843033603e+01 +1.6832621995e+02 1.7521012903e+02 0.0000000000e+00 0.0000e+00 -1.0000e+00
       11  1    1    2    0    0 -1.6269359180e+01 -3.2142526424e+01 -4.9235204356e+02 4.9366827815e+02 0.0000000000e+00 0.0000e+00 1.0000e+00
      -15  1    1    2    0    0 -5.5432111035e+00 +3.5290009843e+00 +1.7639334689e+01 1.8907270944e+01 1.7770000000e+00 0.0000e+00 1.0000e+00
       15  1    1    2    0    0 -1.7340365785e+01 +5.7456559043e+01 +3.0638648892e+02 3.1221432188e+02 1.7770000000e+00 0.0000e+00 -1.0000e+00
</event>
<event>
 6 1 7.08916e-05 5.02732900e+02 7.54677100e-03 9.39371500e-02
      -11 -1    0    0    0    0 +0.0000000000e+00 +0.0000000000e+00 +5.0000000000e+02 5.0000000000e+02 0.0000000000e+00 0.0000e+00 -1.0000e+00
       11 -1    0    0    0    0 -0.0000000000e+00 -0.0000000000e+00 -5.0000000000e+02 5.0000000000e+02 0.0000000000e+00 0.0000e+00 1.0000e+00
      -11  1    1    2    0    0 -6.3205524939e+00 -4.3373255953e+00 +4.9720801017e+02 4.9726709840e+02 0.0000000000e+00 0.0000e+00 -1.0000e+00
       11  1    1    2    0    0 -7.4836596276e+00 +5.4114687852e+00 -4.4948074270e+02 4.4957560789e+02 0.0000000000e+00 0.0000e+00 1.0000e+00
      -15  1    1    2    0    0 +1.1539236810e+01 -4.0533340312e+00 -4.7418860235e+01 4.9002954379e+01 1.7770000000e+00 0.0000e+00 1.0000e+00
       15  1    1    2    0    0 +2.2649753118e+00 +2.9791908413e+00 -3.0840723311e-01 4.1543393282e+00 1.7770000000e+00 0.0000e+00 -1.0000e+00
</event>
<event>
 6 1 7.08916e-05 5.23012300e+02 7.54677100e-03 9.34974100e-02
      -11 -1    0    0    0    0 +0.0000000000e+00 +0.0000000000e+00 +5.0000000000e+02 5.0000000000e+02 0.0000000000e+00 0.0000e+00 -1.0000e+00
       11 -1    0    0    0    0 -0.0000000000e+00 -0.0000000000e+00 -5.0000000000e+02 5.0000000000e+02 0.0000000000e+00 0.0000e+00 1.0000e+00
      -11  1    1    2    0    0 -3.6426542907e+00 +3.1180634315e+01 +4.7595355478e+02 4.7698772227e+02 0.0000000000e+00 0.0000e+00 -1.0000e+00
       11  1    1    2    0    0 -2.8822140517e+00 -4.7398099301e+00 -2.6422222149e+02 2.6428044817e+02 0.0000000000e+00 0.0000e+00 1.0000e+00
      -15  1    1    2    0    0 -1.7631635964e+01 -3.8380145668e+01 +2.9332350047e+00 4.2375367430e+01 1.7770000000e+00 0.0000e+00 1.0000e+00
       15  1    1    2    0    0 +2.4156504307e+01 +1.1939321283e+01 -2.1466456830e+02 2.1635646213e+02 1.7770000000e+00 0.0000e+00 -1.0000e+00
</event>
<event>
 6 1 7.08916e-05 5.05993400e+02 7.54677100e-03 9.38649800e-02
      -11 -1    0    0    0    0 +0.0000000000e+00 +0.0000000000e+00 +5.0000000000e+02 5.0000000000e+02 0.0000000000e+00 0.0000e+00 -1.0000e+00
       11 -1    0    0    0    0 -0.0000000000e+00 -0.0000000000e+00 -5.0000000000e+02 5.0000000000e+02 0.0000000000e+00 0.0000e+00 1.0000e+00
      -11  1    1    2    0    0 -1.7530996582e+01 -2.5107323277e+00 +4.9368908756e+02 4.9400663436e+02 0.0000000000e+00 0.0000e+00 -1.0000e+00
       11  1    1    2    0    0 +3.8820225475e-01 +6.6071351159e+00 -4.7010295410e+02 4.7014954258e+02 0.0000000000e+00 0.0000e+00 1.0000e+00
      -15  1    1    2    0    0 +2.0686152200e+01 +6.8661604176e-01 -1.8428651372e+01 2.7769790327e+01 1.7770000000e+00 0.0000e+00 -1.0000e+00
       15  1    1    2    0    0 -3.5433578721e+00 -4.7830188300e+00 -5.1574820853e+00 8.0740327345e+00 1.7770000000e+00 0.0000e+00 1.0000e+00
</event>
<event>
 6 1 7.08916e-05 5.05361600e+02 7.54677100e-03 9.38789200e-02
      -11 -1    0    0    0    0 +0.0000000000e+00 +0.0000000000e+00 +5.0000000000e+02 5.0000000000e+02 0.0000000000e+00 0.0000e+00 -1.0000e+00
       11 -1    0    0    0    0 -0.0000000000e+00 -0.0000000000e+00 -5.0000000000e+02 5.0000000000e+02 0.0000000000e+00 0.0000e+00 1.0000e+00
      -11  1    1    2    0    0 -5.4183148253e+00 +1.6480012018e+01 +2.3130531344e+02 2.3195494597e+02 0.0000000000e+00 0.0000e+00 -1.0000e+00
       11  1    1    2    0    0 +7.6482925987e+00 +8.0367147271e+00 -4.9451395577e+02 4.9463839076e+02 0.0000000000e+00 0.0000e+00 1.0000e+00
      -15  1    1    2    0    0 +1.4982396770e+00 -2.0224164988e+01 +2.6603542808e+02 2.6681317114e+02 1.7770000000e+00 0.0000e+00 -1.0000e+00
       15  1    1    2    0    0 -3.7282174504e+00 -4.2925617571e+00 -2.8267857475e+00 6.5934921293e+00 1.7770000000e+00 0.0000e+00 -1.0000e+00
</event>
<event>
 6 1 7.08916e-05 5.11048400e+02 7.54677100e-03 9.37542200e-02
      -11 -1    0    0    0    0 +0.0000000000e+00 +0.0000000000e+00 +5.0000000000e+02 5.0000000000e+02 0.0000000000e+00 0.0000e+00 -1.0000e+00
       11 -1    0    0    0    0 -0.0000000000e+00 -0.0000000000e+00 -5.0000000000e+02 5.0000000000e+02 0.0000000000e+00 0.0000e+00 -1.0000e+00
      -11  1    1    2    0    0 -1.3621567111e+00 -1.2966724069e+01 +4.8877775421e+02 4.8895161766e+02 0.0000000000e+00 0.0000e+00 -1.0000e+00
       11  1    1    2    0    0 -4.3047388926e+00 +4.7488286271e+00 -4.1533756544e+02 4.1538701884e+02 0.0000000000e+00 0.0000e+00 -1.0000e+00
      -15  1    1    2    0    0 +1.7329528949e+00 +2.7655690386e+00 -8.3417159077e+01 8.3499890151e+01 1.7770000000e+00 0.0000e+00 1.0000e+00
       15  1    1    2    0    0 +3.9339427089e+00 +5.4523264031e+00 +9.9769703149e+00 1.2161473353e+01 1.7770000000e+00 0.0000e+00 -1.0000e+00
</event>
<event>
 6 1 7.08916e-05 5.05997000e+02 7.54677100e-03 9.38649000e-02
      -11 -1    0    0    0    0 +0.0000000000e+00 +0.0000000000e+00 +5.0000000000e+02 5.0000000000e+02 0.0000000000e+00 0.0000e+00 1.0000e+00
       11 -1    0    0    0    0 -0.0000000000e+00 -0.0000000000e+00 -5.0000000000e+02 5.0000000000e+02 0.0000000000e+00 0.0000e+00 -1.0000e+00
      -11  1    1    2    0    0 -1.1415583066e+01 -4.5714207472e-01 +4.9387088845e+02 4.9400301515e+02 0.0000000000e+00 0.0000e+00 1.0000e+00
       11  1    1    2    0    0 -1.2443311890e+00 -7.6892869666e+00 -2.5369524351e+02 2.5381479483e+02 0.0000000000e+00 0.0000e+00 -1.0000e+00
      -15  1    1    2    0    0 +9.4975106914e+00 -1.0638896063e+01 -2.3011980068e+02 2.3056814440e+02 1.7770000000e+00 0.0000e+00 -1.0000e+00
       15  1    1    2    0    0 +3.1624035633e+00 +1.8785325104e+01 -1.0055844260e+01 2.1614045627e+01 1.7770000000e+00 0.0000e+00 1.0000e+00
</event>
<event>
 6 1 7.08916e-05 4.90565300e+02 7.54677100e-03 9.42117200e-02
      -11 -1    0    0    0    0 +0.0000000000e+00 +0.0000000000e+00 +5.0000000000e+02 5.0000000000e+02 0.0000000000e+00 0.0000e+00 -1.0000e+00
       11 -1    0    0    0    0 -0.0000000000e+00 -0.0000000000e+00 -5.0000000000e+02 5.0000000000e+02 0.0000000000e+00 0.0000e+00 -1.0000e+00
      -11  1    1    2    0    0 -2.5101262660e-02 -1.0652757773e+01 +4.8886741996e+02 4.8898347229e+02 0.0000000000e+00 0.0000e+00 -1.0000e+00
       11  1    1    2    0    0 -6.9030867136e+00 +1.9238760520e+00 -4.9216384287e+02 4.9221601166e+02 0.0000000000e+00 0.0000e+00 -1.0000e+00
      -15  1    1    2    0    0 +2.0870171478e+00 -3.7118256040e+00 -8.8658415293e-01 4.6986221757e+00 1.7770000000e+00 0.0000e+00 1.0000e+00
       15  1    1    2    0    0 +4.8411708285e+00 +1.2440707325e+01 +4.1830070674e+00 1.4101893875e+01 1.7770000000e+00 0.0000e+00 -1.0000e+00
</event>
<event>
 6 1 7.08916e-05 5.00048400e+02 7.54677100e-03 9.39970200e-02
      -11 -1    0    0    0    0 +0.0000000000e+00 +0.0000000000e+00 +5.0000000000e+02 5.0000000000e+02 0.0000000000e+00 0.0000e+00 -1.0000e+00
       11 -1    0    0    0    0 -0.0000000000e+00 -0.0000000000e+00 -5.0000000000e+02 5.0000000000e+02 0.0000000000e+00 0.0000e+00 1.0000e+00
      -11  1    1    2    0    0 +1.2567368132e+00 -6.7895203504e-01 +7.3436427667e+01 7.3450318392e+01 0.0000000000e+00 0.0000e+00 -1.0000e+00
       11  1    1    2    0    0 -4.5684026970e+00 -6.5919142986e+00 -4.9988731539e+02 4.9995164938e+02 0.0000000000e+00 0.0000e+00 1.0000e+00
      -15  1    1    2    0    0 +5.1273958576e+00 +2.9687193217e+00 +2.4902926372e+02 2.4910607259e+02 1.7770000000e+00 0.0000e+00 -1.0000e+00
       15  1    1    2    0    0 -1.8157299738e+00 +4.3021470120e+00 +1.7742162400e+02 1.7749195964e+02 1.7770000000e+00 0.0000e+00 -1.0000e+00
</event>
<event>
 6 1 7.08916e-05 5.02466500e+02 7.54677100e-03 9.39430800e-02
      -11 -1    0    0    0    0 +0.0000000000e+00 +0.0000000000e+00 +5.0000000000e+02 5.0000000000e+02 0.0000000000e+00 0.0000e+00 1.0000e+00
       11 -1    0    0    0    0 -0.0000000000e+00 -0.0000000000e+00 -5.0000000000e+02 5.0000000000e+02 0.0000000000e+00 0.0000e+00 1.0000e+00
      -11  1    1    2    0    0 -6.5808679947e-01 +9.2924347593e+00 +4.9744627245e+02 4.9753349274e+02 0.0000000000e+00 0.0000e+00 1.0000e+00
       11  1    1    2    0    0 +2.2412325455e+00 +6.4028295008e+00 -4.6792789171e+02 4.6797706268e+02 0.0000000000e+00 0.0000e+00 1.0000e+00
      -15  1    1    2    0    0 -3.4860040607e+00 -1.4332607648e+01 -2.5478199545e+01 2.9493596718e+01 1.7770000000e+00 0.0000e+00 -1.0000e+00
       15  1    1    2    0    0 +1.9028583147e+00 -1.3626566118e+00 -4.0401811966e+00 4.9958478669e+00 1.7770000000e+00 0.0000e+00 -1.0000e+00
</event>
<event>
 6 1 7.08916e-05 5.01195700e+02 7.54677100e-03 9.39713800e-02
      -11 -1    0    0    0    0 +0.0000000000e+00 +0.0000000000e+00 +5.0000000000e+02 5.0000000000e+02 0.0000000000e+00 0.0000e+00 1.0000e+00
       11 -1    0    0    0    0 -0.0000000000e+00 -0.0000000000e+00 -5.0000000000e+02 5.0000000000e+02 0.0000000000e+00 0.0000e+00 -1.0000e+00
      -11  1    1    2    0    0 -3.7537468620e+00 +4.9008490517e+00 +4.5664399739e+02 4.5668572267e+02 0.0000000000e+00 0.0000e+00 1.0000e+00
       11  1    1    2    0    0 -7.8995501844e+00 -3.5417608863e+00 -4.9872915585e+02 4.9880428813e+02 0.0000000000e+00 0.0000e+00 -1.0000e+00
      -15  1    1    2    0    0 +1.1737209686e+01 -2.7747640685e+00 +3.6392894462e+01 3.8380488574e+01 1.7770000000e+00 0.0000e+00 1.0000e+00
       15  1    1    2    0    0 -8.3912640047e-02 +1.4156759031e+00 +5.6922639916e+00 6.1295006276e+00 1.7770000000e+00 0.0000e+00 -1.0000e+00
</event>
<event>
 6 1 7.08916e-05 5.01575200e+02 7.54677100e-03 9.39629200e-02
      -11 -1    0    0    0    0 +0.0000000000e+00 +0.0000000000e+00 +5.0000000000e+02 5.0000000000e+02 0.0000000000e+00 0.0000e+00 1.0000e+00
       11 -1    0    0    0    0 -0.0000000000e+00 -0.0000000000e+00 -5.0000000000e+02 5.0000000000e+02 0.0000000000e+00 0.0000e+00 1.0000e+00
      -11  1    1    2    0    0 +1.0744217840e+01 +1.1754393195e+00 +4.7315664484e+02 4.7328007610e+02 0.0000000000e+00 0.0000e+00 1.0000e+00
       11  1    1    2    0    0 -2.7180707551e+00 -7.5864046475e+00 -4.9835962524e+02 4.9842477618e+02 0.0000000000e+00 0.0000e+00 1.0000e+00
      -15  1    1    2    0    0 -3.7896326501e+00 +6.3755543315e+00 +1.1138912302e+01 1.3499707587e+01 1.7770000000e+00 0.0000e+00 -1.0000e+00
       15  1    1    2    0    0 -4.2365144343e+00 +3.5410996487e-02 +1.4064068089e+01 1.4795440132e+01 1.7770000000e+00 0.0000e+00 1.0000e+00
</event>
<event>
 6 1 7.08916e-05 5.05099700e+02 7.54677100e-03 9.38847100e-02
      -11 -1    0    0    0    0 +0.0000000000e+00 +0.0000000000e+00 +5.0000000000e+02 5.0000000000e+02 0.0000000000e+00 0.0000e+00 1.0000e+00
       11 -1    0    0    0    0 -0.0000000000e+00 -0.0000000000e+00 -5.0000000000e+02 5.0000000000e+02 0.0000000000e+00 0.0000e+00 1.0000e+00
      -11  1    1    2    0    0 +7.6824945442e+00 -9.6423419063e+00 +3.9837056775e+02 3.9856129357e+02 0.0000000000e+00 0.0000e+00 1.0000e+00
       11  1    1    2    0    0 +1.1191761077e+01 -6.1650802643e+00 -4.9473537515e+02 4.9490034871e+02 0.0000000000e+00 0.0000e+00 1.0000e+00
      -15  1    1    2    0    0 -2.8243351393e+01 +3.7595760691e+00 +4.8614808680e+01 5.6377111154e+01 1.7770000000e+00 0.0000e+00 -1.0000e+00
       15  1    1    2    0    0 +9.3690957718e+00 +1.2047846101e+01 +4.7749998712e+01 5.0161246568e+01 1.7770000000e+00 0.0000e+00 1.0000e+00
</event>
<event>
 6 1 7.08916e-05 5.00405200e+02 7.54677100e-03 9.39890300e-02
      -11 -1    0    0    0    0 +0.0000000000e+00 +0.0000000000e+00 +5.0000000000e+02 5.0000000000e+02 0.0000000000e+00 0.0000e+00 -1.0000e+00
       11 -1    0    0    0    0 -0.0000000000e+00 -0.0000000000e+00 -5.0000000000e+02 5.0000000000e+02 0.0000000000e+00 0.0000e+00 1.0000e+00
      -11  1    1    2    0    0 -3.5908190347e+00 -4.9301094136e+00 +3.4406567893e+02 3.4411973407e+02 0.0000000000e+00 0.0000e+00 -1.0000e+00
       11  1    1    2    0    0 +1.0373089605e+00 +6.8238740175e+00 -4.9954709250e+02 4.9959477468e+02 0.0000000000e+00 0.0000e+00 1.0000e+00
      -15  1    1    2    0    0 -5.4289220124e-01 -8.2450150397e+00 +7.4890015873e+01 7.5365424509e+01 1.7770000000e+00 0.0000e+00 -1.0000e+00
       15  1    1    2    0    0 +3.0964022754e+00 +6.3512504357e+00 +8.0591397695e+01 8.0920066736e+01 1.7770000000e+00 0.0000e+00 1.0000e+00
</event>
<event>
 6 1 7.08916e-05 5.01893300e+02 7.54677100e-03 9.39558300e-02
      -11 -1    0    0    0    0 +0.0000000000e+00 +0.0000000000e+00 +5.0000000000e+02 5.0000000000e+02 0.0000000000e+00 0.0000e+00 -1.0000e+00
       11 -1    0    0    0    0 -0.0000000000e+00 -0.0000000000e+00 -5.0000000000e+02 5.0000000000e+02 0.0000000000e+00 0.0000e+00 1.0000e+00
      -11  1    1    2    0    0 -4.7734427215e+00 +8.5955407077e+00 +4.0520727867e+02 4.0532654460e+02 0.0000000000e+00 0.0000e+00 -1.0000e+00
       11  1    1    2    0    0 -1.6564776240e+01 -9.9308267218e-01 -4.9783023616e+02 4.9810673761e+02 0.0000000000e+00 0.0000e+00 1.0000e+00
      -15  1    1    2    0    0 +1.9831115960e+01 -6.6651432728e+00 +5.5181359692e+01 5.9040981374e+01 1.7770000000e+00 0.0000e+00 1.0000e+00
       15  1    1    2    0    0 +1.5071030013e+00 -9.3731476274e-01 +3.7441597796e+01 3.7525736407e+01 1.7770000000e+00 0.0000e+00 -1.0000e+00
</event>
<event>
 6 1 7.08916e-05 5.00864300e+02 7.54677100e-03 9.39787800e-02
      -11 -1    0    0    0    0 +0.0000000000e+00 +0.0000000000e+00 +5.0000000000e+02 5.0000000000e+02 0.0000000000e+00 0.0000e+00 1.0000e+00
       11 -1    0    0    0    0 -0.0000000000e+00 -0.0000000000e+00 -5.0000000000e+02 5.0000000000e+02 0.0000000000e+00 0.0000e+00 -1.0000e+00
      -11  1    1    2    0    0 +5.8807732534e+00 +2.2224685567e+00 +1.6302081810e+02 1.6314199335e+02 0.0000000000e+00 0.0000e+00 1.0000e+00
       11  1    1    2    0    0 +2.1802009170e+00 -1.1182154851e+01 -4.9900562613e+02 4.9913566169e+02 0.0000000000e+00 0.0000e+00 -1.0000e+00
      -15  1    1    2    0    0 +1.5433473219e-01 +1.2050273665e+01 +4.5587358145e+01 4.7186839969e+01 1.7770000000e+00 0.0000e+00 1.0000e+00
       15  1    1    2    0    0 -8.2153089026e+00 -3.0905873705e+00 +2.9039744989e+02 2.9053550499e+02 1.7770000000e+00 0.0000e+00 -1.0000e+00
</event>
<event>
 6 1 7.08916e-05 5.01583100e+02 7.54677100e-03 9.39627400e-02
      -11 -1    0    0    0    0 +0.0000000000e+00 +0.0000000000e+00 +5.0000000000e+02 5.0000000000e+02 0.0000000000e+00 0.0000e+00 -1.0000e+00
       11 -1    0    0    0    0 -0.0000000000e+00 -0.0000000000e+00 -5.0000000000e+02 5.0000000000e+02 0.0000000000e+00 0.0000e+00 -1.0000e+00
      -11  1    1    2    0    0 -1.3144672604e+00 +9.0171351319e+00 +4.3508791263e+02 4.3518332719e+02 0.0000000000e+00 0.0000e+00 -1.0000e+00
       11  1    1    2    0    0 +8.1972600143e+00 -3.6441684011e+00 -4.9833619928e+02 4.9841693646e+02 0.0000000000e+00 0.0000e+00 -1.0000e+00
      -15  1    1    2    0    0 -7.6197513757e+00 -5.6522913597e-01 +9.1424782668e+00 1.2046689706e+01 1.7770000000e+00 0.0000e+00 -1.0000e+00
       15  1    1    2    0    0 +7.3695862175e-01 -4.8077375949e+00 +5.4105808387e+01 5.4353046640e+01 1.7770000000e+00 0.0000e+00 1.0000e+00
</event>
<event>
 6 1 7.08916e-05 4.89244500e+02 7.54677100e-03 9.42420300e-02
      -11 -1    0    0    0    0 +0.0000000000e+00 +0.0000000000e+00 +5.0000000000e+02 5.0000000000e+02 0.0000000000e+00 0.0000e+00 1.0000e+00
       11 -1    0    0    0    0 -0.0000000000e+00 -0.0000000000e+00 -5.0000000000e+02 5.0000000000e+02 0.0000000000e+00 0.0000e+00 -1.0000e+00
      -11  1    1    2    0    0 -6.4761610189e+00 +2.1113772175e+00 +4.8717174665e+02 4.8721936467e+02 0.0000000000e+00 0.0000e+00 1.0000e+00
       11  1    1    2    0    0 -9.8262701054e+00 -2.3255905112e+00 -4.9131053452e+02 4.9141429089e+02 0.0000000000e+00 0.0000e+00 -1.0000e+00
      -15  1    1    2    0    0 +7.6739653199e+00 +4.0226150937e+00 -3.0707589724e+00 9.3626099775e+00 1.7770000000e+00 0.0000e+00 1.0000e+00
       15  1    1    2    0    0 +8.6284658044e+00 -3.8084018000e+00 +7.2095468441e+00 1.2003734465e+01 1.7770000000e+00 0.0000e+00 1.0000e+00
</event>
<event>
 6 1 7.08916e-05 4.80967600e+02 7.54677100e-03 9.44343300e-02
      -11 -1    0    0    0    0 +0.0000000000e+00 +0.0000000000e+00 +5.0000000000e+02 5.0000000000e+02 0.0000000000e+00 0.0000e+00 -1.0000e+00
       11 -1    0    0    0    0 -0.0000000000e+00 -0.0000000000e+00 -5.0000000000e+02 5.0000000000e+02 0.0000000000e+00 0.0000e+00 -1.0000e+00
      -11  1    1    2    0    0 -3.3122949653e+01 -8.6534569635e+00 +4.7917298611e+02 4.8039438249e+02 0.0000000000e+00 0.0000e+00 -1.0000e+00
       11  1    1    2    0    0 +8.9239081252e+00 -1.0012376255e+00 -4.8181343579e+02 4.8189711093e+02 0.0000000000e+00 0.0000e+00 -1.0000e+00
      -15  1    1    2    0    0 +2.5311857532e+01 +2.7188610793e+00 +9.9738756639e+00 2.7399238348e+01 1.7770000000e+00 0.0000e+00 1.0000e+00
       15  1    1    2    0    0 -1.1128160039e+00 +6.9358335097e+00 -7.3334259840e+00 1.0309268238e+01 1.7770000000e+00 0.0000e+00 -1.0000e+00
</event>
<event>
 6 1 7.08916e-05 5.09561700e+02 7.54677100e-03 9.37866500e-02
      -11 -1    0    0    0    0 +0.0000000000e+00 +0.0000000000e+00 +5.0000000000e+02 5.0000000000e+02 0.0000000000e+00 0.0000e+00 1.0000e+00
       11 -1    0    0    0    0 -0.0000000000e+00 -0.0000000000e+00 -5.0000000000e+02 5.0000000000e+02 0.0000000000e+00 0.0000e+00 1.0000e+00
      -11  1    1    2    0    0 +5.9189674264e+00 -4.5093862460e+00 +2.7702040654e+02 2.7712032474e+02 0.0000000000e+00 0.0000e+00 1.0000e+00
       11  1    1    2    0    0 -1.6855714067e+01 -2.0713669379e+01 -4.8971071011e+02 4.9043832517e+02 0.0000000000e+00 0.0000e+00 1.0000e+00
      -15  1    1    2    0    0 +3.3815991059e+01 -2.1955706883e+01 +1.0905914564e+02 1.1628684059e+02 1.7770000000e+00 0.0000e+00 -1.0000e+00
       15  1    1    2    0    0 -2.2879244418e+01 +4.7178762508e+01 +1.0363115793e+02 1.1615450951e+02 1.7770000000e+00 0.0000e+00 1.0000e+00
</event>
<event>
 6 1 7.08916e-05 5.01742300e+02 7.54677100e-03 9.39592000e-02
      -11 -1    0    0    0    0 +0.0000000000e+00 +0.0000000000e+00 +5.0000000000e+02 5.0000000000e+02 0.0000000000e+00 0.0000e+00 1.0000e+00
       11 -1    0    0    0    0 -0.0000000000e+00 -0.0000000000e+00 -5.0000000000e+02 5.0000000000e+02 0.0000000000e+00 0.0000e+00 -1.0000e+00
      -11  1    1    2    0    0 -5.9844541647e+00 -4.6941578152e+00 +4.9819962151e+02 4.9825767599e+02 0.0000000000e+00 0.0000e+00 1.0000e+00
       11  1    1    2    0    0 +8.4147942377e+00 -8.5108903969e+00 -4.6121554358e+02 4.6137080711e+02 0.0000000000e+00 0.0000e+00 -1.0000e+00
      -15  1    1    2    0    0 +4.3240579996e-01 +6.4766071703e+00 -8.1386460124e+00 1.0560715086e+01 1.7770000000e+00 0.0000e+00 -1.0000e+00
       15  1    1    2    0    0 -2.8627458730e+00 +6.7284410419e+00 -2.8845431920e+01 2.9810801808e+01 1.7770000000e+00 0.0000e+00 1.0000e+00
</event>
<event>
 6 1 7.08916e-05 5.00062900e+02 7.54677100e-03 9.39966900e-02
      -11 -1    0    0    0    0 +0.0000000000e+00 +0.0000000000e+00 +5.0000000000e+02 5.0000000000e+02 0.0000000000e+00 0.0000e+00 -1.0000e+00
       11 -1    0    0    0    0 -0.0000000000e+00 -0.0000000000e+00 -5.0000000000e+02 5.0000000000e+02 0.0000000000e+00 0.0000e+00 1.0000e+00
      -11  1    1    2    0    0 +1.4806126621e+01 -2.9523032183e+00 +4.9970906882e+02 4.9993708698e+02 0.0000000000e+00 0.0000e+00 -1.0000e+00
       11  1    1    2    0    0 -1.2304422128e+01 +2.2089720515e+00 -3.0673535184e+02 3.0698999076e+02 0.0000000000e+00 0.0000e+00 1.0000e+00
      -15  1    1    2    0    0 -1.2712308873e+00 -1.6586780307e+00 -6.4048408245e+01 6.4107125723e+01 1.7770000000e+00 0.0000e+00 -1.0000e+00
       15  1    1    2    0    0 -1.2304736063e+00 +2.4020091975e+00 -1.2892530874e+02 1.2896579653e+02 1.7770000000e+00 0.0000e+00 1.0000e+00
</event>
<event>
 6 1 7.08916e-05 5.00747400e+02 7.54677100e-03 9.39813900e-02
      -11 -1    0    0    0    0 +0.0000000000e+00 +0.0000000000e+00 +5.0000000000e+02 5.0000000000e+02 0.0000000000e+00 0.0000e+00 -1.0000e+00
       11 -1    0    0    0    0 -0.0000000000e+00 -0.0000000000e+00 -5.0000000000e+02 5.0000000000e+02 0.0000000000e+00 0.0000e+00 1.0000e+00
      -11  1    1    2    0    0 +1.5854594895e+00 -1.0562406012e+01 +4.2609107224e+01 4.3927373254e+01 0.0000000000e+00 0.0000e+00 -1.0000e+00
       11  1    1    2    0    0 +4.1112223491e+00 +7.2308365489e+00 -4.9918329719e+02 4.9925259272e+02 0.0000000000e+00 0.0000e+00 1.0000e+00
      -15  1    1    2    0    0 -9.5684880607e+00 +6.7567981236e-01 +3.3551630717e+02 3.3565810375e+02 1.7770000000e+00 0.0000e+00 -1.0000e+00
       15  1    1    2    0    0 +3.8718062221e+00 +2.6558896509e+00 +1.2105788279e+02 1.2116193027e+02 1.7770000000e+00 0.0000e+00 1.0000e+00
</event>
<event>
 6 1 7.08916e-05 4.88693300e+02 7.54677100e-03 9.42547100e-02
      -11 -1    0    0    0    0 +0.0000000000e+00 +0.0000000000e+00 +5.0000000000e+02 5.0000000000e+02 0.0000000000e+00 0.0000e+00 -1.0000e+00
       11 -1    0    0    0    0 -0.0000000000e+00 -0.0000000000e+00 -5.0000000000e+02 5.0000000000e+02 0.0000000000e+00 0.0000e+00 1.0000e+00
      -11  1    1    2    0    0 +4.8599301415e+00 +5.4417478833e+00 +4.8835440396e+02 4.8840890186e+02 0.0000000000e+00 0.0000e+00 -1.0000e+00
       11  1    1    2    0    0 -8.6560769047e+00 +4.7274051834e+00 -4.8893862380e+02 4.8903809041e+02 0.0000000000e+00 0.0000e+00 1.0000e+00
      -15  1    1    2    0    0 -7.7808000973e+00 -3.9117685365e+00 +2.2529845901e+00 9.1693212291e+00 1.7770000000e+00 0.0000e+00 1.0000e+00
       15  1    1    2    0    0 +1.1576946861e+01 -6.2573845301e+00 -1.6687647562e+00 1.3383686509e+01 1.7770000000e+00 0.0000e+00 -1.0000e+00
</event>
<event>
 6 1 7.08916e-05 5.01654900e+02 7.54677100e-03 9.39611400e-02
      -11 -1    0    0    0    0 +0.0000000000e+00 +0.0000000000e+00 +5.0000000000e+02 5.0000000000e+02 0.0000000000e+00 0.0000e+00 1.0000e+00
       11 -1    0    0    0    0 -0.0000000000e+00 -0.0000000000e+00 -5.0000000000e+02 5.0000000000e+02 0.0000000000e+00 0.0000e+00 1.0000e+00
      -11  1    1    2    0    0 +1.2792817222e+01 +6.1852516688e+00 +4.0934186783e+02 4.0958842546e+02 0.0000000000e+00 0.0000e+00 1.0000e+00
       11  1    1    2    0    0 +4.1999188506e+00 -2.0466184860e+01 -4.9790694275e+02 4.9834508895e+02 0.0000000000e+00 0.0000e+00 1.0000e+00
      -15  1    1    2    0    0 -1.1703832217e+01 +1.0128353797e+01 +3.8692613794e+01 4.1711381305e+01 1.7770000000e+00 0.0000e+00 -1.0000e+00
       15  1    1    2    0    0 -5.2889038562e+00 +4.1525793946e+00 +4.9872461127e+01 5.0355104284e+01 1.7770000000e+00 0.0000e+00 1.0000e+00
</event>
<event>
 6 1 7.08916e-05 2.65017200e+02 7.54677100e-03 1.01692800e-01
      -11 -1    0    0    0    0 +0.0000000000e+00 +0.0000000000e+00 +5.0000000000e+02 5.0000000000e+02 0.0000000000e+00 0.0000e+00 -1.0000e+00
       11 -1    0    0    0    0 -0.0000000000e+00 -0.0000000000e+00 -5.0000000000e+02 5.0000000000e+02 0.0000000000e+00 0.0000e+00 -1.0000e+00
      -11  1    1    2    0    0 +1.8484059190e+02 +1.7897017784e+02 +1.1964170527e+02 2.8374373405e+02 0.0000000000e+00 0.0000e+00 -1.0000e+00
       11  1    1    2    0    0 +1.6831060051e+00 -3.0418242959e+00 -1.3843392624e+02 1.3847757029e+02 0.0000000000e+00 0.0000e+00 -1.0000e+00
      -15  1    1    2    0    0 +1.3206275327e+01 -2.7751610112e+00 -2.2067660378e+02 2.2109597104e+02 1.7770000000e+00 0.0000e+00 -1.0000e+00
       15  1    1    2    0    0 -1.9972997323e+02 -1.7315319253e+02 +2.3946882474e+02 3.5668272462e+02 1.7770000000e+00 0.0000e+00 -1.0000e+00
</event>
<event>
 6 1 7.08916e-05 5.03450300e+02 7.54677100e-03 9.39212200e-02
      -11 -1    0    0    0    0 +0.0000000000e+00 +0.0000000000e+00 +5.0000000000e+02 5.0000000000e+02 0.0000000000e+00 0.0000e+00 -1.0000e+00
       11 -1    0    0    0    0 -0.0000000000e+00 -0.0000000000e+00 -5.0000000000e+02 5.0000000000e+02 0.0000000000e+00 0.0000e+00 1.0000e+00
      -11  1    1    2    0    0 +1.2440190254e+01 +1.3515238183e+00 +4.9639198124e+02 4.9654967928e+02 0.0000000000e+00 0.0000e+00 -1.0000e+00
       11  1    1    2    0    0 -1.0032433458e+01 -8.9885991090e+00 -4.4250541743e+02 4.4271038963e+02 0.0000000000e+00 0.0000e+00 1.0000e+00
      -15  1    1    2    0    0 +7.5480256652e+00 -2.5690550149e+00 -3.9759968760e+01 4.0590461687e+01 1.7770000000e+00 0.0000e+00 -1.0000e+00
       15  1    1    2    0    0 -9.9557824613e+00 +1.0206130306e+01 -1.4126595056e+01 2.0149469400e+01 1.7770000000e+00 0.0000e+00 1.0000e+00
</event>
<event>
 6 1 7.08916e-05 5.00758400e+02 7.54677100e-03 9.39811400e-02
      -11 -1    0    0    0    0 +0.0000000000e+00 +0.0000000000e+00 +5.0000000000e+02 5.0000000000e+02 0.0000000000e+00 0.0000e+00 -1.0000e+00
       11 -1    0    0    0    0 -0.0000000000e+00 -0.0000000000e+00 -5.0000000000e+02 5.0000000000e+02 0.0000000000e+00 0.0000e+00 1.0000e+00
      -11  1    1    2    0    0 +8.1242862985e+00 +6.3204452559e+01 +4.9515789571e+02 4.9924157332e+02 0.0000000000e+00 0.0000e+00 -1.0000e+00
       11  1    1    2    0    0 -2.0042647294e+01 -4.8841289116e+01 -4.0177354788e+02 4.0522729796e+02 0.0000000000e+00 0.0000e+00 1.0000e+00
      -15  1    1    2    0    0 +9.3941388176e+00 -1.4093510727e+01 -7.7925283314e+01 7.9764556021e+01 1.7770000000e+00 0.0000e+00 1.0000e+00
       15  1    1    2    0    0 +2.5242221775e+00 -2.6965271608e-01 -1.5459064513e+01 1.5766572703e+01 1.7770000000e+00 0.0000e+00 1.0000e+00
</event>
<event>
 6 1 7.08916e-05 4.68635100e+02 7.54677100e-03 9.47286200e-02
      -11 -1    0    0    0    0 +0.0000000000e+00 +0.0000000000e+00 +5.0000000000e+02 5.0000000000e+02 0.0000000000e+00 0.0000e+00 1.0000e+00
       11 -1    0    0    0    0 -0.0000000000e+00 -0.0000000000e+00 -5.0000000000e+02 5.0000000000e+02 0.0000000000e+00 0.0000e+00 -1.0000e+00
      -11  1    1    2    0    0 -4.5684952870e+01 +4.0910515478e+00 +4.7029389827e+02 4.7252534575e+02 0.0000000000e+00 0.0000e+00 1.0000e+00
       11  1    1    2    0    0 -2.2258932782e-01 +2.0946653243e+01 -4.6574265786e+02 4.6621350815e+02 0.0000000000e+00 0.0000e+00 -1.0000e+00
      -15  1    1    2    0    0 +1.6678902569e+01 -1.6760535208e+01 +1.2049063681e+01 2.6597725390e+01 1.7770000000e+00 0.0000e+00 1.0000e+00
       15  1    1    2    0    0 +2.9228639629e+01 -8.2771695825e+00 -1.6600304089e+01 3.4663420716e+01 1.7770000000e+00 0.0000e+00 -1.0000e+00
</event>
<event>
 6 1 7.08916e-05 5.08134700e+02 7.54677100e-03 9.38179000e-02
      -11 -1    0    0    0    0 +0.0000000000e+00 +0.0000000000e+00 +5.0000000000e+02 5.0000000000e+02 0.0000000000e+00 0.0000e+00 1.0000e+00
       11 -1    0    0    0    0 -0.0000000000e+00 -0.0000000000e+00 -5.0000000000e+02 5.0000000000e+02 0.0000000000e+00 0.0000e+00 1.0000e+00
      -11  1    1    2    0    0 -2.9128630391e+00 +6.8537760021e+00 +4.2403967719e+02 4.2410506581e+02 0.0000000000e+00 0.0000e+00 1.0000e+00
       11  1    1    2    0    0 +2.5053196631e+01 -4.3412134214e-01 -4.9122668362e+02 4.9186533301e+02 0.0000000000e+00 0.0000e+00 1.0000e+00
      -15  1    1    2    0    0 -2.8449613887e+01 -2.6768322532e+00 +1.7039854394e+01 3.3317567858e+01 1.7770000000e+00 0.0000e+00 1.0000e+00
       15  1    1    2    0    0 +6.3092802950e+00 -3.7428224068e+00 +5.0147152030e+01 5.0712033317e+01 1.7770000000e+00 0.0000e+00 -1.0000e+00
</event>
<event>
 6 1 7.08916e-05 5.04598500e+02 7.54677100e-03 9.38957900e-02
      -11 -1    0    0    0    0 +0.0000000000e+00 +0.0000000000e+00 +5.0000000000e+02 5.0000000000e+02 0.0000000000e+00 0.0000e+00 1.0000e+00
       11 -1    0    0    0    0 -0.0000000000e+00 -0.0000000000e+00 -5.0000000000e+02 5.0000000000e+02 0.0000000000e+00 0.0000e+00 1.0000e+00
      -11  1    1    2    0    0 +1.4236556842e+01 -9.4674011005e+00 +4.9510636414e+02 4.9540147663e+02 0.0000000000e+00 0.0000e+00 1.0000e+00
       11  1    1    2    0    0 -3.4644434513e+00 +2.0104213377e+01 -4.7042246971e+02 4.7086461087e+02 0.0000000000e+00 0.0000e+00 1.0000e+00
      -15  1    1    2    0    0 -9.3443150515e+00 -1.3637444239e+01 -2.4920644472e+01 2.9958176831e+01 1.7770000000e+00 0.0000e+00 1.0000e+00
       15  1    1    2    0    0 -1.4277983391e+00 +3.0006319617e+00 +2.3675004269e-01 3.7757356700e+00 1.7770000000e+00 0.0000e+00 -1.0000e+00
</event>
<event>
 6 1 7.08916e-05 5.00887600e+02 7.54677100e-03 9.39782600e-02
      -11 -1    0    0    0    0 +0.0000000000e+00 +0.0000000000e+00 +5.0000000000e+02 5.0000000000e+02 0.0000000000e+00 0.0000e+00 1.0000e+00
       11 -1    0    0    0    0 -0.0000000000e+00 -0.0000000000e+00 -5.0000000000e+02 5.0000000000e+02 0.0000000000e+00 0.0000e+00 -1.0000e+00
      -11  1    1    2    0    0 -3.4123033297e+00 +6.7470534076e+00 +4.9905516034e+02 4.9911243183e+02 0.0000000000e+00 0.0000e+00 1.0000e+00
       11  1    1    2    0    0 +5.2698462011e+00 -3.0845044600e+00 -4.3011118644e+02 4.3015452822e+02 0.0000000000e+00 0.0000e+00 -1.0000e+00
      -15  1    1    2    0    0 -3.6595775802e+00 -3.6065976235e+00 -7.6407464337e+00 9.3775684240e+00 1.7770000000e+00 0.0000e+00 1.0000e+00
       15  1    1    2    0    0 +1.8020347087e+00 -5.5951324199e-02 -6.1303227462e+01 6.1355471524e+01 1.7770000000e+00 0.0000e+00 -1.0000e+00
</event>
<event>
 6 1 7.08916e-05 5.00039600e+02 7.54677100e-03 9.39972100e-02
      -11 -1    0    0    0    0 +0.0000000000e+00 +0.0000000000e+00 +5.0000000000e+02 5.0000000000e+02 0.0000000000e+00 0.0000e+00 -1.0000e+00
       11 -1    0    0    0    0 -0.0000000000e+00 -0.0000000000e+00 -5.0000000000e+02 5.0000000000e+02 0.0000000000e+00 0.0000e+00 -1.0000e+00
      -11  1    1    2    0    0 -4.3893071367e+00 -1.2101685265e+01 +4.9979461807e+02 4.9996037549e+02 0.0000000000e+00 0.0000e+00 -1.0000e+00
       11  1    1    2    0    0 +2.2552877265e+00 +1.3654150976e+00 -6.3357846989e+01 6.3412675833e+01 0.0000000000e+00 0.0000e+00 -1.0000e+00
      -15  1    1    2    0    0 +1.7845867336e+00 +5.1935756444e+00 -1.2236971158e+02 1.2250576321e+02 1.7770000000e+00 0.0000e+00 1.0000e+00
       15  1    1    2    0    0 +3.4943267659e-01 +5.5426945234e+00 -3.1406705951e+02 3.1412118547e+02 1.7770000000e+00 0.0000e+00 -1.0000e+00
</event>
<event>
 6 1 7.08916e-05 5.06242700e+02 7.54677100e-03 9.38594900e-02
      -11 -1    0    0    0    0 +0.0000000000e+00 +0.0000000000e+00 +5.0000000000e+02 5.0000000000e+02 0.0000000000e+00 0.0000e+00 -1.0000e+00
       11 -1    0    0    0    0 -0.0000000000e+00 -0.0000000000e+00 -5.0000000000e+02 5.0000000000e+02 0.0000000000e+00 0.0000e+00 1.0000e+00
      -11  1    1    2    0    0 +1.0452686948e+01 -8.1181672231e+00 +4.9357990336e+02 4.9375731317e+02 0.0000000000e+00 0.0000e+00 -1.0000e+00
       11  1    1    2    0    0 -1.2960828835e+00 +5.7180878161e+00 -3.7561430642e+02 3.7566006382e+02 0.0000000000e+00 0.0000e+00 1.0000e+00
      -15  1    1    2    0    0 -2.4617435282e+01 -1.9187467258e+00 -2.1543865044e+01 3.2817610500e+01 1.7770000000e+00 0.0000e+00 1.0000e+00
       15  1    1    2    0    0 +1.5460831218e+01 +4.3188261328e+00 -9.6421731899e+01 9.7765012517e+01 1.7770000000e+00 0.0000e+00 -1.0000e+00
</event>
<event>
 6 1 7.08916e-05 5.11412000e+02 7.54677100e-03 9.37463000e-02
      -11 -1    0    0    0    0 +0.0000000000e+00 +0.0000000000e+00 +5.0000000000e+02 5.0000000000e+02 0.0000000000e+00 0.0000e+00 -1.0000e+00
       11 -1    0    0    0    0 -0.0000000000e+00 -0.0000000000e+00 -5.0000000000e+02 5.0000000000e+02 0.0000000000e+00 0.0000e+00 1.0000e+00
      -11  1    1    2    0    0 +4.5191597051e+01 +8.7025559256e+00 +4.8641564012e+02 4.8858795511e+02 0.0000000000e+00 0.0000e+00 -1.0000e+00
       11  1    1    2    0    0 -4.5890907253e+00 -1.0477440993e+01 -4.4452740904e+02 4.4467454831e+02 0.0000000000e+00 0.0000e+00 1.0000e+00
      -15  1    1    2    0    0 -1.9841971822e+00 +4.6315769124e+00 +3.9949045753e+00 6.6712468639e+00 1.7770000000e+00 0.0000e+00 1.0000e+00
       15  1    1    2    0    0 -3.8618309143e+01 -2.8566918451e+00 -4.5883135654e+01 6.0066249723e+01 1.7770000000e+00 0.0000e+00 -1.0000e+00
</event>
<event>
 6 1 7.08916e-05 4.78546000e+02 7.54677100e-03 9.44913700e-02
      -11 -1    0    0    0    0 +0.0000000000e+00 +0.0000000000e+00 +5.0000000000e+02 5.0000000000e+02 0.0000000000e+00 0.0000e+00 1.0000e+00
       11 -1    0    0    0    0 -0.0000000000e+00 -0.0000000000e+00 -5.0000000000e+02 5.0000000000e+02 0.0000000000e+00 0.0000e+00 -1.0000e+00
      -11  1    1    2    0    0 -5.8952114138e+00 +1.4697237290e+01 +4.8676574256e+02 4.8702325451e+02 0.0000000000e+00 0.0000e+00 1.0000e+00
       11  1    1    2    0    0 +6.9879498723e-01 +2.0337342794e+01 -4.7042341778e+02 4.7086334304e+02 0.0000000000e+00 0.0000e+00 -1.0000e+00
      -15  1    1    2    0    0 +8.5490617847e-01 -7.2108123716e+00 +2.8369220836e+00 7.9957823595e+00 1.7770000000e+00 0.0000e+00 1.0000e+00
       15  1    1    2    0    0 +4.3415102481e+00 -2.7823767713e+01 -1.9179246867e+01 3.4117620086e+01 1.7770000000e+00 0.0000e+00 -1.0000e+00
</event>
<event>
 6 1 7.08916e-05 5.00727500e+02 7.54677100e-03 9.39818300e-02
      -11 -1    0    0    0    0 +0.0000000000e+00 +0.0000000000e+00 +5.0000000000e+02 5.0000000000e+02 0.0000000000e+00 0.0000e+00 -1.0000e+00
       11 -1    0    0    0    0 -0.0000000000e+00 -0.0000000000e+00 -5.0000000000e+02 5.0000000000e+02 0.0000000000e+00 0.0000e+00 1.0000e+00
      -11  1    1    2    0    0 -1.0610874527e-01 +1.3107689160e+00 +2.6354362101e+01 2.6387151721e+01 0.0000000000e+00 0.0000e+00 -1.0000e+00
       11  1    1    2    0    0 +1.9603461722e+00 +8.5144807873e+00 -4.9919599510e+02 4.9927245154e+02 0.0000000000e+00 0.0000e+00 1.0000e+00
      -15  1    1    2    0    0 +3.3869238219e+00 +5.8855151743e+00 +2.0061732811e+01 2.1254208859e+01 1.7770000000e+00 0.0000e+00 1.0000e+00
       15  1    1    2    0    0 -5.2411612488e+00 -1.5710764878e+01 +4.5277990019e+02 4.5308618788e+02 1.7770000000e+00 0.0000e+00 -1.0000e+00
</event>
<event>
 6 1 7.08916e-05 5.00870800e+02 7.54677100e-03 9.39786300e-02
      -11 -1    0    0    0    0 +0.0000000000e+00 +0.0000000000e+00 +5.0000000000e+02 5.0000000000e+02 0.0000000000e+00 0.0000e+00 1.0000e+00
       11 -1    0    0    0    0 -0.0000000000e+00 -0.0000000000e+00 -5.0000000000e+02 5.0000000000e+02 0.0000000000e+00 0.0000e+00 1.0000e+00
      -11  1    1    2    0    0 -9.6651971265e+00 +4.9632278849e+00 +2.6228176507e+02 2.6250671221e+02 0.0000000000e+00 0.0000e+00 1.0000e+00
       11  1    1    2    0    0 +9.8932581288e+00 +5.9361039399e+00 -4.9899581181e+02 4.9912917576e+02 0.0000000000e+00 0.0000e+00 1.0000e+00
      -15  1    1    2    0    0 +7.2939900058e+00 -3.9642068186e+00 +2.0078740541e+02 2.0096680603e+02 1.7770000000e+00 0.0000e+00 -1.0000e+00
       15  1    1    2    0    0 -7.5220510081e+00 -6.9351250062e+00 +3.5926641335e+01 3.7397306010e+01 1.7770000000e+00 0.0000e+00 1.0000e+00
</event>
<event>
 6 1 7.08916e-05 5.02440000e+02 7.54677100e-03 9.39436600e-02
      -11 -1    0    0    0    0 +0.0000000000e+00 +0.0000000000e+00 +5.0000000000e+02 5.0000000000e+02 0.0000000000e+00 0.0000e+00 -1.0000e+00
       11 -1    0    0    0    0 -0.0000000000e+00 -0.0000000000e+00 -5.0000000000e+02 5.0000000000e+02 0.0000000000e+00 0.0000e+00 1.0000e+00
      -11  1    1    2    0    0 +3.0369559010e+00 +2.0418831688e+01 +3.2798947996e+02 3.2863848033e+02 0.0000000000e+00 0.0000e+00 -1.0000e+00
       11  1    1    2    0    0 -2.4408509686e+00 +8.4722670794e+00 -4.9748186181e+02 4.9755998623e+02 0.0000000000e+00 0.0000e+00 1.0000e+00
      -15  1    1    2    0    0 -1.9840153144e+00 -2.5121877007e+01 +1.6668563273e+02 1.6858915418e+02 1.7770000000e+00 0.0000e+00 -1.0000e+00
       15  1    1    2    0    0 +1.3879103820e+00 -3.7692217609e+00 +2.8067491253e+00 5.2123792613e+00 1.7770000000e+00 0.0000e+00 1.0000e+00
</event>
<event>
 6 1 7.08916e-05 5.06143600e+02 7.54677100e-03 9.38616700e-02
      -11 -1    0    0    0    0 +0.0000000000e+00 +0.0000000000e+00 +5.0000000000e+02 5.0000000000e+02 0.0000000000e+00 0.0000e+00 -1.0000e+00
       11 -1    0    0    0    0 -0.0000000000e+00 -0.0000000000e+00 -5.0000000000e+02 5.0000000000e+02 0.0000000000e+00 0.0000e+00 -1.0000e+00
      -11  1    1    2    0    0 -5.9360399502e+00 +1.0028908531e+01 +4.9371892226e+02 4.9385644652e+02 0.0000000000e+00 0.0000e+00 -1.0000e+00
       11  1    1    2    0    0 +6.5709412682e+00 -4.7195603374e+00 -4.0336476750e+02 4.0344589126e+02 0.0000000000e+00 0.0000e+00 -1.0000e+00
      -15  1    1    2    0    0 -1.0023192858e+01 -1.8701749274e+01 -8.1043934806e+01 8.3794372835e+01 1.7770000000e+00 0.0000e+00 -1.0000e+00
       15  1    1    2    0    0 +9.3882915404e+00 +1.3392401080e+01 -9.3102199567e+00 1.8903289380e+01 1.7770000000e+00 0.0000e+00 1.0000e+00
</event>
<event>
 6 1 7.08916e-05 5.00252800e+02 7.54677100e-03 9.39924400e-02
      -11 -1    0    0    0    0 +0.0000000000e+00 +0.0000000000e+00 +5.0000000000e+02 5.0000000000e+02 0.0000000000e+00 0.0000e+00 1.0000e+00
       11 -1    0    0    0    0 -0.0000000000e+00 -0.0000000000e+00 -5.0000000000e+02 5.0000000000e+02 0.0000000000e+00 0.0000e+00 1.0000e+00
      -11  1    1    2    0    0 -6.4293020917e+00 +3.9806385081e+00 +3.7638424845e+02 3.7646020227e+02 0.0000000000e+00 0.0000e+00 1.0000e+00
       11  1    1    2    0    0 +1.3559808895e+01 -2.7309860985e+00 -4.9955570207e+02 4.9974716225e+02 0.0000000000e+00 0.0000e+00 1.0000e+00
      -15  1    1    2    0    0 -3.7963507002e-01 -2.0350406795e+00 +8.0546196938e+01 8.0592388496e+01 1.7770000000e+00 0.0000e+00 1.0000e+00
       15  1    1    2    0    0 -6.7508717333e+00 +7.8538827002e-01 +4.2625256683e+01 4.3200246992e+01 1.7770000000e+00 0.0000e+00 -1.0000e+00
</event>
<event>
 6 1 7.08916e-05 5.00203900e+02 7.54677100e-03 9.39935400e-02
      -11 -1    0    0    0    0 +0.0000000000e+00 +0.0000000000e+00 +5.0000000000e+02 5.0000000000e+02 0.0000000000e+00 0.0000e+00 -1.0000e+00
       11 -1    0    0    0    0 -0.0000000000e+00 -0.0000000000e+00 -5.0000000000e+02 5.0000000000e+02 0.0000000000e+00 0.0000e+00 -1.0000e+00
      -11  1    1    2    0    0 -3.5454895767e+00 -3.2617698440e+00 +2.6193040089e+02 2.6197470212e+02 0.0000000000e+00 0.0000e+00 -1.0000e+00
       11  1    1    2    0    0 +2.6046007492e+00 +9.0068628601e+00 -4.9970813671e+02 4.9979608783e+02 0.0000000000e+00 0.0000e+00 -1.0000e+00
      -15  1    1    2    0    0 -3.4739995920e+00 -8.3519550618e+00 +1.5478044955e+02 1.5505472943e+02 1.7770000000e+00 0.0000e+00 -1.0000e+00
       15  1    1    2    0    0 +4.4148884195e+00 +2.6068620457e+00 +8.2997286271e+01 8.3174480622e+01 1.7770000000e+00 0.0000e+00 -1.0000e+00
</event>
<event>
 6 1 7.08916e-05 5.01223600e+02 7.54677100e-03 9.39707600e-02
      -11 -1    0    0    0    0 +0.0000000000e+00 +0.0000000000e+00 +5.0000000000e+02 5.0000000000e+02 0.0000000000e+00 0.0000e+00 -1.0000e+00
       11 -1    0    0    0    0 -0.0000000000e+00 -0.0000000000e+00 -5.0000000000e+02 5.0000000000e+02 0.0000000000e+00 0.0000e+00 1.0000e+00
      -11  1    1    2    0    0 +4.0941783035e+00 -3.2555892957e+00 +3.0473654464e+02 3.0478143447e+02 0.0000000000e+00 0.0000e+00 -1.0000e+00
       11  1    1    2    0    0 -2.2206942544e+00 +1.0788013976e+01 -4.9865473498e+02 4.9877636015e+02 0.0000000000e+00 0.0000e+00 1.0000e+00
      -15  1    1    2    0    0 -8.1758820987e-01 -1.8262564365e+01 +1.5267995658e+02 1.5378074190e+02 1.7770000000e+00 0.0000e+00 -1.0000e+00
       15  1    1    2    0    0 -1.0558958392e+00 +1.0730139685e+01 +4.1238233762e+01 4.2661463483e+01 1.7770000000e+00 0.0000e+00 1.0000e+00
</event>
<event>
 6 1 7.08916e-05 5.02406600e+02 7.54677100e-03 9.39444100e-02
      -11 -1    0    0    0    0 +0.0000000000e+00 +0.0000000000e+00 +5.0000000000e+02 5.0000000000e+02 0.0000000000e+00 0.0000e+00 1.0000e+00
       11 -1    0    0    0    0 -0.0000000000e+00 -0.0000000000e+00 -5.0000000000e+02 5.0000000000e+02 0.0000000000e+00 0.0000e+00 -1.0000e+00
      -11  1    1    2    0    0 -1.1151562243e+01 +1.0356193052e+01 +4.9736066093e+02 4.9759344361e+02 0.0000000000e+00 0.0000e+00 1.0000e+00
       11  1    1    2    0    0 +2.0978813282e+00 +5.9409590011e+00 -4.0108355684e+02 4.0113303986e+02 0.0000000000e+00 0.0000e+00 -1.0000e+00
      -15  1    1    2    0    0 -5.5427978182e+00 -4.1028188141e+00 -5.8592831536e+01 5.9024006695e+01 1.7770000000e+00 0.0000e+00 -1.0000e+00
       15  1    1    2    0    0 +1.4596478733e+01 -1.2194333239e+01 -3.7684272554e+01 4.2249509837e+01 1.7770000000e+00 0.0000e+00 1.0000e+00
</event>
<event>
 6 1 7.08916e-05 5.07084400e+02 7.54677100e-03 9.38409600e-02
      -11 -1    0    0    0    0 +0.0000000000e+00 +0.0000000000e+00 +5.0000000000e+02 5.0000000000e+02 0.0000000000e+00 0.0000e+00 -1.0000e+00
       11 -1    0    0    0    0 -0.0000000000e+00 -0.0000000000e+00 -5.0000000000e+02 5.0000000000e+02 0.0000000000e+00 0.0000e+00 1.0000e+00
      -11  1    1    2    0    0 +9.1817881601e+00 -5.1100403783e+00 +4.9280356303e+02 4.9291558048e+02 0.0000000000e+00 0.0000e+00 -1.0000e+00
       11  1    1    2    0    0 +4.0457928843e+00 +7.4038491989e+00 -4.4990978616e+02 4.4998888998e+02 0.0000000000e+00 0.0000e+00 1.0000e+00
      -15  1    1    2    0    0 -6.4444339945e+00 -1.0288767428e+00 +5.1657412813e+00 8.5106949685e+00 1.7770000000e+00 0.0000e+00 -1.0000e+00
       15  1    1    2    0    0 -6.7831470499e+00 -1.2649320778e+00 -4.8059518147e+01 4.8584834574e+01 1.7770000000e+00 0.0000e+00 1.0000e+00
</event>
<event>
 6 1 7.08916e-05 5.00411000e+02 7.54677100e-03 9.39889100e-02
      -11 -1    0    0    0    0 +0.0000000000e+00 +0.0000000000e+00 +5.0000000000e+02 5.0000000000e+02 0.0000000000e+00 0.0000e+00 -1.0000e+00
       11 -1    0    0    0    0 -0.0000000000e+00 -0.0000000000e+00 -5.0000000000e+02 5.0000000000e+02 0.0000000000e+00 0.0000e+00 -1.0000e+00
      -11  1    1    2    0    0 +3.5553311810e-03 -3.2478155336e+00 +2.2173026424e+02 2.2175404934e+02 0.0000000000e+00 0.0000e+00 -1.0000e+00
       11  1    1    2    0    0 +9.7231706851e+00 -9.3302600238e-01 -4.9949350448e+02 4.9958900269e+02 0.0000000000e+00 0.0000e+00 -1.0000e+00
      -15  1    1    2    0    0 -3.9969001889e-01 +3.6098495825e+00 +2.2543243142e+02 2.2546868881e+02 1.7770000000e+00 0.0000e+00 -1.0000e+00
       15  1    1    2    0    0 -9.3270359974e+00 +5.7099195349e-01 +5.2330808820e+01 5.3188259166e+01 1.7770000000e+00 0.0000e+00 1.0000e+00
</event>
<event>
 6 1 7.08916e-05 5.02190900e+02 7.54677100e-03 9.39492100e-02
      -11 -1    0    0    0    0 +0.0000000000e+00 +0.0000000000e+00 +5.0000000000e+02 5.0000000000e+02 0.0000000000e+00 0.0000e+00 1.0000e+00
       11 -1    0    0    0    0 -0.0000000000e+00 -0.0000000000e+00 -5.0000000000e+02 5.0000000000e+02 0.0000000000e+00 0.0000e+00 -1.0000e+00
      -11  1    1    2    0    0 +1.5780864366e+00 +1.5434552344e+01 +4.9756725908e+02 4.9780909300e+02 0.0000000000e+00 0.0000e+00 1.0000e+00
       11  1    1    2    0    0 +1.4488253136e+00 -7.2693849849e+00 -4.3207919678e+02 4.3214277194e+02 0.0000000000e+00 0.0000e+00 -1.0000e+00
      -15  1    1    2    0    0 +7.0035858249e-01 -7.5947380897e+00 -6.5411909638e+01 6.5879027014e+01 1.7770000000e+00 0.0000e+00 -1.0000e+00
       15  1    1    2    0    0 -3.7272703327e+00 -5.7042926947e-01 -7.6152669053e-02 4.1691080477e+00 1.7770000000e+00 0.0000e+00 1.0000e+00
</event>
<event>
 6 1 7.08916e-05 4.90952900e+02 7.54677100e-03 9.42028400e-02
      -11 -1    0    0    0    0 +0.0000000000e+00 +0.0000000000e+00 +5.0000000000e+02 5.0000000000e+02 0.0000000000e+00 0.0000e+00 1.0000e+00
       11 -1    0    0    0    0 -0.0000000000e+00 -0.0000000000e+00 -5.0000000000e+02 5.0000000000e+02 0.0000000000e+00 0.0000e+00 -1.0000e+00
      -11  1    1    2    0    0 -1.2259019131e+00 -1.0888177918e+00 +1.8698959220e+01 1.8770706849e+01 0.0000000000e+00 0.0000e+00 1.0000e+00
       11  1    1    2    0    0 -2.5721618506e-01 -1.1287125809e+01 -4.9938323305e+02 4.9951083955e+02 0.0000000000e+00 0.0000e+00 -1.0000e+00
      -15  1    1    2    0    0 -1.2487417436e+01 +1.1971571650e+01 +2.4955082504e+02 2.5015600358e+02 1.7770000000e+00 0.0000e+00 -1.0000e+00
       15  1    1    2    0    0 +1.3970535534e+01 +4.0437195079e-01 +2.3113344880e+02 2.3156245002e+02 1.7770000000e+00 0.0000e+00 1.0000e+00
</event>
<event>
 6 1 7.08916e-05 5.65402600e+02 7.54677100e-03 9.26429600e-02
      -11 -1    0    0    0    0 +0.0000000000e+00 +0.0000000000e+00 +5.0000000000e+02 5.0000000000e+02 0.0000000000e+00 0.0000e+00 -1.0000e+00
       11 -1    0    0    0    0 -0.0000000000e+00 -0.0000000000e+00 -5.0000000000e+02 5.0000000000e+02 0.0000000000e+00 0.0000e+00 1.0000e+00
      -11  1    1    2    0    0 -3.2913488355e+01 +1.6338903555e+01 +4.3304118061e+02 4.3459742474e+02 0.0000000000e+00 0.0000e+00 -1.0000e+00
       11  1    1    2    0    0 +9.0830997096e+00 -2.9762704210e+01 -3.2633328667e+02 3.2781356783e+02 0.0000000000e+00 0.0000e+00 1.0000e+00
      -15  1    1    2    0    0 -4.6115083836e+00 +2.6413261623e+01 -1.6726665137e+02 1.6941138329e+02 1.7770000000e+00 0.0000e+00 1.0000e+00
       15  1    1    2    0    0 +2.8441897029e+01 -1.2989460968e+01 +6.0558757431e+01 6.8177624140e+01 1.7770000000e+00 0.0000e+00 -1.0000e+00
</event>
<event>
 6 1 7.08916e-05 5.06440000e+02 7.54677100e-03 9.38551400e-02
      -11 -1    0    0    0    0 +0.0000000000e+00 +0.0000000000e+00 +5.0000000000e+02 5.0000000000e+02 0.0000000000e+00 0.0000e+00 1.0000e+00
       11 -1    0    0    0    0 -0.0000000000e+00 -0.0000000000e+00 -5.0000000000e+02 5.0000000000e+02 0.0000000000e+00 0.0000e+00 1.0000e+00
      -11  1    1    2    0    0 +1.9935864741e+00 -1.5443508280e+01 +4.9331431868e+02 4.9356002000e+02 0.0000000000e+00 0.0000e+00 1.0000e+00
       11  1    1    2    0    0 +2.9190615963e+00 -5.7081152571e+00 -4.5936436850e+02 4.5940910586e+02 0.0000000000e+00 0.0000e+00 1.0000e+00
      -15  1    1    2    0    0 -4.9276885719e+00 +1.7490756131e+01 -6.6536365123e+00 1.9432891512e+01 1.7770000000e+00 0.0000e+00 1.0000e+00
       15  1    1    2    0    0 +1.5040501484e-02 +3.6608674063e+00 -2.7296313662e+01 2.7597982624e+01 1.7770000000e+00 0.0000e+00 -1.0000e+00
</event>
<event>
 6 1 7.08916e-05 5.00160200e+02 7.54677100e-03 9.39945100e-02
      -11 -1    0    0    0    0 +0.0000000000e+00 +0.0000000000e+00 +5.0000000000e+02 5.0000000000e+02 0.0000000000e+00 0.0000e+00 1.0000e+00
       11 -1    0    0    0    0 -0.0000000000e+00 -0.0000000000e+00 -5.0000000000e+02 5.0000000000e+02 0.0000000000e+00 0.0000e+00 -1.0000e+00
      -11  1    1    2    0    0 +5.6022181138e+00 +1.7583987361e+01 +4.9949901994e+02 4.9983982673e+02 0.0000000000e+00 0.0000e+00 1.0000e+00
       11  1    1    2    0    0 -5.8208190468e+00 -1.1265036498e+01 -2.0664349245e+02 2.0703216165e+02 0.0000000000e+00 0.0000e+00 -1.0000e+00
      -15  1    1    2    0    0 +3.2633295515e+00 -7.8754355345e+00 -2.1701388182e+02 2.1718852280e+02 1.7770000000e+00 0.0000e+00 -1.0000e+00
       15  1    1    2    0    0 -3.0447286186e+00 +1.5564846711e+00 -7.5841645671e+01 7.5939488831e+01 1.7770000000e+00 0.0000e+00 1.0000e+00
</event>
<event>
 6 1 7.08916e-05 5.04850300e+02 7.54677100e-03 9.38902200e-02
      -11 -1    0    0    0    0 +0.0000000000e+00 +0.0000000000e+00 +5.0000000000e+02 5.0000000000e+02 0.0000000000e+00 0.0000e+00 -1.0000e+00
       11 -1    0    0    0    0 -0.0000000000e+00 -0.0000000000e+00 -5.0000000000e+02 5.0000000000e+02 0.0000000000e+00 0.0000e+00 1.0000e+00
      -11  1    1    2    0    0 +8.6802024934e+00 +1.2563154970e+01 +4.8009557014e+02 4.8033835496e+02 0.0000000000e+00 0.0000e+00 -1.0000e+00
       11  1    1    2    0    0 +1.6391040275e+00 -9.6321732661e+00 -4.9505324533e+02 4.9514965530e+02 0.0000000000e+00 0.0000e+00 1.0000e+00
      -15  1    1    2    0    0 +3.1398159224e-02 +5.5233983576e+00 +5.8649066852e+00 8.2500772534e+00 1.7770000000e+00 0.0000e+00 -1.0000e+00
       15  1    1    2    0    0 -1.0350704680e+01 -8.4543800614e+00 +9.0927685066e+00 1.6261912486e+01 1.7770000000e+00 0.0000e+00 -1.0000e+00
</event>
<event>
 6 1 7.08916e-05 5.16424400e+02 7.54677100e-03 9.36379100e-02
      -11 -1    0    0    0    0 +0.0000000000e+00 +0.0000000000e+00 +5.0000000000e+02 5.0000000000e+02 0.0000000000e+00 0.0000e+00 -1.0000e+00
       11 -1    0    0    0    0 -0.0000000000e+00 -0.0000000000e+00 -5.0000000000e+02 5.0000000000e+02 0.0000000000e+00 0.0000e+00 -1.0000e+00
      -11  1    1    2    0    0 -3.5980947810e+00 -3.1543443685e+00 +3.4335803106e+02 3.4339137099e+02 0.0000000000e+00 0.0000e+00 -1.0000e+00
       11  1    1    2    0    0 +1.2432339082e+01 -2.7563524069e+01 -4.8262933113e+02 4.8357562199e+02 0.0000000000e+00 0.0000e+00 -1.0000e+00
      -15  1    1    2    0    0 +8.5387459143e+00 +5.8258038466e+00 -1.3595667539e+01 1.7171199058e+01 1.7770000000e+00 0.0000e+00 1.0000e+00
       15  1    1    2    0    0 -1.7372990215e+01 +2.4892064591e+01 +1.5286696761e+02 1.5586180797e+02 1.7770000000e+00 0.0000e+00 -1.0000e+00
</event>
<event>
 6 1 7.08916e-05 5.04138500e+02 7.54677100e-03 9.39059700e-02
      -11 -1    0    0    0    0 +0.0000000000e+00 +0.0000000000e+00 +5.0000000000e+02 5.0000000000e+02 0.0000000000e+00 0.0000e+00 1.0000e+00
       11 -1    0    0    0    0 -0.0000000000e+00 -0.0000000000e+00 -5.0000000000e+02 5.0000000000e+02 0.0000000000e+00 0.0000e+00 1.0000e+00
      -11  1    1    2    0    0 +1.4520206660e+00 -1.1801300002e+01 +4.9571887257e+02 4.9586145209e+02 0.0000000000e+00 0.0000e+00 1.0000e+00
       11  1    1    2    0    0 +7.9039382205e+00 +2.5297513130e+00 -4.4361043018e+02 4.4368804993e+02 0.0000000000e+00 0.0000e+00 1.0000e+00
      -15  1    1    2    0    0 -1.3360933293e+01 +3.7062879532e+00 -5.1474818570e+01 5.3339158080e+01 1.7770000000e+00 0.0000e+00 1.0000e+00
       15  1    1    2    0    0 +4.0049744068e+00 +5.5652607353e+00 -6.3362382159e-01 7.1113399018e+00 1.7770000000e+00 0.0000e+00 -1.0000e+00
</event>
<event>
 6 1 7.08916e-05 3.70471300e+02 7.54677100e-03 9.74791200e-02
      -11 -1    0    0    0    0 +0.0000000000e+00 +0.0000000000e+00 +5.0000000000e+02 5.0000000000e+02 0.0000000000e+00 0.0000e+00 1.0000e+00
       11 -1    0    0    0    0 -0.0000000000e+00 -0.0000000000e+00 -5.0000000000e+02 5.0000000000e+02 0.0000000000e+00 0.0000e+00 -1.0000e+00
      -11  1    1    2    0    0 -1.2002303061e+01 +3.9383490077e+01 +2.7783573599e+02 2.8086973985e+02 0.0000000000e+00 0.0000e+00 1.0000e+00
       11  1    1    2    0    0 +5.3607964082e-01 -3.2308584828e-01 -4.1562838869e-01 7.5134067117e-01 0.0000000000e+00 0.0000e+00 -1.0000e+00
      -15  1    1    2    0    0 +4.1667408586e+01 -5.1939419651e+01 +2.1488733506e+02 2.2497466691e+02 1.7770000000e+00 0.0000e+00 1.0000e+00
       15  1    1    2    0    0 -3.0201185165e+01 +1.2879015422e+01 -4.9230744266e+02 4.9340425257e+02 1.7770000000e+00 0.0000e+00 -1.0000e+00
</event>
<event>
 6 1 7.08916e-05 5.09021000e+02 7.54677100e-03 9.37984800e-02
      -11 -1    0    0    0    0 +0.0000000000e+00 +0.0000000000e+00 +5.0000000000e+02 5.0000000000e+02 0.0000000000e+00 0.0000e+00 1.0000e+00
       11 -1    0    0    0    0 -0.0000000000e+00 -0.0000000000e+00 -5.0000000000e+02 5.0000000000e+02 0.0000000000e+00 0.0000e+00 -1.0000e+00
      -11  1    1    2    0    0 +1.9920780737e+01 -5.8045532598e-01 +4.5224824953e+02 4.5268714763e+02 0.0000000000e+00 0.0000e+00 1.0000e+00
       11  1    1    2    0    0 -2.2016867179e+01 +2.9087839662e+00 -4.9047647035e+02 4.9097899286e+02 0.0000000000e+00 0.0000e+00 -1.0000e+00
      -15  1    1    2    0    0 +1.9167249178e+01 +5.6617651679e+00 +2.9020169454e+01 3.5281255505e+01 1.7770000000e+00 0.0000e+00 1.0000e+00
       15  1    1    2    0    0 -1.7071162736e+01 -7.9900938081e+00 +9.2080513684e+00 2.1052604001e+01 1.7770000000e+00 0.0000e+00 -1.0000e+00
</event>
<event>
 6 1 7.08916e-05 5.02270400e+02 7.54677100e-03 9.39474400e-02
      -11 -1    0    0    0    0 +0.0000000000e+00 +0.0000000000e+00 +5.0000000000e+02 5.0000000000e+02 0.0000000000e+00 0.0000e+00 1.0000e+00
       11 -1    0    0    0    0 -0.0000000000e+00 -0.0000000000e+00 -5.0000000000e+02 5.0000000000e+02 0.0000000000e+00 0.0000e+00 1.0000e+00
      -11  1    1    2    0    0 +6.0349312123e-01 +5.7078148806e+00 +4.0046415468e+02 4.0050528403e+02 0.0000000000e+00 0.0000e+00 1.0000e+00
       11  1    1    2    0    0 -2.7680453733e+01 +3.4693296733e+00 -4.9694723784e+02 4.9772964646e+02 0.0000000000e+00 0.0000e+00 1.0000e+00
      -15  1    1    2    0    0 +2.4034574208e+01 -2.5992405951e+00 +6.4018862779e+01 6.8454286422e+01 1.7770000000e+00 0.0000e+00 1.0000e+00
       15  1    1    2    0    0 +3.0423864039e+00 -6.5779039588e+00 +3.2464220389e+01 3.3310783088e+01 1.7770000000e+00 0.0000e+00 -1.0000e+00
</event>
<event>
 6 1 7.08916e-05 5.00875600e+02 7.54677100e-03 9.39785300e-02
      -11 -1    0    0    0    0 +0.0000000000e+00 +0.0000000000e+00 +5.0000000000e+02 5.0000000000e+02 0.0000000000e+00 0.0000e+00 -1.0000e+00
       11 -1    0    0    0    0 -0.0000000000e+00 -0.0000000000e+00 -5.0000000000e+02 5.0000000000e+02 0.0000000000e+00 0.0000e+00 1.0000e+00
      -11  1    1    2    0    0 +1.6937557850e+00 -7.4402877455e+00 +2.9411501041e+02 2.9421398002e+02 0.0000000000e+00 0.0000e+00 -1.0000e+00
       11  1    1    2    0    0 -3.9745717280e+00 +6.9848835845e+00 -4.9905969306e+02 4.9912439637e+02 0.0000000000e+00 0.0000e+00 1.0000e+00
      -15  1    1    2    0    0 -5.9335125909e+00 +5.2838859161e+00 +1.7495890764e+02 1.7514823183e+02 1.7770000000e+00 0.0000e+00 1.0000e+00
       15  1    1    2    0    0 +8.2143285340e+00 -4.8284817552e+00 +2.9985775003e+01 3.1513391770e+01 1.7770000000e+00 0.0000e+00 -1.0000e+00
</event>
<event>
 6 1 7.08916e-05 5.02038200e+02 7.54677100e-03 9.39526100e-02
      -11 -1    0    0    0    0 +0.0000000000e+00 +0.0000000000e+00 +5.0000000000e+02 5.0000000000e+02 0.0000000000e+00 0.0000e+00 -1.0000e+00
       11 -1    0    0    0    0 -0.0000000000e+00 -0.0000000000e+00 -5.0000000000e+02 5.0000000000e+02 0.0000000000e+00 0.0000e+00 1.0000e+00
      -11  1    1    2    0    0 -9.9110851768e-01 -4.5443491903e+00 +3.2121861486e+02 3.2125228706e+02 0.0000000000e+00 0.0000e+00 -1.0000e+00
       11  1    1    2    0    0 +7.4989049623e+00 +3.3867744962e+00 -4.9789378842e+02 4.9796177400e+02 0.0000000000e+00 0.0000e+00 1.0000e+00
      -15  1    1    2    0    0 -9.2660914916e+00 +1.4435252943e+00 +9.1296465362e+00 1.3208042689e+01 1.7770000000e+00 0.0000e+00 1.0000e+00
       15  1    1    2    0    0 +2.7582950470e+00 -2.8595060016e-01 +1.6754552702e+02 1.6757789625e+02 1.7770000000e+00 0.0000e+00 -1.0000e+00
</event>
<event>
 6 1 7.08916e-05 4.88416800e+02 7.54677100e-03 9.42610800e-02
      -11 -1    0    0    0    0 +0.0000000000e+00 +0.0000000000e+00 +5.0000000000e+02 5.0000000000e+02 0.0000000000e+00 0.0000e+00 -1.0000e+00
       11 -1    0    0    0    0 -0.0000000000e+00 -0.0000000000e+00 -5.0000000000e+02 5.0000000000e+02 0.0000000000e+00 0.0000e+00 1.0000e+00
      -11  1    1    2    0    0 -7.0212983352e+00 +1.2341111640e+01 +4.9158656478e+02 4.9179157408e+02 0.0000000000e+00 0.0000e+00 -1.0000e+00
       11  1    1    2    0    0 -9.1653436704e+00 -4.0716251528e-01 -4.8518318831e+02 4.8526992027e+02 0.0000000000e+00 0.0000e+00 1.0000e+00
      -15  1    1    2    0    0 +8.7054699333e+00 -7.3285392179e+00 -7.7397978117e+00 1.3876414991e+01 1.7770000000e+00 0.0000e+00 -1.0000e+00
       15  1    1    2    0    0 +7.4811720723e+00 -4.6054099065e+00 +1.3364213406e+00 9.0620906518e+00 1.7770000000e+00 0.0000e+00 1.0000e+00
</event>
<event>
 6 1 7.08916e-05 5.12389800e+02 7.54677100e-03 9.37250500e-02
      -11 -1    0    0    0    0 +0.0000000000e+00 +0.0000000000e+00 +5.0000000000e+02 5.0000000000e+02 0.0000000000e+00 0.0000e+00 1.0000e+00
       11 -1    0    0    0    0 -0.0000000000e+00 -0.0000000000e+00 -5.0000000000e+02 5.0000000000e+02 0.0000000000e+00 0.0000e+00 1.0000e+00
      -11  1    1    2    0    0 +1.0998472610e+01 -3.5532682706e+01 +4.4462108974e+02 4.4617423882e+02 0.0000000000e+00 0.0000e+00 1.0000e+00
       11  1    1    2    0    0 -2.9226865769e+00 -1.2107469853e+01 -4.8745106169e+02 4.8761016239e+02 0.0000000000e+00 0.0000e+00 1.0000e+00
      -15  1    1    2    0    0 +3.1281857700e+00 +5.0327680845e+00 +3.3690837356e+00 7.0443420574e+00 1.7770000000e+00 0.0000e+00 1.0000e+00
       15  1    1    2    0    0 -1.1203971804e+01 +4.2607384474e+01 +3.9460888214e+01 5.9171256735e+01 1.7770000000e+00 0.0000e+00 -1.0000e+00
</event>
<event>
 6 1 7.08916e-05 5.02009200e+02 7.54677100e-03 9.39532500e-02
      -11 -1    0    0    0    0 +0.0000000000e+00 +0.0000000000e+00 +5.0000000000e+02 5.0000000000e+02 0.0000000000e+00 0.0000e+00 1.0000e+00
       11 -1    0    0    0    0 -0.0000000000e+00 -0.0000000000e+00 -5.0000000000e+02 5.0000000000e+02 0.0000000000e+00 0.0000e+00 1.0000e+00
      -11  1    1    2    0    0 -1.8160699719e+00 -7.9629960202e+00 +4.9792385143e+02 4.9799083249e+02 0.0000000000e+00 0.0000e+00 1.0000e+00
       11  1    1    2    0    0 -1.1398356081e+01 -7.9040824674e+00 -3.6849053386e+02 3.6875150248e+02 0.0000000000e+00 0.0000e+00 1.0000e+00
      -15  1    1    2    0    0 -3.8420852565e+00 +5.9624104573e+00 -1.1189355313e+01 1.3366800623e+01 1.7770000000e+00 0.0000e+00 1.0000e+00
       15  1    1    2    0    0 +1.7056511310e+01 +9.9046680303e+00 -1.1824396226e+02 1.1989086440e+02 1.7770000000e+00 0.0000e+00 -1.0000e+00
</event>
<event>
 6 1 7.08916e-05 5.01626500e+02 7.54677100e-03 9.39617800e-02
      -11 -1    0    0    0    0 +0.0000000000e+00 +0.0000000000e+00 +5.0000000000e+02 5.0000000000e+02 0.0000000000e+00 0.0000e+00 1.0000e+00
       11 -1    0    0    0    0 -0.0000000000e+00 -0.0000000000e+00 -5.0000000000e+02 5.0000000000e+02 0.0000000000e+00 0.0000e+00 1.0000e+00
      -11  1    1    2    0    0 +3.8180197007e+01 -1.2978774057e+00 +4.9690711919e+02 4.9837345137e+02 0.0000000000e+00 0.0000e+00 1.0000e+00
       11  1    1    2    0    0 -2.1386502389e+00 -2.2226743297e+00 -2.0422705800e+02 2.0425034964e+02 0.0000000000e+00 0.0000e+00 1.0000e+00
      -15  1    1    2    0    0 -3.3317478677e+01 -8.0429413900e+00 -2.6484928792e+02 2.6706374957e+02 1.7770000000e+00 0.0000e+00 1.0000e+00
       15  1    1    2    0    0 -2.7240680915e+00 +1.1563493125e+01 -2.7830773264e+01 3.0312449418e+01 1.7770000000e+00 0.0000e+00 -1.0000e+00
</event>
<event>
 6 1 7.08916e-05 5.01294800e+02 7.54677100e-03 9.39691700e-02
      -11 -1    0    0    0    0 +0.0000000000e+00 +0.0000000000e+00 +5.0000000000e+02 5.0000000000e+02 0.0000000000e+00 0.0000e+00 -1.0000e+00
       11 -1    0    0    0    0 -0.0000000000e+00 -0.0000000000e+00 -5.0000000000e+02 5.0000000000e+02 0.0000000000e+00 0.0000e+00 -1.0000e+00
      -11  1    1    2    0    0 -4.2585991562e+00 -6.6676560252e+00 +4.8210078642e+02 4.8216569929e+02 0.0000000000e+00 0.0000e+00 -1.0000e+00
       11  1    1    2    0    0 +6.4648136818e+00 +3.9693055419e+00 -4.9864752144e+02 4.9870522339e+02 0.0000000000e+00 0.0000e+00 -1.0000e+00
      -15  1    1    2    0    0 -5.4583785198e-01 +4.8075619693e+00 +1.4307499827e+01 1.5207658312e+01 1.7770000000e+00 0.0000e+00 -1.0000e+00
       15  1    1    2    0    0 -1.6603766735e+00 -2.1092114860e+00 +2.2392351949e+00 3.9214190096e+00 1.7770000000e+00 0.0000e+00 1.0000e+00
</event>
<event>
 6 1 7.08916e-05 5.03964900e+02 7.54677100e-03 9.39098100e-02
      -11 -1    0    0    0    0 +0.0000000000e+00 +0.0000000000e+00 +5.0000000000e+02 5.0000000000e+02 0.0000000000e+00 0.0000e+00 -1.0000e+00
       11 -1    0    0    0    0 -0.0000000000e+00 -0.0000000000e+00 -5.0000000000e+02 5.0000000000e+02 0.0000000000e+00 0.0000e+00 1.0000e+00
      -11  1    1    2    0    0 +9.9684802394e+00 -6.7034711326e+00 +4.9588963177e+02 4.9603511369e+02 0.0000000000e+00 0.0000e+00 -1.0000e+00
       11  1    1    2    0    0 -4.5135518316e+00 -5.1959443978e+00 -4.8180969646e+02 4.8185885235e+02 0.0000000000e+00 0.0000e+00 1.0000e+00
      -15  1    1    2    0    0 -8.0274774388e+00 +1.0176801005e+01 -8.9311287790e+00 1.5840784797e+01 1.7770000000e+00 0.0000e+00 -1.0000e+00
       15  1    1    2    0    0 +2.5725490310e+00 +1.7226145257e+00 -5.1488065315e+00 6.2652491586e+00 1.7770000000e+00 0.0000e+00 1.0000e+00
</event>
<event>
 7 1 7.08916e-05 5.29781800e+02 7.54677100e-03 9.33553000e-02
      -11 -1    0    0    0    0 +0.0000000000e+00 +0.0000000000e+00 +5.0000000000e+02 5.0000000000e+02 0.0000000000e+00 0.0000e+00 1.0000e+00
       11 -1    0    0    0    0 -0.0000000000e+00 -0.0000000000e+00 -5.0000000000e+02 5.0000000000e+02 0.0000000000e+00 0.0000e+00 -1.0000e+00
       23  2    1    2    0    0 -2.3546771911e+02 -3.8222067283e+01 +2.2561053797e+02 3.4018695579e+02 8.9000431876e+01 0.0000e+00 0.0000e+00
      -11  1    1    2    0    0 -1.4673148668e+00 -1.1552450239e+02 +1.5032682795e+02 1.8959488091e+02 0.0000000000e+00 0.0000e+00 1.0000e+00
       11  1    1    2    0    0 +2.3693503398e+02 +1.5374656967e+02 -3.7593736591e+02 4.7021816331e+02 0.0000000000e+00 0.0000e+00 -1.0000e+00
      -15  1    3    3    0    0 -6.7126890706e+01 -3.1166325871e+01 +1.2101916598e+02 1.4186668244e+02 1.7770000000e+00 0.0000e+00 -1.0000e+00
       15  1    3    3    0    0 -1.6834082841e+02 -7.0557414115e+00 +1.0459137199e+02 1.9832027334e+02 1.7770000000e+00 0.0000e+00 1.0000e+00
</event>
<event>
 6 1 7.08916e-05 5.14877200e+02 7.54677100e-03 9.36712300e-02
      -11 -1    0    0    0    0 +0.0000000000e+00 +0.0000000000e+00 +5.0000000000e+02 5.0000000000e+02 0.0000000000e+00 0.0000e+00 -1.0000e+00
       11 -1    0    0    0    0 -0.0000000000e+00 -0.0000000000e+00 -5.0000000000e+02 5.0000000000e+02 0.0000000000e+00 0.0000e+00 1.0000e+00
      -11  1    1    2    0    0 -7.3734929564e+00 -6.5460683462e+00 +3.4294876994e+02 3.4309048108e+02 0.0000000000e+00 0.0000e+00 -1.0000e+00
       11  1    1    2    0    0 -1.0475159418e+01 +3.8527707995e+00 -4.8499442474e+02 4.8512283479e+02 0.0000000000e+00 0.0000e+00 1.0000e+00
      -15  1    1    2    0    0 +2.4755942589e+01 -7.0593602385e+00 -3.2336055664e+00 2.6005868461e+01 1.7770000000e+00 0.0000e+00 -1.0000e+00
       15  1    1    2    0    0 -6.9072902144e+00 +9.7526577852e+00 +1.4527926037e+02 1.4578081566e+02 1.7770000000e+00 0.0000e+00 1.0000e+00
</event>
<event>
 6 1 7.08916e-05 5.08479300e+02 7.54677100e-03 9.38103400e-02
      -11 -1    0    0    0    0 +0.0000000000e+00 +0.0000000000e+00 +5.0000000000e+02 5.0000000000e+02 0.0000000000e+00 0.0000e+00 1.0000e+00
       11 -1    0    0    0    0 -0.0000000000e+00 -0.0000000000e+00 -5.0000000000e+02 5.0000000000e+02 0.0000000000e+00 0.0000e+00 -1.0000e+00
      -11  1    1    2    0    0 -1.6621269394e+01 +9.6976113297e+00 +4.9114388967e+02 4.9152073264e+02 0.0000000000e+00 0.0000e+00 1.0000e+00
       11  1    1    2    0    0 +7.1533656657e-01 +2.5880559111e+01 -3.1840246964e+02 3.1945335766e+02 0.0000000000e+00 0.0000e+00 -1.0000e+00
      -15  1    1    2    0    0 -2.1638637678e+01 -2.9042695139e+01 -6.1144890804e+01 7.1088425091e+01 1.7770000000e+00 0.0000e+00 1.0000e+00
       15  1    1    2    0    0 +3.7544570505e+01 -6.5354753021e+00 -1.1159652922e+02 1.1793748461e+02 1.7770000000e+00 0.0000e+00 -1.0000e+00
</event>
<event>
 6 1 7.08916e-05 5.00293000e+02 7.54677100e-03 9.39915400e-02
      -11 -1    0    0    0    0 +0.0000000000e+00 +0.0000000000e+00 +5.0000000000e+02 5.0000000000e+02 0.0000000000e+00 0.0000e+00 1.0000e+00
       11 -1    0    0    0    0 -0.0000000000e+00 -0.0000000000e+00 -5.0000000000e+02 5.0000000000e+02 0.0000000000e+00 0.0000e+00 1.0000e+00
      -11  1    1    2    0    0 +3.4350870675e+00 -2.3261607614e+01 +4.9915349086e+02 4.9970702381e+02 0.0000000000e+00 0.0000e+00 1.0000e+00
       11  1    1    2    0    0 -1.1210859319e+01 +6.3782431905e+00 -1.9432553219e+02 1.9475312017e+02 0.0000000000e+00 0.0000e+00 1.0000e+00
      -15  1    1    2    0    0 +2.6065897134e+00 +6.5907355152e+00 -6.1425838625e+01 6.1858899799e+01 1.7770000000e+00 0.0000e+00 -1.0000e+00
       15  1    1    2    0    0 +5.1691825383e+00 +1.0292628909e+01 -2.4340212004e+02 2.4368095622e+02 1.7770000000e+00 0.0000e+00 1.0000e+00
</event>
<event>
 6 1 7.08916e-05 4.21048200e+02 7.54677100e-03 9.59617600e-02
      -11 -1    0    0    0    0 +0.0000000000e+00 +0.0000000000e+00 +5.0000000000e+02 5.0000000000e+02 0.0000000000e+00 0.0000e+00 -1.0000e+00
       11 -1    0    0    0    0 -0.0000000000e+00 -0.0000000000e+00 -5.0000000000e+02 5.0000000000e+02 0.0000000000e+00 0.0000e+00 1.0000e+00
      -11  1    1    2    0    0 +2.0917689933e+01 +1.2945468033e+01 +4.3352028655e+02 4.3421765711e+02 0.0000000000e+00 0.0000e+00 -1.0000e+00
       11  1    1    2    0    0 +1.7019639253e+01 +4.6578452150e+01 -4.0820961587e+02 4.1121078636e+02 0.0000000000e+00 0.0000e+00 1.0000e+00
      -15  1    1    2    0    0 -4.1885789879e+01 -8.0697158564e+01 -6.3345715645e+01 1.1082548540e+02 1.7770000000e+00 0.0000e+00 -1.0000e+00
       15  1    1    2    0    0 +3.9484606927e+00 +2.1173238380e+01 +3.8035044963e+01 4.3746071134e+01 1.7770000000e+00 0.0000e+00 1.0000e+00
</event>
<event>
 6 1 7.08916e-05 5.00236200e+02 7.54677100e-03 9.39928100e-02
      -11 -1    0    0    0    0 +0.0000000000e+00 +0.0000000000e+00 +5.0000000000e+02 5.0000000000e+02 0.0000000000e+00 0.0000e+00 -1.0000e+00
       11 -1    0    0    0    0 -0.0000000000e+00 -0.0000000000e+00 -5.0000000000e+02 5.0000000000e+02 0.0000000000e+00 0.0000e+00 -1.0000e+00
      -11  1    1    2    0    0 +2.2547331872e-02 +8.2800198706e-01 +3.3806601979e+00 3.4806549738e+00 0.0000000000e+00 0.0000e+00 -1.0000e+00
       11  1    1    2    0    0 -5.3784928564e+00 +4.6711669070e+00 -4.9971304301e+02 4.9976381756e+02 0.0000000000e+00 0.0000e+00 -1.0000e+00
      -15  1    1    2    0    0 +5.6712059874e+00 -4.8207739870e+00 +4.9140180004e+02 4.9146138124e+02 1.7770000000e+00 0.0000e+00 -1.0000e+00
       15  1    1    2    0    0 -3.1526046290e-01 -6.7839490715e-01 +4.9305827755e+00 5.2941462310e+00 1.7770000000e+00 0.0000e+00 -1.0000e+00
</event>
<event>
 6 1 7.08916e-05 5.23225800e+02 7.54677100e-03 9.34928900e-02
      -11 -1    0    0    0    0 +0.0000000000e+00 +0.0000000000e+00 +5.0000000000e+02 5.0000000000e+02 0.0000000000e+00 0.0000e+00 1.0000e+00
       11 -1    0    0    0    0 -0.0000000000e+00 -0.0000000000e+00 -5.0000000000e+02 5.0000000000e+02 0.0000000000e+00 0.0000e+00 1.0000e+00
      -11  1    1    2    0    0 +1.9495369614e+00 -1.0020964637e+01 +4.7666486323e+02 4.7677417324e+02 0.0000000000e+00 0.0000e+00 1.0000e+00
       11  1    1    2    0    0 +2.1715585897e+00 -1.3866494187e+00 -1.6785876682e+02 1.6787853961e+02 0.0000000000e+00 0.0000e+00 1.0000e+00
      -15  1    1    2    0    0 +3.5471330237e+01 +2.4167647714e+01 -3.1071226917e+02 3.1366791740e+02 1.7770000000e+00 0.0000e+00 1.0000e+00
       15  1    1    2    0    0 -3.9592425788e+01 -1.2760033659e+01 +1.9061727602e+00 4.1679369745e+01 1.7770000000e+00 0.0000e+00 -1.0000e+00
</event>
<event>
 6 1 7.08916e-05 5.15966600e+02 7.54677100e-03 9.36477500e-02
      -11 -1    0    0    0    0 +0.0000000000e+00 +0.0000000000e+00 +5.0000000000e+02 5.0000000000e+02 0.0000000000e+00 0.0000e+00 -1.0000e+00
       11 -1    0    0    0    0 -0.0000000000e+00 -0.0000000000e+00 -5.0000000000e+02 5.0000000000e+02 0.0000000000e+00 0.0000e+00 -1.0000e+00
      -11  1    1    2    0    0 +5.1671413005e-02 +1.1634978264e+01 +4.8389349017e+02 4.8403335134e+02 0.0000000000e+00 0.0000e+00 -1.0000e+00
       11  1    1    2    0    0 -7.5761151599e+00 -8.0937161844e+00 -4.7859223889e+02 4.7872062509e+02 0.0000000000e+00 0.0000e+00 -1.0000e+00
      -15  1    1    2    0    0 +4.9395795215e+00 +7.9363840732e+00 -1.7678768388e+01 2.0076907599e+01 1.7770000000e+00 0.0000e+00 -1.0000e+00
       15  1    1    2    0    0 +2.5848642254e+00 -1.1477646153e+01 +1.2377517111e+01 1.7169115967e+01 1.7770000000e+00 0.0000e+00 1.0000e+00
</event>
<event>
 6 1 7.08916e-05 5.05078100e+02 7.54677100e-03 9.38851800e-02
      -11 -1    0    0    0    0 +0.0000000000e+00 +0.0000000000e+00 +5.0000000000e+02 5.0000000000e+02 0.0000000000e+00 0.0000e+00 1.0000e+00
       11 -1    0    0    0    0 -0.0000000000e+00 -0.0000000000e+00 -5.0000000000e+02 5.0000000000e+02 0.0000000000e+00 0.0000e+00 1.0000e+00
      -11  1    1    2    0    0 +7.0301873878e+00 -2.2625490344e+01 +4.9435452666e+02 4.9492194776e+02 0.0000000000e+00 0.0000e+00 1.0000e+00
       11  1    1    2    0    0 -5.8438016143e+00 +3.8435190221e+00 -3.4107664200e+02 3.4114835245e+02 0.0000000000e+00 0.0000e+00 1.0000e+00
      -15  1    1    2    0    0 -2.7860996345e+01 +1.2412597789e+01 -7.6050969482e+01 8.1958619982e+01 1.7770000000e+00 0.0000e+00 1.0000e+00
       15  1    1    2    0    0 +2.6674610572e+01 +6.3693735322e+00 -7.7226915175e+01 8.1971079807e+01 1.7770000000e+00 0.0000e+00 -1.0000e+00
</event>
<event>
 6 1 7.08916e-05 4.74507100e+02 7.54677100e-03 9.45873100e-02
      -11 -1    0    0    0    0 +0.0000000000e+00 +0.0000000000e+00 +5.0000000000e+02 5.0000000000e+02 0.0000000000e+00 0.0000e+00 -1.0000e+00
       11 -1    0    0    0    0 -0.0000000000e+00 -0.0000000000e+00 -5.0000000000e+02 5.0000000000e+02 0.0000000000e+00 0.0000e+00 1.0000e+00
      -11  1    1    2    0    0 -6.2667225282e+00 -5.4179658261e+00 +4.7543245297e+02 4.7550461986e+02 0.0000000000e+00 0.0000e+00 -1.0000e+00
       11  1    1    2    0    0 -3.1320011856e+00 +9.6603543113e+00 -4.7345875365e+02 4.7356765439e+02 0.0000000000e+00 0.0000e+00 1.0000e+00
      -15  1    1    2    0    0 +1.1986353725e+01 -3.4985612788e+00 +2.2740507047e+01 2.6003865028e+01 1.7770000000e+00 0.0000e+00 1.0000e+00
       15  1    1    2    0    0 -2.5876300111e+00 -7.4382720634e-01 -2.4714206367e+01 2.4923860723e+01 1.7770000000e+00 0.0000e+00 -1.0000e+00
</event>
<event>
 6 1 7.08916e-05 5.22561300e+02 7.54677100e-03 9.35069600e-02
      -11 -1    0    0    0    0 +0.0000000000e+00 +0.0000000000e+00 +5.0000000000e+02 5.0000000000e+02 0.0000000000e+00 0.0000e+00 1.0000e+00
       11 -1    0    0    0    0 -0.0000000000e+00 -0.0000000000e+00 -5.0000000000e+02 5.0000000000e+02 0.0000000000e+00 0.0000e+00 -1.0000e+00
      -11  1    1    2    0    0 -9.0183471592e+00 -7.9536224836e+00 +4.5308238923e+02 4.5324192450e+02 0.0000000000e+00 0.0000e+00 1.0000e+00
       11  1    1    2    0    0 +9.8363603823e+00 +5.2642016899e+00 -4.7730831000e+02 4.7743867522e+02 0.0000000000e+00 0.0000e+00 -1.0000e+00
      -15  1    1    2    0    0 +1.3120284927e+01 +2.0018373494e+01 +3.6630442636e+01 4.3792969876e+01 1.7770000000e+00 0.0000e+00 1.0000e+00
       15  1    1    2    0    0 -1.3938298150e+01 -1.7328952700e+01 -1.2404521871e+01 2.5526430398e+01 1.7770000000e+00 0.0000e+00 -1.0000e+00
</event>
<event>
 6 1 7.08916e-05 5.11251800e+02 7.54677100e-03 9.37497900e-02
      -11 -1    0    0    0    0 +0.0000000000e+00 +0.0000000000e+00 +5.0000000000e+02 5.0000000000e+02 0.0000000000e+00 0.0000e+00 -1.0000e+00
       11 -1    0    0    0    0 -0.0000000000e+00 -0.0000000000e+00 -5.0000000000e+02 5.0000000000e+02 0.0000000000e+00 0.0000e+00 1.0000e+00
      -11  1    1    2    0    0 +4.9585338369e+00 +3.0205919885e+01 +3.9476299750e+02 3.9594798756e+02 0.0000000000e+00 0.0000e+00 -1.0000e+00
       11  1    1    2    0    0 -1.6969234228e+01 -6.0078692313e+00 -4.8841657470e+02 4.8874819677e+02 0.0000000000e+00 0.0000e+00 1.0000e+00
      -15  1    1    2    0    0 +9.5532273902e+00 -3.2538788230e+00 -7.0255930292e+00 1.2424514774e+01 1.7770000000e+00 0.0000e+00 -1.0000e+00
       15  1    1    2    0    0 +2.4574730013e+00 -2.0944171831e+01 +1.0067917022e+02 1.0287930090e+02 1.7770000000e+00 0.0000e+00 1.0000e+00
</event>
<event>
 6 1 7.08916e-05 5.08207000e+02 7.54677100e-03 9.38163100e-02
      -11 -1    0    0    0    0 +0.0000000000e+00 +0.0000000000e+00 +5.0000000000e+02 5.0000000000e+02 0.0000000000e+00 0.0000e+00 -1.0000e+00
       11 -1    0    0    0    0 -0.0000000000e+00 -0.0000000000e+00 -5.0000000000e+02 5.0000000000e+02 0.0000000000e+00 0.0000e+00 -1.0000e+00
      -11  1    1    2    0    0 +3.4394247413e+00 +9.1493527384e+00 +4.9169585388e+02 4.9179299815e+02 0.0000000000e+00 0.0000e+00 -1.0000e+00
       11  1    1    2    0    0 +1.1433147092e+01 -1.1282170136e+01 -3.7099272932e+02 3.7134028791e+02 0.0000000000e+00 0.0000e+00 -1.0000e+00
      -15  1    1    2    0    0 +4.8405919616e+00 -1.6541491192e+01 -5.0387046921e+00 1.8044349126e+01 1.7770000000e+00 0.0000e+00 -1.0000e+00
       15  1    1    2    0    0 -1.9713163795e+01 +1.8674308589e+01 -1.1566441987e+02 1.1882236482e+02 1.7770000000e+00 0.0000e+00 1.0000e+00
</event>
<event>
 6 1 7.08916e-05 4.47970200e+02 7.54677100e-03 9.52440300e-02
      -11 -1    0    0    0    0 +0.0000000000e+00 +0.0000000000e+00 +5.0000000000e+02 5.0000000000e+02 0.0000000000e+00 0.0000e+00 1.0000e+00
       11 -1    0    0    0    0 -0.0000000000e+00 -0.0000000000e+00 -5.0000000000e+02 5.0000000000e+02 0.0000000000e+00 0.0000e+00 -1.0000e+00
      -11  1    1    2    0    0 +1.5624250181e+01 +7.7110361486e+00 +4.5664932042e+02 4.5698159604e+02 0.0000000000e+00 0.0000e+00 1.0000e+00
       11  1    1    2    0    0 -5.7631847001e+00 +8.3245513061e+01 -4.3594172323e+02 4.4385607555e+02 0.0000000000e+00 0.0000e+00 -1.0000e+00
      -15  1    1    2    0    0 -1.9374223856e+01 -6.1888030379e+01 -5.9216299316e+00 6.5143781624e+01 1.7770000000e+00 0.0000e+00 -1.0000e+00
       15  1    1    2    0    0 +9.5131583754e+00 -2.9068518831e+01 -1.4785967259e+01 3.4018546795e+01 1.7770000000e+00 0.0000e+00 1.0000e+00
</event>
<event>
 6 1 7.08916e-05 4.93181700e+02 7.54677100e-03 9.41519700e-02
      -11 -1    0    0    0    0 +0.0000000000e+00 +0.0000000000e+00 +5.0000000000e+02 5.0000000000e+02 0.0000000000e+00 0.0000e+00 1.0000e+00
       11 -1    0    0    0    0 -0.0000000000e+00 -0.0000000000e+00 -5.0000000000e+02 5.0000000000e+02 0.0000000000e+00 0.0000e+00 -1.0000e+00
      -11  1    1    2    0    0 -2.8053352942e+00 -6.5215970814e+00 +4.9551122643e+02 4.9556208153e+02 0.0000000000e+00 0.0000e+00 1.0000e+00
       11  1    1    2    0    0 -8.3926798161e+00 +1.0096463473e+01 -4.9070742835e+02 4.9088303687e+02 0.0000000000e+00 0.0000e+00 -1.0000e+00
      -15  1    1    2    0    0 +8.5728067002e+00 -1.5294359631e+00 -3.0706171794e+00 9.4031169272e+00 1.7770000000e+00 0.0000e+00 -1.0000e+00
       15  1    1    2    0    0 +2.6252084101e+00 -2.0454304288e+00 -1.7331809063e+00 4.1517646717e+00 1.7770000000e+00 0.0000e+00 1.0000e+00
</event>
<event>
 6 1 7.08916e-05 5.00097000e+02 7.54677100e-03 9.39959300e-02
      -11 -1    0    0    0    0 +0.0000000000e+00 +0.0000000000e+00 +5.0000000000e+02 5.0000000000e+02 0.0000000000e+00 0.0000e+00 -1.0000e+00
       11 -1    0    0    0    0 -0.0000000000e+00 -0.0000000000e+00 -5.0000000000e+02 5.0000000000e+02 0.0000000000e+00 0.0000e+00 1.0000e+00
      -11  1    1    2    0    0 +4.4546223946e+00 -3.1141835513e+00 +2.1349134546e+02 2.1356052160e+02 0.0000000000e+00 0.0000e+00 -1.0000e+00
       11  1    1    2    0    0 -9.4629451109e+00 +5.2320817487e+00 -4.9978609071e+02 4.9990304907e+02 0.0000000000e+00 0.0000e+00 1.0000e+00
      -15  1    1    2    0    0 +7.6586023466e-01 -5.5906764726e+00 +1.6235903640e+02 1.6246678625e+02 1.7770000000e+00 0.0000e+00 -1.0000e+00
       15  1    1    2    0    0 +4.2424624817e+00 +3.4727782752e+00 +1.2393570885e+02 1.2406964308e+02 1.7770000000e+00 0.0000e+00 1.0000e+00
</event>
<event>
 6 1 7.08916e-05 5.03234000e+02 7.54677100e-03 9.39260200e-02
      -11 -1    0    0    0    0 +0.0000000000e+00 +0.0000000000e+00 +5.0000000000e+02 5.0000000000e+02 0.0000000000e+00 0.0000e+00 1.0000e+00
       11 -1    0    0    0    0 -0.0000000000e+00 -0.0000000000e+00 -5.0000000000e+02 5.0000000000e+02 0.0000000000e+00 0.0000e+00 -1.0000e+00
      -11  1    1    2    0    0 -1.2407217751e+01 +1.7808832462e+00 +4.6283142463e+02 4.6300112119e+02 0.0000000000e+00 0.0000e+00 1.0000e+00
       11  1    1    2    0    0 +8.0594980538e+00 -7.5562902086e+00 -4.9664311279e+02 4.9676597560e+02 0.0000000000e+00 0.0000e+00 -1.0000e+00
      -15  1    1    2    0    0 +9.8600424370e+00 -3.4144068930e+00 +2.0322086659e+01 2.2913392295e+01 1.7770000000e+00 0.0000e+00 1.0000e+00
       15  1    1    2    0    0 -5.5123227395e+00 +9.1898138554e+00 +1.3489601499e+01 1.7319510913e+01 1.7770000000e+00 0.0000e+00 -1.0000e+00
</event>
<event>
 6 1 7.08916e-05 5.00798400e+02 7.54677100e-03 9.39802500e-02
      -11 -1    0    0    0    0 +0.0000000000e+00 +0.0000000000e+00 +5.0000000000e+02 5.0000000000e+02 0.0000000000e+00 0.0000e+00 -1.0000e+00
       11 -1    0    0    0    0 -0.0000000000e+00 -0.0000000000e+00 -5.0000000000e+02 5.0000000000e+02 0.0000000000e+00 0.0000e+00 -1.0000e+00
      -11  1    1    2    0    0 -2.1617553259e+00 -4.7830396243e+00 +3.3758709957e+02 3.3762790235e+02 0.0000000000e+00 0.0000e+00 -1.0000e+00
       11  1    1    2    0    0 -1.0574654444e+01 +4.5113660823e+00 -4.9906921572e+02 4.9920162041e+02 0.0000000000e+00 0.0000e+00 -1.0000e+00
      -15  1    1    2    0    0 +1.4857421147e+01 -5.7144440600e+00 +9.2767539441e+01 9.4140171749e+01 1.7770000000e+00 0.0000e+00 -1.0000e+00
       15  1    1    2    0    0 -2.1210113775e+00 +5.9861176019e+00 +6.8714576716e+01 6.9030305486e+01 1.7770000000e+00 0.0000e+00 1.0000e+00
</event>
<event>
 6 1 7.08916e-05 5.01777700e+02 7.54677100e-03 9.39584100e-02
      -11 -1    0    0    0    0 +0.0000000000e+00 +0.0000000000e+00 +5.0000000000e+02 5.0000000000e+02 0.0000000000e+00 0.0000e+00 -1.0000e+00
       11 -1    0    0    0    0 -0.0000000000e+00 -0.0000000000e+00 -5.0000000000e+02 5.0000000000e+02 0.0000000000e+00 0.0000e+00 -1.0000e+00
      -11  1    1    2    0    0 +2.0814572091e+00 -1.3867170193e+00 +1.0270553297e+02 1.0273598178e+02 0.0000000000e+00 0.0000e+00 -1.0000e+00
       11  1    1    2    0    0 -1.1088031468e+01 +5.2115587395e+00 -4.9807164944e+02 4.9822231259e+02 0.0000000000e+00 0.0000e+00 -1.0000e+00
      -15  1    1    2    0    0 +1.4973715898e+01 +7.1473960072e+00 +3.8599035561e+01 4.2051643401e+01 1.7770000000e+00 0.0000e+00 1.0000e+00
       15  1    1    2    0    0 -5.9671416394e+00 -1.0972237727e+01 +3.5676708091e+02 3.5699006223e+02 1.7770000000e+00 0.0000e+00 -1.0000e+00
</event>
<event>
 6 1 7.08916e-05 5.07449200e+02 7.54677100e-03 9.38329400e-02
      -11 -1    0    0    0    0 +0.0000000000e+00 +0.0000000000e+00 +5.0000000000e+02 5.0000000000e+02 0.0000000000e+00 0.0000e+00 1.0000e+00
       11 -1    0    0    0    0 -0.0000000000e+00 -0.0000000000e+00 -5.0000000000e+02 5.0000000000e+02 0.0000000000e+00 0.0000e+00 -1.0000e+00
      -11  1    1    2    0    0 +1.1749904471e+01 +1.5183256155e+01 +4.9217646993e+02 4.9255077817e+02 0.0000000000e+00 0.0000e+00 1.0000e+00
       11  1    1    2    0    0 +6.0784056833e+00 +1.2539105678e+01 -3.3436113794e+02 3.3465138092e+02 0.0000000000e+00 0.0000e+00 -1.0000e+00
      -15  1    1    2    0    0 -1.3657882372e+01 -2.2471436787e+01 -1.6041397966e+01 3.0854293054e+01 1.7770000000e+00 0.0000e+00 1.0000e+00
       15  1    1    2    0    0 -4.1704277828e+00 -5.2509250464e+00 -1.4177393403e+02 1.4194354786e+02 1.7770000000e+00 0.0000e+00 -1.0000e+00
</event>
<event>
 6 1 7.08916e-05 4.66233600e+02 7.54677100e-03 9.47870500e-02
      -11 -1    0    0    0    0 +0.0000000000e+00 +0.0000000000e+00 +5.0000000000e+02 5.0000000000e+02 0.0000000000e+00 0.0000e+00 1.0000e+00
       11 -1    0    0    0    0 -0.0000000000e+00 -0.0000000000e+00 -5.0000000000e+02 5.0000000000e+02 0.0000000000e+00 0.0000e+00 1.0000e+00
      -11  1    1    2    0    0 -3.0595243665e+01 -2.2927047018e+01 +4.7535643762e+02 4.7689145642e+02 0.0000000000e+00 0.0000e+00 1.0000e+00
       11  1    1    2    0    0 -6.5992859690e+00 -2.5863673364e+00 -4.5679547026e+02 4.5685045860e+02 0.0000000000e+00 0.0000e+00 1.0000e+00
      -15  1    1    2    0    0 +2.8685665617e+00 -1.6836395913e-01 -2.2885938870e+01 2.3133978203e+01 1.7770000000e+00 0.0000e+00 -1.0000e+00
       15  1    1    2    0    0 +3.4325963073e+01 +2.5681778314e+01 +4.3249715146e+00 4.3124106783e+01 1.7770000000e+00 0.0000e+00 1.0000e+00
</event>
<event>
 6 1 7.08916e-05 5.00113400e+02 7.54677100e-03 9.39955600e-02
      -11 -1    0    0    0    0 +0.0000000000e+00 +0.0000000000e+00 +5.0000000000e+02 5.0000000000e+02 0.0000000000e+00 0.0000e+00 -1.0000e+00
       11 -1    0    0    0    0 -0.0000000000e+00 -0.0000000000e+00 -5.0000000000e+02 5.0000000000e+02 0.0000000000e+00 0.0000e+00 -1.0000e+00
      -11  1    1    2    0    0 -3.5309282157e+00 +1.3209889366e+01 +2.0586575276e+02 2.0631935632e+02 0.0000000000e+00 0.0000e+00 -1.0000e+00
       11  1    1    2    0    0 +8.8834993516e+00 -1.7509114443e+01 -4.9950083008e+02 4.9988655203e+02 0.0000000000e+00 0.0000e+00 -1.0000e+00
      -15  1    1    2    0    0 -1.8814419928e+00 +2.1793357795e+00 +4.8076168984e+01 4.8195073209e+01 1.7770000000e+00 0.0000e+00 -1.0000e+00
       15  1    1    2    0    0 -3.4711291431e+00 +2.1198892970e+00 +2.4555890834e+02 2.4559901844e+02 1.7770000000e+00 0.0000e+00 -1.0000e+00
</event>
<event>
 6 1 7.08916e-05 5.00912800e+02 7.54677100e-03 9.39777000e-02
      -11 -1    0    0    0    0 +0.0000000000e+00 +0.0000000000e+00 +5.0000000000e+02 5.0000000000e+02 0.0000000000e+00 0.0000e+00 1.0000e+00
       11 -1    0    0    0    0 -0.0000000000e+00 -0.0000000000e+00 -5.0000000000e+02 5.0000000000e+02 0.0000000000e+00 0.0000e+00 1.0000e+00
      -11  1    1    2    0    0 +1.8161351486e+01 -1.4211766108e+01 +4.9855413085e+02 4.9908719716e+02 0.0000000000e+00 0.0000e+00 1.0000e+00
       11  1    1    2    0    0 +1.9304658891e+00 +7.8268790720e-01 -1.3985444561e+02 1.3986995837e+02 0.0000000000e+00 0.0000e+00 1.0000e+00
      -15  1    1    2    0    0 +1.3853346071e+00 +4.8141092820e+00 -2.4196589545e+02 2.4202426963e+02 1.7770000000e+00 0.0000e+00 -1.0000e+00
       15  1    1    2    0    0 -2.1477151982e+01 +8.6149689189e+00 -1.1673378979e+02 1.1901857483e+02 1.7770000000e+00 0.0000e+00 1.0000e+00
</event>
<event>
 6 1 7.08916e-05 5.09366700e+02 7.54677100e-03 9.37909200e-02
      -11 -1    0    0    0    0 +0.0000000000e+00 +0.0000000000e+00 +5.0000000000e+02 5.0000000000e+02 0.0000000000e+00 0.0000e+00 -1.0000e+00
       11 -1    0    0    0    0 -0.0000000000e+00 -0.0000000000e+00 -5.0000000000e+02 5.0000000000e+02 0.0000000000e+00 0.0000e+00 1.0000e+00
      -11  1    1    2    0    0 -1.0824598690e+01 +3.1610794240e+00 +4.9050372448e+02 4.9063333365e+02 0.0000000000e+00 0.0000e+00 -1.0000e+00
       11  1    1    2    0    0 -1.2389368134e+01 -4.9354311441e+00 -3.7118748895e+02 3.7142698727e+02 0.0000000000e+00 0.0000e+00 1.0000e+00
      -15  1    1    2    0    0 +1.4216544046e+01 -2.6249971492e+00 -1.2529640207e+02 1.2614018723e+02 1.7770000000e+00 0.0000e+00 -1.0000e+00
       15  1    1    2    0    0 +8.9974227774e+00 +4.3993488692e+00 +5.9801665304e+00 1.1799491847e+01 1.7770000000e+00 0.0000e+00 1.0000e+00
</event>
<event>
 6 1 7.08916e-05 5.04199300e+02 7.54677100e-03 9.39046200e-02
      -11 -1    0    0    0    0 +0.0000000000e+00 +0.0000000000e+00 +5.0000000000e+02 5.0000000000e+02 0.0000000000e+00 0.0000e+00 -1.0000e+00
       11 -1    0    0    0    0 -0.0000000000e+00 -0.0000000000e+00 -5.0000000000e+02 5.0000000000e+02 0.0000000000e+00 0.0000e+00 1.0000e+00
      -11  1    1    2    0    0 +7.6576440758e+01 +8.0893649482e+01 +4.8312586105e+02 4.9580069728e+02 0.0000000000e+00 0.0000e+00 -1.0000e+00
       11  1    1    2    0    0 -1.3180792716e+00 +2.1022847399e-01 -7.2298807376e+01 7.2311126924e+01 0.0000000000e+00 0.0000e+00 1.0000e+00
      -15  1    1    2    0    0 -7.5854633580e+01 -8.5619196125e+01 -3.0185810620e+02 3.2280961291e+02 1.7770000000e+00 0.0000e+00 1.0000e+00
       15  1    1    2    0    0 +5.9627209391e-01 +4.5153181698e+00 -1.0896894747e+02 1.0907856288e+02 1.7770000000e+00 0.0000e+00 1.0000e+00
</event>
<event>
 6 1 7.08916e-05 5.00397800e+02 7.54677100e-03 9.39892000e-02
      -11 -1    0    0    0    0 +0.0000000000e+00 +0.0000000000e+00 +5.0000000000e+02 5.0000000000e+02 0.0000000000e+00 0.0000e+00 1.0000e+00
       11 -1    0    0    0    0 -0.0000000000e+00 -0.0000000000e+00 -5.0000000000e+02 5.0000000000e+02 0.0000000000e+00 0.0000e+00 1.0000e+00
      -11  1    1    2    0    0 -6.5253997081e+00 -8.5280355917e+00 +4.9948682151e+02 4.9960223488e+02 0.0000000000e+00 0.0000e+00 1.0000e+00
       11  1    1    2    0    0 +1.3815805568e+01 +1.2060007785e+01 -2.3204923858e+02 2.3277278491e+02 0.0000000000e+00 0.0000e+00 1.0000e+00
      -15  1    1    2    0    0 -7.3635008602e+00 -2.6546014385e+00 -2.1147407477e+02 2.1162634544e+02 1.7770000000e+00 0.0000e+00 1.0000e+00
       15  1    1    2    0    0 +7.3095000016e-02 -8.7737075487e-01 -5.5963508161e+01 5.5998634778e+01 1.7770000000e+00 0.0000e+00 1.0000e+00
</event>
<event>
 6 1 7.08916e-05 4.94216500e+02 7.54677100e-03 9.41284400e-02
      -11 -1    0    0    0    0 +0.0000000000e+00 +0.0000000000e+00 +5.0000000000e+02 5.0000000000e+02 0.0000000000e+00 0.0000e+00 -1.0000e+00
       11 -1    0    0    0    0 -0.0000000000e+00 -0.0000000000e+00 -5.0000000000e+02 5.0000000000e+02 0.0000000000e+00 0.0000e+00 -1.0000e+00
      -11  1    1    2    0    0 -1.1174062608e+01 +3.5917082012e-01 +2.8008144349e+00 1.1525330379e+01 0.0000000000e+00 0.0000e+00 -1.0000e+00
       11  1    1    2    0    0 +3.9891483565e+00 -5.9879910954e+00 -4.9555655169e+02 4.9560878247e+02 0.0000000000e+00 0.0000e+00 -1.0000e+00
      -15  1    1    2    0    0 +4.4221304118e+00 +4.8344349391e+00 +2.7420328436e+02 2.7428730536e+02 1.7770000000e+00 0.0000e+00 -1.0000e+00
       15  1    1    2    0    0 +2.7627838402e+00 +7.9438533626e-01 +2.1855245289e+02 2.1857858179e+02 1.7770000000e+00 0.0000e+00 -1.0000e+00
</event>
<event>
 6 1 7.08916e-05 5.00034800e+02 7.54677100e-03 9.39973200e-02
      -11 -1    0    0    0    0 +0.0000000000e+00 +0.0000000000e+00 +5.0000000000e+02 5.0000000000e+02 0.0000000000e+00 0.0000e+00 -1.0000e+00
       11 -1    0    0    0    0 -0.0000000000e+00 -0.0000000000e+00 -5.0000000000e+02 5.0000000000e+02 0.0000000000e+00 0.0000e+00 -1.0000e+00
      -11  1    1    2    0    0 +4.3120869446e-01 +4.2697552899e-01 +1.1206496482e+01 1.1222914614e+01 0.0000000000e+00 0.0000e+00 -1.0000e+00
       11  1    1    2    0    0 +5.0084105691e+00 +7.6161202718e+00 -4.9988211211e+02 4.9996521426e+02 0.0000000000e+00 0.0000e+00 -1.0000e+00
      -15  1    1    2    0    0 -3.6575577305e+00 -3.0639607773e+00 +3.2781784388e+02 3.2785738070e+02 1.7770000000e+00 0.0000e+00 -1.0000e+00
       15  1    1    2    0    0 -1.7820615331e+00 -4.9791350235e+00 +1.6085777175e+02 1.6095449043e+02 1.7770000000e+00 0.0000e+00 1.0000e+00
</event>
<event>
 6 1 7.08916e-05 5.02282200e+02 7.54677100e-03 9.39471800e-02
      -11 -1    0    0    0    0 +0.0000000000e+00 +0.0000000000e+00 +5.0000000000e+02 5.0000000000e+02 0.0000000000e+00 0.0000e+00 -1.0000e+00
       11 -1    0    0    0    0 -0.0000000000e+00 -0.0000000000e+00 -5.0000000000e+02 5.0000000000e+02 0.0000000000e+00 0.0000e+00 -1.0000e+00
      -11  1    1    2    0    0 -6.5739634580e+00 +2.2223287882e+00 +4.9766940162e+02 4.9771778053e+02 0.0000000000e+00 0.0000e+00 -1.0000e+00
       11  1    1    2    0    0 -1.0841584639e-01 +2.3937894478e+01 -3.9657218760e+02 3.9729401522e+02 0.0000000000e+00 0.0000e+00 -1.0000e+00
      -15  1    1    2    0    0 +4.1934252969e+00 -2.4301536926e+01 -8.7176720648e+01 9.0615053190e+01 1.7770000000e+00 0.0000e+00 -1.0000e+00
       15  1    1    2    0    0 +2.4889540075e+00 -1.8586863405e+00 -1.3920493370e+01 1.4373151068e+01 1.7770000000e+00 0.0000e+00 1.0000e+00
</event>
<event>
 6 1 7.08916e-05 5.04042500e+02 7.54677100e-03 9.39080900e-02
      -11 -1    0    0    0    0 +0.0000000000e+00 +0.0000000000e+00 +5.0000000000e+02 5.0000000000e+02 0.0000000000e+00 0.0000e+00 1.0000e+00
       11 -1    0    0    0    0 -0.0000000000e+00 -0.0000000000e+00 -5.0000000000e+02 5.0000000000e+02 0.0000000000e+00 0.0000e+00 -1.0000e+00
      -11  1    1    2    0    0 +6.7445928355e+00 +6.5745513448e+00 +4.9586805455e+02 4.9595749998e+02 0.0000000000e+00 0.0000e+00 1.0000e+00
       11  1    1    2    0    0 +1.3840891231e+01 +8.3047311329e+00 -4.4778354914e+02 4.4807437520e+02 0.0000000000e+00 0.0000e+00 -1.0000e+00
      -15  1    1    2    0    0 -1.8920304746e+01 -1.6280851490e+01 -4.6328234499e+01 5.2654601867e+01 1.7770000000e+00 0.0000e+00 1.0000e+00
       15  1    1    2    0    0 -1.6651793211e+00 +1.4015690122e+00 -1.7562709089e+00 3.3135229549e+00 1.7770000000e+00 0.0000e+00 -1.0000e+00
</event>
<event>
 7 1 7.08916e-05 4.77521300e+02 7.54677100e-03 9.45156200e-02
      -11 -1    0    0    0    0 +0.0000000000e+00 +0.0000000000e+00 +5.0000000000e+02 5.0000000000e+02 0.0000000000e+00 0.0000e+00 -1.0000e+00
       11 -1    0    0    0    0 -0.0000000000e+00 -0.0000000000e+00 -5.0000000000e+02 5.0000000000e+02 0.0000000000e+00 0.0000e+00 1.0000e+00
       23  2    1    2    0    0 -4.9927485803e+01 -8.7314402144e+01 +4.5087098987e+02 4.7004521173e+02 8.6840617840e+01 0.0000e+00 0.0000e+00
      -11  1    1    2    0    0 -1.2691992631e+01 +4.5037254861e+01 +2.1560433071e+01 5.1519833817e+01 0.0000000000e+00 0.0000e+00 -1.0000e+00
       11  1    1    2    0    0 +6.2619478434e+01 +4.2277147284e+01 -4.7243142294e+02 4.7843495445e+02 0.0000000000e+00 0.0000e+00 1.0000e+00
      -15  1    3    3    0    0 +2.0904544947e+01 -4.5941293249e+01 +1.5600713456e+02 1.6397861503e+02 1.7770000000e+00 0.0000e+00 1.0000e+00
       15  1    3    3    0    0 -7.0832030750e+01 -4.1373108896e+01 +2.9486385531e+02 3.0606659670e+02 1.7770000000e+00 0.0000e+00 -1.0000e+00
</event>
<event>
 6 1 7.08916e-05 5.00809900e+02 7.54677100e-03 9.39799900e-02
      -11 -1    0    0    0    0 +0.0000000000e+00 +0.0000000000e+00 +5.0000000000e+02 5.0000000000e+02 0.0000000000e+00 0.0000e+00 1.0000e+00
       11 -1    0    0    0    0 -0.0000000000e+00 -0.0000000000e+00 -5.0000000000e+02 5.0000000000e+02 0.0000000000e+00 0.0000e+00 1.0000e+00
      -11  1    1    2    0    0 +6.9275005493e+00 +1.6411695694e+01 +4.9887212114e+02 4.9919007129e+02 0.0000000000e+00 0.0000e+00 1.0000e+00
       11  1    1    2    0    0 -9.0003179344e+00 +6.1000737137e-02 -2.5528557497e+02 2.5544419005e+02 0.0000000000e+00 0.0000e+00 1.0000e+00
      -15  1    1    2    0    0 +1.0660477249e+01 -9.7958603188e+00 -1.9499512831e+02 1.9553992546e+02 1.7770000000e+00 0.0000e+00 1.0000e+00
       15  1    1    2    0    0 -8.5876598637e+00 -6.6768361127e+00 -4.8591417861e+01 4.9825813201e+01 1.7770000000e+00 0.0000e+00 -1.0000e+00
</event>
<event>
 6 1 7.08916e-05 5.16097100e+02 7.54677100e-03 9.36449500e-02
      -11 -1    0    0    0    0 +0.0000000000e+00 +0.0000000000e+00 +5.0000000000e+02 5.0000000000e+02 0.0000000000e+00 0.0000e+00 -1.0000e+00
       11 -1    0    0    0    0 -0.0000000000e+00 -0.0000000000e+00 -5.0000000000e+02 5.0000000000e+02 0.0000000000e+00 0.0000e+00 -1.0000e+00
      -11  1    1    2    0    0 -1.9298353491e+01 +3.2034693361e+01 +3.8459782880e+02 3.8641187603e+02 0.0000000000e+00 0.0000e+00 -1.0000e+00
       11  1    1    2    0    0 +6.9518815024e+00 +1.0364580511e+01 -4.8374196490e+02 4.8390292600e+02 0.0000000000e+00 0.0000e+00 -1.0000e+00
      -15  1    1    2    0    0 +1.7529693390e+01 -3.5201933342e+01 +1.0924792909e+02 1.1612378740e+02 1.7770000000e+00 0.0000e+00 -1.0000e+00
       15  1    1    2    0    0 -5.1832214017e+00 -7.1973405299e+00 -1.0103792990e+01 1.3561410568e+01 1.7770000000e+00 0.0000e+00 1.0000e+00
</event>
<event>
 6 1 7.08916e-05 5.00292800e+02 7.54677100e-03 9.39915500e-02
      -11 -1    0    0    0    0 +0.0000000000e+00 +0.0000000000e+00 +5.0000000000e+02 5.0000000000e+02 0.0000000000e+00 0.0000e+00 -1.0000e+00
       11 -1    0    0    0    0 -0.0000000000e+00 -0.0000000000e+00 -5.0000000000e+02 5.0000000000e+02 0.0000000000e+00 0.0000e+00 1.0000e+00
      -11  1    1    2    0    0 +1.2420922573e+00 -2.6522901458e+00 +1.6465119975e+02 1.6467724498e+02 0.0000000000e+00 0.0000e+00 -1.0000e+00
       11  1    1    2    0    0 -6.6562107745e+00 -7.1737344583e+00 -4.9961136509e+02 4.9970719800e+02 0.0000000000e+00 0.0000e+00 1.0000e+00
      -15  1    1    2    0    0 -4.7738090966e+00 -4.0720501254e-01 +4.4727448375e+01 4.5018412193e+01 1.7770000000e+00 0.0000e+00 1.0000e+00
       15  1    1    2    0    0 +1.0187927614e+01 +1.0233229617e+01 +2.9023271696e+02 2.9059714482e+02 1.7770000000e+00 0.0000e+00 -1.0000e+00
</event>
<event>
 6 1 7.08916e-05 5.14661100e+02 7.54677100e-03 9.36758900e-02
      -11 -1    0    0    0    0 +0.0000000000e+00 +0.0000000000e+00 +5.0000000000e+02 5.0000000000e+02 0.0000000000e+00 0.0000e+00 -1.0000e+00
       11 -1    0    0    0    0 -0.0000000000e+00 -0.0000000000e+00 -5.0000000000e+02 5.0000000000e+02 0.0000000000e+00 0.0000e+00 1.0000e+00
      -11  1    1    2    0    0 +6.9722158939e+00 +5.3927966405e-01 +4.8528849179e+02 4.8533887427e+02 0.0000000000e+00 0.0000e+00 -1.0000e+00
       11  1    1    2    0    0 +2.6738033042e+01 +2.0693341818e+01 -4.2157530308e+02 4.2292892189e+02 0.0000000000e+00 0.0000e+00 1.0000e+00
      -15  1    1    2    0    0 +1.9210657819e+00 -6.5971949351e+00 +7.7626305547e+00 1.0518062411e+01 1.7770000000e+00 0.0000e+00 -1.0000e+00
       15  1    1    2    0    0 -3.5631314718e+01 -1.4635426547e+01 -7.1475819264e+01 8.1214141423e+01 1.7770000000e+00 0.0000e+00 1.0000e+00
</event>
<event>
 6 1 7.08916e-05 5.10114900e+02 7.54677100e-03 9.37745700e-02
      -11 -1    0    0    0    0 +0.0000000000e+00 +0.0000000000e+00 +5.0000000000e+02 5.0000000000e+02 0.0000000000e+00 0.0000e+00 -1.0000e+00
       11 -1    0    0    0    0 -0.0000000000e+00 -0.0000000000e+00 -5.0000000000e+02 5.0000000000e+02 0.0000000000e+00 0.0000e+00 1.0000e+00
      -11  1    1    2    0    0 +1.7309625112e+01 +1.4564666383e+00 +4.8957700235e+02 4.8988507392e+02 0.0000000000e+00 0.0000e+00 -1.0000e+00
       11  1    1    2    0    0 -1.8286046237e+01 +2.0180614309e+00 -4.8485638604e+02 4.8520528351e+02 0.0000000000e+00 0.0000e+00 1.0000e+00
      -15  1    1    2    0    0 -1.1394192249e+01 -1.9253184403e+00 -7.9420480585e-01 1.1718487888e+01 1.7770000000e+00 0.0000e+00 1.0000e+00
       15  1    1    2    0    0 +1.2370613374e+01 -1.5492096289e+00 -3.9264115007e+00 1.3191154687e+01 1.7770000000e+00 0.0000e+00 -1.0000e+00
</event>
<event>
 6 1 7.08916e-05 5.05194200e+02 7.54677100e-03 9.38826200e-02
      -11 -1    0    0    0    0 +0.0000000000e+00 +0.0000000000e+00 +5.0000000000e+02 5.0000000000e+02 0.0000000000e+00 0.0000e+00 -1.0000e+00
       11 -1    0    0    0    0 -0.0000000000e+00 -0.0000000000e+00 -5.0000000000e+02 5.0000000000e+02 0.0000000000e+00 0.0000e+00 -1.0000e+00
      -11  1    1    2    0    0 -1.4055684828e+00 +7.9320224401e+00 +4.9474019030e+02 4.9480576846e+02 0.0000000000e+00 0.0000e+00 -1.0000e+00
       11  1    1    2    0    0 -1.5527399344e+01 -1.6637253919e+01 -2.2311444149e+01 3.1870031195e+01 0.0000000000e+00 0.0000e+00 -1.0000e+00
      -15  1    1    2    0    0 +9.0452162962e+00 -6.6870873238e+00 -1.5348968792e+02 1.5391158209e+02 1.7770000000e+00 0.0000e+00 1.0000e+00
       15  1    1    2    0    0 +7.8877515308e+00 +1.5392318802e+01 -3.1893905824e+02 3.1941261826e+02 1.7770000000e+00 0.0000e+00 -1.0000e+00
</event>
<event>
 6 1 7.08916e-05 5.04866800e+02 7.54677100e-03 9.38898500e-02
      -11 -1    0    0    0    0 +0.0000000000e+00 +0.0000000000e+00 +5.0000000000e+02 5.0000000000e+02 0.0000000000e+00 0.0000e+00 -1.0000e+00
       11 -1    0    0    0    0 -0.0000000000e+00 -0.0000000000e+00 -5.0000000000e+02 5.0000000000e+02 0.0000000000e+00 0.0000e+00 1.0000e+00
      -11  1    1    2    0    0 +3.9784889515e+01 +1.4914206903e+01 +4.9330680956e+02 4.9513319355e+02 0.0000000000e+00 0.0000e+00 -1.0000e+00
       11  1    1    2    0    0 -8.6783329252e+00 +3.6028439288e+00 -3.2319136509e+02 3.2332793325e+02 0.0000000000e+00 0.0000e+00 1.0000e+00
      -15  1    1    2    0    0 -9.9703320673e+00 -3.6511623665e+00 -1.4520162355e+02 1.4560016387e+02 1.7770000000e+00 0.0000e+00 1.0000e+00
       15  1    1    2    0    0 -2.1136224522e+01 -1.4865888465e+01 -2.4913820909e+01 3.5938709329e+01 1.7770000000e+00 0.0000e+00 -1.0000e+00
</event>
<event>
 6 1 7.08916e-05 5.00305400e+02 7.54677100e-03 9.39912700e-02
      -11 -1    0    0    0    0 +0.0000000000e+00 +0.0000000000e+00 +5.0000000000e+02 5.0000000000e+02 0.0000000000e+00 0.0000e+00 1.0000e+00
       11 -1    0    0    0    0 -0.0000000000e+00 -0.0000000000e+00 -5.0000000000e+02 5.0000000000e+02 0.0000000000e+00 0.0000e+00 1.0000e+00
      -11  1    1    2    0    0 -5.1937733697e+00 +2.3657966646e+00 +3.8013775881e+02 3.8018059913e+02 0.0000000000e+00 0.0000e+00 1.0000e+00
       11  1    1    2    0    0 +2.6730410825e+00 +8.2440573005e+00 -4.9961939206e+02 4.9969455325e+02 0.0000000000e+00 0.0000e+00 1.0000e+00
      -15  1    1    2    0    0 +3.5164297059e+00 -7.0033891435e+00 +8.9208997377e+01 8.9570171818e+01 1.7770000000e+00 0.0000e+00 -1.0000e+00
       15  1    1    2    0    0 -9.9569741871e-01 -3.6064648217e+00 +3.0272635869e+01 3.0554675801e+01 1.7770000000e+00 0.0000e+00 1.0000e+00
</event>
<event>
 6 1 7.08916e-05 5.02018800e+02 7.54677100e-03 9.39530400e-02
      -11 -1    0    0    0    0 +0.0000000000e+00 +0.0000000000e+00 +5.0000000000e+02 5.0000000000e+02 0.0000000000e+00 0.0000e+00 -1.0000e+00
       11 -1    0    0    0    0 -0.0000000000e+00 -0.0000000000e+00 -5.0000000000e+02 5.0000000000e+02 0.0000000000e+00 0.0000e+00 1.0000e+00
      -11  1    1    2    0    0 +4.7843974505e+00 -6.5366753419e+00 +4.9791533114e+02 4.9798122010e+02 0.0000000000e+00 0.0000e+00 -1.0000e+00
       11  1    1    2    0    0 -7.0082969297e+00 -8.9217931345e+00 -4.5914802635e+02 4.5928817176e+02 0.0000000000e+00 0.0000e+00 1.0000e+00
      -15  1    1    2    0    0 +2.3042588638e+00 +1.1992646359e+01 -3.5698719329e+01 3.7771543076e+01 1.7770000000e+00 0.0000e+00 1.0000e+00
       15  1    1    2    0    0 -8.0359384562e-02 +3.4658221171e+00 -3.0685854601e+00 4.9590650635e+00 1.7770000000e+00 0.0000e+00 -1.0000e+00
</event>
<event>
 6 1 7.08916e-05 5.03025600e+02 7.54677100e-03 9.39306500e-02
      -11 -1    0    0    0    0 +0.0000000000e+00 +0.0000000000e+00 +5.0000000000e+02 5.0000000000e+02 0.0000000000e+00 0.0000e+00 1.0000e+00
       11 -1    0    0    0    0 -0.0000000000e+00 -0.0000000000e+00 -5.0000000000e+02 5.0000000000e+02 0.0000000000e+00 0.0000e+00 1.0000e+00
      -11  1    1    2    0    0 -5.7381103462e+00 +4.1566025483e+00 +4.9692387788e+02 4.9697438934e+02 0.0000000000e+00 0.0000e+00 1.0000e+00
       11  1    1    2    0    0 -8.7545778740e+00 -5.9499282685e+00 -4.7390168087e+02 4.7401988082e+02 0.0000000000e+00 0.0000e+00 1.0000e+00
      -15  1    1    2    0    0 +7.7362046063e+00 +3.0252303794e-01 -4.4453025636e+00 9.1026823399e+00 1.7770000000e+00 0.0000e+00 1.0000e+00
       15  1    1    2    0    0 +6.7564836140e+00 +1.4908026823e+00 -1.8576894446e+01 1.9903047499e+01 1.7770000000e+00 0.0000e+00 -1.0000e+00
</event>
<event>
 6 1 7.08916e-05 5.03720300e+02 7.54677100e-03 9.39152400e-02
      -11 -1    0    0    0    0 +0.0000000000e+00 +0.0000000000e+00 +5.0000000000e+02 5.0000000000e+02 0.0000000000e+00 0.0000e+00 1.0000e+00
       11 -1    0    0    0    0 -0.0000000000e+00 -0.0000000000e+00 -5.0000000000e+02 5.0000000000e+02 0.0000000000e+00 0.0000e+00 -1.0000e+00
      -11  1    1    2    0    0 +9.9205347038e+00 -1.3411055948e+01 +3.3890555048e+02 3.3931584929e+02 0.0000000000e+00 0.0000e+00 1.0000e+00
       11  1    1    2    0    0 +1.4245439381e+01 -1.9550849927e+01 -4.9568979849e+02 4.9627970400e+02 0.0000000000e+00 0.0000e+00 -1.0000e+00
      -15  1    1    2    0    0 +4.8969932766e+00 +5.0504646437e+00 +1.1270649904e+01 1.3404216297e+01 1.7770000000e+00 0.0000e+00 -1.0000e+00
       15  1    1    2    0    0 -2.9062967361e+01 +2.7911441231e+01 +1.4551359810e+02 1.5100023041e+02 1.7770000000e+00 0.0000e+00 1.0000e+00
</event>
<event>
 6 1 7.08916e-05 4.88032700e+02 7.54677100e-03 9.42699300e-02
      -11 -1    0    0    0    0 +0.0000000000e+00 +0.0000000000e+00 +5.0000000000e+02 5.0000000000e+02 0.0000000000e+00 0.0000e+00 -1.0000e+00
       11 -1    0    0    0    0 -0.0000000000e+00 -0.0000000000e+00 -5.0000000000e+02 5.0000000000e+02 0.0000000000e+00 0.0000e+00 -1.0000e+00
      -11  1    1    2    0    0 +6.4320611333e+00 +5.6287895012e+00 +4.8359769678e+02 4.8367322337e+02 0.0000000000e+00 0.0000e+00 -1.0000e+00
       11  1    1    2    0    0 +1.3071377261e+01 -1.1583630494e+01 -4.9233453811e+02 4.9264423149e+02 0.0000000000e+00 0.0000e+00 -1.0000e+00
      -15  1    1    2    0    0 -1.6522676508e+01 +7.4661443888e+00 +6.9777882750e+00 1.9508700860e+01 1.7770000000e+00 0.0000e+00 -1.0000e+00
       15  1    1    2    0    0 -2.9807618859e+00 -1.5113033961e+00 +1.7590530646e+00 4.1738442783e+00 1.7770000000e+00 0.0000e+00 1.0000e+00
</event>
<event>
 6 1 7.08916e-05 5.02760300e+02 7.54677100e-03 9.39365400e-02
      -11 -1    0    0    0    0 +0.0000000000e+00 +0.0000000000e+00 +5.0000000000e+02 5.0000000000e+02 0.0000000000e+00 0.0000e+00 -1.0000e+00
       11 -1    0    0    0    0 -0.0000000000e+00 -0.0000000000e+00 -5.0000000000e+02 5.0000000000e+02 0.0000000000e+00 0.0000e+00 -1.0000e+00
      -11  1    1    2    0    0 +7.7540805052e+00 -4.1458453631e+00 +4.9716190785e+02 4.9723965692e+02 0.0000000000e+00 0.0000e+00 -1.0000e+00
       11  1    1    2    0    0 +6.1764506459e+00 +7.6198080154e+00 -4.6610697237e+02 4.6621016689e+02 0.0000000000e+00 0.0000e+00 -1.0000e+00
      -15  1    1    2    0    0 -3.7407712681e+00 +1.4058289002e+00 -2.0585649640e+01 2.1045104530e+01 1.7770000000e+00 0.0000e+00 -1.0000e+00
       15  1    1    2    0    0 -1.0189759883e+01 -4.8797915525e+00 -1.0469285845e+01 1.5505071660e+01 1.7770000000e+00 0.0000e+00 1.0000e+00
</event>
<event>
 6 1 7.08916e-05 5.00994900e+02 7.54677100e-03 9.39758600e-02
      -11 -1    0    0    0    0 +0.0000000000e+00 +0.0000000000e+00 +5.0000000000e+02 5.0000000000e+02 0.0000000000e+00 0.0000e+00 -1.0000e+00
       11 -1    0    0    0    0 -0.0000000000e+00 -0.0000000000e+00 -5.0000000000e+02 5.0000000000e+02 0.0000000000e+00 0.0000e+00 1.0000e+00
      -11  1    1    2    0    0 -9.9770780511e+00 -1.5480142458e+00 +4.9890298036e+02 4.9900513249e+02 0.0000000000e+00 0.0000e+00 -1.0000e+00
       11  1    1    2    0    0 +1.2157730435e+01 +3.2415971500e-01 -4.6431741821e+02 4.6447667362e+02 0.0000000000e+00 0.0000e+00 1.0000e+00
      -15  1    1    2    0    0 -5.1456233568e+00 -1.0798398191e+00 -2.9168262307e+01 2.9691560228e+01 1.7770000000e+00 0.0000e+00 1.0000e+00
       15  1    1    2    0    0 +2.9649709733e+00 +2.3036943499e+00 -5.4172998464e+00 6.8266336620e+00 1.7770000000e+00 0.0000e+00 -1.0000e+00
</event>
<event>
 6 1 7.08916e-05 5.01351000e+02 7.54677100e-03 9.39679200e-02
      -11 -1    0    0    0    0 +0.0000000000e+00 +0.0000000000e+00 +5.0000000000e+02 5.0000000000e+02 0.0000000000e+00 0.0000e+00 -1.0000e+00
       11 -1    0    0    0    0 -0.0000000000e+00 -0.0000000000e+00 -5.0000000000e+02 5.0000000000e+02 0.0000000000e+00 0.0000e+00 1.0000e+00
      -11  1    1    2    0    0 -9.2324916213e+00 +8.0644489256e+00 +4.9849834143e+02 4.9864904556e+02 0.0000000000e+00 0.0000e+00 -1.0000e+00
       11  1    1    2    0    0 -6.9602588130e+00 -7.2689140836e-01 -4.2549464890e+02 4.2555219400e+02 0.0000000000e+00 0.0000e+00 1.0000e+00
      -15  1    1    2    0    0 +1.0677948111e+01 -8.1757791457e+00 -3.8929518727e+01 4.1225321076e+01 1.7770000000e+00 0.0000e+00 1.0000e+00
       15  1    1    2    0    0 +5.5148023232e+00 +8.3822162850e-01 -3.4074173798e+01 3.4573439360e+01 1.7770000000e+00 0.0000e+00 -1.0000e+00
</event>
<event>
 6 1 7.08916e-05 5.13892200e+02 7.54677100e-03 9.36925000e-02
      -11 -1    0    0    0    0 +0.0000000000e+00 +0.0000000000e+00 +5.0000000000e+02 5.0000000000e+02 0.0000000000e+00 0.0000e+00 -1.0000e+00
       11 -1    0    0    0    0 -0.0000000000e+00 -0.0000000000e+00 -5.0000000000e+02 5.0000000000e+02 0.0000000000e+00 0.0000e+00 1.0000e+00
      -11  1    1    2    0    0 -1.3206869240e+01 -7.5576024483e+00 +4.8586957608e+02 4.8610779022e+02 0.0000000000e+00 0.0000e+00 -1.0000e+00
       11  1    1    2    0    0 -3.9624985969e+00 +6.8316697742e+00 -4.5372741291e+02 4.5379614182e+02 0.0000000000e+00 0.0000e+00 1.0000e+00
      -15  1    1    2    0    0 -1.2060922305e+00 -2.8544075543e+00 -3.9677049673e+01 3.9837523777e+01 1.7770000000e+00 0.0000e+00 -1.0000e+00
       15  1    1    2    0    0 +1.8375460067e+01 +3.5803402284e+00 +7.5348865002e+00 2.0258544183e+01 1.7770000000e+00 0.0000e+00 1.0000e+00
</event>
<event>
 6 1 7.08916e-05 4.85392700e+02 7.54677100e-03 9.43310100e-02
      -11 -1    0    0    0    0 +0.0000000000e+00 +0.0000000000e+00 +5.0000000000e+02 5.0000000000e+02 0.0000000000e+00 0.0000e+00 -1.0000e+00
       11 -1    0    0    0    0 -0.0000000000e+00 -0.0000000000e+00 -5.0000000000e+02 5.0000000000e+02 0.0000000000e+00 0.0000e+00 1.0000e+00
      -11  1    1    2    0    0 -1.5325965199e+01 +4.9271895976e+00 +4.9022411486e+02 4.9048837417e+02 0.0000000000e+00 0.0000e+00 -1.0000e+00
       11  1    1    2    0    0 -8.8893035285e+00 +2.9557993496e+00 -4.8058740985e+02 4.8067870243e+02 0.0000000000e+00 0.0000e+00 1.0000e+00
      -15  1    1    2    0    0 +1.5227321468e+00 -9.5629617604e-01 +1.0664142426e+00 2.7437536158e+00 1.7770000000e+00 0.0000e+00 -1.0000e+00
       15  1    1    2    0    0 +2.2692536581e+01 -6.9266927712e+00 -1.0703119256e+01 2.6089169784e+01 1.7770000000e+00 0.0000e+00 1.0000e+00
</event>
<event>
 6 1 7.08916e-05 5.01757000e+02 7.54677100e-03 9.39588700e-02
      -11 -1    0    0    0    0 +0.0000000000e+00 +0.0000000000e+00 +5.0000000000e+02 5.0000000000e+02 0.0000000000e+00 0.0000e+00 1.0000e+00
       11 -1    0    0    0    0 -0.0000000000e+00 -0.0000000000e+00 -5.0000000000e+02 5.0000000000e+02 0.0000000000e+00 0.0000e+00 -1.0000e+00
      -11  1    1    2    0    0 +1.8196402930e+01 -3.4460511998e+01 +1.6677806851e+02 1.7127042974e+02 0.0000000000e+00 0.0000e+00 1.0000e+00
       11  1    1    2    0    0 +5.2484163409e+00 +4.5117240237e+01 -4.9616829006e+02 4.9824299624e+02 0.0000000000e+00 0.0000e+00 -1.0000e+00
      -15  1    1    2    0    0 -1.9838214560e+01 -8.3804621986e+00 +2.9450975657e+02 2.9530144149e+02 1.7770000000e+00 0.0000e+00 1.0000e+00
       15  1    1    2    0    0 -3.6066047104e+00 -2.2762660396e+00 +3.4880464987e+01 3.5185132532e+01 1.7770000000e+00 0.0000e+00 1.0000e+00
</event>
<event>
 6 1 7.08916e-05 5.00935900e+02 7.54677100e-03 9.39771800e-02
      -11 -1    0    0    0    0 +0.0000000000e+00 +0.0000000000e+00 +5.0000000000e+02 5.0000000000e+02 0.0000000000e+00 0.0000e+00 -1.0000e+00
       11 -1    0    0    0    0 -0.0000000000e+00 -0.0000000000e+00 -5.0000000000e+02 5.0000000000e+02 0.0000000000e+00 0.0000e+00 1.0000e+00
      -11  1    1    2    0    0 -9.3325996590e+00 +1.7525568095e+00 +3.1220089281e+02 3.1234526784e+02 0.0000000000e+00 0.0000e+00 -1.0000e+00
       11  1    1    2    0    0 +1.5034121687e+01 -4.4436662203e+00 -4.9881781222e+02 4.9906410487e+02 0.0000000000e+00 0.0000e+00 1.0000e+00
      -15  1    1    2    0    0 -1.2303340474e+01 +5.2513957297e+00 +5.0312198878e+01 5.2090540685e+01 1.7770000000e+00 0.0000e+00 1.0000e+00
       15  1    1    2    0    0 +6.6018184455e+00 -2.5602863189e+00 +1.3630472053e+02 1.3650008660e+02 1.7770000000e+00 0.0000e+00 -1.0000e+00
</event>
<event>
 6 1 7.08916e-05 5.04680900e+02 7.54677100e-03 9.38939600e-02
      -11 -1    0    0    0    0 +0.0000000000e+00 +0.0000000000e+00 +5.0000000000e+02 5.0000000000e+02 0.0000000000e+00 0.0000e+00 1.0000e+00
       11 -1    0    0    0    0 -0.0000000000e+00 -0.0000000000e+00 -5.0000000000e+02 5.0000000000e+02 0.0000000000e+00 0.0000e+00 1.0000e+00
      -11  1    1    2    0    0 -1.6032116490e+00 +9.8004137245e+00 +4.9521957183e+02 4.9531913219e+02 0.0000000000e+00 0.0000e+00 1.0000e+00
       11  1    1    2    0    0 -9.5631740446e+00 -1.0626740582e+01 -4.8437528586e+02 4.8458621468e+02 0.0000000000e+00 0.0000e+00 1.0000e+00
      -15  1    1    2    0    0 +9.2344694175e-01 -4.6930513869e+00 -3.9608544078e+00 6.4593793986e+00 1.7770000000e+00 0.0000e+00 -1.0000e+00
       15  1    1    2    0    0 +1.0242938752e+01 +5.5193782447e+00 -6.8834315616e+00 1.3635273725e+01 1.7770000000e+00 0.0000e+00 1.0000e+00
</event>
<event>
 6 1 7.08916e-05 5.07305300e+02 7.54677100e-03 9.38361000e-02
      -11 -1    0    0    0    0 +0.0000000000e+00 +0.0000000000e+00 +5.0000000000e+02 5.0000000000e+02 0.0000000000e+00 0.0000e+00 -1.0000e+00
       11 -1    0    0    0    0 -0.0000000000e+00 -0.0000000000e+00 -5.0000000000e+02 5.0000000000e+02 0.0000000000e+00 0.0000e+00 -1.0000e+00
      -11  1    1    2    0    0 +1.4903744630e+00 +6.8608228233e+00 +4.9264463716e+02 4.9269466267e+02 0.0000000000e+00 0.0000e+00 -1.0000e+00
       11  1    1    2    0    0 +1.7003046696e+00 -3.6991828992e+01 -2.2333762930e+02 2.2638679977e+02 0.0000000000e+00 0.0000e+00 -1.0000e+00
      -15  1    1    2    0    0 +1.3193263066e+01 -7.8575732532e+00 -1.0192706951e+01 1.8516280721e+01 1.7770000000e+00 0.0000e+00 1.0000e+00
       15  1    1    2    0    0 -1.6383942199e+01 +3.7988579422e+01 -2.5911430091e+02 2.6240225684e+02 1.7770000000e+00 0.0000e+00 -1.0000e+00
</event>
<event>
 6 1 7.08916e-05 5.00559700e+02 7.54677100e-03 9.39855800e-02
      -11 -1    0    0    0    0 +0.0000000000e+00 +0.0000000000e+00 +5.0000000000e+02 5.0000000000e+02 0.0000000000e+00 0.0000e+00 -1.0000e+00
       11 -1    0    0    0    0 -0.0000000000e+00 -0.0000000000e+00 -5.0000000000e+02 5.0000000000e+02 0.0000000000e+00 0.0000e+00 -1.0000e+00
      -11  1    1    2    0    0 -2.9098168949e+00 +1.5959918242e+01 +2.8196174882e+02 2.8242806841e+02 0.0000000000e+00 0.0000e+00 -1.0000e+00
       11  1    1    2    0    0 -8.6069748721e+00 -5.8618044552e+00 -4.9933176939e+02 4.9944034348e+02 0.0000000000e+00 0.0000e+00 -1.0000e+00
      -15  1    1    2    0    0 +1.8362258062e+00 -5.3761936426e+00 +1.2079111221e+02 1.2093769346e+02 1.7770000000e+00 0.0000e+00 1.0000e+00
       15  1    1    2    0    0 +9.6805659607e+00 -4.7219201446e+00 +9.6578908366e+01 9.7193894650e+01 1.7770000000e+00 0.0000e+00 -1.0000e+00
</event>
<event>
 6 1 7.08916e-05 4.85254400e+02 7.54677100e-03 9.43342200e-02
      -11 -1    0    0    0    0 +0.0000000000e+00 +0.0000000000e+00 +5.0000000000e+02 5.0000000000e+02 0.0000000000e+00 0.0000e+00 -1.0000e+00
       11 -1    0    0    0    0 -0.0000000000e+00 -0.0000000000e+00 -5.0000000000e+02 5.0000000000e+02 0.0000000000e+00 0.0000e+00 1.0000e+00
      -11  1    1    2    0    0 +5.0473938213e+00 +6.1149560807e+00 +4.8238761879e+02 4.8245277865e+02 0.0000000000e+00 0.0000e+00 -1.0000e+00
       11  1    1    2    0    0 -3.2608505980e+00 -1.6973309525e+01 -4.8782758167e+02 4.8813366594e+02 0.0000000000e+00 0.0000e+00 1.0000e+00
      -15  1    1    2    0    0 -1.0364644351e+01 -3.5910039897e+00 +5.7532669103e+00 1.2513151933e+01 1.7770000000e+00 0.0000e+00 1.0000e+00
       15  1    1    2    0    0 +8.5781011272e+00 +1.4449357434e+01 -3.1330402769e-01 1.6900403475e+01 1.7770000000e+00 0.0000e+00 -1.0000e+00
</event>
<event>
 6 1 7.08916e-05 5.90588600e+02 7.54677100e-03 9.21720300e-02
      -11 -1    0    0    0    0 +0.0000000000e+00 +0.0000000000e+00 +5.0000000000e+02 5.0000000000e+02 0.0000000000e+00 0.0000e+00 -1.0000e+00
       11 -1    0    0    0    0 -0.0000000000e+00 -0.0000000000e+00 -5.0000000000e+02 5.0000000000e+02 0.0000000000e+00 0.0000e+00 -1.0000e+00
      -11  1    1    2    0    0 -3.3245085352e+01 -9.1079115733e-01 +4.0805836805e+02 4.0941140308e+02 0.0000000000e+00 0.0000e+00 -1.0000e+00
       11  1    1    2    0    0 -1.3729658301e+00 -3.7774926324e+01 -3.6678170223e+02 3.6872435122e+02 0.0000000000e+00 0.0000e+00 -1.0000e+00
      -15  1    1    2    0    0 -4.2864658946e+01 -1.8661698541e+01 +6.3892383431e+01 7.9189850161e+01 1.7770000000e+00 0.0000e+00 1.0000e+00
       15  1    1    2    0    0 +7.7482710128e+01 +5.7347416023e+01 -1.0516904925e+02 1.4267439554e+02 1.7770000000e+00 0.0000e+00 -1.0000e+00
</event>
<event>
 6 1 7.08916e-05 5.00098000e+02 7.54677100e-03 9.39959100e-02
      -11 -1    0    0    0    0 +0.0000000000e+00 +0.0000000000e+00 +5.0000000000e+02 5.0000000000e+02 0.0000000000e+00 0.0000e+00 1.0000e+00
       11 -1    0    0    0    0 -0.0000000000e+00 -0.0000000000e+00 -5.0000000000e+02 5.0000000000e+02 0.0000000000e+00 0.0000e+00 -1.0000e+00
      -11  1    1    2    0    0 +4.2272619305e+00 -7.6805578947e+00 +2.6698423232e+02 2.6712813596e+02 0.0000000000e+00 0.0000e+00 1.0000e+00
       11  1    1    2    0    0 +1.3489775490e-01 +8.6085996024e+00 -4.9982788069e+02 4.9990202690e+02 0.0000000000e+00 0.0000e+00 -1.0000e+00
      -15  1    1    2    0    0 -3.2496410228e+00 -2.9350761608e+00 +1.5533258176e+02 1.5540445143e+02 1.7770000000e+00 0.0000e+00 1.0000e+00
       15  1    1    2    0    0 -1.1125186627e+00 +2.0070344531e+00 +7.7511066607e+01 7.7565385712e+01 1.7770000000e+00 0.0000e+00 1.0000e+00
</event>
<event>
 6 1 7.08916e-05 5.02941400e+02 7.54677100e-03 9.39325200e-02
      -11 -1    0    0    0    0 +0.0000000000e+00 +0.0000000000e+00 +5.0000000000e+02 5.0000000000e+02 0.0000000000e+00 0.0000e+00 -1.0000e+00
       11 -1    0    0    0    0 -0.0000000000e+00 -0.0000000000e+00 -5.0000000000e+02 5.0000000000e+02 0.0000000000e+00 0.0000e+00 -1.0000e+00
      -11  1    1    2    0    0 +7.3590398318e+00 +2.0274766151e+00 +4.9700001145e+02 4.9705862583e+02 0.0000000000e+00 0.0000e+00 -1.0000e+00
       11  1    1    2    0    0 +8.0431197937e+00 -1.7742192825e+00 -4.5734554174e+02 4.5741970244e+02 0.0000000000e+00 0.0000e+00 -1.0000e+00
      -15  1    1    2    0    0 -1.2355243584e+01 -5.4936126678e+00 -3.5317883846e+01 3.7859509671e+01 1.7770000000e+00 0.0000e+00 -1.0000e+00
       15  1    1    2    0    0 -3.0469160418e+00 +5.2403553352e+00 -4.3365858627e+00 7.6621620545e+00 1.7770000000e+00 0.0000e+00 1.0000e+00
</event>
<event>
 6 1 7.08916e-05 5.04222400e+02 7.54677100e-03 9.39041100e-02
      -11 -1    0    0    0    0 +0.0000000000e+00 +0.0000000000e+00 +5.0000000000e+02 5.0000000000e+02 0.0000000000e+00 0.0000e+00 -1.0000e+00
       11 -1    0    0    0    0 -0.0000000000e+00 -0.0000000000e+00 -5.0000000000e+02 5.0000000000e+02 0.0000000000e+00 0.0000e+00 -1.0000e+00
      -11  1    1    2    0    0 -4.4586934968e+00 +3.1196533194e+00 +2.9636848513e+02 2.9641843931e+02 0.0000000000e+00 0.0000e+00 -1.0000e+00
       11  1    1    2    0    0 -1.4022119197e+00 +7.2277018338e+00 -4.9572294575e+02 4.9577761629e+02 0.0000000000e+00 0.0000e+00 -1.0000e+00
      -15  1    1    2    0    0 +1.2336988940e+01 -9.9856876005e-02 +1.9405523866e+02 1.9445514816e+02 1.7770000000e+00 0.0000e+00 -1.0000e+00
       15  1    1    2    0    0 -6.4760835237e+00 -1.0247498277e+01 +5.2992219606e+00 1.3348796243e+01 1.7770000000e+00 0.0000e+00 1.0000e+00
</event>
<event>
 6 1 7.08916e-05 5.00105000e+02 7.54677100e-03 9.39957500e-02
      -11 -1    0    0    0    0 +0.0000000000e+00 +0.0000000000e+00 +5.0000000000e+02 5.0000000000e+02 0.0000000000e+00 0.0000e+00 1.0000e+00
       11 -1    0    0    0    0 -0.0000000000e+00 -0.0000000000e+00 -5.0000000000e+02 5.0000000000e+02 0.0000000000e+00 0.0000e+00 -1.0000e+00
      -11  1    1    2    0    0 +4.6471366596e-01 +2.7722307837e-01 +1.9347788219e+01 1.9355353791e+01 0.0000000000e+00 0.0000e+00 1.0000e+00
       11  1    1    2    0    0 -6.2108945025e+00 -5.5681532281e+00 -4.9982538971e+02 4.9989498872e+02 0.0000000000e+00 0.0000e+00 -1.0000e+00
      -15  1    1    2    0    0 +6.4214281441e+00 +9.0795459023e+00 +4.0194985620e+02 4.0210759446e+02 1.7770000000e+00 0.0000e+00 1.0000e+00
       15  1    1    2    0    0 -6.7524730762e-01 -3.7886157526e+00 +7.8527745292e+01 7.8642063031e+01 1.7770000000e+00 0.0000e+00 -1.0000e+00
</event>
<event>
 6 1 7.08916e-05 5.07550600e+02 7.54677100e-03 9.38307100e-02
      -11 -1    0    0    0    0 +0.0000000000e+00 +0.0000000000e+00 +5.0000000000e+02 5.0000000000e+02 0.0000000000e+00 0.0000e+00 -1.0000e+00
       11 -1    0    0    0    0 -0.0000000000e+00 -0.0000000000e+00 -5.0000000000e+02 5.0000000000e+02 0.0000000000e+00 0.0000e+00 -1.0000e+00
      -11  1    1    2    0    0 +9.9852461356e+00 +1.6990186575e+01 +4.7199624358e+02 4.7240747828e+02 0.0000000000e+00 0.0000e+00 -1.0000e+00
       11  1    1    2    0    0 -2.0814286575e+00 +7.4719322710e+00 -4.9238827712e+02 4.9244936548e+02 0.0000000000e+00 0.0000e+00 -1.0000e+00
      -15  1    1    2    0    0 -1.4219901861e+00 -1.2881029091e+01 +3.4110190846e+00 1.3517978648e+01 1.7770000000e+00 0.0000e+00 1.0000e+00
       15  1    1    2    0    0 -6.4818272920e+00 -1.1581089754e+01 +1.6981014455e+01 2.1625177591e+01 1.7770000000e+00 0.0000e+00 -1.0000e+00
</event>
<event>
 6 1 7.08916e-05 5.02261400e+02 7.54677100e-03 9.39476400e-02
      -11 -1    0    0    0    0 +0.0000000000e+00 +0.0000000000e+00 +5.0000000000e+02 5.0000000000e+02 0.0000000000e+00 0.0000e+00 1.0000e+00
       11 -1    0    0    0    0 -0.0000000000e+00 -0.0000000000e+00 -5.0000000000e+02 5.0000000000e+02 0.0000000000e+00 0.0000e+00 -1.0000e+00
      -11  1    1    2    0    0 -3.8488186747e+00 -8.6215723734e+00 +3.8887017229e+02 3.8898477581e+02 0.0000000000e+00 0.0000e+00 1.0000e+00
       11  1    1    2    0    0 -1.4163201798e+01 -5.5560093489e+00 -4.9750600885e+02 4.9773858035e+02 0.0000000000e+00 0.0000e+00 -1.0000e+00
      -15  1    1    2    0    0 +1.4480786238e+00 +6.6642378993e+00 +7.1916805206e+01 7.2261286998e+01 1.7770000000e+00 0.0000e+00 -1.0000e+00
       15  1    1    2    0    0 +1.6563941848e+01 +7.5133438230e+00 +3.6719031355e+01 4.1015356851e+01 1.7770000000e+00 0.0000e+00 1.0000e+00
</event>
<event>
 6 1 7.08916e-05 5.05731800e+02 7.54677100e-03 9.38707500e-02
      -11 -1    0    0    0    0 +0.0000000000e+00 +0.0000000000e+00 +5.0000000000e+02 5.0000000000e+02 0.0000000000e+00 0.0000e+00 1.0000e+00
       11 -1    0    0    0    0 -0.0000000000e+00 -0.0000000000e+00 -5.0000000000e+02 5.0000000000e+02 0.0000000000e+00 0.0000e+00 1.0000e+00
      -11  1    1    2    0    0 +2.7209036892e+00 -2.0859818568e+01 +4.9382031564e+02 4.9426818579e+02 0.0000000000e+00 0.0000e+00 1.0000e+00
       11  1    1    2    0    0 +3.5039895465e+00 +1.5342906444e+01 -4.7309534482e+02 4.7335704073e+02 0.0000000000e+00 0.0000e+00 1.0000e+00
      -15  1    1    2    0    0 -7.9078901390e+00 +1.2869662083e+01 -7.2923850367e+00 1.6867114071e+01 1.7770000000e+00 0.0000e+00 -1.0000e+00
       15  1    1    2    0    0 +1.6829969032e+00 -7.3527499589e+00 -1.3432585782e+01 1.5507659409e+01 1.7770000000e+00 0.0000e+00 1.0000e+00
</event>
<event>
 6 1 7.08916e-05 5.00235000e+02 7.54677100e-03 9.39928400e-02
      -11 -1    0    0    0    0 +0.0000000000e+00 +0.0000000000e+00 +5.0000000000e+02 5.0000000000e+02 0.0000000000e+00 0.0000e+00 1.0000e+00
       11 -1    0    0    0    0 -0.0000000000e+00 -0.0000000000e+00 -5.0000000000e+02 5.0000000000e+02 0.0000000000e+00 0.0000e+00 1.0000e+00
      -11  1    1    2    0    0 +9.5340810617e+00 +2.4100617670e-01 +9.9129083289e+01 9.9586806051e+01 0.0000000000e+00 0.0000e+00 1.0000e+00
       11  1    1    2    0    0 -6.7716410532e+00 -3.8721130038e+00 -4.9970407524e+02 4.9976495595e+02 0.0000000000e+00 0.0000e+00 1.0000e+00
      -15  1    1    2    0    0 -2.4953431466e+00 +4.2356602111e+00 +3.4765040413e+02 3.4768970186e+02 1.7770000000e+00 0.0000e+00 1.0000e+00
       15  1    1    2    0    0 -2.6709686189e-01 -6.0455338399e-01 +5.2924587821e+01 5.2958536144e+01 1.7770000000e+00 0.0000e+00 1.0000e+00
</event>
<event>
 6 1 7.08916e-05 5.18519500e+02 7.54677100e-03 9.35929800e-02
      -11 -1    0    0    0    0 +0.0000000000e+00 +0.0000000000e+00 +5.0000000000e+02 5.0000000000e+02 0.0000000000e+00 0.0000e+00 1.0000e+00
       11 -1    0    0    0    0 -0.0000000000e+00 -0.0000000000e+00 -5.0000000000e+02 5.0000000000e+02 0.0000000000e+00 0.0000e+00 -1.0000e+00
      -11  1    1    2    0    0 -6.5749635540e+00 -3.0007407944e+00 +4.8142622585e+02 4.8148047263e+02 0.0000000000e+00 0.0000e+00 1.0000e+00
       11  1    1    2    0    0 -6.4751511075e+00 +2.9332906828e+00 -2.8246079866e+02 2.8255023369e+02 0.0000000000e+00 0.0000e+00 -1.0000e+00
      -15  1    1    2    0    0 +1.3747445708e+01 +3.6190647176e+00 +1.5706834074e+01 2.1259168812e+01 1.7770000000e+00 0.0000e+00 1.0000e+00
       15  1    1    2    0    0 -6.9733104655e-01 -3.5516146060e+00 -2.1467226126e+02 2.1471012487e+02 1.7770000000e+00 0.0000e+00 -1.0000e+00
</event>
<event>
 6 1 7.08916e-05 5.12039600e+02 7.54677100e-03 9.37326600e-02
      -11 -1    0    0    0    0 +0.0000000000e+00 +0.0000000000e+00 +5.0000000000e+02 5.0000000000e+02 0.0000000000e+00 0.0000e+00 -1.0000e+00
       11 -1    0    0    0    0 -0.0000000000e+00 -0.0000000000e+00 -5.0000000000e+02 5.0000000000e+02 0.0000000000e+00 0.0000e+00 1.0000e+00
      -11  1    1    2    0    0 -1.1676702865e+01 +4.3851299742e+00 +4.6878039480e+02 4.6894630109e+02 0.0000000000e+00 0.0000e+00 -1.0000e+00
       11  1    1    2    0    0 -8.1523227812e+00 -1.6937797474e+00 -4.8788934355e+02 4.8796038857e+02 0.0000000000e+00 0.0000e+00 1.0000e+00
      -15  1    1    2    0    0 +1.4599947564e+01 -4.2720416570e-01 -7.0118437335e+00 1.6299222491e+01 1.7770000000e+00 0.0000e+00 -1.0000e+00
       15  1    1    2    0    0 +5.2290780822e+00 -2.2641460612e+00 +2.6120792482e+01 2.6794087853e+01 1.7770000000e+00 0.0000e+00 1.0000e+00
</event>
<event>
 6 1 7.08916e-05 5.08631900e+02 7.54677100e-03 9.38070000e-02
      -11 -1    0    0    0    0 +0.0000000000e+00 +0.0000000000e+00 +5.0000000000e+02 5.0000000000e+02 0.0000000000e+00 0.0000e+00 -1.0000e+00
       11 -1    0    0    0    0 -0.0000000000e+00 -0.0000000000e+00 -5.0000000000e+02 5.0000000000e+02 0.0000000000e+00 0.0000e+00 1.0000e+00
      -11  1    1    2    0    0 +6.3722197490e+00 -1.5004025352e+01 +4.9109761366e+02 4.9136808209e+02 0.0000000000e+00 0.0000e+00 -1.0000e+00
       11  1    1    2    0    0 +1.4983162996e+00 -7.6581468409e+00 -2.9474710342e+02 2.9485038094e+02 0.0000000000e+00 0.0000e+00 1.0000e+00
      -15  1    1    2    0    0 +3.7565548531e+00 +2.4027866402e+01 -8.9009145939e+00 2.5958314232e+01 1.7770000000e+00 0.0000e+00 -1.0000e+00
       15  1    1    2    0    0 -1.1627090902e+01 -1.3656942083e+00 -1.8744959564e+02 1.8782322273e+02 1.7770000000e+00 0.0000e+00 1.0000e+00
</event>
<event>
 6 1 7.08916e-05 5.05641600e+02 7.54677100e-03 9.38727400e-02
      -11 -1    0    0    0    0 +0.0000000000e+00 +0.0000000000e+00 +5.0000000000e+02 5.0000000000e+02 0.0000000000e+00 0.0000e+00 -1.0000e+00
       11 -1    0    0    0    0 -0.0000000000e+00 -0.0000000000e+00 -5.0000000000e+02 5.0000000000e+02 0.0000000000e+00 0.0000e+00 -1.0000e+00
      -11  1    1    2    0    0 +8.0420681965e+00 -9.4731220805e-01 +2.3374179291e+02 2.3388201729e+02 0.0000000000e+00 0.0000e+00 -1.0000e+00
       11  1    1    2    0    0 -1.3159931054e+01 +2.9637681335e+01 -4.9329370782e+02 4.9435843081e+02 0.0000000000e+00 0.0000e+00 -1.0000e+00
      -15  1    1    2    0    0 -5.6629952615e+00 +7.0972406446e-01 +2.2505997274e+02 2.2513933970e+02 1.7770000000e+00 0.0000e+00 -1.0000e+00
       15  1    1    2    0    0 +1.0780858119e+01 -2.9400093192e+01 +3.4491942167e+01 4.6620212193e+01 1.7770000000e+00 0.0000e+00 1.0000e+00
</event>
<event>
 6 1 7.08916e-05 5.07899400e+02 7.54677100e-03 9.38230600e-02
      -11 -1    0    0    0    0 +0.0000000000e+00 +0.0000000000e+00 +5.0000000000e+02 5.0000000000e+02 0.0000000000e+00 0.0000e+00 -1.0000e+00
       11 -1    0    0    0    0 -0.0000000000e+00 -0.0000000000e+00 -5.0000000000e+02 5.0000000000e+02 0.0000000000e+00 0.0000e+00 -1.0000e+00
      -11  1    1    2    0    0 +2.9082495610e-01 +9.6458391362e+00 +3.1268842964e+02 3.1283730727e+02 0.0000000000e+00 0.0000e+00 -1.0000e+00
       11  1    1    2    0    0 -1.6714862413e+01 -2.8479655706e+01 -4.9099140545e+02 4.9210063771e+02 0.0000000000e+00 0.0000e+00 -1.0000e+00
      -15  1    1    2    0    0 +1.9424496505e+01 +2.6018514077e+01 +2.3664310031e+01 4.0217302713e+01 1.7770000000e+00 0.0000e+00 -1.0000e+00
       15  1    1    2    0    0 -3.0004590486e+00 -7.1846975075e+00 +1.5463866578e+02 1.5484475230e+02 1.7770000000e+00 0.0000e+00 1.0000e+00
</event>
<event>
 6 1 7.08916e-05 5.11234200e+02 7.54677100e-03 9.37501700e-02
      -11 -1    0    0    0    0 +0.0000000000e+00 +0.0000000000e+00 +5.0000000000e+02 5.0000000000e+02 0.0000000000e+00 0.0000e+00 -1.0000e+00
       11 -1    0    0    0    0 -0.0000000000e+00 -0.0000000000e+00 -5.0000000000e+02 5.0000000000e+02 0.0000000000e+00 0.0000e+00 1.0000e+00
      -11  1    1    2    0    0 -1.0629865478e+01 -8.2323548618e+00 +4.7355894878e+02 4.7374976905e+02 0.0000000000e+00 0.0000e+00 -1.0000e+00
       11  1    1    2    0    0 -9.0499138145e+00 +9.7055062181e+00 -4.8858557289e+02 4.8876575149e+02 0.0000000000e+00 0.0000e+00 1.0000e+00
      -15  1    1    2    0    0 +1.4473389701e+01 +2.4435114212e+00 +2.2808161037e+01 2.7181237948e+01 1.7770000000e+00 0.0000e+00 1.0000e+00
       15  1    1    2    0    0 +5.2063895919e+00 -3.9166627774e+00 -7.7815369223e+00 1.0303241518e+01 1.7770000000e+00 0.0000e+00 -1.0000e+00
</event>
<event>
 6 1 7.08916e-05 5.02283500e+02 7.54677100e-03 9.39471500e-02
      -11 -1    0    0    0    0 +0.0000000000e+00 +0.0000000000e+00 +5.0000000000e+02 5.0000000000e+02 0.0000000000e+00 0.0000e+00 -1.0000e+00
       11 -1    0    0    0    0 -0.0000000000e+00 -0.0000000000e+00 -5.0000000000e+02 5.0000000000e+02 0.0000000000e+00 0.0000e+00 1.0000e+00
      -11  1    1    2    0    0 -2.5408017922e+00 -7.5025794121e+00 +4.8311366012e+02 4.8317859324e+02 0.0000000000e+00 0.0000e+00 -1.0000e+00
       11  1    1    2    0    0 -4.5295076006e+00 +4.9819521615e+00 -4.9767093383e+02 4.9771648020e+02 0.0000000000e+00 0.0000e+00 1.0000e+00
      -15  1    1    2    0    0 +3.1070089671e+00 -5.2807835759e-01 +7.9168406598e-03 3.6180330498e+00 1.7770000000e+00 0.0000e+00 1.0000e+00
       15  1    1    2    0    0 +3.9633004257e+00 +3.0487056082e+00 +1.4549356872e+01 1.5486893508e+01 1.7770000000e+00 0.0000e+00 -1.0000e+00
</event>
<event>
 6 1 7.08916e-05 5.03545200e+02 7.54677100e-03 9.39191200e-02
      -11 -1    0    0    0    0 +0.0000000000e+00 +0.0000000000e+00 +5.0000000000e+02 5.0000000000e+02 0.0000000000e+00 0.0000e+00 -1.0000e+00
       11 -1    0    0    0    0 -0.0000000000e+00 -0.0000000000e+00 -5.0000000000e+02 5.0000000000e+02 0.0000000000e+00 0.0000e+00 1.0000e+00
      -11  1    1    2    0    0 -1.7961726142e+01 -5.7251087914e+00 +3.6963954308e+02 3.7011997012e+02 0.0000000000e+00 0.0000e+00 -1.0000e+00
       11  1    1    2    0    0 +1.3020355528e+01 -2.1575541424e+00 -4.9627930073e+02 4.9645476030e+02 0.0000000000e+00 0.0000e+00 1.0000e+00
      -15  1    1    2    0    0 +9.5476222975e+00 -9.1284836788e+00 +1.3732493041e+01 1.9137016485e+01 1.7770000000e+00 0.0000e+00 1.0000e+00
       15  1    1    2    0    0 -4.6062516834e+00 +1.7011146613e+01 +1.1290726461e+02 1.1428825309e+02 1.7770000000e+00 0.0000e+00 -1.0000e+00
</event>
<event>
 6 1 7.08916e-05 5.01758300e+02 7.54677100e-03 9.39588400e-02
      -11 -1    0    0    0    0 +0.0000000000e+00 +0.0000000000e+00 +5.0000000000e+02 5.0000000000e+02 0.0000000000e+00 0.0000e+00 1.0000e+00
       11 -1    0    0    0    0 -0.0000000000e+00 -0.0000000000e+00 -5.0000000000e+02 5.0000000000e+02 0.0000000000e+00 0.0000e+00 -1.0000e+00
      -11  1    1    2    0    0 +1.4093328034e+01 -1.0085910364e+01 +2.8292801086e+02 2.8345829819e+02 0.0000000000e+00 0.0000e+00 1.0000e+00
       11  1    1    2    0    0 +6.8756222349e+00 -1.0082015351e+01 -4.9809221096e+02 4.9824168015e+02 0.0000000000e+00 0.0000e+00 -1.0000e+00
      -15  1    1    2    0    0 -1.9660853218e+01 +1.9594512047e+01 +2.1388468544e+02 2.1568567511e+02 1.7770000000e+00 0.0000e+00 1.0000e+00
       15  1    1    2    0    0 -1.3080970509e+00 +5.7341366838e-01 +1.2795146630e+00 2.6143465536e+00 1.7770000000e+00 0.0000e+00 -1.0000e+00
</event>
<event>
 6 1 7.08916e-05 4.86153000e+02 7.54677100e-03 9.43133800e-02
      -11 -1    0    0    0    0 +0.0000000000e+00 +0.0000000000e+00 +5.0000000000e+02 5.0000000000e+02 0.0000000000e+00 0.0000e+00 -1.0000e+00
       11 -1    0    0    0    0 -0.0000000000e+00 -0.0000000000e+00 -5.0000000000e+02 5.0000000000e+02 0.0000000000e+00 0.0000e+00 1.0000e+00
      -11  1    1    2    0    0 -7.8039569700e-01 -7.9935425035e+00 +4.8123768148e+02 4.8130469748e+02 0.0000000000e+00 0.0000e+00 -1.0000e+00
       11  1    1    2    0    0 +3.4090749906e+00 -1.0695270259e+01 -4.9110623446e+02 4.9123451031e+02 0.0000000000e+00 0.0000e+00 1.0000e+00
      -15  1    1    2    0    0 -5.5380463409e+00 +6.8697667359e+00 +1.1975126620e+01 1.4980822369e+01 1.7770000000e+00 0.0000e+00 -1.0000e+00
       15  1    1    2    0    0 +2.9093670473e+00 +1.1819046027e+01 -2.1065736495e+00 1.2479969837e+01 1.7770000000e+00 0.0000e+00 1.0000e+00
</event>
<event>
 6 1 7.08916e-05 5.01185900e+02 7.54677100e-03 9.39716000e-02
      -11 -1    0    0    0    0 +0.0000000000e+00 +0.0000000000e+00 +5.0000000000e+02 5.0000000000e+02 0.0000000000e+00 0.0000e+00 1.0000e+00
       11 -1    0    0    0    0 -0.0000000000e+00 -0.0000000000e+00 -5.0000000000e+02 5.0000000000e+02 0.0000000000e+00 0.0000e+00 1.0000e+00
      -11  1    1    2    0    0 +8.1422507168e-01 +1.3115675100e+01 +3.7403445294e+01 3.9644692150e+01 0.0000000000e+00 0.0000e+00 1.0000e+00
       11  1    1    2    0    0 +1.6642420236e+00 -1.4335845853e+01 -4.9860531566e+02 4.9881414072e+02 0.0000000000e+00 0.0000e+00 1.0000e+00
      -15  1    1    2    0    0 +2.1417399514e+00 -6.4330234022e+00 +2.9996782941e+02 3.0004970797e+02 1.7770000000e+00 0.0000e+00 -1.0000e+00
       15  1    1    2    0    0 -4.6202070467e+00 +7.6531941553e+00 +1.6123404095e+02 1.6149145917e+02 1.7770000000e+00 0.0000e+00 1.0000e+00
</event>
<event>
 6 1 7.08916e-05 5.02650700e+02 7.54677100e-03 9.39389800e-02
      -11 -1    0    0    0    0 +0.0000000000e+00 +0.0000000000e+00 +5.0000000000e+02 5.0000000000e+02 0.0000000000e+00 0.0000e+00 -1.0000e+00
       11 -1    0    0    0    0 -0.0000000000e+00 -0.0000000000e+00 -5.0000000000e+02 5.0000000000e+02 0.0000000000e+00 0.0000e+00 -1.0000e+00
      -11  1    1    2    0    0 -7.3987230482e+00 +2.6315084331e+00 +4.9728726537e+02 4.9734926383e+02 0.0000000000e+00 0.0000e+00 -1.0000e+00
       11  1    1    2    0    0 -3.8002640736e+00 +1.4125619358e+01 -4.3151392752e+02 4.3176179170e+02 0.0000000000e+00 0.0000e+00 -1.0000e+00
      -15  1    1    2    0    0 +1.3273964741e+01 -1.4580024601e+01 -3.7540445564e+01 4.2440759176e+01 1.7770000000e+00 0.0000e+00 1.0000e+00
       15  1    1    2    0    0 -2.0749776188e+00 -2.1771031902e+00 -2.8232892289e+01 2.8448185293e+01 1.7770000000e+00 0.0000e+00 -1.0000e+00
</event>
<event>
 6 1 7.08916e-05 5.08440000e+02 7.54677100e-03 9.38112000e-02
      -11 -1    0    0    0    0 +0.0000000000e+00 +0.0000000000e+00 +5.0000000000e+02 5.0000000000e+02 0.0000000000e+00 0.0000e+00 -1.0000e+00
       11 -1    0    0    0    0 -0.0000000000e+00 -0.0000000000e+00 -5.0000000000e+02 5.0000000000e+02 0.0000000000e+00 0.0000e+00 -1.0000e+00
      -11  1    1    2    0    0 +8.2601665933e+00 +1.0919754627e+01 +4.6797470589e+02 4.6817496381e+02 0.0000000000e+00 0.0000e+00 -1.0000e+00
       11  1    1    2    0    0 -3.7699531826e+00 +1.4380275901e+01 -4.9133518653e+02 4.9156003744e+02 0.0000000000e+00 0.0000e+00 -1.0000e+00
      -15  1    1    2    0    0 +2.0579543393e+00 -2.8736643614e+00 +1.4800379955e+01 1.5319990168e+01 1.7770000000e+00 0.0000e+00 -1.0000e+00
       15  1    1    2    0    0 -6.5481677500e+00 -2.2426366167e+01 +8.5601006883e+00 2.4945008581e+01 1.7770000000e+00 0.0000e+00 1.0000e+00
</event>
<event>
 6 1 7.08916e-05 4.79816100e+02 7.54677100e-03 9.44614100e-02
      -11 -1    0    0    0    0 +0.0000000000e+00 +0.0000000000e+00 +5.0000000000e+02 5.0000000000e+02 0.0000000000e+00 0.0000e+00 -1.0000e+00
       11 -1    0    0    0    0 -0.0000000000e+00 -0.0000000000e+00 -5.0000000000e+02 5.0000000000e+02 0.0000000000e+00 0.0000e+00 1.0000e+00
      -11  1    1    2    0    0 +6.1961278548e+00 +1.1704455875e+01 +4.7924706130e+02 4.7943000746e+02 0.0000000000e+00 0.0000e+00 -1.0000e+00
       11  1    1    2    0    0 -6.3877535012e+00 -1.5190021866e+00 -4.8021194781e+02 4.8025683293e+02 0.0000000000e+00 0.0000e+00 1.0000e+00
      -15  1    1    2    0    0 -4.3685008430e+00 -1.0607560346e+01 +1.8644861702e+01 2.1963440828e+01 1.7770000000e+00 0.0000e+00 1.0000e+00
       15  1    1    2    0    0 +4.5601264894e+00 +4.2210665805e-01 -1.7679975193e+01 1.8349718784e+01 1.7770000000e+00 0.0000e+00 1.0000e+00
</event>
<event>
 6 1 7.08916e-05 5.01589700e+02 7.54677100e-03 9.39626000e-02
      -11 -1    0    0    0    0 +0.0000000000e+00 +0.0000000000e+00 +5.0000000000e+02 5.0000000000e+02 0.0000000000e+00 0.0000e+00 -1.0000e+00
       11 -1    0    0    0    0 -0.0000000000e+00 -0.0000000000e+00 -5.0000000000e+02 5.0000000000e+02 0.0000000000e+00 0.0000e+00 -1.0000e+00
      -11  1    1    2    0    0 -2.3295772467e+00 -4.2051618202e+00 +3.4641389684e+02 3.4644725174e+02 0.0000000000e+00 0.0000e+00 -1.0000e+00
       11  1    1    2    0    0 -2.5638349607e+01 +1.0663972748e+01 -4.9763621555e+02 4.9841032124e+02 0.0000000000e+00 0.0000e+00 -1.0000e+00
      -15  1    1    2    0    0 +6.4377940058e+00 -6.8073337351e+00 +2.0047488280e+01 2.2200101342e+01 1.7770000000e+00 0.0000e+00 -1.0000e+00
       15  1    1    2    0    0 +2.1530132848e+01 +3.4852280689e-01 +1.3117483043e+02 1.3294232568e+02 1.7770000000e+00 0.0000e+00 1.0000e+00
</event>
<event>
 6 1 7.08916e-05 5.02976800e+02 7.54677100e-03 9.39317300e-02
      -11 -1    0    0    0    0 +0.0000000000e+00 +0.0000000000e+00 +5.0000000000e+02 5.0000000000e+02 0.0000000000e+00 0.0000e+00 -1.0000e+00
       11 -1    0    0    0    0 -0.0000000000e+00 -0.0000000000e+00 -5.0000000000e+02 5.0000000000e+02 0.0000000000e+00 0.0000e+00 1.0000e+00
      -11  1    1    2    0    0 +1.7667677669e+01 +5.2832912066e+00 +4.2829694844e+02 4.2869375554e+02 0.0000000000e+00 0.0000e+00 -1.0000e+00
       11  1    1    2    0    0 -2.5099576348e-01 +1.0175814404e+01 -4.9691897342e+02 4.9702321509e+02 0.0000000000e+00 0.0000e+00 1.0000e+00
      -15  1    1    2    0    0 +7.1548372040e-01 -8.6934530823e+00 +1.8676981177e+01 2.0689983044e+01 1.7770000000e+00 0.0000e+00 1.0000e+00
       15  1    1    2    0    0 -1.8132165626e+01 -6.7656525284e+00 +4.9945043805e+01 5.3593046322e+01 1.7770000000e+00 0.0000e+00 -1.0000e+00
</event>
<event>
 6 1 7.08916e-05 5.05745400e+02 7.54677100e-03 9.38704500e-02
      -11 -1    0    0    0    0 +0.0000000000e+00 +0.0000000000e+00 +5.0000000000e+02 5.0000000000e+02 0.0000000000e+00 0.0000e+00 -1.0000e+00
       11 -1    0    0    0    0 -0.0000000000e+00 -0.0000000000e+00 -5.0000000000e+02 5.0000000000e+02 0.0000000000e+00 0.0000e+00 1.0000e+00
      -11  1    1    2    0    0 +7.4461511365e+00 -5.4733433310e-01 +3.5747739036e+02 3.5755535146e+02 0.0000000000e+00 0.0000e+00 -1.0000e+00
       11  1    1    2    0    0 +1.6001856490e+01 +2.1969615984e+01 -4.9350668541e+02 4.9425456192e+02 0.0000000000e+00 0.0000e+00 1.0000e+00
      -15  1    1    2    0    0 -1.7489462109e+00 -7.2933280796e+00 +1.1367469567e+02 1.1393570824e+02 1.7770000000e+00 0.0000e+00 -1.0000e+00
       15  1    1    2    0    0 -2.1699061416e+01 -1.4128953571e+01 +2.2354599378e+01 3.4254378373e+01 1.7770000000e+00 0.0000e+00 1.0000e+00
</event>
<event>
 7 1 7.08916e-05 5.31840900e+02 7.54677100e-03 9.33125300e-02
      -11 -1    0    0    0    0 +0.0000000000e+00 +0.0000000000e+00 +5.0000000000e+02 5.0000000000e+02 0.0000000000e+00 0.0000e+00 1.0000e+00
       11 -1    0    0    0    0 -0.0000000000e+00 -0.0000000000e+00 -5.0000000000e+02 5.0000000000e+02 0.0000000000e+00 0.0000e+00 1.0000e+00
       23  2    1    2    0    0 -4.8160740806e+01 -9.4858644238e+01 +2.2495187453e+02 2.6938348318e+02 1.0318185798e+02 0.0000e+00 0.0000e+00
      -11  1    1    2    0    0 +4.7314785117e+01 +8.6774343203e+01 +2.4313664218e+02 2.6245742950e+02 0.0000000000e+00 0.0000e+00 1.0000e+00
       11  1    1    2    0    0 +8.4595568854e-01 +8.0843010350e+00 -4.6808851671e+02 4.6815908732e+02 0.0000000000e+00 0.0000e+00 1.0000e+00
      -15  1    3    3    0    0 -1.4648852099e+01 -5.5911256953e-02 -7.1747448063e+00 1.6408128654e+01 1.7770000000e+00 0.0000e+00 1.0000e+00
       15  1    3    3    0    0 -3.3511888706e+01 -9.4802732981e+01 +2.3212661933e+02 2.5297535452e+02 1.7770000000e+00 0.0000e+00 -1.0000e+00
</event>
<event>
 6 1 7.08916e-05 5.00423600e+02 7.54677100e-03 9.39886200e-02
      -11 -1    0    0    0    0 +0.0000000000e+00 +0.0000000000e+00 +5.0000000000e+02 5.0000000000e+02 0.0000000000e+00 0.0000e+00 1.0000e+00
       11 -1    0    0    0    0 -0.0000000000e+00 -0.0000000000e+00 -5.0000000000e+02 5.0000000000e+02 0.0000000000e+00 0.0000e+00 1.0000e+00
      -11  1    1    2    0    0 +7.8940110000e+00 -3.8759536491e+00 +4.9949896141e+02 4.9957637142e+02 0.0000000000e+00 0.0000e+00 1.0000e+00
       11  1    1    2    0    0 +5.8121715192e+00 +1.6410228186e+00 -2.6246904734e+02 2.6253852118e+02 0.0000000000e+00 0.0000e+00 1.0000e+00
      -15  1    1    2    0    0 -3.0613749688e-01 +2.6147005026e+00 -1.2524106885e+02 1.2528133714e+02 1.7770000000e+00 0.0000e+00 1.0000e+00
       15  1    1    2    0    0 -1.3400045022e+01 -3.7976967203e-01 -1.1178884523e+02 1.1260377027e+02 1.7770000000e+00 0.0000e+00 -1.0000e+00
</event>
<event>
 6 1 7.08916e-05 5.07139900e+02 7.54677100e-03 9.38397400e-02
      -11 -1    0    0    0    0 +0.0000000000e+00 +0.0000000000e+00 +5.0000000000e+02 5.0000000000e+02 0.0000000000e+00 0.0000e+00 1.0000e+00
       11 -1    0    0    0    0 -0.0000000000e+00 -0.0000000000e+00 -5.0000000000e+02 5.0000000000e+02 0.0000000000e+00 0.0000e+00 -1.0000e+00
      -11  1    1    2    0    0 +1.6668326680e+01 -5.4036123854e+00 +4.2930992724e+02 4.2966736642e+02 0.0000000000e+00 0.0000e+00 1.0000e+00
       11  1    1    2    0    0 +1.8410010021e+01 +8.5569624764e+00 -4.9244180577e+02 4.9286010403e+02 0.0000000000e+00 0.0000e+00 -1.0000e+00
      -15  1    1    2    0    0 -3.7125236795e+01 -6.9284330853e+00 +4.5098732781e+01 5.8850147150e+01 1.7770000000e+00 0.0000e+00 -1.0000e+00
       15  1    1    2    0    0 +2.0469000938e+00 +3.7750829943e+00 +1.8033145746e+01 1.8622382396e+01 1.7770000000e+00 0.0000e+00 1.0000e+00
</event>
<event>
 6 1 7.08916e-05 5.02726800e+02 7.54677100e-03 9.39372900e-02
      -11 -1    0    0    0    0 +0.0000000000e+00 +0.0000000000e+00 +5.0000000000e+02 5.0000000000e+02 0.0000000000e+00 0.0000e+00 -1.0000e+00
       11 -1    0    0    0    0 -0.0000000000e+00 -0.0000000000e+00 -5.0000000000e+02 5.0000000000e+02 0.0000000000e+00 0.0000e+00 -1.0000e+00
      -11  1    1    2    0    0 +3.1923209834e+00 -6.2291946302e+00 +4.9722396581e+02 4.9727323069e+02 0.0000000000e+00 0.0000e+00 -1.0000e+00
       11  1    1    2    0    0 -1.1546202027e+01 +3.8766860179e+00 -4.6092562433e+02 4.6108651535e+02 0.0000000000e+00 0.0000e+00 -1.0000e+00
      -15  1    1    2    0    0 +8.1180600872e+00 +9.4857427281e-01 -3.7928574169e+01 3.8839891352e+01 1.7770000000e+00 0.0000e+00 -1.0000e+00
       15  1    1    2    0    0 +2.3582095653e-01 +1.4039343395e+00 +1.6302326845e+00 2.8003626121e+00 1.7770000000e+00 0.0000e+00 1.0000e+00
</event>
<event>
 6 1 7.08916e-05 5.01423200e+02 7.54677100e-03 9.39663100e-02
      -11 -1    0    0    0    0 +0.0000000000e+00 +0.0000000000e+00 +5.0000000000e+02 5.0000000000e+02 0.0000000000e+00 0.0000e+00 1.0000e+00
       11 -1    0    0    0    0 -0.0000000000e+00 -0.0000000000e+00 -5.0000000000e+02 5.0000000000e+02 0.0000000000e+00 0.0000e+00 1.0000e+00
      -11  1    1    2    0    0 -6.2031292871e+00 -6.8964531854e+00 +4.5049599277e+02 4.5059147726e+02 0.0000000000e+00 0.0000e+00 1.0000e+00
       11  1    1    2    0    0 +4.5041199744e+00 -5.5546184553e+00 -4.9852549555e+02 4.9857678506e+02 0.0000000000e+00 0.0000e+00 1.0000e+00
      -15  1    1    2    0    0 -3.0108214448e+00 +6.7392933598e+00 +1.3650129278e+01 1.5619439140e+01 1.7770000000e+00 0.0000e+00 -1.0000e+00
       15  1    1    2    0    0 +4.7098307575e+00 +5.7117782809e+00 +3.4379373506e+01 3.5212298541e+01 1.7770000000e+00 0.0000e+00 1.0000e+00
</event>
<event>
 6 1 7.08916e-05 5.02884800e+02 7.54677100e-03 9.39337800e-02
      -11 -1    0    0    0    0 +0.0000000000e+00 +0.0000000000e+00 +5.0000000000e+02 5.0000000000e+02 0.0000000000e+00 0.0000e+00 -1.0000e+00
       11 -1    0    0    0    0 -0.0000000000e+00 -0.0000000000e+00 -5.0000000000e+02 5.0000000000e+02 0.0000000000e+00 0.0000e+00 1.0000e+00
      -11  1    1    2    0    0 -6.2157920920e+01 +4.6106381885e+01 +4.3468492370e+02 4.4152054140e+02 0.0000000000e+00 0.0000e+00 -1.0000e+00
       11  1    1    2    0    0 +7.7525595165e+01 -7.6052454380e+01 -4.8510749480e+02 4.9711515289e+02 0.0000000000e+00 0.0000e+00 1.0000e+00
      -15  1    1    2    0    0 -2.4700175062e+00 +6.0754206525e+00 +5.0408679425e+00 8.4604846906e+00 1.7770000000e+00 0.0000e+00 1.0000e+00
       15  1    1    2    0    0 -1.2897656739e+01 +2.3870651843e+01 +4.5381703153e+01 5.2903821023e+01 1.7770000000e+00 0.0000e+00 1.0000e+00
</event>
<event>
 6 1 7.08916e-05 5.01727900e+02 7.54677100e-03 9.39595200e-02
      -11 -1    0    0    0    0 +0.0000000000e+00 +0.0000000000e+00 +5.0000000000e+02 5.0000000000e+02 0.0000000000e+00 0.0000e+00 1.0000e+00
       11 -1    0    0    0    0 -0.0000000000e+00 -0.0000000000e+00 -5.0000000000e+02 5.0000000000e+02 0.0000000000e+00 0.0000e+00 -1.0000e+00
      -11  1    1    2    0    0 -6.6644600148e+00 -1.4613839952e+01 +3.8718686508e+02 3.8751986766e+02 0.0000000000e+00 0.0000e+00 1.0000e+00
       11  1    1    2    0    0 +1.8207184983e+00 -6.7392666350e+00 -4.9822317035e+02 4.9827207448e+02 0.0000000000e+00 0.0000e+00 -1.0000e+00
      -15  1    1    2    0    0 +5.2104137825e+00 +1.7084868602e+01 +1.0535928774e+02 1.0687739887e+02 1.7770000000e+00 0.0000e+00 1.0000e+00
       15  1    1    2    0    0 -3.6667226591e-01 +4.2682379854e+00 +5.6770175366e+00 7.3306589855e+00 1.7770000000e+00 0.0000e+00 -1.0000e+00
</event>
<event>
 6 1 7.08916e-05 5.00652900e+02 7.54677100e-03 9.39835000e-02
      -11 -1    0    0    0    0 +0.0000000000e+00 +0.0000000000e+00 +5.0000000000e+02 5.0000000000e+02 0.0000000000e+00 0.0000e+00 1.0000e+00
       11 -1    0    0    0    0 -0.0000000000e+00 -0.0000000000e+00 -5.0000000000e+02 5.0000000000e+02 0.0000000000e+00 0.0000e+00 -1.0000e+00
      -11  1    1    2    0    0 +3.8152411597e+00 +8.3973094194e-01 +2.6180716282e+02 2.6183630710e+02 0.0000000000e+00 0.0000e+00 1.0000e+00
       11  1    1    2    0    0 +1.0545648632e+00 -7.3926563627e+00 -4.9929121202e+02 4.9934705153e+02 0.0000000000e+00 0.0000e+00 -1.0000e+00
      -15  1    1    2    0    0 +9.2470977993e-01 -5.5483002262e+00 +1.6340256357e+02 1.6350900353e+02 1.7770000000e+00 0.0000e+00 1.0000e+00
       15  1    1    2    0    0 -5.7945158028e+00 +1.2101225647e+01 +7.4081485626e+01 7.5307637841e+01 1.7770000000e+00 0.0000e+00 -1.0000e+00
</event>
<event>
 6 1 7.08916e-05 5.00209700e+02 7.54677100e-03 9.39934100e-02
      -11 -1    0    0    0    0 +0.0000000000e+00 +0.0000000000e+00 +5.0000000000e+02 5.0000000000e+02 0.0000000000e+00 0.0000e+00 1.0000e+00
       11 -1    0    0    0    0 -0.0000000000e+00 -0.0000000000e+00 -5.0000000000e+02 5.0000000000e+02 0.0000000000e+00 0.0000e+00 1.0000e+00
      -11  1    1    2    0    0 -1.0955704949e+00 -7.6285850122e+00 +4.9973088871e+02 4.9979031275e+02 0.0000000000e+00 0.0000e+00 1.0000e+00
       11  1    1    2    0    0 +3.1951617629e+00 -3.2877367844e+00 -2.8549646864e+02 2.8553327630e+02 0.0000000000e+00 0.0000e+00 1.0000e+00
      -15  1    1    2    0    0 +7.6492133672e-01 +8.5570690389e+00 -1.7659255228e+02 1.7681033846e+02 1.7770000000e+00 0.0000e+00 1.0000e+00
       15  1    1    2    0    0 -2.8645126047e+00 +2.3592527576e+00 -3.7641867792e+01 3.7866072491e+01 1.7770000000e+00 0.0000e+00 -1.0000e+00
</event>
<event>
 6 1 7.08916e-05 5.00844500e+02 7.54677100e-03 9.39792200e-02
      -11 -1    0    0    0    0 +0.0000000000e+00 +0.0000000000e+00 +5.0000000000e+02 5.0000000000e+02 0.0000000000e+00 0.0000e+00 -1.0000e+00
       11 -1    0    0    0    0 -0.0000000000e+00 -0.0000000000e+00 -5.0000000000e+02 5.0000000000e+02 0.0000000000e+00 0.0000e+00 1.0000e+00
      -11  1    1    2    0    0 +6.1657313534e+00 -7.3465515454e+00 +3.7236254413e+02 3.7248604314e+02 0.0000000000e+00 0.0000e+00 -1.0000e+00
       11  1    1    2    0    0 -7.6401425276e+00 +1.3444770886e+01 -4.9891589612e+02 4.9915549185e+02 0.0000000000e+00 0.0000e+00 1.0000e+00
      -15  1    1    2    0    0 +3.8915470592e+00 -7.9919412665e+00 +1.2301257196e+02 1.2334612216e+02 1.7770000000e+00 0.0000e+00 -1.0000e+00
       15  1    1    2    0    0 -2.4171358849e+00 +1.8937219260e+00 +3.5407800271e+00 5.0123428474e+00 1.7770000000e+00 0.0000e+00 1.0000e+00
</event>
<event>
 6 1 7.08916e-05 5.85027000e+02 7.54677100e-03 9.22738500e-02
      -11 -1    0    0    0    0 +0.0000000000e+00 +0.0000000000e+00 +5.0000000000e+02 5.0000000000e+02 0.0000000000e+00 0.0000e+00 -1.0000e+00
       11 -1    0    0    0    0 -0.0000000000e+00 -0.0000000000e+00 -5.0000000000e+02 5.0000000000e+02 0.0000000000e+00 0.0000e+00 1.0000e+00
      -11  1    1    2    0    0 -4.1331864512e+00 +1.0292612801e+01 +4.1482474123e+02 4.1497299556e+02 0.0000000000e+00 0.0000e+00 -1.0000e+00
       11  1    1    2    0    0 +1.0064880013e+01 +2.8958752417e+00 -2.6955880143e+02 2.6976218291e+02 0.0000000000e+00 0.0000e+00 1.0000e+00
      -15  1    1    2    0    0 -1.6120085019e+01 +8.0574357156e+01 +5.1544223676e+01 9.7015714683e+01 1.7770000000e+00 0.0000e+00 1.0000e+00
       15  1    1    2    0    0 +1.0188391457e+01 -9.3762845198e+01 -1.9681016348e+02 2.1824910684e+02 1.7770000000e+00 0.0000e+00 -1.0000e+00
</event>
<event>
 6 1 7.08916e-05 4.88318500e+02 7.54677100e-03 9.42633400e-02
      -11 -1    0    0    0    0 +0.0000000000e+00 +0.0000000000e+00 +5.0000000000e+02 5.0000000000e+02 0.0000000000e+00 0.0000e+00 1.0000e+00
       11 -1    0    0    0    0 -0.0000000000e+00 -0.0000000000e+00 -5.0000000000e+02 5.0000000000e+02 0.0000000000e+00 0.0000e+00 -1.0000e+00
      -11  1    1    2    0    0 -3.5395728993e+00 -9.5597190512e+00 +4.8651238705e+02 4.8661917303e+02 0.0000000000e+00 0.0000e+00 1.0000e+00
       11  1    1    2    0    0 +5.1990875454e+00 -5.3450202831e+00 -4.9008267403e+02 4.9013939562e+02 0.0000000000e+00 0.0000e+00 -1.0000e+00
      -15  1    1    2    0    0 +4.9616634149e-01 +1.4126594286e+00 +8.3425306672e+00 8.6601001514e+00 1.7770000000e+00 0.0000e+00 1.0000e+00
       15  1    1    2    0    0 -2.1556809876e+00 +1.3492079906e+01 -4.7722436902e+00 1.4581331199e+01 1.7770000000e+00 0.0000e+00 -1.0000e+00
</event>
<event>
 6 1 7.08916e-05 5.04523800e+02 7.54677100e-03 9.38974400e-02
      -11 -1    0    0    0    0 +0.0000000000e+00 +0.0000000000e+00 +5.0000000000e+02 5.0000000000e+02 0.0000000000e+00 0.0000e+00 -1.0000e+00
       11 -1    0    0    0    0 -0.0000000000e+00 -0.0000000000e+00 -5.0000000000e+02 5.0000000000e+02 0.0000000000e+00 0.0000e+00 1.0000e+00
      -11  1    1    2    0    0 +1.9876841943e+01 -8.1744362746e-01 +4.9507669331e+02 4.9547622478e+02 0.0000000000e+00 0.0000e+00 -1.0000e+00
       11  1    1    2    0    0 +2.8361674671e+00 -5.8855264860e+00 -4.5247160757e+02 4.5251877190e+02 0.0000000000e+00 0.0000e+00 1.0000e+00
      -15  1    1    2    0    0 -2.1306503625e+01 -8.0591214314e-01 -2.6238609018e+01 3.3856150450e+01 1.7770000000e+00 0.0000e+00 -1.0000e+00
       15  1    1    2    0    0 -1.4065057855e+00 +7.5088822566e+00 -1.6366476723e+01 1.8148852872e+01 1.7770000000e+00 0.0000e+00 1.0000e+00
</event>
<event>
 6 1 7.08916e-05 5.06669400e+02 7.54677100e-03 9.38500900e-02
      -11 -1    0    0    0    0 +0.0000000000e+00 +0.0000000000e+00 +5.0000000000e+02 5.0000000000e+02 0.0000000000e+00 0.0000e+00 -1.0000e+00
       11 -1    0    0    0    0 -0.0000000000e+00 -0.0000000000e+00 -5.0000000000e+02 5.0000000000e+02 0.0000000000e+00 0.0000e+00 1.0000e+00
      -11  1    1    2    0    0 +5.6407222457e+00 +2.6082603446e+01 +4.9260829176e+02 4.9333056774e+02 0.0000000000e+00 0.0000e+00 -1.0000e+00
       11  1    1    2    0    0 +1.3608628401e+01 +1.3956296546e+01 -4.1932090759e+02 4.1977374444e+02 0.0000000000e+00 0.0000e+00 1.0000e+00
      -15  1    1    2    0    0 -3.6154447134e+00 -1.5850860815e+00 -3.0716349301e+00 5.3081643254e+00 1.7770000000e+00 0.0000e+00 1.0000e+00
       15  1    1    2    0    0 -1.5633905934e+01 -3.8453813910e+01 -7.0215749241e+01 8.1587523492e+01 1.7770000000e+00 0.0000e+00 -1.0000e+00
</event>
<event>
 6 1 7.08916e-05 5.12409400e+02 7.54677100e-03 9.37246300e-02
      -11 -1    0    0    0    0 +0.0000000000e+00 +0.0000000000e+00 +5.0000000000e+02 5.0000000000e+02 0.0000000000e+00 0.0000e+00 1.0000e+00
       11 -1    0    0    0    0 -0.0000000000e+00 -0.0000000000e+00 -5.0000000000e+02 5.0000000000e+02 0.0000000000e+00 0.0000e+00 1.0000e+00
      -11  1    1    2    0    0 +1.7325871469e+01 +5.9645653547e+00 +4.8724612981e+02 4.8759055864e+02 0.0000000000e+00 0.0000e+00 1.0000e+00
       11  1    1    2    0    0 +5.4064554156e-02 +7.4000305974e+00 -4.5496272705e+02 4.5502290753e+02 0.0000000000e+00 0.0000e+00 1.0000e+00
      -15  1    1    2    0    0 -2.6567068169e+00 -1.6833538913e+01 +4.3802327886e+00 1.7685312882e+01 1.7770000000e+00 0.0000e+00 -1.0000e+00
       15  1    1    2    0    0 -1.4723229206e+01 +3.4689429609e+00 -3.6663635554e+01 3.9701220945e+01 1.7770000000e+00 0.0000e+00 1.0000e+00
</event>
<event>
 6 1 7.08916e-05 5.01132300e+02 7.54677100e-03 9.39728000e-02
      -11 -1    0    0    0    0 +0.0000000000e+00 +0.0000000000e+00 +5.0000000000e+02 5.0000000000e+02 0.0000000000e+00 0.0000e+00 -1.0000e+00
       11 -1    0    0    0    0 -0.0000000000e+00 -0.0000000000e+00 -5.0000000000e+02 5.0000000000e+02 0.0000000000e+00 0.0000e+00 -1.0000e+00
      -11  1    1    2    0    0 +1.4540504303e+01 +2.0057888485e+01 +4.9825221569e+02 4.9886773357e+02 0.0000000000e+00 0.0000e+00 -1.0000e+00
       11  1    1    2    0    0 +6.2007219557e+00 +5.7870676728e+00 -2.6737135424e+02 2.6750585072e+02 0.0000000000e+00 0.0000e+00 -1.0000e+00
      -15  1    1    2    0    0 -2.0872438933e+01 -2.1153029016e+01 -2.1240060199e+02 2.1447676517e+02 1.7770000000e+00 0.0000e+00 -1.0000e+00
       15  1    1    2    0    0 +1.3121267497e-01 -4.6919271414e+00 -1.8480259459e+01 1.9149650538e+01 1.7770000000e+00 0.0000e+00 1.0000e+00
</event>
<event>
 6 1 7.08916e-05 4.86114100e+02 7.54677100e-03 9.43142800e-02
      -11 -1    0    0    0    0 +0.0000000000e+00 +0.0000000000e+00 +5.0000000000e+02 5.0000000000e+02 0.0000000000e+00 0.0000e+00 1.0000e+00
       11 -1    0    0    0    0 -0.0000000000e+00 -0.0000000000e+00 -5.0000000000e+02 5.0000000000e+02 0.0000000000e+00 0.0000e+00 -1.0000e+00
      -11  1    1    2    0    0 -7.6427288945e+00 -4.9440216992e+00 +4.8849228817e+02 4.8857708732e+02 0.0000000000e+00 0.0000e+00 1.0000e+00
       11  1    1    2    0    0 +1.1678697584e+01 +1.5993142455e+01 -4.8333037024e+02 4.8373589838e+02 0.0000000000e+00 0.0000e+00 -1.0000e+00
      -15  1    1    2    0    0 +1.7589253228e+00 +1.6206955039e+00 +7.9393654715e+00 8.4800781422e+00 1.7770000000e+00 0.0000e+00 1.0000e+00
       15  1    1    2    0    0 -5.7948940126e+00 -1.2669816260e+01 -1.3101283401e+01 1.9206936154e+01 1.7770000000e+00 0.0000e+00 -1.0000e+00
</event>
<event>
 6 1 7.08916e-05 5.00440100e+02 7.54677100e-03 9.39882500e-02
      -11 -1    0    0    0    0 +0.0000000000e+00 +0.0000000000e+00 +5.0000000000e+02 5.0000000000e+02 0.0000000000e+00 0.0000e+00 1.0000e+00
       11 -1    0    0    0    0 -0.0000000000e+00 -0.0000000000e+00 -5.0000000000e+02 5.0000000000e+02 0.0000000000e+00 0.0000e+00 -1.0000e+00
      -11  1    1    2    0    0 +1.4713650645e+00 +3.9901145894e+00 +2.6947111139e+02 2.6950466749e+02 0.0000000000e+00 0.0000e+00 1.0000e+00
       11  1    1    2    0    0 +7.8015954074e+00 +1.9829140442e+00 -4.9949500109e+02 4.9955985923e+02 0.0000000000e+00 0.0000e+00 -1.0000e+00
      -15  1    1    2    0    0 -1.3109663678e+00 +5.7222145901e+00 +8.0420606364e+01 8.0654163127e+01 1.7770000000e+00 0.0000e+00 -1.0000e+00
       15  1    1    2    0    0 -7.9619941041e+00 -1.1695243224e+01 +1.4960328334e+02 1.5028131015e+02 1.7770000000e+00 0.0000e+00 1.0000e+00
</event>
<event>
 6 1 7.08916e-05 5.03648400e+02 7.54677100e-03 9.39168300e-02
      -11 -1    0    0    0    0 +0.0000000000e+00 +0.0000000000e+00 +5.0000000000e+02 5.0000000000e+02 0.0000000000e+00 0.0000e+00 -1.0000e+00
       11 -1    0    0    0    0 -0.0000000000e+00 -0.0000000000e+00 -5.0000000000e+02 5.0000000000e+02 0.0000000000e+00 0.0000e+00 -1.0000e+00
      -11  1    1    2    0    0 +8.0980152876e-01 +1.4214521605e+01 +4.9614738711e+02 4.9635162752e+02 0.0000000000e+00 0.0000e+00 -1.0000e+00
       11  1    1    2    0    0 +1.4329872924e+01 -1.5759226680e+01 -4.2930090441e+02 4.2982899508e+02 0.0000000000e+00 0.0000e+00 -1.0000e+00
      -15  1    1    2    0    0 +2.5046132651e+00 -9.3039502188e+00 -1.4538508241e+01 1.7531757703e+01 1.7770000000e+00 0.0000e+00 1.0000e+00
       15  1    1    2    0    0 -1.7644287718e+01 +1.0848655294e+01 -5.2307974460e+01 5.6287619704e+01 1.7770000000e+00 0.0000e+00 -1.0000e+00
</event>
<event>
 6 1 7.08916e-05 4.84599600e+02 7.54677100e-03 9.43494400e-02
      -11 -1    0    0    0    0 +0.0000000000e+00 +0.0000000000e+00 +5.0000000000e+02 5.0000000000e+02 0.0000000000e+00 0.0000e+00 -1.0000e+00
       11 -1    0    0    0    0 -0.0000000000e+00 -0.0000000000e+00 -5.0000000000e+02 5.0000000000e+02 0.0000000000e+00 0.0000e+00 1.0000e+00
      -11  1    1    2    0    0 -1.1986322062e+01 +3.4391008092e+00 +4.8608155718e+02 4.8624148276e+02 0.0000000000e+00 0.0000e+00 -1.0000e+00
       11  1    1    2    0    0 +4.7601060356e+00 -6.5431618033e+00 -4.8292696652e+02 4.8299474797e+02 0.0000000000e+00 0.0000e+00 1.0000e+00
      -15  1    1    2    0    0 +1.0781982526e+00 +7.8370383633e+00 -1.4672137236e+01 1.6763383365e+01 1.7770000000e+00 0.0000e+00 1.0000e+00
       15  1    1    2    0    0 +6.1480177741e+00 -4.7329773692e+00 +1.1517546575e+01 1.4000385903e+01 1.7770000000e+00 0.0000e+00 1.0000e+00
</event>
<event>
 6 1 7.08916e-05 5.12614100e+02 7.54677100e-03 9.37201900e-02
      -11 -1    0    0    0    0 +0.0000000000e+00 +0.0000000000e+00 +5.0000000000e+02 5.0000000000e+02 0.0000000000e+00 0.0000e+00 1.0000e+00
       11 -1    0    0    0    0 -0.0000000000e+00 -0.0000000000e+00 -5.0000000000e+02 5.0000000000e+02 0.0000000000e+00 0.0000e+00 -1.0000e+00
      -11  1    1    2    0    0 -4.4986391311e+00 +1.0754409782e+01 +4.8724647780e+02 4.8738590994e+02 0.0000000000e+00 0.0000e+00 1.0000e+00
       11  1    1    2    0    0 +2.1196612320e-01 +9.7694020759e+00 -2.9939989556e+02 2.9955931568e+02 0.0000000000e+00 0.0000e+00 -1.0000e+00
      -15  1    1    2    0    0 +3.1781025978e+00 -9.5144279588e+00 +1.0361126004e+01 1.4530496777e+01 1.7770000000e+00 0.0000e+00 1.0000e+00
       15  1    1    2    0    0 +1.1085704101e+00 -1.1009383900e+01 -1.9820770824e+02 1.9852427760e+02 1.7770000000e+00 0.0000e+00 -1.0000e+00
</event>
<event>
 6 1 7.08916e-05 5.09702300e+02 7.54677100e-03 9.37835800e-02
      -11 -1    0    0    0    0 +0.0000000000e+00 +0.0000000000e+00 +5.0000000000e+02 5.0000000000e+02 0.0000000000e+00 0.0000e+00 1.0000e+00
       11 -1    0    0    0    0 -0.0000000000e+00 -0.0000000000e+00 -5.0000000000e+02 5.0000000000e+02 0.0000000000e+00 0.0000e+00 -1.0000e+00
      -11  1    1    2    0    0 -8.5186863005e+00 +5.9541334441e+00 +4.9018754078e+02 4.9029771044e+02 0.0000000000e+00 0.0000e+00 1.0000e+00
       11  1    1    2    0    0 +9.5542217196e+00 -3.3143760594e+00 -4.8125904688e+02 4.8136528587e+02 0.0000000000e+00 0.0000e+00 -1.0000e+00
      -15  1    1    2    0    0 +4.9109563424e+00 -4.0852214849e+00 +7.9168092836e+00 1.0326670568e+01 1.7770000000e+00 0.0000e+00 1.0000e+00
       15  1    1    2    0    0 -5.9464917616e+00 +1.4454641002e+00 -1.6845303191e+01 1.8010333126e+01 1.7770000000e+00 0.0000e+00 1.0000e+00
</event>
<event>
 6 1 7.08916e-05 5.01115700e+02 7.54677100e-03 9.39731700e-02
      -11 -1    0    0    0    0 +0.0000000000e+00 +0.0000000000e+00 +5.0000000000e+02 5.0000000000e+02 0.0000000000e+00 0.0000e+00 -1.0000e+00
       11 -1    0    0    0    0 -0.0000000000e+00 -0.0000000000e+00 -5.0000000000e+02 5.0000000000e+02 0.0000000000e+00 0.0000e+00 1.0000e+00
      -11  1    1    2    0    0 -7.3475201711e+00 -4.4207968548e+00 +4.3870424526e+02 4.3878804030e+02 0.0000000000e+00 0.0000e+00 -1.0000e+00
       11  1    1    2    0    0 +5.8973235594e+00 +6.6357766964e+00 -4.9880528082e+02 4.9888427529e+02 0.0000000000e+00 0.0000e+00 1.0000e+00
      -15  1    1    2    0    0 -4.5192157222e+00 -4.6501799224e+00 +1.1925789819e+01 1.3690495822e+01 1.7770000000e+00 0.0000e+00 1.0000e+00
       15  1    1    2    0    0 +5.9694123338e+00 +2.4352000808e+00 +4.8175245738e+01 4.8637188590e+01 1.7770000000e+00 0.0000e+00 -1.0000e+00
</event>
<event>
 6 1 7.08916e-05 5.09518000e+02 7.54677100e-03 9.37876100e-02
      -11 -1    0    0    0    0 +0.0000000000e+00 +0.0000000000e+00 +5.0000000000e+02 5.0000000000e+02 0.0000000000e+00 0.0000e+00 1.0000e+00
       11 -1    0    0    0    0 -0.0000000000e+00 -0.0000000000e+00 -5.0000000000e+02 5.0000000000e+02 0.0000000000e+00 0.0000e+00 1.0000e+00
      -11  1    1    2    0    0 +6.0977993589e+00 -7.4949153011e+00 +4.5012641813e+02 4.5023010695e+02 0.0000000000e+00 0.0000e+00 1.0000e+00
       11  1    1    2    0    0 +5.9307224428e+00 -1.6780777480e+01 -4.9015893505e+02 4.9048195641e+02 0.0000000000e+00 0.0000e+00 1.0000e+00
      -15  1    1    2    0    0 -1.8776448309e+01 +1.1671244475e+01 +3.8972632986e+01 4.4841909076e+01 1.7770000000e+00 0.0000e+00 -1.0000e+00
       15  1    1    2    0    0 +6.7479265076e+00 +1.2604448306e+01 +1.0598839336e+00 1.4446027558e+01 1.7770000000e+00 0.0000e+00 1.0000e+00
</event>
<event>
 6 1 7.08916e-05 5.31975000e+02 7.54677100e-03 9.33097500e-02
      -11 -1    0    0    0    0 +0.0000000000e+00 +0.0000000000e+00 +5.0000000000e+02 5.0000000000e+02 0.0000000000e+00 0.0000e+00 -1.0000e+00
       11 -1    0    0    0    0 -0.0000000000e+00 -0.0000000000e+00 -5.0000000000e+02 5.0000000000e+02 0.0000000000e+00 0.0000e+00 1.0000e+00
      -11  1    1    2    0    0 -9.1852111875e+00 -6.5988326004e+00 +4.6788837234e+02 4.6802504384e+02 0.0000000000e+00 0.0000e+00 -1.0000e+00
       11  1    1    2    0    0 -9.2304646255e+00 -4.4854558873e+00 -4.3773552049e+02 4.3785580582e+02 0.0000000000e+00 0.0000e+00 1.0000e+00
      -15  1    1    2    0    0 +2.6682082428e+01 +7.4139429036e+00 +2.5512724580e+01 3.7695582189e+01 1.7770000000e+00 0.0000e+00 1.0000e+00
       15  1    1    2    0    0 -8.2664066146e+00 +3.6703455841e+00 -5.5665576429e+01 5.6423568154e+01 1.7770000000e+00 0.0000e+00 -1.0000e+00
</event>
<event>
 6 1 7.08916e-05 5.69282200e+02 7.54677100e-03 9.25687400e-02
      -11 -1    0    0    0    0 +0.0000000000e+00 +0.0000000000e+00 +5.0000000000e+02 5.0000000000e+02 0.0000000000e+00 0.0000e+00 1.0000e+00
       11 -1    0    0    0    0 -0.0000000000e+00 -0.0000000000e+00 -5.0000000000e+02 5.0000000000e+02 0.0000000000e+00 0.0000e+00 -1.0000e+00
      -11  1    1    2    0    0 +8.6826183477e+00 +1.3987481561e+01 +4.3040308001e+02 4.3071782965e+02 0.0000000000e+00 0.0000e+00 1.0000e+00
       11  1    1    2    0    0 -5.3180973578e+01 +1.0563294091e+01 -3.5860633307e+02 3.6268209392e+02 0.0000000000e+00 0.0000e+00 -1.0000e+00
      -15  1    1    2    0    0 +5.4353167944e+01 -1.5174206721e+01 -1.3267855998e+02 1.4419182162e+02 1.7770000000e+00 0.0000e+00 1.0000e+00
       15  1    1    2    0    0 -9.8548127136e+00 -9.3765689304e+00 +6.0881813047e+01 6.2408254802e+01 1.7770000000e+00 0.0000e+00 1.0000e+00
</event>
<event>
 6 1 7.08916e-05 5.64813600e+02 7.54677100e-03 9.26542800e-02
      -11 -1    0    0    0    0 +0.0000000000e+00 +0.0000000000e+00 +5.0000000000e+02 5.0000000000e+02 0.0000000000e+00 0.0000e+00 -1.0000e+00
       11 -1    0    0    0    0 -0.0000000000e+00 -0.0000000000e+00 -5.0000000000e+02 5.0000000000e+02 0.0000000000e+00 0.0000e+00 1.0000e+00
      -11  1    1    2    0    0 +4.6767895307e+00 +7.0558232057e+00 +4.2700042634e+02 4.2708432551e+02 0.0000000000e+00 0.0000e+00 -1.0000e+00
       11  1    1    2    0    0 -6.2940854643e+00 -1.2157443005e+01 -4.3497101410e+02 4.3518639919e+02 0.0000000000e+00 0.0000e+00 1.0000e+00
      -15  1    1    2    0    0 -2.5889534830e+01 +2.8855278260e+01 -5.3621686416e+01 6.6191676821e+01 1.7770000000e+00 0.0000e+00 1.0000e+00
       15  1    1    2    0    0 +2.7506830764e+01 -2.3753658461e+01 +6.1592274178e+01 7.1537598481e+01 1.7770000000e+00 0.0000e+00 -1.0000e+00
</event>
<event>
 6 1 7.08916e-05 5.01291000e+02 7.54677100e-03 9.39692600e-02
      -11 -1    0    0    0    0 +0.0000000000e+00 +0.0000000000e+00 +5.0000000000e+02 5.0000000000e+02 0.0000000000e+00 0.0000e+00 1.0000e+00
       11 -1    0    0    0    0 -0.0000000000e+00 -0.0000000000e+00 -5.0000000000e+02 5.0000000000e+02 0.0000000000e+00 0.0000e+00 1.0000e+00
      -11  1    1    2    0    0 +7.8666084267e+00 -4.1618090145e+00 +4.0730991185e+02 4.0740712865e+02 0.0000000000e+00 0.0000e+00 1.0000e+00
       11  1    1    2    0    0 -6.1199750483e+00 -1.2673731823e+01 -4.9851038796e+02 4.9870901784e+02 0.0000000000e+00 0.0000e+00 1.0000e+00
      -15  1    1    2    0    0 -1.3594307501e+00 +1.4058991739e+01 +8.8406299587e+01 8.9545155293e+01 1.7770000000e+00 0.0000e+00 1.0000e+00
       15  1    1    2    0    0 -3.8720262825e-01 +2.7765490984e+00 +2.7941765217e+00 4.3386982156e+00 1.7770000000e+00 0.0000e+00 -1.0000e+00
</event>
<event>
 6 1 7.08916e-05 5.15070600e+02 7.54677100e-03 9.36670600e-02
      -11 -1    0    0    0    0 +0.0000000000e+00 +0.0000000000e+00 +5.0000000000e+02 5.0000000000e+02 0.0000000000e+00 0.0000e+00 -1.0000e+00
       11 -1    0    0    0    0 -0.0000000000e+00 -0.0000000000e+00 -5.0000000000e+02 5.0000000000e+02 0.0000000000e+00 0.0000e+00 -1.0000e+00
      -11  1    1    2    0    0 -1.9758337116e+00 +6.2439341407e-01 +1.3425235770e+02 1.3426834822e+02 0.0000000000e+00 0.0000e+00 -1.0000e+00
       11  1    1    2    0    0 +3.1440311187e+01 +4.4602855317e+00 -4.8388857604e+02 4.8492941893e+02 0.0000000000e+00 0.0000e+00 -1.0000e+00
      -15  1    1    2    0    0 +1.5195586343e+00 -7.1380485363e+00 +3.4961874534e+02 3.4969942182e+02 1.7770000000e+00 0.0000e+00 -1.0000e+00
       15  1    1    2    0    0 -3.0984036110e+01 +2.0533695905e+00 +1.7473005511e-02 3.1102811041e+01 1.7770000000e+00 0.0000e+00 1.0000e+00
</event>
<event>
 6 1 7.08916e-05 4.36364400e+02 7.54677100e-03 9.55466600e-02
      -11 -1    0    0    0    0 +0.0000000000e+00 +0.0000000000e+00 +5.0000000000e+02 5.0000000000e+02 0.0000000000e+00 0.0000e+00 -1.0000e+00
       11 -1    0    0    0    0 -0.0000000000e+00 -0.0000000000e+00 -5.0000000000e+02 5.0000000000e+02 0.0000000000e+00 0.0000e+00 1.0000e+00
      -11  1    1    2    0    0 +1.4563678048e+01 -7.1817784972e+00 +4.3387606376e+02 4.3417982146e+02 0.0000000000e+00 0.0000e+00 -1.0000e+00
       11  1    1    2    0    0 +7.3007757472e+01 -1.8580284675e+01 -4.3686699008e+02 4.4331492942e+02 0.0000000000e+00 0.0000e+00 1.0000e+00
      -15  1    1    2    0    0 -1.4867437985e+01 -8.1319101181e+00 +3.2758798638e+01 3.6925130895e+01 1.7770000000e+00 0.0000e+00 1.0000e+00
       15  1    1    2    0    0 -7.2703997535e+01 +3.3893973291e+01 -2.9767872319e+01 8.5580118219e+01 1.7770000000e+00 0.0000e+00 -1.0000e+00
</event>
<event>
 6 1 7.08916e-05 5.05668800e+02 7.54677100e-03 9.38721400e-02
      -11 -1    0    0    0    0 +0.0000000000e+00 +0.0000000000e+00 +5.0000000000e+02 5.0000000000e+02 0.0000000000e+00 0.0000e+00 1.0000e+00
       11 -1    0    0    0    0 -0.0000000000e+00 -0.0000000000e+00 -5.0000000000e+02 5.0000000000e+02 0.0000000000e+00 0.0000e+00 -1.0000e+00
      -11  1    1    2    0    0 +5.7376364735e+00 -2.7352031804e+01 +4.9354055582e+02 4.9433119906e+02 0.0000000000e+00 0.0000e+00 1.0000e+00
       11  1    1    2    0    0 -7.9152720793e+00 +4.9361161635e+00 -4.2353875873e+02 4.2364147215e+02 0.0000000000e+00 0.0000e+00 -1.0000e+00
      -15  1    1    2    0    0 +1.5498606703e-01 +1.1763137873e+01 -7.0036146686e+01 7.1039531283e+01 1.7770000000e+00 0.0000e+00 -1.0000e+00
       15  1    1    2    0    0 +2.0226495387e+00 +1.0652777768e+01 +3.4349592269e-02 1.0987797515e+01 1.7770000000e+00 0.0000e+00 1.0000e+00
</event>
<event>
 6 1 7.08916e-05 4.94789700e+02 7.54677100e-03 9.41154400e-02
      -11 -1    0    0    0    0 +0.0000000000e+00 +0.0000000000e+00 +5.0000000000e+02 5.0000000000e+02 0.0000000000e+00 0.0000e+00 -1.0000e+00
       11 -1    0    0    0    0 -0.0000000000e+00 -0.0000000000e+00 -5.0000000000e+02 5.0000000000e+02 0.0000000000e+00 0.0000e+00 -1.0000e+00
      -11  1    1    2    0    0 -1.7450823985e-01 +1.7821567199e+01 +4.9891341980e+02 4.9923164881e+02 0.0000000000e+00 0.0000e+00 -1.0000e+00
       11  1    1    2    0    0 +4.5924712910e-01 +8.2515509936e-01 -1.1755298815e+01 1.1793169171e+01 0.0000000000e+00 0.0000e+00 -1.0000e+00
      -15  1    1    2    0    0 -1.7443431709e+01 -1.5727287048e+01 -3.3181421327e+02 3.3264914058e+02 1.7770000000e+00 0.0000e+00 -1.0000e+00
       15  1    1    2    0    0 +1.7158692820e+01 -2.9194352507e+00 -1.5534390771e+02 1.5632604145e+02 1.7770000000e+00 0.0000e+00 1.0000e+00
</event>
<event>
 6 1 7.08916e-05 5.01054100e+02 7.54677100e-03 9.39745400e-02
      -11 -1    0    0    0    0 +0.0000000000e+00 +0.0000000000e+00 +5.0000000000e+02 5.0000000000e+02 0.0000000000e+00 0.0000e+00 1.0000e+00
       11 -1    0    0    0    0 -0.0000000000e+00 -0.0000000000e+00 -5.0000000000e+02 5.0000000000e+02 0.0000000000e+00 0.0000e+00 1.0000e+00
      -11  1    1    2    0    0 +1.7889959372e+01 +4.2390132990e+00 +4.9860707356e+02 4.9894592261e+02 0.0000000000e+00 0.0000e+00 1.0000e+00
       11  1    1    2    0    0 -9.1473393424e+00 -1.8712308595e+01 -2.9648582653e+02 2.9721653662e+02 0.0000000000e+00 0.0000e+00 1.0000e+00
      -15  1    1    2    0    0 -2.1398385673e-02 +1.6772109959e+01 -1.4560678842e+02 1.4658034893e+02 1.7770000000e+00 0.0000e+00 -1.0000e+00
       15  1    1    2    0    0 -8.7212216436e+00 -2.2988146632e+00 -5.6514458611e+01 5.7257191835e+01 1.7770000000e+00 0.0000e+00 1.0000e+00
</event>
<event>
 6 1 7.08916e-05 5.12488600e+02 7.54677100e-03 9.37229100e-02
      -11 -1    0    0    0    0 +0.0000000000e+00 +0.0000000000e+00 +5.0000000000e+02 5.0000000000e+02 0.0000000000e+00 0.0000e+00 1.0000e+00
       11 -1    0    0    0    0 -0.0000000000e+00 -0.0000000000e+00 -5.0000000000e+02 5.0000000000e+02 0.0000000000e+00 0.0000e+00 -1.0000e+00
      -11  1    1    2    0    0 +3.0454677305e+00 +6.4963405478e+00 +4.0523043420e+02 4.0529394532e+02 0.0000000000e+00 0.0000e+00 1.0000e+00
       11  1    1    2    0    0 +3.7261679913e+00 +5.6206521381e+00 -4.8746477614e+02 4.8751141939e+02 0.0000000000e+00 0.0000e+00 -1.0000e+00
      -15  1    1    2    0    0 -2.0604843594e+01 -3.3169532089e+01 +3.0339356709e+01 4.9481428163e+01 1.7770000000e+00 0.0000e+00 -1.0000e+00
       15  1    1    2    0    0 +1.3833207872e+01 +2.1052539403e+01 +5.1894985232e+01 5.7713207125e+01 1.7770000000e+00 0.0000e+00 1.0000e+00
</event>
<event>
 6 1 7.08916e-05 5.01639100e+02 7.54677100e-03 9.39615000e-02
      -11 -1    0    0    0    0 +0.0000000000e+00 +0.0000000000e+00 +5.0000000000e+02 5.0000000000e+02 0.0000000000e+00 0.0000e+00 -1.0000e+00
       11 -1    0    0    0    0 -0.0000000000e+00 -0.0000000000e+00 -5.0000000000e+02 5.0000000000e+02 0.0000000000e+00 0.0000e+00 -1.0000e+00
      -11  1    1    2    0    0 -5.8125156334e+00 -5.5822621437e+00 +4.9829573590e+02 4.9836090076e+02 0.0000000000e+00 0.0000e+00 -1.0000e+00
       11  1    1    2    0    0 -8.3672601579e+00 +3.4377174921e-01 -4.5111997954e+02 4.5119770075e+02 0.0000000000e+00 0.0000e+00 -1.0000e+00
      -15  1    1    2    0    0 +8.0642280757e+00 +3.5101986219e+00 -1.4093363618e+01 1.6707300677e+01 1.7770000000e+00 0.0000e+00 -1.0000e+00
       15  1    1    2    0    0 +6.1155477156e+00 +1.7282917726e+00 -3.3082392748e+01 3.3734097813e+01 1.7770000000e+00 0.0000e+00 1.0000e+00
</event>
<event>
 6 1 7.08916e-05 5.00185700e+02 7.54677100e-03 9.39939400e-02
      -11 -1    0    0    0    0 +0.0000000000e+00 +0.0000000000e+00 +5.0000000000e+02 5.0000000000e+02 0.0000000000e+00 0.0000e+00 -1.0000e+00
       11 -1    0    0    0    0 -0.0000000000e+00 -0.0000000000e+00 -5.0000000000e+02 5.0000000000e+02 0.0000000000e+00 0.0000e+00 1.0000e+00
      -11  1    1    2    0    0 -3.0911938079e+01 -2.0481136064e+01 +4.9843689211e+02 4.9981432579e+02 0.0000000000e+00 0.0000e+00 -1.0000e+00
       11  1    1    2    0    0 +2.1384733216e+01 +1.5486138375e+01 -2.3312524879e+02 2.3461566214e+02 0.0000000000e+00 0.0000e+00 1.0000e+00
      -15  1    1    2    0    0 +6.5236233877e+00 +3.8689450485e+00 -1.5256540422e+02 1.5276415382e+02 1.7770000000e+00 0.0000e+00 1.0000e+00
       15  1    1    2    0    0 +3.0035814751e+00 +1.1260526407e+00 -1.1274623910e+02 1.1280585825e+02 1.7770000000e+00 0.0000e+00 1.0000e+00
</event>
<event>
 6 1 7.08916e-05 4.82806200e+02 7.54677100e-03 9.43912600e-02
      -11 -1    0    0    0    0 +0.0000000000e+00 +0.0000000000e+00 +5.0000000000e+02 5.0000000000e+02 0.0000000000e+00 0.0000e+00 1.0000e+00
       11 -1    0    0    0    0 -0.0000000000e+00 -0.0000000000e+00 -5.0000000000e+02 5.0000000000e+02 0.0000000000e+00 0.0000e+00 -1.0000e+00
      -11  1    1    2    0    0 +1.4480806647e+01 +2.1863603770e+01 +4.8570753454e+02 4.8641496692e+02 0.0000000000e+00 0.0000e+00 1.0000e+00
       11  1    1    2    0    0 -1.2340214337e+01 +8.5061582951e+00 -4.7946327672e+02 4.7969747689e+02 0.0000000000e+00 0.0000e+00 -1.0000e+00
      -15  1    1    2    0    0 -4.4573575954e+00 -3.1426858793e+00 +2.6203622598e-01 5.7420295413e+00 1.7770000000e+00 0.0000e+00 1.0000e+00
       15  1    1    2    0    0 +2.3167652850e+00 -2.7227076186e+01 -6.5062940515e+00 2.8145526648e+01 1.7770000000e+00 0.0000e+00 -1.0000e+00
</event>
<event>
 6 1 7.08916e-05 5.00124500e+02 7.54677100e-03 9.39953100e-02
      -11 -1    0    0    0    0 +0.0000000000e+00 +0.0000000000e+00 +5.0000000000e+02 5.0000000000e+02 0.0000000000e+00 0.0000e+00 1.0000e+00
       11 -1    0    0    0    0 -0.0000000000e+00 -0.0000000000e+00 -5.0000000000e+02 5.0000000000e+02 0.0000000000e+00 0.0000e+00 1.0000e+00
      -11  1    1    2    0    0 +1.1071721087e+01 -6.4639773159e+00 +4.9971102989e+02 4.9987546390e+02 0.0000000000e+00 0.0000e+00 1.0000e+00
       11  1    1    2    0    0 +5.6600334258e-01 -2.5927688028e+00 -1.5238318544e+02 1.5240629257e+02 0.0000000000e+00 0.0000e+00 1.0000e+00
      -15  1    1    2    0    0 -1.1804160307e+00 +2.6159579295e+00 -4.0835596906e+01 4.0974874271e+01 1.7770000000e+00 0.0000e+00 -1.0000e+00
       15  1    1    2    0    0 -1.0457308399e+01 +6.4407881893e+00 -3.0649224754e+02 3.0674336926e+02 1.7770000000e+00 0.0000e+00 1.0000e+00
</event>
<event>
 6 1 7.08916e-05 5.00629200e+02 7.54677100e-03 9.39840300e-02
      -11 -1    0    0    0    0 +0.0000000000e+00 +0.0000000000e+00 +5.0000000000e+02 5.0000000000e+02 0.0000000000e+00 0.0000e+00 1.0000e+00
       11 -1    0    0    0    0 -0.0000000000e+00 -0.0000000000e+00 -5.0000000000e+02 5.0000000000e+02 0.0000000000e+00 0.0000e+00 1.0000e+00
      -11  1    1    2    0    0 -4.0102970348e-02 +5.4320963457e+00 +3.6588568645e+02 3.6592601005e+02 0.0000000000e+00 0.0000e+00 1.0000e+00
       11  1    1    2    0    0 +8.7452730049e+00 -5.5805172375e+00 -4.9926303410e+02 4.9937080330e+02 0.0000000000e+00 0.0000e+00 1.0000e+00
      -15  1    1    2    0    0 -4.8643637523e+00 -1.1439154917e-01 +1.0081373529e+01 1.1334325802e+01 1.7770000000e+00 0.0000e+00 1.0000e+00
       15  1    1    2    0    0 -3.8408062823e+00 +2.6281244103e-01 +1.2329597412e+02 1.2336886084e+02 1.7770000000e+00 0.0000e+00 -1.0000e+00
</event>
<event>
 6 1 7.08916e-05 5.13496500e+02 7.54677100e-03 9.37010700e-02
      -11 -1    0    0    0    0 +0.0000000000e+00 +0.0000000000e+00 +5.0000000000e+02 5.0000000000e+02 0.0000000000e+00 0.0000e+00 1.0000e+00
       11 -1    0    0    0    0 -0.0000000000e+00 -0.0000000000e+00 -5.0000000000e+02 5.0000000000e+02 0.0000000000e+00 0.0000e+00 1.0000e+00
      -11  1    1    2    0    0 -9.2339554636e+01 -1.2032012832e+01 +4.7750839954e+02 4.8650347822e+02 0.0000000000e+00 0.0000e+00 1.0000e+00
       11  1    1    2    0    0 +4.0105857605e+00 +2.4371237445e+00 -2.0478939600e+02 2.0484316216e+02 0.0000000000e+00 0.0000e+00 1.0000e+00
      -15  1    1    2    0    0 +6.1645576395e+00 +3.6482911153e-01 -1.9518804003e+02 1.9529378784e+02 1.7770000000e+00 0.0000e+00 1.0000e+00
       15  1    1    2    0    0 +8.2164411236e+01 +9.2300599755e+00 -7.7530963512e+01 1.1335957178e+02 1.7770000000e+00 0.0000e+00 -1.0000e+00
</event>
<event>
 6 1 7.08916e-05 5.03437700e+02 7.54677100e-03 9.39215000e-02
      -11 -1    0    0    0    0 +0.0000000000e+00 +0.0000000000e+00 +5.0000000000e+02 5.0000000000e+02 0.0000000000e+00 0.0000e+00 1.0000e+00
       11 -1    0    0    0    0 -0.0000000000e+00 -0.0000000000e+00 -5.0000000000e+02 5.0000000000e+02 0.0000000000e+00 0.0000e+00 -1.0000e+00
      -11  1    1    2    0    0 -1.9806028127e+00 -1.5810293379e+01 +4.1652132829e+02 4.1682598898e+02 0.0000000000e+00 0.0000e+00 1.0000e+00
       11  1    1    2    0    0 +1.2203266538e+01 +4.8881091801e+00 -4.9638825928e+02 4.9656229949e+02 0.0000000000e+00 0.0000e+00 -1.0000e+00
      -15  1    1    2    0    0 -7.7216345357e+00 -4.1192344048e+00 +6.3679928631e+01 6.4303054138e+01 1.7770000000e+00 0.0000e+00 1.0000e+00
       15  1    1    2    0    0 -2.5010291901e+00 +1.5041418604e+01 +1.6187002355e+01 2.2308657397e+01 1.7770000000e+00 0.0000e+00 -1.0000e+00
</event>
<event>
 6 1 7.08916e-05 5.00915000e+02 7.54677100e-03 9.39776500e-02
      -11 -1    0    0    0    0 +0.0000000000e+00 +0.0000000000e+00 +5.0000000000e+02 5.0000000000e+02 0.0000000000e+00 0.0000e+00 1.0000e+00
       11 -1    0    0    0    0 -0.0000000000e+00 -0.0000000000e+00 -5.0000000000e+02 5.0000000000e+02 0.0000000000e+00 0.0000e+00 1.0000e+00
      -11  1    1    2    0    0 +9.2347831479e+00 +6.1531776914e+00 +4.9896158798e+02 4.9908497182e+02 0.0000000000e+00 0.0000e+00 1.0000e+00
       11  1    1    2    0    0 -4.7651703616e+00 +3.1348811510e-01 -1.3406017470e+02 1.3414520329e+02 0.0000000000e+00 0.0000e+00 1.0000e+00
      -15  1    1    2    0    0 -3.0549098006e-01 -1.4339487945e+01 -5.9380376174e+01 6.1113836754e+01 1.7770000000e+00 0.0000e+00 -1.0000e+00
       15  1    1    2    0    0 -4.1641218062e+00 +7.8728221382e+00 -3.0552103711e+02 3.0565598813e+02 1.7770000000e+00 0.0000e+00 1.0000e+00
</event>
<event>
 6 1 7.08916e-05 5.00049300e+02 7.54677100e-03 9.39969900e-02
      -11 -1    0    0    0    0 +0.0000000000e+00 +0.0000000000e+00 +5.0000000000e+02 5.0000000000e+02 0.0000000000e+00 0.0000e+00 -1.0000e+00
       11 -1    0    0    0    0 -0.0000000000e+00 -0.0000000000e+00 -5.0000000000e+02 5.0000000000e+02 0.0000000000e+00 0.0000e+00 1.0000e+00
      -11  1    1    2    0    0 +1.3475586628e+00 +7.3637709994e-01 +9.8745440219e+01 9.8757380127e+01 0.0000000000e+00 0.0000e+00 -1.0000e+00
       11  1    1    2    0    0 -2.7003950712e+00 +6.6609029351e+00 -4.9989905731e+02 4.9995072483e+02 0.0000000000e+00 0.0000e+00 1.0000e+00
      -15  1    1    2    0    0 -1.6409163240e+00 -1.0295504032e-01 +1.0590757436e+02 1.0593524079e+02 1.7770000000e+00 0.0000e+00 1.0000e+00
       15  1    1    2    0    0 +2.9937527324e+00 -7.2943249947e+00 +2.9524604273e+02 2.9535665425e+02 1.7770000000e+00 0.0000e+00 -1.0000e+00
</event>
<event>
 6 1 7.08916e-05 5.29081200e+02 7.54677100e-03 9.33699100e-02
      -11 -1    0    0    0    0 +0.0000000000e+00 +0.0000000000e+00 +5.0000000000e+02 5.0000000000e+02 0.0000000000e+00 0.0000e+00 -1.0000e+00
       11 -1    0    0    0    0 -0.0000000000e+00 -0.0000000000e+00 -5.0000000000e+02 5.0000000000e+02 0.0000000000e+00 0.0000e+00 -1.0000e+00
      -11  1    1    2    0    0 -1.8416098352e+01 +3.7259708312e+01 +4.2366722069e+02 4.2570101296e+02 0.0000000000e+00 0.0000e+00 -1.0000e+00
       11  1    1    2    0    0 +5.5134350757e+00 -5.9137205291e+00 -4.7084943609e+02 4.7091884813e+02 0.0000000000e+00 0.0000e+00 -1.0000e+00
      -15  1    1    2    0    0 -1.0056998037e+01 -2.8832027788e+01 +6.6512906053e+01 7.3208971011e+01 1.7770000000e+00 0.0000e+00 1.0000e+00
       15  1    1    2    0    0 +2.2959661313e+01 -2.5139599944e+00 -1.9330690656e+01 3.0171167904e+01 1.7770000000e+00 0.0000e+00 -1.0000e+00
</event>
<event>
 6 1 7.08916e-05 5.00668300e+02 7.54677100e-03 9.39831600e-02
      -11 -1    0    0    0    0 +0.0000000000e+00 +0.0000000000e+00 +5.0000000000e+02 5.0000000000e+02 0.0000000000e+00 0.0000e+00 -1.0000e+00
       11 -1    0    0    0    0 -0.0000000000e+00 -0.0000000000e+00 -5.0000000000e+02 5.0000000000e+02 0.0000000000e+00 0.0000e+00 1.0000e+00
      -11  1    1    2    0    0 +8.9220473599e+00 -1.1463745629e+01 +4.9912040001e+02 4.9933174754e+02 0.0000000000e+00 0.0000e+00 -1.0000e+00
       11  1    1    2    0    0 +1.1252057756e+00 +2.6306561379e+00 -1.5240539230e+02 1.5243224738e+02 0.0000000000e+00 0.0000e+00 1.0000e+00
      -15  1    1    2    0    0 -5.3670127414e+00 -5.0146570562e+00 -2.7083888203e+02 2.7094429198e+02 1.7770000000e+00 0.0000e+00 1.0000e+00
       15  1    1    2    0    0 -4.6802403940e+00 +1.3847746548e+01 -7.5876125694e+01 7.7291713100e+01 1.7770000000e+00 0.0000e+00 -1.0000e+00
</event>
<event>
 6 1 7.08916e-05 4.97022400e+02 7.54677100e-03 9.40649700e-02
      -11 -1    0    0    0    0 +0.0000000000e+00 +0.0000000000e+00 +5.0000000000e+02 5.0000000000e+02 0.0000000000e+00 0.0000e+00 -1.0000e+00
       11 -1    0    0    0    0 -0.0000000000e+00 -0.0000000000e+00 -5.0000000000e+02 5.0000000000e+02 0.0000000000e+00 0.0000e+00 1.0000e+00
      -11  1    1    2    0    0 +2.7339794612e+00 +8.9322475735e-01 +5.2911374188e+00 6.0223441737e+00 0.0000000000e+00 0.0000e+00 -1.0000e+00
       11  1    1    2    0    0 +2.5614585470e+01 -2.0791918400e+01 -4.9843874272e+02 4.9952936961e+02 0.0000000000e+00 0.0000e+00 1.0000e+00
      -15  1    1    2    0    0 -1.3898268710e+01 +4.9570780660e+00 +2.2504294136e+02 2.2553318532e+02 1.7770000000e+00 0.0000e+00 -1.0000e+00
       15  1    1    2    0    0 -1.4450296221e+01 +1.4941615577e+01 +2.6810466393e+02 2.6891510090e+02 1.7770000000e+00 0.0000e+00 -1.0000e+00
</event>
<event>
 6 1 7.08916e-05 5.00056700e+02 7.54677100e-03 9.39968300e-02
      -11 -1    0    0    0    0 +0.0000000000e+00 +0.0000000000e+00 +5.0000000000e+02 5.0000000000e+02 0.0000000000e+00 0.0000e+00 1.0000e+00
       11 -1    0    0    0    0 -0.0000000000e+00 -0.0000000000e+00 -5.0000000000e+02 5.0000000000e+02 0.0000000000e+00 0.0000e+00 1.0000e+00
      -11  1    1    2    0    0 +7.1251415496e-02 +2.8606507945e+00 +1.8288980953e+02 1.8291219432e+02 0.0000000000e+00 0.0000e+00 1.0000e+00
       11  1    1    2    0    0 -6.9504269829e+00 +8.6406614332e-01 -4.9989427675e+02 4.9994333977e+02 0.0000000000e+00 0.0000e+00 1.0000e+00
      -15  1    1    2    0    0 +3.6545337579e+00 -3.0887694162e+00 +2.3436291784e+02 2.3441849565e+02 1.7770000000e+00 0.0000e+00 -1.0000e+00
       15  1    1    2    0    0 +3.2246418095e+00 -6.3594752161e-01 +8.2641549375e+01 8.2725970264e+01 1.7770000000e+00 0.0000e+00 1.0000e+00
</event>
<event>
 6 1 7.08916e-05 5.33446900e+02 7.54677100e-03 9.32793100e-02
      -11 -1    0    0    0    0 +0.0000000000e+00 +0.0000000000e+00 +5.0000000000e+02 5.0000000000e+02 0.0000000000e+00 0.0000e+00 -1.0000e+00
       11 -1    0    0    0    0 -0.0000000000e+00 -0.0000000000e+00 -5.0000000000e+02 5.0000000000e+02 0.0000000000e+00 0.0000e+00 -1.0000e+00
      -11  1    1    2    0    0 +1.6721184670e+01 -2.9195276248e+01 +1.4468374117e+02 1.4854409154e+02 0.0000000000e+00 0.0000e+00 -1.0000e+00
       11  1    1    2    0    0 -1.8566999157e+00 +1.9066874417e+01 -4.6615960415e+02 4.6655307263e+02 0.0000000000e+00 0.0000e+00 -1.0000e+00
      -15  1    1    2    0    0 -4.1274381988e+00 -1.0763866354e+01 -3.0233456682e+01 3.2405496400e+01 1.7770000000e+00 0.0000e+00 -1.0000e+00
       15  1    1    2    0    0 -1.0737046556e+01 +2.0892268185e+01 +3.5170931967e+02 3.5249733944e+02 1.7770000000e+00 0.0000e+00 1.0000e+00
</event>
<event>
 6 1 7.08916e-05 5.03483100e+02 7.54677100e-03 9.39205000e-02
      -11 -1    0    0    0    0 +0.0000000000e+00 +0.0000000000e+00 +5.0000000000e+02 5.0000000000e+02 0.0000000000e+00 0.0000e+00 1.0000e+00
       11 -1    0    0    0    0 -0.0000000000e+00 -0.0000000000e+00 -5.0000000000e+02 5.0000000000e+02 0.0000000000e+00 0.0000e+00 1.0000e+00
      -11  1    1    2    0    0 -7.9570669545e+00 -2.8945864291e+00 +4.9644468004e+02 4.9651688177e+02 0.0000000000e+00 0.0000e+00 1.0000e+00
       11  1    1    2    0    0 -1.6600430114e+01 +2.1046371192e+01 -4.1237454577e+02 4.1324483060e+02 0.0000000000e+00 0.0000e+00 1.0000e+00
      -15  1    1    2    0    0 +2.1454917583e+00 -1.6466063999e+00 -2.6789099459e+00 4.2010397545e+00 1.7770000000e+00 0.0000e+00 -1.0000e+00
       15  1    1    2    0    0 +2.2412005310e+01 -1.6505178363e+01 -8.1391224328e+01 8.6037247872e+01 1.7770000000e+00 0.0000e+00 1.0000e+00
</event>
<event>
 6 1 7.08916e-05 5.00208700e+02 7.54677100e-03 9.39934300e-02
      -11 -1    0    0    0    0 +0.0000000000e+00 +0.0000000000e+00 +5.0000000000e+02 5.0000000000e+02 0.0000000000e+00 0.0000e+00 -1.0000e+00
       11 -1    0    0    0    0 -0.0000000000e+00 -0.0000000000e+00 -5.0000000000e+02 5.0000000000e+02 0.0000000000e+00 0.0000e+00 -1.0000e+00
      -11  1    1    2    0    0 +7.0892838075e-01 -6.8247465396e+00 +3.4397927350e+02 3.4404770068e+02 0.0000000000e+00 0.0000e+00 -1.0000e+00
       11  1    1    2    0    0 -4.5834336329e+00 +8.4028576028e+00 -4.9969966641e+02 4.9979132894e+02 0.0000000000e+00 0.0000e+00 -1.0000e+00
      -15  1    1    2    0    0 +2.0095957857e+00 -6.0181171429e+00 +8.7711353240e+01 8.7958486943e+01 1.7770000000e+00 0.0000e+00 -1.0000e+00
       15  1    1    2    0    0 +1.8649094665e+00 +4.4400060797e+00 +6.8009039665e+01 6.8202483433e+01 1.7770000000e+00 0.0000e+00 1.0000e+00
</event>
<event>
 6 1 7.08916e-05 5.03708300e+02 7.54677100e-03 9.39155000e-02
      -11 -1    0    0    0    0 +0.0000000000e+00 +0.0000000000e+00 +5.0000000000e+02 5.0000000000e+02 0.0000000000e+00 0.0000e+00 -1.0000e+00
       11 -1    0    0    0    0 -0.0000000000e+00 -0.0000000000e+00 -5.0000000000e+02 5.0000000000e+02 0.0000000000e+00 0.0000e+00 -1.0000e+00
      -11  1    1    2    0    0 -5.0534328929e+00 +2.4887612662e+01 +4.0851247439e+01 4.8101505853e+01 0.0000000000e+00 0.0000e+00 -1.0000e+00
       11  1    1    2    0    0 +7.6516229792e+00 -1.1819101641e+01 -4.9609193910e+02 4.9629169904e+02 0.0000000000e+00 0.0000e+00 -1.0000e+00
      -15  1    1    2    0    0 +3.9961327302e+00 -4.0225417777e+00 +2.3452141817e+02 2.3459668205e+02 1.7770000000e+00 0.0000e+00 -1.0000e+00
       15  1    1    2    0    0 -6.5943228165e+00 -9.0459692437e+00 +2.2071927349e+02 2.2101011305e+02 1.7770000000e+00 0.0000e+00 1.0000e+00
</event>
<event>
 6 1 7.08916e-05 5.04293800e+02 7.54677100e-03 9.39025300e-02
      -11 -1    0    0    0    0 +0.0000000000e+00 +0.0000000000e+00 +5.0000000000e+02 5.0000000000e+02 0.0000000000e+00 0.0000e+00 1.0000e+00
       11 -1    0    0    0    0 -0.0000000000e+00 -0.0000000000e+00 -5.0000000000e+02 5.0000000000e+02 0.0000000000e+00 0.0000e+00 1.0000e+00
      -11  1    1    2    0    0 +3.0272257480e-01 +7.5869517031e+00 +4.9564806093e+02 4.9570621721e+02 0.0000000000e+00 0.0000e+00 1.0000e+00
       11  1    1    2    0    0 +1.0795790918e+01 -3.8739102780e+00 -4.8213275348e+02 4.8226916577e+02 0.0000000000e+00 0.0000e+00 1.0000e+00
      -15  1    1    2    0    0 -1.5666128222e+00 +3.3199491026e+00 -1.5570057417e-01 4.0814592301e+00 1.7770000000e+00 0.0000e+00 1.0000e+00
       15  1    1    2    0    0 -9.5319006703e+00 -7.0329905277e+00 -1.3359606882e+01 1.7943157782e+01 1.7770000000e+00 0.0000e+00 -1.0000e+00
</event>
<event>
 6 1 7.08916e-05 5.06552900e+02 7.54677100e-03 9.38526500e-02
      -11 -1    0    0    0    0 +0.0000000000e+00 +0.0000000000e+00 +5.0000000000e+02 5.0000000000e+02 0.0000000000e+00 0.0000e+00 -1.0000e+00
       11 -1    0    0    0    0 -0.0000000000e+00 -0.0000000000e+00 -5.0000000000e+02 5.0000000000e+02 0.0000000000e+00 0.0000e+00 1.0000e+00
      -11  1    1    2    0    0 -9.8030169417e+00 +2.1167941627e+00 +4.9334517626e+02 4.9344710243e+02 0.0000000000e+00 0.0000e+00 -1.0000e+00
       11  1    1    2    0    0 +6.4302463604e+00 -5.6244595437e+00 -4.8710827549e+02 4.8718318389e+02 0.0000000000e+00 0.0000e+00 1.0000e+00
      -15  1    1    2    0    0 +7.8172494883e+00 -1.9179999753e+00 +1.9228062312e+00 8.4642203581e+00 1.7770000000e+00 0.0000e+00 -1.0000e+00
       15  1    1    2    0    0 -4.4444789070e+00 +5.4256653562e+00 -8.1597069967e+00 1.0905493321e+01 1.7770000000e+00 0.0000e+00 1.0000e+00
</event>
<event>
 6 1 7.08916e-05 5.01840700e+02 7.54677100e-03 9.39570000e-02
      -11 -1    0    0    0    0 +0.0000000000e+00 +0.0000000000e+00 +5.0000000000e+02 5.0000000000e+02 0.0000000000e+00 0.0000e+00 1.0000e+00
       11 -1    0    0    0    0 -0.0000000000e+00 -0.0000000000e+00 -5.0000000000e+02 5.0000000000e+02 0.0000000000e+00 0.0000e+00 -1.0000e+00
      -11  1    1    2    0    0 -4.1402409347e+00 +7.6577346145e+00 +4.9808325424e+02 4.9815932256e+02 0.0000000000e+00 0.0000e+00 1.0000e+00
       11  1    1    2    0    0 -8.8351371326e+00 +3.5174192698e+00 -4.3998111525e+02 4.4008387117e+02 0.0000000000e+00 0.0000e+00 -1.0000e+00
      -15  1    1    2    0    0 +9.6618680993e+00 -1.2693548641e+01 -5.2074992031e+01 5.4492571937e+01 1.7770000000e+00 0.0000e+00 1.0000e+00
       15  1    1    2    0    0 +3.3135099680e+00 +1.5183947563e+00 -6.0271469602e+00 7.2642343316e+00 1.7770000000e+00 0.0000e+00 -1.0000e+00
</event>
<event>
 6 1 7.08916e-05 5.03086100e+02 7.54677100e-03 9.39293100e-02
      -11 -1    0    0    0    0 +0.0000000000e+00 +0.0000000000e+00 +5.0000000000e+02 5.0000000000e+02 0.0000000000e+00 0.0000e+00 -1.0000e+00
       11 -1    0    0    0    0 -0.0000000000e+00 -0.0000000000e+00 -5.0000000000e+02 5.0000000000e+02 0.0000000000e+00 0.0000e+00 -1.0000e+00
      -11  1    1    2    0    0 +3.0061465018e+00 -1.3801528803e+01 +2.9763594505e+02 2.9797092962e+02 0.0000000000e+00 0.0000e+00 -1.0000e+00
       11  1    1    2    0    0 +6.3482213255e+00 +3.7445621185e+00 -4.9685926944e+02 4.9691393146e+02 0.0000000000e+00 0.0000e+00 -1.0000e+00
      -15  1    1    2    0    0 +1.5663185928e+01 +1.5804145312e+01 +1.1070182486e+02 1.1292988160e+02 1.7770000000e+00 0.0000e+00 -1.0000e+00
       15  1    1    2    0    0 -2.5017553755e+01 -5.7471786269e+00 +8.8521499523e+01 9.2185257307e+01 1.7770000000e+00 0.0000e+00 1.0000e+00
</event>
<event>
 6 1 7.08916e-05 5.01432200e+02 7.54677100e-03 9.39661100e-02
      -11 -1    0    0    0    0 +0.0000000000e+00 +0.0000000000e+00 +5.0000000000e+02 5.0000000000e+02 0.0000000000e+00 0.0000e+00 1.0000e+00
       11 -1    0    0    0    0 -0.0000000000e+00 -0.0000000000e+00 -5.0000000000e+02 5.0000000000e+02 0.0000000000e+00 0.0000e+00 1.0000e+00
      -11  1    1    2    0    0 -9.4640264719e+00 +2.2178695889e+00 +4.9847307324e+02 4.9856784041e+02 0.0000000000e+00 0.0000e+00 1.0000e+00
       11  1    1    2    0    0 +1.1986690708e+01 -2.6126566944e+00 -4.0484381603e+02 4.0502965584e+02 0.0000000000e+00 0.0000e+00 1.0000e+00
      -15  1    1    2    0    0 -9.5409116884e+00 +3.9242136917e+00 -7.9104011668e+01 7.9793676691e+01 1.7770000000e+00 0.0000e+00 1.0000e+00
       15  1    1    2    0    0 +7.0182474522e+00 -3.5294265862e+00 -1.4525245544e+01 1.6608827064e+01 1.7770000000e+00 0.0000e+00 -1.0000e+00
</event>
<event>
 6 1 7.08916e-05 4.87538200e+02 7.54677100e-03 9.42813400e-02
      -11 -1    0    0    0    0 +0.0000000000e+00 +0.0000000000e+00 +5.0000000000e+02 5.0000000000e+02 0.0000000000e+00 0.0000e+00 -1.0000e+00
       11 -1    0    0    0    0 -0.0000000000e+00 -0.0000000000e+00 -5.0000000000e+02 5.0000000000e+02 0.0000000000e+00 0.0000e+00 -1.0000e+00
      -11  1    1    2    0    0 +7.7808014443e+00 +3.5161566041e+00 +4.8515852537e+02 4.8523365399e+02 0.0000000000e+00 0.0000e+00 -1.0000e+00
       11  1    1    2    0    0 -4.1492508860e+00 +5.7490519225e+00 -4.8985357671e+02 4.8990488311e+02 0.0000000000e+00 0.0000e+00 -1.0000e+00
      -15  1    1    2    0    0 -4.5605903779e+00 -1.1552455629e-02 +1.1962770666e+01 1.2925352183e+01 1.7770000000e+00 0.0000e+00 -1.0000e+00
       15  1    1    2    0    0 +9.2903981965e-01 -9.2536560709e+00 -7.2677193266e+00 1.1936110710e+01 1.7770000000e+00 0.0000e+00 -1.0000e+00
</event>
<event>
 6 1 7.08916e-05 5.11318900e+02 7.54677100e-03 9.37483300e-02
      -11 -1    0    0    0    0 +0.0000000000e+00 +0.0000000000e+00 +5.0000000000e+02 5.0000000000e+02 0.0000000000e+00 0.0000e+00 1.0000e+00
       11 -1    0    0    0    0 -0.0000000000e+00 -0.0000000000e+00 -5.0000000000e+02 5.0000000000e+02 0.0000000000e+00 0.0000e+00 -1.0000e+00
      -11  1    1    2    0    0 +4.2962119756e+01 +5.1254932393e+00 +3.5955237094e+02 3.6214627137e+02 0.0000000000e+00 0.0000e+00 1.0000e+00
       11  1    1    2    0    0 +1.5356163033e+01 -2.6147883144e+01 -4.8773934148e+02 4.8868107060e+02 0.0000000000e+00 0.0000e+00 -1.0000e+00
      -15  1    1    2    0    0 -2.2999093629e+01 +5.5221964770e+00 +9.6054161733e+01 9.8939439441e+01 1.7770000000e+00 0.0000e+00 1.0000e+00
       15  1    1    2    0    0 -3.5319189160e+01 +1.5500193427e+01 +3.2132808805e+01 5.0233218589e+01 1.7770000000e+00 0.0000e+00 -1.0000e+00
</event>
<event>
 6 1 7.08916e-05 4.87718700e+02 7.54677100e-03 9.42771700e-02
      -11 -1    0    0    0    0 +0.0000000000e+00 +0.0000000000e+00 +5.0000000000e+02 5.0000000000e+02 0.0000000000e+00 0.0000e+00 1.0000e+00
       11 -1    0    0    0    0 -0.0000000000e+00 -0.0000000000e+00 -5.0000000000e+02 5.0000000000e+02 0.0000000000e+00 0.0000e+00 1.0000e+00
      -11  1    1    2    0    0 +7.5708151451e+00 -3.7079911464e+00 +4.8447640407e+02 4.8454974207e+02 0.0000000000e+00 0.0000e+00 1.0000e+00
       11  1    1    2    0    0 +1.0002302968e+01 -2.9884816284e+00 -4.9097962258e+02 4.9109058928e+02 0.0000000000e+00 0.0000e+00 1.0000e+00
      -15  1    1    2    0    0 -1.6531337172e+01 +1.7429661189e-01 +4.9020117604e+00 1.7335020516e+01 1.7770000000e+00 0.0000e+00 -1.0000e+00
       15  1    1    2    0    0 -1.0417809406e+00 +6.5221761630e+00 +1.6012067519e+00 7.0246481400e+00 1.7770000000e+00 0.0000e+00 1.0000e+00
</event>
<event>
 6 1 7.08916e-05 5.00660100e+02 7.54677100e-03 9.39833400e-02
      -11 -1    0    0    0    0 +0.0000000000e+00 +0.0000000000e+00 +5.0000000000e+02 5.0000000000e+02 0.0000000000e+00 0.0000e+00 -1.0000e+00
       11 -1    0    0    0    0 -0.0000000000e+00 -0.0000000000e+00 -5.0000000000e+02 5.0000000000e+02 0.0000000000e+00 0.0000e+00 -1.0000e+00
      -11  1    1    2    0    0 -4.8791690303e-01 -9.0326051674e+00 +3.9924375147e+02 3.9934621459e+02 0.0000000000e+00 0.0000e+00 -1.0000e+00
       11  1    1    2    0    0 +1.3246613767e+00 +9.8635936469e+00 -4.9924073354e+02 4.9933991953e+02 0.0000000000e+00 0.0000e+00 -1.0000e+00
      -15  1    1    2    0    0 -4.0656123747e+00 -7.3443969952e+00 +4.5087496596e+01 4.5896725913e+01 1.7770000000e+00 0.0000e+00 1.0000e+00
       15  1    1    2    0    0 +3.2288679011e+00 +6.5134085157e+00 +5.4909485473e+01 5.5417139969e+01 1.7770000000e+00 0.0000e+00 -1.0000e+00
</event>
<event>
 6 1 7.08916e-05 5.19006300e+02 7.54677100e-03 9.35825800e-02
      -11 -1    0    0    0    0 +0.0000000000e+00 +0.0000000000e+00 +5.0000000000e+02 5.0000000000e+02 0.0000000000e+00 0.0000e+00 -1.0000e+00
       11 -1    0    0    0    0 -0.0000000000e+00 -0.0000000000e+00 -5.0000000000e+02 5.0000000000e+02 0.0000000000e+00 0.0000e+00 1.0000e+00
      -11  1    1    2    0    0 +4.6806725397e+00 -1.3559097221e+01 +4.0094939701e+02 4.0120590322e+02 0.0000000000e+00 0.0000e+00 -1.0000e+00
       11  1    1    2    0    0 -7.4595613704e+00 -7.1791418047e-01 -4.8093532047e+02 4.8099370363e+02 0.0000000000e+00 0.0000e+00 1.0000e+00
      -15  1    1    2    0    0 +5.5597072679e+00 +1.5208505236e+01 -1.5361887232e+01 2.2390942024e+01 1.7770000000e+00 0.0000e+00 1.0000e+00
       15  1    1    2    0    0 -2.7808184371e+00 -9.3149383434e-01 +9.5347810688e+01 9.5409451125e+01 1.7770000000e+00 0.0000e+00 -1.0000e+00
</event>
<event>
 6 1 7.08916e-05 5.00527200e+02 7.54677100e-03 9.39863100e-02
      -11 -1    0    0    0    0 +0.0000000000e+00 +0.0000000000e+00 +5.0000000000e+02 5.0000000000e+02 0.0000000000e+00 0.0000e+00 -1.0000e+00
       11 -1    0    0    0    0 -0.0000000000e+00 -0.0000000000e+00 -5.0000000000e+02 5.0000000000e+02 0.0000000000e+00 0.0000e+00 -1.0000e+00
      -11  1    1    2    0    0 +1.1439415610e+01 -8.1226405701e+00 +4.9927574401e+02 4.9947282817e+02 0.0000000000e+00 0.0000e+00 -1.0000e+00
       11  1    1    2    0    0 +7.0365737582e+00 -5.4188725027e+00 -1.9606869131e+02 1.9626973598e+02 0.0000000000e+00 0.0000e+00 -1.0000e+00
      -15  1    1    2    0    0 -3.1940078746e+00 +2.4459225956e+00 -1.1791548944e+02 1.1799747710e+02 1.7770000000e+00 0.0000e+00 -1.0000e+00
       15  1    1    2    0    0 -1.5281981494e+01 +1.1095590477e+01 -1.8529156327e+02 1.8625995875e+02 1.7770000000e+00 0.0000e+00 1.0000e+00
</event>
<event>
 6 1 7.08916e-05 4.74859100e+02 7.54677100e-03 9.45789100e-02
      -11 -1    0    0    0    0 +0.0000000000e+00 +0.0000000000e+00 +5.0000000000e+02 5.0000000000e+02 0.0000000000e+00 0.0000e+00 1.0000e+00
       11 -1    0    0    0    0 -0.0000000000e+00 -0.0000000000e+00 -5.0000000000e+02 5.0000000000e+02 0.0000000000e+00 0.0000e+00 -1.0000e+00
      -11  1    1    2    0    0 -1.1932618541e+01 -1.0207001215e+01 +4.6796531434e+02 4.6822868951e+02 0.0000000000e+00 0.0000e+00 1.0000e+00
       11  1    1    2    0    0 +1.0867899984e+01 -1.2830179385e+01 -4.8157354630e+02 4.8186699954e+02 0.0000000000e+00 0.0000e+00 -1.0000e+00
      -15  1    1    2    0    0 -2.7262466488e+00 -1.6319655205e+00 +2.2918937744e+01 2.3206274336e+01 1.7770000000e+00 0.0000e+00 -1.0000e+00
       15  1    1    2    0    0 +3.7909652056e+00 +2.4669146121e+01 -9.3107057808e+00 2.6698036607e+01 1.7770000000e+00 0.0000e+00 1.0000e+00
</event>
<event>
 6 1 7.08916e-05 5.01912200e+02 7.54677100e-03 9.39554100e-02
      -11 -1    0    0    0    0 +0.0000000000e+00 +0.0000000000e+00 +5.0000000000e+02 5.0000000000e+02 0.0000000000e+00 0.0000e+00 -1.0000e+00
       11 -1    0    0    0    0 -0.0000000000e+00 -0.0000000000e+00 -5.0000000000e+02 5.0000000000e+02 0.0000000000e+00 0.0000e+00 1.0000e+00
      -11  1    1    2    0    0 -1.2973528548e+01 +2.6133902193e+00 +4.9791196502e+02 4.9808781070e+02 0.0000000000e+00 0.0000e+00 -1.0000e+00
       11  1    1    2    0    0 -6.0158683308e+00 +3.5219938788e+00 -3.8867203917e+02 3.8873454844e+02 0.0000000000e+00 0.0000e+00 1.0000e+00
      -15  1    1    2    0    0 +1.7379154819e+01 -3.9129165697e+00 -3.9574387283e+01 4.3435420985e+01 1.7770000000e+00 0.0000e+00 1.0000e+00
       15  1    1    2    0    0 +1.6102420599e+00 -2.2224675283e+00 -6.9665538567e+01 6.9742219883e+01 1.7770000000e+00 0.0000e+00 -1.0000e+00
</event>
<event>
 7 1 7.08916e-05 5.25256200e+02 7.54677100e-03 9.34500500e-02
      -11 -1    0    0    0    0 +0.0000000000e+00 +0.0000000000e+00 +5.0000000000e+02 5.0000000000e+02 0.0000000000e+00 0.0000e+00 1.0000e+00
       11 -1    0    0    0    0 -0.0000000000e+00 -0.0000000000e+00 -5.0000000000e+02 5.0000000000e+02 0.0000000000e+00 0.0000e+00 -1.0000e+00
       23  2    1    2    0    0 +6.7566619303e+01 -3.8140757421e+01 +3.2547089511e+02 3.4684926175e+02 9.1395521727e+01 0.0000e+00 0.0000e+00
      -11  1    1    2    0    0 -7.6826753122e+01 +6.2053975009e+01 +1.4857986294e+02 1.7840689863e+02 0.0000000000e+00 0.0000e+00 1.0000e+00
       11  1    1    2    0    0 +9.2601338186e+00 -2.3913217587e+01 -4.7405075804e+02 4.7474383962e+02 0.0000000000e+00 0.0000e+00 -1.0000e+00
      -15  1    3    3    0    0 -1.7840497309e+01 -1.8515706985e+01 +1.3138568963e+02 1.3388977525e+02 1.7770000000e+00 0.0000e+00 -1.0000e+00
       15  1    3    3    0    0 +8.5407116612e+01 -1.9625050437e+01 +1.9408520548e+02 2.1295948649e+02 1.7770000000e+00 0.0000e+00 1.0000e+00
</event>
<event>
 6 1 7.08916e-05 5.00591100e+02 7.54677100e-03 9.39848800e-02
      -11 -1    0    0    0    0 +0.0000000000e+00 +0.0000000000e+00 +5.0000000000e+02 5.0000000000e+02 0.0000000000e+00 0.0000e+00 1.0000e+00
       11 -1    0    0    0    0 -0.0000000000e+00 -0.0000000000e+00 -5.0000000000e+02 5.0000000000e+02 0.0000000000e+00 0.0000e+00 1.0000e+00
      -11  1    1    2    0    0 -8.7067770152e+00 -5.3190195436e+00 +4.2808518057e+02 4.2820675119e+02 0.0000000000e+00 0.0000e+00 1.0000e+00
       11  1    1    2    0    0 +7.7902080506e+00 -1.6635066423e-01 -4.9934810299e+02 4.9940889357e+02 0.0000000000e+00 0.0000e+00 1.0000e+00
      -15  1    1    2    0    0 -2.4491305056e+00 +1.0755707320e+00 +5.5276807693e+01 5.5370012555e+01 1.7770000000e+00 0.0000e+00 -1.0000e+00
       15  1    1    2    0    0 +3.3656994702e+00 +4.4097994758e+00 +1.5986114723e+01 1.7014342693e+01 1.7770000000e+00 0.0000e+00 -1.0000e+00
</event>
<event>
 6 1 7.08916e-05 5.12234800e+02 7.54677100e-03 9.37284200e-02
      -11 -1    0    0    0    0 +0.0000000000e+00 +0.0000000000e+00 +5.0000000000e+02 5.0000000000e+02 0.0000000000e+00 0.0000e+00 1.0000e+00
       11 -1    0    0    0    0 -0.0000000000e+00 -0.0000000000e+00 -5.0000000000e+02 5.0000000000e+02 0.0000000000e+00 0.0000e+00 1.0000e+00
      -11  1    1    2    0    0 +9.6543374736e+00 +2.0847142434e+00 +4.8766519028e+02 4.8776519974e+02 0.0000000000e+00 0.0000e+00 1.0000e+00
       11  1    1    2    0    0 +2.1430061312e+01 -1.9583017132e+01 -4.4900274751e+02 4.4994022865e+02 0.0000000000e+00 0.0000e+00 1.0000e+00
      -15  1    1    2    0    0 -1.7446485333e+01 +1.7512710219e+01 -4.1419177996e+01 4.8267804016e+01 1.7770000000e+00 0.0000e+00 1.0000e+00
       15  1    1    2    0    0 -1.3637913453e+01 -1.4407330809e-02 +2.7567352247e+00 1.4026767590e+01 1.7770000000e+00 0.0000e+00 -1.0000e+00
</event>
<event>
 6 1 7.08916e-05 4.84316200e+02 7.54677100e-03 9.43560400e-02
      -11 -1    0    0    0    0 +0.0000000000e+00 +0.0000000000e+00 +5.0000000000e+02 5.0000000000e+02 0.0000000000e+00 0.0000e+00 -1.0000e+00
       11 -1    0    0    0    0 -0.0000000000e+00 -0.0000000000e+00 -5.0000000000e+02 5.0000000000e+02 0.0000000000e+00 0.0000e+00 1.0000e+00
      -11  1    1    2    0    0 -8.0774545143e+00 +9.5047450781e+00 +4.7827828960e+02 4.7844091355e+02 0.0000000000e+00 0.0000e+00 -1.0000e+00
       11  1    1    2    0    0 -1.2992727638e+01 -5.1846510212e+00 -4.9030541981e+02 4.9050494011e+02 0.0000000000e+00 0.0000e+00 1.0000e+00
      -15  1    1    2    0    0 +1.8980941072e+01 -9.4056829704e+00 +4.7856601014e+00 2.1789980902e+01 1.7770000000e+00 0.0000e+00 -1.0000e+00
       15  1    1    2    0    0 +2.0892410798e+00 +5.0855889135e+00 +7.2414701084e+00 9.2641654356e+00 1.7770000000e+00 0.0000e+00 1.0000e+00
</event>
<event>
 6 1 7.08916e-05 4.92136300e+02 7.54677100e-03 9.41757900e-02
      -11 -1    0    0    0    0 +0.0000000000e+00 +0.0000000000e+00 +5.0000000000e+02 5.0000000000e+02 0.0000000000e+00 0.0000e+00 -1.0000e+00
       11 -1    0    0    0    0 -0.0000000000e+00 -0.0000000000e+00 -5.0000000000e+02 5.0000000000e+02 0.0000000000e+00 0.0000e+00 1.0000e+00
      -11  1    1    2    0    0 -8.4857061913e+00 +5.2191096613e-01 +4.9429216177e+02 4.9436527062e+02 0.0000000000e+00 0.0000e+00 -1.0000e+00
       11  1    1    2    0    0 +9.7590651917e+00 +7.1088500163e+00 -4.8979914263e+02 4.8994793113e+02 0.0000000000e+00 0.0000e+00 1.0000e+00
      -15  1    1    2    0    0 +4.5858294390e+00 -6.3220828120e+00 -5.0727133879e-02 8.0099229065e+00 1.7770000000e+00 0.0000e+00 -1.0000e+00
       15  1    1    2    0    0 -5.8591884394e+00 -1.3086781705e+00 -4.4422920154e+00 7.6768753456e+00 1.7770000000e+00 0.0000e+00 1.0000e+00
</event>
<event>
 6 1 7.08916e-05 5.01154000e+02 7.54677100e-03 9.39723100e-02
      -11 -1    0    0    0    0 +0.0000000000e+00 +0.0000000000e+00 +5.0000000000e+02 5.0000000000e+02 0.0000000000e+00 0.0000e+00 1.0000e+00
       11 -1    0    0    0    0 -0.0000000000e+00 -0.0000000000e+00 -5.0000000000e+02 5.0000000000e+02 0.0000000000e+00 0.0000e+00 -1.0000e+00
      -11  1    1    2    0    0 -6.6667878524e+00 +1.6965429499e+00 +4.9879854648e+02 4.9884598253e+02 0.0000000000e+00 0.0000e+00 1.0000e+00
       11  1    1    2    0    0 +3.9036704595e+00 +7.2249558591e+00 -2.4843221212e+02 2.4856790350e+02 0.0000000000e+00 0.0000e+00 -1.0000e+00
      -15  1    1    2    0    0 +9.1407676756e+00 -1.8713937527e+01 -1.3393457203e+02 1.3555586452e+02 1.7770000000e+00 0.0000e+00 1.0000e+00
       15  1    1    2    0    0 -6.3776502826e+00 +9.7924387178e+00 -1.1643176233e+02 1.1703024945e+02 1.7770000000e+00 0.0000e+00 -1.0000e+00
</event>
<event>
 6 1 7.08916e-05 5.14050700e+02 7.54677100e-03 9.36890800e-02
      -11 -1    0    0    0    0 +0.0000000000e+00 +0.0000000000e+00 +5.0000000000e+02 5.0000000000e+02 0.0000000000e+00 0.0000e+00 1.0000e+00
       11 -1    0    0    0    0 -0.0000000000e+00 -0.0000000000e+00 -5.0000000000e+02 5.0000000000e+02 0.0000000000e+00 0.0000e+00 1.0000e+00
      -11  1    1    2    0    0 -6.7633839658e+00 +1.1962835213e+00 +4.8590080352e+02 4.8594934440e+02 0.0000000000e+00 0.0000e+00 1.0000e+00
       11  1    1    2    0    0 -8.8675283172e+00 +4.2533445935e+00 -4.5797119173e+02 4.5807678009e+02 0.0000000000e+00 0.0000e+00 1.0000e+00
      -15  1    1    2    0    0 +8.1229554261e+00 -4.4628116149e+00 -4.0284131776e+01 4.1374727725e+01 1.7770000000e+00 0.0000e+00 -1.0000e+00
       15  1    1    2    0    0 +7.5079568568e+00 -9.8681649990e-01 +1.2354519987e+01 1.4599147786e+01 1.7770000000e+00 0.0000e+00 -1.0000e+00
</event>
<event>
 6 1 7.08916e-05 5.10119200e+02 7.54677100e-03 9.37744800e-02
      -11 -1    0    0    0    0 +0.0000000000e+00 +0.0000000000e+00 +5.0000000000e+02 5.0000000000e+02 0.0000000000e+00 0.0000e+00 1.0000e+00
       11 -1    0    0    0    0 -0.0000000000e+00 -0.0000000000e+00 -5.0000000000e+02 5.0000000000e+02 0.0000000000e+00 0.0000e+00 1.0000e+00
      -11  1    1    2    0    0 +3.2641627208e+01 -5.1665032040e+00 +4.3886631747e+02 4.4010886516e+02 0.0000000000e+00 0.0000e+00 1.0000e+00
       11  1    1    2    0    0 +1.2737597835e+00 +6.5557644140e+00 -4.8983527569e+02 4.8988079961e+02 0.0000000000e+00 0.0000e+00 1.0000e+00
      -15  1    1    2    0    0 -2.1610206620e+01 -4.7663293447e+00 +5.2533887043e+01 5.7032323663e+01 1.7770000000e+00 0.0000e+00 -1.0000e+00
       15  1    1    2    0    0 -1.2305180372e+01 +3.3770681347e+00 -1.5649288189e+00 1.2978011573e+01 1.7770000000e+00 0.0000e+00 1.0000e+00
</event>
<event>
 6 1 7.08916e-05 5.17127200e+02 7.54677100e-03 9.36228100e-02
      -11 -1    0    0    0    0 +0.0000000000e+00 +0.0000000000e+00 +5.0000000000e+02 5.0000000000e+02 0.0000000000e+00 0.0000e+00 -1.0000e+00
       11 -1    0    0    0    0 -0.0000000000e+00 -0.0000000000e+00 -5.0000000000e+02 5.0000000000e+02 0.0000000000e+00 0.0000e+00 1.0000e+00
      -11  1    1    2    0    0 +8.8443173044e+00 -2.6392508040e-01 +4.8279170933e+02 4.8287278470e+02 0.0000000000e+00 0.0000e+00 -1.0000e+00
       11  1    1    2    0    0 +7.1139893853e+00 -1.0619916473e+01 -3.5979611675e+02 3.6002310634e+02 0.0000000000e+00 0.0000e+00 1.0000e+00
      -15  1    1    2    0    0 -1.9610109373e+01 +5.1199659245e+01 -5.3298163767e+01 7.6484073416e+01 1.7770000000e+00 0.0000e+00 1.0000e+00
       15  1    1    2    0    0 +3.6518026836e+00 -4.0315817691e+01 -6.9697428816e+01 8.0620035546e+01 1.7770000000e+00 0.0000e+00 -1.0000e+00
</event>
<event>
 6 1 7.08916e-05 5.00474000e+02 7.54677100e-03 9.39875000e-02
      -11 -1    0    0    0    0 +0.0000000000e+00 +0.0000000000e+00 +5.0000000000e+02 5.0000000000e+02 0.0000000000e+00 0.0000e+00 1.0000e+00
       11 -1    0    0    0    0 -0.0000000000e+00 -0.0000000000e+00 -5.0000000000e+02 5.0000000000e+02 0.0000000000e+00 0.0000e+00 1.0000e+00
      -11  1    1    2    0    0 +3.3386659201e+00 +5.3005068141e+00 +3.6595442905e+02 3.6600804117e+02 0.0000000000e+00 0.0000e+00 1.0000e+00
       11  1    1    2    0    0 -3.3284347712e+00 -8.2010008087e+00 -4.9944754942e+02 4.9952596480e+02 0.0000000000e+00 0.0000e+00 1.0000e+00
      -15  1    1    2    0    0 +3.5465478863e+00 +5.4642574733e+00 +2.5798619572e+01 2.6667632300e+01 1.7770000000e+00 0.0000e+00 1.0000e+00
       15  1    1    2    0    0 -3.5567790352e+00 -2.5637634786e+00 +1.0769450080e+02 1.0779836173e+02 1.7770000000e+00 0.0000e+00 -1.0000e+00
</event>
<event>
 6 1 7.08916e-05 5.11941200e+02 7.54677100e-03 9.37348000e-02
      -11 -1    0    0    0    0 +0.0000000000e+00 +0.0000000000e+00 +5.0000000000e+02 5.0000000000e+02 0.0000000000e+00 0.0000e+00 1.0000e+00
       11 -1    0    0    0    0 -0.0000000000e+00 -0.0000000000e+00 -5.0000000000e+02 5.0000000000e+02 0.0000000000e+00 0.0000e+00 1.0000e+00
      -11  1    1    2    0    0 +2.2253610049e+01 +4.9880025908e+01 +3.4793718156e+02 3.5219812955e+02 0.0000000000e+00 0.0000e+00 1.0000e+00
       11  1    1    2    0    0 -7.1668448034e+00 +8.3326085443e+00 -4.8793506467e+02 4.8805883187e+02 0.0000000000e+00 0.0000e+00 1.0000e+00
      -15  1    1    2    0    0 +1.2461345847e+01 -7.3811891986e-01 +3.0995046372e+01 3.3461628599e+01 1.7770000000e+00 0.0000e+00 -1.0000e+00
       15  1    1    2    0    0 -2.7548111093e+01 -5.7474515532e+01 +1.0900283674e+02 1.2628140998e+02 1.7770000000e+00 0.0000e+00 1.0000e+00
</event>
<event>
 6 1 7.08916e-05 5.03063800e+02 7.54677100e-03 9.39298000e-02
      -11 -1    0    0    0    0 +0.0000000000e+00 +0.0000000000e+00 +5.0000000000e+02 5.0000000000e+02 0.0000000000e+00 0.0000e+00 1.0000e+00
       11 -1    0    0    0    0 -0.0000000000e+00 -0.0000000000e+00 -5.0000000000e+02 5.0000000000e+02 0.0000000000e+00 0.0000e+00 -1.0000e+00
      -11  1    1    2    0    0 +7.9629275099e+00 -9.2557892652e+00 +4.9678616907e+02 4.9693618869e+02 0.0000000000e+00 0.0000e+00 1.0000e+00
       11  1    1    2    0    0 -5.2274226200e+00 +7.9038569816e+00 -4.8775155423e+02 4.8784359743e+02 0.0000000000e+00 0.0000e+00 -1.0000e+00
      -15  1    1    2    0    0 +8.1621120093e-01 +1.0894506955e+00 +2.2985621329e+00 3.2084607557e+00 1.7770000000e+00 0.0000e+00 1.0000e+00
       15  1    1    2    0    0 -3.5517160909e+00 +2.6248158822e-01 -1.1333176974e+01 1.2011753124e+01 1.7770000000e+00 0.0000e+00 -1.0000e+00
</event>
<event>
 6 1 7.08916e-05 5.13128900e+02 7.54677100e-03 9.37090300e-02
      -11 -1    0    0    0    0 +0.0000000000e+00 +0.0000000000e+00 +5.0000000000e+02 5.0000000000e+02 0.0000000000e+00 0.0000e+00 1.0000e+00
       11 -1    0    0    0    0 -0.0000000000e+00 -0.0000000000e+00 -5.0000000000e+02 5.0000000000e+02 0.0000000000e+00 0.0000e+00 -1.0000e+00
      -11  1    1    2    0    0 +3.2061615305e+00 -2.8669637546e+00 +1.5324131013e+02 1.5330165714e+02 0.0000000000e+00 0.0000e+00 1.0000e+00
       11  1    1    2    0    0 +4.8156241690e+01 -1.2816208218e+01 -4.8431412959e+02 4.8687108656e+02 0.0000000000e+00 0.0000e+00 -1.0000e+00
      -15  1    1    2    0    0 -3.5757800779e+01 -1.7304348829e+01 +3.1882255987e+02 3.2129276869e+02 1.7770000000e+00 0.0000e+00 1.0000e+00
       15  1    1    2    0    0 -1.5604602441e+01 +3.2987520801e+01 +1.2250259592e+01 3.8534487606e+01 1.7770000000e+00 0.0000e+00 -1.0000e+00
</event>
<event>
 6 1 7.08916e-05 5.09344900e+02 7.54677100e-03 9.37913900e-02
      -11 -1    0    0    0    0 +0.0000000000e+00 +0.0000000000e+00 +5.0000000000e+02 5.0000000000e+02 0.0000000000e+00 0.0000e+00 1.0000e+00
       11 -1    0    0    0    0 -0.0000000000e+00 -0.0000000000e+00 -5.0000000000e+02 5.0000000000e+02 0.0000000000e+00 0.0000e+00 -1.0000e+00
      -11  1    1    2    0    0 +2.4659057437e+01 -7.2068487212e+00 +4.8998205403e+02 4.9065509378e+02 0.0000000000e+00 0.0000e+00 1.0000e+00
       11  1    1    2    0    0 +1.2211562784e+01 -3.9942238575e+01 -3.8552015086e+02 3.8777608411e+02 0.0000000000e+00 0.0000e+00 -1.0000e+00
      -15  1    1    2    0    0 -1.0707033492e+01 +1.3558872617e+01 -4.6421631872e+01 4.9564192998e+01 1.7770000000e+00 0.0000e+00 1.0000e+00
       15  1    1    2    0    0 -2.6163586729e+01 +3.3590214680e+01 -5.8040271292e+01 7.2004629111e+01 1.7770000000e+00 0.0000e+00 -1.0000e+00
</event>
<event>
 6 1 7.08916e-05 5.00518500e+02 7.54677100e-03 9.39865000e-02
      -11 -1    0    0    0    0 +0.0000000000e+00 +0.0000000000e+00 +5.0000000000e+02 5.0000000000e+02 0.0000000000e+00 0.0000e+00 -1.0000e+00
       11 -1    0    0    0    0 -0.0000000000e+00 -0.0000000000e+00 -5.0000000000e+02 5.0000000000e+02 0.0000000000e+00 0.0000e+00 1.0000e+00
      -11  1    1    2    0    0 -2.7176903928e+00 +4.0741209284e+00 +2.3415221178e+02 2.3420342137e+02 0.0000000000e+00 0.0000e+00 -1.0000e+00
       11  1    1    2    0    0 -5.6108864235e+00 -1.0074065195e+01 -4.9934833717e+02 4.9948146178e+02 0.0000000000e+00 0.0000e+00 1.0000e+00
      -15  1    1    2    0    0 -2.2487351078e+00 +5.5850847911e+00 +2.0950693517e+02 2.0960096277e+02 1.7770000000e+00 0.0000e+00 -1.0000e+00
       15  1    1    2    0    0 +1.0577311924e+01 +4.1485947583e-01 +5.5689190218e+01 5.6714154071e+01 1.7770000000e+00 0.0000e+00 1.0000e+00
</event>
<event>
 6 1 7.08916e-05 5.01663000e+02 7.54677100e-03 9.39609600e-02
      -11 -1    0    0    0    0 +0.0000000000e+00 +0.0000000000e+00 +5.0000000000e+02 5.0000000000e+02 0.0000000000e+00 0.0000e+00 1.0000e+00
       11 -1    0    0    0    0 -0.0000000000e+00 -0.0000000000e+00 -5.0000000000e+02 5.0000000000e+02 0.0000000000e+00 0.0000e+00 1.0000e+00
      -11  1    1    2    0    0 +1.9232043505e+00 -7.5863000017e+00 +4.6708738935e+02 4.6715295135e+02 0.0000000000e+00 0.0000e+00 1.0000e+00
       11  1    1    2    0    0 -8.0964232944e+00 +2.7491977095e+00 -4.9826368595e+02 4.9833704548e+02 0.0000000000e+00 0.0000e+00 1.0000e+00
      -15  1    1    2    0    0 +8.2665247871e-01 +1.5076910690e+00 -1.7887405469e-01 2.4791554222e+00 1.7770000000e+00 0.0000e+00 1.0000e+00
       15  1    1    2    0    0 +5.3465664651e+00 +3.3294112233e+00 +3.1355170653e+01 3.2030847752e+01 1.7770000000e+00 0.0000e+00 -1.0000e+00
</event>
<event>
 6 1 7.08916e-05 5.01538800e+02 7.54677100e-03 9.39637300e-02
      -11 -1    0    0    0    0 +0.0000000000e+00 +0.0000000000e+00 +5.0000000000e+02 5.0000000000e+02 0.0000000000e+00 0.0000e+00 1.0000e+00
       11 -1    0    0    0    0 -0.0000000000e+00 -0.0000000000e+00 -5.0000000000e+02 5.0000000000e+02 0.0000000000e+00 0.0000e+00 -1.0000e+00
      -11  1    1    2    0    0 -5.3828679488e+00 -8.3105941877e+00 +2.2354564793e+02 2.2376482733e+02 0.0000000000e+00 0.0000e+00 1.0000e+00
       11  1    1    2    0    0 -1.2948150110e+01 -1.3721325019e+01 -4.9810408533e+02 4.9846124140e+02 0.0000000000e+00 0.0000e+00 -1.0000e+00
      -15  1    1    2    0    0 +9.0596612155e+00 -1.6678408172e+00 +2.1821775061e+01 2.3753036651e+01 1.7770000000e+00 0.0000e+00 -1.0000e+00
       15  1    1    2    0    0 +9.2713568435e+00 +2.3699760024e+01 +2.5273666234e+02 2.5402089462e+02 1.7770000000e+00 0.0000e+00 1.0000e+00
</event>
<event>
 6 1 7.08916e-05 5.02809600e+02 7.54677100e-03 9.39354500e-02
      -11 -1    0    0    0    0 +0.0000000000e+00 +0.0000000000e+00 +5.0000000000e+02 5.0000000000e+02 0.0000000000e+00 0.0000e+00 1.0000e+00
       11 -1    0    0    0    0 -0.0000000000e+00 -0.0000000000e+00 -5.0000000000e+02 5.0000000000e+02 0.0000000000e+00 0.0000e+00 1.0000e+00
      -11  1    1    2    0    0 +4.5726133781e+00 +7.8749624999e+00 +4.9710698094e+02 4.9719038036e+02 0.0000000000e+00 0.0000e+00 1.0000e+00
       11  1    1    2    0    0 +2.1448195706e+01 -1.0602462079e+01 -3.8461462019e+02 3.8535807162e+02 0.0000000000e+00 0.0000e+00 1.0000e+00
      -15  1    1    2    0    0 -5.8882503393e+00 +1.0449326959e+01 -3.9178971866e+01 4.1012309024e+01 1.7770000000e+00 0.0000e+00 -1.0000e+00
       15  1    1    2    0    0 -2.0132558745e+01 -7.7218273797e+00 -7.3313388881e+01 7.6439238993e+01 1.7770000000e+00 0.0000e+00 1.0000e+00
</event>
<event>
 6 1 7.08916e-05 5.08527300e+02 7.54677100e-03 9.38092900e-02
      -11 -1    0    0    0    0 +0.0000000000e+00 +0.0000000000e+00 +5.0000000000e+02 5.0000000000e+02 0.0000000000e+00 0.0000e+00 1.0000e+00
       11 -1    0    0    0    0 -0.0000000000e+00 -0.0000000000e+00 -5.0000000000e+02 5.0000000000e+02 0.0000000000e+00 0.0000e+00 1.0000e+00
      -11  1    1    2    0    0 -4.2846443780e+00 +2.1244526430e+01 +4.7893756681e+02 4.7942765981e+02 0.0000000000e+00 0.0000e+00 1.0000e+00
       11  1    1    2    0    0 +9.6908982669e+00 -6.9870015878e+00 -4.9132745020e+02 4.9147267983e+02 0.0000000000e+00 0.0000e+00 1.0000e+00
      -15  1    1    2    0    0 -7.1731256296e+00 +3.6526777417e+00 +3.7061094031e+00 9.0381835504e+00 1.7770000000e+00 0.0000e+00 -1.0000e+00
       15  1    1    2    0    0 +1.7668717406e+00 -1.7910202584e+01 +8.6837739819e+00 2.0061476813e+01 1.7770000000e+00 0.0000e+00 1.0000e+00
</event>
<event>
 6 1 7.08916e-05 5.00515100e+02 7.54677100e-03 9.39865800e-02
      -11 -1    0    0    0    0 +0.0000000000e+00 +0.0000000000e+00 +5.0000000000e+02 5.0000000000e+02 0.0000000000e+00 0.0000e+00 -1.0000e+00
       11 -1    0    0    0    0 -0.0000000000e+00 -0.0000000000e+00 -5.0000000000e+02 5.0000000000e+02 0.0000000000e+00 0.0000e+00 1.0000e+00
      -11  1    1    2    0    0 +1.1591907430e+01 +2.7308042791e+00 +4.9934293319e+02 4.9948492924e+02 0.0000000000e+00 0.0000e+00 -1.0000e+00
       11  1    1    2    0    0 -8.4958295025e+00 -1.0716048712e+00 -4.4018888408e+01 4.4844063070e+01 0.0000000000e+00 0.0000e+00 1.0000e+00
      -15  1    1    2    0    0 +4.1964637365e+00 -2.4855668560e+00 -4.8521123039e+01 4.8798006727e+01 1.7770000000e+00 0.0000e+00 -1.0000e+00
       15  1    1    2    0    0 -7.2925416639e+00 +8.2636744811e-01 -4.0680292174e+02 4.0687300097e+02 1.7770000000e+00 0.0000e+00 1.0000e+00
</event>
<event>
 6 1 7.08916e-05 5.05645700e+02 7.54677100e-03 9.38726500e-02
      -11 -1    0    0    0    0 +0.0000000000e+00 +0.0000000000e+00 +5.0000000000e+02 5.0000000000e+02 0.0000000000e+00 0.0000e+00 1.0000e+00
       11 -1    0    0    0    0 -0.0000000000e+00 -0.0000000000e+00 -5.0000000000e+02 5.0000000000e+02 0.0000000000e+00 0.0000e+00 -1.0000e+00
      -11  1    1    2    0    0 -1.3513072918e+01 -8.8943328713e+00 +4.9408950719e+02 4.9435427925e+02 0.0000000000e+00 0.0000e+00 1.0000e+00
       11  1    1    2    0    0 -1.3816729021e+00 +6.7121138880e+00 -4.7065112290e+02 4.7070101018e+02 0.0000000000e+00 0.0000e+00 -1.0000e+00
      -15  1    1    2    0    0 -1.5816194039e+00 -6.1858199706e+00 -1.0118701644e+01 1.2095939013e+01 1.7770000000e+00 0.0000e+00 1.0000e+00
       15  1    1    2    0    0 +1.6476365224e+01 +8.3680389539e+00 -1.3319682645e+01 2.2848771557e+01 1.7770000000e+00 0.0000e+00 -1.0000e+00
</event>
<event>
 6 1 7.08916e-05 4.69686900e+02 7.54677100e-03 9.47031500e-02
      -11 -1    0    0    0    0 +0.0000000000e+00 +0.0000000000e+00 +5.0000000000e+02 5.0000000000e+02 0.0000000000e+00 0.0000e+00 1.0000e+00
       11 -1    0    0    0    0 -0.0000000000e+00 -0.0000000000e+00 -5.0000000000e+02 5.0000000000e+02 0.0000000000e+00 0.0000e+00 1.0000e+00
      -11  1    1    2    0    0 +2.9197009929e-01 +9.0018997087e+00 +4.7146885566e+02 4.7155487623e+02 0.0000000000e+00 0.0000e+00 1.0000e+00
       11  1    1    2    0    0 -3.0444746897e+01 +1.2339973618e+01 -4.6740089431e+02 4.6855389611e+02 0.0000000000e+00 0.0000e+00 1.0000e+00
      -15  1    1    2    0    0 +4.2284669655e+01 -1.3850250312e+01 +1.3072437792e+00 4.4549852265e+01 1.7770000000e+00 0.0000e+00 -1.0000e+00
       15  1    1    2    0    0 -1.2131892857e+01 -7.4916230140e+00 -5.3752051258e+00 1.5341375389e+01 1.7770000000e+00 0.0000e+00 1.0000e+00
</event>
<event>
 6 1 7.08916e-05 5.00955400e+02 7.54677100e-03 9.39767500e-02
      -11 -1    0    0    0    0 +0.0000000000e+00 +0.0000000000e+00 +5.0000000000e+02 5.0000000000e+02 0.0000000000e+00 0.0000e+00 1.0000e+00
       11 -1    0    0    0    0 -0.0000000000e+00 -0.0000000000e+00 -5.0000000000e+02 5.0000000000e+02 0.0000000000e+00 0.0000e+00 1.0000e+00
      -11  1    1    2    0    0 -6.6644785626e+00 -8.0327133346e+00 +4.9893548033e+02 4.9904464058e+02 0.0000000000e+00 0.0000e+00 1.0000e+00
       11  1    1    2    0    0 +6.1840122543e+00 -1.9648444451e+00 -1.5505094133e+02 1.5518665222e+02 0.0000000000e+00 0.0000e+00 1.0000e+00
      -15  1    1    2    0    0 -1.1506018728e+01 +1.1668385765e+01 -2.9187595308e+02 2.9234101561e+02 1.7770000000e+00 0.0000e+00 1.0000e+00
       15  1    1    2    0    0 +1.1986485036e+01 -1.6708279854e+00 -5.2008585926e+01 5.3427691591e+01 1.7770000000e+00 0.0000e+00 -1.0000e+00
</event>
<event>
 6 1 7.08916e-05 3.93311700e+02 7.54677100e-03 9.67637200e-02
      -11 -1    0    0    0    0 +0.0000000000e+00 +0.0000000000e+00 +5.0000000000e+02 5.0000000000e+02 0.0000000000e+00 0.0000e+00 -1.0000e+00
       11 -1    0    0    0    0 -0.0000000000e+00 -0.0000000000e+00 -5.0000000000e+02 5.0000000000e+02 0.0000000000e+00 0.0000e+00 1.0000e+00
      -11  1    1    2    0    0 +1.0425516363e+01 -9.4035391888e+00 +3.9954447293e+02 3.9979107518e+02 0.0000000000e+00 0.0000e+00 -1.0000e+00
       11  1    1    2    0    0 +1.4768472952e+01 +5.8316881613e+00 -3.8701782596e+02 3.8734340576e+02 0.0000000000e+00 0.0000e+00 1.0000e+00
      -15  1    1    2    0    0 +3.2967245691e+00 +2.6771654208e+01 +9.5235699164e+01 9.8997908999e+01 1.7770000000e+00 0.0000e+00 -1.0000e+00
       15  1    1    2    0    0 -2.8490713884e+01 -2.3199803180e+01 -1.0776234614e+02 1.1386761006e+02 1.7770000000e+00 0.0000e+00 1.0000e+00
</event>
<event>
 6 1 7.08916e-05 5.06299700e+02 7.54677100e-03 9.38582300e-02
      -11 -1    0    0    0    0 +0.0000000000e+00 +0.0000000000e+00 +5.0000000000e+02 5.0000000000e+02 0.0000000000e+00 0.0000e+00 1.0000e+00
       11 -1    0    0    0    0 -0.0000000000e+00 -0.0000000000e+00 -5.0000000000e+02 5.0000000000e+02 0.0000000000e+00 0.0000e+00 -1.0000e+00
      -11  1    1    2    0    0 -1.6774481904e+01 -2.0138671135e+01 +3.3093449953e+02 3.3197077025e+02 0.0000000000e+00 0.0000e+00 1.0000e+00
       11  1    1    2    0    0 +1.0299926151e+01 +5.9444364893e+00 -4.9355702289e+02 4.9370027309e+02 0.0000000000e+00 0.0000e+00 -1.0000e+00
      -15  1    1    2    0    0 -9.8365913301e+00 -1.6798581299e+00 +2.4478040844e-02 1.0136014034e+01 1.7770000000e+00 0.0000e+00 -1.0000e+00
       15  1    1    2    0    0 +1.6311147083e+01 +1.5874092775e+01 +1.6259804532e+02 1.6419294263e+02 1.7770000000e+00 0.0000e+00 1.0000e+00
</event>
<event>
 6 1 7.08916e-05 5.01211300e+02 7.54677100e-03 9.39710300e-02
      -11 -1    0    0    0    0 +0.0000000000e+00 +0.0000000000e+00 +5.0000000000e+02 5.0000000000e+02 0.0000000000e+00 0.0000e+00 -1.0000e+00
       11 -1    0    0    0    0 -0.0000000000e+00 -0.0000000000e+00 -5.0000000000e+02 5.0000000000e+02 0.0000000000e+00 0.0000e+00 -1.0000e+00
      -11  1    1    2    0    0 +6.7393723546e+00 -1.9615529430e+01 +4.9835726249e+02 4.9878868192e+02 0.0000000000e+00 0.0000e+00 -1.0000e+00
       11  1    1    2    0    0 -6.0912248470e+00 +4.1019058210e+00 -3.9909895266e+02 3.9916650995e+02 0.0000000000e+00 0.0000e+00 -1.0000e+00
      -15  1    1    2    0    0 +8.4175384276e+00 +8.0287217326e+00 -5.1794402218e+01 5.3114340399e+01 1.7770000000e+00 0.0000e+00 1.0000e+00
       15  1    1    2    0    0 -9.0656859352e+00 +7.4849018763e+00 -4.7463907613e+01 4.8930467732e+01 1.7770000000e+00 0.0000e+00 -1.0000e+00
</event>
<event>
 6 1 7.08916e-05 5.06816900e+02 7.54677100e-03 9.38468400e-02
      -11 -1    0    0    0    0 +0.0000000000e+00 +0.0000000000e+00 +5.0000000000e+02 5.0000000000e+02 0.0000000000e+00 0.0000e+00 -1.0000e+00
       11 -1    0    0    0    0 -0.0000000000e+00 -0.0000000000e+00 -5.0000000000e+02 5.0000000000e+02 0.0000000000e+00 0.0000e+00 1.0000e+00
      -11  1    1    2    0    0 -1.6259738165e+01 +1.7475096485e+00 +4.7576299907e+02 4.7604397292e+02 0.0000000000e+00 0.0000e+00 -1.0000e+00
       11  1    1    2    0    0 +1.0239385830e+01 +1.5619645190e+00 -4.9307428516e+02 4.9318306484e+02 0.0000000000e+00 0.0000e+00 1.0000e+00
      -15  1    1    2    0    0 +1.1594408763e+01 -9.0414358600e+00 +1.7042163218e+01 2.2578107386e+01 1.7770000000e+00 0.0000e+00 -1.0000e+00
       15  1    1    2    0    0 -5.5740564284e+00 +5.7319616924e+00 +2.6912287559e-01 8.1948548512e+00 1.7770000000e+00 0.0000e+00 1.0000e+00
</event>
<event>
 6 1 7.08916e-05 5.00539100e+02 7.54677100e-03 9.39860400e-02
      -11 -1    0    0    0    0 +0.0000000000e+00 +0.0000000000e+00 +5.0000000000e+02 5.0000000000e+02 0.0000000000e+00 0.0000e+00 1.0000e+00
       11 -1    0    0    0    0 -0.0000000000e+00 -0.0000000000e+00 -5.0000000000e+02 5.0000000000e+02 0.0000000000e+00 0.0000e+00 1.0000e+00
      -11  1    1    2    0    0 -1.1783829794e+01 +1.0790180572e+01 +4.9920528687e+02 4.9946091446e+02 0.0000000000e+00 0.0000e+00 1.0000e+00
       11  1    1    2    0    0 +1.7359642849e+01 -1.7673957907e+01 -3.7972344866e+02 3.8053071288e+02 0.0000000000e+00 0.0000e+00 1.0000e+00
      -15  1    1    2    0    0 -3.1953649272e+00 +3.7592215392e+00 -3.2552135197e+01 3.2971826435e+01 1.7770000000e+00 0.0000e+00 -1.0000e+00
       15  1    1    2    0    0 -2.3804481282e+00 +3.1245557962e+00 -8.6929703013e+01 8.7036546216e+01 1.7770000000e+00 0.0000e+00 1.0000e+00
</event>
<event>
 6 1 7.08916e-05 5.02973200e+02 7.54677100e-03 9.39318200e-02
      -11 -1    0    0    0    0 +0.0000000000e+00 +0.0000000000e+00 +5.0000000000e+02 5.0000000000e+02 0.0000000000e+00 0.0000e+00 1.0000e+00
       11 -1    0    0    0    0 -0.0000000000e+00 -0.0000000000e+00 -5.0000000000e+02 5.0000000000e+02 0.0000000000e+00 0.0000e+00 -1.0000e+00
      -11  1    1    2    0    0 +5.5475868569e-01 +7.1883436064e+00 +4.6465274911e+02 4.6470868003e+02 0.0000000000e+00 0.0000e+00 1.0000e+00
       11  1    1    2    0    0 -8.1099694934e+00 -5.6588283100e+00 -4.9692845182e+02 4.9702684049e+02 0.0000000000e+00 0.0000e+00 -1.0000e+00
      -15  1    1    2    0    0 +7.7427392332e+00 -4.6302262629e+00 +3.3296686167e+01 3.4542959410e+01 1.7770000000e+00 0.0000e+00 -1.0000e+00
       15  1    1    2    0    0 -1.8752842546e-01 +3.1007109665e+00 -1.0209834523e+00 3.7215200682e+00 1.7770000000e+00 0.0000e+00 1.0000e+00
</event>
<event>
 6 1 7.08916e-05 5.01940600e+02 7.54677100e-03 9.39547800e-02
      -11 -1    0    0    0    0 +0.0000000000e+00 +0.0000000000e+00 +5.0000000000e+02 5.0000000000e+02 0.0000000000e+00 0.0000e+00 1.0000e+00
       11 -1    0    0    0    0 -0.0000000000e+00 -0.0000000000e+00 -5.0000000000e+02 5.0000000000e+02 0.0000000000e+00 0.0000e+00 -1.0000e+00
      -11  1    1    2    0    0 +6.7888569521e-01 -3.2205817229e+00 +6.4726905251e+01 6.4810533834e+01 0.0000000000e+00 0.0000e+00 1.0000e+00
       11  1    1    2    0    0 +2.8124773081e+00 -3.6483978634e+01 -4.9671335524e+02 4.9805938200e+02 0.0000000000e+00 0.0000e+00 -1.0000e+00
      -15  1    1    2    0    0 +9.5676575314e+00 +2.3849445843e+01 +7.0535883877e+01 7.5091975477e+01 1.7770000000e+00 0.0000e+00 -1.0000e+00
       15  1    1    2    0    0 -1.3059020535e+01 +1.5855114513e+01 +3.6145056611e+02 3.6203810869e+02 1.7770000000e+00 0.0000e+00 1.0000e+00
</event>
<event>
 6 1 7.08916e-05 5.00753600e+02 7.54677100e-03 9.39812500e-02
      -11 -1    0    0    0    0 +0.0000000000e+00 +0.0000000000e+00 +5.0000000000e+02 5.0000000000e+02 0.0000000000e+00 0.0000e+00 1.0000e+00
       11 -1    0    0    0    0 -0.0000000000e+00 -0.0000000000e+00 -5.0000000000e+02 5.0000000000e+02 0.0000000000e+00 0.0000e+00 -1.0000e+00
      -11  1    1    2    0    0 -5.3526542597e+00 +8.4743462084e+00 +4.9914579912e+02 4.9924642636e+02 0.0000000000e+00 0.0000e+00 1.0000e+00
       11  1    1    2    0    0 +2.2874724761e-01 +3.1530781130e+00 -2.1738383090e+02 2.1740681720e+02 0.0000000000e+00 0.0000e+00 -1.0000e+00
      -15  1    1    2    0    0 -2.8994019113e+00 -1.4169037871e+01 -7.4798005812e+01 7.6204117790e+01 1.7770000000e+00 0.0000e+00 1.0000e+00
       15  1    1    2    0    0 +8.0233089234e+00 +2.5416135501e+00 -2.0696396241e+02 2.0714263866e+02 1.7770000000e+00 0.0000e+00 -1.0000e+00
</event>
<event>
 6 1 7.08916e-05 5.67686500e+02 7.54677100e-03 9.25991900e-02
      -11 -1    0    0    0    0 +0.0000000000e+00 +0.0000000000e+00 +5.0000000000e+02 5.0000000000e+02 0.0000000000e+00 0.0000e+00 -1.0000e+00
       11 -1    0    0    0    0 -0.0000000000e+00 -0.0000000000e+00 -5.0000000000e+02 5.0000000000e+02 0.0000000000e+00 0.0000e+00 1.0000e+00
      -11  1    1    2    0    0 -2.7677853254e+01 -2.2885146681e+00 +3.3497621051e+02 3.3612551595e+02 0.0000000000e+00 0.0000e+00 -1.0000e+00
       11  1    1    2    0    0 -4.0074238355e+01 -4.3997607922e+01 -4.2819762680e+02 4.3231347617e+02 0.0000000000e+00 0.0000e+00 1.0000e+00
      -15  1    1    2    0    0 +2.9563751327e+01 +1.2815142164e+01 +1.5112055557e+02 1.5452774284e+02 1.7770000000e+00 0.0000e+00 -1.0000e+00
       15  1    1    2    0    0 +3.8188340282e+01 +3.3470980426e+01 -5.7899139284e+01 7.7033265041e+01 1.7770000000e+00 0.0000e+00 1.0000e+00
</event>
<event>
 6 1 7.08916e-05 5.00834600e+02 7.54677100e-03 9.39794400e-02
      -11 -1    0    0    0    0 +0.0000000000e+00 +0.0000000000e+00 +5.0000000000e+02 5.0000000000e+02 0.0000000000e+00 0.0000e+00 1.0000e+00
       11 -1    0    0    0    0 -0.0000000000e+00 -0.0000000000e+00 -5.0000000000e+02 5.0000000000e+02 0.0000000000e+00 0.0000e+00 1.0000e+00
      -11  1    1    2    0    0 -8.7228484253e+00 -3.3383780866e+00 +4.9907800694e+02 4.9916539330e+02 0.0000000000e+00 0.0000e+00 1.0000e+00
       11  1    1    2    0    0 -3.2303600270e+00 -7.1501071746e+00 -6.9301001267e+01 6.9743731153e+01 0.0000000000e+00 0.0000e+00 1.0000e+00
      -15  1    1    2    0    0 +5.6474780226e+00 +5.3071317162e+00 -4.0215553157e+02 4.0223412207e+02 1.7770000000e+00 0.0000e+00 1.0000e+00
       15  1    1    2    0    0 +6.3057304298e+00 +5.1813535450e+00 -2.7621474100e+01 2.8856753477e+01 1.7770000000e+00 0.0000e+00 -1.0000e+00
</event>
<event>
 6 1 7.08916e-05 4.88063200e+02 7.54677100e-03 9.42692300e-02
      -11 -1    0    0    0    0 +0.0000000000e+00 +0.0000000000e+00 +5.0000000000e+02 5.0000000000e+02 0.0000000000e+00 0.0000e+00 1.0000e+00
       11 -1    0    0    0    0 -0.0000000000e+00 -0.0000000000e+00 -5.0000000000e+02 5.0000000000e+02 0.0000000000e+00 0.0000e+00 -1.0000e+00
      -11  1    1    2    0    0 +1.9944113750e+00 +1.3583188092e+01 +4.9054807288e+02 4.9074014761e+02 0.0000000000e+00 0.0000e+00 1.0000e+00
       11  1    1    2    0    0 -4.7598165074e+00 +6.5624403125e+00 -4.8554317961e+02 4.8561085319e+02 0.0000000000e+00 0.0000e+00 -1.0000e+00
      -15  1    1    2    0    0 +4.5802422077e-01 -1.1350146340e+01 -7.8908212589e+00 1.3944834071e+01 1.7770000000e+00 0.0000e+00 1.0000e+00
       15  1    1    2    0    0 +2.3073809116e+00 -8.7954820652e+00 +2.8859279875e+00 9.7041651253e+00 1.7770000000e+00 0.0000e+00 -1.0000e+00
</event>
<event>
 6 1 7.08916e-05 5.00128600e+02 7.54677100e-03 9.39952200e-02
      -11 -1    0    0    0    0 +0.0000000000e+00 +0.0000000000e+00 +5.0000000000e+02 5.0000000000e+02 0.0000000000e+00 0.0000e+00 1.0000e+00
       11 -1    0    0    0    0 -0.0000000000e+00 -0.0000000000e+00 -5.0000000000e+02 5.0000000000e+02 0.0000000000e+00 0.0000e+00 -1.0000e+00
      -11  1    1    2    0    0 -2.2794745460e+00 +8.1458800917e-01 +8.5239539448e+01 8.5273903646e+01 0.0000000000e+00 0.0000e+00 1.0000e+00
       11  1    1    2    0    0 +6.6848041989e+00 -4.2299987558e+00 -4.9980883262e+02 4.9987143213e+02 0.0000000000e+00 0.0000e+00 -1.0000e+00
      -15  1    1    2    0    0 +2.8846429843e+00 +3.0191243129e+00 +4.9382105658e+01 4.9590184160e+01 1.7770000000e+00 0.0000e+00 1.0000e+00
       15  1    1    2    0    0 -7.2899726373e+00 +3.9628643374e-01 +3.6518718751e+02 3.6526448006e+02 1.7770000000e+00 0.0000e+00 -1.0000e+00
</event>
<event>
 6 1 7.08916e-05 4.96540600e+02 7.54677100e-03 9.40758400e-02
      -11 -1    0    0    0    0 +0.0000000000e+00 +0.0000000000e+00 +5.0000000000e+02 5.0000000000e+02 0.0000000000e+00 0.0000e+00 1.0000e+00
       11 -1    0    0    0    0 -0.0000000000e+00 -0.0000000000e+00 -5.0000000000e+02 5.0000000000e+02 0.0000000000e+00 0.0000e+00 1.0000e+00
      -11  1    1    2    0    0 -1.8385125668e-01 +1.4647762548e+01 +9.7064736653e+00 1.7572887639e+01 0.0000000000e+00 0.0000e+00 1.0000e+00
       11  1    1    2    0    0 -4.3492256182e+00 -1.6215198367e+01 -4.9045103328e+02 4.9073828511e+02 0.0000000000e+00 0.0000e+00 1.0000e+00
      -15  1    1    2    0    0 -2.1148661532e+01 -4.4919420492e+01 +2.5236793047e+02 2.5721148940e+02 1.7770000000e+00 0.0000e+00 1.0000e+00
       15  1    1    2    0    0 +2.5681738407e+01 +4.6486856312e+01 +2.2837662915e+02 2.3447733785e+02 1.7770000000e+00 0.0000e+00 -1.0000e+00
</event>
<event>
 6 1 7.08916e-05 5.05401600e+02 7.54677100e-03 9.38780400e-02
      -11 -1    0    0    0    0 +0.0000000000e+00 +0.0000000000e+00 +5.0000000000e+02 5.0000000000e+02 0.0000000000e+00 0.0000e+00 -1.0000e+00
       11 -1    0    0    0    0 -0.0000000000e+00 -0.0000000000e+00 -5.0000000000e+02 5.0000000000e+02 0.0000000000e+00 0.0000e+00 1.0000e+00
      -11  1    1    2    0    0 +1.2683015687e+00 +8.5525724209e+00 +1.8000438812e+02 1.8021191644e+02 0.0000000000e+00 0.0000e+00 -1.0000e+00
       11  1    1    2    0    0 -2.1466770159e+01 -1.2287685549e+01 -4.9397949810e+02 4.9459837644e+02 0.0000000000e+00 0.0000e+00 1.0000e+00
      -15  1    1    2    0    0 -8.7180599401e+00 +6.4401964187e-01 +2.8118112129e+02 2.8132259069e+02 1.7770000000e+00 0.0000e+00 -1.0000e+00
       15  1    1    2    0    0 +2.8916528531e+01 +3.0910934859e+00 +3.2793988687e+01 4.3867116433e+01 1.7770000000e+00 0.0000e+00 1.0000e+00
</event>
<event>
 6 1 7.08916e-05 5.20784100e+02 7.54677100e-03 9.35446800e-02
      -11 -1    0    0    0    0 +0.0000000000e+00 +0.0000000000e+00 +5.0000000000e+02 5.0000000000e+02 0.0000000000e+00 0.0000e+00 1.0000e+00
       11 -1    0    0    0    0 -0.0000000000e+00 -0.0000000000e+00 -5.0000000000e+02 5.0000000000e+02 0.0000000000e+00 0.0000e+00 -1.0000e+00
      -11  1    1    2    0    0 +7.7774402861e+00 -4.9933543261e-01 +4.5390476171e+02 4.5397166279e+02 0.0000000000e+00 0.0000e+00 1.0000e+00
       11  1    1    2    0    0 +7.1497656924e+00 +3.0269322672e+00 -4.7915304367e+02 4.7921594373e+02 0.0000000000e+00 0.0000e+00 -1.0000e+00
      -15  1    1    2    0    0 -6.6979334676e+00 -5.6286406020e+00 -1.9355521467e+01 2.1315202275e+01 1.7770000000e+00 0.0000e+00 -1.0000e+00
       15  1    1    2    0    0 -8.2292725108e+00 +3.1010437674e+00 +4.4603803430e+01 4.5497191209e+01 1.7770000000e+00 0.0000e+00 1.0000e+00
</event>
<event>
 6 1 7.08916e-05 5.00346400e+02 7.54677100e-03 9.39903500e-02
      -11 -1    0    0    0    0 +0.0000000000e+00 +0.0000000000e+00 +5.0000000000e+02 5.0000000000e+02 0.0000000000e+00 0.0000e+00 -1.0000e+00
       11 -1    0    0    0    0 -0.0000000000e+00 -0.0000000000e+00 -5.0000000000e+02 5.0000000000e+02 0.0000000000e+00 0.0000e+00 1.0000e+00
      -11  1    1    2    0    0 +1.6483933226e+01 -4.1722695835e+00 +4.1377575484e+02 4.1412498498e+02 0.0000000000e+00 0.0000e+00 -1.0000e+00
       11  1    1    2    0    0 -1.4705954811e+01 +1.0683146379e+01 -4.9932287132e+02 4.9965360456e+02 0.0000000000e+00 0.0000e+00 1.0000e+00
      -15  1    1    2    0    0 -2.1834114169e-01 -3.2413282426e+00 +7.1773748279e+01 7.1869204480e+01 1.7770000000e+00 0.0000e+00 1.0000e+00
       15  1    1    2    0    0 -1.5596372732e+00 -3.2695485532e+00 +1.3773368197e+01 1.4352205986e+01 1.7770000000e+00 0.0000e+00 -1.0000e+00
</event>
<event>
 6 1 7.08916e-05 5.40001600e+02 7.54677100e-03 9.31449900e-02
      -11 -1    0    0    0    0 +0.0000000000e+00 +0.0000000000e+00 +5.0000000000e+02 5.0000000000e+02 0.0000000000e+00 0.0000e+00 -1.0000e+00
       11 -1    0    0    0    0 -0.0000000000e+00 -0.0000000000e+00 -5.0000000000e+02 5.0000000000e+02 0.0000000000e+00 0.0000e+00 1.0000e+00
      -11  1    1    2    0    0 +4.4520579224e+00 -5.8320535898e+00 +4.5993984754e+02 4.5999836633e+02 0.0000000000e+00 0.0000e+00 -1.0000e+00
       11  1    1    2    0    0 -6.2079419290e+00 -3.9435704352e-01 -4.5181664462e+02 4.5185946313e+02 0.0000000000e+00 0.0000e+00 1.0000e+00
      -15  1    1    2    0    0 +1.9388710550e+00 +4.8310622163e+00 +3.9793508197e+01 4.0171873329e+01 1.7770000000e+00 0.0000e+00 -1.0000e+00
       15  1    1    2    0    0 -1.8298704832e-01 +1.3953484170e+00 -4.7916711117e+01 4.7970297213e+01 1.7770000000e+00 0.0000e+00 1.0000e+00
</event>
<event>
 6 1 7.08916e-05 5.01429500e+02 7.54677100e-03 9.39661700e-02
      -11 -1    0    0    0    0 +0.0000000000e+00 +0.0000000000e+00 +5.0000000000e+02 5.0000000000e+02 0.0000000000e+00 0.0000e+00 -1.0000e+00
       11 -1    0    0    0    0 -0.0000000000e+00 -0.0000000000e+00 -5.0000000000e+02 5.0000000000e+02 0.0000000000e+00 0.0000e+00 -1.0000e+00
      -11  1    1    2    0    0 -1.7085390741e+01 -8.7916237398e+00 +4.9820013386e+02 4.9857053322e+02 0.0000000000e+00 0.0000e+00 -1.0000e+00
       11  1    1    2    0    0 +1.0980977230e+01 +4.0840420991e+00 -2.0937204157e+01 2.3992244137e+01 0.0000000000e+00 0.0000e+00 -1.0000e+00
      -15  1    1    2    0    0 +8.3152822838e+00 +3.3257486035e+00 -2.7940770321e+02 2.7955684013e+02 1.7770000000e+00 0.0000e+00 -1.0000e+00
       15  1    1    2    0    0 -2.2108687734e+00 +1.3818330373e+00 -1.9785522649e+02 1.9788038251e+02 1.7770000000e+00 0.0000e+00 1.0000e+00
</event>
<event>
 6 1 7.08916e-05 5.04591800e+02 7.54677100e-03 9.38959400e-02
      -11 -1    0    0    0    0 +0.0000000000e+00 +0.0000000000e+00 +5.0000000000e+02 5.0000000000e+02 0.0000000000e+00 0.0000e+00 -1.0000e+00
       11 -1    0    0    0    0 -0.0000000000e+00 -0.0000000000e+00 -5.0000000000e+02 5.0000000000e+02 0.0000000000e+00 0.0000e+00 -1.0000e+00
      -11  1    1    2    0    0 -3.2726932122e+00 +1.0337912603e+01 +4.0191900180e+02 4.0206525213e+02 0.0000000000e+00 0.0000e+00 -1.0000e+00
       11  1    1    2    0    0 -5.7683581593e+00 -4.8137115734e+00 -4.9535126531e+02 4.9540823754e+02 0.0000000000e+00 0.0000e+00 -1.0000e+00
      -15  1    1    2    0    0 -4.0913997970e+00 -2.2631990317e+00 +8.7504392495e+01 8.7647236448e+01 1.7770000000e+00 0.0000e+00 -1.0000e+00
       15  1    1    2    0    0 +1.3132451169e+01 -3.2610019978e+00 +5.9278710133e+00 1.4879273889e+01 1.7770000000e+00 0.0000e+00 1.0000e+00
</event>
<event>
 6 1 7.08916e-05 5.00517900e+02 7.54677100e-03 9.39865200e-02
      -11 -1    0    0    0    0 +0.0000000000e+00 +0.0000000000e+00 +5.0000000000e+02 5.0000000000e+02 0.0000000000e+00 0.0000e+00 -1.0000e+00
       11 -1    0    0    0    0 -0.0000000000e+00 -0.0000000000e+00 -5.0000000000e+02 5.0000000000e+02 0.0000000000e+00 0.0000e+00 -1.0000e+00
      -11  1    1    2    0    0 -4.6255307843e-01 -3.1287503445e+00 +1.0889050229e+02 1.0893642422e+02 0.0000000000e+00 0.0000e+00 -1.0000e+00
       11  1    1    2    0    0 -8.2172122624e+00 -1.2566679505e+01 -4.9925634355e+02 4.9948207233e+02 0.0000000000e+00 0.0000e+00 -1.0000e+00
      -15  1    1    2    0    0 +2.2505759608e+00 -6.7019136677e+00 +1.1159968499e+02 1.1183750783e+02 1.7770000000e+00 0.0000e+00 -1.0000e+00
       15  1    1    2    0    0 +6.4291893800e+00 +2.2397343517e+01 +2.7876615627e+02 2.7974399562e+02 1.7770000000e+00 0.0000e+00 1.0000e+00
</event>
<event>
 6 1 7.08916e-05 5.02939700e+02 7.54677100e-03 9.39325600e-02
      -11 -1    0    0    0    0 +0.0000000000e+00 +0.0000000000e+00 +5.0000000000e+02 5.0000000000e+02 0.0000000000e+00 0.0000e+00 -1.0000e+00
       11 -1    0    0    0    0 -0.0000000000e+00 -0.0000000000e+00 -5.0000000000e+02 5.0000000000e+02 0.0000000000e+00 0.0000e+00 1.0000e+00
      -11  1    1    2    0    0 +2.0279275115e+01 +1.0781656644e+01 +4.5359273879e+02 4.5417382774e+02 0.0000000000e+00 0.0000e+00 -1.0000e+00
       11  1    1    2    0    0 -1.8815961762e+01 -1.3827453286e+00 -4.9670214916e+02 4.9706033576e+02 0.0000000000e+00 0.0000e+00 1.0000e+00
      -15  1    1    2    0    0 +2.3503379615e+00 -8.6665766932e-01 -1.3100898700e+00 3.3390490438e+00 1.7770000000e+00 0.0000e+00 -1.0000e+00
       15  1    1    2    0    0 -3.8136513143e+00 -8.5322536464e+00 +4.4419500236e+01 4.5426787459e+01 1.7770000000e+00 0.0000e+00 1.0000e+00
</event>
<event>
 6 1 7.08916e-05 5.01701700e+02 7.54677100e-03 9.39601000e-02
      -11 -1    0    0    0    0 +0.0000000000e+00 +0.0000000000e+00 +5.0000000000e+02 5.0000000000e+02 0.0000000000e+00 0.0000e+00 -1.0000e+00
       11 -1    0    0    0    0 -0.0000000000e+00 -0.0000000000e+00 -5.0000000000e+02 5.0000000000e+02 0.0000000000e+00 0.0000e+00 1.0000e+00
      -11  1    1    2    0    0 +1.0853024549e+01 +6.6418630141e+00 +4.9813578994e+02 4.9829827183e+02 0.0000000000e+00 0.0000e+00 -1.0000e+00
       11  1    1    2    0    0 +8.5781813397e+00 -9.4097190925e+00 -4.0521066044e+02 4.0541066505e+02 0.0000000000e+00 0.0000e+00 1.0000e+00
      -15  1    1    2    0    0 -8.8016177911e+00 +8.6476224221e+00 -3.7328406100e+01 3.9355018489e+01 1.7770000000e+00 0.0000e+00 1.0000e+00
       15  1    1    2    0    0 -1.0629588097e+01 -5.8797663436e+00 -5.5596723406e+01 5.6936044628e+01 1.7770000000e+00 0.0000e+00 -1.0000e+00
</event>
<event>
 6 1 7.08916e-05 5.00465700e+02 7.54677100e-03 9.39876800e-02
      -11 -1    0    0    0    0 +0.0000000000e+00 +0.0000000000e+00 +5.0000000000e+02 5.0000000000e+02 0.0000000000e+00 0.0000e+00 1.0000e+00
       11 -1    0    0    0    0 -0.0000000000e+00 -0.0000000000e+00 -5.0000000000e+02 5.0000000000e+02 0.0000000000e+00 0.0000e+00 1.0000e+00
      -11  1    1    2    0    0 -7.8434456770e+00 -8.8850427288e+00 +4.9939372941e+02 4.9953434376e+02 0.0000000000e+00 0.0000e+00 1.0000e+00
       11  1    1    2    0    0 -7.8534959653e+00 +5.1768194735e+00 -2.1770458074e+02 2.1790768993e+02 0.0000000000e+00 0.0000e+00 1.0000e+00
      -15  1    1    2    0    0 +1.2192134487e+01 +1.3701159136e+00 -2.6388465987e+02 2.6417569306e+02 1.7770000000e+00 0.0000e+00 1.0000e+00
       15  1    1    2    0    0 +3.5048071547e+00 +2.3381073416e+00 -1.7804488804e+01 1.8382273246e+01 1.7770000000e+00 0.0000e+00 -1.0000e+00
</event>
<event>
 7 1 7.08916e-05 5.43097600e+02 7.54677100e-03 9.30822500e-02
      -11 -1    0    0    0    0 +0.0000000000e+00 +0.0000000000e+00 +5.0000000000e+02 5.0000000000e+02 0.0000000000e+00 0.0000e+00 -1.0000e+00
       11 -1    0    0    0    0 -0.0000000000e+00 -0.0000000000e+00 -5.0000000000e+02 5.0000000000e+02 0.0000000000e+00 0.0000e+00 1.0000e+00
       23  2    1    2    0    0 +4.8414875156e+00 +4.3621002695e+00 +7.3136913990e+00 9.3532422804e+01 9.3018041872e+01 0.0000e+00 0.0000e+00
      -11  1    1    2    0    0 +5.2033778556e+00 -7.9981668753e+00 +4.4946385635e+02 4.4956512762e+02 0.0000000000e+00 0.0000e+00 -1.0000e+00
       11  1    1    2    0    0 -1.0044865371e+01 +3.6360666058e+00 -4.5677754774e+02 4.5690244957e+02 0.0000000000e+00 0.0000e+00 1.0000e+00
      -15  1    3    3    0    0 -2.5846679408e+00 +2.9359692317e+01 +4.1230417078e+01 5.0712691338e+01 1.7770000000e+00 0.0000e+00 -1.0000e+00
       15  1    3    3    0    0 +7.4261554563e+00 -2.4997592048e+01 -3.3916725679e+01 4.2819731466e+01 1.7770000000e+00 0.0000e+00 1.0000e+00
</event>
<event>
 6 1 7.08916e-05 5.13549500e+02 7.54677100e-03 9.36999200e-02
      -11 -1    0    0    0    0 +0.0000000000e+00 +0.0000000000e+00 +5.0000000000e+02 5.0000000000e+02 0.0000000000e+00 0.0000e+00 1.0000e+00
       11 -1    0    0    0    0 -0.0000000000e+00 -0.0000000000e+00 -5.0000000000e+02 5.0000000000e+02 0.0000000000e+00 0.0000e+00 1.0000e+00
      -11  1    1    2    0    0 +4.2119598437e+00 +6.9542672527e+00 +4.8638252333e+02 4.8645047172e+02 0.0000000000e+00 0.0000e+00 1.0000e+00
       11  1    1    2    0    0 +7.0681274821e+00 -5.5781778467e+00 -2.7310021854e+02 2.7324861182e+02 0.0000000000e+00 0.0000e+00 1.0000e+00
      -15  1    1    2    0    0 -4.4469274147e+01 +3.8458384618e+01 -1.1439873460e+02 1.2863433406e+02 1.7770000000e+00 0.0000e+00 1.0000e+00
       15  1    1    2    0    0 +3.3189186821e+01 -3.9834474024e+01 -9.8883570187e+01 1.1166658240e+02 1.7770000000e+00 0.0000e+00 -1.0000e+00
</event>
<event>
 6 1 7.08916e-05 4.81067800e+02 7.54677100e-03 9.44319800e-02
      -11 -1    0    0    0    0 +0.0000000000e+00 +0.0000000000e+00 +5.0000000000e+02 5.0000000000e+02 0.0000000000e+00 0.0000e+00 1.0000e+00
       11 -1    0    0    0    0 -0.0000000000e+00 -0.0000000000e+00 -5.0000000000e+02 5.0000000000e+02 0.0000000000e+00 0.0000e+00 1.0000e+00
      -11  1    1    2    0    0 +1.5941176807e+01 +5.8729577255e+00 +4.8343116951e+02 4.8372958189e+02 0.0000000000e+00 0.0000e+00 1.0000e+00
       11  1    1    2    0    0 -9.6003361359e+00 +1.8877126307e+00 -4.7837155477e+02 4.7847160243e+02 0.0000000000e+00 0.0000e+00 1.0000e+00
      -15  1    1    2    0    0 +5.0631974240e+00 -4.8274413427e+00 +1.3754078976e+01 1.5532951283e+01 1.7770000000e+00 0.0000e+00 1.0000e+00
       15  1    1    2    0    0 -1.1404038095e+01 -2.9332290135e+00 -1.8813693709e+01 2.2265864396e+01 1.7770000000e+00 0.0000e+00 -1.0000e+00
</event>
<event>
 6 1 7.08916e-05 5.01463900e+02 7.54677100e-03 9.39654000e-02
      -11 -1    0    0    0    0 +0.0000000000e+00 +0.0000000000e+00 +5.0000000000e+02 5.0000000000e+02 0.0000000000e+00 0.0000e+00 -1.0000e+00
       11 -1    0    0    0    0 -0.0000000000e+00 -0.0000000000e+00 -5.0000000000e+02 5.0000000000e+02 0.0000000000e+00 0.0000e+00 -1.0000e+00
      -11  1    1    2    0    0 -6.7488964820e+00 -6.3465120655e+00 +4.9845002765e+02 4.9853611292e+02 0.0000000000e+00 0.0000e+00 -1.0000e+00
       11  1    1    2    0    0 +7.0587306221e+00 -1.4207248106e+00 -4.5839585634e+02 4.5845240238e+02 0.0000000000e+00 0.0000e+00 -1.0000e+00
      -15  1    1    2    0    0 -3.4670979622e-01 +7.1071715962e+00 -7.8181776549e+00 1.0719782023e+01 1.7770000000e+00 0.0000e+00 -1.0000e+00
       15  1    1    2    0    0 +3.6875656100e-02 +6.6006527997e-01 -3.2235993651e+01 3.2291702675e+01 1.7770000000e+00 0.0000e+00 1.0000e+00
</event>
<event>
 6 1 7.08916e-05 5.00060600e+02 7.54677100e-03 9.39967400e-02
      -11 -1    0    0    0    0 +0.0000000000e+00 +0.0000000000e+00 +5.0000000000e+02 5.0000000000e+02 0.0000000000e+00 0.0000e+00 -1.0000e+00
       11 -1    0    0    0    0 -0.0000000000e+00 -0.0000000000e+00 -5.0000000000e+02 5.0000000000e+02 0.0000000000e+00 0.0000e+00 1.0000e+00
      -11  1    1    2    0    0 +7.4280394412e-01 -9.7375570219e-01 +3.4737649862e+01 3.4759232958e+01 0.0000000000e+00 0.0000e+00 -1.0000e+00
       11  1    1    2    0    0 -6.6823116533e+00 +6.6094572548e+00 -4.9985107995e+02 4.9993943668e+02 0.0000000000e+00 0.0000e+00 1.0000e+00
      -15  1    1    2    0    0 +4.7544648626e+00 -6.6690825476e+00 +4.3908446830e+02 4.3916444487e+02 1.7770000000e+00 0.0000e+00 -1.0000e+00
       15  1    1    2    0    0 +1.1850428465e+00 +1.0333809951e+00 +2.6028961788e+01 2.6136885499e+01 1.7770000000e+00 0.0000e+00 -1.0000e+00
</event>
<event>
 6 1 7.08916e-05 5.13945100e+02 7.54677100e-03 9.36913600e-02
      -11 -1    0    0    0    0 +0.0000000000e+00 +0.0000000000e+00 +5.0000000000e+02 5.0000000000e+02 0.0000000000e+00 0.0000e+00 1.0000e+00
       11 -1    0    0    0    0 -0.0000000000e+00 -0.0000000000e+00 -5.0000000000e+02 5.0000000000e+02 0.0000000000e+00 0.0000e+00 1.0000e+00
      -11  1    1    2    0    0 -1.3074564768e+01 -6.2595843046e+00 +4.8583874274e+02 4.8605494606e+02 0.0000000000e+00 0.0000e+00 1.0000e+00
       11  1    1    2    0    0 -2.0648408972e+01 -4.2646217134e+01 -3.8688086116e+02 3.8977154509e+02 0.0000000000e+00 0.0000e+00 1.0000e+00
      -15  1    1    2    0    0 +9.3937852224e+00 +1.4723080662e+01 -9.8795334657e-01 1.7582550606e+01 1.7770000000e+00 0.0000e+00 1.0000e+00
       15  1    1    2    0    0 +2.4329188517e+01 +3.4182720776e+01 -9.7969928234e+01 1.0659095825e+02 1.7770000000e+00 0.0000e+00 -1.0000e+00
</event>
<event>
 6 1 7.08916e-05 5.01474000e+02 7.54677100e-03 9.39651700e-02
      -11 -1    0    0    0    0 +0.0000000000e+00 +0.0000000000e+00 +5.0000000000e+02 5.0000000000e+02 0.0000000000e+00 0.0000e+00 -1.0000e+00
       11 -1    0    0    0    0 -0.0000000000e+00 -0.0000000000e+00 -5.0000000000e+02 5.0000000000e+02 0.0000000000e+00 0.0000e+00 -1.0000e+00
      -11  1    1    2    0    0 -1.0679567417e+01 +2.4792722624e+00 +4.9840539824e+02 4.9852596818e+02 0.0000000000e+00 0.0000e+00 -1.0000e+00
       11  1    1    2    0    0 -4.9449729205e+00 -8.8742035151e+00 -3.8476079330e+02 3.8489488475e+02 0.0000000000e+00 0.0000e+00 -1.0000e+00
      -15  1    1    2    0    0 +1.8868834038e+00 +7.4835072562e+00 -7.6703973996e+01 7.7111740776e+01 1.7770000000e+00 0.0000e+00 -1.0000e+00
       15  1    1    2    0    0 +1.3737656934e+01 -1.0885760036e+00 -3.6940630948e+01 3.9467406294e+01 1.7770000000e+00 0.0000e+00 1.0000e+00
</event>
<event>
 6 1 7.08916e-05 5.16138300e+02 7.54677100e-03 9.36440600e-02
      -11 -1    0    0    0    0 +0.0000000000e+00 +0.0000000000e+00 +5.0000000000e+02 5.0000000000e+02 0.0000000000e+00 0.0000e+00 -1.0000e+00
       11 -1    0    0    0    0 -0.0000000000e+00 -0.0000000000e+00 -5.0000000000e+02 5.0000000000e+02 0.0000000000e+00 0.0000e+00 1.0000e+00
      -11  1    1    2    0    0 +4.1381267522e+00 +4.5709114513e+00 +4.4688995800e+02 4.4693249142e+02 0.0000000000e+00 0.0000e+00 -1.0000e+00
       11  1    1    2    0    0 -3.3883692395e+01 -1.2213607568e+00 -4.8267228257e+02 4.8386168344e+02 0.0000000000e+00 0.0000e+00 1.0000e+00
      -15  1    1    2    0    0 +1.6838826097e+01 -9.7802018920e+00 +4.6963993681e+01 5.0872122472e+01 1.7770000000e+00 0.0000e+00 1.0000e+00
       15  1    1    2    0    0 +1.2906739546e+01 +6.4306511974e+00 -1.1181669109e+01 1.8333702670e+01 1.7770000000e+00 0.0000e+00 -1.0000e+00
</event>
<event>
 6 1 7.08916e-05 5.01732200e+02 7.54677100e-03 9.39594200e-02
      -11 -1    0    0    0    0 +0.0000000000e+00 +0.0000000000e+00 +5.0000000000e+02 5.0000000000e+02 0.0000000000e+00 0.0000e+00 -1.0000e+00
       11 -1    0    0    0    0 -0.0000000000e+00 -0.0000000000e+00 -5.0000000000e+02 5.0000000000e+02 0.0000000000e+00 0.0000e+00 -1.0000e+00
      -11  1    1    2    0    0 +9.4174467191e+00 -1.1596840181e+01 +4.9804381968e+02 4.9826782089e+02 0.0000000000e+00 0.0000e+00 -1.0000e+00
       11  1    1    2    0    0 -7.7070086725e+00 -1.4006238614e+00 -3.6299282870e+02 3.6307733807e+02 0.0000000000e+00 0.0000e+00 -1.0000e+00
      -15  1    1    2    0    0 -9.4376143639e+00 -2.0189994058e+00 -1.9165709249e+01 2.1532000917e+01 1.7770000000e+00 0.0000e+00 -1.0000e+00
       15  1    1    2    0    0 +7.7271763172e+00 +1.5016463448e+01 -1.1588528173e+02 1.1712284013e+02 1.7770000000e+00 0.0000e+00 1.0000e+00
</event>
<event>
 6 1 7.08916e-05 5.00562200e+02 7.54677100e-03 9.39855300e-02
      -11 -1    0    0    0    0 +0.0000000000e+00 +0.0000000000e+00 +5.0000000000e+02 5.0000000000e+02 0.0000000000e+00 0.0000e+00 -1.0000e+00
       11 -1    0    0    0    0 -0.0000000000e+00 -0.0000000000e+00 -5.0000000000e+02 5.0000000000e+02 0.0000000000e+00 0.0000e+00 -1.0000e+00
      -11  1    1    2    0    0 +5.9886395251e+00 +7.0275227347e+00 +4.9935240436e+02 4.9943775751e+02 0.0000000000e+00 0.0000e+00 -1.0000e+00
       11  1    1    2    0    0 +4.4353860922e+00 -1.9724442672e+00 -3.2247676432e+02 3.2251329695e+02 0.0000000000e+00 0.0000e+00 -1.0000e+00
      -15  1    1    2    0    0 -5.9710275340e+00 -5.1731091624e-01 -1.5662068171e+02 1.5674538733e+02 1.7770000000e+00 0.0000e+00 -1.0000e+00
       15  1    1    2    0    0 -4.4529980833e+00 -4.5377675513e+00 -2.0254958338e+01 2.1303558213e+01 1.7770000000e+00 0.0000e+00 1.0000e+00
</event>
<event>
 6 1 7.08916e-05 5.00263900e+02 7.54677100e-03 9.39921900e-02
      -11 -1    0    0    0    0 +0.0000000000e+00 +0.0000000000e+00 +5.0000000000e+02 5.0000000000e+02 0.0000000000e+00 0.0000e+00 -1.0000e+00
       11 -1    0    0    0    0 -0.0000000000e+00 -0.0000000000e+00 -5.0000000000e+02 5.0000000000e+02 0.0000000000e+00 0.0000e+00 -1.0000e+00
      -11  1    1    2    0    0 +3.9038650683e+00 -4.6402643137e+00 +2.5177365508e+02 2.5184667083e+02 0.0000000000e+00 0.0000e+00 -1.0000e+00
       11  1    1    2    0    0 +6.8447542097e+00 -3.6773011468e+00 -4.9967564662e+02 4.9973605536e+02 0.0000000000e+00 0.0000e+00 -1.0000e+00
      -15  1    1    2    0    0 -1.0232410359e+01 +3.7194278457e+00 +1.6845831114e+02 1.6881912417e+02 1.7770000000e+00 0.0000e+00 -1.0000e+00
       15  1    1    2    0    0 -5.1620891857e-01 +4.5981376148e+00 +7.9443680406e+01 7.9598149643e+01 1.7770000000e+00 0.0000e+00 1.0000e+00
</event>
<event>
 6 1 7.08916e-05 5.03073600e+02 7.54677100e-03 9.39295900e-02
      -11 -1    0    0    0    0 +0.0000000000e+00 +0.0000000000e+00 +5.0000000000e+02 5.0000000000e+02 0.0000000000e+00 0.0000e+00 -1.0000e+00
       11 -1    0    0    0    0 -0.0000000000e+00 -0.0000000000e+00 -5.0000000000e+02 5.0000000000e+02 0.0000000000e+00 0.0000e+00 1.0000e+00
      -11  1    1    2    0    0 -1.5976479524e+01 +6.7211089704e+00 +4.9662406429e+02 4.9692643564e+02 0.0000000000e+00 0.0000e+00 -1.0000e+00
       11  1    1    2    0    0 -2.4477976840e+00 +6.6899442478e+00 -4.0899480208e+02 4.0905683615e+02 0.0000000000e+00 0.0000e+00 1.0000e+00
      -15  1    1    2    0    0 +9.7690632048e+00 -8.4118517112e+00 -1.1976393818e+01 1.7685745192e+01 1.7770000000e+00 0.0000e+00 -1.0000e+00
       15  1    1    2    0    0 +8.6552140034e+00 -4.9992015070e+00 -7.5652868387e+01 7.6330983023e+01 1.7770000000e+00 0.0000e+00 1.0000e+00
</event>
<event>
 6 1 7.08916e-05 5.00658100e+02 7.54677100e-03 9.39833800e-02
      -11 -1    0    0    0    0 +0.0000000000e+00 +0.0000000000e+00 +5.0000000000e+02 5.0000000000e+02 0.0000000000e+00 0.0000e+00 -1.0000e+00
       11 -1    0    0    0    0 -0.0000000000e+00 -0.0000000000e+00 -5.0000000000e+02 5.0000000000e+02 0.0000000000e+00 0.0000e+00 1.0000e+00
      -11  1    1    2    0    0 +1.5397405205e+01 -1.0679650588e+01 +2.0931741939e+02 2.1015450764e+02 0.0000000000e+00 0.0000e+00 -1.0000e+00
       11  1    1    2    0    0 -3.5034244220e+00 +2.5001398608e+01 -4.9870334200e+02 4.9934193419e+02 0.0000000000e+00 0.0000e+00 1.0000e+00
      -15  1    1    2    0    0 -6.5986343674e-01 -1.0229268398e+01 +6.8333972464e+01 6.9121363365e+01 1.7770000000e+00 0.0000e+00 -1.0000e+00
       15  1    1    2    0    0 -1.1234117346e+01 -4.0924796234e+00 +2.2105195015e+02 2.2138219480e+02 1.7770000000e+00 0.0000e+00 1.0000e+00
</event>
<event>
 6 1 7.08916e-05 5.22000300e+02 7.54677100e-03 9.35188500e-02
      -11 -1    0    0    0    0 +0.0000000000e+00 +0.0000000000e+00 +5.0000000000e+02 5.0000000000e+02 0.0000000000e+00 0.0000e+00 -1.0000e+00
       11 -1    0    0    0    0 -0.0000000000e+00 -0.0000000000e+00 -5.0000000000e+02 5.0000000000e+02 0.0000000000e+00 0.0000e+00 1.0000e+00
      -11  1    1    2    0    0 -1.5326704175e+01 -1.2531288352e+01 +2.6099445777e+02 2.6174424164e+02 0.0000000000e+00 0.0000e+00 -1.0000e+00
       11  1    1    2    0    0 +7.7855834393e+00 +7.6389872555e+00 -4.7787519089e+02 4.7799965220e+02 0.0000000000e+00 0.0000e+00 1.0000e+00
      -15  1    1    2    0    0 -1.1745227353e+01 -1.4334234057e+01 -1.6746429731e+01 2.5040392755e+01 1.7770000000e+00 0.0000e+00 1.0000e+00
       15  1    1    2    0    0 +1.9286348089e+01 +1.9226535153e+01 +2.3362716286e+02 2.3521571340e+02 1.7770000000e+00 0.0000e+00 -1.0000e+00
</event>
<event>
 6 1 7.08916e-05 4.49978200e+02 7.54677100e-03 9.51926600e-02
      -11 -1    0    0    0    0 +0.0000000000e+00 +0.0000000000e+00 +5.0000000000e+02 5.0000000000e+02 0.0000000000e+00 0.0000e+00 1.0000e+00
       11 -1    0    0    0    0 -0.0000000000e+00 -0.0000000000e+00 -5.0000000000e+02 5.0000000000e+02 0.0000000000e+00 0.0000e+00 -1.0000e+00
      -11  1    1    2    0    0 -5.5831235947e+01 -2.7382937177e+01 +4.4622633298e+02 4.5053844720e+02 0.0000000000e+00 0.0000e+00 1.0000e+00
       11  1    1    2    0    0 +1.0088254123e+00 -4.3521098398e+01 -4.5179445372e+02 4.5388691560e+02 0.0000000000e+00 0.0000e+00 -1.0000e+00
      -15  1    1    2    0    0 +4.6589629919e+01 +3.4397695359e+01 +2.7854840423e+00 5.8006135127e+01 1.7770000000e+00 0.0000e+00 1.0000e+00
       15  1    1    2    0    0 +8.2327806161e+00 +3.6506340215e+01 +2.7826366978e+00 3.7568502080e+01 1.7770000000e+00 0.0000e+00 -1.0000e+00
</event>
<event>
 6 1 7.08916e-05 5.23413100e+02 7.54677100e-03 9.34889300e-02
      -11 -1    0    0    0    0 +0.0000000000e+00 +0.0000000000e+00 +5.0000000000e+02 5.0000000000e+02 0.0000000000e+00 0.0000e+00 -1.0000e+00
       11 -1    0    0    0    0 -0.0000000000e+00 -0.0000000000e+00 -5.0000000000e+02 5.0000000000e+02 0.0000000000e+00 0.0000e+00 1.0000e+00
      -11  1    1    2    0    0 -1.6804731420e+01 -2.5360804253e+01 +4.1933216335e+02 4.2043433805e+02 0.0000000000e+00 0.0000e+00 -1.0000e+00
       11  1    1    2    0    0 +3.2357825494e+01 +6.1242185478e+00 -4.7544775005e+02 4.7658692592e+02 0.0000000000e+00 0.0000e+00 1.0000e+00
      -15  1    1    2    0    0 -2.4515979850e+01 +2.7386253183e+01 -8.0381561669e+00 3.7667091936e+01 1.7770000000e+00 0.0000e+00 1.0000e+00
       15  1    1    2    0    0 +8.9628857756e+00 -8.1496674775e+00 +6.4153742866e+01 6.5311644093e+01 1.7770000000e+00 0.0000e+00 -1.0000e+00
</event>
<event>
 6 1 7.08916e-05 5.09585000e+02 7.54677100e-03 9.37861400e-02
      -11 -1    0    0    0    0 +0.0000000000e+00 +0.0000000000e+00 +5.0000000000e+02 5.0000000000e+02 0.0000000000e+00 0.0000e+00 -1.0000e+00
       11 -1    0    0    0    0 -0.0000000000e+00 -0.0000000000e+00 -5.0000000000e+02 5.0000000000e+02 0.0000000000e+00 0.0000e+00 -1.0000e+00
      -11  1    1    2    0    0 +6.4394351371e+00 -6.2794810551e+00 +3.0379658921e+02 3.0392970540e+02 0.0000000000e+00 0.0000e+00 -1.0000e+00
       11  1    1    2    0    0 +4.1886036394e-01 +1.1575369018e+01 -4.9027819719e+02 4.9041500309e+02 0.0000000000e+00 0.0000e+00 -1.0000e+00
      -15  1    1    2    0    0 +3.8160628545e+00 +1.2239672786e+01 +1.8450117344e+02 1.8495462324e+02 1.7770000000e+00 0.0000e+00 -1.0000e+00
       15  1    1    2    0    0 -1.0674358356e+01 -1.7535560749e+01 +1.9804345346e+00 2.0700668275e+01 1.7770000000e+00 0.0000e+00 1.0000e+00
</event>
<event>
 6 1 7.08916e-05 5.02022800e+02 7.54677100e-03 9.39529500e-02
      -11 -1    0    0    0    0 +0.0000000000e+00 +0.0000000000e+00 +5.0000000000e+02 5.0000000000e+02 0.0000000000e+00 0.0000e+00 -1.0000e+00
       11 -1    0    0    0    0 -0.0000000000e+00 -0.0000000000e+00 -5.0000000000e+02 5.0000000000e+02 0.0000000000e+00 0.0000e+00 1.0000e+00
      -11  1    1    2    0    0 +6.8636325803e+00 -2.8308647249e+00 +4.7257869108e+02 4.7263700925e+02 0.0000000000e+00 0.0000e+00 -1.0000e+00
       11  1    1    2    0    0 -1.0582281290e+00 -7.1232764196e+00 -4.9792508853e+02 4.9797716283e+02 0.0000000000e+00 0.0000e+00 1.0000e+00
      -15  1    1    2    0    0 -3.4390385640e+00 +3.9254495299e-01 +3.0430072778e+00 4.9395040315e+00 1.7770000000e+00 0.0000e+00 1.0000e+00
       15  1    1    2    0    0 -2.3663658873e+00 +9.5615961915e+00 +2.2303390171e+01 2.4446323883e+01 1.7770000000e+00 0.0000e+00 -1.0000e+00
</event>
<event>
 6 1 7.08916e-05 5.08271200e+02 7.54677100e-03 9.38149000e-02
      -11 -1    0    0    0    0 +0.0000000000e+00 +0.0000000000e+00 +5.0000000000e+02 5.0000000000e+02 0.0000000000e+00 0.0000e+00 1.0000e+00
       11 -1    0    0    0    0 -0.0000000000e+00 -0.0000000000e+00 -5.0000000000e+02 5.0000000000e+02 0.0000000000e+00 0.0000e+00 -1.0000e+00
      -11  1    1    2    0    0 -5.2232958777e-01 -3.4280028219e+00 +6.7750712837e+01 6.7839392107e+01 0.0000000000e+00 0.0000e+00 1.0000e+00
       11  1    1    2    0    0 +6.4005715375e+00 +2.9697822987e+00 -4.9167816801e+02 4.9172879498e+02 0.0000000000e+00 0.0000e+00 -1.0000e+00
      -15  1    1    2    0    0 +1.3815851466e+00 +8.4154082120e-01 -8.0441316358e+00 8.3954006006e+00 1.7770000000e+00 0.0000e+00 -1.0000e+00
       15  1    1    2    0    0 -7.2598270963e+00 -3.8332029800e-01 +4.3197158681e+02 4.3203641231e+02 1.7770000000e+00 0.0000e+00 1.0000e+00
</event>
<event>
 6 1 7.08916e-05 5.01864900e+02 7.54677100e-03 9.39564700e-02
      -11 -1    0    0    0    0 +0.0000000000e+00 +0.0000000000e+00 +5.0000000000e+02 5.0000000000e+02 0.0000000000e+00 0.0000e+00 1.0000e+00
       11 -1    0    0    0    0 -0.0000000000e+00 -0.0000000000e+00 -5.0000000000e+02 5.0000000000e+02 0.0000000000e+00 0.0000e+00 -1.0000e+00
      -11  1    1    2    0    0 +2.8978008795e+00 +6.4242199477e+00 +3.5773319266e+02 3.5780260617e+02 0.0000000000e+00 0.0000e+00 1.0000e+00
       11  1    1    2    0    0 -1.3839289014e+01 -9.1179484239e-01 -4.9794201300e+02 4.9813512785e+02 0.0000000000e+00 0.0000e+00 -1.0000e+00
      -15  1    1    2    0    0 +9.0495192070e+00 +8.6664969503e+00 +2.5670937745e+01 2.8620914398e+01 1.7770000000e+00 0.0000e+00 -1.0000e+00
       15  1    1    2    0    0 +1.8919689277e+00 -1.4178922056e+01 +1.1453788259e+02 1.1544135158e+02 1.7770000000e+00 0.0000e+00 1.0000e+00
</event>
<event>
 6 1 7.08916e-05 5.09298200e+02 7.54677100e-03 9.37924100e-02
      -11 -1    0    0    0    0 +0.0000000000e+00 +0.0000000000e+00 +5.0000000000e+02 5.0000000000e+02 0.0000000000e+00 0.0000e+00 1.0000e+00
       11 -1    0    0    0    0 -0.0000000000e+00 -0.0000000000e+00 -5.0000000000e+02 5.0000000000e+02 0.0000000000e+00 0.0000e+00 -1.0000e+00
      -11  1    1    2    0    0 +1.3008177691e+01 +1.1283894678e+01 +4.4448634606e+02 4.4481979588e+02 0.0000000000e+00 0.0000e+00 1.0000e+00
       11  1    1    2    0    0 +7.7905428609e+00 +1.5324008586e+00 -4.9063752971e+02 4.9070176928e+02 0.0000000000e+00 0.0000e+00 -1.0000e+00
      -15  1    1    2    0    0 -1.3881198338e+01 -1.3864855769e+01 +2.0678383819e+00 1.9807967523e+01 1.7770000000e+00 0.0000e+00 -1.0000e+00
       15  1    1    2    0    0 -6.9175222136e+00 +1.0485602330e+00 +4.4083345266e+01 4.4670467324e+01 1.7770000000e+00 0.0000e+00 1.0000e+00
</event>
<event>
 6 1 7.08916e-05 5.02506900e+02 7.54677100e-03 9.39421800e-02
      -11 -1    0    0    0    0 +0.0000000000e+00 +0.0000000000e+00 +5.0000000000e+02 5.0000000000e+02 0.0000000000e+00 0.0000e+00 1.0000e+00
       11 -1    0    0    0    0 -0.0000000000e+00 -0.0000000000e+00 -5.0000000000e+02 5.0000000000e+02 0.0000000000e+00 0.0000e+00 -1.0000e+00
      -11  1    1    2    0    0 +7.5136228148e+00 +3.7273632198e-01 +4.6722749739e+02 4.6728805654e+02 0.0000000000e+00 0.0000e+00 1.0000e+00
       11  1    1    2    0    0 +5.5185723686e+00 -8.3308691962e+00 -4.9739274168e+02 4.9749311301e+02 0.0000000000e+00 0.0000e+00 -1.0000e+00
      -15  1    1    2    0    0 -4.1627197028e+00 +2.6800345575e-01 +2.6509206787e+00 5.2521586630e+00 1.7770000000e+00 0.0000e+00 -1.0000e+00
       15  1    1    2    0    0 -8.8694754806e+00 +7.6901294185e+00 +2.7514323604e+01 2.9966671790e+01 1.7770000000e+00 0.0000e+00 1.0000e+00
</event>
<event>
 6 1 7.08916e-05 5.29415400e+02 7.54677100e-03 9.33629400e-02
      -11 -1    0    0    0    0 +0.0000000000e+00 +0.0000000000e+00 +5.0000000000e+02 5.0000000000e+02 0.0000000000e+00 0.0000e+00 -1.0000e+00
       11 -1    0    0    0    0 -0.0000000000e+00 -0.0000000000e+00 -5.0000000000e+02 5.0000000000e+02 0.0000000000e+00 0.0000e+00 1.0000e+00
      -11  1    1    2    0    0 -4.8345725637e-01 +8.2842259527e+00 +4.7051139983e+02 4.7058457210e+02 0.0000000000e+00 0.0000e+00 -1.0000e+00
       11  1    1    2    0    0 -1.0710547487e+00 -8.5098027450e+00 -1.5110889613e+02 1.5135211393e+02 0.0000000000e+00 0.0000e+00 1.0000e+00
      -15  1    1    2    0    0 -1.3917942822e+01 -1.0556397303e+00 +2.7456798358e+01 3.0852180032e+01 1.7770000000e+00 0.0000e+00 -1.0000e+00
       15  1    1    2    0    0 +1.5472454827e+01 +1.2812165225e+00 -3.4685930206e+02 3.4721113394e+02 1.7770000000e+00 0.0000e+00 1.0000e+00
</event>
<event>
 6 1 7.08916e-05 4.92521900e+02 7.54677100e-03 9.41670000e-02
      -11 -1    0    0    0    0 +0.0000000000e+00 +0.0000000000e+00 +5.0000000000e+02 5.0000000000e+02 0.0000000000e+00 0.0000e+00 -1.0000e+00
       11 -1    0    0    0    0 -0.0000000000e+00 -0.0000000000e+00 -5.0000000000e+02 5.0000000000e+02 0.0000000000e+00 0.0000e+00 -1.0000e+00
      -11  1    1    2    0    0 +2.9481553645e+00 +6.3167473269e+00 +4.9548132597e+02 4.9553035962e+02 0.0000000000e+00 0.0000e+00 -1.0000e+00
       11  1    1    2    0    0 +7.8379205052e+00 -1.6179377849e+00 -4.8953620245e+02 4.8960161788e+02 0.0000000000e+00 0.0000e+00 -1.0000e+00
      -15  1    1    2    0    0 -4.9066049672e+00 -4.6837944317e+00 -1.2174043330e+00 7.1170573198e+00 1.7770000000e+00 0.0000e+00 -1.0000e+00
       15  1    1    2    0    0 -5.8794709025e+00 -1.5015110262e-02 -4.7277191892e+00 7.7509651837e+00 1.7770000000e+00 0.0000e+00 1.0000e+00
</event>
<event>
 6 1 7.08916e-05 4.70544000e+02 7.54677100e-03 9.46824400e-02
      -11 -1    0    0    0    0 +0.0000000000e+00 +0.0000000000e+00 +5.0000000000e+02 5.0000000000e+02 0.0000000000e+00 0.0000e+00 1.0000e+00
       11 -1    0    0    0    0 -0.0000000000e+00 -0.0000000000e+00 -5.0000000000e+02 5.0000000000e+02 0.0000000000e+00 0.0000e+00 -1.0000e+00
      -11  1    1    2    0    0 +1.8658033876e+01 -4.2038135049e+01 +4.8159908241e+02 4.8379024711e+02 0.0000000000e+00 0.0000e+00 1.0000e+00
       11  1    1    2    0    0 -1.1809181358e+01 -5.3034631640e+00 -4.5861045410e+02 4.5879312559e+02 0.0000000000e+00 0.0000e+00 -1.0000e+00
      -15  1    1    2    0    0 -1.1621342294e+01 +4.0737617276e+01 -2.4458204127e+01 4.8948652036e+01 1.7770000000e+00 0.0000e+00 1.0000e+00
       15  1    1    2    0    0 +4.7724897767e+00 +6.6039809366e+00 +1.4695758179e+00 8.4679752577e+00 1.7770000000e+00 0.0000e+00 -1.0000e+00
</event>
<event>
 6 1 7.08916e-05 5.02067000e+02 7.54677100e-03 9.39519700e-02
      -11 -1    0    0    0    0 +0.0000000000e+00 +0.0000000000e+00 +5.0000000000e+02 5.0000000000e+02 0.0000000000e+00 0.0000e+00 -1.0000e+00
       11 -1    0    0    0    0 -0.0000000000e+00 -0.0000000000e+00 -5.0000000000e+02 5.0000000000e+02 0.0000000000e+00 0.0000e+00 1.0000e+00
      -11  1    1    2    0    0 +9.0245518540e+00 -5.2331041608e+00 +4.9782373454e+02 4.9793302621e+02 0.0000000000e+00 0.0000e+00 -1.0000e+00
       11  1    1    2    0    0 -1.1522818794e+01 +1.7694503924e+00 -4.8359643624e+02 4.8373693208e+02 0.0000000000e+00 0.0000e+00 1.0000e+00
      -15  1    1    2    0    0 +6.0082318194e+00 +1.9288997543e-01 -6.2413766449e+00 8.8458220399e+00 1.7770000000e+00 0.0000e+00 -1.0000e+00
       15  1    1    2    0    0 -3.5099648793e+00 +3.2707637929e+00 -7.9859216534e+00 9.4842196778e+00 1.7770000000e+00 0.0000e+00 1.0000e+00
</event>
<event>
 6 1 7.08916e-05 5.07715800e+02 7.54677100e-03 9.38270900e-02
      -11 -1    0    0    0    0 +0.0000000000e+00 +0.0000000000e+00 +5.0000000000e+02 5.0000000000e+02 0.0000000000e+00 0.0000e+00 1.0000e+00
       11 -1    0    0    0    0 -0.0000000000e+00 -0.0000000000e+00 -5.0000000000e+02 5.0000000000e+02 0.0000000000e+00 0.0000e+00 1.0000e+00
      -11  1    1    2    0    0 +2.0878964923e+01 -2.1502296285e+01 +1.7371165334e+02 1.7627824150e+02 0.0000000000e+00 0.0000e+00 1.0000e+00
       11  1    1    2    0    0 -6.0978871496e+00 -5.8608912691e+00 -4.9221149732e+02 4.9228415816e+02 0.0000000000e+00 0.0000e+00 1.0000e+00
      -15  1    1    2    0    0 +2.1689665640e+00 -2.4999009610e+00 -4.9227818275e+00 6.1923687465e+00 1.7770000000e+00 0.0000e+00 -1.0000e+00
       15  1    1    2    0    0 -1.6950044338e+01 +2.9863088515e+01 +3.2342262581e+02 3.2524523159e+02 1.7770000000e+00 0.0000e+00 1.0000e+00
</event>
<event>
 6 1 7.08916e-05 5.12813800e+02 7.54677100e-03 9.37158600e-02
      -11 -1    0    0    0    0 +0.0000000000e+00 +0.0000000000e+00 +5.0000000000e+02 5.0000000000e+02 0.0000000000e+00 0.0000e+00 -1.0000e+00
       11 -1    0    0    0    0 -0.0000000000e+00 -0.0000000000e+00 -5.0000000000e+02 5.0000000000e+02 0.0000000000e+00 0.0000e+00 1.0000e+00
      -11  1    1    2    0    0 -3.8798330320e+01 -7.8630043315e+01 +2.1251480854e+02 2.2989244876e+02 0.0000000000e+00 0.0000e+00 -1.0000e+00
       11  1    1    2    0    0 -2.8694636044e+01 +4.3473208551e+01 -4.8439352088e+02 4.8718619138e+02 0.0000000000e+00 0.0000e+00 1.0000e+00
      -15  1    1    2    0    0 +6.6724905333e+00 -1.7237055007e+00 +2.3933184112e+01 2.4968947141e+01 1.7770000000e+00 0.0000e+00 -1.0000e+00
       15  1    1    2    0    0 +6.0820475831e+01 +3.6880540264e+01 +2.4794552823e+02 2.5795241272e+02 1.7770000000e+00 0.0000e+00 1.0000e+00
</event>
<event>
 6 1 7.08916e-05 4.49626200e+02 7.54677100e-03 9.52016400e-02
      -11 -1    0    0    0    0 +0.0000000000e+00 +0.0000000000e+00 +5.0000000000e+02 5.0000000000e+02 0.0000000000e+00 0.0000e+00 1.0000e+00
       11 -1    0    0    0    0 -0.0000000000e+00 -0.0000000000e+00 -5.0000000000e+02 5.0000000000e+02 0.0000000000e+00 0.0000e+00 1.0000e+00
      -11  1    1    2    0    0 +5.1523410403e+00 -1.0502903993e+01 +4.4919154613e+02 4.4934385800e+02 0.0000000000e+00 0.0000e+00 1.0000e+00
       11  1    1    2    0    0 +1.1897165885e+01 +6.9863068959e+00 -4.4986581444e+02 4.5007732896e+02 0.0000000000e+00 0.0000e+00 1.0000e+00
      -15  1    1    2    0    0 -2.7651279217e+01 +3.1260537746e+01 +3.5467135260e+01 5.4798630230e+01 1.7770000000e+00 0.0000e+00 -1.0000e+00
       15  1    1    2    0    0 +1.0601772292e+01 -2.7743940649e+01 -3.4792866949e+01 4.5780182809e+01 1.7770000000e+00 0.0000e+00 1.0000e+00
</event>
<event>
 6 1 7.08916e-05 5.33298000e+02 7.54677100e-03 9.32823800e-02
      -11 -1    0    0    0    0 +0.0000000000e+00 +0.0000000000e+00 +5.0000000000e+02 5.0000000000e+02 0.0000000000e+00 0.0000e+00 1.0000e+00
       11 -1    0    0    0    0 -0.0000000000e+00 -0.0000000000e+00 -5.0000000000e+02 5.0000000000e+02 0.0000000000e+00 0.0000e+00 1.0000e+00
      -11  1    1    2    0    0 -1.1881769789e+00 +7.4126600199e+00 +4.3805541438e+02 4.3811973861e+02 0.0000000000e+00 0.0000e+00 1.0000e+00
       11  1    1    2    0    0 -3.0447673000e+00 +7.1206689155e+00 -4.6663775894e+02 4.6670201692e+02 0.0000000000e+00 0.0000e+00 1.0000e+00
      -15  1    1    2    0    0 +8.2763918668e-01 -1.3240283714e+01 +6.1028979015e+01 6.2479469492e+01 1.7770000000e+00 0.0000e+00 -1.0000e+00
       15  1    1    2    0    0 +3.4053050922e+00 -1.2930452216e+00 -3.2446634452e+01 3.2698774977e+01 1.7770000000e+00 0.0000e+00 -1.0000e+00
</event>
<event>
 6 1 7.08916e-05 5.00624000e+02 7.54677100e-03 9.39841500e-02
      -11 -1    0    0    0    0 +0.0000000000e+00 +0.0000000000e+00 +5.0000000000e+02 5.0000000000e+02 0.0000000000e+00 0.0000e+00 1.0000e+00
       11 -1    0    0    0    0 -0.0000000000e+00 -0.0000000000e+00 -5.0000000000e+02 5.0000000000e+02 0.0000000000e+00 0.0000e+00 1.0000e+00
      -11  1    1    2    0    0 -1.0718313329e+01 +5.4387510987e+00 +4.9923131685e+02 4.9937598058e+02 0.0000000000e+00 0.0000e+00 1.0000e+00
       11  1    1    2    0    0 +3.0038504629e-01 -9.8752019886e+00 -4.0476279571e+01 4.1664601923e+01 0.0000000000e+00 0.0000e+00 1.0000e+00
      -15  1    1    2    0    0 +5.4914285452e+00 -7.6423525263e-01 -1.4362444507e+02 1.4374240430e+02 1.7770000000e+00 0.0000e+00 -1.0000e+00
       15  1    1    2    0    0 +4.9264997379e+00 +5.2006861426e+00 -3.1513059221e+02 3.1521701320e+02 1.7770000000e+00 0.0000e+00 1.0000e+00
</event>
<event>
 6 1 7.08916e-05 5.00500700e+02 7.54677100e-03 9.39869000e-02
      -11 -1    0    0    0    0 +0.0000000000e+00 +0.0000000000e+00 +5.0000000000e+02 5.0000000000e+02 0.0000000000e+00 0.0000e+00 -1.0000e+00
       11 -1    0    0    0    0 -0.0000000000e+00 -0.0000000000e+00 -5.0000000000e+02 5.0000000000e+02 0.0000000000e+00 0.0000e+00 -1.0000e+00
      -11  1    1    2    0    0 -4.7370702157e-01 +4.3486451091e+00 +2.4754298662e+02 2.4758163368e+02 0.0000000000e+00 0.0000e+00 -1.0000e+00
       11  1    1    2    0    0 -7.3545192787e+00 +1.2440781397e+00 -4.9944357232e+02 4.9949926789e+02 0.0000000000e+00 0.0000e+00 -1.0000e+00
      -15  1    1    2    0    0 +1.3799834909e+00 +5.5806762942e+00 +2.7956799742e+01 2.8597004793e+01 1.7770000000e+00 0.0000e+00 1.0000e+00
       15  1    1    2    0    0 +6.4482428093e+00 -1.1173399543e+01 +2.2394378596e+02 2.2432209363e+02 1.7770000000e+00 0.0000e+00 -1.0000e+00
</event>
<event>
 6 1 7.08916e-05 5.23490200e+02 7.54677100e-03 9.34873000e-02
      -11 -1    0    0    0    0 +0.0000000000e+00 +0.0000000000e+00 +5.0000000000e+02 5.0000000000e+02 0.0000000000e+00 0.0000e+00 1.0000e+00
       11 -1    0    0    0    0 -0.0000000000e+00 -0.0000000000e+00 -5.0000000000e+02 5.0000000000e+02 0.0000000000e+00 0.0000e+00 -1.0000e+00
      -11  1    1    2    0    0 -5.9968013916e+00 +3.0912073599e+00 +4.7646201104e+02 4.7650977446e+02 0.0000000000e+00 0.0000e+00 1.0000e+00
       11  1    1    2    0    0 +4.7046880485e+00 -8.3732876938e+00 -4.6723905123e+02 4.6733775477e+02 0.0000000000e+00 0.0000e+00 -1.0000e+00
      -15  1    1    2    0    0 +2.3940354200e+01 -1.1645032140e+01 -7.7465496337e+00 2.7783342005e+01 1.7770000000e+00 0.0000e+00 -1.0000e+00
       15  1    1    2    0    0 -2.2648240857e+01 +1.6927112474e+01 -1.4764101763e+00 2.8369128760e+01 1.7770000000e+00 0.0000e+00 1.0000e+00
</event>
<event>
 6 1 7.08916e-05 5.00146600e+02 7.54677100e-03 9.39948200e-02
      -11 -1    0    0    0    0 +0.0000000000e+00 +0.0000000000e+00 +5.0000000000e+02 5.0000000000e+02 0.0000000000e+00 0.0000e+00 -1.0000e+00
       11 -1    0    0    0    0 -0.0000000000e+00 -0.0000000000e+00 -5.0000000000e+02 5.0000000000e+02 0.0000000000e+00 0.0000e+00 -1.0000e+00
      -11  1    1    2    0    0 -7.9430397624e+00 +3.4595583251e+00 +4.9977834792e+02 4.9985343599e+02 0.0000000000e+00 0.0000e+00 -1.0000e+00
       11  1    1    2    0    0 +3.6729959922e+00 -2.4795750011e+00 -2.8829417511e+02 2.8832823412e+02 0.0000000000e+00 0.0000e+00 -1.0000e+00
      -15  1    1    2    0    0 -8.7041705267e-02 +1.6182283092e+00 -1.6603315010e+02 1.6605056729e+02 1.7770000000e+00 0.0000e+00 -1.0000e+00
       15  1    1    2    0    0 +4.3570854755e+00 -2.5982116331e+00 -4.5451022716e+01 4.5767762590e+01 1.7770000000e+00 0.0000e+00 1.0000e+00
</event>
<event>
 6 1 7.08916e-05 5.10604200e+02 7.54677100e-03 9.37639000e-02
      -11 -1    0    0    0    0 +0.0000000000e+00 +0.0000000000e+00 +5.0000000000e+02 5.0000000000e+02 0.0000000000e+00 0.0000e+00 -1.0000e+00
       11 -1    0    0    0    0 -0.0000000000e+00 -0.0000000000e+00 -5.0000000000e+02 5.0000000000e+02 0.0000000000e+00 0.0000e+00 -1.0000e+00
      -11  1    1    2    0    0 +4.3103704123e+00 +9.6882718318e+00 +4.8928089130e+02 4.8939578308e+02 0.0000000000e+00 0.0000e+00 -1.0000e+00
       11  1    1    2    0    0 +1.5594773026e+01 -6.8366590113e+00 -4.5660449514e+02 4.5692187717e+02 0.0000000000e+00 0.0000e+00 -1.0000e+00
      -15  1    1    2    0    0 +1.9689416318e-01 -1.7229541477e+00 -3.3366345607e+01 3.3458602578e+01 1.7770000000e+00 0.0000e+00 -1.0000e+00
       15  1    1    2    0    0 -2.0102037602e+01 -1.1286586728e+00 +6.8994944213e-01 2.0223737176e+01 1.7770000000e+00 0.0000e+00 1.0000e+00
</event>
<event>
 6 1 7.08916e-05 5.06951600e+02 7.54677100e-03 9.38438800e-02
      -11 -1    0    0    0    0 +0.0000000000e+00 +0.0000000000e+00 +5.0000000000e+02 5.0000000000e+02 0.0000000000e+00 0.0000e+00 1.0000e+00
       11 -1    0    0    0    0 -0.0000000000e+00 -0.0000000000e+00 -5.0000000000e+02 5.0000000000e+02 0.0000000000e+00 0.0000e+00 -1.0000e+00
      -11  1    1    2    0    0 -1.2466403500e+01 +5.8394296683e+00 +4.9285619894e+02 4.9304841850e+02 0.0000000000e+00 0.0000e+00 1.0000e+00
       11  1    1    2    0    0 -5.6427628245e+00 -6.2322721468e+00 -4.7660913779e+02 4.7668328292e+02 0.0000000000e+00 0.0000e+00 -1.0000e+00
      -15  1    1    2    0    0 +1.5276342305e+01 -1.1918655272e+00 -2.0072523596e+00 1.5555512485e+01 1.7770000000e+00 0.0000e+00 -1.0000e+00
       15  1    1    2    0    0 +2.8328240199e+00 +1.5847080057e+00 -1.4239808787e+01 1.4712786095e+01 1.7770000000e+00 0.0000e+00 1.0000e+00
</event>
<event>
 6 1 7.08916e-05 4.78838300e+02 7.54677100e-03 9.44844700e-02
      -11 -1    0    0    0    0 +0.0000000000e+00 +0.0000000000e+00 +5.0000000000e+02 5.0000000000e+02 0.0000000000e+00 0.0000e+00 1.0000e+00
       11 -1    0    0    0    0 -0.0000000000e+00 -0.0000000000e+00 -5.0000000000e+02 5.0000000000e+02 0.0000000000e+00 0.0000e+00 -1.0000e+00
      -11  1    1    2    0    0 -7.1332689262e+00 -5.2970825430e+00 +4.8582511409e+02 4.8590635321e+02 0.0000000000e+00 0.0000e+00 1.0000e+00
       11  1    1    2    0    0 +1.6223160392e+01 -2.6658888014e+01 -4.7142272834e+02 4.7245452272e+02 0.0000000000e+00 0.0000e+00 -1.0000e+00
      -15  1    1    2    0    0 -8.1303896805e+00 +2.4118735528e+01 -1.9466269592e+01 3.2092211215e+01 1.7770000000e+00 0.0000e+00 1.0000e+00
       15  1    1    2    0    0 -9.5950178548e-01 +7.8372350290e+00 +5.0638838328e+00 9.5469128543e+00 1.7770000000e+00 0.0000e+00 -1.0000e+00
</event>
<event>
 6 1 7.08916e-05 5.00489000e+02 7.54677100e-03 9.39871600e-02
      -11 -1    0    0    0    0 +0.0000000000e+00 +0.0000000000e+00 +5.0000000000e+02 5.0000000000e+02 0.0000000000e+00 0.0000e+00 1.0000e+00
       11 -1    0    0    0    0 -0.0000000000e+00 -0.0000000000e+00 -5.0000000000e+02 5.0000000000e+02 0.0000000000e+00 0.0000e+00 1.0000e+00
      -11  1    1    2    0    0 +7.9839257837e+00 +3.0965157926e+00 +4.9943755018e+02 4.9951095885e+02 0.0000000000e+00 0.0000e+00 1.0000e+00
       11  1    1    2    0    0 -6.1825484419e+00 -1.5725915362e+00 -3.9018418096e+02 3.9023632843e+02 0.0000000000e+00 0.0000e+00 1.0000e+00
      -15  1    1    2    0    0 -8.0059255079e+00 -6.0217619453e-01 -5.5618054709e+01 5.6222621764e+01 1.7770000000e+00 0.0000e+00 -1.0000e+00
       15  1    1    2    0    0 +6.2045481662e+00 -9.2174806183e-01 -5.3635314510e+01 5.4030090959e+01 1.7770000000e+00 0.0000e+00 1.0000e+00
</event>
<event>
 6 1 7.08916e-05 5.00315500e+02 7.54677100e-03 9.39910400e-02
      -11 -1    0    0    0    0 +0.0000000000e+00 +0.0000000000e+00 +5.0000000000e+02 5.0000000000e+02 0.0000000000e+00 0.0000e+00 -1.0000e+00
       11 -1    0    0    0    0 -0.0000000000e+00 -0.0000000000e+00 -5.0000000000e+02 5.0000000000e+02 0.0000000000e+00 0.0000e+00 -1.0000e+00
      -11  1    1    2    0    0 -2.6637319968e+00 +3.4749294012e+00 +1.6301586343e+02 1.6307465263e+02 0.0000000000e+00 0.0000e+00 -1.0000e+00
       11  1    1    2    0    0 -5.8615535892e+00 -9.6780638090e+00 -4.9955641562e+02 4.9968453560e+02 0.0000000000e+00 0.0000e+00 -1.0000e+00
      -15  1    1    2    0    0 +3.4792972143e+00 +8.5991028203e+00 +6.9830305693e+01 7.0466157839e+01 1.7770000000e+00 0.0000e+00 -1.0000e+00
       15  1    1    2    0    0 +5.0459883718e+00 -2.3959684124e+00 +2.6671024650e+02 2.6677465393e+02 1.7770000000e+00 0.0000e+00 1.0000e+00
</event>
<event>
 6 1 7.08916e-05 5.00182300e+02 7.54677100e-03 9.39940200e-02
      -11 -1    0    0    0    0 +0.0000000000e+00 +0.0000000000e+00 +5.0000000000e+02 5.0000000000e+02 0.0000000000e+00 0.0000e+00 -1.0000e+00
       11 -1    0    0    0    0 -0.0000000000e+00 -0.0000000000e+00 -5.0000000000e+02 5.0000000000e+02 0.0000000000e+00 0.0000e+00 1.0000e+00
      -11  1    1    2    0    0 +2.6015340424e-01 -3.6614204782e+00 +2.2133369947e+02 2.2136413486e+02 0.0000000000e+00 0.0000e+00 -1.0000e+00
       11  1    1    2    0    0 +9.5236741098e+00 -7.1999059137e+00 -4.9967507794e+02 4.9981768930e+02 0.0000000000e+00 0.0000e+00 1.0000e+00
      -15  1    1    2    0    0 -1.3972014983e+00 +5.6839657622e-01 +2.1119731144e+01 2.1247965063e+01 1.7770000000e+00 0.0000e+00 -1.0000e+00
       15  1    1    2    0    0 -8.3866260157e+00 +1.0292929816e+01 +2.5722164733e+02 2.5757021078e+02 1.7770000000e+00 0.0000e+00 1.0000e+00
</event>
<event>
 6 1 7.08916e-05 5.12193800e+02 7.54677100e-03 9.37293100e-02
      -11 -1    0    0    0    0 +0.0000000000e+00 +0.0000000000e+00 +5.0000000000e+02 5.0000000000e+02 0.0000000000e+00 0.0000e+00 1.0000e+00
       11 -1    0    0    0    0 -0.0000000000e+00 -0.0000000000e+00 -5.0000000000e+02 5.0000000000e+02 0.0000000000e+00 0.0000e+00 -1.0000e+00
      -11  1    1    2    0    0 +2.5300532760e+01 -8.4658478197e-01 +4.8714895326e+02 4.8780624875e+02 0.0000000000e+00 0.0000e+00 1.0000e+00
       11  1    1    2    0    0 -2.1935966337e+00 -6.6074843918e+00 -4.6009962886e+02 4.6015230000e+02 0.0000000000e+00 0.0000e+00 -1.0000e+00
      -15  1    1    2    0    0 -3.3132919567e+01 +7.9124404490e+00 -2.2611118733e+01 4.0924534111e+01 1.7770000000e+00 0.0000e+00 -1.0000e+00
       15  1    1    2    0    0 +1.0025983440e+01 -4.5837127526e-01 -4.4382056653e+00 1.1116917140e+01 1.7770000000e+00 0.0000e+00 1.0000e+00
</event>
<event>
 6 1 7.08916e-05 5.29450000e+02 7.54677100e-03 9.33622200e-02
      -11 -1    0    0    0    0 +0.0000000000e+00 +0.0000000000e+00 +5.0000000000e+02 5.0000000000e+02 0.0000000000e+00 0.0000e+00 1.0000e+00
       11 -1    0    0    0    0 -0.0000000000e+00 -0.0000000000e+00 -5.0000000000e+02 5.0000000000e+02 0.0000000000e+00 0.0000e+00 1.0000e+00
      -11  1    1    2    0    0 -3.0628283732e+00 -5.2270653845e+00 +2.7800579393e+02 2.7807179754e+02 0.0000000000e+00 0.0000e+00 1.0000e+00
       11  1    1    2    0    0 -8.5962708355e+00 -4.2690903998e+00 -4.7045206656e+02 4.7054996327e+02 0.0000000000e+00 0.0000e+00 1.0000e+00
      -15  1    1    2    0    0 -4.3432824820e+00 +3.1577224217e+00 -2.8853671336e+01 2.9402846668e+01 1.7770000000e+00 0.0000e+00 1.0000e+00
       15  1    1    2    0    0 +1.6002381691e+01 +6.3384333626e+00 +2.2129994397e+02 2.2197539252e+02 1.7770000000e+00 0.0000e+00 -1.0000e+00
</event>
<event>
 6 1 7.08916e-05 5.13944600e+02 7.54677100e-03 9.36913700e-02
      -11 -1    0    0    0    0 +0.0000000000e+00 +0.0000000000e+00 +5.0000000000e+02 5.0000000000e+02 0.0000000000e+00 0.0000e+00 -1.0000e+00
       11 -1    0    0    0    0 -0.0000000000e+00 -0.0000000000e+00 -5.0000000000e+02 5.0000000000e+02 0.0000000000e+00 0.0000e+00 -1.0000e+00
      -11  1    1    2    0    0 -1.0942683699e+01 +6.1837197859e+00 +4.8589282139e+02 4.8605536166e+02 0.0000000000e+00 0.0000e+00 -1.0000e+00
       11  1    1    2    0    0 +7.5600701275e+00 +8.9073055239e+00 -4.4216372765e+02 4.4231804938e+02 0.0000000000e+00 0.0000e+00 -1.0000e+00
      -15  1    1    2    0    0 +6.9104841897e+00 -5.1969268869e+00 +1.1995157585e+01 1.4893098243e+01 1.7770000000e+00 0.0000e+00 1.0000e+00
       15  1    1    2    0    0 -3.5278706182e+00 -9.8940984229e+00 -5.5724251323e+01 5.6733490719e+01 1.7770000000e+00 0.0000e+00 -1.0000e+00
</event>
<event>
 6 1 7.08916e-05 5.13120700e+02 7.54677100e-03 9.37092000e-02
      -11 -1    0    0    0    0 +0.0000000000e+00 +0.0000000000e+00 +5.0000000000e+02 5.0000000000e+02 0.0000000000e+00 0.0000e+00 1.0000e+00
       11 -1    0    0    0    0 -0.0000000000e+00 -0.0000000000e+00 -5.0000000000e+02 5.0000000000e+02 0.0000000000e+00 0.0000e+00 -1.0000e+00
      -11  1    1    2    0    0 -1.9991141787e+01 +2.7565065228e+01 +4.3609154017e+02 4.3741891818e+02 0.0000000000e+00 0.0000e+00 1.0000e+00
       11  1    1    2    0    0 -3.7198013239e+00 +6.5164962087e+00 -4.8682144033e+02 4.8687926267e+02 0.0000000000e+00 0.0000e+00 -1.0000e+00
      -15  1    1    2    0    0 +1.8562578753e+00 -4.5001917351e+00 -6.0884924845e+00 7.9953041647e+00 1.7770000000e+00 0.0000e+00 -1.0000e+00
       15  1    1    2    0    0 +2.1854685235e+01 -2.9581369701e+01 +5.6818392647e+01 6.7706514990e+01 1.7770000000e+00 0.0000e+00 1.0000e+00
</event>
<event>
 6 1 7.08916e-05 5.00510400e+02 7.54677100e-03 9.39866800e-02
      -11 -1    0    0    0    0 +0.0000000000e+00 +0.0000000000e+00 +5.0000000000e+02 5.0000000000e+02 0.0000000000e+00 0.0000e+00 -1.0000e+00
       11 -1    0    0    0    0 -0.0000000000e+00 -0.0000000000e+00 -5.0000000000e+02 5.0000000000e+02 0.0000000000e+00 0.0000e+00 1.0000e+00
      -11  1    1    2    0    0 +4.6953064063e+00 +4.8605916198e+00 +4.9944383192e+02 4.9948955194e+02 0.0000000000e+00 0.0000e+00 -1.0000e+00
       11  1    1    2    0    0 +4.8022228115e+00 +6.6650288386e+00 -2.2936268585e+02 2.2950975059e+02 0.0000000000e+00 0.0000e+00 1.0000e+00
      -15  1    1    2    0    0 +1.3905316221e+00 -9.6695714835e-01 -1.4071014150e+02 1.4073155380e+02 1.7770000000e+00 0.0000e+00 -1.0000e+00
       15  1    1    2    0    0 -1.0888060840e+01 -1.0558663310e+01 -1.2937100457e+02 1.3026914367e+02 1.7770000000e+00 0.0000e+00 -1.0000e+00
</event>
<event>
 6 1 7.08916e-05 5.52030600e+02 7.54677100e-03 9.29036800e-02
      -11 -1    0    0    0    0 +0.0000000000e+00 +0.0000000000e+00 +5.0000000000e+02 5.0000000000e+02 0.0000000000e+00 0.0000e+00 -1.0000e+00
       11 -1    0    0    0    0 -0.0000000000e+00 -0.0000000000e+00 -5.0000000000e+02 5.0000000000e+02 0.0000000000e+00 0.0000e+00 1.0000e+00
      -11  1    1    2    0    0 -6.5304221841e+00 +3.7388457469e+00 +3.9750268192e+02 3.9757390195e+02 0.0000000000e+00 0.0000e+00 -1.0000e+00
       11  1    1    2    0    0 +3.7507951217e-01 +2.5606175664e+01 -4.4723683111e+02 4.4796941862e+02 0.0000000000e+00 0.0000e+00 1.0000e+00
      -15  1    1    2    0    0 +3.3222569181e+00 -2.4732350545e+01 -4.9286399226e+01 5.5272356854e+01 1.7770000000e+00 0.0000e+00 1.0000e+00
       15  1    1    2    0    0 +2.8330857538e+00 -4.6126708658e+00 +9.9020548414e+01 9.9184322575e+01 1.7770000000e+00 0.0000e+00 -1.0000e+00
</event>
<event>
 6 1 7.08916e-05 5.25809700e+02 7.54677100e-03 9.34384100e-02
      -11 -1    0    0    0    0 +0.0000000000e+00 +0.0000000000e+00 +5.0000000000e+02 5.0000000000e+02 0.0000000000e+00 0.0000e+00 1.0000e+00
       11 -1    0    0    0    0 -0.0000000000e+00 -0.0000000000e+00 -5.0000000000e+02 5.0000000000e+02 0.0000000000e+00 0.0000e+00 1.0000e+00
      -11  1    1    2    0    0 +5.9700944755e+00 +5.7659160955e+00 +3.9499824063e+02 3.9508543117e+02 0.0000000000e+00 0.0000e+00 1.0000e+00
       11  1    1    2    0    0 +1.3803220166e+01 +1.0441721146e+00 -4.7398815838e+02 4.7419025028e+02 0.0000000000e+00 0.0000e+00 1.0000e+00
      -15  1    1    2    0    0 +4.5493454767e-01 +1.8357907817e+01 +9.3483478482e+01 9.5286610932e+01 1.7770000000e+00 0.0000e+00 -1.0000e+00
       15  1    1    2    0    0 -2.0228249189e+01 -2.5167996027e+01 -1.4493560741e+01 3.5437707618e+01 1.7770000000e+00 0.0000e+00 1.0000e+00
</event>
<event>
 6 1 7.08916e-05 5.03952200e+02 7.54677100e-03 9.39101000e-02
      -11 -1    0    0    0    0 +0.0000000000e+00 +0.0000000000e+00 +5.0000000000e+02 5.0000000000e+02 0.0000000000e+00 0.0000e+00 -1.0000e+00
       11 -1    0    0    0    0 -0.0000000000e+00 -0.0000000000e+00 -5.0000000000e+02 5.0000000000e+02 0.0000000000e+00 0.0000e+00 1.0000e+00
      -11  1    1    2    0    0 -7.2379061953e+00 +1.9499418326e+00 +4.7526891354e+02 4.7532802330e+02 0.0000000000e+00 0.0000e+00 -1.0000e+00
       11  1    1    2    0    0 -5.3757133016e+00 -5.3086085161e+00 -4.9599027240e+02 4.9604781013e+02 0.0000000000e+00 0.0000e+00 1.0000e+00
      -15  1    1    2    0    0 +8.9353640630e+00 +5.5869958885e+00 +4.2381490093e+00 1.1496733885e+01 1.7770000000e+00 0.0000e+00 1.0000e+00
       15  1    1    2    0    0 +3.6782554339e+00 -2.2283292049e+00 +1.6483209859e+01 1.7127432683e+01 1.7770000000e+00 0.0000e+00 -1.0000e+00
</event>
<event>
 6 1 7.08916e-05 5.00181900e+02 7.54677100e-03 9.39940300e-02
      -11 -1    0    0    0    0 +0.0000000000e+00 +0.0000000000e+00 +5.0000000000e+02 5.0000000000e+02 0.0000000000e+00 0.0000e+00 1.0000e+00
       11 -1    0    0    0    0 -0.0000000000e+00 -0.0000000000e+00 -5.0000000000e+02 5.0000000000e+02 0.0000000000e+00 0.0000e+00 1.0000e+00
      -11  1    1    2    0    0 -2.6881646761e+01 -3.9186692997e+01 +4.9755394124e+02 4.9981811120e+02 0.0000000000e+00 0.0000e+00 1.0000e+00
       11  1    1    2    0    0 +2.4474248020e+01 +3.5381021178e+01 -3.8072123103e+02 3.8314417812e+02 0.0000000000e+00 0.0000e+00 1.0000e+00
      -15  1    1    2    0    0 +2.9229459343e+00 +2.9513366334e+00 -9.5805749254e+01 9.5912216740e+01 1.7770000000e+00 0.0000e+00 -1.0000e+00
       15  1    1    2    0    0 -5.1554719264e-01 +8.5433518512e-01 -2.1026960964e+01 2.1125493932e+01 1.7770000000e+00 0.0000e+00 -1.0000e+00
</event>
<event>
 6 1 7.08916e-05 5.01498300e+02 7.54677100e-03 9.39646300e-02
      -11 -1    0    0    0    0 +0.0000000000e+00 +0.0000000000e+00 +5.0000000000e+02 5.0000000000e+02 0.0000000000e+00 0.0000e+00 1.0000e+00
       11 -1    0    0    0    0 -0.0000000000e+00 -0.0000000000e+00 -5.0000000000e+02 5.0000000000e+02 0.0000000000e+00 0.0000e+00 1.0000e+00
      -11  1    1    2    0    0 -3.6319546921e+00 +4.6731181253e+00 +3.3228342105e+02 3.3233612659e+02 0.0000000000e+00 0.0000e+00 1.0000e+00
       11  1    1    2    0    0 -8.4152792961e+00 -4.9409083999e+00 -4.9840615015e+02 4.9850167503e+02 0.0000000000e+00 0.0000e+00 1.0000e+00
      -15  1    1    2    0    0 +1.8048924643e+01 +6.1564010649e+00 +1.4641325078e+02 1.4766063351e+02 1.7770000000e+00 0.0000e+00 1.0000e+00
       15  1    1    2    0    0 -6.0016906550e+00 -5.8886107903e+00 +1.9709478318e+01 2.1501564881e+01 1.7770000000e+00 0.0000e+00 -1.0000e+00
</event>
<event>
 6 1 7.08916e-05 5.00122200e+02 7.54677100e-03 9.39953600e-02
      -11 -1    0    0    0    0 +0.0000000000e+00 +0.0000000000e+00 +5.0000000000e+02 5.0000000000e+02 0.0000000000e+00 0.0000e+00 1.0000e+00
       11 -1    0    0    0    0 -0.0000000000e+00 -0.0000000000e+00 -5.0000000000e+02 5.0000000000e+02 0.0000000000e+00 0.0000e+00 1.0000e+00
      -11  1    1    2    0    0 -6.0675600375e+00 -8.0234720332e+00 +4.9977656968e+02 4.9987779605e+02 0.0000000000e+00 0.0000e+00 1.0000e+00
       11  1    1    2    0    0 -2.0210623484e+00 +1.8164702085e+00 -1.0498757639e+02 1.0502273780e+02 0.0000000000e+00 0.0000e+00 1.0000e+00
      -15  1    1    2    0    0 +3.6228740950e+00 +3.7780748365e+00 -3.4032413557e+02 3.4036902627e+02 1.7770000000e+00 0.0000e+00 1.0000e+00
       15  1    1    2    0    0 +4.4657482910e+00 +2.4289269882e+00 -5.4464857718e+01 5.4730439879e+01 1.7770000000e+00 0.0000e+00 -1.0000e+00
</event>
<event>
 6 1 7.08916e-05 5.00811700e+02 7.54677100e-03 9.39799500e-02
      -11 -1    0    0    0    0 +0.0000000000e+00 +0.0000000000e+00 +5.0000000000e+02 5.0000000000e+02 0.0000000000e+00 0.0000e+00 -1.0000e+00
       11 -1    0    0    0    0 -0.0000000000e+00 -0.0000000000e+00 -5.0000000000e+02 5.0000000000e+02 0.0000000000e+00 0.0000e+00 1.0000e+00
      -11  1    1    2    0    0 +6.6512690362e+00 -1.8359227031e+00 +4.2206412586e+02 4.2212052346e+02 0.0000000000e+00 0.0000e+00 -1.0000e+00
       11  1    1    2    0    0 +3.6016729931e-01 +6.8889833266e+00 -4.9914064308e+02 4.9918831054e+02 0.0000000000e+00 0.0000e+00 1.0000e+00
      -15  1    1    2    0    0 -1.6731378610e+00 -5.0294396497e+00 +6.6291291505e+01 6.6526594020e+01 1.7770000000e+00 0.0000e+00 -1.0000e+00
       15  1    1    2    0    0 -5.3382984746e+00 -2.3620973753e-02 +1.0785225713e+01 1.2164571971e+01 1.7770000000e+00 0.0000e+00 1.0000e+00
</event>
<event>
 6 1 7.08916e-05 5.20822400e+02 7.54677100e-03 9.35438700e-02
      -11 -1    0    0    0    0 +0.0000000000e+00 +0.0000000000e+00 +5.0000000000e+02 5.0000000000e+02 0.0000000000e+00 0.0000e+00 -1.0000e+00
       11 -1    0    0    0    0 -0.0000000000e+00 -0.0000000000e+00 -5.0000000000e+02 5.0000000000e+02 0.0000000000e+00 0.0000e+00 1.0000e+00
      -11  1    1    2    0    0 -1.8931671116e+01 -5.0155596555e+01 +4.7616931647e+02 4.7917763928e+02 0.0000000000e+00 0.0000e+00 -1.0000e+00
       11  1    1    2    0    0 +2.9233574438e+01 -1.0205958630e+01 -2.2022456308e+02 2.2239069596e+02 0.0000000000e+00 0.0000e+00 1.0000e+00
      -15  1    1    2    0    0 -1.5582634849e+01 +2.1960843785e+00 -2.3623510664e+02 2.3676533664e+02 1.7770000000e+00 0.0000e+00 1.0000e+00
       15  1    1    2    0    0 +5.2807315275e+00 +5.8165470806e+01 -1.9709646746e+01 6.1666328117e+01 1.7770000000e+00 0.0000e+00 -1.0000e+00
</event>
<event>
 6 1 7.08916e-05 4.88822900e+02 7.54677100e-03 9.42517300e-02
      -11 -1    0    0    0    0 +0.0000000000e+00 +0.0000000000e+00 +5.0000000000e+02 5.0000000000e+02 0.0000000000e+00 0.0000e+00 -1.0000e+00
       11 -1    0    0    0    0 -0.0000000000e+00 -0.0000000000e+00 -5.0000000000e+02 5.0000000000e+02 0.0000000000e+00 0.0000e+00 1.0000e+00
      -11  1    1    2    0    0 +1.1888638556e+01 +8.6040243683e+00 +4.9327584880e+02 4.9349410530e+02 0.0000000000e+00 0.0000e+00 -1.0000e+00
       11  1    1    2    0    0 -1.2797036198e+01 +9.7299303281e+00 -4.8410023226e+02 4.8436708244e+02 0.0000000000e+00 0.0000e+00 1.0000e+00
      -15  1    1    2    0    0 +2.0389707408e+00 -1.4640676301e+00 -2.1014688588e+00 3.7248887328e+00 1.7770000000e+00 0.0000e+00 -1.0000e+00
       15  1    1    2    0    0 -1.1305730988e+00 -1.6869887066e+01 -7.0741476840e+00 1.8413923526e+01 1.7770000000e+00 0.0000e+00 1.0000e+00
</event>
<event>
 6 1 7.08916e-05 5.00090300e+02 7.54677100e-03 9.39960800e-02
      -11 -1    0    0    0    0 +0.0000000000e+00 +0.0000000000e+00 +5.0000000000e+02 5.0000000000e+02 0.0000000000e+00 0.0000e+00 1.0000e+00
       11 -1    0    0    0    0 -0.0000000000e+00 -0.0000000000e+00 -5.0000000000e+02 5.0000000000e+02 0.0000000000e+00 0.0000e+00 1.0000e+00
      -11  1    1    2    0    0 -5.8092220222e+00 +9.8877079346e+00 +4.9977817145e+02 4.9990972634e+02 0.0000000000e+00 0.0000e+00 1.0000e+00
       11  1    1    2    0    0 +4.7157651981e+00 -3.1054267399e+00 -1.2549643520e+02 1.2562339497e+02 0.0000000000e+00 0.0000e+00 1.0000e+00
      -15  1    1    2    0    0 +2.8552101797e+00 -7.3216250962e+00 -1.9435173398e+02 1.9451866916e+02 1.7770000000e+00 0.0000e+00 -1.0000e+00
       15  1    1    2    0    0 -1.7617533556e+00 +5.3934390149e-01 -1.7993000227e+02 1.7994820953e+02 1.7770000000e+00 0.0000e+00 1.0000e+00
</event>
<event>
 6 1 7.08916e-05 5.03668900e+02 7.54677100e-03 9.39163800e-02
      -11 -1    0    0    0    0 +0.0000000000e+00 +0.0000000000e+00 +5.0000000000e+02 5.0000000000e+02 0.0000000000e+00 0.0000e+00 1.0000e+00
       11 -1    0    0    0    0 -0.0000000000e+00 -0.0000000000e+00 -5.0000000000e+02 5.0000000000e+02 0.0000000000e+00 0.0000e+00 -1.0000e+00
      -11  1    1    2    0    0 +6.9867700214e+00 +1.0503369768e+01 +3.7713634944e+02 3.7734726950e+02 0.0000000000e+00 0.0000e+00 1.0000e+00
       11  1    1    2    0    0 -1.0596833551e+01 -1.5590592931e-02 -4.9621796981e+02 4.9633110590e+02 0.0000000000e+00 0.0000e+00 -1.0000e+00
      -15  1    1    2    0    0 +8.2648716592e+00 -1.6324817654e+00 +2.0511277564e+00 8.8508730829e+00 1.7770000000e+00 0.0000e+00 1.0000e+00
       15  1    1    2    0    0 -4.6548081293e+00 -8.8552974093e+00 +1.1703049261e+02 1.1747075151e+02 1.7770000000e+00 0.0000e+00 -1.0000e+00
</event>
<event>
 6 1 7.08916e-05 5.00544200e+02 7.54677100e-03 9.39859300e-02
      -11 -1    0    0    0    0 +0.0000000000e+00 +0.0000000000e+00 +5.0000000000e+02 5.0000000000e+02 0.0000000000e+00 0.0000e+00 -1.0000e+00
       11 -1    0    0    0    0 -0.0000000000e+00 -0.0000000000e+00 -5.0000000000e+02 5.0000000000e+02 0.0000000000e+00 0.0000e+00 1.0000e+00
      -11  1    1    2    0    0 +9.3322176975e+00 +9.6591210430e-01 +4.9936771544e+02 4.9945584239e+02 0.0000000000e+00 0.0000e+00 -1.0000e+00
       11  1    1    2    0    0 -7.3818210717e+00 -7.2039260821e+00 -3.8421921914e+02 3.8435764099e+02 0.0000000000e+00 0.0000e+00 1.0000e+00
      -15  1    1    2    0    0 -5.3658439235e+00 +4.1040753499e+00 -1.0347733798e+02 1.0371283874e+02 1.7770000000e+00 0.0000e+00 1.0000e+00
       15  1    1    2    0    0 +3.4154472977e+00 +2.1339386279e+00 -1.1671158323e+01 1.2473677882e+01 1.7770000000e+00 0.0000e+00 -1.0000e+00
</event>
<event>
 6 1 7.08916e-05 5.00161400e+02 7.54677100e-03 9.39944900e-02
      -11 -1    0    0    0    0 +0.0000000000e+00 +0.0000000000e+00 +5.0000000000e+02 5.0000000000e+02 0.0000000000e+00 0.0000e+00 -1.0000e+00
       11 -1    0    0    0    0 -0.0000000000e+00 -0.0000000000e+00 -5.0000000000e+02 5.0000000000e+02 0.0000000000e+00 0.0000e+00 1.0000e+00
      -11  1    1    2    0    0 +1.3037177153e+01 +1.7109877692e+01 +4.9937550608e+02 4.9983858592e+02 0.0000000000e+00 0.0000e+00 -1.0000e+00
       11  1    1    2    0    0 -7.5847665571e+00 -5.5293024670e+00 -2.2132675676e+02 2.2152569858e+02 0.0000000000e+00 0.0000e+00 1.0000e+00
      -15  1    1    2    0    0 -7.2457325774e+00 -1.3125908521e+01 -2.2762562904e+02 2.2812578732e+02 1.7770000000e+00 0.0000e+00 -1.0000e+00
       15  1    1    2    0    0 +1.7933219814e+00 +1.5453332959e+00 -5.0423120270e+01 5.0509928187e+01 1.7770000000e+00 0.0000e+00 1.0000e+00
</event>
<event>
 6 1 7.08916e-05 4.84144100e+02 7.54677100e-03 9.43600500e-02
      -11 -1    0    0    0    0 +0.0000000000e+00 +0.0000000000e+00 +5.0000000000e+02 5.0000000000e+02 0.0000000000e+00 0.0000e+00 1.0000e+00
       11 -1    0    0    0    0 -0.0000000000e+00 -0.0000000000e+00 -5.0000000000e+02 5.0000000000e+02 0.0000000000e+00 0.0000e+00 -1.0000e+00
      -11  1    1    2    0    0 -2.0816488594e+00 +8.3206598194e+00 +4.8723541561e+02 4.8731090370e+02 0.0000000000e+00 0.0000e+00 1.0000e+00
       11  1    1    2    0    0 +1.0947864358e+01 +5.1751625843e+00 -4.8097974018e+02 4.8113215285e+02 0.0000000000e+00 0.0000e+00 -1.0000e+00
      -15  1    1    2    0    0 -1.7148768399e+01 -1.3259108324e+01 -1.4103637432e+00 2.1795207410e+01 1.7770000000e+00 0.0000e+00 1.0000e+00
       15  1    1    2    0    0 +8.2825529004e+00 -2.3671408011e-01 -4.8453116924e+00 9.7617360392e+00 1.7770000000e+00 0.0000e+00 -1.0000e+00
</event>
<event>
 6 1 7.08916e-05 5.02074200e+02 7.54677100e-03 9.39518100e-02
      -11 -1    0    0    0    0 +0.0000000000e+00 +0.0000000000e+00 +5.0000000000e+02 5.0000000000e+02 0.0000000000e+00 0.0000e+00 1.0000e+00
       11 -1    0    0    0    0 -0.0000000000e+00 -0.0000000000e+00 -5.0000000000e+02 5.0000000000e+02 0.0000000000e+00 0.0000e+00 -1.0000e+00
      -11  1    1    2    0    0 +1.4686384730e+00 -8.2014821968e+00 +4.8220512842e+02 4.8227710612e+02 0.0000000000e+00 0.0000e+00 1.0000e+00
       11  1    1    2    0    0 -6.8983736047e+00 +1.0012001997e+01 -4.9777735738e+02 4.9792582305e+02 0.0000000000e+00 0.0000e+00 -1.0000e+00
      -15  1    1    2    0    0 +9.0858818243e-02 +1.4216696321e+00 +1.2338373173e+01 1.2546815589e+01 1.7770000000e+00 0.0000e+00 -1.0000e+00
       15  1    1    2    0    0 +5.3388763135e+00 -3.2321894323e+00 +3.2338557838e+00 7.2502552401e+00 1.7770000000e+00 0.0000e+00 1.0000e+00
</event>
<event>
 6 1 7.08916e-05 5.30163300e+02 7.54677100e-03 9.33473600e-02
      -11 -1    0    0    0    0 +0.0000000000e+00 +0.0000000000e+00 +5.0000000000e+02 5.0000000000e+02 0.0000000000e+00 0.0000e+00 -1.0000e+00
       11 -1    0    0    0    0 -0.0000000000e+00 -0.0000000000e+00 -5.0000000000e+02 5.0000000000e+02 0.0000000000e+00 0.0000e+00 -1.0000e+00
      -11  1    1    2    0    0 -6.8951038096e+00 -5.6073014638e+00 +4.5168303799e+02 4.5177046284e+02 0.0000000000e+00 0.0000e+00 -1.0000e+00
       11  1    1    2    0    0 -5.7512106499e+00 +4.2063129359e+00 -4.6978266864e+02 4.6983670062e+02 0.0000000000e+00 0.0000e+00 -1.0000e+00
      -15  1    1    2    0    0 -3.0725539266e+01 +5.3779839449e+00 +1.5096868175e+01 3.4699490374e+01 1.7770000000e+00 0.0000e+00 -1.0000e+00
       15  1    1    2    0    0 +4.3371853726e+01 -3.9769954170e+00 +3.0027624821e+00 4.3693346171e+01 1.7770000000e+00 0.0000e+00 1.0000e+00
</event>
<event>
 6 1 7.08916e-05 5.18219000e+02 7.54677100e-03 9.35994100e-02
      -11 -1    0    0    0    0 +0.0000000000e+00 +0.0000000000e+00 +5.0000000000e+02 5.0000000000e+02 0.0000000000e+00 0.0000e+00 -1.0000e+00
       11 -1    0    0    0    0 -0.0000000000e+00 -0.0000000000e+00 -5.0000000000e+02 5.0000000000e+02 0.0000000000e+00 0.0000e+00 1.0000e+00
      -11  1    1    2    0    0 -4.6246025744e+00 -2.1752030607e+01 +4.2578990363e+02 4.2637023796e+02 0.0000000000e+00 0.0000e+00 -1.0000e+00
       11  1    1    2    0    0 -1.1625394554e+01 -2.7678823313e-01 -4.8164064942e+02 4.8178100999e+02 0.0000000000e+00 0.0000e+00 1.0000e+00
      -15  1    1    2    0    0 +8.6187053173e+00 +2.8121882369e+01 +6.9200742343e+01 7.5213182482e+01 1.7770000000e+00 0.0000e+00 1.0000e+00
       15  1    1    2    0    0 +7.6312918109e+00 -6.0930635280e+00 -1.3349996557e+01 1.6635569570e+01 1.7770000000e+00 0.0000e+00 -1.0000e+00
</event>
<event>
 6 1 7.08916e-05 5.04012500e+02 7.54677100e-03 9.39087600e-02
      -11 -1    0    0    0    0 +0.0000000000e+00 +0.0000000000e+00 +5.0000000000e+02 5.0000000000e+02 0.0000000000e+00 0.0000e+00 -1.0000e+00
       11 -1    0    0    0    0 -0.0000000000e+00 -0.0000000000e+00 -5.0000000000e+02 5.0000000000e+02 0.0000000000e+00 0.0000e+00 -1.0000e+00
      -11  1    1    2    0    0 +9.2956746522e+00 -2.3021082509e+00 +4.6712699593e+02 4.6722514872e+02 0.0000000000e+00 0.0000e+00 -1.0000e+00
       11  1    1    2    0    0 +6.2571925640e+00 -3.2914558086e+00 -4.9593709652e+02 4.9598748961e+02 0.0000000000e+00 0.0000e+00 -1.0000e+00
      -15  1    1    2    0    0 -1.2744153412e+00 +1.6279611142e+00 +1.8374971880e+01 1.8576105955e+01 1.7770000000e+00 0.0000e+00 1.0000e+00
       15  1    1    2    0    0 -1.4278451875e+01 +3.9656029453e+00 +1.0435128716e+01 1.8211255723e+01 1.7770000000e+00 0.0000e+00 -1.0000e+00
</event>
<event>
 6 1 7.08916e-05 5.12896400e+02 7.54677100e-03 9.37140600e-02
      -11 -1    0    0    0    0 +0.0000000000e+00 +0.0000000000e+00 +5.0000000000e+02 5.0000000000e+02 0.0000000000e+00 0.0000e+00 1.0000e+00
       11 -1    0    0    0    0 -0.0000000000e+00 -0.0000000000e+00 -5.0000000000e+02 5.0000000000e+02 0.0000000000e+00 0.0000e+00 -1.0000e+00
      -11  1    1    2    0    0 +1.8643792375e+01 -1.7722658146e+00 +4.8674341029e+02 4.8710356125e+02 0.0000000000e+00 0.0000e+00 1.0000e+00
       11  1    1    2    0    0 +1.3344338553e+01 -1.9239970326e+01 -4.0599062780e+02 4.0666526492e+02 0.0000000000e+00 0.0000e+00 -1.0000e+00
      -15  1    1    2    0    0 -4.8638425758e+01 +1.8428492622e+01 -5.9417560614e+01 7.8986771290e+01 1.7770000000e+00 0.0000e+00 -1.0000e+00
       15  1    1    2    0    0 +1.6650294830e+01 +2.5837435188e+00 -2.1335221874e+01 2.7244402543e+01 1.7770000000e+00 0.0000e+00 1.0000e+00
</event>
<event>
 6 1 7.08916e-05 5.03858900e+02 7.54677100e-03 9.39121600e-02
      -11 -1    0    0    0    0 +0.0000000000e+00 +0.0000000000e+00 +5.0000000000e+02 5.0000000000e+02 0.0000000000e+00 0.0000e+00 1.0000e+00
       11 -1    0    0    0    0 -0.0000000000e+00 -0.0000000000e+00 -5.0000000000e+02 5.0000000000e+02 0.0000000000e+00 0.0000e+00 1.0000e+00
      -11  1    1    2    0    0 -2.7723380467e+00 +5.4885551758e+00 +7.9199047048e+01 7.9437391381e+01 0.0000000000e+00 0.0000e+00 1.0000e+00
       11  1    1    2    0    0 +2.9615905049e+01 -1.2970133632e+01 -4.9508654359e+02 4.9614112089e+02 0.0000000000e+00 0.0000e+00 1.0000e+00
      -15  1    1    2    0    0 -7.5990157894e+00 +1.6030577605e+00 +3.9597942295e+02 3.9605956113e+02 1.7770000000e+00 0.0000e+00 1.0000e+00
       15  1    1    2    0    0 -1.9244551213e+01 +5.8785206956e+00 +1.9908073594e+01 2.8361926595e+01 1.7770000000e+00 0.0000e+00 -1.0000e+00
</event>
<event>
 6 1 7.08916e-05 5.00183200e+02 7.54677100e-03 9.39940000e-02
      -11 -1    0    0    0    0 +0.0000000000e+00 +0.0000000000e+00 +5.0000000000e+02 5.0000000000e+02 0.0000000000e+00 0.0000e+00 1.0000e+00
       11 -1    0    0    0    0 -0.0000000000e+00 -0.0000000000e+00 -5.0000000000e+02 5.0000000000e+02 0.0000000000e+00 0.0000e+00 -1.0000e+00
      -11  1    1    2    0    0 +4.4482552489e+00 +2.8441004890e+00 +1.8617473661e+02 1.8624958640e+02 0.0000000000e+00 0.0000e+00 1.0000e+00
       11  1    1    2    0    0 +6.2411720336e+00 -3.5942093702e+00 -4.9976488567e+02 4.9981677795e+02 0.0000000000e+00 0.0000e+00 -1.0000e+00
      -15  1    1    2    0    0 -2.0806021472e-01 -1.9271920547e+00 +1.2324137320e+02 1.2326942507e+02 1.7770000000e+00 0.0000e+00 -1.0000e+00
       15  1    1    2    0    0 -1.0481367068e+01 +2.6773009359e+00 +1.9034877586e+02 1.9066421058e+02 1.7770000000e+00 0.0000e+00 1.0000e+00
</event>
<event>
 6 1 7.08916e-05 5.03880900e+02 7.54677100e-03 9.39116800e-02
      -11 -1    0    0    0    0 +0.0000000000e+00 +0.0000000000e+00 +5.0000000000e+02 5.0000000000e+02 0.0000000000e+00 0.0000e+00 1.0000e+00
       11 -1    0    0    0    0 -0.0000000000e+00 -0.0000000000e+00 -5.0000000000e+02 5.0000000000e+02 0.0000000000e+00 0.0000e+00 1.0000e+00
      -11  1    1    2    0    0 +1.7312809167e+01 +1.0387328921e+00 +4.9581583031e+02 4.9611908844e+02 0.0000000000e+00 0.0000e+00 1.0000e+00
       11  1    1    2    0    0 +3.6674167652e-01 -8.4039571808e+00 -3.3013996012e+02 3.3024711091e+02 0.0000000000e+00 0.0000e+00 1.0000e+00
      -15  1    1    2    0    0 +6.0855422538e+00 +1.6847230606e+01 -1.1919000329e+02 1.2054160118e+02 1.7770000000e+00 0.0000e+00 1.0000e+00
       15  1    1    2    0    0 -2.3765093097e+01 -9.4820063172e+00 -4.6485866906e+01 5.3092199471e+01 1.7770000000e+00 0.0000e+00 -1.0000e+00
</event>
<event>
 6 1 7.08916e-05 5.03188000e+02 7.54677100e-03 9.39270400e-02
      -11 -1    0    0    0    0 +0.0000000000e+00 +0.0000000000e+00 +5.0000000000e+02 5.0000000000e+02 0.0000000000e+00 0.0000e+00 -1.0000e+00
       11 -1    0    0    0    0 -0.0000000000e+00 -0.0000000000e+00 -5.0000000000e+02 5.0000000000e+02 0.0000000000e+00 0.0000e+00 -1.0000e+00
      -11  1    1    2    0    0 +6.3541133328e+00 -9.0809837535e+00 +4.9668831672e+02 4.9681195938e+02 0.0000000000e+00 0.0000e+00 -1.0000e+00
       11  1    1    2    0    0 -1.8306288182e+01 +2.3178139720e-04 -4.6140979821e+02 4.6177280352e+02 0.0000000000e+00 0.0000e+00 -1.0000e+00
      -15  1    1    2    0    0 -3.6137204461e+00 +2.0221054597e+00 -7.6779279461e+00 8.9025947059e+00 1.7770000000e+00 0.0000e+00 1.0000e+00
       15  1    1    2    0    0 +1.5565895295e+01 +7.0586465124e+00 -2.7600590557e+01 3.2512642387e+01 1.7770000000e+00 0.0000e+00 -1.0000e+00
</event>
<event>
 6 1 7.08916e-05 5.27391000e+02 7.54677100e-03 9.34052300e-02
      -11 -1    0    0    0    0 +0.0000000000e+00 +0.0000000000e+00 +5.0000000000e+02 5.0000000000e+02 0.0000000000e+00 0.0000e+00 -1.0000e+00
       11 -1    0    0    0    0 -0.0000000000e+00 -0.0000000000e+00 -5.0000000000e+02 5.0000000000e+02 0.0000000000e+00 0.0000e+00 1.0000e+00
      -11  1    1    2    0    0 -1.2811554373e+01 -1.7343555511e+01 +4.7211689444e+02 4.7260903171e+02 0.0000000000e+00 0.0000e+00 -1.0000e+00
       11  1    1    2    0    0 -1.1513431984e+00 +2.2246824777e+01 -4.1883171581e+02 4.1942371532e+02 0.0000000000e+00 0.0000e+00 1.0000e+00
      -15  1    1    2    0    0 +4.1630816287e+01 -1.2790568352e+00 +6.2868266210e+00 4.2159729234e+01 1.7770000000e+00 0.0000e+00 -1.0000e+00
       15  1    1    2    0    0 -2.7667918715e+01 -3.6242124306e+00 -5.9572005247e+01 6.5807523733e+01 1.7770000000e+00 0.0000e+00 1.0000e+00
</event>
<event>
 6 1 7.08916e-05 5.12744200e+02 7.54677100e-03 9.37173600e-02
      -11 -1    0    0    0    0 +0.0000000000e+00 +0.0000000000e+00 +5.0000000000e+02 5.0000000000e+02 0.0000000000e+00 0.0000e+00 1.0000e+00
       11 -1    0    0    0    0 -0.0000000000e+00 -0.0000000000e+00 -5.0000000000e+02 5.0000000000e+02 0.0000000000e+00 0.0000e+00 1.0000e+00
      -11  1    1    2    0    0 -7.9624888250e+00 -1.6321258962e+01 +4.7780006662e+02 4.7814504953e+02 0.0000000000e+00 0.0000e+00 1.0000e+00
       11  1    1    2    0    0 -1.6289208667e+00 +1.4590169612e+01 -4.8703454033e+02 4.8725575411e+02 0.0000000000e+00 0.0000e+00 1.0000e+00
      -15  1    1    2    0    0 +1.4851321676e+01 -1.5478620519e+00 -7.3995707543e+00 1.6759147019e+01 1.7770000000e+00 0.0000e+00 1.0000e+00
       15  1    1    2    0    0 -5.2599119842e+00 +3.2789514014e+00 +1.6634044466e+01 1.7840049346e+01 1.7770000000e+00 0.0000e+00 -1.0000e+00
</event>
<event>
 6 1 7.08916e-05 5.00073900e+02 7.54677100e-03 9.39964400e-02
      -11 -1    0    0    0    0 +0.0000000000e+00 +0.0000000000e+00 +5.0000000000e+02 5.0000000000e+02 0.0000000000e+00 0.0000e+00 -1.0000e+00
       11 -1    0    0    0    0 -0.0000000000e+00 -0.0000000000e+00 -5.0000000000e+02 5.0000000000e+02 0.0000000000e+00 0.0000e+00 1.0000e+00
      -11  1    1    2    0    0 -2.1266881047e+01 -1.5523446882e+01 +4.9923221699e+02 4.9992605865e+02 0.0000000000e+00 0.0000e+00 -1.0000e+00
       11  1    1    2    0    0 +1.5786497495e+01 +1.1527491813e+01 -3.1212248484e+02 3.1273397978e+02 0.0000000000e+00 0.0000e+00 1.0000e+00
      -15  1    1    2    0    0 +2.3699813601e+00 -2.2245712580e-01 -3.3770882352e+01 3.3901276122e+01 1.7770000000e+00 0.0000e+00 1.0000e+00
       15  1    1    2    0    0 +3.1104021916e+00 +4.2184121953e+00 -1.5333884980e+02 1.5343868545e+02 1.7770000000e+00 0.0000e+00 1.0000e+00
</event>
<event>
 6 1 7.08916e-05 5.00998100e+02 7.54677100e-03 9.39757900e-02
      -11 -1    0    0    0    0 +0.0000000000e+00 +0.0000000000e+00 +5.0000000000e+02 5.0000000000e+02 0.0000000000e+00 0.0000e+00 -1.0000e+00
       11 -1    0    0    0    0 -0.0000000000e+00 -0.0000000000e+00 -5.0000000000e+02 5.0000000000e+02 0.0000000000e+00 0.0000e+00 1.0000e+00
      -11  1    1    2    0    0 +1.6148684584e+00 +1.2242503078e+01 +4.9884906375e+02 4.9900187884e+02 0.0000000000e+00 0.0000e+00 -1.0000e+00
       11  1    1    2    0    0 +7.2457278901e+00 -4.8638253987e+00 -4.1528184343e+02 4.1537352690e+02 0.0000000000e+00 0.0000e+00 1.0000e+00
      -15  1    1    2    0    0 -8.9369220128e+00 -1.6210492092e+00 -7.1898391118e+01 7.2491604686e+01 1.7770000000e+00 0.0000e+00 1.0000e+00
       15  1    1    2    0    0 +7.6325664251e-02 -5.7576284696e+00 -1.1668829203e+01 1.3132989574e+01 1.7770000000e+00 0.0000e+00 -1.0000e+00
</event>
<event>
 6 1 7.08916e-05 5.03374500e+02 7.54677100e-03 9.39229000e-02
      -11 -1    0    0    0    0 +0.0000000000e+00 +0.0000000000e+00 +5.0000000000e+02 5.0000000000e+02 0.0000000000e+00 0.0000e+00 -1.0000e+00
       11 -1    0    0    0    0 -0.0000000000e+00 -0.0000000000e+00 -5.0000000000e+02 5.0000000000e+02 0.0000000000e+00 0.0000e+00 1.0000e+00
      -11  1    1    2    0    0 -4.9672439137e+00 -8.2933898798e+00 +4.9653139099e+02 4.9662548874e+02 0.0000000000e+00 0.0000e+00 -1.0000e+00
       11  1    1    2    0    0 -5.8396160667e+00 -4.4964216716e+00 -4.2916668230e+02 4.2922996182e+02 0.0000000000e+00 0.0000e+00 1.0000e+00
      -15  1    1    2    0    0 +1.9214465656e+01 +6.6774120991e+00 -4.3534916928e+01 4.8085655280e+01 1.7770000000e+00 0.0000e+00 -1.0000e+00
       15  1    1    2    0    0 -8.4076056758e+00 +6.1123994523e+00 -2.3829791763e+01 2.6058894158e+01 1.7770000000e+00 0.0000e+00 1.0000e+00
</event>
<event>
 7 1 7.08916e-05 4.92123600e+02 7.54677100e-03 9.41760800e-02
      -11 -1    0    0    0    0 +0.0000000000e+00 +0.0000000000e+00 +5.0000000000e+02 5.0000000000e+02 0.0000000000e+00 0.0000e+00 -1.0000e+00
       11 -1    0    0    0    0 -0.0000000000e+00 -0.0000000000e+00 -5.0000000000e+02 5.0000000000e+02 0.0000000000e+00 0.0000e+00 -1.0000e+00
       23  2    1    2    0    0 -1.2745646772e+01 +1.3556474408e+01 +4.7384220960e+02 4.8264552546e+02 8.9855629398e+01 0.0000e+00 0.0000e+00
      -11  1    1    2    0    0 +2.6971218584e+00 -1.3006228366e+01 +1.9672609420e+01 2.3737059717e+01 0.0000000000e+00 0.0000e+00 -1.0000e+00
       11  1    1    2    0    0 +1.0048524914e+01 -5.5024604198e-01 -4.9351481902e+02 4.9361741482e+02 0.0000000000e+00 0.0000e+00 -1.0000e+00
      -15  1    3    3    0    0 -2.1917297693e+01 -1.0018662139e+01 +4.3840060628e+02 4.3906604384e+02 1.7770000000e+00 0.0000e+00 -1.0000e+00
       15  1    3    3    0    0 +9.1716509211e+00 +2.3575136548e+01 +3.5441603317e+01 4.3579481623e+01 1.7770000000e+00 0.0000e+00 1.0000e+00
</event>
<event>
 6 1 7.08916e-05 5.00320500e+02 7.54677100e-03 9.39909300e-02
      -11 -1    0    0    0    0 +0.0000000000e+00 +0.0000000000e+00 +5.0000000000e+02 5.0000000000e+02 0.0000000000e+00 0.0000e+00 1.0000e+00
       11 -1    0    0    0    0 -0.0000000000e+00 -0.0000000000e+00 -5.0000000000e+02 5.0000000000e+02 0.0000000000e+00 0.0000e+00 1.0000e+00
      -11  1    1    2    0    0 +1.3046168096e+01 -2.0373008186e+00 +4.9950497348e+02 4.9967946889e+02 0.0000000000e+00 0.0000e+00 1.0000e+00
       11  1    1    2    0    0 -1.6913809244e+00 +5.3661943742e+00 -3.3831372738e+02 3.3836051032e+02 0.0000000000e+00 0.0000e+00 1.0000e+00
      -15  1    1    2    0    0 -6.3247317153e+00 +3.1800989269e+00 -6.8666648410e+01 6.9053469090e+01 1.7770000000e+00 0.0000e+00 -1.0000e+00
       15  1    1    2    0    0 -5.0300554558e+00 -6.5089924826e+00 -9.2524597692e+01 9.2906551696e+01 1.7770000000e+00 0.0000e+00 1.0000e+00
</event>
<event>
 6 1 7.08916e-05 5.01780600e+02 7.54677100e-03 9.39583400e-02
      -11 -1    0    0    0    0 +0.0000000000e+00 +0.0000000000e+00 +5.0000000000e+02 5.0000000000e+02 0.0000000000e+00 0.0000e+00 -1.0000e+00
       11 -1    0    0    0    0 -0.0000000000e+00 -0.0000000000e+00 -5.0000000000e+02 5.0000000000e+02 0.0000000000e+00 0.0000e+00 1.0000e+00
      -11  1    1    2    0    0 -6.4035445543e+00 -2.2935784784e+00 +4.5818863593e+02 4.5823912096e+02 0.0000000000e+00 0.0000e+00 -1.0000e+00
       11  1    1    2    0    0 +1.5721941088e+01 +4.2971157446e+00 -4.9795271653e+02 4.9821938194e+02 0.0000000000e+00 0.0000e+00 1.0000e+00
      -15  1    1    2    0    0 -3.5444324527e+00 +2.2252019009e+00 +3.3668524960e+01 3.3974134675e+01 1.7770000000e+00 0.0000e+00 -1.0000e+00
       15  1    1    2    0    0 -5.7739640814e+00 -4.2287391671e+00 +6.0955556410e+00 9.5673624228e+00 1.7770000000e+00 0.0000e+00 1.0000e+00
</event>
<event>
 6 1 7.08916e-05 4.14139200e+02 7.54677100e-03 9.61552200e-02
      -11 -1    0    0    0    0 +0.0000000000e+00 +0.0000000000e+00 +5.0000000000e+02 5.0000000000e+02 0.0000000000e+00 0.0000e+00 -1.0000e+00
       11 -1    0    0    0    0 -0.0000000000e+00 -0.0000000000e+00 -5.0000000000e+02 5.0000000000e+02 0.0000000000e+00 0.0000e+00 -1.0000e+00
      -11  1    1    2    0    0 +3.4914143431e+00 -8.0468478469e+00 +4.0902150125e+02 4.0911554629e+02 0.0000000000e+00 0.0000e+00 -1.0000e+00
       11  1    1    2    0    0 -1.7507974308e+01 -8.1633818257e+01 -4.1585122556e+02 4.2414956236e+02 0.0000000000e+00 0.0000e+00 -1.0000e+00
      -15  1    1    2    0    0 +6.2244549098e+01 +9.7659624716e+01 +1.6136451604e+01 1.1694156229e+02 1.7770000000e+00 0.0000e+00 -1.0000e+00
       15  1    1    2    0    0 -4.8227989133e+01 -7.9789586118e+00 -9.3067272898e+00 4.9793329053e+01 1.7770000000e+00 0.0000e+00 1.0000e+00
</event>
<event>
 6 1 7.08916e-05 4.71262200e+02 7.54677100e-03 9.46651300e-02
      -11 -1    0    0    0    0 +0.0000000000e+00 +0.0000000000e+00 +5.0000000000e+02 5.0000000000e+02 0.0000000000e+00 0.0000e+00 1.0000e+00
       11 -1    0    0    0    0 -0.0000000000e+00 -0.0000000000e+00 -5.0000000000e+02 5.0000000000e+02 0.0000000000e+00 0.0000e+00 -1.0000e+00
      -11  1    1    2    0    0 +8.5230553077e+00 -2.2498510480e+01 +4.6514384604e+02 4.6576563092e+02 0.0000000000e+00 0.0000e+00 1.0000e+00
       11  1    1    2    0    0 -7.9872632442e+00 -1.4296893931e+01 -4.7727407107e+02 4.7755495648e+02 0.0000000000e+00 0.0000e+00 -1.0000e+00
      -15  1    1    2    0    0 -1.1159388171e+01 +3.9006842573e+01 +4.1577542466e-01 4.0612760434e+01 1.7770000000e+00 0.0000e+00 1.0000e+00
       15  1    1    2    0    0 +1.0623596107e+01 -2.2114381623e+00 +1.1714449606e+01 1.6066652158e+01 1.7770000000e+00 0.0000e+00 -1.0000e+00
</event>
<event>
 6 1 7.08916e-05 4.93705400e+02 7.54677100e-03 9.41400600e-02
      -11 -1    0    0    0    0 +0.0000000000e+00 +0.0000000000e+00 +5.0000000000e+02 5.0000000000e+02 0.0000000000e+00 0.0000e+00 -1.0000e+00
       11 -1    0    0    0    0 -0.0000000000e+00 -0.0000000000e+00 -5.0000000000e+02 5.0000000000e+02 0.0000000000e+00 0.0000e+00 -1.0000e+00
      -11  1    1    2    0    0 +1.3427042984e+00 +7.0590926637e+00 +4.9533397889e+02 4.9538609618e+02 0.0000000000e+00 0.0000e+00 -1.0000e+00
       11  1    1    2    0    0 +8.7876348370e+00 -2.9731978133e+00 -4.9200318858e+02 4.9209064206e+02 0.0000000000e+00 0.0000e+00 -1.0000e+00
      -15  1    1    2    0    0 -3.4811832125e+00 -1.0377339815e-01 -1.9709733753e-02 3.9099262078e+00 1.7770000000e+00 0.0000e+00 1.0000e+00
       15  1    1    2    0    0 -6.6491559229e+00 -3.9821214523e+00 -3.3110805739e+00 8.6133355510e+00 1.7770000000e+00 0.0000e+00 -1.0000e+00
</event>
<event>
 6 1 7.08916e-05 5.01029900e+02 7.54677100e-03 9.39750800e-02
      -11 -1    0    0    0    0 +0.0000000000e+00 +0.0000000000e+00 +5.0000000000e+02 5.0000000000e+02 0.0000000000e+00 0.0000e+00 1.0000e+00
       11 -1    0    0    0    0 -0.0000000000e+00 -0.0000000000e+00 -5.0000000000e+02 5.0000000000e+02 0.0000000000e+00 0.0000e+00 1.0000e+00
      -11  1    1    2    0    0 -2.5012813173e+00 -1.8751941003e+01 +4.9861138692e+02 4.9897014627e+02 0.0000000000e+00 0.0000e+00 1.0000e+00
       11  1    1    2    0    0 +2.9930595890e+00 +4.4257816261e+00 -1.2246295958e+02 1.2257945349e+02 0.0000000000e+00 0.0000e+00 1.0000e+00
      -15  1    1    2    0    0 +1.5143062023e+01 +1.9668847440e+01 -2.0830459925e+02 2.0978593776e+02 1.7770000000e+00 0.0000e+00 1.0000e+00
       15  1    1    2    0    0 -1.5634840294e+01 -5.3426880630e+00 -1.6784382809e+02 1.6866446248e+02 1.7770000000e+00 0.0000e+00 -1.0000e+00
</event>
<event>
 6 1 7.08916e-05 5.00292900e+02 7.54677100e-03 9.39915500e-02
      -11 -1    0    0    0    0 +0.0000000000e+00 +0.0000000000e+00 +5.0000000000e+02 5.0000000000e+02 0.0000000000e+00 0.0000e+00 1.0000e+00
       11 -1    0    0    0    0 -0.0000000000e+00 -0.0000000000e+00 -5.0000000000e+02 5.0000000000e+02 0.0000000000e+00 0.0000e+00 1.0000e+00
      -11  1    1    2    0    0 +2.8185579114e+00 -6.8876536661e-01 +9.5764264948e+00 1.0006328540e+01 0.0000000000e+00 0.0000e+00 1.0000e+00
       11  1    1    2    0    0 +2.8369488738e-01 +3.2727794224e+01 -4.9863415613e+02 4.9970712488e+02 0.0000000000e+00 0.0000e+00 1.0000e+00
      -15  1    1    2    0    0 -7.7134562739e+00 -1.8299827036e+01 +3.0458392033e+02 3.0523581593e+02 1.7770000000e+00 0.0000e+00 1.0000e+00
       15  1    1    2    0    0 +4.6112034752e+00 -1.3739201822e+01 +1.8447380931e+02 1.8505073065e+02 1.7770000000e+00 0.0000e+00 -1.0000e+00
</event>
<event>
 6 1 7.08916e-05 5.01288300e+02 7.54677100e-03 9.39693200e-02
      -11 -1    0    0    0    0 +0.0000000000e+00 +0.0000000000e+00 +5.0000000000e+02 5.0000000000e+02 0.0000000000e+00 0.0000e+00 -1.0000e+00
       11 -1    0    0    0    0 -0.0000000000e+00 -0.0000000000e+00 -5.0000000000e+02 5.0000000000e+02 0.0000000000e+00 0.0000e+00 1.0000e+00
      -11  1    1    2    0    0 +1.0498440680e+01 +5.8119298674e-01 +4.9860086992e+02 4.9871172287e+02 0.0000000000e+00 0.0000e+00 -1.0000e+00
       11  1    1    2    0    0 +2.9246396151e+00 -4.7349567548e+00 -3.7473545599e+02 3.7477678064e+02 0.0000000000e+00 0.0000e+00 1.0000e+00
      -15  1    1    2    0    0 -1.7034399411e+01 -2.5470506357e+00 -7.1549755922e+01 7.3615103965e+01 1.7770000000e+00 0.0000e+00 1.0000e+00
       15  1    1    2    0    0 +3.6113191162e+00 +6.7008144037e+00 -5.2315658013e+01 5.2896392521e+01 1.7770000000e+00 0.0000e+00 -1.0000e+00
</event>
<event>
 6 1 7.08916e-05 5.04987100e+02 7.54677100e-03 9.38871900e-02
      -11 -1    0    0    0    0 +0.0000000000e+00 +0.0000000000e+00 +5.0000000000e+02 5.0000000000e+02 0.0000000000e+00 0.0000e+00 -1.0000e+00
       11 -1    0    0    0    0 -0.0000000000e+00 -0.0000000000e+00 -5.0000000000e+02 5.0000000000e+02 0.0000000000e+00 0.0000e+00 1.0000e+00
      -11  1    1    2    0    0 +3.4456628740e+00 -1.4088398088e+01 +4.3746628177e+02 4.3770664061e+02 0.0000000000e+00 0.0000e+00 -1.0000e+00
       11  1    1    2    0    0 -1.2523479056e+01 -1.0869417469e+01 -4.9473511131e+02 4.9501294137e+02 0.0000000000e+00 0.0000e+00 1.0000e+00
      -15  1    1    2    0    0 +1.3632335946e+01 +2.1315936787e+01 +5.5356942820e+01 6.0891367137e+01 1.7770000000e+00 0.0000e+00 -1.0000e+00
       15  1    1    2    0    0 -4.5545197647e+00 +3.6418787703e+00 +1.9118867246e+00 6.3890508773e+00 1.7770000000e+00 0.0000e+00 1.0000e+00
</event>
<event>
 6 1 7.08916e-05 5.01997500e+02 7.54677100e-03 9.39535100e-02
      -11 -1    0    0    0    0 +0.0000000000e+00 +0.0000000000e+00 +5.0000000000e+02 5.0000000000e+02 0.0000000000e+00 0.0000e+00 1.0000e+00
       11 -1    0    0    0    0 -0.0000000000e+00 -0.0000000000e+00 -5.0000000000e+02 5.0000000000e+02 0.0000000000e+00 0.0000e+00 -1.0000e+00
      -11  1    1    2    0    0 +7.0707419719e+00 -6.5699639428e+00 +4.9790893149e+02 4.9800247376e+02 0.0000000000e+00 0.0000e+00 1.0000e+00
       11  1    1    2    0    0 +1.7598476811e+01 +1.0504240408e+01 -4.0004807616e+02 4.0057272585e+02 0.0000000000e+00 0.0000e+00 -1.0000e+00
      -15  1    1    2    0    0 -2.1442488330e+01 -4.4844633899e+00 -9.1017846796e+01 9.3633844747e+01 1.7770000000e+00 0.0000e+00 -1.0000e+00
       15  1    1    2    0    0 -3.2267304527e+00 +5.5018692447e-01 -6.8430085293e+00 7.7909556408e+00 1.7770000000e+00 0.0000e+00 1.0000e+00
</event>
<event>
 6 1 7.08916e-05 5.05069000e+02 7.54677100e-03 9.38853800e-02
      -11 -1    0    0    0    0 +0.0000000000e+00 +0.0000000000e+00 +5.0000000000e+02 5.0000000000e+02 0.0000000000e+00 0.0000e+00 -1.0000e+00
       11 -1    0    0    0    0 -0.0000000000e+00 -0.0000000000e+00 -5.0000000000e+02 5.0000000000e+02 0.0000000000e+00 0.0000e+00 -1.0000e+00
      -11  1    1    2    0    0 -1.0619670762e+01 +2.7380383918e+01 +4.9405891957e+02 4.9493098391e+02 0.0000000000e+00 0.0000e+00 -1.0000e+00
       11  1    1    2    0    0 -9.0511068078e+00 -3.0198250799e+00 -4.2833286983e+02 4.2843913133e+02 0.0000000000e+00 0.0000e+00 -1.0000e+00
      -15  1    1    2    0    0 +8.1707903144e+00 -3.0694808524e-02 -4.0001630394e+00 9.2694007290e+00 1.7770000000e+00 0.0000e+00 1.0000e+00
       15  1    1    2    0    0 +1.1499987256e+01 -2.4329864029e+01 -6.1725886702e+01 6.7360484030e+01 1.7770000000e+00 0.0000e+00 -1.0000e+00
</event>
<event>
 6 1 7.08916e-05 5.00316300e+02 7.54677100e-03 9.39910200e-02
      -11 -1    0    0    0    0 +0.0000000000e+00 +0.0000000000e+00 +5.0000000000e+02 5.0000000000e+02 0.0000000000e+00 0.0000e+00 1.0000e+00
       11 -1    0    0    0    0 -0.0000000000e+00 -0.0000000000e+00 -5.0000000000e+02 5.0000000000e+02 0.0000000000e+00 0.0000e+00 1.0000e+00
      -11  1    1    2    0    0 -3.0958017410e+00 +4.7374669644e+00 +3.8472410520e+02 3.8476572704e+02 0.0000000000e+00 0.0000e+00 1.0000e+00
       11  1    1    2    0    0 -8.0788898239e-01 -7.1333658489e+00 -4.9963214404e+02 4.9968371692e+02 0.0000000000e+00 0.0000e+00 1.0000e+00
      -15  1    1    2    0    0 +1.5851290922e+00 +2.8556449883e+00 +1.1213816976e+01 1.1814176345e+01 1.7770000000e+00 0.0000e+00 -1.0000e+00
       15  1    1    2    0    0 +2.3185616311e+00 -4.5974610386e-01 +1.0369422187e+02 1.0373637970e+02 1.7770000000e+00 0.0000e+00 1.0000e+00
</event>
<event>
 6 1 7.08916e-05 5.00137800e+02 7.54677100e-03 9.39950100e-02
      -11 -1    0    0    0    0 +0.0000000000e+00 +0.0000000000e+00 +5.0000000000e+02 5.0000000000e+02 0.0000000000e+00 0.0000e+00 -1.0000e+00
       11 -1    0    0    0    0 -0.0000000000e+00 -0.0000000000e+00 -5.0000000000e+02 5.0000000000e+02 0.0000000000e+00 0.0000e+00 1.0000e+00
      -11  1    1    2    0    0 -3.1418666438e+01 +3.6431791247e+01 +4.9754177842e+02 4.9986221031e+02 0.0000000000e+00 0.0000e+00 -1.0000e+00
       11  1    1    2    0    0 +3.5236972773e+00 -3.0234488573e+00 -2.0109442204e+01 2.0638491981e+01 0.0000000000e+00 0.0000e+00 1.0000e+00
      -15  1    1    2    0    0 +8.6845177472e+00 -6.4250562732e+00 -1.4658502618e+02 1.4699329858e+02 1.7770000000e+00 0.0000e+00 -1.0000e+00
       15  1    1    2    0    0 +1.9210451414e+01 -2.6983286117e+01 -3.3084731004e+02 3.3250599913e+02 1.7770000000e+00 0.0000e+00 1.0000e+00
</event>
<event>
 6 1 7.08916e-05 4.76107000e+02 7.54677100e-03 9.45491900e-02
      -11 -1    0    0    0    0 +0.0000000000e+00 +0.0000000000e+00 +5.0000000000e+02 5.0000000000e+02 0.0000000000e+00 0.0000e+00 1.0000e+00
       11 -1    0    0    0    0 -0.0000000000e+00 -0.0000000000e+00 -5.0000000000e+02 5.0000000000e+02 0.0000000000e+00 0.0000e+00 1.0000e+00
      -11  1    1    2    0    0 -3.4187901623e+01 +8.0974915566e+00 +4.7611603977e+02 4.7741058358e+02 0.0000000000e+00 0.0000e+00 1.0000e+00
       11  1    1    2    0    0 +1.8005068445e+01 -1.1336937281e+01 -4.7447099941e+02 4.7494782652e+02 0.0000000000e+00 0.0000e+00 1.0000e+00
      -15  1    1    2    0    0 +2.3339666651e+01 +1.6289182405e+01 +8.2430809012e+00 2.9684737064e+01 1.7770000000e+00 0.0000e+00 -1.0000e+00
       15  1    1    2    0    0 -7.1568334741e+00 -1.3049736681e+01 -9.8881212554e+00 1.7956852836e+01 1.7770000000e+00 0.0000e+00 1.0000e+00
</event>
<event>
 6 1 7.08916e-05 5.08504200e+02 7.54677100e-03 9.38097900e-02
      -11 -1    0    0    0    0 +0.0000000000e+00 +0.0000000000e+00 +5.0000000000e+02 5.0000000000e+02 0.0000000000e+00 0.0000e+00 1.0000e+00
       11 -1    0    0    0    0 -0.0000000000e+00 -0.0000000000e+00 -5.0000000000e+02 5.0000000000e+02 0.0000000000e+00 0.0000e+00 -1.0000e+00
      -11  1    1    2    0    0 +2.4973498025e+00 +7.5786561057e+00 +4.0732629763e+02 4.0740444957e+02 0.0000000000e+00 0.0000e+00 1.0000e+00
       11  1    1    2    0    0 +3.8787214766e+01 +1.1089367936e+01 -4.8983742562e+02 4.9149580431e+02 0.0000000000e+00 0.0000e+00 -1.0000e+00
      -15  1    1    2    0    0 -5.0318403303e+00 -7.2213095746e+00 +5.0724524879e+01 5.1513123399e+01 1.7770000000e+00 0.0000e+00 -1.0000e+00
       15  1    1    2    0    0 -3.6252724238e+01 -1.1446714467e+01 +3.1786603111e+01 4.9586622724e+01 1.7770000000e+00 0.0000e+00 1.0000e+00
</event>
<event>
 6 1 7.08916e-05 5.06588200e+02 7.54677100e-03 9.38518800e-02
      -11 -1    0    0    0    0 +0.0000000000e+00 +0.0000000000e+00 +5.0000000000e+02 5.0000000000e+02 0.0000000000e+00 0.0000e+00 1.0000e+00
       11 -1    0    0    0    0 -0.0000000000e+00 -0.0000000000e+00 -5.0000000000e+02 5.0000000000e+02 0.0000000000e+00 0.0000e+00 -1.0000e+00
      -11  1    1    2    0    0 -9.5523020179e+00 -1.1077175360e+01 +3.7113937463e+02 3.7142749721e+02 0.0000000000e+00 0.0000e+00 1.0000e+00
       11  1    1    2    0    0 +1.5987751581e+01 -4.2935174656e+01 -4.9128008778e+02 4.9341175713e+02 0.0000000000e+00 0.0000e+00 -1.0000e+00
      -15  1    1    2    0    0 -5.2639911960e-01 +1.4734007404e+01 +9.5900989075e+00 1.7677550630e+01 1.7770000000e+00 0.0000e+00 1.0000e+00
       15  1    1    2    0    0 -5.9090504433e+00 +3.9278342613e+01 +1.1055061425e+02 1.1748319503e+02 1.7770000000e+00 0.0000e+00 -1.0000e+00
</event>
<event>
 6 1 7.08916e-05 5.00309600e+02 7.54677100e-03 9.39911700e-02
      -11 -1    0    0    0    0 +0.0000000000e+00 +0.0000000000e+00 +5.0000000000e+02 5.0000000000e+02 0.0000000000e+00 0.0000e+00 -1.0000e+00
       11 -1    0    0    0    0 -0.0000000000e+00 -0.0000000000e+00 -5.0000000000e+02 5.0000000000e+02 0.0000000000e+00 0.0000e+00 1.0000e+00
      -11  1    1    2    0    0 -1.2052597314e+00 +8.6041741987e+00 +1.4695879797e+02 1.4721539582e+02 0.0000000000e+00 0.0000e+00 -1.0000e+00
       11  1    1    2    0    0 +5.9964259098e+00 -6.6588185626e+00 -4.9961005819e+02 4.9969041138e+02 0.0000000000e+00 0.0000e+00 1.0000e+00
      -15  1    1    2    0    0 +1.5984512538e+00 +6.2562265881e+00 +1.0085879673e+02 1.0108090831e+02 1.7770000000e+00 0.0000e+00 1.0000e+00
       15  1    1    2    0    0 -6.3896174322e+00 -8.2015822241e+00 +2.5179246348e+02 2.5201328448e+02 1.7770000000e+00 0.0000e+00 -1.0000e+00
</event>
<event>
 6 1 7.08916e-05 5.00378300e+02 7.54677100e-03 9.39896400e-02
      -11 -1    0    0    0    0 +0.0000000000e+00 +0.0000000000e+00 +5.0000000000e+02 5.0000000000e+02 0.0000000000e+00 0.0000e+00 1.0000e+00
       11 -1    0    0    0    0 -0.0000000000e+00 -0.0000000000e+00 -5.0000000000e+02 5.0000000000e+02 0.0000000000e+00 0.0000e+00 -1.0000e+00
      -11  1    1    2    0    0 +8.6394518550e-01 +9.1814118352e+00 +4.9953661267e+02 4.9962172903e+02 0.0000000000e+00 0.0000e+00 1.0000e+00
       11  1    1    2    0    0 -4.5117911542e+00 +3.3642896148e+00 -3.4372944533e+02 3.4377551730e+02 0.0000000000e+00 0.0000e+00 -1.0000e+00
      -15  1    1    2    0    0 -2.4804138723e+00 -5.2562297186e+00 -5.9723654458e+01 6.0032100035e+01 1.7770000000e+00 0.0000e+00 1.0000e+00
       15  1    1    2    0    0 +6.1282598411e+00 -7.2894717313e+00 -9.6083512878e+01 9.6570653632e+01 1.7770000000e+00 0.0000e+00 -1.0000e+00
</event>
<event>
 6 1 7.08916e-05 5.00111300e+02 7.54677100e-03 9.39956100e-02
      -11 -1    0    0    0    0 +0.0000000000e+00 +0.0000000000e+00 +5.0000000000e+02 5.0000000000e+02 0.0000000000e+00 0.0000e+00 -1.0000e+00
       11 -1    0    0    0    0 -0.0000000000e+00 -0.0000000000e+00 -5.0000000000e+02 5.0000000000e+02 0.0000000000e+00 0.0000e+00 -1.0000e+00
      -11  1    1    2    0    0 +1.5421609441e+01 -8.5548896634e+00 +4.9957756082e+02 4.9988873907e+02 0.0000000000e+00 0.0000e+00 -1.0000e+00
       11  1    1    2    0    0 -9.6346271080e-01 +4.3466910588e-01 -6.9897700160e+01 6.9905691366e+01 0.0000000000e+00 0.0000e+00 -1.0000e+00
      -15  1    1    2    0    0 -1.3422474610e+01 +9.5790851435e+00 -2.7179420159e+02 2.7229977496e+02 1.7770000000e+00 0.0000e+00 -1.0000e+00
       15  1    1    2    0    0 -1.0356721202e+00 -1.4588645860e+00 -1.5788565906e+02 1.5790579460e+02 1.7770000000e+00 0.0000e+00 -1.0000e+00
</event>
<event>
 6 1 7.08916e-05 5.01857000e+02 7.54677100e-03 9.39566400e-02
      -11 -1    0    0    0    0 +0.0000000000e+00 +0.0000000000e+00 +5.0000000000e+02 5.0000000000e+02 0.0000000000e+00 0.0000e+00 -1.0000e+00
       11 -1    0    0    0    0 -0.0000000000e+00 -0.0000000000e+00 -5.0000000000e+02 5.0000000000e+02 0.0000000000e+00 0.0000e+00 1.0000e+00
      -11  1    1    2    0    0 +3.0206027324e+00 +1.4580008943e+01 +4.3204265815e+02 4.3229915471e+02 0.0000000000e+00 0.0000e+00 -1.0000e+00
       11  1    1    2    0    0 +9.7864000278e+00 +1.9692498291e+00 -4.9804293756e+02 4.9814297066e+02 0.0000000000e+00 0.0000e+00 1.0000e+00
      -15  1    1    2    0    0 -9.6325302428e+00 -1.0023981224e+01 +3.5758271702e+01 3.8406738504e+01 1.7770000000e+00 0.0000e+00 -1.0000e+00
       15  1    1    2    0    0 -3.1744725174e+00 -6.5252775488e+00 +3.0242007707e+01 3.1151136127e+01 1.7770000000e+00 0.0000e+00 1.0000e+00
</event>
<event>
 6 1 7.08916e-05 5.07169800e+02 7.54677100e-03 9.38390800e-02
      -11 -1    0    0    0    0 +0.0000000000e+00 +0.0000000000e+00 +5.0000000000e+02 5.0000000000e+02 0.0000000000e+00 0.0000e+00 1.0000e+00
       11 -1    0    0    0    0 -0.0000000000e+00 -0.0000000000e+00 -5.0000000000e+02 5.0000000000e+02 0.0000000000e+00 0.0000e+00 -1.0000e+00
      -11  1    1    2    0    0 +2.8261766033e+00 -1.0042860505e+01 +4.6572046289e+02 4.6583730623e+02 0.0000000000e+00 0.0000e+00 1.0000e+00
       11  1    1    2    0    0 +2.0901247579e+00 +9.7120428818e+00 -4.9273007447e+02 4.9283021284e+02 0.0000000000e+00 0.0000e+00 -1.0000e+00
      -15  1    1    2    0    0 +3.2386707095e+00 +8.8402615831e+00 -2.1600216652e+00 9.8215393608e+00 1.7770000000e+00 0.0000e+00 -1.0000e+00
       15  1    1    2    0    0 -8.1549720707e+00 -8.5094439596e+00 +2.9169633243e+01 3.1510941568e+01 1.7770000000e+00 0.0000e+00 1.0000e+00
</event>
<event>
 6 1 7.08916e-05 5.03172200e+02 7.54677100e-03 9.39274000e-02
      -11 -1    0    0    0    0 +0.0000000000e+00 +0.0000000000e+00 +5.0000000000e+02 5.0000000000e+02 0.0000000000e+00 0.0000e+00 1.0000e+00
       11 -1    0    0    0    0 -0.0000000000e+00 -0.0000000000e+00 -5.0000000000e+02 5.0000000000e+02 0.0000000000e+00 0.0000e+00 -1.0000e+00
      -11  1    1    2    0    0 +5.4346640184e+00 +6.3426195937e+00 +4.7150205753e+02 4.7157603273e+02 0.0000000000e+00 0.0000e+00 1.0000e+00
       11  1    1    2    0    0 +8.7570772485e+00 -1.3239681434e+01 -4.9657417237e+02 4.9682782152e+02 0.0000000000e+00 0.0000e+00 -1.0000e+00
      -15  1    1    2    0    0 -4.8774857702e-01 +4.9264848691e+00 +6.4277009169e+00 8.3054933579e+00 1.7770000000e+00 0.0000e+00 1.0000e+00
       15  1    1    2    0    0 -1.3703992690e+01 +1.9705769717e+00 +1.8644413927e+01 2.3290652394e+01 1.7770000000e+00 0.0000e+00 -1.0000e+00
</event>
<event>
 6 1 7.08916e-05 4.79120900e+02 7.54677100e-03 9.44778000e-02
      -11 -1    0    0    0    0 +0.0000000000e+00 +0.0000000000e+00 +5.0000000000e+02 5.0000000000e+02 0.0000000000e+00 0.0000e+00 -1.0000e+00
       11 -1    0    0    0    0 -0.0000000000e+00 -0.0000000000e+00 -5.0000000000e+02 5.0000000000e+02 0.0000000000e+00 0.0000e+00 -1.0000e+00
      -11  1    1    2    0    0 -1.1196505774e+01 +2.5417555082e+00 +4.7471427838e+02 4.7485310188e+02 0.0000000000e+00 0.0000e+00 -1.0000e+00
       11  1    1    2    0    0 +2.1396713670e+01 +2.9623710973e+01 -4.8263387140e+02 4.8401532768e+02 0.0000000000e+00 0.0000e+00 -1.0000e+00
      -15  1    1    2    0    0 +8.4459789208e-01 -1.6678113969e+01 +1.3143007728e+01 2.1325318574e+01 1.7770000000e+00 0.0000e+00 -1.0000e+00
       15  1    1    2    0    0 -1.1044805789e+01 -1.5487352513e+01 -5.2234147106e+00 1.9806251867e+01 1.7770000000e+00 0.0000e+00 1.0000e+00
</event>
<event>
 6 1 7.08916e-05 5.03169500e+02 7.54677100e-03 9.39274500e-02
      -11 -1    0    0    0    0 +0.0000000000e+00 +0.0000000000e+00 +5.0000000000e+02 5.0000000000e+02 0.0000000000e+00 0.0000e+00 -1.0000e+00
       11 -1    0    0    0    0 -0.0000000000e+00 -0.0000000000e+00 -5.0000000000e+02 5.0000000000e+02 0.0000000000e+00 0.0000e+00 1.0000e+00
      -11  1    1    2    0    0 +3.3978033040e+00 -1.5463386266e+01 +4.6265553144e+02 4.6292634636e+02 0.0000000000e+00 0.0000e+00 -1.0000e+00
       11  1    1    2    0    0 -8.5156001644e+00 +1.0672894109e+00 -4.9675634606e+02 4.9683047602e+02 0.0000000000e+00 0.0000e+00 1.0000e+00
      -15  1    1    2    0    0 +7.3230417774e-01 +8.4981127516e+00 +3.0771440766e+01 3.1981142656e+01 1.7770000000e+00 0.0000e+00 1.0000e+00
       15  1    1    2    0    0 +4.3854926827e+00 +5.8979841032e+00 +3.3293738559e+00 8.2620349687e+00 1.7770000000e+00 0.0000e+00 -1.0000e+00
</event>
<event>
 6 1 7.08916e-05 5.01931100e+02 7.54677100e-03 9.39549900e-02
      -11 -1    0    0    0    0 +0.0000000000e+00 +0.0000000000e+00 +5.0000000000e+02 5.0000000000e+02 0.0000000000e+00 0.0000e+00 1.0000e+00
       11 -1    0    0    0    0 -0.0000000000e+00 -0.0000000000e+00 -5.0000000000e+02 5.0000000000e+02 0.0000000000e+00 0.0000e+00 -1.0000e+00
      -11  1    1    2    0    0 -6.1513411805e+01 +7.1933465622e+01 +4.8899316899e+02 4.9806891353e+02 0.0000000000e+00 0.0000e+00 1.0000e+00
       11  1    1    2    0    0 +6.0421982478e+01 -7.0901833812e+01 -4.7863413999e+02 4.8761514124e+02 0.0000000000e+00 0.0000e+00 -1.0000e+00
      -15  1    1    2    0    0 +3.3499783571e+00 -2.5388102154e-01 -1.0666065779e+01 1.1322963339e+01 1.7770000000e+00 0.0000e+00 1.0000e+00
       15  1    1    2    0    0 -2.2585490306e+00 -7.7775078844e-01 +3.0703678488e-01 2.9929818910e+00 1.7770000000e+00 0.0000e+00 -1.0000e+00
</event>
<event>
 6 1 7.08916e-05 5.00419900e+02 7.54677100e-03 9.39887100e-02
      -11 -1    0    0    0    0 +0.0000000000e+00 +0.0000000000e+00 +5.0000000000e+02 5.0000000000e+02 0.0000000000e+00 0.0000e+00 -1.0000e+00
       11 -1    0    0    0    0 -0.0000000000e+00 -0.0000000000e+00 -5.0000000000e+02 5.0000000000e+02 0.0000000000e+00 0.0000e+00 -1.0000e+00
      -11  1    1    2    0    0 -1.7126892967e+00 +9.7531756896e-02 +8.7737468725e+01 8.7754237706e+01 0.0000000000e+00 0.0000e+00 -1.0000e+00
       11  1    1    2    0    0 +2.1708048276e+01 -1.2683148089e+01 -4.9894703708e+02 4.9958007107e+02 0.0000000000e+00 0.0000e+00 -1.0000e+00
      -15  1    1    2    0    0 +2.9372727075e+00 +2.7936761659e-01 +1.7260191205e+02 1.7263627483e+02 1.7770000000e+00 0.0000e+00 -1.0000e+00
       15  1    1    2    0    0 -2.2932631687e+01 +1.2306248716e+01 +2.3860765631e+02 2.4002941638e+02 1.7770000000e+00 0.0000e+00 -1.0000e+00
</event>
<event>
 6 1 7.08916e-05 5.10377900e+02 7.54677100e-03 9.37688300e-02
      -11 -1    0    0    0    0 +0.0000000000e+00 +0.0000000000e+00 +5.0000000000e+02 5.0000000000e+02 0.0000000000e+00 0.0000e+00 -1.0000e+00
       11 -1    0    0    0    0 -0.0000000000e+00 -0.0000000000e+00 -5.0000000000e+02 5.0000000000e+02 0.0000000000e+00 0.0000e+00 1.0000e+00
      -11  1    1    2    0    0 +2.9038671789e+00 +1.2547894370e+01 +4.8945264905e+02 4.8962207646e+02 0.0000000000e+00 0.0000e+00 -1.0000e+00
       11  1    1    2    0    0 -9.8339395654e+00 +1.8043420634e+01 -4.6771522972e+02 4.6816643142e+02 0.0000000000e+00 0.0000e+00 1.0000e+00
      -15  1    1    2    0    0 +7.6259459937e+00 -1.6921497040e+01 -2.1429711843e+01 2.8405675367e+01 1.7770000000e+00 0.0000e+00 1.0000e+00
       15  1    1    2    0    0 -6.9587360727e-01 -1.3669817964e+01 -3.0770748092e-01 1.3805816750e+01 1.7770000000e+00 0.0000e+00 -1.0000e+00
</event>
<event>
 6 1 7.08916e-05 5.11416300e+02 7.54677100e-03 9.37462100e-02
      -11 -1    0    0    0    0 +0.0000000000e+00 +0.0000000000e+00 +5.0000000000e+02 5.0000000000e+02 0.0000000000e+00 0.0000e+00 1.0000e+00
       11 -1    0    0    0    0 -0.0000000000e+00 -0.0000000000e+00 -5.0000000000e+02 5.0000000000e+02 0.0000000000e+00 0.0000e+00 -1.0000e+00
      -11  1    1    2    0    0 -6.7991999372e+00 -6.2329907667e+00 +4.7570772311e+02 4.7579713862e+02 0.0000000000e+00 0.0000e+00 1.0000e+00
       11  1    1    2    0    0 +5.9431742422e-01 +1.5402310720e+01 -4.8834048399e+02 4.8858368034e+02 0.0000000000e+00 0.0000e+00 -1.0000e+00
      -15  1    1    2    0    0 +7.8962951318e+00 -2.0314898403e+01 +8.9327687498e+00 2.3621995269e+01 1.7770000000e+00 0.0000e+00 -1.0000e+00
       15  1    1    2    0    0 -1.6914126189e+00 +1.1145578450e+01 +3.6999921321e+00 1.1997185770e+01 1.7770000000e+00 0.0000e+00 1.0000e+00
</event>
<event>
 6 1 7.08916e-05 5.01596800e+02 7.54677100e-03 9.39624400e-02
      -11 -1    0    0    0    0 +0.0000000000e+00 +0.0000000000e+00 +5.0000000000e+02 5.0000000000e+02 0.0000000000e+00 0.0000e+00 -1.0000e+00
       11 -1    0    0    0    0 -0.0000000000e+00 -0.0000000000e+00 -5.0000000000e+02 5.0000000000e+02 0.0000000000e+00 0.0000e+00 -1.0000e+00
      -11  1    1    2    0    0 -2.3866554746e+01 +1.0894346099e+00 +4.9783027750e+02 4.9840323484e+02 0.0000000000e+00 0.0000e+00 -1.0000e+00
       11  1    1    2    0    0 -7.6226188418e-01 +1.3678951877e+00 -6.7383555050e+01 6.7401748283e+01 0.0000000000e+00 0.0000e+00 -1.0000e+00
      -15  1    1    2    0    0 +1.1699572527e+01 -1.3916972446e+01 -3.8663495427e+02 3.8706628335e+02 1.7770000000e+00 0.0000e+00 1.0000e+00
       15  1    1    2    0    0 +1.2929244103e+01 +1.1459642649e+01 -4.3811768184e+01 4.7128733520e+01 1.7770000000e+00 0.0000e+00 -1.0000e+00
</event>
<event>
 6 1 7.08916e-05 5.10766500e+02 7.54677100e-03 9.37603600e-02
      -11 -1    0    0    0    0 +0.0000000000e+00 +0.0000000000e+00 +5.0000000000e+02 5.0000000000e+02 0.0000000000e+00 0.0000e+00 -1.0000e+00
       11 -1    0    0    0    0 -0.0000000000e+00 -0.0000000000e+00 -5.0000000000e+02 5.0000000000e+02 0.0000000000e+00 0.0000e+00 -1.0000e+00
      -11  1    1    2    0    0 +3.5048034681e+00 -1.3786065068e+00 +1.6490761700e+02 1.6495061791e+02 0.0000000000e+00 0.0000e+00 -1.0000e+00
       11  1    1    2    0    0 -3.5141383563e+00 +7.7116706499e+00 -4.8916008147e+02 4.8923348652e+02 0.0000000000e+00 0.0000e+00 -1.0000e+00
      -15  1    1    2    0    0 +5.7302834690e+01 +8.4413601934e+00 +1.2171909281e+02 1.3480937174e+02 1.7770000000e+00 0.0000e+00 -1.0000e+00
       15  1    1    2    0    0 -5.7293499802e+01 -1.4774424336e+01 +2.0253337166e+02 2.1100652383e+02 1.7770000000e+00 0.0000e+00 1.0000e+00
</event>
<event>
 6 1 7.08916e-05 5.37627700e+02 7.54677100e-03 9.31934000e-02
      -11 -1    0    0    0    0 +0.0000000000e+00 +0.0000000000e+00 +5.0000000000e+02 5.0000000000e+02 0.0000000000e+00 0.0000e+00 1.0000e+00
       11 -1    0    0    0    0 -0.0000000000e+00 -0.0000000000e+00 -5.0000000000e+02 5.0000000000e+02 0.0000000000e+00 0.0000e+00 1.0000e+00
      -11  1    1    2    0    0 -1.1657628679e+01 -5.3049372929e+00 +4.6219482477e+02 4.6237225123e+02 0.0000000000e+00 0.0000e+00 1.0000e+00
       11  1    1    2    0    0 -1.8919894096e+01 +7.5781472932e+01 -3.4544531420e+02 3.5416558152e+02 0.0000000000e+00 0.0000e+00 1.0000e+00
      -15  1    1    2    0    0 -1.5918896259e+01 -2.5824846857e+01 +1.7112473004e+01 3.4875900484e+01 1.7770000000e+00 0.0000e+00 -1.0000e+00
       15  1    1    2    0    0 +4.6496419034e+01 -4.4651688782e+01 -1.3386198358e+02 1.4858626676e+02 1.7770000000e+00 0.0000e+00 1.0000e+00
</event>
<event>
 6 1 7.08916e-05 4.96279600e+02 7.54677100e-03 9.40817300e-02
      -11 -1    0    0    0    0 +0.0000000000e+00 +0.0000000000e+00 +5.0000000000e+02 5.0000000000e+02 0.0000000000e+00 0.0000e+00 1.0000e+00
       11 -1    0    0    0    0 -0.0000000000e+00 -0.0000000000e+00 -5.0000000000e+02 5.0000000000e+02 0.0000000000e+00 0.0000e+00 -1.0000e+00
      -11  1    1    2    0    0 +9.7134003235e-01 +1.1685881613e+00 +7.8561474808e+00 8.0017593683e+00 0.0000000000e+00 0.0000e+00 1.0000e+00
       11  1    1    2    0    0 -8.0804799885e+00 -2.5611306811e+00 -4.9956561653e+02 4.9963752738e+02 0.0000000000e+00 0.0000e+00 -1.0000e+00
      -15  1    1    2    0    0 +1.8127199519e+00 -9.0516741090e+00 +3.5918237693e+02 3.5930538040e+02 1.7770000000e+00 0.0000e+00 1.0000e+00
       15  1    1    2    0    0 +5.2964200043e+00 +1.0444216629e+01 +1.3252709212e+02 1.3305533285e+02 1.7770000000e+00 0.0000e+00 -1.0000e+00
</event>
<event>
 6 1 7.08916e-05 4.72497500e+02 7.54677100e-03 9.46354300e-02
      -11 -1    0    0    0    0 +0.0000000000e+00 +0.0000000000e+00 +5.0000000000e+02 5.0000000000e+02 0.0000000000e+00 0.0000e+00 -1.0000e+00
       11 -1    0    0    0    0 -0.0000000000e+00 -0.0000000000e+00 -5.0000000000e+02 5.0000000000e+02 0.0000000000e+00 0.0000e+00 1.0000e+00
      -11  1    1    2    0    0 +1.5044102337e+01 -1.9698636496e+01 +4.7004316049e+02 4.7069622265e+02 0.0000000000e+00 0.0000e+00 -1.0000e+00
       11  1    1    2    0    0 +1.3440952086e+01 -5.9992836895e+00 -4.7486144471e+02 4.7508950975e+02 0.0000000000e+00 0.0000e+00 1.0000e+00
      -15  1    1    2    0    0 -7.3335427556e+00 -9.5417942124e+00 -2.5283658752e+00 1.2424856101e+01 1.7770000000e+00 0.0000e+00 -1.0000e+00
       15  1    1    2    0    0 -2.1151511667e+01 +3.5239714398e+01 +7.3466500938e+00 4.1789411497e+01 1.7770000000e+00 0.0000e+00 1.0000e+00
</event>
<event>
 6 1 7.08916e-05 5.05456700e+02 7.54677100e-03 9.38768200e-02
      -11 -1    0    0    0    0 +0.0000000000e+00 +0.0000000000e+00 +5.0000000000e+02 5.0000000000e+02 0.0000000000e+00 0.0000e+00 -1.0000e+00
       11 -1    0    0    0    0 -0.0000000000e+00 -0.0000000000e+00 -5.0000000000e+02 5.0000000000e+02 0.0000000000e+00 0.0000e+00 1.0000e+00
      -11  1    1    2    0    0 -1.3579343674e+01 +3.3022603435e+01 +4.9325264194e+02 4.9454328394e+02 0.0000000000e+00 0.0000e+00 -1.0000e+00
       11  1    1    2    0    0 -8.8918498515e+00 -2.0142747651e+01 -3.1464665909e+02 3.1541609875e+02 0.0000000000e+00 0.0000e+00 1.0000e+00
      -15  1    1    2    0    0 -2.5527439222e+00 +1.2718203957e+01 -1.2421002918e+02 1.2489819171e+02 1.7770000000e+00 0.0000e+00 1.0000e+00
       15  1    1    2    0    0 +2.5023937448e+01 -2.5598059740e+01 -5.4395953671e+01 6.5142425597e+01 1.7770000000e+00 0.0000e+00 -1.0000e+00
</event>
<event>
 6 1 7.08916e-05 5.00346600e+02 7.54677100e-03 9.39903500e-02
      -11 -1    0    0    0    0 +0.0000000000e+00 +0.0000000000e+00 +5.0000000000e+02 5.0000000000e+02 0.0000000000e+00 0.0000e+00 -1.0000e+00
       11 -1    0    0    0    0 -0.0000000000e+00 -0.0000000000e+00 -5.0000000000e+02 5.0000000000e+02 0.0000000000e+00 0.0000e+00 -1.0000e+00
      -11  1    1    2    0    0 +5.4718272163e+00 -3.3122608443e+00 +3.0289287206e+02 3.0296039990e+02 0.0000000000e+00 0.0000e+00 -1.0000e+00
       11  1    1    2    0    0 -7.7731293452e+00 -2.7258325749e-02 -4.9959295683e+02 4.9965342468e+02 0.0000000000e+00 0.0000e+00 -1.0000e+00
      -15  1    1    2    0    0 +7.4434113556e+00 +5.4102952063e+00 +8.1119481557e+01 8.1659069820e+01 1.7770000000e+00 0.0000e+00 1.0000e+00
       15  1    1    2    0    0 -5.1421092267e+00 -2.0707760362e+00 +1.1558060321e+02 1.1572710559e+02 1.7770000000e+00 0.0000e+00 -1.0000e+00
</event>
<event>
 6 1 7.08916e-05 4.95458400e+02 7.54677100e-03 9.41003000e-02
      -11 -1    0    0    0    0 +0.0000000000e+00 +0.0000000000e+00 +5.0000000000e+02 5.0000000000e+02 0.0000000000e+00 0.0000e+00 -1.0000e+00
       11 -1    0    0    0    0 -0.0000000000e+00 -0.0000000000e+00 -5.0000000000e+02 5.0000000000e+02 0.0000000000e+00 0.0000e+00 -1.0000e+00
      -11  1    1    2    0    0 -2.4165012704e+01 -2.6575115133e+01 +4.8270524743e+02 4.8403981291e+02 0.0000000000e+00 0.0000e+00 -1.0000e+00
       11  1    1    2    0    0 -1.2984570215e+00 +1.9539605877e+01 +2.0581002645e+00 1.9690555227e+01 0.0000000000e+00 0.0000e+00 -1.0000e+00
      -15  1    1    2    0    0 -1.5231954286e+01 +4.1366072517e+01 -1.2442477131e+02 1.3201456673e+02 1.7770000000e+00 0.0000e+00 1.0000e+00
       15  1    1    2    0    0 +4.0695424011e+01 -3.4330563260e+01 -3.6033857639e+02 3.6425506513e+02 1.7770000000e+00 0.0000e+00 -1.0000e+00
</event>
<event>
 6 1 7.08916e-05 5.03709100e+02 7.54677100e-03 9.39154800e-02
      -11 -1    0    0    0    0 +0.0000000000e+00 +0.0000000000e+00 +5.0000000000e+02 5.0000000000e+02 0.0000000000e+00 0.0000e+00 -1.0000e+00
       11 -1    0    0    0    0 -0.0000000000e+00 -0.0000000000e+00 -5.0000000000e+02 5.0000000000e+02 0.0000000000e+00 0.0000e+00 -1.0000e+00
      -11  1    1    2    0    0 -1.0327207854e+01 +7.4599125614e+00 +3.6213188108e+02 3.6235590352e+02 0.0000000000e+00 0.0000e+00 -1.0000e+00
       11  1    1    2    0    0 +1.8856726537e+01 +1.5447147979e+01 -4.9569188191e+02 4.9629087469e+02 0.0000000000e+00 0.0000e+00 -1.0000e+00
      -15  1    1    2    0    0 -1.9704519213e+01 -2.0885316981e+01 +5.6112791628e+01 6.3057653430e+01 1.7770000000e+00 0.0000e+00 -1.0000e+00
       15  1    1    2    0    0 +1.1175000529e+01 -2.0217435588e+00 +7.7447209195e+01 7.8295568361e+01 1.7770000000e+00 0.0000e+00 1.0000e+00
</event>
<event>
 6 1 7.08916e-05 5.00842000e+02 7.54677100e-03 9.39792800e-02
      -11 -1    0    0    0    0 +0.0000000000e+00 +0.0000000000e+00 +5.0000000000e+02 5.0000000000e+02 0.0000000000e+00 0.0000e+00 -1.0000e+00
       11 -1    0    0    0    0 -0.0000000000e+00 -0.0000000000e+00 -5.0000000000e+02 5.0000000000e+02 0.0000000000e+00 0.0000e+00 1.0000e+00
      -11  1    1    2    0    0 +3.3500253490e+00 -1.2617840032e+01 +4.9898722878e+02 4.9915797804e+02 0.0000000000e+00 0.0000e+00 -1.0000e+00
       11  1    1    2    0    0 -3.5461171815e-01 -5.8889956886e+00 -1.6651373825e+02 1.6661821943e+02 0.0000000000e+00 0.0000e+00 1.0000e+00
      -15  1    1    2    0    0 +1.0278775307e+01 +1.5810988577e+01 -1.4148410494e+02 1.4274645446e+02 1.7770000000e+00 0.0000e+00 1.0000e+00
       15  1    1    2    0    0 -1.3274188938e+01 +2.6958471431e+00 -1.9098938560e+02 1.9147734807e+02 1.7770000000e+00 0.0000e+00 -1.0000e+00
</event>
<event>
 6 1 7.08916e-05 5.01364900e+02 7.54677100e-03 9.39676100e-02
      -11 -1    0    0    0    0 +0.0000000000e+00 +0.0000000000e+00 +5.0000000000e+02 5.0000000000e+02 0.0000000000e+00 0.0000e+00 1.0000e+00
       11 -1    0    0    0    0 -0.0000000000e+00 -0.0000000000e+00 -5.0000000000e+02 5.0000000000e+02 0.0000000000e+00 0.0000e+00 -1.0000e+00
      -11  1    1    2    0    0 -1.0230499667e+01 -6.8879602235e-01 +4.9852966800e+02 4.9863510450e+02 0.0000000000e+00 0.0000e+00 1.0000e+00
       11  1    1    2    0    0 -6.3710611707e+00 +7.8087582869e+00 -4.2133410374e+02 4.2145461690e+02 0.0000000000e+00 0.0000e+00 -1.0000e+00
      -15  1    1    2    0    0 +6.9263184435e+00 -1.2441868238e+00 -1.4948367368e+01 1.6617259221e+01 1.7770000000e+00 0.0000e+00 -1.0000e+00
       15  1    1    2    0    0 +9.6752423944e+00 -5.8757754408e+00 -6.2247196891e+01 6.3293019380e+01 1.7770000000e+00 0.0000e+00 1.0000e+00
</event>
<event>
 6 1 7.08916e-05 5.01949100e+02 7.54677100e-03 9.39545900e-02
      -11 -1    0    0    0    0 +0.0000000000e+00 +0.0000000000e+00 +5.0000000000e+02 5.0000000000e+02 0.0000000000e+00 0.0000e+00 -1.0000e+00
       11 -1    0    0    0    0 -0.0000000000e+00 -0.0000000000e+00 -5.0000000000e+02 5.0000000000e+02 0.0000000000e+00 0.0000e+00 1.0000e+00
      -11  1    1    2    0    0 -9.9686720686e+00 +1.1963542009e+01 +4.5763692165e+02 4.5790179385e+02 0.0000000000e+00 0.0000e+00 -1.0000e+00
       11  1    1    2    0    0 +1.5450016741e+01 +1.7414212496e+00 -4.9780818829e+02 4.9805092901e+02 0.0000000000e+00 0.0000e+00 1.0000e+00
      -15  1    1    2    0    0 -3.8239012240e+00 -9.8140692456e+00 +1.4727456197e+01 1.8193236951e+01 1.7770000000e+00 0.0000e+00 -1.0000e+00
       15  1    1    2    0    0 -1.6574434488e+00 -3.8908940131e+00 +2.5443810442e+01 2.5854040184e+01 1.7770000000e+00 0.0000e+00 1.0000e+00
</event>
<event>
 6 1 7.08916e-05 5.10353200e+02 7.54677100e-03 9.37693700e-02
      -11 -1    0    0    0    0 +0.0000000000e+00 +0.0000000000e+00 +5.0000000000e+02 5.0000000000e+02 0.0000000000e+00 0.0000e+00 1.0000e+00
       11 -1    0    0    0    0 -0.0000000000e+00 -0.0000000000e+00 -5.0000000000e+02 5.0000000000e+02 0.0000000000e+00 0.0000e+00 -1.0000e+00
      -11  1    1    2    0    0 +4.7063134608e+00 -9.9162625552e+00 +4.8952370940e+02 4.8964675401e+02 0.0000000000e+00 0.0000e+00 1.0000e+00
       11  1    1    2    0    0 +1.0092573901e+01 -3.5898459805e+00 -9.8985203910e+01 9.9563133916e+01 0.0000000000e+00 0.0000e+00 -1.0000e+00
      -15  1    1    2    0    0 -2.0515331111e+01 +2.7245415057e+01 -1.9258268593e+01 3.9207525941e+01 1.7770000000e+00 0.0000e+00 1.0000e+00
       15  1    1    2    0    0 +5.7164437493e+00 -1.3739306521e+01 -3.7128023690e+02 3.7158258613e+02 1.7770000000e+00 0.0000e+00 -1.0000e+00
</event>
<event>
 6 1 7.08916e-05 5.01023500e+02 7.54677100e-03 9.39752200e-02
      -11 -1    0    0    0    0 +0.0000000000e+00 +0.0000000000e+00 +5.0000000000e+02 5.0000000000e+02 0.0000000000e+00 0.0000e+00 1.0000e+00
       11 -1    0    0    0    0 -0.0000000000e+00 -0.0000000000e+00 -5.0000000000e+02 5.0000000000e+02 0.0000000000e+00 0.0000e+00 1.0000e+00
      -11  1    1    2    0    0 +4.9073585233e+00 +7.4822792251e+00 +4.9889627071e+02 4.9897650806e+02 0.0000000000e+00 0.0000e+00 1.0000e+00
       11  1    1    2    0    0 +6.9365227282e+00 +3.2943419752e+00 -4.3112165596e+02 4.3119003963e+02 0.0000000000e+00 0.0000e+00 1.0000e+00
      -15  1    1    2    0    0 -1.0390051410e+01 -8.1540180875e+00 -5.2307768434e+01 5.3978713831e+01 1.7770000000e+00 0.0000e+00 1.0000e+00
       15  1    1    2    0    0 -1.4538298414e+00 -2.6226031129e+00 -1.5466846312e+01 1.5854738476e+01 1.7770000000e+00 0.0000e+00 -1.0000e+00
</event>
<event>
 6 1 7.08916e-05 5.01379600e+02 7.54677100e-03 9.39672800e-02
      -11 -1    0    0    0    0 +0.0000000000e+00 +0.0000000000e+00 +5.0000000000e+02 5.0000000000e+02 0.0000000000e+00 0.0000e+00 -1.0000e+00
       11 -1    0    0    0    0 -0.0000000000e+00 -0.0000000000e+00 -5.0000000000e+02 5.0000000000e+02 0.0000000000e+00 0.0000e+00 1.0000e+00
      -11  1    1    2    0    0 +5.2467811846e+00 +6.6801122362e+00 +4.3356153878e+02 4.3364473999e+02 0.0000000000e+00 0.0000e+00 -1.0000e+00
       11  1    1    2    0    0 +4.3841612020e+00 +6.2854262986e+00 -4.9856150418e+02 4.9862039760e+02 0.0000000000e+00 0.0000e+00 1.0000e+00
      -15  1    1    2    0    0 -6.9074636671e+00 -1.3526272651e+01 +5.8217040661e+01 6.0191815544e+01 1.7770000000e+00 0.0000e+00 -1.0000e+00
       15  1    1    2    0    0 -2.7234787195e+00 +5.6073411594e-01 +6.7829247347e+00 7.5430468672e+00 1.7770000000e+00 0.0000e+00 1.0000e+00
</event>
<event>
 6 1 7.08916e-05 5.00996400e+02 7.54677100e-03 9.39758300e-02
      -11 -1    0    0    0    0 +0.0000000000e+00 +0.0000000000e+00 +5.0000000000e+02 5.0000000000e+02 0.0000000000e+00 0.0000e+00 -1.0000e+00
       11 -1    0    0    0    0 -0.0000000000e+00 -0.0000000000e+00 -5.0000000000e+02 5.0000000000e+02 0.0000000000e+00 0.0000e+00 -1.0000e+00
      -11  1    1    2    0    0 -3.5490000914e+00 +1.3951402490e+01 +4.9879589601e+02 4.9900359008e+02 0.0000000000e+00 0.0000e+00 -1.0000e+00
       11  1    1    2    0    0 +4.8859041399e+00 -5.1026131281e+00 -3.8415993087e+02 3.8422488364e+02 0.0000000000e+00 0.0000e+00 -1.0000e+00
      -15  1    1    2    0    0 -5.7915674442e-01 -4.9167936912e-01 -1.2164318343e-01 1.9364134891e+00 1.7770000000e+00 0.0000e+00 -1.0000e+00
       15  1    1    2    0    0 -7.5774730411e-01 -8.3571099923e+00 -1.1451432196e+02 1.1483511280e+02 1.7770000000e+00 0.0000e+00 1.0000e+00
</event>
<event>
 6 1 7.08916e-05 5.06883600e+02 7.54677100e-03 9.38453800e-02
      -11 -1    0    0    0    0 +0.0000000000e+00 +0.0000000000e+00 +5.0000000000e+02 5.0000000000e+02 0.0000000000e+00 0.0000e+00 1.0000e+00
       11 -1    0    0    0    0 -0.0000000000e+00 -0.0000000000e+00 -5.0000000000e+02 5.0000000000e+02 0.0000000000e+00 0.0000e+00 1.0000e+00
      -11  1    1    2    0    0 +3.7456575843e+00 -6.3337539961e+00 +4.9306153357e+02 4.9311643886e+02 0.0000000000e+00 0.0000e+00 1.0000e+00
       11  1    1    2    0    0 +7.2056916750e+00 +1.3612192266e+01 -4.8460941386e+02 4.8485409947e+02 0.0000000000e+00 0.0000e+00 1.0000e+00
      -15  1    1    2    0    0 -1.0812368927e+01 -4.4561457973e+00 -1.2212004683e+01 1.7001627704e+01 1.7770000000e+00 0.0000e+00 -1.0000e+00
       15  1    1    2    0    0 -1.3898033194e-01 -2.8222924730e+00 +3.7598849779e+00 5.0278339653e+00 1.7770000000e+00 0.0000e+00 1.0000e+00
</event>
<event>
 6 1 7.08916e-05 5.11525600e+02 7.54677100e-03 9.37438300e-02
      -11 -1    0    0    0    0 +0.0000000000e+00 +0.0000000000e+00 +5.0000000000e+02 5.0000000000e+02 0.0000000000e+00 0.0000e+00 -1.0000e+00
       11 -1    0    0    0    0 -0.0000000000e+00 -0.0000000000e+00 -5.0000000000e+02 5.0000000000e+02 0.0000000000e+00 0.0000e+00 -1.0000e+00
      -11  1    1    2    0    0 +8.8259975635e+00 -3.8365784804e-01 +4.3776467644e+02 4.3785380821e+02 0.0000000000e+00 0.0000e+00 -1.0000e+00
       11  1    1    2    0    0 -1.0328035625e+01 +2.7573254568e+00 -4.8835744977e+02 4.8847443117e+02 0.0000000000e+00 0.0000e+00 -1.0000e+00
      -15  1    1    2    0    0 -1.1402214744e+01 +4.7715733421e+00 +5.6365818928e+01 5.7732501121e+01 1.7770000000e+00 0.0000e+00 1.0000e+00
       15  1    1    2    0    0 +1.2904252805e+01 -7.1452409509e+00 -5.7730456013e+00 1.5939259494e+01 1.7770000000e+00 0.0000e+00 1.0000e+00
</event>
<event>
 6 1 7.08916e-05 5.05300400e+02 7.54677100e-03 9.38802700e-02
      -11 -1    0    0    0    0 +0.0000000000e+00 +0.0000000000e+00 +5.0000000000e+02 5.0000000000e+02 0.0000000000e+00 0.0000e+00 1.0000e+00
       11 -1    0    0    0    0 -0.0000000000e+00 -0.0000000000e+00 -5.0000000000e+02 5.0000000000e+02 0.0000000000e+00 0.0000e+00 -1.0000e+00
      -11  1    1    2    0    0 +9.6546807267e+00 +5.6620687621e+00 +4.9457300477e+02 4.9469963506e+02 0.0000000000e+00 0.0000e+00 1.0000e+00
       11  1    1    2    0    0 -3.0009704721e+00 -6.9784948850e+00 -4.5608958847e+02 4.5615284491e+02 0.0000000000e+00 0.0000e+00 -1.0000e+00
      -15  1    1    2    0    0 -3.5587475589e+00 +4.1083087248e+00 +3.6415958821e+00 6.7795157891e+00 1.7770000000e+00 0.0000e+00 -1.0000e+00
       15  1    1    2    0    0 -3.0949626957e+00 -2.7918826018e+00 -4.2125012185e+01 4.2368004239e+01 1.7770000000e+00 0.0000e+00 1.0000e+00
</event>
<event>
 6 1 7.08916e-05 5.48833800e+02 7.54677100e-03 9.29671700e-02
      -11 -1    0    0    0    0 +0.0000000000e+00 +0.0000000000e+00 +5.0000000000e+02 5.0000000000e+02 0.0000000000e+00 0.0000e+00 -1.0000e+00
       11 -1    0    0    0    0 -0.0000000000e+00 -0.0000000000e+00 -5.0000000000e+02 5.0000000000e+02 0.0000000000e+00 0.0000e+00 1.0000e+00
      -11  1    1    2    0    0 -3.1814190075e+00 +9.3248635255e+00 +4.5105860067e+02 4.5116619526e+02 0.0000000000e+00 0.0000e+00 -1.0000e+00
       11  1    1    2    0    0 +7.9751146602e+00 -7.4442551846e+01 -2.9283818442e+02 3.0225733776e+02 0.0000000000e+00 0.0000e+00 1.0000e+00
      -15  1    1    2    0    0 -1.5635079593e+01 +7.3317766772e+01 -1.9414584041e+02 2.0812427950e+02 1.7770000000e+00 0.0000e+00 1.0000e+00
       15  1    1    2    0    0 +1.0841383940e+01 -8.2000784511e+00 +3.5925424156e+01 3.8452187482e+01 1.7770000000e+00 0.0000e+00 -1.0000e+00
</event>
<event>
 6 1 7.08916e-05 5.04736000e+02 7.54677100e-03 9.38927400e-02
      -11 -1    0    0    0    0 +0.0000000000e+00 +0.0000000000e+00 +5.0000000000e+02 5.0000000000e+02 0.0000000000e+00 0.0000e+00 -1.0000e+00
       11 -1    0    0    0    0 -0.0000000000e+00 -0.0000000000e+00 -5.0000000000e+02 5.0000000000e+02 0.0000000000e+00 0.0000e+00 1.0000e+00
      -11  1    1    2    0    0 +5.4683559093e+00 -1.2497090592e+01 +4.7302100022e+02 4.7321765271e+02 0.0000000000e+00 0.0000e+00 -1.0000e+00
       11  1    1    2    0    0 +6.7232616679e+00 -3.8136760740e+00 -4.9520363075e+02 4.9526395213e+02 0.0000000000e+00 0.0000e+00 1.0000e+00
      -15  1    1    2    0    0 -2.1658373151e+00 +1.8893805558e-01 +5.5317628891e+00 6.2036020606e+00 1.7770000000e+00 0.0000e+00 1.0000e+00
       15  1    1    2    0    0 -1.0025780262e+01 +1.6121828611e+01 +1.6650867638e+01 2.5314793100e+01 1.7770000000e+00 0.0000e+00 -1.0000e+00
</event>
<event>
 6 1 7.08916e-05 5.00547900e+02 7.54677100e-03 9.39858500e-02
      -11 -1    0    0    0    0 +0.0000000000e+00 +0.0000000000e+00 +5.0000000000e+02 5.0000000000e+02 0.0000000000e+00 0.0000e+00 -1.0000e+00
       11 -1    0    0    0    0 -0.0000000000e+00 -0.0000000000e+00 -5.0000000000e+02 5.0000000000e+02 0.0000000000e+00 0.0000e+00 -1.0000e+00
      -11  1    1    2    0    0 +1.2017162952e+01 -7.4845253733e+00 +4.9925138905e+02 4.9945207958e+02 0.0000000000e+00 0.0000e+00 -1.0000e+00
       11  1    1    2    0    0 -2.5889141543e+00 -1.0854536158e+01 -8.6604548490e+01 8.7320508765e+01 0.0000000000e+00 0.0000e+00 -1.0000e+00
      -15  1    1    2    0    0 -5.1691761534e-01 +5.5127040809e+00 -8.1137044099e+01 8.1345158210e+01 1.7770000000e+00 0.0000e+00 1.0000e+00
       15  1    1    2    0    0 -8.9113311825e+00 +1.2826357451e+01 -3.3150979647e+02 3.3188225344e+02 1.7770000000e+00 0.0000e+00 -1.0000e+00
</event>
<event>
 7 1 7.08916e-05 5.33262000e+02 7.54677100e-03 9.32831200e-02
      -11 -1    0    0    0    0 +0.0000000000e+00 +0.0000000000e+00 +5.0000000000e+02 5.0000000000e+02 0.0000000000e+00 0.0000e+00 1.0000e+00
       11 -1    0    0    0    0 -0.0000000000e+00 -0.0000000000e+00 -5.0000000000e+02 5.0000000000e+02 0.0000000000e+00 0.0000e+00 -1.0000e+00
       23  2    1    2    0    0 +1.3489244714e+02 -6.9263329669e+00 +1.2101537361e+02 2.0528135667e+02 9.6186113159e+01 0.0000e+00 0.0000e+00
      -11  1    1    2    0    0 -7.2998776052e+00 -3.7977390030e+01 +3.2569272499e+02 3.2798067241e+02 0.0000000000e+00 0.0000e+00 1.0000e+00
       11  1    1    2    0    0 -1.2759256953e+02 +4.4903722997e+01 -4.4670809860e+02 4.6673797091e+02 0.0000000000e+00 0.0000e+00 -1.0000e+00
      -15  1    3    3    0    0 +8.0966645101e+01 -1.6635368091e+01 +1.2549021743e+02 1.5027736187e+02 1.7770000000e+00 0.0000e+00 1.0000e+00
       15  1    3    3    0    0 +5.3925802035e+01 +9.7090351241e+00 -4.4748438196e+00 5.5003994804e+01 1.7770000000e+00 0.0000e+00 -1.0000e+00
</event>
<event>
 6 1 7.08916e-05 4.86206400e+02 7.54677100e-03 9.43121400e-02
      -11 -1    0    0    0    0 +0.0000000000e+00 +0.0000000000e+00 +5.0000000000e+02 5.0000000000e+02 0.0000000000e+00 0.0000e+00 -1.0000e+00
       11 -1    0    0    0    0 -0.0000000000e+00 -0.0000000000e+00 -5.0000000000e+02 5.0000000000e+02 0.0000000000e+00 0.0000e+00 -1.0000e+00
      -11  1    1    2    0    0 -9.8074983316e+00 +1.6447356122e+00 +4.9050374070e+02 4.9060453710e+02 0.0000000000e+00 0.0000e+00 -1.0000e+00
       11  1    1    2    0    0 -1.0478006088e+01 -1.1966331067e+01 -4.8185056275e+02 4.8211300181e+02 0.0000000000e+00 0.0000e+00 -1.0000e+00
      -15  1    1    2    0    0 +1.8647656180e+01 +1.2580060705e+01 -7.6525340968e+00 2.3826708028e+01 1.7770000000e+00 0.0000e+00 1.0000e+00
       15  1    1    2    0    0 +1.6378482399e+00 -2.2584652503e+00 -1.0006438569e+00 3.4557530687e+00 1.7770000000e+00 0.0000e+00 -1.0000e+00
</event>
<event>
 6 1 7.08916e-05 5.01805200e+02 7.54677100e-03 9.39577900e-02
      -11 -1    0    0    0    0 +0.0000000000e+00 +0.0000000000e+00 +5.0000000000e+02 5.0000000000e+02 0.0000000000e+00 0.0000e+00 -1.0000e+00
       11 -1    0    0    0    0 -0.0000000000e+00 -0.0000000000e+00 -5.0000000000e+02 5.0000000000e+02 0.0000000000e+00 0.0000e+00 1.0000e+00
      -11  1    1    2    0    0 +5.0190728376e-01 -6.1913266452e-01 +5.0217382861e+01 5.0223707326e+01 0.0000000000e+00 0.0000e+00 -1.0000e+00
       11  1    1    2    0    0 -1.2720613834e+01 +1.3672285558e+01 -4.9784463809e+02 4.9819477023e+02 0.0000000000e+00 0.0000e+00 1.0000e+00
      -15  1    1    2    0    0 -1.3465367695e+00 -3.4098927690e+01 +2.8201243967e+02 2.8407520815e+02 1.7770000000e+00 0.0000e+00 -1.0000e+00
       15  1    1    2    0    0 +1.3565243320e+01 +2.1045774796e+01 +1.6561481556e+02 1.6750631429e+02 1.7770000000e+00 0.0000e+00 1.0000e+00
</event>
<event>
 6 1 7.08916e-05 5.00406400e+02 7.54677100e-03 9.39890100e-02
      -11 -1    0    0    0    0 +0.0000000000e+00 +0.0000000000e+00 +5.0000000000e+02 5.0000000000e+02 0.0000000000e+00 0.0000e+00 -1.0000e+00
       11 -1    0    0    0    0 -0.0000000000e+00 -0.0000000000e+00 -5.0000000000e+02 5.0000000000e+02 0.0000000000e+00 0.0000e+00 -1.0000e+00
      -11  1    1    2    0    0 -2.4368141203e+00 -1.6231329639e+01 +4.9932392292e+02 4.9959360897e+02 0.0000000000e+00 0.0000e+00 -1.0000e+00
       11  1    1    2    0    0 -4.4640042813e+00 +2.3072871615e+00 -1.2444560531e+02 1.2454701758e+02 0.0000000000e+00 0.0000e+00 -1.0000e+00
      -15  1    1    2    0    0 -4.2813980629e+00 -3.7444263646e+00 -6.5686645752e+01 6.5956381475e+01 1.7770000000e+00 0.0000e+00 1.0000e+00
       15  1    1    2    0    0 +1.1182216464e+01 +1.7668468842e+01 -3.0919167186e+02 3.0990299197e+02 1.7770000000e+00 0.0000e+00 -1.0000e+00
</event>
<event>
 6 1 7.08916e-05 5.10599700e+02 7.54677100e-03 9.37640000e-02
      -11 -1    0    0    0    0 +0.0000000000e+00 +0.0000000000e+00 +5.0000000000e+02 5.0000000000e+02 0.0000000000e+00 0.0000e+00 1.0000e+00
       11 -1    0    0    0    0 -0.0000000000e+00 -0.0000000000e+00 -5.0000000000e+02 5.0000000000e+02 0.0000000000e+00 0.0000e+00 -1.0000e+00
      -11  1    1    2    0    0 +2.3090018392e+00 +6.4977325946e+00 +1.2571544679e+02 1.2590443034e+02 0.0000000000e+00 0.0000e+00 1.0000e+00
       11  1    1    2    0    0 +2.4198652453e+00 +1.3810132343e+01 -4.8919943192e+02 4.8940030619e+02 0.0000000000e+00 0.0000e+00 -1.0000e+00
      -15  1    1    2    0    0 -8.6596217856e+00 -1.1531675185e+01 -5.5335340482e+00 1.5548193146e+01 1.7770000000e+00 0.0000e+00 -1.0000e+00
       15  1    1    2    0    0 +3.9307547011e+00 -8.7761897531e+00 +3.6901751918e+02 3.6914707032e+02 1.7770000000e+00 0.0000e+00 1.0000e+00
</event>
<event>
 6 1 7.08916e-05 5.00183900e+02 7.54677100e-03 9.39939800e-02
      -11 -1    0    0    0    0 +0.0000000000e+00 +0.0000000000e+00 +5.0000000000e+02 5.0000000000e+02 0.0000000000e+00 0.0000e+00 -1.0000e+00
       11 -1    0    0    0    0 -0.0000000000e+00 -0.0000000000e+00 -5.0000000000e+02 5.0000000000e+02 0.0000000000e+00 0.0000e+00 1.0000e+00
      -11  1    1    2    0    0 +5.6502073249e+00 +4.3958560675e+00 +1.3237348364e+02 1.3256691731e+02 0.0000000000e+00 0.0000e+00 -1.0000e+00
       11  1    1    2    0    0 -9.2510175530e+00 -2.2053796435e+00 -4.9972560805e+02 4.9981609455e+02 0.0000000000e+00 0.0000e+00 1.0000e+00
      -15  1    1    2    0    0 +6.8084652634e+00 +2.9424553112e+00 +2.1006709833e+02 2.1020551081e+02 1.7770000000e+00 0.0000e+00 -1.0000e+00
       15  1    1    2    0    0 -3.2076550353e+00 -5.1329317351e+00 +1.5728502608e+02 1.5741147733e+02 1.7770000000e+00 0.0000e+00 1.0000e+00
</event>
<event>
 6 1 7.08916e-05 5.00434800e+02 7.54677100e-03 9.39883700e-02
      -11 -1    0    0    0    0 +0.0000000000e+00 +0.0000000000e+00 +5.0000000000e+02 5.0000000000e+02 0.0000000000e+00 0.0000e+00 1.0000e+00
       11 -1    0    0    0    0 -0.0000000000e+00 -0.0000000000e+00 -5.0000000000e+02 5.0000000000e+02 0.0000000000e+00 0.0000e+00 1.0000e+00
      -11  1    1    2    0    0 +4.5351920725e+00 +6.5985118977e+00 +4.9950098752e+02 4.9956515577e+02 0.0000000000e+00 0.0000e+00 1.0000e+00
       11  1    1    2    0    0 +5.6473610125e+00 +2.8722089425e+00 -2.9118337937e+02 2.9125230075e+02 0.0000000000e+00 0.0000e+00 1.0000e+00
      -15  1    1    2    0    0 -1.3247420761e-01 +2.5528307770e+00 -4.3912625363e+01 4.4022845088e+01 1.7770000000e+00 0.0000e+00 -1.0000e+00
       15  1    1    2    0    0 -1.0050078877e+01 -1.2023551617e+01 -1.6440498279e+02 1.6515969839e+02 1.7770000000e+00 0.0000e+00 -1.0000e+00
</event>
<event>
 6 1 7.08916e-05 4.78413600e+02 7.54677100e-03 9.44945000e-02
      -11 -1    0    0    0    0 +0.0000000000e+00 +0.0000000000e+00 +5.0000000000e+02 5.0000000000e+02 0.0000000000e+00 0.0000e+00 1.0000e+00
       11 -1    0    0    0    0 -0.0000000000e+00 -0.0000000000e+00 -5.0000000000e+02 5.0000000000e+02 0.0000000000e+00 0.0000e+00 1.0000e+00
      -11  1    1    2    0    0 +8.1889231399e+00 -1.8521158591e+00 +4.8200611312e+02 4.8207922780e+02 0.0000000000e+00 0.0000e+00 1.0000e+00
       11  1    1    2    0    0 +1.2309060113e+01 -4.6967318866e+00 -4.7483410143e+02 4.7501683774e+02 0.0000000000e+00 0.0000e+00 1.0000e+00
      -15  1    1    2    0    0 +3.4110106271e-01 +7.6145765888e-01 +1.3076845839e+01 1.3223380573e+01 1.7770000000e+00 0.0000e+00 -1.0000e+00
       15  1    1    2    0    0 -2.0839084316e+01 +5.7873900869e+00 -2.0248857521e+01 2.9680553887e+01 1.7770000000e+00 0.0000e+00 1.0000e+00
</event>
<event>
 6 1 7.08916e-05 5.02989600e+02 7.54677100e-03 9.39314500e-02
      -11 -1    0    0    0    0 +0.0000000000e+00 +0.0000000000e+00 +5.0000000000e+02 5.0000000000e+02 0.0000000000e+00 0.0000e+00 -1.0000e+00
       11 -1    0    0    0    0 -0.0000000000e+00 -0.0000000000e+00 -5.0000000000e+02 5.0000000000e+02 0.0000000000e+00 0.0000e+00 -1.0000e+00
      -11  1    1    2    0    0 +8.8218275731e+00 -5.7205570682e-01 +4.9693173475e+02 4.9701036296e+02 0.0000000000e+00 0.0000e+00 -1.0000e+00
       11  1    1    2    0    0 -4.5345685223e+00 -5.0313890326e+00 -4.5035318038e+02 4.5040411218e+02 0.0000000000e+00 0.0000e+00 -1.0000e+00
      -15  1    1    2    0    0 +2.5312810063e+00 +9.0352047662e+00 -6.0474893020e+00 1.1303635015e+01 1.7770000000e+00 0.0000e+00 1.0000e+00
       15  1    1    2    0    0 -6.8185400571e+00 -3.4317600269e+00 -4.0531065061e+01 4.1281889848e+01 1.7770000000e+00 0.0000e+00 -1.0000e+00
</event>
<event>
 6 1 7.08916e-05 5.00244300e+02 7.54677100e-03 9.39926300e-02
      -11 -1    0    0    0    0 +0.0000000000e+00 +0.0000000000e+00 +5.0000000000e+02 5.0000000000e+02 0.0000000000e+00 0.0000e+00 1.0000e+00
       11 -1    0    0    0    0 -0.0000000000e+00 -0.0000000000e+00 -5.0000000000e+02 5.0000000000e+02 0.0000000000e+00 0.0000e+00 -1.0000e+00
      -11  1    1    2    0    0 -3.8213201564e+01 +1.1126542698e+01 +4.0060789026e+02 4.0258009199e+02 0.0000000000e+00 0.0000e+00 1.0000e+00
       11  1    1    2    0    0 +3.8255483391e+01 -1.3788924182e+01 -4.9809856652e+02 4.9975573875e+02 0.0000000000e+00 0.0000e+00 -1.0000e+00
      -15  1    1    2    0    0 -7.5495738453e-01 +1.6899675906e+00 +2.3023186659e+01 2.3165724769e+01 1.7770000000e+00 0.0000e+00 1.0000e+00
       15  1    1    2    0    0 +7.1267555787e-01 +9.7241389336e-01 +7.4467489604e+01 7.4498444495e+01 1.7770000000e+00 0.0000e+00 1.0000e+00
</event>
<event>
 6 1 7.08916e-05 5.02250300e+02 7.54677100e-03 9.39478800e-02
      -11 -1    0    0    0    0 +0.0000000000e+00 +0.0000000000e+00 +5.0000000000e+02 5.0000000000e+02 0.0000000000e+00 0.0000e+00 -1.0000e+00
       11 -1    0    0    0    0 -0.0000000000e+00 -0.0000000000e+00 -5.0000000000e+02 5.0000000000e+02 0.0000000000e+00 0.0000e+00 -1.0000e+00
      -11  1    1    2    0    0 +7.9176103787e+00 +1.0677003032e+00 +4.9768553920e+02 4.9774966044e+02 0.0000000000e+00 0.0000e+00 -1.0000e+00
       11  1    1    2    0    0 +2.3402631177e+00 +1.0779296169e+01 -4.6763174631e+02 4.6776181997e+02 0.0000000000e+00 0.0000e+00 -1.0000e+00
      -15  1    1    2    0    0 -6.4597481961e+00 -3.4740540623e+00 -1.3910772873e+01 1.5826077508e+01 1.7770000000e+00 0.0000e+00 1.0000e+00
       15  1    1    2    0    0 -3.7981253004e+00 -8.3729424103e+00 -1.6143020014e+01 1.8662442085e+01 1.7770000000e+00 0.0000e+00 -1.0000e+00
</event>
<event>
 6 1 7.08916e-05 5.02396900e+02 7.54677100e-03 9.39446200e-02
      -11 -1    0    0    0    0 +0.0000000000e+00 +0.0000000000e+00 +5.0000000000e+02 5.0000000000e+02 0.0000000000e+00 0.0000e+00 -1.0000e+00
       11 -1    0    0    0    0 -0.0000000000e+00 -0.0000000000e+00 -5.0000000000e+02 5.0000000000e+02 0.0000000000e+00 0.0000e+00 1.0000e+00
      -11  1    1    2    0    0 -2.0529127382e+01 -4.7125195709e+00 +4.9715710398e+02 4.9760309379e+02 0.0000000000e+00 0.0000e+00 -1.0000e+00
       11  1    1    2    0    0 +1.7806499966e+01 -2.6187989878e+00 -4.2392649356e+02 4.2430838018e+02 0.0000000000e+00 0.0000e+00 1.0000e+00
      -15  1    1    2    0    0 +1.2863828945e+01 +9.7351092076e+00 -3.8408400249e+01 4.1696683143e+01 1.7770000000e+00 0.0000e+00 -1.0000e+00
       15  1    1    2    0    0 -1.0141201529e+01 -2.4037906490e+00 -3.4822210178e+01 3.6391842886e+01 1.7770000000e+00 0.0000e+00 1.0000e+00
</event>
<event>
 6 1 7.08916e-05 4.50503400e+02 7.54677100e-03 9.51792700e-02
      -11 -1    0    0    0    0 +0.0000000000e+00 +0.0000000000e+00 +5.0000000000e+02 5.0000000000e+02 0.0000000000e+00 0.0000e+00 1.0000e+00
       11 -1    0    0    0    0 -0.0000000000e+00 -0.0000000000e+00 -5.0000000000e+02 5.0000000000e+02 0.0000000000e+00 0.0000e+00 -1.0000e+00
      -11  1    1    2    0    0 +6.2171184913e-01 -4.1966681475e+01 +4.2937013916e+02 4.3141662610e+02 0.0000000000e+00 0.0000e+00 1.0000e+00
       11  1    1    2    0    0 +1.2942348849e+01 -3.5012838361e+01 -4.7253158906e+02 4.7400369819e+02 0.0000000000e+00 0.0000e+00 -1.0000e+00
      -15  1    1    2    0    0 +2.2820122171e+00 +2.4087983527e+01 +2.8493054353e+01 3.7422592181e+01 1.7770000000e+00 0.0000e+00 -1.0000e+00
       15  1    1    2    0    0 -1.5846072915e+01 +5.2891536309e+01 +1.4668395548e+01 5.7157083523e+01 1.7770000000e+00 0.0000e+00 1.0000e+00
</event>
<event>
 6 1 7.08916e-05 5.03997900e+02 7.54677100e-03 9.39090800e-02
      -11 -1    0    0    0    0 +0.0000000000e+00 +0.0000000000e+00 +5.0000000000e+02 5.0000000000e+02 0.0000000000e+00 0.0000e+00 1.0000e+00
       11 -1    0    0    0    0 -0.0000000000e+00 -0.0000000000e+00 -5.0000000000e+02 5.0000000000e+02 0.0000000000e+00 0.0000e+00 1.0000e+00
      -11  1    1    2    0    0 +2.7863897463e+01 +1.6867438660e+01 +2.1594165379e+02 2.1838430601e+02 0.0000000000e+00 0.0000e+00 1.0000e+00
       11  1    1    2    0    0 +1.1009784859e+01 -1.4815797311e+00 -4.9587768270e+02 4.9600210346e+02 0.0000000000e+00 0.0000e+00 1.0000e+00
      -15  1    1    2    0    0 -5.2819689371e+00 -5.5528517233e+00 +1.7095717851e+02 1.7113809620e+02 1.7770000000e+00 0.0000e+00 -1.0000e+00
       15  1    1    2    0    0 -3.3591713384e+01 -9.8330072051e+00 +1.0897885039e+02 1.1447549432e+02 1.7770000000e+00 0.0000e+00 1.0000e+00
</event>
<event>
 6 1 7.08916e-05 5.04768100e+02 7.54677100e-03 9.38920300e-02
      -11 -1    0    0    0    0 +0.0000000000e+00 +0.0000000000e+00 +5.0000000000e+02 5.0000000000e+02 0.0000000000e+00 0.0000e+00 -1.0000e+00
       11 -1    0    0    0    0 -0.0000000000e+00 -0.0000000000e+00 -5.0000000000e+02 5.0000000000e+02 0.0000000000e+00 0.0000e+00 -1.0000e+00
      -11  1    1    2    0    0 -2.2428441439e+01 +1.8905564303e+01 +4.5963383286e+01 5.4526030023e+01 0.0000000000e+00 0.0000e+00 -1.0000e+00
       11  1    1    2    0    0 +1.4348914235e+01 -6.0244215171e+00 -4.9498730525e+02 4.9523188241e+02 0.0000000000e+00 0.0000e+00 -1.0000e+00
      -15  1    1    2    0    0 -1.2066669153e+00 -2.0549599224e+01 +3.0898269532e+02 3.0967273985e+02 1.7770000000e+00 0.0000e+00 -1.0000e+00
       15  1    1    2    0    0 +9.2861941187e+00 +7.6684564377e+00 +1.4004122665e+02 1.4056934771e+02 1.7770000000e+00 0.0000e+00 1.0000e+00
</event>
<event>
 6 1 7.08916e-05 5.00425400e+02 7.54677100e-03 9.39885800e-02
      -11 -1    0    0    0    0 +0.0000000000e+00 +0.0000000000e+00 +5.0000000000e+02 5.0000000000e+02 0.0000000000e+00 0.0000e+00 -1.0000e+00
       11 -1    0    0    0    0 -0.0000000000e+00 -0.0000000000e+00 -5.0000000000e+02 5.0000000000e+02 0.0000000000e+00 0.0000e+00 -1.0000e+00
      -11  1    1    2    0    0 +3.2652830770e+00 -3.2973069278e+00 +2.8407746099e+02 2.8411536063e+02 0.0000000000e+00 0.0000e+00 -1.0000e+00
       11  1    1    2    0    0 -9.4068479254e+00 -2.8610228784e+00 -4.9947782056e+02 4.9957458649e+02 0.0000000000e+00 0.0000e+00 -1.0000e+00
      -15  1    1    2    0    0 -2.8295865719e-01 +1.1272582634e+01 +1.2347183723e+02 1.2399840121e+02 1.7770000000e+00 0.0000e+00 1.0000e+00
       15  1    1    2    0    0 +6.4245235056e+00 -5.1142528274e+00 +9.1928522343e+01 9.2311651666e+01 1.7770000000e+00 0.0000e+00 -1.0000e+00
</event>
<event>
 6 1 7.08916e-05 4.79795700e+02 7.54677100e-03 9.44618900e-02
      -11 -1    0    0    0    0 +0.0000000000e+00 +0.0000000000e+00 +5.0000000000e+02 5.0000000000e+02 0.0000000000e+00 0.0000e+00 1.0000e+00
       11 -1    0    0    0    0 -0.0000000000e+00 -0.0000000000e+00 -5.0000000000e+02 5.0000000000e+02 0.0000000000e+00 0.0000e+00 1.0000e+00
      -11  1    1    2    0    0 -3.1034435949e-01 -1.5509161564e+00 +4.5652951055e+01 4.5680341445e+01 0.0000000000e+00 0.0000e+00 1.0000e+00
       11  1    1    2    0    0 +2.1264154727e+01 -3.6078177117e+01 -4.9473354777e+02 4.9650285239e+02 0.0000000000e+00 0.0000e+00 1.0000e+00
      -15  1    1    2    0    0 -3.2850490116e+01 +3.4534421015e+01 +1.2965398596e+02 1.3814881375e+02 1.7770000000e+00 0.0000e+00 -1.0000e+00
       15  1    1    2    0    0 +1.1896679749e+01 +3.0946722580e+00 +3.1942661076e+02 3.1966799241e+02 1.7770000000e+00 0.0000e+00 1.0000e+00
</event>
<event>
 6 1 7.08916e-05 4.90354700e+02 7.54677100e-03 9.42165400e-02
      -11 -1    0    0    0    0 +0.0000000000e+00 +0.0000000000e+00 +5.0000000000e+02 5.0000000000e+02 0.0000000000e+00 0.0000e+00 1.0000e+00
       11 -1    0    0    0    0 -0.0000000000e+00 -0.0000000000e+00 -5.0000000000e+02 5.0000000000e+02 0.0000000000e+00 0.0000e+00 -1.0000e+00
      -11  1    1    2    0    0 -8.9816530196e+00 -3.2062262708e+00 +4.8818487165e+02 4.8827801392e+02 0.0000000000e+00 0.0000e+00 1.0000e+00
       11  1    1    2    0    0 +1.5024366403e+01 -4.4097452723e+00 -4.9223897688e+02 4.9248795701e+02 0.0000000000e+00 0.0000e+00 -1.0000e+00
      -15  1    1    2    0    0 +3.4410598439e+00 +8.3547873709e-01 +6.0912666379e+00 7.2663729483e+00 1.7770000000e+00 0.0000e+00 -1.0000e+00
       15  1    1    2    0    0 -9.4837732270e+00 +6.7804928060e+00 -2.0371614016e+00 1.1967656115e+01 1.7770000000e+00 0.0000e+00 1.0000e+00
</event>
<event>
 6 1 7.08916e-05 5.19396400e+02 7.54677100e-03 9.35742500e-02
      -11 -1    0    0    0    0 +0.0000000000e+00 +0.0000000000e+00 +5.0000000000e+02 5.0000000000e+02 0.0000000000e+00 0.0000e+00 -1.0000e+00
       11 -1    0    0    0    0 -0.0000000000e+00 -0.0000000000e+00 -5.0000000000e+02 5.0000000000e+02 0.0000000000e+00 0.0000e+00 -1.0000e+00
      -11  1    1    2    0    0 -5.4833981589e+01 +3.6752653012e+01 +6.2241245919e+01 9.0727590808e+01 0.0000000000e+00 0.0000e+00 -1.0000e+00
       11  1    1    2    0    0 +5.0019062465e+00 -8.4521378453e+00 -4.8050326701e+02 4.8060362806e+02 0.0000000000e+00 0.0000e+00 -1.0000e+00
      -15  1    1    2    0    0 -1.4671163815e+01 -4.0891287101e+00 +2.4370433118e+01 2.8793050562e+01 1.7770000000e+00 0.0000e+00 1.0000e+00
       15  1    1    2    0    0 +6.4503239157e+01 -2.4211386456e+01 +3.9389158797e+02 3.9987573057e+02 1.7770000000e+00 0.0000e+00 -1.0000e+00
</event>
<event>
 6 1 7.08916e-05 5.01461800e+02 7.54677100e-03 9.39654500e-02
      -11 -1    0    0    0    0 +0.0000000000e+00 +0.0000000000e+00 +5.0000000000e+02 5.0000000000e+02 0.0000000000e+00 0.0000e+00 -1.0000e+00
       11 -1    0    0    0    0 -0.0000000000e+00 -0.0000000000e+00 -5.0000000000e+02 5.0000000000e+02 0.0000000000e+00 0.0000e+00 -1.0000e+00
      -11  1    1    2    0    0 +1.1224008013e+01 +3.7095430094e+00 +4.9839804656e+02 4.9853821506e+02 0.0000000000e+00 0.0000e+00 -1.0000e+00
       11  1    1    2    0    0 +7.9710540321e+00 -8.8591367124e+00 -4.0817498761e+02 4.0834892251e+02 0.0000000000e+00 0.0000e+00 -1.0000e+00
      -15  1    1    2    0    0 -1.5837465125e+01 -7.4108137214e-01 -5.9662734395e+01 6.1759000216e+01 1.7770000000e+00 0.0000e+00 1.0000e+00
       15  1    1    2    0    0 -3.3575969203e+00 +5.8906750751e+00 -3.0560324553e+01 3.1353862214e+01 1.7770000000e+00 0.0000e+00 -1.0000e+00
</event>
<event>
 6 1 7.08916e-05 5.12776000e+02 7.54677100e-03 9.37166800e-02
      -11 -1    0    0    0    0 +0.0000000000e+00 +0.0000000000e+00 +5.0000000000e+02 5.0000000000e+02 0.0000000000e+00 0.0000e+00 -1.0000e+00
       11 -1    0    0    0    0 -0.0000000000e+00 -0.0000000000e+00 -5.0000000000e+02 5.0000000000e+02 0.0000000000e+00 0.0000e+00 -1.0000e+00
      -11  1    1    2    0    0 -1.2510623165e+00 +8.4419048738e+00 +4.7457143668e+02 4.7464816383e+02 0.0000000000e+00 0.0000e+00 -1.0000e+00
       11  1    1    2    0    0 -5.3453622522e+00 +4.1160686812e+00 -4.8717726482e+02 4.8722397547e+02 0.0000000000e+00 0.0000e+00 -1.0000e+00
      -15  1    1    2    0    0 -4.7215386396e+00 -1.8520871436e+01 -1.1866326726e+00 1.9232301786e+01 1.7770000000e+00 0.0000e+00 -1.0000e+00
       15  1    1    2    0    0 +1.1317963208e+01 +5.9628978815e+00 +1.3792460808e+01 1.8895558908e+01 1.7770000000e+00 0.0000e+00 1.0000e+00
</event>
<event>
 6 1 7.08916e-05 5.00821300e+02 7.54677100e-03 9.39797400e-02
      -11 -1    0    0    0    0 +0.0000000000e+00 +0.0000000000e+00 +5.0000000000e+02 5.0000000000e+02 0.0000000000e+00 0.0000e+00 -1.0000e+00
       11 -1    0    0    0    0 -0.0000000000e+00 -0.0000000000e+00 -5.0000000000e+02 5.0000000000e+02 0.0000000000e+00 0.0000e+00 1.0000e+00
      -11  1    1    2    0    0 -8.6745972699e-01 +1.4291149937e+01 +4.9897330730e+02 4.9917867628e+02 0.0000000000e+00 0.0000e+00 -1.0000e+00
       11  1    1    2    0    0 +5.7780430440e+00 -3.0317450650e+00 -4.4688628891e+02 4.4693392406e+02 0.0000000000e+00 0.0000e+00 1.0000e+00
      -15  1    1    2    0    0 -4.1510733384e+00 -1.0631969404e+01 -4.7240346269e+01 4.8632069952e+01 1.7770000000e+00 0.0000e+00 -1.0000e+00
       15  1    1    2    0    0 -7.5950997866e-01 -6.2743546777e-01 -4.8466721257e+00 5.2553297107e+00 1.7770000000e+00 0.0000e+00 -1.0000e+00
</event>
<event>
 6 1 7.08916e-05 4.88530100e+02 7.54677100e-03 9.42584700e-02
      -11 -1    0    0    0    0 +0.0000000000e+00 +0.0000000000e+00 +5.0000000000e+02 5.0000000000e+02 0.0000000000e+00 0.0000e+00 -1.0000e+00
       11 -1    0    0    0    0 -0.0000000000e+00 -0.0000000000e+00 -5.0000000000e+02 5.0000000000e+02 0.0000000000e+00 0.0000e+00 -1.0000e+00
      -11  1    1    2    0    0 -1.1488919008e+01 +4.4049998385e+00 +4.8301861808e+02 4.8317531466e+02 0.0000000000e+00 0.0000e+00 -1.0000e+00
       11  1    1    2    0    0 -7.0581909673e+00 -6.2662764097e+00 -4.9403458350e+02 4.9412473523e+02 0.0000000000e+00 0.0000e+00 -1.0000e+00
      -15  1    1    2    0    0 +1.4594695460e+01 -8.0352766355e-01 +8.7758629356e+00 1.7141303671e+01 1.7770000000e+00 0.0000e+00 -1.0000e+00
       15  1    1    2    0    0 +3.9524145153e+00 +2.6648042347e+00 +2.2401024835e+00 5.5586464402e+00 1.7770000000e+00 0.0000e+00 1.0000e+00
</event>
<event>
 6 1 7.08916e-05 5.13795100e+02 7.54677100e-03 9.36946000e-02
      -11 -1    0    0    0    0 +0.0000000000e+00 +0.0000000000e+00 +5.0000000000e+02 5.0000000000e+02 0.0000000000e+00 0.0000e+00 -1.0000e+00
       11 -1    0    0    0    0 -0.0000000000e+00 -0.0000000000e+00 -5.0000000000e+02 5.0000000000e+02 0.0000000000e+00 0.0000e+00 -1.0000e+00
      -11  1    1    2    0    0 -2.0923471169e+01 +1.8939725393e+01 +4.4239603523e+02 4.4329533816e+02 0.0000000000e+00 0.0000e+00 -1.0000e+00
       11  1    1    2    0    0 -5.6763452906e+00 +1.7301041826e+01 -4.8586386010e+02 4.8620493364e+02 0.0000000000e+00 0.0000e+00 -1.0000e+00
      -15  1    1    2    0    0 +1.0168648952e+01 -4.4118388980e+00 -3.1717252956e+00 1.1665475315e+01 1.7770000000e+00 0.0000e+00 -1.0000e+00
       15  1    1    2    0    0 +1.6431167508e+01 -3.1828928321e+01 +4.6639550168e+01 5.8834252886e+01 1.7770000000e+00 0.0000e+00 1.0000e+00
</event>
<event>
 6 1 7.08916e-05 5.01682700e+02 7.54677100e-03 9.39605200e-02
      -11 -1    0    0    0    0 +0.0000000000e+00 +0.0000000000e+00 +5.0000000000e+02 5.0000000000e+02 0.0000000000e+00 0.0000e+00 1.0000e+00
       11 -1    0    0    0    0 -0.0000000000e+00 -0.0000000000e+00 -5.0000000000e+02 5.0000000000e+02 0.0000000000e+00 0.0000e+00 -1.0000e+00
      -11  1    1    2    0    0 -1.0719840504e+01 -5.0321567785e+00 +4.9817653954e+02 4.9831727055e+02 0.0000000000e+00 0.0000e+00 1.0000e+00
       11  1    1    2    0    0 +8.8376249843e+00 -6.2796552003e-01 -4.4718890700e+02 4.4727666662e+02 0.0000000000e+00 0.0000e+00 -1.0000e+00
      -15  1    1    2    0    0 -3.3739452287e-01 -4.9942043727e-01 -4.5869460166e+01 4.5907824613e+01 1.7770000000e+00 0.0000e+00 1.0000e+00
       15  1    1    2    0    0 +2.2196100424e+00 +6.1595427359e+00 -5.1181723674e+00 8.4982382197e+00 1.7770000000e+00 0.0000e+00 -1.0000e+00
</event>
<event>
 6 1 7.08916e-05 5.00233000e+02 7.54677100e-03 9.39928900e-02
      -11 -1    0    0    0    0 +0.0000000000e+00 +0.0000000000e+00 +5.0000000000e+02 5.0000000000e+02 0.0000000000e+00 0.0000e+00 1.0000e+00
       11 -1    0    0    0    0 -0.0000000000e+00 -0.0000000000e+00 -5.0000000000e+02 5.0000000000e+02 0.0000000000e+00 0.0000e+00 -1.0000e+00
      -11  1    1    2    0    0 +1.9041179508e+01 -1.2799110548e+01 +4.9924011638e+02 4.9976702327e+02 0.0000000000e+00 0.0000e+00 1.0000e+00
       11  1    1    2    0    0 -9.6627419565e+00 -1.7127982136e-01 -2.4512068153e+02 2.4531112171e+02 0.0000000000e+00 0.0000e+00 -1.0000e+00
      -15  1    1    2    0    0 -6.7582638648e+00 +3.5577396974e+00 -5.5143086088e+01 5.5697839406e+01 1.7770000000e+00 0.0000e+00 1.0000e+00
       15  1    1    2    0    0 -2.6201736863e+00 +9.4126506717e+00 -1.9897634876e+02 1.9922401562e+02 1.7770000000e+00 0.0000e+00 -1.0000e+00
</event>
<event>
 6 1 7.08916e-05 5.03007500e+02 7.54677100e-03 9.39310500e-02
      -11 -1    0    0    0    0 +0.0000000000e+00 +0.0000000000e+00 +5.0000000000e+02 5.0000000000e+02 0.0000000000e+00 0.0000e+00 -1.0000e+00
       11 -1    0    0    0    0 -0.0000000000e+00 -0.0000000000e+00 -5.0000000000e+02 5.0000000000e+02 0.0000000000e+00 0.0000e+00 1.0000e+00
      -11  1    1    2    0    0 +6.4877657413e+00 -3.8652615744e+00 +4.7123722923e+02 4.7129773770e+02 0.0000000000e+00 0.0000e+00 -1.0000e+00
       11  1    1    2    0    0 +3.7834211118e-01 +1.2165923955e+01 -4.9684338636e+02 4.9699245811e+02 0.0000000000e+00 0.0000e+00 1.0000e+00
      -15  1    1    2    0    0 -2.9419325210e+00 -8.1426072437e+00 +4.0413830300e+00 9.7184116747e+00 1.7770000000e+00 0.0000e+00 -1.0000e+00
       15  1    1    2    0    0 -3.9241753315e+00 -1.5805513744e-01 +2.1564774104e+01 2.1991392512e+01 1.7770000000e+00 0.0000e+00 1.0000e+00
</event>
<event>
 6 1 7.08916e-05 5.64670200e+02 7.54677100e-03 9.26570400e-02
      -11 -1    0    0    0    0 +0.0000000000e+00 +0.0000000000e+00 +5.0000000000e+02 5.0000000000e+02 0.0000000000e+00 0.0000e+00 -1.0000e+00
       11 -1    0    0    0    0 -0.0000000000e+00 -0.0000000000e+00 -5.0000000000e+02 5.0000000000e+02 0.0000000000e+00 0.0000e+00 1.0000e+00
      -11  1    1    2    0    0 -3.8657912553e+00 +8.1005644222e+00 +3.1083622957e+02 3.1096579410e+02 0.0000000000e+00 0.0000e+00 -1.0000e+00
       11  1    1    2    0    0 -2.6170003581e+00 -9.5416785927e+00 -4.3521738505e+02 4.3532983423e+02 0.0000000000e+00 0.0000e+00 1.0000e+00
      -15  1    1    2    0    0 +1.5277772446e+01 +3.4188226027e+01 -5.7521720708e+01 6.8659676754e+01 1.7770000000e+00 0.0000e+00 1.0000e+00
       15  1    1    2    0    0 -8.7949808323e+00 -3.2747111857e+01 +1.8190287618e+02 1.8504469491e+02 1.7770000000e+00 0.0000e+00 -1.0000e+00
</event>
<event>
 6 1 7.08916e-05 5.01066200e+02 7.54677100e-03 9.39742700e-02
      -11 -1    0    0    0    0 +0.0000000000e+00 +0.0000000000e+00 +5.0000000000e+02 5.0000000000e+02 0.0000000000e+00 0.0000e+00 1.0000e+00
       11 -1    0    0    0    0 -0.0000000000e+00 -0.0000000000e+00 -5.0000000000e+02 5.0000000000e+02 0.0000000000e+00 0.0000e+00 1.0000e+00
      -11  1    1    2    0    0 +5.0577512092e+00 -4.4464495068e+00 +3.2321146110e+02 3.2328161152e+02 0.0000000000e+00 0.0000e+00 1.0000e+00
       11  1    1    2    0    0 -1.8658763712e+01 +6.2518606010e+00 -4.9854553806e+02 4.9893375186e+02 0.0000000000e+00 0.0000e+00 1.0000e+00
      -15  1    1    2    0    0 -1.4929855388e+00 +2.2903693994e+00 +1.2509399729e+02 1.2513648823e+02 1.7770000000e+00 0.0000e+00 -1.0000e+00
       15  1    1    2    0    0 +1.5093998042e+01 -4.0957804936e+00 +5.0240079674e+01 5.2648148395e+01 1.7770000000e+00 0.0000e+00 1.0000e+00
</event>
<event>
 6 1 7.08916e-05 5.00305600e+02 7.54677100e-03 9.39912600e-02
      -11 -1    0    0    0    0 +0.0000000000e+00 +0.0000000000e+00 +5.0000000000e+02 5.0000000000e+02 0.0000000000e+00 0.0000e+00 1.0000e+00
       11 -1    0    0    0    0 -0.0000000000e+00 -0.0000000000e+00 -5.0000000000e+02 5.0000000000e+02 0.0000000000e+00 0.0000e+00 -1.0000e+00
      -11  1    1    2    0    0 +1.1293026161e+01 -7.9044014570e-01 +4.9956619093e+02 4.9969444299e+02 0.0000000000e+00 0.0000e+00 1.0000e+00
       11  1    1    2    0    0 -1.5074728558e+00 -9.1022742806e-01 -2.2072052988e+00 2.8236047196e+00 0.0000000000e+00 0.0000e+00 -1.0000e+00
      -15  1    1    2    0    0 -4.9485776531e+00 +1.9105109422e+00 -3.1654673065e+02 3.1659616057e+02 1.7770000000e+00 0.0000e+00 -1.0000e+00
       15  1    1    2    0    0 -4.8369756523e+00 -2.0984336849e-01 -1.8081225498e+02 1.8088579173e+02 1.7770000000e+00 0.0000e+00 -1.0000e+00
</event>
<event>
 6 1 7.08916e-05 5.03115300e+02 7.54677100e-03 9.39286600e-02
      -11 -1    0    0    0    0 +0.0000000000e+00 +0.0000000000e+00 +5.0000000000e+02 5.0000000000e+02 0.0000000000e+00 0.0000e+00 1.0000e+00
       11 -1    0    0    0    0 -0.0000000000e+00 -0.0000000000e+00 -5.0000000000e+02 5.0000000000e+02 0.0000000000e+00 0.0000e+00 -1.0000e+00
      -11  1    1    2    0    0 +4.8789561677e-01 +8.5534831424e+00 +4.9681087445e+02 4.9688474025e+02 0.0000000000e+00 0.0000e+00 1.0000e+00
       11  1    1    2    0    0 +7.5186000998e-01 -1.9970227336e+01 -4.2588910418e+02 4.2635771874e+02 0.0000000000e+00 0.0000e+00 -1.0000e+00
      -15  1    1    2    0    0 -7.9301932211e+00 +1.7757964907e+01 -4.1316762727e+01 4.5699736251e+01 1.7770000000e+00 0.0000e+00 -1.0000e+00
       15  1    1    2    0    0 +6.6904375943e+00 -6.3412207138e+00 -2.9605007549e+01 3.1057804757e+01 1.7770000000e+00 0.0000e+00 1.0000e+00
</event>
<event>
 6 1 7.08916e-05 5.12195300e+02 7.54677100e-03 9.37292800e-02
      -11 -1    0    0    0    0 +0.0000000000e+00 +0.0000000000e+00 +5.0000000000e+02 5.0000000000e+02 0.0000000000e+00 0.0000e+00 -1.0000e+00
       11 -1    0    0    0    0 -0.0000000000e+00 -0.0000000000e+00 -5.0000000000e+02 5.0000000000e+02 0.0000000000e+00 0.0000e+00 -1.0000e+00
      -11  1    1    2    0    0 +9.0316998989e+00 -3.4155213171e-01 +3.5958026845e+02 3.5969383887e+02 0.0000000000e+00 0.0000e+00 -1.0000e+00
       11  1    1    2    0    0 +1.4963158862e+01 -1.9510534015e+00 -4.8757126980e+02 4.8780472104e+02 0.0000000000e+00 0.0000e+00 -1.0000e+00
      -15  1    1    2    0    0 -1.0051659770e+01 +7.5716639442e+00 +1.3523485227e+02 1.3583073642e+02 1.7770000000e+00 0.0000e+00 -1.0000e+00
       15  1    1    2    0    0 -1.3943198991e+01 -5.2790584111e+00 -7.2438509245e+00 1.6670703675e+01 1.7770000000e+00 0.0000e+00 1.0000e+00
</event>
<event>
 6 1 7.08916e-05 5.11042200e+02 7.54677100e-03 9.37543500e-02
      -11 -1    0    0    0    0 +0.0000000000e+00 +0.0000000000e+00 +5.0000000000e+02 5.0000000000e+02 0.0000000000e+00 0.0000e+00 -1.0000e+00
       11 -1    0    0    0    0 -0.0000000000e+00 -0.0000000000e+00 -5.0000000000e+02 5.0000000000e+02 0.0000000000e+00 0.0000e+00 -1.0000e+00
      -11  1    1    2    0    0 -9.9743450394e+00 +1.0969485471e+01 +4.8873297577e+02 4.8895780879e+02 0.0000000000e+00 0.0000e+00 -1.0000e+00
       11  1    1    2    0    0 -5.0466279464e+00 +4.5163765967e+00 -3.9284253516e+02 3.9290090805e+02 0.0000000000e+00 0.0000e+00 -1.0000e+00
      -15  1    1    2    0    0 +2.4606329920e+01 -3.1081624716e+01 -3.0039491574e+01 4.9770148182e+01 1.7770000000e+00 0.0000e+00 1.0000e+00
       15  1    1    2    0    0 -9.5853569340e+00 +1.5595762648e+01 -6.5850949036e+01 6.8371134977e+01 1.7770000000e+00 0.0000e+00 -1.0000e+00
</event>
<event>
 6 1 7.08916e-05 5.01489000e+02 7.54677100e-03 9.39648400e-02
      -11 -1    0    0    0    0 +0.0000000000e+00 +0.0000000000e+00 +5.0000000000e+02 5.0000000000e+02 0.0000000000e+00 0.0000e+00 -1.0000e+00
       11 -1    0    0    0    0 -0.0000000000e+00 -0.0000000000e+00 -5.0000000000e+02 5.0000000000e+02 0.0000000000e+00 0.0000e+00 1.0000e+00
      -11  1    1    2    0    0 +1.8108473495e-01 -8.8444032203e+00 +3.5053140857e+02 3.5064301598e+02 0.0000000000e+00 0.0000e+00 -1.0000e+00
       11  1    1    2    0    0 -1.1778441657e+01 +1.9792352064e+01 -4.9797865197e+02 4.9851098955e+02 0.0000000000e+00 0.0000e+00 1.0000e+00
      -15  1    1    2    0    0 +1.6554462319e+00 -1.2064102661e+01 +2.3905081423e+01 2.6886682988e+01 1.7770000000e+00 0.0000e+00 -1.0000e+00
       15  1    1    2    0    0 +9.9419106899e+00 +1.1161538179e+00 +1.2354216198e+02 1.2395931148e+02 1.7770000000e+00 0.0000e+00 1.0000e+00
</event>
<event>
 6 1 7.08916e-05 5.17094700e+02 7.54677100e-03 9.36235100e-02
      -11 -1    0    0    0    0 +0.0000000000e+00 +0.0000000000e+00 +5.0000000000e+02 5.0000000000e+02 0.0000000000e+00 0.0000e+00 -1.0000e+00
       11 -1    0    0    0    0 -0.0000000000e+00 -0.0000000000e+00 -5.0000000000e+02 5.0000000000e+02 0.0000000000e+00 0.0000e+00 1.0000e+00
      -11  1    1    2    0    0 -1.1183464006e+01 +1.9993628723e+01 +4.8236160170e+02 4.8290530112e+02 0.0000000000e+00 0.0000e+00 -1.0000e+00
       11  1    1    2    0    0 -2.1774953746e+01 +1.1993505034e+01 -4.3065772315e+02 4.3137462522e+02 0.0000000000e+00 0.0000e+00 1.0000e+00
      -15  1    1    2    0    0 +4.0818423022e+01 -3.1681732866e+01 -2.4249390406e+01 5.7105748568e+01 1.7770000000e+00 0.0000e+00 -1.0000e+00
       15  1    1    2    0    0 -7.8600052696e+00 -3.0540089032e-01 -2.7454488139e+01 2.8614325093e+01 1.7770000000e+00 0.0000e+00 1.0000e+00
</event>
<event>
 7 1 7.08916e-05 5.20576100e+02 7.54677100e-03 9.35491100e-02
      -11 -1    0    0    0    0 +0.0000000000e+00 +0.0000000000e+00 +5.0000000000e+02 5.0000000000e+02 0.0000000000e+00 0.0000e+00 -1.0000e+00
       11 -1    0    0    0    0 -0.0000000000e+00 -0.0000000000e+00 -5.0000000000e+02 5.0000000000e+02 0.0000000000e+00 0.0000e+00 -1.0000e+00
       23  2    1    2    0    0 +5.0117691766e+01 +5.3333170753e+00 +9.8965712692e+01 1.4320210190e+02 9.0401340701e+01 0.0000e+00 0.0000e+00
      -11  1    1    2    0    0 +3.3148423962e+00 +9.5940979886e+00 +3.7723743313e+02 3.7737397346e+02 0.0000000000e+00 0.0000e+00 -1.0000e+00
       11  1    1    2    0    0 -5.3432534162e+01 -1.4927415064e+01 -4.7620314582e+02 4.7942392464e+02 0.0000000000e+00 0.0000e+00 -1.0000e+00
      -15  1    3    3    0    0 +1.6590427373e+01 +9.7504493727e+00 -1.4903224648e+01 2.4404454046e+01 1.7770000000e+00 0.0000e+00 1.0000e+00
       15  1    3    3    0    0 +3.3527264393e+01 -4.4171322973e+00 +1.1386893734e+02 1.1879764785e+02 1.7770000000e+00 0.0000e+00 -1.0000e+00
</event>
<event>
 6 1 7.08916e-05 5.03801600e+02 7.54677100e-03 9.39134300e-02
      -11 -1    0    0    0    0 +0.0000000000e+00 +0.0000000000e+00 +5.0000000000e+02 5.0000000000e+02 0.0000000000e+00 0.0000e+00 1.0000e+00
       11 -1    0    0    0    0 -0.0000000000e+00 -0.0000000000e+00 -5.0000000000e+02 5.0000000000e+02 0.0000000000e+00 0.0000e+00 1.0000e+00
      -11  1    1    2    0    0 -4.8965525317e+00 -7.5576337919e+00 +4.1254615540e+02 4.1264442852e+02 0.0000000000e+00 0.0000e+00 1.0000e+00
       11  1    1    2    0    0 +8.4478201853e-01 -1.6466639541e+01 -4.9592433668e+02 4.9619835912e+02 0.0000000000e+00 0.0000e+00 1.0000e+00
      -15  1    1    2    0    0 -1.9846296353e-01 +1.2370106026e+01 +8.2154130079e+00 1.4956926507e+01 1.7770000000e+00 0.0000e+00 1.0000e+00
       15  1    1    2    0    0 +4.2502334767e+00 +1.1654167307e+01 +7.5162768281e+01 7.6200285858e+01 1.7770000000e+00 0.0000e+00 1.0000e+00
</event>
<event>
 7 1 7.08916e-05 5.00903600e+02 7.54677100e-03 9.39779000e-02
      -11 -1    0    0    0    0 +0.0000000000e+00 +0.0000000000e+00 +5.0000000000e+02 5.0000000000e+02 0.0000000000e+00 0.0000e+00 1.0000e+00
       11 -1    0    0    0    0 -0.0000000000e+00 -0.0000000000e+00 -5.0000000000e+02 5.0000000000e+02 0.0000000000e+00 0.0000e+00 -1.0000e+00
       23  2    1    2    0    0 +4.7793675019e+00 -3.8084902977e+01 -4.8871187219e+02 4.9909644040e+02 9.3726520336e+01 0.0000e+00 0.0000e+00
      -11  1    1    2    0    0 +5.7344302431e+00 +1.0004891864e+01 +4.5741972056e+02 4.5756505800e+02 0.0000000000e+00 0.0000e+00 1.0000e+00
       11  1    1    2    0    0 -1.0513797745e+01 +2.8080011114e+01 +3.1292151631e+01 4.3338501599e+01 0.0000000000e+00 0.0000e+00 -1.0000e+00
      -15  1    3    3    0    0 +1.5466870194e+01 +2.8983339008e+01 -1.3829776306e+02 1.4215726155e+02 1.7770000000e+00 0.0000e+00 1.0000e+00
       15  1    3    3    0    0 -1.0687502692e+01 -6.7068241985e+01 -3.5041410912e+02 3.5693917885e+02 1.7770000000e+00 0.0000e+00 -1.0000e+00
</event>
<event>
 6 1 7.08916e-05 5.52218700e+02 7.54677100e-03 9.28999600e-02
      -11 -1    0    0    0    0 +0.0000000000e+00 +0.0000000000e+00 +5.0000000000e+02 5.0000000000e+02 0.0000000000e+00 0.0000e+00 1.0000e+00
       11 -1    0    0    0    0 -0.0000000000e+00 -0.0000000000e+00 -5.0000000000e+02 5.0000000000e+02 0.0000000000e+00 0.0000e+00 1.0000e+00
      -11  1    1    2    0    0 -7.3996577338e+00 +6.3595339499e+00 +2.6856020714e+02 2.6873738754e+02 0.0000000000e+00 0.0000e+00 1.0000e+00
       11  1    1    2    0    0 +1.1022102085e+01 +2.4258991033e+00 -4.4763909805e+02 4.4778134599e+02 0.0000000000e+00 0.0000e+00 1.0000e+00
      -15  1    1    2    0    0 -1.2978307149e+01 +6.4144745528e+00 -5.0826162003e+01 5.2877579495e+01 1.7770000000e+00 0.0000e+00 -1.0000e+00
       15  1    1    2    0    0 +9.3558627976e+00 -1.5199907606e+01 +2.2990505291e+02 2.3060368697e+02 1.7770000000e+00 0.0000e+00 1.0000e+00
</event>
<event>
 6 1 7.08916e-05 5.07175000e+02 7.54677100e-03 9.38389700e-02
      -11 -1    0    0    0    0 +0.0000000000e+00 +0.0000000000e+00 +5.0000000000e+02 5.0000000000e+02 0.0000000000e+00 0.0000e+00 -1.0000e+00
       11 -1    0    0    0    0 -0.0000000000e+00 -0.0000000000e+00 -5.0000000000e+02 5.0000000000e+02 0.0000000000e+00 0.0000e+00 -1.0000e+00
      -11  1    1    2    0    0 +8.6824019792e+00 -1.8819776055e+01 +4.2395597760e+02 4.2446229399e+02 0.0000000000e+00 0.0000e+00 -1.0000e+00
       11  1    1    2    0    0 +1.6706227009e+01 -1.5997807196e+01 -4.9228186720e+02 4.9282498377e+02 0.0000000000e+00 0.0000e+00 -1.0000e+00
      -15  1    1    2    0    0 -5.9065940123e+00 +5.3863458566e+00 +3.5533303418e+00 8.9266152617e+00 1.7770000000e+00 0.0000e+00 1.0000e+00
       15  1    1    2    0    0 -1.9482034976e+01 +2.9431237395e+01 +6.4772559257e+01 7.3786106979e+01 1.7770000000e+00 0.0000e+00 -1.0000e+00
</event>
<event>
 6 1 7.08916e-05 5.03690500e+02 7.54677100e-03 9.39159000e-02
      -11 -1    0    0    0    0 +0.0000000000e+00 +0.0000000000e+00 +5.0000000000e+02 5.0000000000e+02 0.0000000000e+00 0.0000e+00 -1.0000e+00
       11 -1    0    0    0    0 -0.0000000000e+00 -0.0000000000e+00 -5.0000000000e+02 5.0000000000e+02 0.0000000000e+00 0.0000e+00 1.0000e+00
      -11  1    1    2    0    0 -5.2444284791e+00 -4.4866594206e+00 +4.9626148425e+02 4.9630947492e+02 0.0000000000e+00 0.0000e+00 -1.0000e+00
       11  1    1    2    0    0 +5.6439753310e+00 -5.1167591249e+00 -3.0783800262e+02 3.0793225154e+02 0.0000000000e+00 0.0000e+00 1.0000e+00
      -15  1    1    2    0    0 -6.9575381256e+00 +1.6286520306e+00 -1.8438213109e+02 1.8452909754e+02 1.7770000000e+00 0.0000e+00 1.0000e+00
       15  1    1    2    0    0 +6.5579912737e+00 +7.9747665149e+00 -4.0413505360e+00 1.1229176001e+01 1.7770000000e+00 0.0000e+00 -1.0000e+00
</event>
<event>
 6 1 7.08916e-05 5.06572700e+02 7.54677100e-03 9.38522200e-02
      -11 -1    0    0    0    0 +0.0000000000e+00 +0.0000000000e+00 +5.0000000000e+02 5.0000000000e+02 0.0000000000e+00 0.0000e+00 1.0000e+00
       11 -1    0    0    0    0 -0.0000000000e+00 -0.0000000000e+00 -5.0000000000e+02 5.0000000000e+02 0.0000000000e+00 0.0000e+00 -1.0000e+00
      -11  1    1    2    0    0 +2.6556425434e+01 -2.1131261261e+01 +4.9225882647e+02 4.9342732613e+02 0.0000000000e+00 0.0000e+00 1.0000e+00
       11  1    1    2    0    0 -1.3651937409e+01 +4.8651512484e-01 -4.6177818381e+02 4.6198019777e+02 0.0000000000e+00 0.0000e+00 -1.0000e+00
      -15  1    1    2    0    0 -3.7722418904e+00 +1.9320189089e+01 -2.8976435336e+01 3.5075504972e+01 1.7770000000e+00 0.0000e+00 -1.0000e+00
       15  1    1    2    0    0 -9.1322461345e+00 +1.3245570471e+00 -1.5042073267e+00 9.5169711313e+00 1.7770000000e+00 0.0000e+00 1.0000e+00
</event>
<event>
 6 1 7.08916e-05 5.13128600e+02 7.54677100e-03 9.37090300e-02
      -11 -1    0    0    0    0 +0.0000000000e+00 +0.0000000000e+00 +5.0000000000e+02 5.0000000000e+02 0.0000000000e+00 0.0000e+00 -1.0000e+00
       11 -1    0    0    0    0 -0.0000000000e+00 -0.0000000000e+00 -5.0000000000e+02 5.0000000000e+02 0.0000000000e+00 0.0000e+00 -1.0000e+00
      -11  1    1    2    0    0 +1.2387595020e+01 +4.0511169416e+01 +2.9505008510e+01 5.1625118741e+01 0.0000000000e+00 0.0000e+00 -1.0000e+00
       11  1    1    2    0    0 -2.0334820124e+00 -7.0511043511e+00 -4.8681604801e+02 4.8687135644e+02 0.0000000000e+00 0.0000e+00 -1.0000e+00
      -15  1    1    2    0    0 +8.3222474526e+00 +1.0777032146e+01 +8.4464118027e+01 8.5573063447e+01 1.7770000000e+00 0.0000e+00 1.0000e+00
       15  1    1    2    0    0 -1.8676360461e+01 -4.4237097212e+01 +3.7284692147e+02 3.7593046137e+02 1.7770000000e+00 0.0000e+00 -1.0000e+00
</event>
<event>
 6 1 7.08916e-05 5.03841100e+02 7.54677100e-03 9.39125600e-02
      -11 -1    0    0    0    0 +0.0000000000e+00 +0.0000000000e+00 +5.0000000000e+02 5.0000000000e+02 0.0000000000e+00 0.0000e+00 -1.0000e+00
       11 -1    0    0    0    0 -0.0000000000e+00 -0.0000000000e+00 -5.0000000000e+02 5.0000000000e+02 0.0000000000e+00 0.0000e+00 1.0000e+00
      -11  1    1    2    0    0 +3.8419676155e+00 -3.8714178993e+00 +2.3538981604e+02 2.3545299762e+02 0.0000000000e+00 0.0000e+00 -1.0000e+00
       11  1    1    2    0    0 +1.1829842530e+01 +6.9056109480e+00 -4.9596974539e+02 4.9615886668e+02 0.0000000000e+00 0.0000e+00 1.0000e+00
      -15  1    1    2    0    0 -5.6816308610e+00 -9.9444246059e+00 +2.5436354877e+02 2.5462746352e+02 1.7770000000e+00 0.0000e+00 -1.0000e+00
       15  1    1    2    0    0 -9.9901792845e+00 +6.9102315572e+00 +6.2163805798e+00 1.3760672179e+01 1.7770000000e+00 0.0000e+00 1.0000e+00
</event>
<event>
 6 1 7.08916e-05 5.00400000e+02 7.54677100e-03 9.39891500e-02
      -11 -1    0    0    0    0 +0.0000000000e+00 +0.0000000000e+00 +5.0000000000e+02 5.0000000000e+02 0.0000000000e+00 0.0000e+00 1.0000e+00
       11 -1    0    0    0    0 -0.0000000000e+00 -0.0000000000e+00 -5.0000000000e+02 5.0000000000e+02 0.0000000000e+00 0.0000e+00 -1.0000e+00
      -11  1    1    2    0    0 -7.1776693486e+00 -9.6084245819e+00 +4.9945599688e+02 4.9959997356e+02 0.0000000000e+00 0.0000e+00 1.0000e+00
       11  1    1    2    0    0 +8.9372908492e-01 +9.4141200793e+00 -4.6502390703e+02 4.6512004743e+02 0.0000000000e+00 0.0000e+00 -1.0000e+00
      -15  1    1    2    0    0 +5.0344598790e+00 -5.7486802581e-01 -2.5042924423e+01 2.5612146575e+01 1.7770000000e+00 0.0000e+00 1.0000e+00
       15  1    1    2    0    0 +1.2494803847e+00 +7.6917252837e-01 -9.3891654291e+00 9.6678324389e+00 1.7770000000e+00 0.0000e+00 -1.0000e+00
</event>
<event>
 6 1 7.08916e-05 5.04545400e+02 7.54677100e-03 9.38969600e-02
      -11 -1    0    0    0    0 +0.0000000000e+00 +0.0000000000e+00 +5.0000000000e+02 5.0000000000e+02 0.0000000000e+00 0.0000e+00 1.0000e+00
       11 -1    0    0    0    0 -0.0000000000e+00 -0.0000000000e+00 -5.0000000000e+02 5.0000000000e+02 0.0000000000e+00 0.0000e+00 1.0000e+00
      -11  1    1    2    0    0 +5.1096094496e+00 -4.5607531973e+00 +4.8213233792e+02 4.8218098246e+02 0.0000000000e+00 0.0000e+00 1.0000e+00
       11  1    1    2    0    0 +6.6920455894e+00 -4.4816256772e+00 -4.9538913091e+02 4.9545459880e+02 0.0000000000e+00 0.0000e+00 1.0000e+00
      -15  1    1    2    0    0 -8.2670908513e+00 +6.9553160774e+00 +3.2781257660e+00 1.1429131656e+01 1.7770000000e+00 0.0000e+00 -1.0000e+00
       15  1    1    2    0    0 -3.5345641877e+00 +2.0870627971e+00 +9.9786672270e+00 1.0935287090e+01 1.7770000000e+00 0.0000e+00 1.0000e+00
</event>
<event>
 6 1 7.08916e-05 4.71544300e+02 7.54677100e-03 9.46583400e-02
      -11 -1    0    0    0    0 +0.0000000000e+00 +0.0000000000e+00 +5.0000000000e+02 5.0000000000e+02 0.0000000000e+00 0.0000e+00 1.0000e+00
       11 -1    0    0    0    0 -0.0000000000e+00 -0.0000000000e+00 -5.0000000000e+02 5.0000000000e+02 0.0000000000e+00 0.0000e+00 -1.0000e+00
      -11  1    1    2    0    0 +2.9259385523e+00 -3.1590221654e+00 +9.2504730254e+00 1.0203518445e+01 0.0000000000e+00 0.0000e+00 1.0000e+00
       11  1    1    2    0    0 +1.8149213162e+01 -5.9347849350e+00 -4.5353433715e+02 4.5393613051e+02 0.0000000000e+00 0.0000e+00 -1.0000e+00
      -15  1    1    2    0    0 -1.8929857820e+01 +1.8448863748e+01 +4.8918937686e+02 4.8990621985e+02 1.7770000000e+00 0.0000e+00 1.0000e+00
       15  1    1    2    0    0 -2.1452938941e+00 -9.3550566476e+00 -4.4905512730e+01 4.5954131189e+01 1.7770000000e+00 0.0000e+00 -1.0000e+00
</event>
<event>
 6 1 7.08916e-05 5.00089600e+02 7.54677100e-03 9.39960900e-02
      -11 -1    0    0    0    0 +0.0000000000e+00 +0.0000000000e+00 +5.0000000000e+02 5.0000000000e+02 0.0000000000e+00 0.0000e+00 -1.0000e+00
       11 -1    0    0    0    0 -0.0000000000e+00 -0.0000000000e+00 -5.0000000000e+02 5.0000000000e+02 0.0000000000e+00 0.0000e+00 1.0000e+00
      -11  1    1    2    0    0 +3.2773077351e-01 -6.1107080613e+00 +2.7036265267e+02 2.7043189923e+02 0.0000000000e+00 0.0000e+00 -1.0000e+00
       11  1    1    2    0    0 +1.2732006174e+00 +7.7548364526e+00 -4.9984858857e+02 4.9991036198e+02 0.0000000000e+00 0.0000e+00 1.0000e+00
      -15  1    1    2    0    0 -3.7113042929e-01 -4.4469273369e+00 +9.1082301961e+01 9.1208861192e+01 1.7770000000e+00 0.0000e+00 -1.0000e+00
       15  1    1    2    0    0 -1.2298009616e+00 +2.8027989456e+00 +1.3840363393e+02 1.3844887760e+02 1.7770000000e+00 0.0000e+00 1.0000e+00
</event>
<event>
 6 1 7.08916e-05 5.02902300e+02 7.54677100e-03 9.39333900e-02
      -11 -1    0    0    0    0 +0.0000000000e+00 +0.0000000000e+00 +5.0000000000e+02 5.0000000000e+02 0.0000000000e+00 0.0000e+00 -1.0000e+00
       11 -1    0    0    0    0 -0.0000000000e+00 -0.0000000000e+00 -5.0000000000e+02 5.0000000000e+02 0.0000000000e+00 0.0000e+00 1.0000e+00
      -11  1    1    2    0    0 -1.0383377753e+01 +9.5712619594e+00 +4.9689707299e+02 4.9709770140e+02 0.0000000000e+00 0.0000e+00 -1.0000e+00
       11  1    1    2    0    0 -4.7328308925e-01 -7.1945677210e+00 -4.6213226026e+02 4.6218850243e+02 0.0000000000e+00 0.0000e+00 1.0000e+00
      -15  1    1    2    0    0 -2.9600220808e-01 +4.7902290412e+00 -2.0623162566e+01 2.1248681719e+01 1.7770000000e+00 0.0000e+00 1.0000e+00
       15  1    1    2    0    0 +1.1152663051e+01 -7.1669232797e+00 -1.4141650164e+01 1.9465114456e+01 1.7770000000e+00 0.0000e+00 -1.0000e+00
</event>
<event>
 6 1 7.08916e-05 5.00189200e+02 7.54677100e-03 9.39938700e-02
      -11 -1    0    0    0    0 +0.0000000000e+00 +0.0000000000e+00 +5.0000000000e+02 5.0000000000e+02 0.0000000000e+00 0.0000e+00 -1.0000e+00
       11 -1    0    0    0    0 -0.0000000000e+00 -0.0000000000e+00 -5.0000000000e+02 5.0000000000e+02 0.0000000000e+00 0.0000e+00 1.0000e+00
      -11  1    1    2    0    0 +3.1424018375e+00 -2.6403515146e+00 +2.5198388155e+02 2.5201730636e+02 0.0000000000e+00 0.0000e+00 -1.0000e+00
       11  1    1    2    0    0 +2.0308078896e+00 -9.4118803137e+00 -4.9971807617e+02 4.9981082754e+02 0.0000000000e+00 0.0000e+00 1.0000e+00
      -15  1    1    2    0    0 -5.2282321564e+00 +1.0299757929e+01 +1.7201716850e+02 1.7241369845e+02 1.7770000000e+00 0.0000e+00 -1.0000e+00
       15  1    1    2    0    0 +5.5022429277e-02 +1.7524738994e+00 +7.5717026118e+01 7.5758167648e+01 1.7770000000e+00 0.0000e+00 -1.0000e+00
</event>
<event>
 6 1 7.08916e-05 5.00966700e+02 7.54677100e-03 9.39764900e-02
      -11 -1    0    0    0    0 +0.0000000000e+00 +0.0000000000e+00 +5.0000000000e+02 5.0000000000e+02 0.0000000000e+00 0.0000e+00 -1.0000e+00
       11 -1    0    0    0    0 -0.0000000000e+00 -0.0000000000e+00 -5.0000000000e+02 5.0000000000e+02 0.0000000000e+00 0.0000e+00 1.0000e+00
      -11  1    1    2    0    0 +5.4672680826e+00 +6.8044669558e+00 +4.9895693185e+02 4.9903327708e+02 0.0000000000e+00 0.0000e+00 -1.0000e+00
       11  1    1    2    0    0 +3.5126123299e+00 +7.1327667254e+00 -2.0247174313e+02 2.0262779072e+02 0.0000000000e+00 0.0000e+00 1.0000e+00
      -15  1    1    2    0    0 -2.0457539419e+00 -2.1862517373e+00 -3.1930258267e+00 4.7241876316e+00 1.7770000000e+00 0.0000e+00 1.0000e+00
       15  1    1    2    0    0 -6.9341264707e+00 -1.1750981944e+01 -2.9329216289e+02 2.9361474457e+02 1.7770000000e+00 0.0000e+00 -1.0000e+00
</event>
<event>
 6 1 7.08916e-05 5.02017600e+02 7.54677100e-03 9.39530700e-02
      -11 -1    0    0    0    0 +0.0000000000e+00 +0.0000000000e+00 +5.0000000000e+02 5.0000000000e+02 0.0000000000e+00 0.0000e+00 -1.0000e+00
       11 -1    0    0    0    0 -0.0000000000e+00 -0.0000000000e+00 -5.0000000000e+02 5.0000000000e+02 0.0000000000e+00 0.0000e+00 1.0000e+00
      -11  1    1    2    0    0 -7.2477240158e+00 +2.0873643265e+00 +4.7322098049e+02 4.7328108242e+02 0.0000000000e+00 0.0000e+00 -1.0000e+00
       11  1    1    2    0    0 +3.7886743437e-01 +9.4335973978e+00 -4.9789293792e+02 4.9798244339e+02 0.0000000000e+00 0.0000e+00 1.0000e+00
      -15  1    1    2    0    0 +1.7457085024e+00 -2.3297469529e+00 +2.8492659370e+00 4.4442394647e+00 1.7770000000e+00 0.0000e+00 -1.0000e+00
       15  1    1    2    0    0 +5.1231480790e+00 -9.1912147715e+00 +2.1822691487e+01 2.4292234725e+01 1.7770000000e+00 0.0000e+00 1.0000e+00
</event>
<event>
 6 1 7.08916e-05 5.03554500e+02 7.54677100e-03 9.39189100e-02
      -11 -1    0    0    0    0 +0.0000000000e+00 +0.0000000000e+00 +5.0000000000e+02 5.0000000000e+02 0.0000000000e+00 0.0000e+00 1.0000e+00
       11 -1    0    0    0    0 -0.0000000000e+00 -0.0000000000e+00 -5.0000000000e+02 5.0000000000e+02 0.0000000000e+00 0.0000e+00 1.0000e+00
      -11  1    1    2    0    0 +7.3549300733e+00 +7.0170172943e-01 +4.9639050806e+02 4.9644548933e+02 0.0000000000e+00 0.0000e+00 1.0000e+00
       11  1    1    2    0    0 -1.6799909603e+00 -8.4000959325e+00 -4.7463904691e+02 4.7471634566e+02 0.0000000000e+00 0.0000e+00 1.0000e+00
      -15  1    1    2    0    0 -7.8470889043e+00 -2.4457021780e+00 -9.6875237048e+00 1.2828254283e+01 1.7770000000e+00 0.0000e+00 -1.0000e+00
       15  1    1    2    0    0 +2.1721497913e+00 +1.0144096381e+01 -1.2063937443e+01 1.6009910735e+01 1.7770000000e+00 0.0000e+00 1.0000e+00
</event>
<event>
 6 1 7.08916e-05 5.00732500e+02 7.54677100e-03 9.39817200e-02
      -11 -1    0    0    0    0 +0.0000000000e+00 +0.0000000000e+00 +5.0000000000e+02 5.0000000000e+02 0.0000000000e+00 0.0000e+00 1.0000e+00
       11 -1    0    0    0    0 -0.0000000000e+00 -0.0000000000e+00 -5.0000000000e+02 5.0000000000e+02 0.0000000000e+00 0.0000e+00 -1.0000e+00
      -11  1    1    2    0    0 +7.6288535597e+00 -1.2716310214e+01 +4.9904717761e+02 4.9926745281e+02 0.0000000000e+00 0.0000e+00 1.0000e+00
       11  1    1    2    0    0 -5.8705536477e-01 +5.4555762543e+00 -3.6088266139e+02 3.6092437330e+02 0.0000000000e+00 0.0000e+00 -1.0000e+00
      -15  1    1    2    0    0 -1.1436048804e+01 +9.1665334433e+00 -1.2106293952e+02 1.2195983602e+02 1.7770000000e+00 0.0000e+00 -1.0000e+00
       15  1    1    2    0    0 +4.3942506092e+00 -1.9057994836e+00 -1.7101576703e+01 1.7848337872e+01 1.7770000000e+00 0.0000e+00 1.0000e+00
</event>
<event>
 6 1 7.08916e-05 5.24401400e+02 7.54677100e-03 9.34680600e-02
      -11 -1    0    0    0    0 +0.0000000000e+00 +0.0000000000e+00 +5.0000000000e+02 5.0000000000e+02 0.0000000000e+00 0.0000e+00 -1.0000e+00
       11 -1    0    0    0    0 -0.0000000000e+00 -0.0000000000e+00 -5.0000000000e+02 5.0000000000e+02 0.0000000000e+00 0.0000e+00 -1.0000e+00
      -11  1    1    2    0    0 -7.6733228358e+00 -2.9783614222e+00 +2.0610619058e+02 2.0627048338e+02 0.0000000000e+00 0.0000e+00 -1.0000e+00
       11  1    1    2    0    0 +1.1945867455e+01 -1.4223801339e+01 -4.7523569682e+02 4.7559855740e+02 0.0000000000e+00 0.0000e+00 -1.0000e+00
      -15  1    1    2    0    0 -1.1236408181e+01 +1.2129319520e+01 -2.1604812568e+01 2.7263582229e+01 1.7770000000e+00 0.0000e+00 -1.0000e+00
       15  1    1    2    0    0 +6.9638635613e+00 +5.0728432412e+00 +2.9073431881e+02 2.9086737699e+02 1.7770000000e+00 0.0000e+00 1.0000e+00
</event>
<event>
 6 1 7.08916e-05 5.00933400e+02 7.54677100e-03 9.39772400e-02
      -11 -1    0    0    0    0 +0.0000000000e+00 +0.0000000000e+00 +5.0000000000e+02 5.0000000000e+02 0.0000000000e+00 0.0000e+00 1.0000e+00
       11 -1    0    0    0    0 -0.0000000000e+00 -0.0000000000e+00 -5.0000000000e+02 5.0000000000e+02 0.0000000000e+00 0.0000e+00 -1.0000e+00
      -11  1    1    2    0    0 +6.6688361874e+01 +4.7979967688e+01 +4.9225816807e+02 4.9906664779e+02 0.0000000000e+00 0.0000e+00 1.0000e+00
       11  1    1    2    0    0 -5.6645889769e+01 -4.4889383158e+01 -3.2989577455e+02 3.3772035120e+02 0.0000000000e+00 0.0000e+00 -1.0000e+00
      -15  1    1    2    0    0 -6.8243093400e+00 +4.3651122813e+00 -8.6386516016e+01 8.6783715532e+01 1.7770000000e+00 0.0000e+00 1.0000e+00
       15  1    1    2    0    0 -3.2181627656e+00 -7.4556968112e+00 -7.5975877503e+01 7.6429285473e+01 1.7770000000e+00 0.0000e+00 -1.0000e+00
</event>
<event>
 6 1 7.08916e-05 4.73247100e+02 7.54677100e-03 9.46174500e-02
      -11 -1    0    0    0    0 +0.0000000000e+00 +0.0000000000e+00 +5.0000000000e+02 5.0000000000e+02 0.0000000000e+00 0.0000e+00 -1.0000e+00
       11 -1    0    0    0    0 -0.0000000000e+00 -0.0000000000e+00 -5.0000000000e+02 5.0000000000e+02 0.0000000000e+00 0.0000e+00 -1.0000e+00
      -11  1    1    2    0    0 +1.0849898752e+01 +2.8458368077e+00 +4.7517086425e+02 4.7530323933e+02 0.0000000000e+00 0.0000e+00 -1.0000e+00
       11  1    1    2    0    0 -2.5664902840e+01 -2.1953172096e+01 -4.7030105215e+02 4.7151215112e+02 0.0000000000e+00 0.0000e+00 -1.0000e+00
      -15  1    1    2    0    0 +2.8994479949e+01 +9.5921526852e+00 -1.4108544306e+01 3.3688247388e+01 1.7770000000e+00 0.0000e+00 1.0000e+00
       15  1    1    2    0    0 -1.4179475860e+01 +9.5151826035e+00 +9.2387322048e+00 1.9496362158e+01 1.7770000000e+00 0.0000e+00 -1.0000e+00
</event>
<event>
 6 1 7.08916e-05 5.00197300e+02 7.54677100e-03 9.39936800e-02
      -11 -1    0    0    0    0 +0.0000000000e+00 +0.0000000000e+00 +5.0000000000e+02 5.0000000000e+02 0.0000000000e+00 0.0000e+00 1.0000e+00
       11 -1    0    0    0    0 -0.0000000000e+00 -0.0000000000e+00 -5.0000000000e+02 5.0000000000e+02 0.0000000000e+00 0.0000e+00 -1.0000e+00
      -11  1    1    2    0    0 +9.3519753138e+00 -9.0991368922e+00 +3.6511185203e+02 3.6534493048e+02 0.0000000000e+00 0.0000e+00 1.0000e+00
       11  1    1    2    0    0 -7.3880046266e+00 +4.9184210890e+00 -4.9972393828e+02 4.9980274906e+02 0.0000000000e+00 0.0000e+00 -1.0000e+00
      -15  1    1    2    0    0 -1.4416036981e+00 +2.3904290810e-01 +1.6461578952e+01 1.6621572529e+01 1.7770000000e+00 0.0000e+00 1.0000e+00
       15  1    1    2    0    0 -5.2236698914e-01 +3.9416728951e+00 +1.1815050730e+02 1.1823074793e+02 1.7770000000e+00 0.0000e+00 -1.0000e+00
</event>
<event>
 6 1 7.08916e-05 5.00377500e+02 7.54677100e-03 9.39896600e-02
      -11 -1    0    0    0    0 +0.0000000000e+00 +0.0000000000e+00 +5.0000000000e+02 5.0000000000e+02 0.0000000000e+00 0.0000e+00 -1.0000e+00
       11 -1    0    0    0    0 -0.0000000000e+00 -0.0000000000e+00 -5.0000000000e+02 5.0000000000e+02 0.0000000000e+00 0.0000e+00 1.0000e+00
      -11  1    1    2    0    0 +1.4406032459e+01 -1.2235402041e+01 +2.5688108179e+02 2.5757548217e+02 0.0000000000e+00 0.0000e+00 -1.0000e+00
       11  1    1    2    0    0 -1.3938471588e+01 +1.8821083319e+00 -4.9942453646e+02 4.9962254847e+02 0.0000000000e+00 0.0000e+00 1.0000e+00
      -15  1    1    2    0    0 -1.0926794191e+00 +3.9998890797e+00 +8.5838024358e+01 8.5956484431e+01 1.7770000000e+00 0.0000e+00 -1.0000e+00
       15  1    1    2    0    0 +6.2511854796e-01 +6.3534046298e+00 +1.5670543031e+02 1.5684548493e+02 1.7770000000e+00 0.0000e+00 1.0000e+00
</event>
<event>
 6 1 7.08916e-05 5.00235800e+02 7.54677100e-03 9.39928200e-02
      -11 -1    0    0    0    0 +0.0000000000e+00 +0.0000000000e+00 +5.0000000000e+02 5.0000000000e+02 0.0000000000e+00 0.0000e+00 -1.0000e+00
       11 -1    0    0    0    0 -0.0000000000e+00 -0.0000000000e+00 -5.0000000000e+02 5.0000000000e+02 0.0000000000e+00 0.0000e+00 -1.0000e+00
      -11  1    1    2    0    0 -6.6498586489e+00 -2.6283025056e+00 +3.7783897569e+02 3.7790662887e+02 0.0000000000e+00 0.0000e+00 -1.0000e+00
       11  1    1    2    0    0 +6.6945730287e+00 +5.4033053542e+00 -4.9969014188e+02 4.9976419530e+02 0.0000000000e+00 0.0000e+00 -1.0000e+00
      -15  1    1    2    0    0 +3.8056618129e+00 -2.8061969460e+00 +9.5972705499e+01 9.6105544756e+01 1.7770000000e+00 0.0000e+00 -1.0000e+00
       15  1    1    2    0    0 -3.8503761927e+00 +3.1194097497e-02 +2.5878460688e+01 2.6223631070e+01 1.7770000000e+00 0.0000e+00 1.0000e+00
</event>
<event>
 6 1 7.08916e-05 5.05635700e+02 7.54677100e-03 9.38728700e-02
      -11 -1    0    0    0    0 +0.0000000000e+00 +0.0000000000e+00 +5.0000000000e+02 5.0000000000e+02 0.0000000000e+00 0.0000e+00 -1.0000e+00
       11 -1    0    0    0    0 -0.0000000000e+00 -0.0000000000e+00 -5.0000000000e+02 5.0000000000e+02 0.0000000000e+00 0.0000e+00 1.0000e+00
      -11  1    1    2    0    0 +6.6354216876e+00 -5.6792240571e+00 +4.9428711866e+02 4.9436427670e+02 0.0000000000e+00 0.0000e+00 -1.0000e+00
       11  1    1    2    0    0 -5.2706661213e+00 +4.5876125566e+00 -4.4028367531e+02 4.4033912029e+02 0.0000000000e+00 0.0000e+00 1.0000e+00
      -15  1    1    2    0    0 -3.4214532561e+00 +1.6465267106e+00 +4.8312363061e+00 6.3965589060e+00 1.7770000000e+00 0.0000e+00 1.0000e+00
       15  1    1    2    0    0 +2.0566976897e+00 -5.5491521007e-01 -5.8834679656e+01 5.8900044105e+01 1.7770000000e+00 0.0000e+00 -1.0000e+00
</event>
<event>
 6 1 7.08916e-05 5.02628900e+02 7.54677100e-03 9.39394700e-02
      -11 -1    0    0    0    0 +0.0000000000e+00 +0.0000000000e+00 +5.0000000000e+02 5.0000000000e+02 0.0000000000e+00 0.0000e+00 1.0000e+00
       11 -1    0    0    0    0 -0.0000000000e+00 -0.0000000000e+00 -5.0000000000e+02 5.0000000000e+02 0.0000000000e+00 0.0000e+00 1.0000e+00
      -11  1    1    2    0    0 -1.1121746829e+01 +2.2567096159e+00 +4.9724164748e+02 4.9737113103e+02 0.0000000000e+00 0.0000e+00 1.0000e+00
       11  1    1    2    0    0 +1.7905806205e+01 +2.0281570652e+01 -7.7857113654e+01 8.2423844550e+01 0.0000000000e+00 0.0000e+00 1.0000e+00
      -15  1    1    2    0    0 -3.0553955964e+00 -1.0493773366e+00 -1.0224700200e+02 1.0231345846e+02 1.7770000000e+00 0.0000e+00 -1.0000e+00
       15  1    1    2    0    0 -3.7286637788e+00 -2.1488902931e+01 -3.1713753183e+02 3.1789156596e+02 1.7770000000e+00 0.0000e+00 1.0000e+00
</event>
<event>
 6 1 7.08916e-05 5.08866600e+02 7.54677100e-03 9.38018600e-02
      -11 -1    0    0    0    0 +0.0000000000e+00 +0.0000000000e+00 +5.0000000000e+02 5.0000000000e+02 0.0000000000e+00 0.0000e+00 1.0000e+00
       11 -1    0    0    0    0 -0.0000000000e+00 -0.0000000000e+00 -5.0000000000e+02 5.0000000000e+02 0.0000000000e+00 0.0000e+00 1.0000e+00
      -11  1    1    2    0    0 -2.1037966332e+01 -3.8088402635e+00 +3.3099979907e+02 3.3168956914e+02 0.0000000000e+00 0.0000e+00 1.0000e+00
       11  1    1    2    0    0 +2.7926838242e+01 +1.8289505282e+01 -4.8999753202e+02 4.9113337871e+02 0.0000000000e+00 0.0000e+00 1.0000e+00
      -15  1    1    2    0    0 -3.2745998132e+01 +1.2046194324e+01 +1.1191898102e+02 1.1724515868e+02 1.7770000000e+00 0.0000e+00 1.0000e+00
       15  1    1    2    0    0 +2.5857126222e+01 -2.6526859342e+01 +4.7078751922e+01 5.9931893467e+01 1.7770000000e+00 0.0000e+00 -1.0000e+00
</event>
<event>
 6 1 7.08916e-05 5.01831800e+02 7.54677100e-03 9.39572000e-02
      -11 -1    0    0    0    0 +0.0000000000e+00 +0.0000000000e+00 +5.0000000000e+02 5.0000000000e+02 0.0000000000e+00 0.0000e+00 -1.0000e+00
       11 -1    0    0    0    0 -0.0000000000e+00 -0.0000000000e+00 -5.0000000000e+02 5.0000000000e+02 0.0000000000e+00 0.0000e+00 1.0000e+00
      -11  1    1    2    0    0 +1.2876480987e+01 -1.0371660740e+01 +4.9789376494e+02 4.9816822086e+02 0.0000000000e+00 0.0000e+00 -1.0000e+00
       11  1    1    2    0    0 +4.0072921835e+00 +5.1674362830e+00 -3.9860626404e+02 3.9865989831e+02 0.0000000000e+00 0.0000e+00 1.0000e+00
      -15  1    1    2    0    0 -8.2674176550e+00 +1.1760110281e+01 -7.6758870952e+01 7.8113586445e+01 1.7770000000e+00 0.0000e+00 1.0000e+00
       15  1    1    2    0    0 -8.6163555158e+00 -6.5558858239e+00 -2.2528629947e+01 2.5058294387e+01 1.7770000000e+00 0.0000e+00 -1.0000e+00
</event>
<event>
 6 1 7.08916e-05 5.00952700e+02 7.54677100e-03 9.39768000e-02
      -11 -1    0    0    0    0 +0.0000000000e+00 +0.0000000000e+00 +5.0000000000e+02 5.0000000000e+02 0.0000000000e+00 0.0000e+00 1.0000e+00
       11 -1    0    0    0    0 -0.0000000000e+00 -0.0000000000e+00 -5.0000000000e+02 5.0000000000e+02 0.0000000000e+00 0.0000e+00 -1.0000e+00
      -11  1    1    2    0    0 -1.1499836278e+00 -3.8429270447e+00 +2.6650405757e+02 2.6653424405e+02 0.0000000000e+00 0.0000e+00 1.0000e+00
       11  1    1    2    0    0 +2.3534535689e+01 -9.4818079265e+00 -4.9840186011e+02 4.9904728555e+02 0.0000000000e+00 0.0000e+00 -1.0000e+00
      -15  1    1    2    0    0 -4.8471241272e+00 +1.5498195895e+01 +1.2341433975e+02 1.2449074533e+02 1.7770000000e+00 0.0000e+00 1.0000e+00
       15  1    1    2    0    0 -1.7537427934e+01 -2.1734609239e+00 +1.0848346280e+02 1.0992772508e+02 1.7770000000e+00 0.0000e+00 -1.0000e+00
</event>
<event>
 6 1 7.08916e-05 5.02008000e+02 7.54677100e-03 9.39532800e-02
      -11 -1    0    0    0    0 +0.0000000000e+00 +0.0000000000e+00 +5.0000000000e+02 5.0000000000e+02 0.0000000000e+00 0.0000e+00 1.0000e+00
       11 -1    0    0    0    0 -0.0000000000e+00 -0.0000000000e+00 -5.0000000000e+02 5.0000000000e+02 0.0000000000e+00 0.0000e+00 -1.0000e+00
      -11  1    1    2    0    0 -4.4582147805e+00 -6.0639001397e+00 +4.9793515336e+02 4.9799203158e+02 0.0000000000e+00 0.0000e+00 1.0000e+00
       11  1    1    2    0    0 +6.1360525209e+00 -4.7972152223e+00 -4.7163001989e+02 4.7169432907e+02 0.0000000000e+00 0.0000e+00 -1.0000e+00
      -15  1    1    2    0    0 +3.3101664254e+00 +1.1795303467e+00 -5.5166664315e+00 6.7778928229e+00 1.7770000000e+00 0.0000e+00 -1.0000e+00
       15  1    1    2    0    0 -4.9880041657e+00 +9.6815850153e+00 -2.0788467038e+01 2.3535746531e+01 1.7770000000e+00 0.0000e+00 1.0000e+00
</event>
<event>
 6 1 7.08916e-05 5.11147000e+02 7.54677100e-03 9.37520700e-02
      -11 -1    0    0    0    0 +0.0000000000e+00 +0.0000000000e+00 +5.0000000000e+02 5.0000000000e+02 0.0000000000e+00 0.0000e+00 -1.0000e+00
       11 -1    0    0    0    0 -0.0000000000e+00 -0.0000000000e+00 -5.0000000000e+02 5.0000000000e+02 0.0000000000e+00 0.0000e+00 1.0000e+00
      -11  1    1    2    0    0 +7.8442729299e+00 -4.2577559590e+00 +4.8877152111e+02 4.8885300546e+02 0.0000000000e+00 0.0000e+00 -1.0000e+00
       11  1    1    2    0    0 -1.1323665973e+01 -1.0365916773e+01 -3.8493496733e+02 3.8524097227e+02 0.0000000000e+00 0.0000e+00 1.0000e+00
      -15  1    1    2    0    0 -1.0146824844e+01 -1.4635206852e+01 -7.9679853019e-01 1.7914796982e+01 1.7770000000e+00 0.0000e+00 1.0000e+00
       15  1    1    2    0    0 +1.3626217887e+01 +2.9258879584e+01 -1.0303975525e+02 1.0799122529e+02 1.7770000000e+00 0.0000e+00 -1.0000e+00
</event>
<event>
 6 1 7.08916e-05 5.02046400e+02 7.54677100e-03 9.39524200e-02
      -11 -1    0    0    0    0 +0.0000000000e+00 +0.0000000000e+00 +5.0000000000e+02 5.0000000000e+02 0.0000000000e+00 0.0000e+00 1.0000e+00
       11 -1    0    0    0    0 -0.0000000000e+00 -0.0000000000e+00 -5.0000000000e+02 5.0000000000e+02 0.0000000000e+00 0.0000e+00 1.0000e+00
      -11  1    1    2    0    0 +4.3748206667e+00 -6.5520995634e+00 +2.6493693043e+02 2.6505404386e+02 0.0000000000e+00 0.0000e+00 1.0000e+00
       11  1    1    2    0    0 -2.8202706784e+00 -1.0701299019e+01 -4.9783061310e+02 4.9795360333e+02 0.0000000000e+00 0.0000e+00 1.0000e+00
      -15  1    1    2    0    0 -1.0170415862e+00 +8.2175470833e+00 +7.2157507566e+00 1.1125971492e+01 1.7770000000e+00 0.0000e+00 -1.0000e+00
       15  1    1    2    0    0 -5.3750840213e-01 +9.0358514995e+00 +2.2567793191e+02 2.2586638132e+02 1.7770000000e+00 0.0000e+00 1.0000e+00
</event>
<event>
 6 1 7.08916e-05 5.01250300e+02 7.54677100e-03 9.39701600e-02
      -11 -1    0    0    0    0 +0.0000000000e+00 +0.0000000000e+00 +5.0000000000e+02 5.0000000000e+02 0.0000000000e+00 0.0000e+00 -1.0000e+00
       11 -1    0    0    0    0 -0.0000000000e+00 -0.0000000000e+00 -5.0000000000e+02 5.0000000000e+02 0.0000000000e+00 0.0000e+00 1.0000e+00
      -11  1    1    2    0    0 +1.0531897609e+01 +5.4172143508e+00 +4.4161881572e+02 4.4177759730e+02 0.0000000000e+00 0.0000e+00 -1.0000e+00
       11  1    1    2    0    0 -1.3960187734e+01 +9.3392494822e+00 -4.9846682989e+02 4.9874972574e+02 0.0000000000e+00 0.0000e+00 1.0000e+00
      -15  1    1    2    0    0 +2.8733459372e+00 -3.7414893745e+00 +2.9556575316e+01 2.9983390952e+01 1.7770000000e+00 0.0000e+00 1.0000e+00
       15  1    1    2    0    0 +5.5494418845e-01 -1.1014974458e+01 +2.7291438861e+01 2.9489286011e+01 1.7770000000e+00 0.0000e+00 -1.0000e+00
</event>
<event>
 6 1 7.08916e-05 5.01331600e+02 7.54677100e-03 9.39683500e-02
      -11 -1    0    0    0    0 +0.0000000000e+00 +0.0000000000e+00 +5.0000000000e+02 5.0000000000e+02 0.0000000000e+00 0.0000e+00 -1.0000e+00
       11 -1    0    0    0    0 -0.0000000000e+00 -0.0000000000e+00 -5.0000000000e+02 5.0000000000e+02 0.0000000000e+00 0.0000e+00 1.0000e+00
      -11  1    1    2    0    0 +6.6877523156e+00 -1.4145854386e+01 +8.6530083022e+01 8.7933420808e+01 0.0000000000e+00 0.0000e+00 -1.0000e+00
       11  1    1    2    0    0 -1.3521686391e+01 -1.7137975871e+01 -4.9819033242e+02 4.9866838032e+02 0.0000000000e+00 0.0000e+00 1.0000e+00
      -15  1    1    2    0    0 -3.5931812952e+00 +2.1019080735e+01 +3.0116703973e+02 3.0192624307e+02 1.7770000000e+00 0.0000e+00 -1.0000e+00
       15  1    1    2    0    0 +1.0427115371e+01 +1.0264749522e+01 +1.1049320967e+02 1.1147195580e+02 1.7770000000e+00 0.0000e+00 1.0000e+00
</event>
<event>
 6 1 7.08916e-05 5.03320200e+02 7.54677100e-03 9.39241100e-02
      -11 -1    0    0    0    0 +0.0000000000e+00 +0.0000000000e+00 +5.0000000000e+02 5.0000000000e+02 0.0000000000e+00 0.0000e+00 1.0000e+00
       11 -1    0    0    0    0 -0.0000000000e+00 -0.0000000000e+00 -5.0000000000e+02 5.0000000000e+02 0.0000000000e+00 0.0000e+00 1.0000e+00
      -11  1    1    2    0    0 +6.3893460862e+00 -9.3492403854e-01 +3.9367990333e+02 3.9373285882e+02 0.0000000000e+00 0.0000e+00 1.0000e+00
       11  1    1    2    0    0 -2.8173506081e+01 -2.2292473466e+01 -4.9537874851e+02 4.9667978145e+02 0.0000000000e+00 0.0000e+00 1.0000e+00
      -15  1    1    2    0    0 +2.4723781224e+01 +2.3432319832e+01 +7.1792628628e+01 7.9483823669e+01 1.7770000000e+00 0.0000e+00 1.0000e+00
       15  1    1    2    0    0 -2.9396212289e+00 -2.0492232758e-01 +2.9906216555e+01 3.0103536067e+01 1.7770000000e+00 0.0000e+00 -1.0000e+00
</event>
<event>
 6 1 7.08916e-05 5.03618700e+02 7.54677100e-03 9.39174900e-02
      -11 -1    0    0    0    0 +0.0000000000e+00 +0.0000000000e+00 +5.0000000000e+02 5.0000000000e+02 0.0000000000e+00 0.0000e+00 1.0000e+00
       11 -1    0    0    0    0 -0.0000000000e+00 -0.0000000000e+00 -5.0000000000e+02 5.0000000000e+02 0.0000000000e+00 0.0000e+00 -1.0000e+00
      -11  1    1    2    0    0 +3.2163305630e+00 -1.6642429891e+01 +4.9609178274e+02 4.9638127700e+02 0.0000000000e+00 0.0000e+00 1.0000e+00
       11  1    1    2    0    0 -1.0291537443e+01 +4.4185396031e+00 -4.6612786306e+02 4.6626239818e+02 0.0000000000e+00 0.0000e+00 -1.0000e+00
      -15  1    1    2    0    0 +1.5901856918e+00 +1.4594934598e+01 -1.4624341699e+01 2.0798314970e+01 1.7770000000e+00 0.0000e+00 1.0000e+00
       15  1    1    2    0    0 +5.4850211882e+00 -2.3710443102e+00 -1.5339577977e+01 1.6558009846e+01 1.7770000000e+00 0.0000e+00 -1.0000e+00
</event>
<event>
 6 1 7.08916e-05 5.03971600e+02 7.54677100e-03 9.39096700e-02
      -11 -1    0    0    0    0 +0.0000000000e+00 +0.0000000000e+00 +5.0000000000e+02 5.0000000000e+02 0.0000000000e+00 0.0000e+00 -1.0000e+00
       11 -1    0    0    0    0 -0.0000000000e+00 -0.0000000000e+00 -5.0000000000e+02 5.0000000000e+02 0.0000000000e+00 0.0000e+00 -1.0000e+00
      -11  1    1    2    0    0 -2.5171838351e+01 -1.4133025610e+01 +4.9518765113e+02 4.9602840009e+02 0.0000000000e+00 0.0000e+00 -1.0000e+00
       11  1    1    2    0    0 +4.5976478649e+00 +3.0395665451e+00 -2.0154644601e+02 2.0162179255e+02 0.0000000000e+00 0.0000e+00 -1.0000e+00
      -15  1    1    2    0    0 -5.8097255494e+00 +6.8555301157e+00 -2.5594452160e+02 2.5610838930e+02 1.7770000000e+00 0.0000e+00 -1.0000e+00
       15  1    1    2    0    0 +2.6383916035e+01 +4.2379289495e+00 -3.7696683518e+01 4.6241418063e+01 1.7770000000e+00 0.0000e+00 1.0000e+00
</event>
<event>
 6 1 7.08916e-05 5.03087500e+02 7.54677100e-03 9.39292800e-02
      -11 -1    0    0    0    0 +0.0000000000e+00 +0.0000000000e+00 +5.0000000000e+02 5.0000000000e+02 0.0000000000e+00 0.0000e+00 -1.0000e+00
       11 -1    0    0    0    0 -0.0000000000e+00 -0.0000000000e+00 -5.0000000000e+02 5.0000000000e+02 0.0000000000e+00 0.0000e+00 -1.0000e+00
      -11  1    1    2    0    0 -9.2307934809e+00 -2.9339504998e+00 +4.9681810881e+02 4.9691251630e+02 0.0000000000e+00 0.0000e+00 -1.0000e+00
       11  1    1    2    0    0 -8.9662160060e+00 -1.3646190233e+00 -4.1673181547e+02 4.1683049461e+02 0.0000000000e+00 0.0000e+00 -1.0000e+00
      -15  1    1    2    0    0 -2.5773627642e+00 +2.9270440915e+00 -4.6528694118e+01 4.6725662021e+01 1.7770000000e+00 0.0000e+00 1.0000e+00
       15  1    1    2    0    0 +2.0774372251e+01 +1.3715254316e+00 -3.3557599232e+01 3.9531327066e+01 1.7770000000e+00 0.0000e+00 -1.0000e+00
</event>
<event>
 6 1 7.08916e-05 5.04950700e+02 7.54677100e-03 9.38880000e-02
      -11 -1    0    0    0    0 +0.0000000000e+00 +0.0000000000e+00 +5.0000000000e+02 5.0000000000e+02 0.0000000000e+00 0.0000e+00 1.0000e+00
       11 -1    0    0    0    0 -0.0000000000e+00 -0.0000000000e+00 -5.0000000000e+02 5.0000000000e+02 0.0000000000e+00 0.0000e+00 -1.0000e+00
      -11  1    1    2    0    0 +1.3754471937e+01 +1.6731854108e+01 +3.7706103323e+02 3.7768262234e+02 0.0000000000e+00 0.0000e+00 1.0000e+00
       11  1    1    2    0    0 +1.2323342666e-01 -1.8903479984e+01 -4.9468822901e+02 4.9504929114e+02 0.0000000000e+00 0.0000e+00 -1.0000e+00
      -15  1    1    2    0    0 -1.3938755677e+01 +9.6360606957e+00 +1.1834139343e+02 1.1956163976e+02 1.7770000000e+00 0.0000e+00 1.0000e+00
       15  1    1    2    0    0 +6.1050313462e-02 -7.4644348191e+00 -7.1419764496e-01 7.7064467548e+00 1.7770000000e+00 0.0000e+00 -1.0000e+00
</event>
<event>
 6 1 7.08916e-05 5.00876500e+02 7.54677100e-03 9.39785100e-02
      -11 -1    0    0    0    0 +0.0000000000e+00 +0.0000000000e+00 +5.0000000000e+02 5.0000000000e+02 0.0000000000e+00 0.0000e+00 1.0000e+00
       11 -1    0    0    0    0 -0.0000000000e+00 -0.0000000000e+00 -5.0000000000e+02 5.0000000000e+02 0.0000000000e+00 0.0000e+00 1.0000e+00
      -11  1    1    2    0    0 +7.3742106093e+00 -1.7779956948e+00 +4.9906583713e+02 4.9912348175e+02 0.0000000000e+00 0.0000e+00 1.0000e+00
       11  1    1    2    0    0 -7.6867543730e+00 -2.3300068822e+00 -4.8259181735e+02 4.8265865506e+02 0.0000000000e+00 0.0000e+00 1.0000e+00
      -15  1    1    2    0    0 +2.6442981433e+00 +3.4510884467e+00 -8.7653601118e+00 9.9444251230e+00 1.7770000000e+00 0.0000e+00 -1.0000e+00
       15  1    1    2    0    0 -2.3317543796e+00 +6.5691413029e-01 -7.7086596626e+00 8.2734380674e+00 1.7770000000e+00 0.0000e+00 1.0000e+00
</event>
<event>
 6 1 7.08916e-05 5.01698000e+02 7.54677100e-03 9.39601800e-02
      -11 -1    0    0    0    0 +0.0000000000e+00 +0.0000000000e+00 +5.0000000000e+02 5.0000000000e+02 0.0000000000e+00 0.0000e+00 1.0000e+00
       11 -1    0    0    0    0 -0.0000000000e+00 -0.0000000000e+00 -5.0000000000e+02 5.0000000000e+02 0.0000000000e+00 0.0000e+00 1.0000e+00
      -11  1    1    2    0    0 -2.8269319395e+00 +4.4094289251e+00 +3.7726846285e+02 3.7730482063e+02 0.0000000000e+00 0.0000e+00 1.0000e+00
       11  1    1    2    0    0 +2.0265223608e+01 -1.3750369307e+00 -4.9788784180e+02 4.9830198979e+02 0.0000000000e+00 0.0000e+00 1.0000e+00
      -15  1    1    2    0    0 -2.3142021126e+01 -3.9361752928e+00 +8.2313502358e+01 8.5613766517e+01 1.7770000000e+00 0.0000e+00 1.0000e+00
       15  1    1    2    0    0 +5.7037294579e+00 +9.0178329837e-01 +3.8305876594e+01 3.8779423068e+01 1.7770000000e+00 0.0000e+00 -1.0000e+00
</event>
<event>
 6 1 7.08916e-05 5.00740700e+02 7.54677100e-03 9.39815400e-02
      -11 -1    0    0    0    0 +0.0000000000e+00 +0.0000000000e+00 +5.0000000000e+02 5.0000000000e+02 0.0000000000e+00 0.0000e+00 1.0000e+00
       11 -1    0    0    0    0 -0.0000000000e+00 -0.0000000000e+00 -5.0000000000e+02 5.0000000000e+02 0.0000000000e+00 0.0000e+00 -1.0000e+00
      -11  1    1    2    0    0 +5.4679586697e+01 +4.6509578487e+00 +4.9623419051e+02 4.9925931183e+02 0.0000000000e+00 0.0000e+00 1.0000e+00
       11  1    1    2    0    0 -1.6370226478e+01 +5.0691760306e+00 -2.7950380888e+02 2.8002867717e+02 0.0000000000e+00 0.0000e+00 -1.0000e+00
      -15  1    1    2    0    0 -3.5587721543e+01 -5.3717755354e+00 -1.9584745696e+02 1.9913494425e+02 1.7770000000e+00 0.0000e+00 1.0000e+00
       15  1    1    2    0    0 -2.7216386754e+00 -4.3483583439e+00 -2.0882924680e+01 2.1577066751e+01 1.7770000000e+00 0.0000e+00 -1.0000e+00
</event>
<event>
 6 1 7.08916e-05 5.04605800e+02 7.54677100e-03 9.38956300e-02
      -11 -1    0    0    0    0 +0.0000000000e+00 +0.0000000000e+00 +5.0000000000e+02 5.0000000000e+02 0.0000000000e+00 0.0000e+00 -1.0000e+00
       11 -1    0    0    0    0 -0.0000000000e+00 -0.0000000000e+00 -5.0000000000e+02 5.0000000000e+02 0.0000000000e+00 0.0000e+00 1.0000e+00
      -11  1    1    2    0    0 -4.8448815919e-01 +1.5375987776e+01 +4.9515532598e+02 4.9539423955e+02 0.0000000000e+00 0.0000e+00 -1.0000e+00
       11  1    1    2    0    0 -7.2867246135e+00 -2.1848952542e+00 -4.5986881838e+02 4.5993173433e+02 0.0000000000e+00 0.0000e+00 1.0000e+00
      -15  1    1    2    0    0 +1.2509869763e+01 -2.2777210006e+00 -8.7473748554e+00 1.5535737843e+01 1.7770000000e+00 0.0000e+00 -1.0000e+00
       15  1    1    2    0    0 -4.7386569906e+00 -1.0913371522e+01 -2.6539132748e+01 2.9138288283e+01 1.7770000000e+00 0.0000e+00 1.0000e+00
</event>
<event>
 6 1 7.08916e-05 5.01189000e+02 7.54677100e-03 9.39715300e-02
      -11 -1    0    0    0    0 +0.0000000000e+00 +0.0000000000e+00 +5.0000000000e+02 5.0000000000e+02 0.0000000000e+00 0.0000e+00 -1.0000e+00
       11 -1    0    0    0    0 -0.0000000000e+00 -0.0000000000e+00 -5.0000000000e+02 5.0000000000e+02 0.0000000000e+00 0.0000e+00 1.0000e+00
      -11  1    1    2    0    0 +6.4117476107e-01 -6.8700666487e+00 +4.9876327581e+02 4.9881100050e+02 0.0000000000e+00 0.0000e+00 -1.0000e+00
       11  1    1    2    0    0 -5.2192310173e+00 -6.5603692350e+00 -4.3832407462e+02 4.3840423493e+02 0.0000000000e+00 0.0000e+00 1.0000e+00
      -15  1    1    2    0    0 -1.3666984585e+00 +3.9635739059e+00 -8.6752411372e+00 9.7977201722e+00 1.7770000000e+00 0.0000e+00 -1.0000e+00
       15  1    1    2    0    0 +5.9447547147e+00 +9.4668619778e+00 -5.1763960054e+01 5.2987044396e+01 1.7770000000e+00 0.0000e+00 1.0000e+00
</event>
<event>
 6 1 7.08916e-05 5.00411100e+02 7.54677100e-03 9.39889000e-02
      -11 -1    0    0    0    0 +0.0000000000e+00 +0.0000000000e+00 +5.0000000000e+02 5.0000000000e+02 0.0000000000e+00 0.0000e+00 1.0000e+00
       11 -1    0    0    0    0 -0.0000000000e+00 -0.0000000000e+00 -5.0000000000e+02 5.0000000000e+02 0.0000000000e+00 0.0000e+00 1.0000e+00
      -11  1    1    2    0    0 +1.1125867011e+01 -8.8803330288e+00 +4.9938608589e+02 4.9958893904e+02 0.0000000000e+00 0.0000e+00 1.0000e+00
       11  1    1    2    0    0 +1.6363633961e+00 +5.8120076040e-01 -1.0356516190e+02 1.0357971924e+02 0.0000000000e+00 0.0000e+00 1.0000e+00
      -15  1    1    2    0    0 -4.5078230721e-01 -6.9120813343e+00 -1.7231517949e+02 1.7246350016e+02 1.7770000000e+00 0.0000e+00 -1.0000e+00
       15  1    1    2    0    0 -1.2311448100e+01 +1.5211213603e+01 -2.2350574450e+02 2.2436784156e+02 1.7770000000e+00 0.0000e+00 1.0000e+00
</event>
<event>
 6 1 7.08916e-05 5.04799200e+02 7.54677100e-03 9.38913500e-02
      -11 -1    0    0    0    0 +0.0000000000e+00 +0.0000000000e+00 +5.0000000000e+02 5.0000000000e+02 0.0000000000e+00 0.0000e+00 1.0000e+00
       11 -1    0    0    0    0 -0.0000000000e+00 -0.0000000000e+00 -5.0000000000e+02 5.0000000000e+02 0.0000000000e+00 0.0000e+00 1.0000e+00
      -11  1    1    2    0    0 -9.5149989413e+00 -2.4107603842e-01 +4.5210613092e+02 4.5220631014e+02 0.0000000000e+00 0.0000e+00 1.0000e+00
       11  1    1    2    0    0 -1.0642390575e+01 +2.3559678752e+00 -4.9508080857e+02 4.9520078562e+02 0.0000000000e+00 0.0000e+00 1.0000e+00
      -15  1    1    2    0    0 +5.1662163973e+00 -1.8073566066e+00 +3.5090443063e+01 3.5559151468e+01 1.7770000000e+00 0.0000e+00 1.0000e+00
       15  1    1    2    0    0 +1.4991173119e+01 -3.0753523017e-01 +7.8842345890e+00 1.7033752771e+01 1.7770000000e+00 0.0000e+00 -1.0000e+00
</event>
<event>
 6 1 7.08916e-05 4.80889700e+02 7.54677100e-03 9.44361600e-02
      -11 -1    0    0    0    0 +0.0000000000e+00 +0.0000000000e+00 +5.0000000000e+02 5.0000000000e+02 0.0000000000e+00 0.0000e+00 1.0000e+00
       11 -1    0    0    0    0 -0.0000000000e+00 -0.0000000000e+00 -5.0000000000e+02 5.0000000000e+02 0.0000000000e+00 0.0000e+00 -1.0000e+00
      -11  1    1    2    0    0 +2.1479619696e-01 +1.3048022895e+01 +4.7942067005e+02 4.7959824427e+02 0.0000000000e+00 0.0000e+00 1.0000e+00
       11  1    1    2    0    0 -8.5843182402e+00 +1.5170296235e+01 -4.8232092682e+02 4.8263578903e+02 0.0000000000e+00 0.0000e+00 -1.0000e+00
      -15  1    1    2    0    0 -2.4711720871e+00 +1.5804451883e-01 -5.4219486025e+00 6.2198814460e+00 1.7770000000e+00 0.0000e+00 1.0000e+00
       15  1    1    2    0    0 +1.0840694130e+01 -2.8376363649e+01 +8.3222053742e+00 3.1546085247e+01 1.7770000000e+00 0.0000e+00 -1.0000e+00
</event>
<event>
 6 1 7.08916e-05 5.09118300e+02 7.54677100e-03 9.37963500e-02
      -11 -1    0    0    0    0 +0.0000000000e+00 +0.0000000000e+00 +5.0000000000e+02 5.0000000000e+02 0.0000000000e+00 0.0000e+00 1.0000e+00
       11 -1    0    0    0    0 -0.0000000000e+00 -0.0000000000e+00 -5.0000000000e+02 5.0000000000e+02 0.0000000000e+00 0.0000e+00 -1.0000e+00
      -11  1    1    2    0    0 -6.2955269817e+00 +2.3210381430e+00 +4.5426992911e+02 4.5431947941e+02 0.0000000000e+00 0.0000e+00 1.0000e+00
       11  1    1    2    0    0 -2.8182388916e+01 +1.9184596110e+01 -4.8969640672e+02 4.9088172356e+02 0.0000000000e+00 0.0000e+00 -1.0000e+00
      -15  1    1    2    0    0 +4.2454551089e+00 -4.9428594712e+00 +2.8313463511e+00 7.3232506439e+00 1.7770000000e+00 0.0000e+00 1.0000e+00
       15  1    1    2    0    0 +3.0232460789e+01 -1.6562774782e+01 +3.2595131258e+01 4.7475546385e+01 1.7770000000e+00 0.0000e+00 -1.0000e+00
</event>
<event>
 6 1 7.08916e-05 4.79813600e+02 7.54677100e-03 9.44614700e-02
      -11 -1    0    0    0    0 +0.0000000000e+00 +0.0000000000e+00 +5.0000000000e+02 5.0000000000e+02 0.0000000000e+00 0.0000e+00 1.0000e+00
       11 -1    0    0    0    0 -0.0000000000e+00 -0.0000000000e+00 -5.0000000000e+02 5.0000000000e+02 0.0000000000e+00 0.0000e+00 -1.0000e+00
      -11  1    1    2    0    0 +1.4904813745e+01 -5.6226285732e+00 +4.8807923018e+02 4.8833912638e+02 0.0000000000e+00 0.0000e+00 1.0000e+00
       11  1    1    2    0    0 -1.9762630977e+01 +2.9980235259e+01 -1.6855466181e+01 3.9667150509e+01 0.0000000000e+00 0.0000e+00 -1.0000e+00
      -15  1    1    2    0    0 +2.9552071790e+00 -1.9096668327e+00 -4.5428171908e+01 4.5598866310e+01 1.7770000000e+00 0.0000e+00 -1.0000e+00
       15  1    1    2    0    0 +1.9026100528e+00 -2.2447939853e+01 -4.2579559209e+02 4.2639485680e+02 1.7770000000e+00 0.0000e+00 -1.0000e+00
</event>
<event>
 6 1 7.08916e-05 5.00333300e+02 7.54677100e-03 9.39906400e-02
      -11 -1    0    0    0    0 +0.0000000000e+00 +0.0000000000e+00 +5.0000000000e+02 5.0000000000e+02 0.0000000000e+00 0.0000e+00 1.0000e+00
       11 -1    0    0    0    0 -0.0000000000e+00 -0.0000000000e+00 -5.0000000000e+02 5.0000000000e+02 0.0000000000e+00 0.0000e+00 1.0000e+00
      -11  1    1    2    0    0 +9.7522835171e+00 +4.6248884956e+00 +4.9955013131e+02 4.9966671924e+02 0.0000000000e+00 0.0000e+00 1.0000e+00
       11  1    1    2    0    0 -8.8710767763e+00 +3.1049353821e+00 -2.4869015173e+02 2.4886769214e+02 0.0000000000e+00 0.0000e+00 1.0000e+00
      -15  1    1    2    0    0 -2.2324811598e+00 -1.2153374951e+01 -1.7748996971e+02 1.7792845633e+02 1.7770000000e+00 0.0000e+00 -1.0000e+00
       15  1    1    2    0    0 +1.3512744190e+00 +4.4235510737e+00 -7.3370009875e+01 7.3537132285e+01 1.7770000000e+00 0.0000e+00 1.0000e+00
</event>
<event>
 6 1 7.08916e-05 5.01200000e+02 7.54677100e-03 9.39712900e-02
      -11 -1    0    0    0    0 +0.0000000000e+00 +0.0000000000e+00 +5.0000000000e+02 5.0000000000e+02 0.0000000000e+00 0.0000e+00 1.0000e+00
       11 -1    0    0    0    0 -0.0000000000e+00 -0.0000000000e+00 -5.0000000000e+02 5.0000000000e+02 0.0000000000e+00 0.0000e+00 1.0000e+00
      -11  1    1    2    0    0 -1.3063632165e+01 +1.1080790071e+01 +4.9850573361e+02 4.9879996876e+02 0.0000000000e+00 0.0000e+00 1.0000e+00
       11  1    1    2    0    0 +1.0475176070e+01 -2.3153798009e+00 -4.3141791027e+02 4.3155127575e+02 0.0000000000e+00 0.0000e+00 1.0000e+00
      -15  1    1    2    0    0 -4.7800666337e+00 -6.4570938291e-01 -7.8828030418e+00 9.4107539776e+00 1.7770000000e+00 0.0000e+00 1.0000e+00
       15  1    1    2    0    0 +7.3685227284e+00 -8.1197008875e+00 -5.9205020292e+01 6.0238001515e+01 1.7770000000e+00 0.0000e+00 -1.0000e+00
</event>
<event>
 6 1 7.08916e-05 5.00866400e+02 7.54677100e-03 9.39787300e-02
      -11 -1    0    0    0    0 +0.0000000000e+00 +0.0000000000e+00 +5.0000000000e+02 5.0000000000e+02 0.0000000000e+00 0.0000e+00 -1.0000e+00
       11 -1    0    0    0    0 -0.0000000000e+00 -0.0000000000e+00 -5.0000000000e+02 5.0000000000e+02 0.0000000000e+00 0.0000e+00 1.0000e+00
      -11  1    1    2    0    0 +6.9243819908e+00 -7.3016340951e+00 +2.9153035635e+01 3.0840888657e+01 0.0000000000e+00 0.0000e+00 -1.0000e+00
       11  1    1    2    0    0 +2.2103335682e+00 +9.7236312820e+00 -4.9903401117e+02 4.9913362828e+02 0.0000000000e+00 0.0000e+00 1.0000e+00
      -15  1    1    2    0    0 -1.3196324195e+00 -2.8304833651e+00 +1.2875649497e+02 1.2880662169e+02 1.7770000000e+00 0.0000e+00 -1.0000e+00
       15  1    1    2    0    0 -7.8150831395e+00 +4.0848617808e-01 +3.4112448057e+02 3.4121886137e+02 1.7770000000e+00 0.0000e+00 -1.0000e+00
</event>
<event>
 6 1 7.08916e-05 5.00686900e+02 7.54677100e-03 9.39827400e-02
      -11 -1    0    0    0    0 +0.0000000000e+00 +0.0000000000e+00 +5.0000000000e+02 5.0000000000e+02 0.0000000000e+00 0.0000e+00 -1.0000e+00
       11 -1    0    0    0    0 -0.0000000000e+00 -0.0000000000e+00 -5.0000000000e+02 5.0000000000e+02 0.0000000000e+00 0.0000e+00 -1.0000e+00
      -11  1    1    2    0    0 -9.2500094934e+00 -8.1204400343e+00 +3.7234957652e+02 3.7255296450e+02 0.0000000000e+00 0.0000e+00 -1.0000e+00
       11  1    1    2    0    0 +9.8580557289e-01 +7.6316761069e+00 -4.9925378646e+02 4.9931308573e+02 0.0000000000e+00 0.0000e+00 -1.0000e+00
      -15  1    1    2    0    0 -1.2058026267e+00 -3.2737028457e+00 +9.5028467151e+00 1.0277787456e+01 1.7770000000e+00 0.0000e+00 1.0000e+00
       15  1    1    2    0    0 +9.4700065473e+00 +3.7624667731e+00 +1.1740136322e+02 1.1785616232e+02 1.7770000000e+00 0.0000e+00 -1.0000e+00
</event>
<event>
 6 1 7.08916e-05 5.02296700e+02 7.54677100e-03 9.39468500e-02
      -11 -1    0    0    0    0 +0.0000000000e+00 +0.0000000000e+00 +5.0000000000e+02 5.0000000000e+02 0.0000000000e+00 0.0000e+00 1.0000e+00
       11 -1    0    0    0    0 -0.0000000000e+00 -0.0000000000e+00 -5.0000000000e+02 5.0000000000e+02 0.0000000000e+00 0.0000e+00 1.0000e+00
      -11  1    1    2    0    0 -1.8076581092e+01 -1.8301577425e+00 +3.3914566838e+02 3.3963200179e+02 0.0000000000e+00 0.0000e+00 1.0000e+00
       11  1    1    2    0    0 -3.6034681210e+00 -6.1290617490e+00 -4.9765253529e+02 4.9770332153e+02 0.0000000000e+00 0.0000e+00 1.0000e+00
      -15  1    1    2    0    0 +1.3284343401e+01 +1.2139731284e+01 +4.1495325310e+01 4.5264407726e+01 1.7770000000e+00 0.0000e+00 1.0000e+00
       15  1    1    2    0    0 +8.3957058121e+00 -4.1805117924e+00 +1.1701154160e+02 1.1740026896e+02 1.7770000000e+00 0.0000e+00 -1.0000e+00
</event>
<event>
 6 1 7.08916e-05 5.01387600e+02 7.54677100e-03 9.39671000e-02
      -11 -1    0    0    0    0 +0.0000000000e+00 +0.0000000000e+00 +5.0000000000e+02 5.0000000000e+02 0.0000000000e+00 0.0000e+00 1.0000e+00
       11 -1    0    0    0    0 -0.0000000000e+00 -0.0000000000e+00 -5.0000000000e+02 5.0000000000e+02 0.0000000000e+00 0.0000e+00 1.0000e+00
      -11  1    1    2    0    0 -3.9336337627e+00 +9.1210081255e+00 +4.5345942963e+02 4.5356820941e+02 0.0000000000e+00 0.0000e+00 1.0000e+00
       11  1    1    2    0    0 +5.8706476349e+00 +3.3556416808e+00 -4.9856654284e+02 4.9861239703e+02 0.0000000000e+00 0.0000e+00 1.0000e+00
      -15  1    1    2    0    0 -1.8286004854e+00 +6.2906621187e-01 +8.4859215107e+00 8.8830229607e+00 1.7770000000e+00 0.0000e+00 -1.0000e+00
       15  1    1    2    0    0 -1.0841338667e-01 -1.3105716018e+01 +3.6621191691e+01 3.8936370603e+01 1.7770000000e+00 0.0000e+00 1.0000e+00
</event>
<event>
 6 1 7.08916e-05 5.01598600e+02 7.54677100e-03 9.39624000e-02
      -11 -1    0    0    0    0 +0.0000000000e+00 +0.0000000000e+00 +5.0000000000e+02 5.0000000000e+02 0.0000000000e+00 0.0000e+00 1.0000e+00
       11 -1    0    0    0    0 -0.0000000000e+00 -0.0000000000e+00 -5.0000000000e+02 5.0000000000e+02 0.0000000000e+00 0.0000e+00 -1.0000e+00
      -11  1    1    2    0    0 -7.4510802980e+00 -1.1399491465e+01 +4.9821530153e+02 4.9840139815e+02 0.0000000000e+00 0.0000e+00 1.0000e+00
       11  1    1    2    0    0 -1.3986256279e+01 -5.0683231868e+00 -2.0328111301e+02 2.0382471433e+02 0.0000000000e+00 0.0000e+00 -1.0000e+00
      -15  1    1    2    0    0 +4.3208508085e+00 +6.9620492714e-01 -1.9844964474e+02 1.9850585301e+02 1.7770000000e+00 0.0000e+00 1.0000e+00
       15  1    1    2    0    0 +1.7116485769e+01 +1.5771609725e+01 -9.6484543772e+01 9.9268034504e+01 1.7770000000e+00 0.0000e+00 -1.0000e+00
</event>
<event>
 6 1 7.08916e-05 4.88410100e+02 7.54677100e-03 9.42612300e-02
      -11 -1    0    0    0    0 +0.0000000000e+00 +0.0000000000e+00 +5.0000000000e+02 5.0000000000e+02 0.0000000000e+00 0.0000e+00 1.0000e+00
       11 -1    0    0    0    0 -0.0000000000e+00 -0.0000000000e+00 -5.0000000000e+02 5.0000000000e+02 0.0000000000e+00 0.0000e+00 -1.0000e+00
      -11  1    1    2    0    0 +8.7270092797e+00 -9.3804859235e+00 +4.8606502550e+02 4.8623385652e+02 0.0000000000e+00 0.0000e+00 1.0000e+00
       11  1    1    2    0    0 -1.2343190313e+01 -1.0685595851e+01 -4.9053772956e+02 4.9080933205e+02 0.0000000000e+00 0.0000e+00 -1.0000e+00
      -15  1    1    2    0    0 +5.9727222948e+00 +1.7152143711e+01 +2.7055580682e+00 1.8448501807e+01 1.7770000000e+00 0.0000e+00 1.0000e+00
       15  1    1    2    0    0 -2.3565412617e+00 +2.9139380643e+00 +1.7671459857e+00 4.5083096273e+00 1.7770000000e+00 0.0000e+00 -1.0000e+00
</event>
<event>
 6 1 7.08916e-05 5.00870000e+02 7.54677100e-03 9.39786500e-02
      -11 -1    0    0    0    0 +0.0000000000e+00 +0.0000000000e+00 +5.0000000000e+02 5.0000000000e+02 0.0000000000e+00 0.0000e+00 -1.0000e+00
       11 -1    0    0    0    0 -0.0000000000e+00 -0.0000000000e+00 -5.0000000000e+02 5.0000000000e+02 0.0000000000e+00 0.0000e+00 -1.0000e+00
      -11  1    1    2    0    0 +6.7115700979e+00 +1.6511657043e+01 +3.8997914508e+02 3.9038623642e+02 0.0000000000e+00 0.0000e+00 -1.0000e+00
       11  1    1    2    0    0 +2.8269387461e+00 -6.6384283442e+00 -4.9907784493e+02 4.9912999871e+02 0.0000000000e+00 0.0000e+00 -1.0000e+00
      -15  1    1    2    0    0 -2.3999969429e+00 +1.7195439493e+00 +1.5139191270e+01 1.5526418068e+01 1.7770000000e+00 0.0000e+00 -1.0000e+00
       15  1    1    2    0    0 -7.1385119011e+00 -1.1592772649e+01 +9.3959508581e+01 9.4957346802e+01 1.7770000000e+00 0.0000e+00 1.0000e+00
</event>
<event>
 6 1 7.08916e-05 5.11940300e+02 7.54677100e-03 9.37348200e-02
      -11 -1    0    0    0    0 +0.0000000000e+00 +0.0000000000e+00 +5.0000000000e+02 5.0000000000e+02 0.0000000000e+00 0.0000e+00 -1.0000e+00
       11 -1    0    0    0    0 -0.0000000000e+00 -0.0000000000e+00 -5.0000000000e+02 5.0000000000e+02 0.0000000000e+00 0.0000e+00 -1.0000e+00
      -11  1    1    2    0    0 +5.6116551635e-01 -3.2455094008e+00 +1.1558676444e+01 1.2018786925e+01 0.0000000000e+00 0.0000e+00 -1.0000e+00
       11  1    1    2    0    0 -2.6677307290e+01 +9.9120505974e+00 -4.8076329336e+02 4.8160489171e+02 0.0000000000e+00 0.0000e+00 -1.0000e+00
      -15  1    1    2    0    0 -6.8377823861e+01 -2.3634662605e+01 +3.2615714745e+02 3.3408945903e+02 1.7770000000e+00 0.0000e+00 -1.0000e+00
       15  1    1    2    0    0 +9.4493965635e+01 +1.6968121408e+01 +1.4304746947e+02 1.7228686234e+02 1.7770000000e+00 0.0000e+00 1.0000e+00
</event>
<event>
 6 1 7.08916e-05 5.01028600e+02 7.54677100e-03 9.39751100e-02
      -11 -1    0    0    0    0 +0.0000000000e+00 +0.0000000000e+00 +5.0000000000e+02 5.0000000000e+02 0.0000000000e+00 0.0000e+00 1.0000e+00
       11 -1    0    0    0    0 -0.0000000000e+00 -0.0000000000e+00 -5.0000000000e+02 5.0000000000e+02 0.0000000000e+00 0.0000e+00 -1.0000e+00
      -11  1    1    2    0    0 -3.2944728432e-01 +6.8288273790e+00 +3.1313001999e+02 3.1320464690e+02 0.0000000000e+00 0.0000e+00 1.0000e+00
       11  1    1    2    0    0 -8.1945662268e-01 -9.8484275770e+00 -4.9887356315e+02 4.9897143711e+02 0.0000000000e+00 0.0000e+00 -1.0000e+00
      -15  1    1    2    0    0 -6.8623534319e+00 +1.0516508904e+01 +1.4616747086e+02 1.4671665250e+02 1.7770000000e+00 0.0000e+00 1.0000e+00
       15  1    1    2    0    0 +8.0112573389e+00 -7.4969087059e+00 +3.9576072301e+01 4.1107263495e+01 1.7770000000e+00 0.0000e+00 -1.0000e+00
</event>
<event>
 6 1 7.08916e-05 5.00716400e+02 7.54677100e-03 9.39820800e-02
      -11 -1    0    0    0    0 +0.0000000000e+00 +0.0000000000e+00 +5.0000000000e+02 5.0000000000e+02 0.0000000000e+00 0.0000e+00 1.0000e+00
       11 -1    0    0    0    0 -0.0000000000e+00 -0.0000000000e+00 -5.0000000000e+02 5.0000000000e+02 0.0000000000e+00 0.0000e+00 -1.0000e+00
      -11  1    1    2    0    0 -1.9033097385e+00 -8.4249116431e+00 +3.4608408694e+02 3.4619184993e+02 0.0000000000e+00 0.0000e+00 1.0000e+00
       11  1    1    2    0    0 -9.5030483023e+00 -7.5848728406e+00 -4.9913556793e+02 4.9928364022e+02 0.0000000000e+00 0.0000e+00 -1.0000e+00
      -15  1    1    2    0    0 +9.6805982203e+00 +1.1689423528e+01 +9.1058774370e+01 9.2332089347e+01 1.7770000000e+00 0.0000e+00 -1.0000e+00
       15  1    1    2    0    0 +1.7257598205e+00 +4.3203609560e+00 +6.1992706613e+01 6.2192420502e+01 1.7770000000e+00 0.0000e+00 1.0000e+00
</event>
<event>
 6 1 7.08916e-05 5.23678900e+02 7.54677100e-03 9.34833100e-02
      -11 -1    0    0    0    0 +0.0000000000e+00 +0.0000000000e+00 +5.0000000000e+02 5.0000000000e+02 0.0000000000e+00 0.0000e+00 -1.0000e+00
       11 -1    0    0    0    0 -0.0000000000e+00 -0.0000000000e+00 -5.0000000000e+02 5.0000000000e+02 0.0000000000e+00 0.0000e+00 1.0000e+00
      -11  1    1    2    0    0 +7.6817359283e+00 +4.3117926608e+00 +4.7623958751e+02 4.7632105279e+02 0.0000000000e+00 0.0000e+00 -1.0000e+00
       11  1    1    2    0    0 -1.7688360332e+00 -8.3618390865e+00 -4.6942426212e+02 4.6950206283e+02 0.0000000000e+00 0.0000e+00 1.0000e+00
      -15  1    1    2    0    0 -2.9964102375e+00 +6.8234193012e+00 -2.9803018087e+01 3.0771986308e+01 1.7770000000e+00 0.0000e+00 1.0000e+00
       15  1    1    2    0    0 -2.9164896575e+00 -2.7733728754e+00 +2.2987692702e+01 2.3404898072e+01 1.7770000000e+00 0.0000e+00 -1.0000e+00
</event>
<event>
 6 1 7.08916e-05 5.02272300e+02 7.54677100e-03 9.39474000e-02
      -11 -1    0    0    0    0 +0.0000000000e+00 +0.0000000000e+00 +5.0000000000e+02 5.0000000000e+02 0.0000000000e+00 0.0000e+00 -1.0000e+00
       11 -1    0    0    0    0 -0.0000000000e+00 -0.0000000000e+00 -5.0000000000e+02 5.0000000000e+02 0.0000000000e+00 0.0000e+00 -1.0000e+00
      -11  1    1    2    0    0 -5.8829495447e+00 -4.7599024054e+00 +4.9767014131e+02 4.9772767184e+02 0.0000000000e+00 0.0000e+00 -1.0000e+00
       11  1    1    2    0    0 +5.0506291679e+00 +5.9747874777e+00 -4.8985273213e+02 4.8991520298e+02 0.0000000000e+00 0.0000e+00 -1.0000e+00
      -15  1    1    2    0    0 +2.6236586899e+00 +2.7000715191e+00 -6.1160201000e+00 7.3984729501e+00 1.7770000000e+00 0.0000e+00 -1.0000e+00
       15  1    1    2    0    0 -1.7913383132e+00 -3.9149565915e+00 -1.7013890835e+00 4.9586522240e+00 1.7770000000e+00 0.0000e+00 1.0000e+00
</event>
<event>
 6 1 7.08916e-05 5.00821500e+02 7.54677100e-03 9.39797300e-02
      -11 -1    0    0    0    0 +0.0000000000e+00 +0.0000000000e+00 +5.0000000000e+02 5.0000000000e+02 0.0000000000e+00 0.0000e+00 1.0000e+00
       11 -1    0    0    0    0 -0.0000000000e+00 -0.0000000000e+00 -5.0000000000e+02 5.0000000000e+02 0.0000000000e+00 0.0000e+00 -1.0000e+00
      -11  1    1    2    0    0 -9.1492510689e+00 +2.9876581111e+00 +2.9078183851e+02 2.9094108081e+02 0.0000000000e+00 0.0000e+00 1.0000e+00
       11  1    1    2    0    0 -1.4883458854e+01 -2.2143566146e+00 -4.9895167908e+02 4.9917852396e+02 0.0000000000e+00 0.0000e+00 -1.0000e+00
      -15  1    1    2    0    0 +5.5494956598e+00 -4.9180169138e+00 +5.2043749009e+01 5.2599366273e+01 1.7770000000e+00 0.0000e+00 -1.0000e+00
       15  1    1    2    0    0 +1.8483214263e+01 +4.1447154173e+00 +1.5612609156e+02 1.5728102896e+02 1.7770000000e+00 0.0000e+00 1.0000e+00
</event>
<event>
 6 1 7.08916e-05 5.00338700e+02 7.54677100e-03 9.39905200e-02
      -11 -1    0    0    0    0 +0.0000000000e+00 +0.0000000000e+00 +5.0000000000e+02 5.0000000000e+02 0.0000000000e+00 0.0000e+00 -1.0000e+00
       11 -1    0    0    0    0 -0.0000000000e+00 -0.0000000000e+00 -5.0000000000e+02 5.0000000000e+02 0.0000000000e+00 0.0000e+00 1.0000e+00
      -11  1    1    2    0    0 +5.2741056642e+00 +1.2463109769e+01 +2.0033931628e+02 2.0079588378e+02 0.0000000000e+00 0.0000e+00 -1.0000e+00
       11  1    1    2    0    0 +3.7880737244e+00 -1.1670209533e+01 -4.9951062212e+02 4.9966129018e+02 0.0000000000e+00 0.0000e+00 1.0000e+00
      -15  1    1    2    0    0 -6.3593861707e+00 +1.5524548817e+00 +2.7148393808e+02 2.7156866217e+02 1.7770000000e+00 0.0000e+00 -1.0000e+00
       15  1    1    2    0    0 -2.7027932179e+00 -2.3453551181e+00 +2.7687367762e+01 2.7974163873e+01 1.7770000000e+00 0.0000e+00 -1.0000e+00
</event>
<event>
 6 1 7.08916e-05 5.22662800e+02 7.54677100e-03 9.35048100e-02
      -11 -1    0    0    0    0 +0.0000000000e+00 +0.0000000000e+00 +5.0000000000e+02 5.0000000000e+02 0.0000000000e+00 0.0000e+00 -1.0000e+00
       11 -1    0    0    0    0 -0.0000000000e+00 -0.0000000000e+00 -5.0000000000e+02 5.0000000000e+02 0.0000000000e+00 0.0000e+00 1.0000e+00
      -11  1    1    2    0    0 +5.2616129473e+00 +4.8974896372e+00 +4.7728304429e+02 4.7733717050e+02 0.0000000000e+00 0.0000e+00 -1.0000e+00
       11  1    1    2    0    0 -7.5938498764e+00 +5.7436430844e+00 -3.2254045945e+02 3.2268096314e+02 0.0000000000e+00 0.0000e+00 1.0000e+00
      -15  1    1    2    0    0 +5.1587584565e+01 -2.4590543748e+01 -1.3216690223e+02 1.4400424125e+02 1.7770000000e+00 0.0000e+00 -1.0000e+00
       15  1    1    2    0    0 -4.9255347636e+01 +1.3949411026e+01 -2.2575682610e+01 5.5977625111e+01 1.7770000000e+00 0.0000e+00 1.0000e+00
</event>
<event>
 6 1 7.08916e-05 5.01976100e+02 7.54677100e-03 9.39539900e-02
      -11 -1    0    0    0    0 +0.0000000000e+00 +0.0000000000e+00 +5.0000000000e+02 5.0000000000e+02 0.0000000000e+00 0.0000e+00 1.0000e+00
       11 -1    0    0    0    0 -0.0000000000e+00 -0.0000000000e+00 -5.0000000000e+02 5.0000000000e+02 0.0000000000e+00 0.0000e+00 1.0000e+00
      -11  1    1    2    0    0 +5.5045324858e+00 -9.0914635420e+00 +1.4984441365e+02 1.5022084705e+02 0.0000000000e+00 0.0000e+00 1.0000e+00
       11  1    1    2    0    0 +7.6231972356e+00 -3.1836152600e+00 -4.9795542331e+02 4.9802394737e+02 0.0000000000e+00 0.0000e+00 1.0000e+00
      -15  1    1    2    0    0 +3.5733050538e+00 -2.0547578928e+00 +1.9551540853e+00 4.8960081192e+00 1.7770000000e+00 0.0000e+00 -1.0000e+00
       15  1    1    2    0    0 -1.6701034775e+01 +1.4329836695e+01 +3.4615585558e+02 3.4685919746e+02 1.7770000000e+00 0.0000e+00 1.0000e+00
</event>
<event>
 6 1 7.08916e-05 5.13113500e+02 7.54677100e-03 9.37093600e-02
      -11 -1    0    0    0    0 +0.0000000000e+00 +0.0000000000e+00 +5.0000000000e+02 5.0000000000e+02 0.0000000000e+00 0.0000e+00 -1.0000e+00
       11 -1    0    0    0    0 -0.0000000000e+00 -0.0000000000e+00 -5.0000000000e+02 5.0000000000e+02 0.0000000000e+00 0.0000e+00 1.0000e+00
      -11  1    1    2    0    0 +5.3150221166e+01 -4.0367490399e+01 +3.0204690447e+02 3.0933285113e+02 0.0000000000e+00 0.0000e+00 -1.0000e+00
       11  1    1    2    0    0 +4.1716126155e+00 -1.7694182299e+01 -4.8654694544e+02 4.8688645140e+02 0.0000000000e+00 0.0000e+00 1.0000e+00
      -15  1    1    2    0    0 -5.2319447198e+01 +5.4894632793e+01 +1.8188517928e+02 1.9706882410e+02 1.7770000000e+00 0.0000e+00 1.0000e+00
       15  1    1    2    0    0 -5.0023865844e+00 +3.1670399044e+00 +2.6148616965e+00 6.7118733590e+00 1.7770000000e+00 0.0000e+00 -1.0000e+00
</event>
<event>
 6 1 7.08916e-05 5.07488900e+02 7.54677100e-03 9.38320700e-02
      -11 -1    0    0    0    0 +0.0000000000e+00 +0.0000000000e+00 +5.0000000000e+02 5.0000000000e+02 0.0000000000e+00 0.0000e+00 -1.0000e+00
       11 -1    0    0    0    0 -0.0000000000e+00 -0.0000000000e+00 -5.0000000000e+02 5.0000000000e+02 0.0000000000e+00 0.0000e+00 -1.0000e+00
      -11  1    1    2    0    0 -2.0011036259e+01 -3.6269425370e+01 +4.9076600116e+02 4.9251109702e+02 0.0000000000e+00 0.0000e+00 -1.0000e+00
       11  1    1    2    0    0 -4.6894810247e+00 +2.2680239068e+01 -3.8308775388e+02 3.8378719579e+02 0.0000000000e+00 0.0000e+00 -1.0000e+00
      -15  1    1    2    0    0 +1.3614294700e+01 +3.1605976466e+01 -4.0123364731e+01 5.2889780628e+01 1.7770000000e+00 0.0000e+00 -1.0000e+00
       15  1    1    2    0    0 +1.1086222584e+01 -1.8016790164e+01 -6.7554882550e+01 7.0811926568e+01 1.7770000000e+00 0.0000e+00 1.0000e+00
</event>
<event>
 6 1 7.08916e-05 5.47458700e+02 7.54677100e-03 9.29946200e-02
      -11 -1    0    0    0    0 +0.0000000000e+00 +0.0000000000e+00 +5.0000000000e+02 5.0000000000e+02 0.0000000000e+00 0.0000e+00 -1.0000e+00
       11 -1    0    0    0    0 -0.0000000000e+00 -0.0000000000e+00 -5.0000000000e+02 5.0000000000e+02 0.0000000000e+00 0.0000e+00 -1.0000e+00
      -11  1    1    2    0    0 -9.7660653532e+00 +2.4897018600e+01 +4.5175032213e+02 4.5254125902e+02 0.0000000000e+00 0.0000e+00 -1.0000e+00
       11  1    1    2    0    0 +2.5143427020e+01 -1.7136448432e+01 -4.2573729242e+02 4.2682325610e+02 0.0000000000e+00 0.0000e+00 -1.0000e+00
      -15  1    1    2    0    0 +8.5817921078e+00 -1.0459287357e+01 +4.4262270680e+01 4.6317925067e+01 1.7770000000e+00 0.0000e+00 1.0000e+00
       15  1    1    2    0    0 -2.3959153775e+01 +2.6987171886e+00 -7.0275300385e+01 7.4317559817e+01 1.7770000000e+00 0.0000e+00 -1.0000e+00
</event>
<event>
 6 1 7.08916e-05 5.04295100e+02 7.54677100e-03 9.39025000e-02
      -11 -1    0    0    0    0 +0.0000000000e+00 +0.0000000000e+00 +5.0000000000e+02 5.0000000000e+02 0.0000000000e+00 0.0000e+00 -1.0000e+00
       11 -1    0    0    0    0 -0.0000000000e+00 -0.0000000000e+00 -5.0000000000e+02 5.0000000000e+02 0.0000000000e+00 0.0000e+00 -1.0000e+00
      -11  1    1    2    0    0 +1.7798609051e+00 -9.9225115670e+00 +4.3789022668e+02 4.3800624969e+02 0.0000000000e+00 0.0000e+00 -1.0000e+00
       11  1    1    2    0    0 -2.5213784900e+01 +2.3527785619e+00 -4.9505763712e+02 4.9570488658e+02 0.0000000000e+00 0.0000e+00 -1.0000e+00
      -15  1    1    2    0    0 +4.8186136433e+00 +1.2598446923e+01 +1.7677849378e+01 2.2307039022e+01 1.7770000000e+00 0.0000e+00 -1.0000e+00
       15  1    1    2    0    0 +1.8615310352e+01 -5.0287139180e+00 +3.9489561057e+01 4.3981824708e+01 1.7770000000e+00 0.0000e+00 1.0000e+00
</event>
<event>
 6 1 7.08916e-05 5.01733300e+02 7.54677100e-03 9.39594000e-02
      -11 -1    0    0    0    0 +0.0000000000e+00 +0.0000000000e+00 +5.0000000000e+02 5.0000000000e+02 0.0000000000e+00 0.0000e+00 1.0000e+00
       11 -1    0    0    0    0 -0.0000000000e+00 -0.0000000000e+00 -5.0000000000e+02 5.0000000000e+02 0.0000000000e+00 0.0000e+00 -1.0000e+00
      -11  1    1    2    0    0 +2.0989599952e+01 -4.2467970506e+00 +4.9780625449e+02 4.9826666114e+02 0.0000000000e+00 0.0000e+00 1.0000e+00
       11  1    1    2    0    0 +2.2820037347e+00 +7.4035088133e+00 -3.9163817051e+02 3.9171478921e+02 0.0000000000e+00 0.0000e+00 -1.0000e+00
      -15  1    1    2    0    0 -1.9557823169e+01 -8.9225133990e+00 -8.5098340836e+01 8.7789549688e+01 1.7770000000e+00 0.0000e+00 -1.0000e+00
       15  1    1    2    0    0 -3.7137805183e+00 +5.7658016362e+00 -2.1069743142e+01 2.2228999962e+01 1.7770000000e+00 0.0000e+00 1.0000e+00
</event>
<event>
 6 1 7.08916e-05 5.07814800e+02 7.54677100e-03 9.38249100e-02
      -11 -1    0    0    0    0 +0.0000000000e+00 +0.0000000000e+00 +5.0000000000e+02 5.0000000000e+02 0.0000000000e+00 0.0000e+00 -1.0000e+00
       11 -1    0    0    0    0 -0.0000000000e+00 -0.0000000000e+00 -5.0000000000e+02 5.0000000000e+02 0.0000000000e+00 0.0000e+00 -1.0000e+00
      -11  1    1    2    0    0 +7.2793514325e+00 +9.6648585248e-02 +4.3398308373e+02 4.3404413976e+02 0.0000000000e+00 0.0000e+00 -1.0000e+00
       11  1    1    2    0    0 +6.7008277684e+00 -1.7146651324e+01 -4.9184077801e+02 4.9218518837e+02 0.0000000000e+00 0.0000e+00 -1.0000e+00
      -15  1    1    2    0    0 -5.9975371187e+00 +2.0420454789e+01 +7.4902524678e+00 2.2632433283e+01 1.7770000000e+00 0.0000e+00 1.0000e+00
       15  1    1    2    0    0 -7.9826420822e+00 -3.3704520499e+00 +5.0367441813e+01 5.1138238584e+01 1.7770000000e+00 0.0000e+00 -1.0000e+00
</event>
<event>
 6 1 7.08916e-05 5.00160500e+02 7.54677100e-03 9.39945100e-02
      -11 -1    0    0    0    0 +0.0000000000e+00 +0.0000000000e+00 +5.0000000000e+02 5.0000000000e+02 0.0000000000e+00 0.0000e+00 -1.0000e+00
       11 -1    0    0    0    0 -0.0000000000e+00 -0.0000000000e+00 -5.0000000000e+02 5.0000000000e+02 0.0000000000e+00 0.0000e+00 -1.0000e+00
      -11  1    1    2    0    0 +6.0161880422e+00 +8.2863824629e+00 +2.0899318532e+02 2.0924390113e+02 0.0000000000e+00 0.0000e+00 -1.0000e+00
       11  1    1    2    0    0 -4.0490138225e-01 -7.6166627978e+00 -4.9978130964e+02 4.9983950920e+02 0.0000000000e+00 0.0000e+00 -1.0000e+00
      -15  1    1    2    0    0 -5.0469614979e+00 -2.5877935252e+00 +2.1065640626e+02 2.1074023755e+02 1.7770000000e+00 0.0000e+00 -1.0000e+00
       15  1    1    2    0    0 -5.6432516204e-01 +1.9180738600e+00 +8.0131718062e+01 8.0176352117e+01 1.7770000000e+00 0.0000e+00 -1.0000e+00
</event>
<event>
 6 1 7.08916e-05 5.00383900e+02 7.54677100e-03 9.39895100e-02
      -11 -1    0    0    0    0 +0.0000000000e+00 +0.0000000000e+00 +5.0000000000e+02 5.0000000000e+02 0.0000000000e+00 0.0000e+00 -1.0000e+00
       11 -1    0    0    0    0 -0.0000000000e+00 -0.0000000000e+00 -5.0000000000e+02 5.0000000000e+02 0.0000000000e+00 0.0000e+00 1.0000e+00
      -11  1    1    2    0    0 +3.2665822489e+00 +1.1343337063e+00 +1.9028906217e+02 1.9032047828e+02 0.0000000000e+00 0.0000e+00 -1.0000e+00
       11  1    1    2    0    0 +7.8009199917e+00 +2.2785830433e+00 -4.9955002230e+02 4.9961612371e+02 0.0000000000e+00 0.0000e+00 1.0000e+00
      -15  1    1    2    0    0 +4.2807843679e+00 -1.3401258089e+00 +1.4080730567e+02 1.4088994326e+02 1.7770000000e+00 0.0000e+00 -1.0000e+00
       15  1    1    2    0    0 -1.5348286609e+01 -2.0727909407e+00 +1.6845365446e+02 1.6917345475e+02 1.7770000000e+00 0.0000e+00 1.0000e+00
</event>
<event>
 6 1 7.08916e-05 5.31986300e+02 7.54677100e-03 9.33095100e-02
      -11 -1    0    0    0    0 +0.0000000000e+00 +0.0000000000e+00 +5.0000000000e+02 5.0000000000e+02 0.0000000000e+00 0.0000e+00 -1.0000e+00
       11 -1    0    0    0    0 -0.0000000000e+00 -0.0000000000e+00 -5.0000000000e+02 5.0000000000e+02 0.0000000000e+00 0.0000e+00 -1.0000e+00
      -11  1    1    2    0    0 -5.2734494320e+00 +2.3629681215e+00 +3.6171054959e+02 3.6175670633e+02 0.0000000000e+00 0.0000e+00 -1.0000e+00
       11  1    1    2    0    0 +1.0504366908e+01 -3.6234248237e+01 -4.6649063871e+02 4.6801365202e+02 0.0000000000e+00 0.0000e+00 -1.0000e+00
      -15  1    1    2    0    0 -1.0881700486e+01 +5.1024608787e+01 -1.0737624324e+01 5.3295181888e+01 1.7770000000e+00 0.0000e+00 -1.0000e+00
       15  1    1    2    0    0 +5.6507830104e+00 -1.7153328672e+01 +1.1551771344e+02 1.1693445976e+02 1.7770000000e+00 0.0000e+00 1.0000e+00
</event>
<event>
 6 1 7.08916e-05 5.03320200e+02 7.54677100e-03 9.39241100e-02
      -11 -1    0    0    0    0 +0.0000000000e+00 +0.0000000000e+00 +5.0000000000e+02 5.0000000000e+02 0.0000000000e+00 0.0000e+00 -1.0000e+00
       11 -1    0    0    0    0 -0.0000000000e+00 -0.0000000000e+00 -5.0000000000e+02 5.0000000000e+02 0.0000000000e+00 0.0000e+00 1.0000e+00
      -11  1    1    2    0    0 +5.6174942091e+00 +5.8824564718e+00 +4.1757179033e+02 4.1765100217e+02 0.0000000000e+00 0.0000e+00 -1.0000e+00
       11  1    1    2    0    0 -4.1687563879e+00 +1.2467569825e+01 -4.9650580147e+02 4.9667980603e+02 0.0000000000e+00 0.0000e+00 1.0000e+00
      -15  1    1    2    0    0 +1.4894004661e+00 -5.9560139355e+00 +7.5091728740e-01 6.4353726792e+00 1.7770000000e+00 0.0000e+00 1.0000e+00
       15  1    1    2    0    0 -2.9381382872e+00 -1.2394012361e+01 +7.8183093852e+01 7.9233819120e+01 1.7770000000e+00 0.0000e+00 -1.0000e+00
</event>
<event>
 6 1 7.08916e-05 5.02485000e+02 7.54677100e-03 9.39426600e-02
      -11 -1    0    0    0    0 +0.0000000000e+00 +0.0000000000e+00 +5.0000000000e+02 5.0000000000e+02 0.0000000000e+00 0.0000e+00 -1.0000e+00
       11 -1    0    0    0    0 -0.0000000000e+00 -0.0000000000e+00 -5.0000000000e+02 5.0000000000e+02 0.0000000000e+00 0.0000e+00 -1.0000e+00
      -11  1    1    2    0    0 -1.0120243293e+01 +3.2246545371e+00 +3.6080601343e+02 3.6096232082e+02 0.0000000000e+00 0.0000e+00 -1.0000e+00
       11  1    1    2    0    0 +6.5218567538e+00 +6.9060197487e+00 -4.9742428705e+02 4.9751497371e+02 0.0000000000e+00 0.0000e+00 -1.0000e+00
      -15  1    1    2    0    0 -3.4343827893e+00 -3.0613923533e+00 +4.2169897828e-01 4.9500169002e+00 1.7770000000e+00 0.0000e+00 1.0000e+00
       15  1    1    2    0    0 +7.0327693281e+00 -7.0692819326e+00 +1.3619657464e+02 1.3657268857e+02 1.7770000000e+00 0.0000e+00 -1.0000e+00
</event>
<event>
 6 1 7.08916e-05 5.00777900e+02 7.54677100e-03 9.39807100e-02
      -11 -1    0    0    0    0 +0.0000000000e+00 +0.0000000000e+00 +5.0000000000e+02 5.0000000000e+02 0.0000000000e+00 0.0000e+00 1.0000e+00
       11 -1    0    0    0    0 -0.0000000000e+00 -0.0000000000e+00 -5.0000000000e+02 5.0000000000e+02 0.0000000000e+00 0.0000e+00 1.0000e+00
      -11  1    1    2    0    0 +1.0430195538e+01 +1.0440391587e+00 +4.9911203442e+02 4.9922209677e+02 0.0000000000e+00 0.0000e+00 1.0000e+00
       11  1    1    2    0    0 -3.9233679877e+00 +2.2948100770e+00 -3.2024784958e+02 3.2028010261e+02 0.0000000000e+00 0.0000e+00 1.0000e+00
      -15  1    1    2    0    0 -1.0067351630e+01 -2.6241001600e+00 -1.7329345189e+02 1.7361456065e+02 1.7770000000e+00 0.0000e+00 1.0000e+00
       15  1    1    2    0    0 +3.5605240800e+00 -7.1474907567e-01 -5.5707329492e+00 6.8832399753e+00 1.7770000000e+00 0.0000e+00 1.0000e+00
</event>
<event>
 6 1 7.08916e-05 5.00053400e+02 7.54677100e-03 9.39969000e-02
      -11 -1    0    0    0    0 +0.0000000000e+00 +0.0000000000e+00 +5.0000000000e+02 5.0000000000e+02 0.0000000000e+00 0.0000e+00 1.0000e+00
       11 -1    0    0    0    0 -0.0000000000e+00 -0.0000000000e+00 -5.0000000000e+02 5.0000000000e+02 0.0000000000e+00 0.0000e+00 -1.0000e+00
      -11  1    1    2    0    0 -7.1859905427e+00 +8.5977129019e-01 +4.9989417027e+02 4.9994655628e+02 0.0000000000e+00 0.0000e+00 1.0000e+00
       11  1    1    2    0    0 +6.2647280026e+00 +3.0771936088e+00 -3.0138463670e+02 3.0146544607e+02 0.0000000000e+00 0.0000e+00 -1.0000e+00
      -15  1    1    2    0    0 +4.9065373325e-01 -2.6387657707e+00 -1.3645249865e+02 1.3649046100e+02 1.7770000000e+00 0.0000e+00 -1.0000e+00
       15  1    1    2    0    0 +4.3060880684e-01 -1.2981991282e+00 -6.2057034928e+01 6.2097536650e+01 1.7770000000e+00 0.0000e+00 -1.0000e+00
</event>
<event>
 6 1 7.08916e-05 5.15160700e+02 7.54677100e-03 9.36651100e-02
      -11 -1    0    0    0    0 +0.0000000000e+00 +0.0000000000e+00 +5.0000000000e+02 5.0000000000e+02 0.0000000000e+00 0.0000e+00 1.0000e+00
       11 -1    0    0    0    0 -0.0000000000e+00 -0.0000000000e+00 -5.0000000000e+02 5.0000000000e+02 0.0000000000e+00 0.0000e+00 -1.0000e+00
      -11  1    1    2    0    0 +2.2867698428e+01 -1.1376955771e+01 +4.8416607080e+02 4.8483930417e+02 0.0000000000e+00 0.0000e+00 1.0000e+00
       11  1    1    2    0    0 -1.0864092676e+01 -4.0944417985e+00 -4.5486770531e+02 4.5501584840e+02 0.0000000000e+00 0.0000e+00 -1.0000e+00
      -15  1    1    2    0    0 +1.8219051023e+01 +1.1780179113e+01 -9.2862173806e+00 2.3666389720e+01 1.7770000000e+00 0.0000e+00 1.0000e+00
       15  1    1    2    0    0 -3.0222656776e+01 +3.6912184564e+00 -2.0012148109e+01 3.6478457714e+01 1.7770000000e+00 0.0000e+00 -1.0000e+00
</event>
<event>
 6 1 7.08916e-05 5.01098900e+02 7.54677100e-03 9.39735400e-02
      -11 -1    0    0    0    0 +0.0000000000e+00 +0.0000000000e+00 +5.0000000000e+02 5.0000000000e+02 0.0000000000e+00 0.0000e+00 1.0000e+00
       11 -1    0    0    0    0 -0.0000000000e+00 -0.0000000000e+00 -5.0000000000e+02 5.0000000000e+02 0.0000000000e+00 0.0000e+00 -1.0000e+00
      -11  1    1    2    0    0 +6.5434584417e+00 +1.3864560786e+01 +2.3741510669e+02 2.3790959581e+02 0.0000000000e+00 0.0000e+00 1.0000e+00
       11  1    1    2    0    0 -3.8391698296e+00 -1.2182767930e+01 -4.9873759438e+02 4.9890113961e+02 0.0000000000e+00 0.0000e+00 -1.0000e+00
      -15  1    1    2    0    0 -3.6152561837e+00 -7.2434517145e+00 +2.5209869407e+02 2.5223490431e+02 1.7770000000e+00 0.0000e+00 1.0000e+00
       15  1    1    2    0    0 +9.1096757149e-01 +5.5616588588e+00 +9.2237936148e+00 1.0954360266e+01 1.7770000000e+00 0.0000e+00 -1.0000e+00
</event>
<event>
 6 1 7.08916e-05 4.92678400e+02 7.54677100e-03 9.41634300e-02
      -11 -1    0    0    0    0 +0.0000000000e+00 +0.0000000000e+00 +5.0000000000e+02 5.0000000000e+02 0.0000000000e+00 0.0000e+00 -1.0000e+00
       11 -1    0    0    0    0 -0.0000000000e+00 -0.0000000000e+00 -5.0000000000e+02 5.0000000000e+02 0.0000000000e+00 0.0000e+00 -1.0000e+00
      -11  1    1    2    0    0 +3.0124804716e+00 +9.3268558274e+00 +4.9316113295e+02 4.9325852079e+02 0.0000000000e+00 0.0000e+00 -1.0000e+00
       11  1    1    2    0    0 -5.8231743209e+00 -3.6199162549e+00 -4.9207161511e+02 4.9211938343e+02 0.0000000000e+00 0.0000e+00 -1.0000e+00
      -15  1    1    2    0    0 +3.3119677807e+00 +1.7800668115e+00 -4.5549413624e+00 6.1678998247e+00 1.7770000000e+00 0.0000e+00 -1.0000e+00
       15  1    1    2    0    0 -5.0127393134e-01 -7.4870063839e+00 +3.4654235177e+00 8.4541959585e+00 1.7770000000e+00 0.0000e+00 1.0000e+00
</event>
<event>
 6 1 7.08916e-05 5.10582800e+02 7.54677100e-03 9.37643600e-02
      -11 -1    0    0    0    0 +0.0000000000e+00 +0.0000000000e+00 +5.0000000000e+02 5.0000000000e+02 0.0000000000e+00 0.0000e+00 -1.0000e+00
       11 -1    0    0    0    0 -0.0000000000e+00 -0.0000000000e+00 -5.0000000000e+02 5.0000000000e+02 0.0000000000e+00 0.0000e+00 -1.0000e+00
      -11  1    1    2    0    0 -5.8773506255e+00 -2.9966783233e+00 +4.8937273099e+02 4.8941719746e+02 0.0000000000e+00 0.0000e+00 -1.0000e+00
       11  1    1    2    0    0 -1.0140927743e+00 +7.5588629853e+00 -4.6714332903e+02 4.6720558072e+02 0.0000000000e+00 0.0000e+00 -1.0000e+00
      -15  1    1    2    0    0 +6.9626716294e+00 +5.8070924792e+00 +7.4626111451e+00 1.1876422584e+01 1.7770000000e+00 0.0000e+00 1.0000e+00
       15  1    1    2    0    0 -7.1228229566e-02 -1.0369277141e+01 -2.9692013101e+01 3.1500799242e+01 1.7770000000e+00 0.0000e+00 1.0000e+00
</event>
<event>
 6 1 7.08916e-05 5.11091800e+02 7.54677100e-03 9.37532700e-02
      -11 -1    0    0    0    0 +0.0000000000e+00 +0.0000000000e+00 +5.0000000000e+02 5.0000000000e+02 0.0000000000e+00 0.0000e+00 -1.0000e+00
       11 -1    0    0    0    0 -0.0000000000e+00 -0.0000000000e+00 -5.0000000000e+02 5.0000000000e+02 0.0000000000e+00 0.0000e+00 1.0000e+00
      -11  1    1    2    0    0 -6.6586812887e+00 -1.1634084847e+00 +4.8886149803e+02 4.8890822842e+02 0.0000000000e+00 0.0000e+00 -1.0000e+00
       11  1    1    2    0    0 +6.4445115540e+00 +6.8695169031e+00 -4.8020119396e+02 4.8029356510e+02 0.0000000000e+00 0.0000e+00 1.0000e+00
      -15  1    1    2    0    0 -6.7320704250e+00 -1.1538495787e+00 -1.7299330559e+01 1.8683594618e+01 1.7770000000e+00 0.0000e+00 1.0000e+00
       15  1    1    2    0    0 +6.9462401596e+00 -4.5522588398e+00 +8.6390264928e+00 1.2114611865e+01 1.7770000000e+00 0.0000e+00 -1.0000e+00
</event>
<event>
 6 1 7.08916e-05 5.03290000e+02 7.54677100e-03 9.39247800e-02
      -11 -1    0    0    0    0 +0.0000000000e+00 +0.0000000000e+00 +5.0000000000e+02 5.0000000000e+02 0.0000000000e+00 0.0000e+00 1.0000e+00
       11 -1    0    0    0    0 -0.0000000000e+00 -0.0000000000e+00 -5.0000000000e+02 5.0000000000e+02 0.0000000000e+00 0.0000e+00 -1.0000e+00
      -11  1    1    2    0    0 +1.4171569937e+01 -1.0848959689e+01 +4.9638925951e+02 4.9671000622e+02 0.0000000000e+00 0.0000e+00 1.0000e+00
       11  1    1    2    0    0 -1.5114679990e+01 +2.3273242501e+01 -2.8093337080e+02 2.8230064860e+02 0.0000000000e+00 0.0000e+00 -1.0000e+00
      -15  1    1    2    0    0 -8.4884435730e+00 +9.3716800520e+00 -1.7812701397e+01 2.1916480588e+01 1.7770000000e+00 0.0000e+00 1.0000e+00
       15  1    1    2    0    0 +9.4315536267e+00 -2.1795962865e+01 -1.9764318731e+02 1.9907286460e+02 1.7770000000e+00 0.0000e+00 -1.0000e+00
</event>
<event>
 6 1 7.08916e-05 5.00693700e+02 7.54677100e-03 9.39825900e-02
      -11 -1    0    0    0    0 +0.0000000000e+00 +0.0000000000e+00 +5.0000000000e+02 5.0000000000e+02 0.0000000000e+00 0.0000e+00 1.0000e+00
       11 -1    0    0    0    0 -0.0000000000e+00 -0.0000000000e+00 -5.0000000000e+02 5.0000000000e+02 0.0000000000e+00 0.0000e+00 1.0000e+00
      -11  1    1    2    0    0 +1.2234728053e+01 -6.2676596452e+00 +3.3079241140e+02 3.3107792371e+02 0.0000000000e+00 0.0000e+00 1.0000e+00
       11  1    1    2    0    0 -1.1242938175e+00 +7.9946279962e+00 -4.9924100715e+02 4.9930628009e+02 0.0000000000e+00 0.0000e+00 1.0000e+00
      -15  1    1    2    0    0 +3.9392274288e+00 -1.6941092161e+00 +3.3841028793e+01 3.4157875776e+01 1.7770000000e+00 0.0000e+00 1.0000e+00
       15  1    1    2    0    0 -1.5049661664e+01 -3.2859134908e-02 +1.3460756695e+02 1.3545792043e+02 1.7770000000e+00 0.0000e+00 -1.0000e+00
</event>
<event>
 6 1 7.08916e-05 5.00199400e+02 7.54677100e-03 9.39936400e-02
      -11 -1    0    0    0    0 +0.0000000000e+00 +0.0000000000e+00 +5.0000000000e+02 5.0000000000e+02 0.0000000000e+00 0.0000e+00 1.0000e+00
       11 -1    0    0    0    0 -0.0000000000e+00 -0.0000000000e+00 -5.0000000000e+02 5.0000000000e+02 0.0000000000e+00 0.0000e+00 -1.0000e+00
      -11  1    1    2    0    0 -1.7117438239e+00 -3.7979771819e+00 +2.7176038965e+02 2.7179231792e+02 0.0000000000e+00 0.0000e+00 1.0000e+00
       11  1    1    2    0    0 +5.0630354382e+00 +4.8308645326e+00 -4.9975163104e+02 4.9980062456e+02 0.0000000000e+00 0.0000e+00 -1.0000e+00
      -15  1    1    2    0    0 -7.2900026415e-01 +5.1435230089e+00 +5.4230317756e+01 5.4507544094e+01 1.7770000000e+00 0.0000e+00 -1.0000e+00
       15  1    1    2    0    0 -2.6222913501e+00 -6.1764103596e+00 +1.7376092364e+02 1.7389951343e+02 1.7770000000e+00 0.0000e+00 1.0000e+00
</event>
<event>
 6 1 7.08916e-05 4.94551300e+02 7.54677100e-03 9.41208500e-02
      -11 -1    0    0    0    0 +0.0000000000e+00 +0.0000000000e+00 +5.0000000000e+02 5.0000000000e+02 0.0000000000e+00 0.0000e+00 1.0000e+00
       11 -1    0    0    0    0 -0.0000000000e+00 -0.0000000000e+00 -5.0000000000e+02 5.0000000000e+02 0.0000000000e+00 0.0000e+00 1.0000e+00
      -11  1    1    2    0    0 -1.3255558052e+00 -1.2161743899e+01 +4.9363989411e+02 4.9379146425e+02 0.0000000000e+00 0.0000e+00 1.0000e+00
       11  1    1    2    0    0 +9.5957830140e+00 +8.2631212008e+00 -4.9519281442e+02 4.9535470289e+02 0.0000000000e+00 0.0000e+00 1.0000e+00
      -15  1    1    2    0    0 -2.6783301500e+00 +2.8281850522e+00 +2.2711632815e+00 4.8464414505e+00 1.7770000000e+00 0.0000e+00 1.0000e+00
       15  1    1    2    0    0 -5.5918970589e+00 +1.0704376459e+00 -7.1824296937e-01 6.0073914001e+00 1.7770000000e+00 0.0000e+00 -1.0000e+00
</event>
<event>
 6 1 7.08916e-05 5.17178800e+02 7.54677100e-03 9.36217000e-02
      -11 -1    0    0    0    0 +0.0000000000e+00 +0.0000000000e+00 +5.0000000000e+02 5.0000000000e+02 0.0000000000e+00 0.0000e+00 1.0000e+00
       11 -1    0    0    0    0 -0.0000000000e+00 -0.0000000000e+00 -5.0000000000e+02 5.0000000000e+02 0.0000000000e+00 0.0000e+00 1.0000e+00
      -11  1    1    2    0    0 +3.8931746216e+00 -8.8511244082e+00 +4.8272431507e+02 4.8282115071e+02 0.0000000000e+00 0.0000e+00 1.0000e+00
       11  1    1    2    0    0 +5.1421597799e+00 +8.1434078399e+00 -4.6408908790e+02 4.6418901151e+02 0.0000000000e+00 0.0000e+00 1.0000e+00
      -15  1    1    2    0    0 +3.8296957789e+00 -2.5650858501e+00 -3.2989684729e+01 3.3357506842e+01 1.7770000000e+00 0.0000e+00 1.0000e+00
       15  1    1    2    0    0 -1.2865030180e+01 +3.2728024184e+00 +1.4354457557e+01 1.9632330936e+01 1.7770000000e+00 0.0000e+00 -1.0000e+00
</event>
<event>
 6 1 7.08916e-05 5.06331600e+02 7.54677100e-03 9.38575300e-02
      -11 -1    0    0    0    0 +0.0000000000e+00 +0.0000000000e+00 +5.0000000000e+02 5.0000000000e+02 0.0000000000e+00 0.0000e+00 1.0000e+00
       11 -1    0    0    0    0 -0.0000000000e+00 -0.0000000000e+00 -5.0000000000e+02 5.0000000000e+02 0.0000000000e+00 0.0000e+00 -1.0000e+00
      -11  1    1    2    0    0 +1.0711471495e+00 -1.1310415312e+01 +3.8391267816e+02 3.8408074321e+02 0.0000000000e+00 0.0000e+00 1.0000e+00
       11  1    1    2    0    0 +2.2881643534e+01 -1.0255111389e+01 -4.9303116619e+02 4.9366837832e+02 0.0000000000e+00 0.0000e+00 -1.0000e+00
      -15  1    1    2    0    0 +5.2342878208e+00 +2.6584060892e+00 -1.4719976486e+00 6.3078837976e+00 1.7770000000e+00 0.0000e+00 1.0000e+00
       15  1    1    2    0    0 -2.9187078504e+01 +1.8907120612e+01 +1.1059048568e+02 1.1594299467e+02 1.7770000000e+00 0.0000e+00 -1.0000e+00
</event>
<event>
 6 1 7.08916e-05 5.00806800e+02 7.54677100e-03 9.39800600e-02
      -11 -1    0    0    0    0 +0.0000000000e+00 +0.0000000000e+00 +5.0000000000e+02 5.0000000000e+02 0.0000000000e+00 0.0000e+00 1.0000e+00
       11 -1    0    0    0    0 -0.0000000000e+00 -0.0000000000e+00 -5.0000000000e+02 5.0000000000e+02 0.0000000000e+00 0.0000e+00 -1.0000e+00
      -11  1    1    2    0    0 +2.0571937136e+00 -1.1530035814e+01 +4.9905574220e+02 4.9919315659e+02 0.0000000000e+00 0.0000e+00 1.0000e+00
       11  1    1    2    0    0 -6.9295377571e+00 -3.6827722894e+00 -4.1143957870e+02 4.1151440829e+02 0.0000000000e+00 0.0000e+00 -1.0000e+00
      -15  1    1    2    0    0 +4.8826310302e-01 +4.8498296862e+00 -1.7358632629e+01 1.8117370245e+01 1.7770000000e+00 0.0000e+00 1.0000e+00
       15  1    1    2    0    0 +4.3840809405e+00 +1.0362978417e+01 -7.0257530863e+01 7.1175064871e+01 1.7770000000e+00 0.0000e+00 -1.0000e+00
</event>
<event>
 6 1 7.08916e-05 5.60223600e+02 7.54677100e-03 9.27430200e-02
      -11 -1    0    0    0    0 +0.0000000000e+00 +0.0000000000e+00 +5.0000000000e+02 5.0000000000e+02 0.0000000000e+00 0.0000e+00 -1.0000e+00
       11 -1    0    0    0    0 -0.0000000000e+00 -0.0000000000e+00 -5.0000000000e+02 5.0000000000e+02 0.0000000000e+00 0.0000e+00 1.0000e+00
      -11  1    1    2    0    0 -4.9700474113e+00 -6.0547233134e+01 +3.3734674971e+02 3.4277324626e+02 0.0000000000e+00 0.0000e+00 -1.0000e+00
       11  1    1    2    0    0 -1.2798178178e+01 +1.3671061083e+01 -4.3937746202e+02 4.3977635840e+02 0.0000000000e+00 0.0000e+00 1.0000e+00
      -15  1    1    2    0    0 +2.0189568462e+00 +5.8682140270e+01 +1.5240697721e+02 1.6333619993e+02 1.7770000000e+00 0.0000e+00 -1.0000e+00
       15  1    1    2    0    0 +1.5749268743e+01 -1.1805968219e+01 -5.0376264902e+01 5.4114195420e+01 1.7770000000e+00 0.0000e+00 1.0000e+00
</event>
<event>
 6 1 7.08916e-05 5.01487600e+02 7.54677100e-03 9.39648700e-02
      -11 -1    0    0    0    0 +0.0000000000e+00 +0.0000000000e+00 +5.0000000000e+02 5.0000000000e+02 0.0000000000e+00 0.0000e+00 1.0000e+00
       11 -1    0    0    0    0 -0.0000000000e+00 -0.0000000000e+00 -5.0000000000e+02 5.0000000000e+02 0.0000000000e+00 0.0000e+00 -1.0000e+00
      -11  1    1    2    0    0 +1.8924500892e+00 -8.8999708509e+00 +4.9842932769e+02 4.9851237251e+02 0.0000000000e+00 0.0000e+00 1.0000e+00
       11  1    1    2    0    0 +7.0461622541e+00 +1.7030035642e+00 -4.4384953966e+02 4.4390873215e+02 0.0000000000e+00 0.0000e+00 -1.0000e+00
      -15  1    1    2    0    0 -7.4052660776e+00 +6.2264010718e+00 -1.5124946617e+01 1.8042388289e+01 1.7770000000e+00 0.0000e+00 1.0000e+00
       15  1    1    2    0    0 -1.5333462657e+00 +9.7056621492e-01 -3.9454841410e+01 3.9536507044e+01 1.7770000000e+00 0.0000e+00 -1.0000e+00
</event>
<event>
 6 1 7.08916e-05 4.88681900e+02 7.54677100e-03 9.42549700e-02
      -11 -1    0    0    0    0 +0.0000000000e+00 +0.0000000000e+00 +5.0000000000e+02 5.0000000000e+02 0.0000000000e+00 0.0000e+00 -1.0000e+00
       11 -1    0    0    0    0 -0.0000000000e+00 -0.0000000000e+00 -5.0000000000e+02 5.0000000000e+02 0.0000000000e+00 0.0000e+00 1.0000e+00
      -11  1    1    2    0    0 +3.8906111051e-01 +1.4066677604e+01 +4.8723973008e+02 4.8744289651e+02 0.0000000000e+00 0.0000e+00 -1.0000e+00
       11  1    1    2    0    0 +2.9690806674e+00 -7.2901353129e+00 -4.8989053566e+02 4.8995377174e+02 0.0000000000e+00 0.0000e+00 1.0000e+00
      -15  1    1    2    0    0 -5.1204577854e+00 -1.0985040443e+01 +8.5489545344e+00 1.4937622103e+01 1.7770000000e+00 0.0000e+00 -1.0000e+00
       15  1    1    2    0    0 +1.7623160074e+00 +4.2084981518e+00 -5.8981489513e+00 7.6657096512e+00 1.7770000000e+00 0.0000e+00 -1.0000e+00
</event>
<event>
 6 1 7.08916e-05 5.01083300e+02 7.54677100e-03 9.39738900e-02
      -11 -1    0    0    0    0 +0.0000000000e+00 +0.0000000000e+00 +5.0000000000e+02 5.0000000000e+02 0.0000000000e+00 0.0000e+00 1.0000e+00
       11 -1    0    0    0    0 -0.0000000000e+00 -0.0000000000e+00 -5.0000000000e+02 5.0000000000e+02 0.0000000000e+00 0.0000e+00 -1.0000e+00
      -11  1    1    2    0    0 -4.3504572896e+00 -6.9323207766e+00 +4.6211677778e+02 4.6218924680e+02 0.0000000000e+00 0.0000e+00 1.0000e+00
       11  1    1    2    0    0 +5.2825605229e+00 -4.4480814999e+00 -4.9886890941e+02 4.9891670613e+02 0.0000000000e+00 0.0000e+00 -1.0000e+00
      -15  1    1    2    0    0 +1.4287802539e+00 +2.7006312335e+00 +1.1362898319e+01 1.1899916356e+01 1.7770000000e+00 0.0000e+00 1.0000e+00
       15  1    1    2    0    0 -2.3608834872e+00 +8.6797710430e+00 +2.5389233314e+01 2.6994130723e+01 1.7770000000e+00 0.0000e+00 -1.0000e+00
</event>
<event>
 6 1 7.08916e-05 5.00144300e+02 7.54677100e-03 9.39948700e-02
      -11 -1    0    0    0    0 +0.0000000000e+00 +0.0000000000e+00 +5.0000000000e+02 5.0000000000e+02 0.0000000000e+00 0.0000e+00 -1.0000e+00
       11 -1    0    0    0    0 -0.0000000000e+00 -0.0000000000e+00 -5.0000000000e+02 5.0000000000e+02 0.0000000000e+00 0.0000e+00 -1.0000e+00
      -11  1    1    2    0    0 -8.8606284550e-01 +6.9606581218e+00 +3.2931476425e+02 3.2938951079e+02 0.0000000000e+00 0.0000e+00 -1.0000e+00
       11  1    1    2    0    0 -2.7936482426e+00 -1.1212737519e+01 -4.9972207507e+02 4.9985566143e+02 0.0000000000e+00 0.0000e+00 -1.0000e+00
      -15  1    1    2    0    0 -5.7894534300e-02 +4.8815262912e+00 +1.3515954126e+02 1.3525935078e+02 1.7770000000e+00 0.0000e+00 1.0000e+00
       15  1    1    2    0    0 +3.7376056224e+00 -6.2944689402e-01 +3.5247769557e+01 3.5495476992e+01 1.7770000000e+00 0.0000e+00 1.0000e+00
</event>
<event>
 6 1 7.08916e-05 5.01221700e+02 7.54677100e-03 9.39708000e-02
      -11 -1    0    0    0    0 +0.0000000000e+00 +0.0000000000e+00 +5.0000000000e+02 5.0000000000e+02 0.0000000000e+00 0.0000e+00 -1.0000e+00
       11 -1    0    0    0    0 -0.0000000000e+00 -0.0000000000e+00 -5.0000000000e+02 5.0000000000e+02 0.0000000000e+00 0.0000e+00 -1.0000e+00
      -11  1    1    2    0    0 +1.0797271122e-01 +1.3914591761e+01 +4.9858415933e+02 4.9877829891e+02 0.0000000000e+00 0.0000e+00 -1.0000e+00
       11  1    1    2    0    0 +1.0566854792e+01 +1.8021154446e-01 -4.2071077000e+02 4.2084348979e+02 0.0000000000e+00 0.0000e+00 -1.0000e+00
      -15  1    1    2    0    0 -3.8226116673e+00 -1.2812456854e+00 -2.9843646322e+01 3.0167116290e+01 1.7770000000e+00 0.0000e+00 1.0000e+00
       15  1    1    2    0    0 -6.8522158354e+00 -1.2813557620e+01 -4.8029743006e+01 5.0211095018e+01 1.7770000000e+00 0.0000e+00 -1.0000e+00
</event>
<event>
 7 1 7.08916e-05 5.01810100e+02 7.54677100e-03 9.39576900e-02
      -11 -1    0    0    0    0 +0.0000000000e+00 +0.0000000000e+00 +5.0000000000e+02 5.0000000000e+02 0.0000000000e+00 0.0000e+00 1.0000e+00
       11 -1    0    0    0    0 -0.0000000000e+00 -0.0000000000e+00 -5.0000000000e+02 5.0000000000e+02 0.0000000000e+00 0.0000e+00 -1.0000e+00
       23  2    1    2    0    0 +3.6457808627e+00 -1.3778461551e+01 +4.9375782098e+02 5.0195669076e+02 8.9222171564e+01 0.0000e+00 0.0000e+00
      -11  1    1    2    0    0 +8.1296802241e-01 -4.2677521191e+00 -4.3036507316e-01 4.3657575805e+00 0.0000000000e+00 0.0000e+00 1.0000e+00
       11  1    1    2    0    0 -4.4587488851e+00 +1.8046213670e+01 -4.9332745590e+02 4.9367755166e+02 0.0000000000e+00 0.0000e+00 -1.0000e+00
      -15  1    3    3    0    0 +3.2032819393e+01 -1.4928052823e+01 +4.3729348918e+02 4.3872280735e+02 1.7770000000e+00 0.0000e+00 1.0000e+00
       15  1    3    3    0    0 -2.8387038530e+01 +1.1495912720e+00 +5.6464331798e+01 6.3233883409e+01 1.7770000000e+00 0.0000e+00 -1.0000e+00
</event>
<event>
 6 1 7.08916e-05 5.01739400e+02 7.54677100e-03 9.39592600e-02
      -11 -1    0    0    0    0 +0.0000000000e+00 +0.0000000000e+00 +5.0000000000e+02 5.0000000000e+02 0.0000000000e+00 0.0000e+00 1.0000e+00
       11 -1    0    0    0    0 -0.0000000000e+00 -0.0000000000e+00 -5.0000000000e+02 5.0000000000e+02 0.0000000000e+00 0.0000e+00 -1.0000e+00
      -11  1    1    2    0    0 +8.7657405962e+00 -2.6614167063e+01 +4.9747207039e+02 4.9826058736e+02 0.0000000000e+00 0.0000e+00 1.0000e+00
       11  1    1    2    0    0 -8.1072075569e+00 +1.6550898044e+00 -2.1530426974e+02 2.1546320963e+02 0.0000000000e+00 0.0000e+00 -1.0000e+00
      -15  1    1    2    0    0 -3.0705249728e+00 +2.3661860178e+00 -2.2034644348e+02 2.2038770348e+02 1.7770000000e+00 0.0000e+00 -1.0000e+00
       15  1    1    2    0    0 +2.4119919336e+00 +2.2592891241e+01 -6.1821357169e+01 6.5888499535e+01 1.7770000000e+00 0.0000e+00 1.0000e+00
</event>
<event>
 6 1 7.08916e-05 4.90414800e+02 7.54677100e-03 9.42151700e-02
      -11 -1    0    0    0    0 +0.0000000000e+00 +0.0000000000e+00 +5.0000000000e+02 5.0000000000e+02 0.0000000000e+00 0.0000e+00 1.0000e+00
       11 -1    0    0    0    0 -0.0000000000e+00 -0.0000000000e+00 -5.0000000000e+02 5.0000000000e+02 0.0000000000e+00 0.0000e+00 -1.0000e+00
      -11  1    1    2    0    0 -9.8890345595e+00 -2.8245588332e+00 +4.9069193162e+02 4.9079969733e+02 0.0000000000e+00 0.0000e+00 1.0000e+00
       11  1    1    2    0    0 -7.4649316466e+00 -1.0133064463e+00 -4.9013313782e+02 4.9019102887e+02 0.0000000000e+00 0.0000e+00 -1.0000e+00
      -15  1    1    2    0    0 +1.3876654610e+01 +4.4577817378e+00 -1.9624072832e+00 1.4813579329e+01 1.7770000000e+00 0.0000e+00 1.0000e+00
       15  1    1    2    0    0 +3.4773115960e+00 -6.1991645830e-01 +1.4036134786e+00 4.1956944774e+00 1.7770000000e+00 0.0000e+00 -1.0000e+00
</event>
<event>
 6 1 7.08916e-05 5.01750800e+02 7.54677100e-03 9.39590100e-02
      -11 -1    0    0    0    0 +0.0000000000e+00 +0.0000000000e+00 +5.0000000000e+02 5.0000000000e+02 0.0000000000e+00 0.0000e+00 -1.0000e+00
       11 -1    0    0    0    0 -0.0000000000e+00 -0.0000000000e+00 -5.0000000000e+02 5.0000000000e+02 0.0000000000e+00 0.0000e+00 1.0000e+00
      -11  1    1    2    0    0 -7.7442385768e+01 +9.5172636365e+01 +3.7414796708e+02 3.9375354614e+02 0.0000000000e+00 0.0000e+00 -1.0000e+00
       11  1    1    2    0    0 +8.5195840138e+01 -1.0165946975e+02 -4.8027006410e+02 4.9824924830e+02 0.0000000000e+00 0.0000e+00 1.0000e+00
      -15  1    1    2    0    0 -5.9836795037e+00 -1.9907148945e+00 +1.4059692106e+01 1.5511287416e+01 1.7770000000e+00 0.0000e+00 -1.0000e+00
       15  1    1    2    0    0 -1.7697748659e+00 +8.4775482841e+00 +9.2062404911e+01 9.2485918144e+01 1.7770000000e+00 0.0000e+00 1.0000e+00
</event>
<event>
 6 1 7.08916e-05 5.14888400e+02 7.54677100e-03 9.36709800e-02
      -11 -1    0    0    0    0 +0.0000000000e+00 +0.0000000000e+00 +5.0000000000e+02 5.0000000000e+02 0.0000000000e+00 0.0000e+00 -1.0000e+00
       11 -1    0    0    0    0 -0.0000000000e+00 -0.0000000000e+00 -5.0000000000e+02 5.0000000000e+02 0.0000000000e+00 0.0000e+00 -1.0000e+00
      -11  1    1    2    0    0 -2.4415176581e+01 -1.6920458787e+01 +4.8420126103e+02 4.8511159948e+02 0.0000000000e+00 0.0000e+00 -1.0000e+00
       11  1    1    2    0    0 -6.6736787470e+00 +2.2978159575e+00 -4.3112500872e+02 4.3118278153e+02 0.0000000000e+00 0.0000e+00 -1.0000e+00
      -15  1    1    2    0    0 +3.5806371218e+01 +5.5339293850e+00 -6.0770842401e+01 7.0774102674e+01 1.7770000000e+00 0.0000e+00 1.0000e+00
       15  1    1    2    0    0 -4.7175158898e+00 +9.0887134445e+00 +7.6945900960e+00 1.2931516307e+01 1.7770000000e+00 0.0000e+00 -1.0000e+00
</event>
<event>
 6 1 7.08916e-05 5.06708900e+02 7.54677100e-03 9.38492200e-02
      -11 -1    0    0    0    0 +0.0000000000e+00 +0.0000000000e+00 +5.0000000000e+02 5.0000000000e+02 0.0000000000e+00 0.0000e+00 -1.0000e+00
       11 -1    0    0    0    0 -0.0000000000e+00 -0.0000000000e+00 -5.0000000000e+02 5.0000000000e+02 0.0000000000e+00 0.0000e+00 1.0000e+00
      -11  1    1    2    0    0 +9.5727944533e+00 -4.5914163356e+01 +3.8006107217e+02 3.8294407864e+02 0.0000000000e+00 0.0000e+00 -1.0000e+00
       11  1    1    2    0    0 -9.0183733343e+00 +2.4830870144e+01 -4.9258315967e+02 4.9329106252e+02 0.0000000000e+00 0.0000e+00 1.0000e+00
      -15  1    1    2    0    0 +1.2110039218e+01 +6.1469540879e+00 +9.8900503531e+01 9.9844406063e+01 1.7770000000e+00 0.0000e+00 -1.0000e+00
       15  1    1    2    0    0 -1.2664460337e+01 +1.4936339124e+01 +1.3621583976e+01 2.3920452777e+01 1.7770000000e+00 0.0000e+00 1.0000e+00
</event>
<event>
 6 1 7.08916e-05 5.01501000e+02 7.54677100e-03 9.39645700e-02
      -11 -1    0    0    0    0 +0.0000000000e+00 +0.0000000000e+00 +5.0000000000e+02 5.0000000000e+02 0.0000000000e+00 0.0000e+00 -1.0000e+00
       11 -1    0    0    0    0 -0.0000000000e+00 -0.0000000000e+00 -5.0000000000e+02 5.0000000000e+02 0.0000000000e+00 0.0000e+00 -1.0000e+00
      -11  1    1    2    0    0 +6.2828517611e+00 +1.3777617792e+01 +4.9826892694e+02 4.9849896743e+02 0.0000000000e+00 0.0000e+00 -1.0000e+00
       11  1    1    2    0    0 +5.5589048540e-02 -2.7081901280e+01 -4.3695396133e+02 4.3779241289e+02 0.0000000000e+00 0.0000e+00 -1.0000e+00
      -15  1    1    2    0    0 -5.0965147809e-01 -7.3678508107e-01 -6.6948177964e+00 6.9843332690e+00 1.7770000000e+00 0.0000e+00 -1.0000e+00
       15  1    1    2    0    0 -5.8287893315e+00 +1.4041068569e+01 -5.4620147818e+01 5.6724286406e+01 1.7770000000e+00 0.0000e+00 -1.0000e+00
</event>
<event>
 6 1 7.08916e-05 5.02047400e+02 7.54677100e-03 9.39524000e-02
      -11 -1    0    0    0    0 +0.0000000000e+00 +0.0000000000e+00 +5.0000000000e+02 5.0000000000e+02 0.0000000000e+00 0.0000e+00 -1.0000e+00
       11 -1    0    0    0    0 -0.0000000000e+00 -0.0000000000e+00 -5.0000000000e+02 5.0000000000e+02 0.0000000000e+00 0.0000e+00 1.0000e+00
      -11  1    1    2    0    0 -2.4708023361e+00 +1.2609221060e+01 +4.4069870753e+02 4.4088598088e+02 0.0000000000e+00 0.0000e+00 -1.0000e+00
       11  1    1    2    0    0 +1.0209749905e+01 -3.7140416320e-01 -4.9784774341e+02 4.9795256055e+02 0.0000000000e+00 0.0000e+00 1.0000e+00
      -15  1    1    2    0    0 -7.2822096704e+00 -1.1496207980e+01 +2.1820986671e+01 2.5778024825e+01 1.7770000000e+00 0.0000e+00 1.0000e+00
       15  1    1    2    0    0 -4.5673789811e-01 -7.4160891733e-01 +3.5328049211e+01 3.5383433741e+01 1.7770000000e+00 0.0000e+00 -1.0000e+00
</event>
<event>
 6 1 7.08916e-05 5.01517500e+02 7.54677100e-03 9.39642000e-02
      -11 -1    0    0    0    0 +0.0000000000e+00 +0.0000000000e+00 +5.0000000000e+02 5.0000000000e+02 0.0000000000e+00 0.0000e+00 -1.0000e+00
       11 -1    0    0    0    0 -0.0000000000e+00 -0.0000000000e+00 -5.0000000000e+02 5.0000000000e+02 0.0000000000e+00 0.0000e+00 1.0000e+00
      -11  1    1    2    0    0 -8.6262184489e+00 -5.5935829450e-01 +2.9372088405e+02 2.9384805981e+02 0.0000000000e+00 0.0000e+00 -1.0000e+00
       11  1    1    2    0    0 +3.6835923833e+00 +1.0209824540e+01 -4.9836427267e+02 4.9848245470e+02 0.0000000000e+00 0.0000e+00 1.0000e+00
      -15  1    1    2    0    0 +2.5147365584e+00 -9.6785441937e+00 +2.0439850441e+02 2.0465068886e+02 1.7770000000e+00 0.0000e+00 -1.0000e+00
       15  1    1    2    0    0 +2.4278895072e+00 +2.8077948625e-02 +2.4488420738e-01 3.0187966320e+00 1.7770000000e+00 0.0000e+00 1.0000e+00
</event>
<event>
 6 1 7.08916e-05 5.00155700e+02 7.54677100e-03 9.39946100e-02
      -11 -1    0    0    0    0 +0.0000000000e+00 +0.0000000000e+00 +5.0000000000e+02 5.0000000000e+02 0.0000000000e+00 0.0000e+00 -1.0000e+00
       11 -1    0    0    0    0 -0.0000000000e+00 -0.0000000000e+00 -5.0000000000e+02 5.0000000000e+02 0.0000000000e+00 0.0000e+00 -1.0000e+00
      -11  1    1    2    0    0 +4.6650140361e-01 -1.6000138073e+00 +6.4650809751e+01 6.4672288263e+01 0.0000000000e+00 0.0000e+00 -1.0000e+00
       11  1    1    2    0    0 +2.3298170958e+01 +2.1524772169e+00 -4.9929635350e+02 4.9984426229e+02 0.0000000000e+00 0.0000e+00 -1.0000e+00
      -15  1    1    2    0    0 -1.9467211939e+01 +4.5386002233e+00 +3.1308633175e+02 3.1372883210e+02 1.7770000000e+00 0.0000e+00 -1.0000e+00
       15  1    1    2    0    0 -4.2974604230e+00 -5.0910636328e+00 +1.2155921199e+02 1.2175461734e+02 1.7770000000e+00 0.0000e+00 1.0000e+00
</event>
<event>
 6 1 7.08916e-05 5.03975400e+02 7.54677100e-03 9.39095800e-02
      -11 -1    0    0    0    0 +0.0000000000e+00 +0.0000000000e+00 +5.0000000000e+02 5.0000000000e+02 0.0000000000e+00 0.0000e+00 1.0000e+00
       11 -1    0    0    0    0 -0.0000000000e+00 -0.0000000000e+00 -5.0000000000e+02 5.0000000000e+02 0.0000000000e+00 0.0000e+00 1.0000e+00
      -11  1    1    2    0    0 -9.8705238558e+00 -1.1014356656e+00 +4.7557138409e+02 4.7567508003e+02 0.0000000000e+00 0.0000e+00 1.0000e+00
       11  1    1    2    0    0 -7.5593049211e+00 +4.9137603738e+00 -4.9594268449e+02 4.9602463087e+02 0.0000000000e+00 0.0000e+00 1.0000e+00
      -15  1    1    2    0    0 +6.5812648927e+00 +1.0500024505e+00 +3.9458599584e+00 7.9462628037e+00 1.7770000000e+00 0.0000e+00 -1.0000e+00
       15  1    1    2    0    0 +1.0848563884e+01 -4.8623271586e+00 +1.6425440441e+01 2.0354026295e+01 1.7770000000e+00 0.0000e+00 1.0000e+00
</event>
<event>
 6 1 7.08916e-05 5.00365000e+02 7.54677100e-03 9.39899300e-02
      -11 -1    0    0    0    0 +0.0000000000e+00 +0.0000000000e+00 +5.0000000000e+02 5.0000000000e+02 0.0000000000e+00 0.0000e+00 1.0000e+00
       11 -1    0    0    0    0 -0.0000000000e+00 -0.0000000000e+00 -5.0000000000e+02 5.0000000000e+02 0.0000000000e+00 0.0000e+00 -1.0000e+00
      -11  1    1    2    0    0 +1.9600000336e+01 +8.5335020802e-01 +1.4837549583e+02 1.4966688338e+02 0.0000000000e+00 0.0000e+00 1.0000e+00
       11  1    1    2    0    0 -2.5997973392e+01 -7.9651874632e+00 -4.9889455407e+02 4.9963498167e+02 0.0000000000e+00 0.0000e+00 -1.0000e+00
      -15  1    1    2    0    0 +4.8013724404e+00 +3.8947199731e+00 +1.4839261670e+02 1.4853197784e+02 1.7770000000e+00 0.0000e+00 1.0000e+00
       15  1    1    2    0    0 +1.5966006151e+00 +3.2171172821e+00 +2.0212644155e+02 2.0216615710e+02 1.7770000000e+00 0.0000e+00 1.0000e+00
</event>
<event>
 6 1 7.08916e-05 5.06483000e+02 7.54677100e-03 9.38541900e-02
      -11 -1    0    0    0    0 +0.0000000000e+00 +0.0000000000e+00 +5.0000000000e+02 5.0000000000e+02 0.0000000000e+00 0.0000e+00 1.0000e+00
       11 -1    0    0    0    0 -0.0000000000e+00 -0.0000000000e+00 -5.0000000000e+02 5.0000000000e+02 0.0000000000e+00 0.0000e+00 1.0000e+00
      -11  1    1    2    0    0 -1.0793132368e+01 +1.2326290093e+01 +4.9324496664e+02 4.9351699692e+02 0.0000000000e+00 0.0000e+00 1.0000e+00
       11  1    1    2    0    0 -8.1481659960e+00 +7.2688423884e+00 -4.4125897750e+02 4.4139405739e+02 0.0000000000e+00 0.0000e+00 1.0000e+00
      -15  1    1    2    0    0 +4.6882750329e-01 -1.5754141258e+00 -3.2785351741e+01 3.2874591202e+01 1.7770000000e+00 0.0000e+00 -1.0000e+00
       15  1    1    2    0    0 +1.8472470861e+01 -1.8019718356e+01 -1.9200637405e+01 3.2214354488e+01 1.7770000000e+00 0.0000e+00 1.0000e+00
</event>
<event>
 6 1 7.08916e-05 5.01730500e+02 7.54677100e-03 9.39594600e-02
      -11 -1    0    0    0    0 +0.0000000000e+00 +0.0000000000e+00 +5.0000000000e+02 5.0000000000e+02 0.0000000000e+00 0.0000e+00 -1.0000e+00
       11 -1    0    0    0    0 -0.0000000000e+00 -0.0000000000e+00 -5.0000000000e+02 5.0000000000e+02 0.0000000000e+00 0.0000e+00 -1.0000e+00
      -11  1    1    2    0    0 +4.6338426112e+00 -1.0250419713e+01 +4.9814252518e+02 4.9826952445e+02 0.0000000000e+00 0.0000e+00 -1.0000e+00
       11  1    1    2    0    0 +1.6195549010e+01 -2.8380749869e+00 -3.9332632758e+02 3.9366984955e+02 0.0000000000e+00 0.0000e+00 -1.0000e+00
      -15  1    1    2    0    0 -1.4723949277e+01 +6.6159728118e+00 -5.2197961564e+01 5.4665809232e+01 1.7770000000e+00 0.0000e+00 -1.0000e+00
       15  1    1    2    0    0 -6.1054423443e+00 +6.4725218881e+00 -5.2618236031e+01 5.3394816769e+01 1.7770000000e+00 0.0000e+00 1.0000e+00
</event>
<event>
 6 1 7.08916e-05 5.43732100e+02 7.54677100e-03 9.30694500e-02
      -11 -1    0    0    0    0 +0.0000000000e+00 +0.0000000000e+00 +5.0000000000e+02 5.0000000000e+02 0.0000000000e+00 0.0000e+00 1.0000e+00
       11 -1    0    0    0    0 -0.0000000000e+00 -0.0000000000e+00 -5.0000000000e+02 5.0000000000e+02 0.0000000000e+00 0.0000e+00 1.0000e+00
      -11  1    1    2    0    0 -3.4800880234e+01 +3.3436795277e+01 +4.5370840258e+02 4.5626794224e+02 0.0000000000e+00 0.0000e+00 1.0000e+00
       11  1    1    2    0    0 -2.5760806416e+01 -8.3940982820e+00 -3.6558177997e+02 3.6658439394e+02 0.0000000000e+00 0.0000e+00 1.0000e+00
      -15  1    1    2    0    0 -6.5817074663e+00 -4.1782749967e+01 +2.1510715150e+01 4.7486689327e+01 1.7770000000e+00 0.0000e+00 -1.0000e+00
       15  1    1    2    0    0 +6.7143394116e+01 +1.6740052972e+01 -1.0963733776e+02 1.2966097450e+02 1.7770000000e+00 0.0000e+00 1.0000e+00
</event>
<event>
 6 1 7.08916e-05 5.00421600e+02 7.54677100e-03 9.39886700e-02
      -11 -1    0    0    0    0 +0.0000000000e+00 +0.0000000000e+00 +5.0000000000e+02 5.0000000000e+02 0.0000000000e+00 0.0000e+00 -1.0000e+00
       11 -1    0    0    0    0 -0.0000000000e+00 -0.0000000000e+00 -5.0000000000e+02 5.0000000000e+02 0.0000000000e+00 0.0000e+00 -1.0000e+00
      -11  1    1    2    0    0 -3.3796725352e+00 +3.1841182319e+00 +2.2051769723e+02 2.2056657858e+02 0.0000000000e+00 0.0000e+00 -1.0000e+00
       11  1    1    2    0    0 +2.5991120831e+01 -8.4860194227e+00 -4.9882969088e+02 4.9957843368e+02 0.0000000000e+00 0.0000e+00 -1.0000e+00
      -15  1    1    2    0    0 +8.4164359861e-01 -1.7017775025e+00 +7.8285129052e+01 7.8328306316e+01 1.7770000000e+00 0.0000e+00 1.0000e+00
       15  1    1    2    0    0 -2.3453091894e+01 +7.0036786933e+00 +2.0002686460e+02 2.0152668143e+02 1.7770000000e+00 0.0000e+00 -1.0000e+00
</event>
<event>
 6 1 7.08916e-05 5.07629700e+02 7.54677100e-03 9.38289800e-02
      -11 -1    0    0    0    0 +0.0000000000e+00 +0.0000000000e+00 +5.0000000000e+02 5.0000000000e+02 0.0000000000e+00 0.0000e+00 -1.0000e+00
       11 -1    0    0    0    0 -0.0000000000e+00 -0.0000000000e+00 -5.0000000000e+02 5.0000000000e+02 0.0000000000e+00 0.0000e+00 1.0000e+00
      -11  1    1    2    0    0 -2.0717327917e+00 +9.5732180142e+00 +4.9227291408e+02 4.9237034894e+02 0.0000000000e+00 0.0000e+00 -1.0000e+00
       11  1    1    2    0    0 -2.4147531173e+01 +2.3034907053e+01 -3.6220349408e+02 3.6373765454e+02 0.0000000000e+00 0.0000e+00 1.0000e+00
      -15  1    1    2    0    0 +9.9286443158e+00 -3.7625018098e+01 -5.8380675937e+01 7.0183196113e+01 1.7770000000e+00 0.0000e+00 -1.0000e+00
       15  1    1    2    0    0 +1.6290619649e+01 +5.0168930304e+00 -7.1688744060e+01 7.3708800412e+01 1.7770000000e+00 0.0000e+00 1.0000e+00
</event>
<event>
 6 1 7.08916e-05 5.29876800e+02 7.54677100e-03 9.33533300e-02
      -11 -1    0    0    0    0 +0.0000000000e+00 +0.0000000000e+00 +5.0000000000e+02 5.0000000000e+02 0.0000000000e+00 0.0000e+00 -1.0000e+00
       11 -1    0    0    0    0 -0.0000000000e+00 -0.0000000000e+00 -5.0000000000e+02 5.0000000000e+02 0.0000000000e+00 0.0000e+00 1.0000e+00
      -11  1    1    2    0    0 -1.2342783061e+00 -6.6106204380e+00 +4.7007507580e+02 4.7012317602e+02 0.0000000000e+00 0.0000e+00 -1.0000e+00
       11  1    1    2    0    0 -9.8909585484e+00 +6.0270735231e+00 -4.5094534981e+02 4.5109407577e+02 0.0000000000e+00 0.0000e+00 1.0000e+00
      -15  1    1    2    0    0 +8.7662251867e+00 -2.8336548085e+00 -4.8331468083e+01 4.9233777426e+01 1.7770000000e+00 0.0000e+00 -1.0000e+00
       15  1    1    2    0    0 +2.3590116679e+00 +3.4172017234e+00 +2.9201742096e+01 2.9548970779e+01 1.7770000000e+00 0.0000e+00 1.0000e+00
</event>
<event>
 6 1 7.08916e-05 5.00641100e+02 7.54677100e-03 9.39837600e-02
      -11 -1    0    0    0    0 +0.0000000000e+00 +0.0000000000e+00 +5.0000000000e+02 5.0000000000e+02 0.0000000000e+00 0.0000e+00 1.0000e+00
       11 -1    0    0    0    0 -0.0000000000e+00 -0.0000000000e+00 -5.0000000000e+02 5.0000000000e+02 0.0000000000e+00 0.0000e+00 -1.0000e+00
      -11  1    1    2    0    0 -3.7427636884e+01 +3.7542891189e+01 +4.1332808161e+02 4.1671381035e+02 0.0000000000e+00 0.0000e+00 1.0000e+00
       11  1    1    2    0    0 +3.8853579829e+01 -3.3600096290e+01 -4.9670991598e+02 4.9935889676e+02 0.0000000000e+00 0.0000e+00 -1.0000e+00
      -15  1    1    2    0    0 -2.9276626052e+00 +4.2092242424e-01 +5.5732034079e+01 5.5838747618e+01 1.7770000000e+00 0.0000e+00 -1.0000e+00
       15  1    1    2    0    0 +1.5017196599e+00 -4.3637173232e+00 +2.7649800289e+01 2.8088545278e+01 1.7770000000e+00 0.0000e+00 1.0000e+00
</event>
<event>
 6 1 7.08916e-05 4.85597600e+02 7.54677100e-03 9.43262600e-02
      -11 -1    0    0    0    0 +0.0000000000e+00 +0.0000000000e+00 +5.0000000000e+02 5.0000000000e+02 0.0000000000e+00 0.0000e+00 -1.0000e+00
       11 -1    0    0    0    0 -0.0000000000e+00 -0.0000000000e+00 -5.0000000000e+02 5.0000000000e+02 0.0000000000e+00 0.0000e+00 -1.0000e+00
      -11  1    1    2    0    0 -8.1830627433e+00 -4.6144832458e+01 +4.8787450164e+02 4.9012022753e+02 0.0000000000e+00 0.0000e+00 -1.0000e+00
       11  1    1    2    0    0 +2.3744414211e+00 -2.8547630782e+00 -4.5772773132e+01 4.5923135831e+01 0.0000000000e+00 0.0000e+00 -1.0000e+00
      -15  1    1    2    0    0 +4.9636229445e+00 -4.1917489100e+00 -3.8800793601e+02 3.8806639180e+02 1.7770000000e+00 0.0000e+00 -1.0000e+00
       15  1    1    2    0    0 +8.4499837776e-01 +5.3191344446e+01 -5.4093792499e+01 7.5890244841e+01 1.7770000000e+00 0.0000e+00 1.0000e+00
</event>
<event>
 6 1 7.08916e-05 5.39141800e+02 7.54677100e-03 9.31624900e-02
      -11 -1    0    0    0    0 +0.0000000000e+00 +0.0000000000e+00 +5.0000000000e+02 5.0000000000e+02 0.0000000000e+00 0.0000e+00 -1.0000e+00
       11 -1    0    0    0    0 -0.0000000000e+00 -0.0000000000e+00 -5.0000000000e+02 5.0000000000e+02 0.0000000000e+00 0.0000e+00 -1.0000e+00
      -11  1    1    2    0    0 +2.1374135342e+01 -5.5922484686e-01 +4.6036197811e+02 4.6085823990e+02 0.0000000000e+00 0.0000e+00 -1.0000e+00
       11  1    1    2    0    0 -1.2231589513e+01 -2.4706949961e+01 -3.9922513488e+02 4.0017590317e+02 0.0000000000e+00 0.0000e+00 -1.0000e+00
      -15  1    1    2    0    0 +7.1858147041e+00 +3.6535796561e+01 -9.3672062233e+01 1.0081722737e+02 1.7770000000e+00 0.0000e+00 -1.0000e+00
       15  1    1    2    0    0 -1.6328360533e+01 -1.1269621753e+01 +3.2535219010e+01 3.8148629558e+01 1.7770000000e+00 0.0000e+00 1.0000e+00
</event>
<event>
 6 1 7.08916e-05 5.03093000e+02 7.54677100e-03 9.39291500e-02
      -11 -1    0    0    0    0 +0.0000000000e+00 +0.0000000000e+00 +5.0000000000e+02 5.0000000000e+02 0.0000000000e+00 0.0000e+00 1.0000e+00
       11 -1    0    0    0    0 -0.0000000000e+00 -0.0000000000e+00 -5.0000000000e+02 5.0000000000e+02 0.0000000000e+00 0.0000e+00 1.0000e+00
      -11  1    1    2    0    0 -1.3356595209e+01 +1.2841415399e+01 +4.9656141659e+02 4.9690697422e+02 0.0000000000e+00 0.0000e+00 1.0000e+00
       11  1    1    2    0    0 +4.4153310277e+00 -3.0266005014e+00 -3.8984762425e+02 3.8988437465e+02 0.0000000000e+00 0.0000e+00 1.0000e+00
      -15  1    1    2    0    0 -3.1962644594e+00 -1.4509271541e+00 -9.2728970586e+01 9.2812396861e+01 1.7770000000e+00 0.0000e+00 1.0000e+00
       15  1    1    2    0    0 +1.2137528641e+01 -8.3638877432e+00 -1.3984821752e+01 2.0396254267e+01 1.7770000000e+00 0.0000e+00 -1.0000e+00
</event>
<event>
 6 1 7.08916e-05 5.07102500e+02 7.54677100e-03 9.38405600e-02
      -11 -1    0    0    0    0 +0.0000000000e+00 +0.0000000000e+00 +5.0000000000e+02 5.0000000000e+02 0.0000000000e+00 0.0000e+00 1.0000e+00
       11 -1    0    0    0    0 -0.0000000000e+00 -0.0000000000e+00 -5.0000000000e+02 5.0000000000e+02 0.0000000000e+00 0.0000e+00 1.0000e+00
      -11  1    1    2    0    0 -9.9360112458e+00 +6.2132379789e+00 +4.6946689297e+02 4.6961313040e+02 0.0000000000e+00 0.0000e+00 1.0000e+00
       11  1    1    2    0    0 -4.6694178858e+00 +6.1646870977e+00 -4.9283687755e+02 4.9289754990e+02 0.0000000000e+00 0.0000e+00 1.0000e+00
      -15  1    1    2    0    0 +1.7674148748e+00 -3.4178435598e+00 -4.0516479425e+00 5.8633599573e+00 1.7770000000e+00 0.0000e+00 -1.0000e+00
       15  1    1    2    0    0 +1.2838014257e+01 -8.9600815168e+00 +2.7421632519e+01 3.1625959746e+01 1.7770000000e+00 0.0000e+00 1.0000e+00
</event>
<event>
 6 1 7.08916e-05 5.00137500e+02 7.54677100e-03 9.39950200e-02
      -11 -1    0    0    0    0 +0.0000000000e+00 +0.0000000000e+00 +5.0000000000e+02 5.0000000000e+02 0.0000000000e+00 0.0000e+00 1.0000e+00
       11 -1    0    0    0    0 -0.0000000000e+00 -0.0000000000e+00 -5.0000000000e+02 5.0000000000e+02 0.0000000000e+00 0.0000e+00 1.0000e+00
      -11  1    1    2    0    0 -5.1008233858e+00 -8.2978196162e+00 +2.1469632088e+02 2.1491715243e+02 0.0000000000e+00 0.0000e+00 1.0000e+00
       11  1    1    2    0    0 +5.5823629432e+00 +4.6252651816e+00 -4.9980989460e+02 4.9986246768e+02 0.0000000000e+00 0.0000e+00 1.0000e+00
      -15  1    1    2    0    0 -9.7837531428e-01 +5.0863446924e+00 +2.0445014606e+02 2.0452346583e+02 1.7770000000e+00 0.0000e+00 1.0000e+00
       15  1    1    2    0    0 +4.9683575692e-01 -1.4137902578e+00 +8.0663427665e+01 8.0696914069e+01 1.7770000000e+00 0.0000e+00 -1.0000e+00
</event>
<event>
 6 1 7.08916e-05 5.04009300e+02 7.54677100e-03 9.39088300e-02
      -11 -1    0    0    0    0 +0.0000000000e+00 +0.0000000000e+00 +5.0000000000e+02 5.0000000000e+02 0.0000000000e+00 0.0000e+00 1.0000e+00
       11 -1    0    0    0    0 -0.0000000000e+00 -0.0000000000e+00 -5.0000000000e+02 5.0000000000e+02 0.0000000000e+00 0.0000e+00 1.0000e+00
      -11  1    1    2    0    0 +3.3556348328e+00 +5.7947465325e+00 +4.6608087927e+02 4.6612897936e+02 0.0000000000e+00 0.0000e+00 1.0000e+00
       11  1    1    2    0    0 +8.9879257631e+00 -4.2954457721e-02 -4.9590921783e+02 4.9599066219e+02 0.0000000000e+00 0.0000e+00 1.0000e+00
      -15  1    1    2    0    0 -1.0512456567e+01 -3.7650119539e+00 +4.2200767749e+00 1.2068713066e+01 1.7770000000e+00 0.0000e+00 -1.0000e+00
       15  1    1    2    0    0 -1.8311040287e+00 -1.9867801209e+00 +2.5608261777e+01 2.5811645384e+01 1.7770000000e+00 0.0000e+00 1.0000e+00
</event>
<event>
 6 1 7.08916e-05 5.03162600e+02 7.54677100e-03 9.39276100e-02
      -11 -1    0    0    0    0 +0.0000000000e+00 +0.0000000000e+00 +5.0000000000e+02 5.0000000000e+02 0.0000000000e+00 0.0000e+00 1.0000e+00
       11 -1    0    0    0    0 -0.0000000000e+00 -0.0000000000e+00 -5.0000000000e+02 5.0000000000e+02 0.0000000000e+00 0.0000e+00 -1.0000e+00
      -11  1    1    2    0    0 -2.0843228468e+00 +1.4172469851e+01 +4.9663082293e+02 4.9683737539e+02 0.0000000000e+00 0.0000e+00 1.0000e+00
       11  1    1    2    0    0 +2.3359603169e+00 -6.4049277772e+00 -4.3402973390e+02 4.3408327510e+02 0.0000000000e+00 0.0000e+00 -1.0000e+00
      -15  1    1    2    0    0 +1.1799862338e-01 +2.0047635050e+00 -5.8110905024e+01 5.8172742862e+01 1.7770000000e+00 0.0000e+00 -1.0000e+00
       15  1    1    2    0    0 -3.6963609349e-01 -9.7723055783e+00 -4.4901840041e+00 1.0906606647e+01 1.7770000000e+00 0.0000e+00 1.0000e+00
</event>
<event>
 6 1 7.08916e-05 5.23510800e+02 7.54677100e-03 9.34868700e-02
      -11 -1    0    0    0    0 +0.0000000000e+00 +0.0000000000e+00 +5.0000000000e+02 5.0000000000e+02 0.0000000000e+00 0.0000e+00 -1.0000e+00
       11 -1    0    0    0    0 -0.0000000000e+00 -0.0000000000e+00 -5.0000000000e+02 5.0000000000e+02 0.0000000000e+00 0.0000e+00 1.0000e+00
      -11  1    1    2    0    0 +3.6162678006e+00 +1.6502571328e+01 +4.4562024271e+02 4.4594036929e+02 0.0000000000e+00 0.0000e+00 -1.0000e+00
       11  1    1    2    0    0 -6.2032765931e+00 +3.1627140048e+00 -4.7643829606e+02 4.7648917443e+02 0.0000000000e+00 0.0000e+00 1.0000e+00
      -15  1    1    2    0    0 -2.1184355004e+00 +1.8165506358e+00 -2.0995814159e+01 2.1254871592e+01 1.7770000000e+00 0.0000e+00 1.0000e+00
       15  1    1    2    0    0 +4.7054442929e+00 -2.1481835968e+01 +5.1813867512e+01 5.6315584682e+01 1.7770000000e+00 0.0000e+00 -1.0000e+00
</event>
<event>
 6 1 7.08916e-05 4.59716100e+02 7.54677100e-03 9.49475300e-02
      -11 -1    0    0    0    0 +0.0000000000e+00 +0.0000000000e+00 +5.0000000000e+02 5.0000000000e+02 0.0000000000e+00 0.0000e+00 -1.0000e+00
       11 -1    0    0    0    0 -0.0000000000e+00 -0.0000000000e+00 -5.0000000000e+02 5.0000000000e+02 0.0000000000e+00 0.0000e+00 1.0000e+00
      -11  1    1    2    0    0 -4.7721803993e+00 +4.0381171988e+01 +4.6710406745e+02 4.6887058192e+02 0.0000000000e+00 0.0000e+00 -1.0000e+00
       11  1    1    2    0    0 +2.0567744519e-01 -9.7046248356e+00 -4.5111908147e+02 4.5122350084e+02 0.0000000000e+00 0.0000e+00 1.0000e+00
      -15  1    1    2    0    0 +2.8178685993e+01 +1.0352153225e+01 -5.3043874710e-01 3.0077308971e+01 1.7770000000e+00 0.0000e+00 -1.0000e+00
       15  1    1    2    0    0 -2.3612183039e+01 -4.1028700377e+01 -1.5454547234e+01 4.9828608266e+01 1.7770000000e+00 0.0000e+00 1.0000e+00
</event>
<event>
 6 1 7.08916e-05 5.00068300e+02 7.54677100e-03 9.39965700e-02
      -11 -1    0    0    0    0 +0.0000000000e+00 +0.0000000000e+00 +5.0000000000e+02 5.0000000000e+02 0.0000000000e+00 0.0000e+00 -1.0000e+00
       11 -1    0    0    0    0 -0.0000000000e+00 -0.0000000000e+00 -5.0000000000e+02 5.0000000000e+02 0.0000000000e+00 0.0000e+00 -1.0000e+00
      -11  1    1    2    0    0 +9.3845235421e-01 +6.2745869012e+00 +2.0568350680e+02 2.0578133079e+02 0.0000000000e+00 0.0000e+00 -1.0000e+00
       11  1    1    2    0    0 -3.9786713297e+00 -7.0569144474e+00 -4.9986606078e+02 4.9993170392e+02 0.0000000000e+00 0.0000e+00 -1.0000e+00
      -15  1    1    2    0    0 +4.8576820304e+00 +2.8284440536e-01 +2.1350535910e+02 2.1356819325e+02 1.7770000000e+00 0.0000e+00 -1.0000e+00
       15  1    1    2    0    0 -1.8174630549e+00 +4.9948314086e-01 +8.0677194878e+01 8.0718772029e+01 1.7770000000e+00 0.0000e+00 1.0000e+00
</event>
<event>
 6 1 7.08916e-05 5.00041500e+02 7.54677100e-03 9.39971700e-02
      -11 -1    0    0    0    0 +0.0000000000e+00 +0.0000000000e+00 +5.0000000000e+02 5.0000000000e+02 0.0000000000e+00 0.0000e+00 1.0000e+00
       11 -1    0    0    0    0 -0.0000000000e+00 -0.0000000000e+00 -5.0000000000e+02 5.0000000000e+02 0.0000000000e+00 0.0000e+00 1.0000e+00
      -11  1    1    2    0    0 +2.9155859424e+00 -2.5879491820e+00 +7.6155709569e+01 7.6255427494e+01 0.0000000000e+00 0.0000e+00 1.0000e+00
       11  1    1    2    0    0 -7.8090460836e+00 +5.8773167345e+00 -4.9986299680e+02 4.9995853790e+02 0.0000000000e+00 0.0000e+00 1.0000e+00
      -15  1    1    2    0    0 +6.7530115984e-02 -1.5816439827e+00 +7.8051127746e+01 7.8087402502e+01 1.7770000000e+00 0.0000e+00 -1.0000e+00
       15  1    1    2    0    0 +4.8259300252e+00 -1.7077235697e+00 +3.4565615948e+02 3.4569863210e+02 1.7770000000e+00 0.0000e+00 1.0000e+00
</event>
<event>
 6 1 7.08916e-05 5.00079300e+02 7.54677100e-03 9.39963200e-02
      -11 -1    0    0    0    0 +0.0000000000e+00 +0.0000000000e+00 +5.0000000000e+02 5.0000000000e+02 0.0000000000e+00 0.0000e+00 1.0000e+00
       11 -1    0    0    0    0 -0.0000000000e+00 -0.0000000000e+00 -5.0000000000e+02 5.0000000000e+02 0.0000000000e+00 0.0000e+00 -1.0000e+00
      -11  1    1    2    0    0 -3.7275941971e-01 +2.2615034525e+00 +1.0466127472e+02 1.0468636862e+02 0.0000000000e+00 0.0000e+00 1.0000e+00
       11  1    1    2    0    0 -1.9138782530e+00 -8.9755394174e+00 -4.9983646768e+02 4.9992071137e+02 0.0000000000e+00 0.0000e+00 -1.0000e+00
      -15  1    1    2    0    0 +3.5472790708e+00 +8.6386626449e+00 +3.4693483003e+02 3.4706504246e+02 1.7770000000e+00 0.0000e+00 1.0000e+00
       15  1    1    2    0    0 -1.2606413980e+00 -1.9246266800e+00 +4.8240362923e+01 4.8327877551e+01 1.7770000000e+00 0.0000e+00 -1.0000e+00
</event>
<event>
 6 1 7.08916e-05 5.01902800e+02 7.54677100e-03 9.39556200e-02
      -11 -1    0    0    0    0 +0.0000000000e+00 +0.0000000000e+00 +5.0000000000e+02 5.0000000000e+02 0.0000000000e+00 0.0000e+00 1.0000e+00
       11 -1    0    0    0    0 -0.0000000000e+00 -0.0000000000e+00 -5.0000000000e+02 5.0000000000e+02 0.0000000000e+00 0.0000e+00 -1.0000e+00
      -11  1    1    2    0    0 -8.1379592468e+00 -6.9489874688e+00 +4.9798223910e+02 4.9809720464e+02 0.0000000000e+00 0.0000e+00 1.0000e+00
       11  1    1    2    0    0 +7.1604284207e+00 -1.0955598948e+01 -4.2158023827e+02 4.2178334981e+02 0.0000000000e+00 0.0000e+00 -1.0000e+00
      -15  1    1    2    0    0 +2.6446158890e+00 -1.0288055959e+00 -3.8694939810e+00 5.1169470218e+00 1.7770000000e+00 0.0000e+00 -1.0000e+00
       15  1    1    2    0    0 -1.6670850628e+00 +1.8933392012e+01 -7.2532506854e+01 7.5002498527e+01 1.7770000000e+00 0.0000e+00 1.0000e+00
</event>
<event>
 6 1 7.08916e-05 5.07081000e+02 7.54677100e-03 9.38410300e-02
      -11 -1    0    0    0    0 +0.0000000000e+00 +0.0000000000e+00 +5.0000000000e+02 5.0000000000e+02 0.0000000000e+00 0.0000e+00 -1.0000e+00
       11 -1    0    0    0    0 -0.0000000000e+00 -0.0000000000e+00 -5.0000000000e+02 5.0000000000e+02 0.0000000000e+00 0.0000e+00 1.0000e+00
      -11  1    1    2    0    0 -2.2820275065e+01 -9.4149333767e+00 +4.5232261491e+02 4.5299575482e+02 0.0000000000e+00 0.0000e+00 -1.0000e+00
       11  1    1    2    0    0 -5.8112856440e+00 -7.5773770250e+00 -4.9282647185e+02 4.9291897817e+02 0.0000000000e+00 0.0000e+00 1.0000e+00
      -15  1    1    2    0    0 +1.3679383426e+01 +3.2067644181e+00 +2.3855671678e+01 2.7742740838e+01 1.7770000000e+00 0.0000e+00 1.0000e+00
       15  1    1    2    0    0 +1.4952177283e+01 +1.3785545984e+01 +1.6648185260e+01 2.6342526170e+01 1.7770000000e+00 0.0000e+00 -1.0000e+00
</event>
<event>
 6 1 7.08916e-05 5.00191000e+02 7.54677100e-03 9.39938300e-02
      -11 -1    0    0    0    0 +0.0000000000e+00 +0.0000000000e+00 +5.0000000000e+02 5.0000000000e+02 0.0000000000e+00 0.0000e+00 -1.0000e+00
       11 -1    0    0    0    0 -0.0000000000e+00 -0.0000000000e+00 -5.0000000000e+02 5.0000000000e+02 0.0000000000e+00 0.0000e+00 -1.0000e+00
      -11  1    1    2    0    0 +3.7218517632e+00 -2.2576731950e+00 +2.0970935384e+02 2.0975452882e+02 0.0000000000e+00 0.0000e+00 -1.0000e+00
       11  1    1    2    0    0 +7.0912714498e+00 +1.7068152685e+00 -4.9975582744e+02 4.9980904994e+02 0.0000000000e+00 0.0000e+00 -1.0000e+00
      -15  1    1    2    0    0 -3.9571109214e+00 -6.1974005514e-02 +2.1732510580e+02 2.1736840136e+02 1.7770000000e+00 0.0000e+00 -1.0000e+00
       15  1    1    2    0    0 -6.8560122916e+00 +6.1283193202e-01 +7.2721367791e+01 7.3068019885e+01 1.7770000000e+00 0.0000e+00 1.0000e+00
</event>
<event>
 6 1 7.08916e-05 4.88237400e+02 7.54677100e-03 9.42652100e-02
      -11 -1    0    0    0    0 +0.0000000000e+00 +0.0000000000e+00 +5.0000000000e+02 5.0000000000e+02 0.0000000000e+00 0.0000e+00 1.0000e+00
       11 -1    0    0    0    0 -0.0000000000e+00 -0.0000000000e+00 -5.0000000000e+02 5.0000000000e+02 0.0000000000e+00 0.0000e+00 1.0000e+00
      -11  1    1    2    0    0 +8.4797906967e+00 +2.4998618445e-01 +4.8546942112e+02 4.8554353892e+02 0.0000000000e+00 0.0000e+00 1.0000e+00
       11  1    1    2    0    0 +1.2102364232e+01 +2.7297207084e+00 -4.9101169269e+02 4.9116840386e+02 0.0000000000e+00 0.0000e+00 1.0000e+00
      -15  1    1    2    0    0 -8.6505893579e+00 -4.8597888691e+00 +4.4873215310e+00 1.1033767607e+01 1.7770000000e+00 0.0000e+00 -1.0000e+00
       15  1    1    2    0    0 -1.1931565571e+01 +1.8800819762e+00 +1.0549500375e+00 1.2254289607e+01 1.7770000000e+00 0.0000e+00 1.0000e+00
</event>
<event>
 6 1 7.08916e-05 4.66442100e+02 7.54677100e-03 9.47819700e-02
      -11 -1    0    0    0    0 +0.0000000000e+00 +0.0000000000e+00 +5.0000000000e+02 5.0000000000e+02 0.0000000000e+00 0.0000e+00 1.0000e+00
       11 -1    0    0    0    0 -0.0000000000e+00 -0.0000000000e+00 -5.0000000000e+02 5.0000000000e+02 0.0000000000e+00 0.0000e+00 1.0000e+00
      -11  1    1    2    0    0 +2.3756782023e+01 -3.8582014447e+00 +4.5505388437e+02 4.5568992538e+02 0.0000000000e+00 0.0000e+00 1.0000e+00
       11  1    1    2    0    0 +1.9739855786e+01 -1.4480751444e+01 -4.7804417069e+02 4.7867064167e+02 0.0000000000e+00 0.0000e+00 1.0000e+00
      -15  1    1    2    0    0 -5.0579366553e+00 +4.9915920037e+00 -1.0573411929e+01 1.2862872260e+01 1.7770000000e+00 0.0000e+00 1.0000e+00
       15  1    1    2    0    0 -3.8438701154e+01 +1.3347360885e+01 +3.3563698250e+01 5.2776560690e+01 1.7770000000e+00 0.0000e+00 -1.0000e+00
</event>
<event>
 6 1 7.08916e-05 5.00206800e+02 7.54677100e-03 9.39934700e-02
      -11 -1    0    0    0    0 +0.0000000000e+00 +0.0000000000e+00 +5.0000000000e+02 5.0000000000e+02 0.0000000000e+00 0.0000e+00 1.0000e+00
       11 -1    0    0    0    0 -0.0000000000e+00 -0.0000000000e+00 -5.0000000000e+02 5.0000000000e+02 0.0000000000e+00 0.0000e+00 1.0000e+00
      -11  1    1    2    0    0 -3.9652271355e-01 -8.7050580425e+00 +4.9971722102e+02 4.9979319348e+02 0.0000000000e+00 0.0000e+00 1.0000e+00
       11  1    1    2    0    0 +1.4543247446e+00 +2.5716077030e+00 -2.0300278428e+02 2.0302428094e+02 0.0000000000e+00 0.0000e+00 1.0000e+00
      -15  1    1    2    0    0 +3.8835340940e+00 +9.2027694074e-01 -2.5816175702e+01 2.6183227525e+01 1.7770000000e+00 0.0000e+00 -1.0000e+00
       15  1    1    2    0    0 -4.9413361251e+00 +5.2131733987e+00 -2.7089826104e+02 2.7099929805e+02 1.7770000000e+00 0.0000e+00 1.0000e+00
</event>
<event>
 6 1 7.08916e-05 5.08207400e+02 7.54677100e-03 9.38163000e-02
      -11 -1    0    0    0    0 +0.0000000000e+00 +0.0000000000e+00 +5.0000000000e+02 5.0000000000e+02 0.0000000000e+00 0.0000e+00 1.0000e+00
       11 -1    0    0    0    0 -0.0000000000e+00 -0.0000000000e+00 -5.0000000000e+02 5.0000000000e+02 0.0000000000e+00 0.0000e+00 1.0000e+00
      -11  1    1    2    0    0 -2.9785446003e+00 +3.2314700435e+01 +3.6964120767e+02 3.7106297848e+02 0.0000000000e+00 0.0000e+00 1.0000e+00
       11  1    1    2    0    0 +1.1150088584e+01 -8.9888713044e+00 -4.9158397042e+02 4.9179256222e+02 0.0000000000e+00 0.0000e+00 1.0000e+00
      -15  1    1    2    0    0 +5.2042364610e-02 -3.4172104447e+01 +1.1800190046e+02 1.2286310134e+02 1.7770000000e+00 0.0000e+00 1.0000e+00
       15  1    1    2    0    0 -8.2235863484e+00 +1.0846275316e+01 +3.9408622940e+00 1.4281357964e+01 1.7770000000e+00 0.0000e+00 -1.0000e+00
</event>
<event>
 6 1 7.08916e-05 5.01980300e+02 7.54677100e-03 9.39539000e-02
      -11 -1    0    0    0    0 +0.0000000000e+00 +0.0000000000e+00 +5.0000000000e+02 5.0000000000e+02 0.0000000000e+00 0.0000e+00 -1.0000e+00
       11 -1    0    0    0    0 -0.0000000000e+00 -0.0000000000e+00 -5.0000000000e+02 5.0000000000e+02 0.0000000000e+00 0.0000e+00 1.0000e+00
      -11  1    1    2    0    0 -7.1706092187e+00 +9.4646929771e-01 +4.9796719019e+02 4.9801971441e+02 0.0000000000e+00 0.0000e+00 -1.0000e+00
       11  1    1    2    0    0 -1.1855168819e+01 -6.1230876065e+00 -4.3645607655e+02 4.3665998670e+02 0.0000000000e+00 0.0000e+00 1.0000e+00
      -15  1    1    2    0    0 +2.0687334026e+00 +3.5336594292e+00 -1.8336832720e+01 1.8872296364e+01 1.7770000000e+00 0.0000e+00 1.0000e+00
       15  1    1    2    0    0 +1.6957044635e+01 +1.6429588796e+00 -4.3174280917e+01 4.6448002523e+01 1.7770000000e+00 0.0000e+00 -1.0000e+00
</event>
<event>
 6 1 7.08916e-05 5.00231700e+02 7.54677100e-03 9.39929200e-02
      -11 -1    0    0    0    0 +0.0000000000e+00 +0.0000000000e+00 +5.0000000000e+02 5.0000000000e+02 0.0000000000e+00 0.0000e+00 1.0000e+00
       11 -1    0    0    0    0 -0.0000000000e+00 -0.0000000000e+00 -5.0000000000e+02 5.0000000000e+02 0.0000000000e+00 0.0000e+00 -1.0000e+00
      -11  1    1    2    0    0 -4.8198588572e-02 +6.1705924644e+00 +3.1246633792e+02 3.1252726420e+02 0.0000000000e+00 0.0000e+00 1.0000e+00
       11  1    1    2    0    0 +1.1439599408e+01 -2.4751337452e+00 -4.9963127635e+02 4.9976834936e+02 0.0000000000e+00 0.0000e+00 -1.0000e+00
      -15  1    1    2    0    0 -3.3084149459e+00 -4.4167104062e+00 +8.8956769360e+01 8.9145484935e+01 1.7770000000e+00 0.0000e+00 1.0000e+00
       15  1    1    2    0    0 -8.0829858739e+00 +7.2125168711e-01 +9.8208169064e+01 9.8558901498e+01 1.7770000000e+00 0.0000e+00 -1.0000e+00
</event>
<event>
 6 1 7.08916e-05 5.03071600e+02 7.54677100e-03 9.39296300e-02
      -11 -1    0    0    0    0 +0.0000000000e+00 +0.0000000000e+00 +5.0000000000e+02 5.0000000000e+02 0.0000000000e+00 0.0000e+00 1.0000e+00
       11 -1    0    0    0    0 -0.0000000000e+00 -0.0000000000e+00 -5.0000000000e+02 5.0000000000e+02 0.0000000000e+00 0.0000e+00 1.0000e+00
      -11  1    1    2    0    0 +1.3576166936e+01 -1.0473025190e+00 +4.9674176071e+02 4.9692835095e+02 0.0000000000e+00 0.0000e+00 1.0000e+00
       11  1    1    2    0    0 -5.9994434339e+00 -4.3238572715e+00 -4.6537717062e+02 4.6543592470e+02 0.0000000000e+00 0.0000e+00 1.0000e+00
      -15  1    1    2    0    0 -6.3634326993e+00 +1.4360052782e-01 -9.2170710516e-01 6.6724185884e+00 1.7770000000e+00 0.0000e+00 -1.0000e+00
       15  1    1    2    0    0 -1.2132908029e+00 +5.2275592627e+00 -3.0442882981e+01 3.0963305761e+01 1.7770000000e+00 0.0000e+00 1.0000e+00
</event>
<event>
 6 1 7.08916e-05 5.02594200e+02 7.54677100e-03 9.39402400e-02
      -11 -1    0    0    0    0 +0.0000000000e+00 +0.0000000000e+00 +5.0000000000e+02 5.0000000000e+02 0.0000000000e+00 0.0000e+00 -1.0000e+00
       11 -1    0    0    0    0 -0.0000000000e+00 -0.0000000000e+00 -5.0000000000e+02 5.0000000000e+02 0.0000000000e+00 0.0000e+00 1.0000e+00
      -11  1    1    2    0    0 -1.2138984647e+01 +6.2286363054e+00 +4.6919925995e+02 4.6939758883e+02 0.0000000000e+00 0.0000e+00 -1.0000e+00
       11  1    1    2    0    0 +4.1532280526e-02 -8.8174719095e+00 -4.9732762901e+02 4.9740579019e+02 0.0000000000e+00 0.0000e+00 1.0000e+00
      -15  1    1    2    0    0 +9.4972282648e+00 +5.9839487408e+00 +2.5387765598e+01 2.7815487741e+01 1.7770000000e+00 0.0000e+00 1.0000e+00
       15  1    1    2    0    0 +2.6002241022e+00 -3.3951131367e+00 +2.7406034614e+00 5.3811332380e+00 1.7770000000e+00 0.0000e+00 -1.0000e+00
</event>
<event>
 6 1 7.08916e-05 5.04496900e+02 7.54677100e-03 9.38980300e-02
      -11 -1    0    0    0    0 +0.0000000000e+00 +0.0000000000e+00 +5.0000000000e+02 5.0000000000e+02 0.0000000000e+00 0.0000e+00 -1.0000e+00
       11 -1    0    0    0    0 -0.0000000000e+00 -0.0000000000e+00 -5.0000000000e+02 5.0000000000e+02 0.0000000000e+00 0.0000e+00 1.0000e+00
      -11  1    1    2    0    0 -7.9786793190e+00 -1.1553425380e+01 +4.9530408748e+02 4.9550305755e+02 0.0000000000e+00 0.0000e+00 -1.0000e+00
       11  1    1    2    0    0 +6.9199411151e+00 +1.6200472796e+00 -4.7312917737e+02 4.7318255317e+02 0.0000000000e+00 0.0000e+00 1.0000e+00
      -15  1    1    2    0    0 +8.2365556586e+00 +9.0760509479e+00 -6.5569331495e+00 1.4013088569e+01 1.7770000000e+00 0.0000e+00 -1.0000e+00
       15  1    1    2    0    0 -7.1778174547e+00 +8.5732715208e-01 -1.5617976959e+01 1.7301300718e+01 1.7770000000e+00 0.0000e+00 1.0000e+00
</event>
<event>
 6 1 7.08916e-05 5.00123200e+02 7.54677100e-03 9.39953400e-02
      -11 -1    0    0    0    0 +0.0000000000e+00 +0.0000000000e+00 +5.0000000000e+02 5.0000000000e+02 0.0000000000e+00 0.0000e+00 -1.0000e+00
       11 -1    0    0    0    0 -0.0000000000e+00 -0.0000000000e+00 -5.0000000000e+02 5.0000000000e+02 0.0000000000e+00 0.0000e+00 -1.0000e+00
      -11  1    1    2    0    0 -7.9681516214e+00 -2.0533679812e+01 +2.5549074674e+02 2.5643838464e+02 0.0000000000e+00 0.0000e+00 -1.0000e+00
       11  1    1    2    0    0 +4.5413221315e+00 +3.2170460239e+01 -4.9881987777e+02 4.9987681740e+02 0.0000000000e+00 0.0000e+00 -1.0000e+00
      -15  1    1    2    0    0 +2.3585261694e+00 -7.1812299728e+00 +1.1515010772e+02 1.1541160144e+02 1.7770000000e+00 0.0000e+00 -1.0000e+00
       15  1    1    2    0    0 +1.0683033205e+00 -4.4555504534e+00 +1.2817902330e+02 1.2827319652e+02 1.7770000000e+00 0.0000e+00 -1.0000e+00
</event>
<event>
 6 1 7.08916e-05 5.24063700e+02 7.54677100e-03 9.34751900e-02
      -11 -1    0    0    0    0 +0.0000000000e+00 +0.0000000000e+00 +5.0000000000e+02 5.0000000000e+02 0.0000000000e+00 0.0000e+00 -1.0000e+00
       11 -1    0    0    0    0 -0.0000000000e+00 -0.0000000000e+00 -5.0000000000e+02 5.0000000000e+02 0.0000000000e+00 0.0000e+00 1.0000e+00
      -11  1    1    2    0    0 -4.5140191052e+00 +1.7608035406e+01 +4.7558905032e+02 4.7593630253e+02 0.0000000000e+00 0.0000e+00 -1.0000e+00
       11  1    1    2    0    0 -1.1621602052e+01 -2.7675048401e+00 -1.8822002092e+02 1.8859877251e+02 0.0000000000e+00 0.0000e+00 1.0000e+00
      -15  1    1    2    0    0 +2.6352688179e+01 -2.1272644828e+01 -3.0887857294e+02 3.1073480678e+02 1.7770000000e+00 0.0000e+00 1.0000e+00
       15  1    1    2    0    0 -1.0217067022e+01 +6.4321142624e+00 +2.1509543548e+01 2.4730118177e+01 1.7770000000e+00 0.0000e+00 -1.0000e+00
</event>
<event>
 6 1 7.08916e-05 5.04146000e+02 7.54677100e-03 9.39058000e-02
      -11 -1    0    0    0    0 +0.0000000000e+00 +0.0000000000e+00 +5.0000000000e+02 5.0000000000e+02 0.0000000000e+00 0.0000e+00 1.0000e+00
       11 -1    0    0    0    0 -0.0000000000e+00 -0.0000000000e+00 -5.0000000000e+02 5.0000000000e+02 0.0000000000e+00 0.0000e+00 1.0000e+00
      -11  1    1    2    0    0 -3.2341916104e+00 +2.1532432679e+01 +4.9537566374e+02 4.9585396426e+02 0.0000000000e+00 0.0000e+00 1.0000e+00
       11  1    1    2    0    0 -5.3203859575e+00 -2.4953666607e+00 -4.0554896763e+02 4.0559154146e+02 0.0000000000e+00 0.0000e+00 1.0000e+00
      -15  1    1    2    0    0 +1.6005944812e+01 -2.3823344833e+00 -1.7334975245e+01 2.3780767075e+01 1.7770000000e+00 0.0000e+00 -1.0000e+00
       15  1    1    2    0    0 -7.4513672444e+00 -1.6654731535e+01 -7.2491720868e+01 7.4773727202e+01 1.7770000000e+00 0.0000e+00 1.0000e+00
</event>
<event>
 6 1 7.08916e-05 5.01576600e+02 7.54677100e-03 9.39628900e-02
      -11 -1    0    0    0    0 +0.0000000000e+00 +0.0000000000e+00 +5.0000000000e+02 5.0000000000e+02 0.0000000000e+00 0.0000e+00 -1.0000e+00
       11 -1    0    0    0    0 -0.0000000000e+00 -0.0000000000e+00 -5.0000000000e+02 5.0000000000e+02 0.0000000000e+00 0.0000e+00 1.0000e+00
      -11  1    1    2    0    0 -1.0752428711e+00 +8.1200350063e+00 +4.9835606287e+02 4.9842337076e+02 0.0000000000e+00 0.0000e+00 -1.0000e+00
       11  1    1    2    0    0 +9.3641585346e-01 -9.8966461215e+00 -3.5215480552e+02 3.5229508587e+02 0.0000000000e+00 0.0000e+00 1.0000e+00
      -15  1    1    2    0    0 +1.1350499914e+01 +2.9501151931e+00 -1.2142943127e+02 1.2200738312e+02 1.7770000000e+00 0.0000e+00 1.0000e+00
       15  1    1    2    0    0 -1.1211672896e+01 -1.1735040779e+00 -2.4771826086e+01 2.7274160255e+01 1.7770000000e+00 0.0000e+00 -1.0000e+00
</event>
<event>
 6 1 7.08916e-05 5.01397000e+02 7.54677100e-03 9.39668900e-02
      -11 -1    0    0    0    0 +0.0000000000e+00 +0.0000000000e+00 +5.0000000000e+02 5.0000000000e+02 0.0000000000e+00 0.0000e+00 -1.0000e+00
       11 -1    0    0    0    0 -0.0000000000e+00 -0.0000000000e+00 -5.0000000000e+02 5.0000000000e+02 0.0000000000e+00 0.0000e+00 1.0000e+00
      -11  1    1    2    0    0 +1.4559653736e+01 -5.0594145903e+00 +2.1079284436e+02 2.1135563495e+02 0.0000000000e+00 0.0000e+00 -1.0000e+00
       11  1    1    2    0    0 -6.8513254431e-01 +3.9455053100e+01 -4.9703900246e+02 4.9860298895e+02 0.0000000000e+00 0.0000e+00 1.0000e+00
      -15  1    1    2    0    0 -2.0213627673e+01 -1.6953392757e+01 +2.0413163449e+02 2.0583704768e+02 1.7770000000e+00 0.0000e+00 -1.0000e+00
       15  1    1    2    0    0 +6.3391064815e+00 -1.7442245753e+01 +8.2114523611e+01 8.4204328420e+01 1.7770000000e+00 0.0000e+00 1.0000e+00
</event>
<event>
 6 1 7.08916e-05 4.85058000e+02 7.54677100e-03 9.43387800e-02
      -11 -1    0    0    0    0 +0.0000000000e+00 +0.0000000000e+00 +5.0000000000e+02 5.0000000000e+02 0.0000000000e+00 0.0000e+00 -1.0000e+00
       11 -1    0    0    0    0 -0.0000000000e+00 -0.0000000000e+00 -5.0000000000e+02 5.0000000000e+02 0.0000000000e+00 0.0000e+00 -1.0000e+00
      -11  1    1    2    0    0 +8.2458518963e-01 +1.8635682407e+01 +4.8045146777e+02 4.8081345809e+02 0.0000000000e+00 0.0000e+00 -1.0000e+00
       11  1    1    2    0    0 +8.1517679158e+00 -1.3089605942e+00 -4.8947115921e+02 4.8954078522e+02 0.0000000000e+00 0.0000e+00 -1.0000e+00
      -15  1    1    2    0    0 +6.9126355529e-01 -6.9737367843e+00 -5.6504375673e+00 9.1758391301e+00 1.7770000000e+00 0.0000e+00 -1.0000e+00
       15  1    1    2    0    0 -9.6676166608e+00 -1.0352985029e+01 +1.4670129000e+01 2.0469917557e+01 1.7770000000e+00 0.0000e+00 1.0000e+00
</event>
<event>
 6 1 7.08916e-05 5.05614500e+02 7.54677100e-03 9.38733400e-02
      -11 -1    0    0    0    0 +0.0000000000e+00 +0.0000000000e+00 +5.0000000000e+02 5.0000000000e+02 0.0000000000e+00 0.0000e+00 1.0000e+00
       11 -1    0    0    0    0 -0.0000000000e+00 -0.0000000000e+00 -5.0000000000e+02 5.0000000000e+02 0.0000000000e+00 0.0000e+00 1.0000e+00
      -11  1    1    2    0    0 +3.6553317348e+00 -1.0382751549e+01 +4.8244105476e+02 4.8256661126e+02 0.0000000000e+00 0.0000e+00 1.0000e+00
       11  1    1    2    0    0 -8.5222761883e+00 +3.2742864942e-01 -4.9431192859e+02 4.9438549650e+02 0.0000000000e+00 0.0000e+00 1.0000e+00
      -15  1    1    2    0    0 +8.4858616492e+00 +2.6821482841e+00 +1.1481931473e+01 1.4635444875e+01 1.7770000000e+00 0.0000e+00 1.0000e+00
       15  1    1    2    0    0 -3.6189171957e+00 +7.3731746151e+00 +3.8894235693e-01 8.4124473687e+00 1.7770000000e+00 0.0000e+00 -1.0000e+00
</event>
<event>
 6 1 7.08916e-05 5.06503500e+02 7.54677100e-03 9.38537400e-02
      -11 -1    0    0    0    0 +0.0000000000e+00 +0.0000000000e+00 +5.0000000000e+02 5.0000000000e+02 0.0000000000e+00 0.0000e+00 -1.0000e+00
       11 -1    0    0    0    0 -0.0000000000e+00 -0.0000000000e+00 -5.0000000000e+02 5.0000000000e+02 0.0000000000e+00 0.0000e+00 1.0000e+00
      -11  1    1    2    0    0 -8.9055032704e+00 -9.0191929473e+00 +4.6422695169e+02 4.6439995317e+02 0.0000000000e+00 0.0000e+00 -1.0000e+00
       11  1    1    2    0    0 -1.1220984994e+01 -3.0974563196e+00 -4.9335922936e+02 4.9349653893e+02 0.0000000000e+00 0.0000e+00 1.0000e+00
      -15  1    1    2    0    0 +1.9282019994e+01 +5.8811853394e+00 +2.9244814462e+01 3.5564048391e+01 1.7770000000e+00 0.0000e+00 -1.0000e+00
       15  1    1    2    0    0 +8.4446827056e-01 +6.2354639274e+00 -1.1253678954e-01 6.5394595021e+00 1.7770000000e+00 0.0000e+00 1.0000e+00
</event>
<event>
 6 1 7.08916e-05 5.02776900e+02 7.54677100e-03 9.39361800e-02
      -11 -1    0    0    0    0 +0.0000000000e+00 +0.0000000000e+00 +5.0000000000e+02 5.0000000000e+02 0.0000000000e+00 0.0000e+00 -1.0000e+00
       11 -1    0    0    0    0 -0.0000000000e+00 -0.0000000000e+00 -5.0000000000e+02 5.0000000000e+02 0.0000000000e+00 0.0000e+00 1.0000e+00
      -11  1    1    2    0    0 +8.8483260544e+00 +8.1355480545e+00 +4.9707778541e+02 4.9722309355e+02 0.0000000000e+00 0.0000e+00 -1.0000e+00
       11  1    1    2    0    0 -4.4303672767e+00 -2.2529421013e+00 -3.5920770260e+02 3.5924208761e+02 0.0000000000e+00 0.0000e+00 1.0000e+00
      -15  1    1    2    0    0 -1.1102166505e+00 +1.2538514291e+01 -1.0419288878e+02 1.0496553111e+02 1.7770000000e+00 0.0000e+00 -1.0000e+00
       15  1    1    2    0    0 -3.3077421272e+00 -1.8421120244e+01 -3.3677194027e+01 3.8569287724e+01 1.7770000000e+00 0.0000e+00 1.0000e+00
</event>
<event>
 6 1 7.08916e-05 5.01248900e+02 7.54677100e-03 9.39701900e-02
      -11 -1    0    0    0    0 +0.0000000000e+00 +0.0000000000e+00 +5.0000000000e+02 5.0000000000e+02 0.0000000000e+00 0.0000e+00 -1.0000e+00
       11 -1    0    0    0    0 -0.0000000000e+00 -0.0000000000e+00 -5.0000000000e+02 5.0000000000e+02 0.0000000000e+00 0.0000e+00 -1.0000e+00
      -11  1    1    2    0    0 -3.3448037838e-01 +3.9428547632e+00 +1.2537929936e+02 1.2544172626e+02 0.0000000000e+00 0.0000e+00 -1.0000e+00
       11  1    1    2    0    0 +1.4786465657e+01 +3.2624365649e+01 -4.9746318975e+02 4.9875105409e+02 0.0000000000e+00 0.0000e+00 -1.0000e+00
      -15  1    1    2    0    0 -1.1312300658e+01 -3.5653739107e+01 +1.8839788360e+02 1.9208351708e+02 1.7770000000e+00 0.0000e+00 -1.0000e+00
       15  1    1    2    0    0 -3.1396846208e+00 -9.1348130522e-01 +1.8368600679e+02 1.8372370257e+02 1.7770000000e+00 0.0000e+00 1.0000e+00
</event>
<event>
 6 1 7.08916e-05 5.00848300e+02 7.54677100e-03 9.39791400e-02
      -11 -1    0    0    0    0 +0.0000000000e+00 +0.0000000000e+00 +5.0000000000e+02 5.0000000000e+02 0.0000000000e+00 0.0000e+00 1.0000e+00
       11 -1    0    0    0    0 -0.0000000000e+00 -0.0000000000e+00 -5.0000000000e+02 5.0000000000e+02 0.0000000000e+00 0.0000e+00 1.0000e+00
      -11  1    1    2    0    0 +4.1270471118e+00 -3.9063206021e+00 +4.1720380861e+02 4.1724250716e+02 0.0000000000e+00 0.0000e+00 1.0000e+00
       11  1    1    2    0    0 -1.8260253094e+01 +6.7774870702e+00 -4.9877153999e+02 4.9915170067e+02 0.0000000000e+00 0.0000e+00 1.0000e+00
      -15  1    1    2    0    0 +1.5110990315e+01 -4.3644576499e+00 +7.0238261366e+01 7.1999733386e+01 1.7770000000e+00 0.0000e+00 1.0000e+00
       15  1    1    2    0    0 -9.7778433281e-01 +1.4932911818e+00 +1.1329470013e+01 1.1606058786e+01 1.7770000000e+00 0.0000e+00 -1.0000e+00
</event>
<event>
 6 1 7.08916e-05 4.84451400e+02 7.54677100e-03 9.43528900e-02
      -11 -1    0    0    0    0 +0.0000000000e+00 +0.0000000000e+00 +5.0000000000e+02 5.0000000000e+02 0.0000000000e+00 0.0000e+00 1.0000e+00
       11 -1    0    0    0    0 -0.0000000000e+00 -0.0000000000e+00 -5.0000000000e+02 5.0000000000e+02 0.0000000000e+00 0.0000e+00 -1.0000e+00
      -11  1    1    2    0    0 +1.0632774565e-01 -8.9188547822e+00 +4.8132410631e+02 4.8140674340e+02 0.0000000000e+00 0.0000e+00 1.0000e+00
       11  1    1    2    0    0 -1.5683246329e+01 +1.1016361751e+01 -4.8726489449e+02 4.8764167361e+02 0.0000000000e+00 0.0000e+00 -1.0000e+00
      -15  1    1    2    0    0 +1.7786497798e+01 -4.5440236332e+00 -5.2291559492e+00 1.9170536134e+01 1.7770000000e+00 0.0000e+00 1.0000e+00
       15  1    1    2    0    0 -2.2095792148e+00 +2.4465166643e+00 +1.1169944131e+01 1.1781046854e+01 1.7770000000e+00 0.0000e+00 -1.0000e+00
</event>
<event>
 6 1 7.08916e-05 5.42504800e+02 7.54677100e-03 9.30942300e-02
      -11 -1    0    0    0    0 +0.0000000000e+00 +0.0000000000e+00 +5.0000000000e+02 5.0000000000e+02 0.0000000000e+00 0.0000e+00 -1.0000e+00
       11 -1    0    0    0    0 -0.0000000000e+00 -0.0000000000e+00 -5.0000000000e+02 5.0000000000e+02 0.0000000000e+00 0.0000e+00 1.0000e+00
      -11  1    1    2    0    0 -7.9489799416e+01 -1.9984116037e+01 +3.1137208822e+02 3.2197914595e+02 0.0000000000e+00 0.0000e+00 -1.0000e+00
       11  1    1    2    0    0 -1.3690168939e+01 -2.3021405156e+00 -4.5728453125e+02 4.5749520555e+02 0.0000000000e+00 0.0000e+00 1.0000e+00
      -15  1    1    2    0    0 +9.3649161905e+01 -1.4241428883e-01 +1.6584235558e+02 1.9046529984e+02 1.7770000000e+00 0.0000e+00 -1.0000e+00
       15  1    1    2    0    0 -4.6919354974e-01 +2.2428670841e+01 -1.9929912552e+01 3.0060348661e+01 1.7770000000e+00 0.0000e+00 1.0000e+00
</event>
<event>
 6 1 7.08916e-05 4.89384600e+02 7.54677100e-03 9.42388100e-02
      -11 -1    0    0    0    0 +0.0000000000e+00 +0.0000000000e+00 +5.0000000000e+02 5.0000000000e+02 0.0000000000e+00 0.0000e+00 -1.0000e+00
       11 -1    0    0    0    0 -0.0000000000e+00 -0.0000000000e+00 -5.0000000000e+02 5.0000000000e+02 0.0000000000e+00 0.0000e+00 -1.0000e+00
      -11  1    1    2    0    0 -7.8876147325e+00 +8.2734900229e+00 +4.9180177562e+02 4.9193460095e+02 0.0000000000e+00 0.0000e+00 -1.0000e+00
       11  1    1    2    0    0 +7.7533812559e+00 +4.9936869544e+00 -4.8684978085e+02 4.8693712217e+02 0.0000000000e+00 0.0000e+00 -1.0000e+00
      -15  1    1    2    0    0 +4.2830675180e+00 -1.4648197335e+01 -1.8392186239e+00 1.5474327342e+01 1.7770000000e+00 0.0000e+00 1.0000e+00
       15  1    1    2    0    0 -4.1488340415e+00 +1.3810203578e+00 -3.1127761485e+00 5.6539495472e+00 1.7770000000e+00 0.0000e+00 -1.0000e+00
</event>
<event>
 6 1 7.08916e-05 5.04402700e+02 7.54677100e-03 9.39001200e-02
      -11 -1    0    0    0    0 +0.0000000000e+00 +0.0000000000e+00 +5.0000000000e+02 5.0000000000e+02 0.0000000000e+00 0.0000e+00 -1.0000e+00
       11 -1    0    0    0    0 -0.0000000000e+00 -0.0000000000e+00 -5.0000000000e+02 5.0000000000e+02 0.0000000000e+00 0.0000e+00 -1.0000e+00
      -11  1    1    2    0    0 -7.2475088945e-01 -8.1546068584e+00 +4.9552970308e+02 4.9559732598e+02 0.0000000000e+00 0.0000e+00 -1.0000e+00
       11  1    1    2    0    0 +2.3780431632e+01 +3.1360393107e+01 -3.2310245710e+02 3.2549067723e+02 0.0000000000e+00 0.0000e+00 -1.0000e+00
      -15  1    1    2    0    0 -2.8074479793e+01 -8.1558328141e+00 -1.3635437319e+02 1.3946457199e+02 1.7770000000e+00 0.0000e+00 -1.0000e+00
       15  1    1    2    0    0 +5.0187990508e+00 -1.5049953435e+01 -3.6072872800e+01 3.9447424800e+01 1.7770000000e+00 0.0000e+00 1.0000e+00
</event>
<event>
 6 1 7.08916e-05 5.10861700e+02 7.54677100e-03 9.37582900e-02
      -11 -1    0    0    0    0 +0.0000000000e+00 +0.0000000000e+00 +5.0000000000e+02 5.0000000000e+02 0.0000000000e+00 0.0000e+00 -1.0000e+00
       11 -1    0    0    0    0 -0.0000000000e+00 -0.0000000000e+00 -5.0000000000e+02 5.0000000000e+02 0.0000000000e+00 0.0000e+00 1.0000e+00
      -11  1    1    2    0    0 +6.2242757945e+00 -4.8737308987e+00 +4.8907440959e+02 4.8913829637e+02 0.0000000000e+00 0.0000e+00 -1.0000e+00
       11  1    1    2    0    0 +4.2496056311e-01 +9.5439859255e+00 -2.4168668195e+02 2.4187542350e+02 0.0000000000e+00 0.0000e+00 1.0000e+00
      -15  1    1    2    0    0 -4.0652968071e+00 -1.8356776416e+01 +2.1917989247e+00 1.9012090628e+01 1.7770000000e+00 0.0000e+00 -1.0000e+00
       15  1    1    2    0    0 -2.5839395505e+00 +1.3686521389e+01 -2.4957952656e+02 2.4997418951e+02 1.7770000000e+00 0.0000e+00 1.0000e+00
</event>
<event>
 6 1 7.08916e-05 5.00535300e+02 7.54677100e-03 9.39861300e-02
      -11 -1    0    0    0    0 +0.0000000000e+00 +0.0000000000e+00 +5.0000000000e+02 5.0000000000e+02 0.0000000000e+00 0.0000e+00 -1.0000e+00
       11 -1    0    0    0    0 -0.0000000000e+00 -0.0000000000e+00 -5.0000000000e+02 5.0000000000e+02 0.0000000000e+00 0.0000e+00 1.0000e+00
      -11  1    1    2    0    0 -1.1053503574e+01 -4.7476369610e+00 +4.9931981173e+02 4.9946470785e+02 0.0000000000e+00 0.0000e+00 -1.0000e+00
       11  1    1    2    0    0 -1.2280256803e+00 +5.1424522541e+00 -3.1031170946e+02 3.1035674616e+02 0.0000000000e+00 0.0000e+00 1.0000e+00
      -15  1    1    2    0    0 +3.2439137769e+00 -4.6218423103e+00 -1.4042446473e+02 1.4054918152e+02 1.7770000000e+00 0.0000e+00 1.0000e+00
       15  1    1    2    0    0 +9.0376154775e+00 +4.2270270172e+00 -4.8583637548e+01 4.9629364466e+01 1.7770000000e+00 0.0000e+00 -1.0000e+00
</event>
<event>
 6 1 7.08916e-05 4.92141800e+02 7.54677100e-03 9.41756700e-02
      -11 -1    0    0    0    0 +0.0000000000e+00 +0.0000000000e+00 +5.0000000000e+02 5.0000000000e+02 0.0000000000e+00 0.0000e+00 1.0000e+00
       11 -1    0    0    0    0 -0.0000000000e+00 -0.0000000000e+00 -5.0000000000e+02 5.0000000000e+02 0.0000000000e+00 0.0000e+00 -1.0000e+00
      -11  1    1    2    0    0 -1.3618744893e+01 -1.2566239167e+01 +4.9122943722e+02 4.9157882437e+02 0.0000000000e+00 0.0000e+00 1.0000e+00
       11  1    1    2    0    0 +1.2546579606e+01 +9.4903395592e+00 +1.2143639138e+00 1.5778399300e+01 0.0000000000e+00 0.0000e+00 -1.0000e+00
      -15  1    1    2    0    0 -5.2776243598e+00 +6.1219216188e-01 -1.1810157405e+02 1.1823437579e+02 1.7770000000e+00 0.0000e+00 1.0000e+00
       15  1    1    2    0    0 +6.3497896463e+00 +2.4637074456e+00 -3.7434222709e+02 3.7440840054e+02 1.7770000000e+00 0.0000e+00 -1.0000e+00
</event>
<event>
 6 1 7.08916e-05 5.04021000e+02 7.54677100e-03 9.39085700e-02
      -11 -1    0    0    0    0 +0.0000000000e+00 +0.0000000000e+00 +5.0000000000e+02 5.0000000000e+02 0.0000000000e+00 0.0000e+00 -1.0000e+00
       11 -1    0    0    0    0 -0.0000000000e+00 -0.0000000000e+00 -5.0000000000e+02 5.0000000000e+02 0.0000000000e+00 0.0000e+00 1.0000e+00
      -11  1    1    2    0    0 +2.7152067188e+00 -8.3692562929e+00 +4.9590093980e+02 4.9597899037e+02 0.0000000000e+00 0.0000e+00 -1.0000e+00
       11  1    1    2    0    0 +4.8760279573e+00 -1.1869883685e+01 -4.2336579296e+02 4.2356022528e+02 0.0000000000e+00 0.0000e+00 1.0000e+00
      -15  1    1    2    0    0 +4.3596915911e+00 -1.6541735079e+00 -3.5030951452e+01 3.5384579825e+01 1.7770000000e+00 0.0000e+00 1.0000e+00
       15  1    1    2    0    0 -1.1950926267e+01 +2.1893313486e+01 -3.7504195381e+01 4.5076204524e+01 1.7770000000e+00 0.0000e+00 -1.0000e+00
</event>
<event>
 6 1 7.08916e-05 5.10892500e+02 7.54677100e-03 9.37576100e-02
      -11 -1    0    0    0    0 +0.0000000000e+00 +0.0000000000e+00 +5.0000000000e+02 5.0000000000e+02 0.0000000000e+00 0.0000e+00 -1.0000e+00
       11 -1    0    0    0    0 -0.0000000000e+00 -0.0000000000e+00 -5.0000000000e+02 5.0000000000e+02 0.0000000000e+00 0.0000e+00 1.0000e+00
      -11  1    1    2    0    0 +8.1930828799e-01 +1.6633815710e+01 +4.2764918138e+02 4.2797333729e+02 0.0000000000e+00 0.0000e+00 -1.0000e+00
       11  1    1    2    0    0 +7.6700617023e+00 -7.3481847137e+00 -4.8899214631e+02 4.8910749823e+02 0.0000000000e+00 0.0000e+00 1.0000e+00
      -15  1    1    2    0    0 +1.1404108460e+01 -2.6635816064e+01 +2.7748491804e+01 4.0157899765e+01 1.7770000000e+00 0.0000e+00 -1.0000e+00
       15  1    1    2    0    0 -1.9893478450e+01 +1.7350185067e+01 +3.3594473126e+01 4.2761264719e+01 1.7770000000e+00 0.0000e+00 1.0000e+00
</event>
<event>
 6 1 7.08916e-05 4.87906900e+02 7.54677100e-03 9.42728300e-02
      -11 -1    0    0    0    0 +0.0000000000e+00 +0.0000000000e+00 +5.0000000000e+02 5.0000000000e+02 0.0000000000e+00 0.0000e+00 1.0000e+00
       11 -1    0    0    0    0 -0.0000000000e+00 -0.0000000000e+00 -5.0000000000e+02 5.0000000000e+02 0.0000000000e+00 0.0000e+00 1.0000e+00
      -11  1    1    2    0    0 +8.2280419209e-01 +7.6184122370e+00 +4.9036202873e+02 4.9042189636e+02 0.0000000000e+00 0.0000e+00 1.0000e+00
       11  1    1    2    0    0 +1.2369984388e+01 -1.9839244382e+00 -4.8534865764e+02 4.8551032115e+02 0.0000000000e+00 0.0000e+00 1.0000e+00
      -15  1    1    2    0    0 -4.6970911875e+00 +2.3214804668e+00 +5.8470101329e+00 8.0496704079e+00 1.7770000000e+00 0.0000e+00 -1.0000e+00
       15  1    1    2    0    0 -8.4956973926e+00 -7.9559682655e+00 -1.0860381228e+01 1.6018112081e+01 1.7770000000e+00 0.0000e+00 1.0000e+00
</event>
<event>
 6 1 7.08916e-05 5.01277300e+02 7.54677100e-03 9.39695600e-02
      -11 -1    0    0    0    0 +0.0000000000e+00 +0.0000000000e+00 +5.0000000000e+02 5.0000000000e+02 0.0000000000e+00 0.0000e+00 -1.0000e+00
       11 -1    0    0    0    0 -0.0000000000e+00 -0.0000000000e+00 -5.0000000000e+02 5.0000000000e+02 0.0000000000e+00 0.0000e+00 1.0000e+00
      -11  1    1    2    0    0 -9.3863343133e+00 +1.0174310876e+01 +4.9853058466e+02 4.9872273230e+02 0.0000000000e+00 0.0000e+00 -1.0000e+00
       11  1    1    2    0    0 -8.4032252617e+00 -5.1970936885e+00 -2.8172164634e+02 2.8189485627e+02 0.0000000000e+00 0.0000e+00 1.0000e+00
      -15  1    1    2    0    0 -5.5602673695e+00 -6.4843867923e-01 -9.9910296217e+01 1.0008277607e+02 1.7770000000e+00 0.0000e+00 1.0000e+00
       15  1    1    2    0    0 +2.3349826944e+01 -4.3287785081e+00 -1.1689864211e+02 1.1929963536e+02 1.7770000000e+00 0.0000e+00 -1.0000e+00
</event>
<event>
 6 1 7.08916e-05 5.02487600e+02 7.54677100e-03 9.39426100e-02
      -11 -1    0    0    0    0 +0.0000000000e+00 +0.0000000000e+00 +5.0000000000e+02 5.0000000000e+02 0.0000000000e+00 0.0000e+00 -1.0000e+00
       11 -1    0    0    0    0 -0.0000000000e+00 -0.0000000000e+00 -5.0000000000e+02 5.0000000000e+02 0.0000000000e+00 0.0000e+00 -1.0000e+00
      -11  1    1    2    0    0 +8.6786508441e+00 +8.0830959151e+00 +4.2402335167e+02 4.2418917735e+02 0.0000000000e+00 0.0000e+00 -1.0000e+00
       11  1    1    2    0    0 -1.5166272703e+01 +1.0640137278e+00 -4.9728008038e+02 4.9751243834e+02 0.0000000000e+00 0.0000e+00 -1.0000e+00
      -15  1    1    2    0    0 -5.7980148148e+00 -9.7563515903e+00 +5.5168957763e+01 5.6352240433e+01 1.7770000000e+00 0.0000e+00 -1.0000e+00
       15  1    1    2    0    0 +1.2285636674e+01 +6.0924194737e-01 +1.8087770949e+01 2.1946143878e+01 1.7770000000e+00 0.0000e+00 1.0000e+00
</event>
<event>
 6 1 7.08916e-05 5.03858700e+02 7.54677100e-03 9.39121700e-02
      -11 -1    0    0    0    0 +0.0000000000e+00 +0.0000000000e+00 +5.0000000000e+02 5.0000000000e+02 0.0000000000e+00 0.0000e+00 -1.0000e+00
       11 -1    0    0    0    0 -0.0000000000e+00 -0.0000000000e+00 -5.0000000000e+02 5.0000000000e+02 0.0000000000e+00 0.0000e+00 -1.0000e+00
      -11  1    1    2    0    0 +9.7059362055e+00 -1.8648807582e+00 +4.4948406719e+02 4.4959271528e+02 0.0000000000e+00 0.0000e+00 -1.0000e+00
       11  1    1    2    0    0 +7.5012458533e+00 +7.5105448364e-01 -4.9608399273e+02 4.9614127082e+02 0.0000000000e+00 0.0000e+00 -1.0000e+00
      -15  1    1    2    0    0 -3.9070611460e+00 -1.8662876325e+00 -9.4435695797e-01 4.7746932246e+00 1.7770000000e+00 0.0000e+00 1.0000e+00
       15  1    1    2    0    0 -1.3300120913e+01 +2.9801139070e+00 +4.7544282497e+01 4.9491320677e+01 1.7770000000e+00 0.0000e+00 -1.0000e+00
</event>
<event>
 6 1 7.08916e-05 5.06781200e+02 7.54677100e-03 9.38476300e-02
      -11 -1    0    0    0    0 +0.0000000000e+00 +0.0000000000e+00 +5.0000000000e+02 5.0000000000e+02 0.0000000000e+00 0.0000e+00 -1.0000e+00
       11 -1    0    0    0    0 -0.0000000000e+00 -0.0000000000e+00 -5.0000000000e+02 5.0000000000e+02 0.0000000000e+00 0.0000e+00 1.0000e+00
      -11  1    1    2    0    0 +4.1702252227e+00 +9.9351809020e+00 +4.2899015823e+02 4.2912545305e+02 0.0000000000e+00 0.0000e+00 -1.0000e+00
       11  1    1    2    0    0 -3.1873036672e+01 +1.1397550413e+01 -4.9205588255e+02 4.9321880152e+02 0.0000000000e+00 0.0000e+00 1.0000e+00
      -15  1    1    2    0    0 +2.4083627260e+01 -1.1544084579e+01 +2.0284972571e+01 3.3584592181e+01 1.7770000000e+00 0.0000e+00 -1.0000e+00
       15  1    1    2    0    0 +3.6191841898e+00 -9.7886467359e+00 +4.2780751753e+01 4.4071153248e+01 1.7770000000e+00 0.0000e+00 1.0000e+00
</event>
<event>
 6 1 7.08916e-05 5.00220100e+02 7.54677100e-03 9.39931700e-02
      -11 -1    0    0    0    0 +0.0000000000e+00 +0.0000000000e+00 +5.0000000000e+02 5.0000000000e+02 0.0000000000e+00 0.0000e+00 -1.0000e+00
       11 -1    0    0    0    0 -0.0000000000e+00 -0.0000000000e+00 -5.0000000000e+02 5.0000000000e+02 0.0000000000e+00 0.0000e+00 1.0000e+00
      -11  1    1    2    0    0 -2.7521393364e+00 +7.2333410212e+00 +4.9972000041e+02 4.9977992587e+02 0.0000000000e+00 0.0000e+00 -1.0000e+00
       11  1    1    2    0    0 +7.0311779657e+00 -8.3407353657e+00 -3.5040002058e+02 3.5056979298e+02 0.0000000000e+00 0.0000e+00 1.0000e+00
      -15  1    1    2    0    0 -4.4960358446e+00 +3.3225040943e+00 -1.2880949590e+02 1.2894300034e+02 1.7770000000e+00 0.0000e+00 -1.0000e+00
       15  1    1    2    0    0 +2.1699721531e-01 -2.2151097498e+00 -2.0510483922e+01 2.0707280814e+01 1.7770000000e+00 0.0000e+00 1.0000e+00
</event>
<event>
 6 1 7.08916e-05 5.05221500e+02 7.54677100e-03 9.38820100e-02
      -11 -1    0    0    0    0 +0.0000000000e+00 +0.0000000000e+00 +5.0000000000e+02 5.0000000000e+02 0.0000000000e+00 0.0000e+00 1.0000e+00
       11 -1    0    0    0    0 -0.0000000000e+00 -0.0000000000e+00 -5.0000000000e+02 5.0000000000e+02 0.0000000000e+00 0.0000e+00 -1.0000e+00
      -11  1    1    2    0    0 +2.4147563505e+01 +2.9136997709e+01 +4.9332919754e+02 4.9477850257e+02 0.0000000000e+00 0.0000e+00 1.0000e+00
       11  1    1    2    0    0 +1.2919041556e+01 -9.1510606612e+00 -3.2040923555e+02 3.2080012745e+02 0.0000000000e+00 0.0000e+00 -1.0000e+00
      -15  1    1    2    0    0 -5.1587367491e-01 -1.9118162995e+01 -2.2366550312e+01 2.9482038325e+01 1.7770000000e+00 0.0000e+00 -1.0000e+00
       15  1    1    2    0    0 -3.6550731386e+01 -8.6777405198e-01 -1.5055341168e+02 1.5493933165e+02 1.7770000000e+00 0.0000e+00 1.0000e+00
</event>
<event>
 6 1 7.08916e-05 5.09652000e+02 7.54677100e-03 9.37846800e-02
      -11 -1    0    0    0    0 +0.0000000000e+00 +0.0000000000e+00 +5.0000000000e+02 5.0000000000e+02 0.0000000000e+00 0.0000e+00 1.0000e+00
       11 -1    0    0    0    0 -0.0000000000e+00 -0.0000000000e+00 -5.0000000000e+02 5.0000000000e+02 0.0000000000e+00 0.0000e+00 1.0000e+00
      -11  1    1    2    0    0 +5.0606657084e+01 -8.5020958652e+00 +2.1306166445e+02 2.1915426584e+02 0.0000000000e+00 0.0000e+00 1.0000e+00
       11  1    1    2    0    0 +2.9177546142e+01 -1.4192639292e+01 -4.8927335084e+02 4.9034801116e+02 0.0000000000e+00 0.0000e+00 1.0000e+00
      -15  1    1    2    0    0 -1.9625949179e+01 +1.1076422050e+01 +3.5358456236e+01 4.1967167679e+01 1.7770000000e+00 0.0000e+00 -1.0000e+00
       15  1    1    2    0    0 -6.0158254047e+01 +1.1618313107e+01 +2.4085323015e+02 2.4853055533e+02 1.7770000000e+00 0.0000e+00 1.0000e+00
</event>
<event>
 6 1 7.08916e-05 5.00639300e+02 7.54677100e-03 9.39838000e-02
      -11 -1    0    0    0    0 +0.0000000000e+00 +0.0000000000e+00 +5.0000000000e+02 5.0000000000e+02 0.0000000000e+00 0.0000e+00 1.0000e+00
       11 -1    0    0    0    0 -0.0000000000e+00 -0.0000000000e+00 -5.0000000000e+02 5.0000000000e+02 0.0000000000e+00 0.0000e+00 -1.0000e+00
      -11  1    1    2    0    0 -1.8626395998e+01 +2.0944430904e+01 +4.9857346916e+02 4.9936070727e+02 0.0000000000e+00 0.0000e+00 1.0000e+00
       11  1    1    2    0    0 +1.3272736496e+01 -2.2337121002e+01 -1.7251708364e+02 1.7446276582e+02 0.0000000000e+00 0.0000e+00 -1.0000e+00
      -15  1    1    2    0    0 +4.0992769609e+00 -1.7739403494e+00 -2.1494180073e+02 2.1499554965e+02 1.7770000000e+00 0.0000e+00 -1.0000e+00
       15  1    1    2    0    0 +1.2543825404e+00 +3.1666304470e+00 -1.1111458479e+02 1.1118097727e+02 1.7770000000e+00 0.0000e+00 1.0000e+00
</event>
<event>
 6 1 7.08916e-05 5.01431900e+02 7.54677100e-03 9.39661100e-02
      -11 -1    0    0    0    0 +0.0000000000e+00 +0.0000000000e+00 +5.0000000000e+02 5.0000000000e+02 0.0000000000e+00 0.0000e+00 1.0000e+00
       11 -1    0    0    0    0 -0.0000000000e+00 -0.0000000000e+00 -5.0000000000e+02 5.0000000000e+02 0.0000000000e+00 0.0000e+00 -1.0000e+00
      -11  1    1    2    0    0 -1.1941764095e+01 +1.4593730918e+01 +4.9821133431e+02 4.9856806591e+02 0.0000000000e+00 0.0000e+00 1.0000e+00
       11  1    1    2    0    0 -7.8444565686e+00 -7.2314641369e-01 -3.5942720374e+02 3.5951352301e+02 0.0000000000e+00 0.0000e+00 -1.0000e+00
      -15  1    1    2    0    0 -7.6631748192e-01 +1.7351108365e+00 -4.7840094733e+00 5.4444768103e+00 1.7770000000e+00 0.0000e+00 1.0000e+00
       15  1    1    2    0    0 +2.0552538146e+01 -1.5605695340e+01 -1.3400012110e+02 1.3647393427e+02 1.7770000000e+00 0.0000e+00 -1.0000e+00
</event>
<event>
 6 1 7.08916e-05 5.02017500e+02 7.54677100e-03 9.39530700e-02
      -11 -1    0    0    0    0 +0.0000000000e+00 +0.0000000000e+00 +5.0000000000e+02 5.0000000000e+02 0.0000000000e+00 0.0000e+00 1.0000e+00
       11 -1    0    0    0    0 -0.0000000000e+00 -0.0000000000e+00 -5.0000000000e+02 5.0000000000e+02 0.0000000000e+00 0.0000e+00 -1.0000e+00
      -11  1    1    2    0    0 -8.1064608054e+00 +8.8274921365e-01 +4.9791576861e+02 4.9798253642e+02 0.0000000000e+00 0.0000e+00 1.0000e+00
       11  1    1    2    0    0 -1.1827598485e+00 -9.6879349038e+00 -4.7170186508e+02 4.7180282377e+02 0.0000000000e+00 0.0000e+00 -1.0000e+00
      -15  1    1    2    0    0 +4.1339216474e-01 -6.4727349385e-01 -3.5292301901e+00 4.0253013294e+00 1.7770000000e+00 0.0000e+00 1.0000e+00
       15  1    1    2    0    0 +8.8758284892e+00 +9.4524591840e+00 -2.2684673344e+01 2.6189338474e+01 1.7770000000e+00 0.0000e+00 -1.0000e+00
</event>
<event>
 6 1 7.08916e-05 5.01311400e+02 7.54677100e-03 9.39688000e-02
      -11 -1    0    0    0    0 +0.0000000000e+00 +0.0000000000e+00 +5.0000000000e+02 5.0000000000e+02 0.0000000000e+00 0.0000e+00 -1.0000e+00
       11 -1    0    0    0    0 -0.0000000000e+00 -0.0000000000e+00 -5.0000000000e+02 5.0000000000e+02 0.0000000000e+00 0.0000e+00 1.0000e+00
      -11  1    1    2    0    0 -1.7374628747e-01 -9.6089922824e+00 +2.6968884091e+02 2.6986002637e+02 0.0000000000e+00 0.0000e+00 -1.0000e+00
       11  1    1    2    0    0 +2.9535846031e+01 +7.1758335461e+00 -4.9776143600e+02 4.9868858615e+02 0.0000000000e+00 0.0000e+00 1.0000e+00
      -15  1    1    2    0    0 -1.4202069174e+01 -4.2100279244e+00 +1.7923036826e+02 1.7985023141e+02 1.7770000000e+00 0.0000e+00 -1.0000e+00
       15  1    1    2    0    0 -1.5160030570e+01 +6.6431866607e+00 +4.8842226836e+01 5.1601156064e+01 1.7770000000e+00 0.0000e+00 1.0000e+00
</event>
<event>
 6 1 7.08916e-05 5.00754400e+02 7.54677100e-03 9.39812300e-02
      -11 -1    0    0    0    0 +0.0000000000e+00 +0.0000000000e+00 +5.0000000000e+02 5.0000000000e+02 0.0000000000e+00 0.0000e+00 -1.0000e+00
       11 -1    0    0    0    0 -0.0000000000e+00 -0.0000000000e+00 -5.0000000000e+02 5.0000000000e+02 0.0000000000e+00 0.0000e+00 -1.0000e+00
      -11  1    1    2    0    0 -1.9826210035e-01 -5.6703698902e+00 +3.9319600758e+02 3.9323694228e+02 0.0000000000e+00 0.0000e+00 -1.0000e+00
       11  1    1    2    0    0 +1.4845554965e+01 +2.7693781030e+00 -4.9901718133e+02 4.9924563816e+02 0.0000000000e+00 0.0000e+00 -1.0000e+00
      -15  1    1    2    0    0 -1.0887874219e+01 +7.0730586371e+00 +7.5641568362e+01 7.6768343454e+01 1.7770000000e+00 0.0000e+00 1.0000e+00
       15  1    1    2    0    0 -3.7594186449e+00 -4.1720668499e+00 +3.0179605394e+01 3.0749076102e+01 1.7770000000e+00 0.0000e+00 -1.0000e+00
</event>
<event>
 6 1 7.08916e-05 5.02232600e+02 7.54677100e-03 9.39482800e-02
      -11 -1    0    0    0    0 +0.0000000000e+00 +0.0000000000e+00 +5.0000000000e+02 5.0000000000e+02 0.0000000000e+00 0.0000e+00 -1.0000e+00
       11 -1    0    0    0    0 -0.0000000000e+00 -0.0000000000e+00 -5.0000000000e+02 5.0000000000e+02 0.0000000000e+00 0.0000e+00 1.0000e+00
      -11  1    1    2    0    0 +2.6061974657e+01 -1.3918889403e+00 +3.1763560227e+02 3.1870603965e+02 0.0000000000e+00 0.0000e+00 -1.0000e+00
       11  1    1    2    0    0 -7.5888489555e+00 +6.3873811353e+00 -4.9766858331e+02 4.9776742368e+02 0.0000000000e+00 0.0000e+00 1.0000e+00
      -15  1    1    2    0    0 -1.9844603667e+01 -7.8693741694e+00 +6.5064456112e+01 6.8500193596e+01 1.7770000000e+00 0.0000e+00 -1.0000e+00
       15  1    1    2    0    0 +1.3714779650e+00 +2.8738819745e+00 +1.1496852493e+02 1.1502634308e+02 1.7770000000e+00 0.0000e+00 1.0000e+00
</event>
<event>
 6 1 7.08916e-05 5.05868600e+02 7.54677100e-03 9.38677300e-02
      -11 -1    0    0    0    0 +0.0000000000e+00 +0.0000000000e+00 +5.0000000000e+02 5.0000000000e+02 0.0000000000e+00 0.0000e+00 -1.0000e+00
       11 -1    0    0    0    0 -0.0000000000e+00 -0.0000000000e+00 -5.0000000000e+02 5.0000000000e+02 0.0000000000e+00 0.0000e+00 -1.0000e+00
      -11  1    1    2    0    0 -3.2039407923e+00 -7.0726497475e+00 +4.4713395270e+02 4.4720136323e+02 0.0000000000e+00 0.0000e+00 -1.0000e+00
       11  1    1    2    0    0 +6.6958324054e+00 -4.9470356216e+00 -4.9406129032e+02 4.9413142576e+02 0.0000000000e+00 0.0000e+00 -1.0000e+00
      -15  1    1    2    0    0 +1.1124125592e+01 +1.6318778986e+01 +2.7857042394e+01 3.4193877489e+01 1.7770000000e+00 0.0000e+00 1.0000e+00
       15  1    1    2    0    0 -1.4616017205e+01 -4.2990936169e+00 +1.9070295222e+01 2.4473333523e+01 1.7770000000e+00 0.0000e+00 -1.0000e+00
</event>
<event>
 6 1 7.08916e-05 5.06764200e+02 7.54677100e-03 9.38480000e-02
      -11 -1    0    0    0    0 +0.0000000000e+00 +0.0000000000e+00 +5.0000000000e+02 5.0000000000e+02 0.0000000000e+00 0.0000e+00 -1.0000e+00
       11 -1    0    0    0    0 -0.0000000000e+00 -0.0000000000e+00 -5.0000000000e+02 5.0000000000e+02 0.0000000000e+00 0.0000e+00 1.0000e+00
      -11  1    1    2    0    0 +6.8055478983e+00 -7.2011808620e+00 +4.8698012772e+02 4.8708091451e+02 0.0000000000e+00 0.0000e+00 -1.0000e+00
       11  1    1    2    0    0 -7.4450926405e+00 -5.2490739891e-01 -4.9317930982e+02 4.9323578192e+02 0.0000000000e+00 0.0000e+00 1.0000e+00
      -15  1    1    2    0    0 +4.8660198686e+00 +1.4055242041e+00 -4.1031427715e+00 6.7562679975e+00 1.7770000000e+00 0.0000e+00 1.0000e+00
       15  1    1    2    0    0 -4.2264751264e+00 +6.3205640568e+00 +1.0302324866e+01 1.2927035570e+01 1.7770000000e+00 0.0000e+00 -1.0000e+00
</event>
<event>
 6 1 7.08916e-05 4.15852300e+02 7.54677100e-03 9.61068800e-02
      -11 -1    0    0    0    0 +0.0000000000e+00 +0.0000000000e+00 +5.0000000000e+02 5.0000000000e+02 0.0000000000e+00 0.0000e+00 -1.0000e+00
       11 -1    0    0    0    0 -0.0000000000e+00 -0.0000000000e+00 -5.0000000000e+02 5.0000000000e+02 0.0000000000e+00 0.0000e+00 -1.0000e+00
      -11  1    1    2    0    0 +1.8123351243e+01 +9.3697050376e+01 +4.3045434877e+02 4.4090649744e+02 0.0000000000e+00 0.0000e+00 -1.0000e+00
       11  1    1    2    0    0 -1.4674248445e+01 +5.9699725101e+00 -3.9710340436e+02 3.9741928475e+02 0.0000000000e+00 0.0000e+00 -1.0000e+00
      -15  1    1    2    0    0 +1.9857343021e+01 -7.7230139600e+00 +3.7569373896e+01 4.3227012393e+01 1.7770000000e+00 0.0000e+00 -1.0000e+00
       15  1    1    2    0    0 -2.3306445819e+01 -9.1944008926e+01 -7.0920318301e+01 1.1844720542e+02 1.7770000000e+00 0.0000e+00 1.0000e+00
</event>
<event>
 6 1 7.08916e-05 4.08564900e+02 7.54677100e-03 9.63142700e-02
      -11 -1    0    0    0    0 +0.0000000000e+00 +0.0000000000e+00 +5.0000000000e+02 5.0000000000e+02 0.0000000000e+00 0.0000e+00 1.0000e+00
       11 -1    0    0    0    0 -0.0000000000e+00 -0.0000000000e+00 -5.0000000000e+02 5.0000000000e+02 0.0000000000e+00 0.0000e+00 1.0000e+00
      -11  1    1    2    0    0 +1.3160876914e+00 +2.2558030923e+01 +3.7203181693e+02 3.7271741260e+02 0.0000000000e+00 0.0000e+00 1.0000e+00
       11  1    1    2    0    0 +7.4473958268e+01 +7.1780550819e+01 -4.4463659903e+02 4.5650906139e+02 0.0000000000e+00 0.0000e+00 1.0000e+00
      -15  1    1    2    0    0 -3.0406867056e+01 -2.1007021975e+01 +7.5916009278e+01 8.4452772188e+01 1.7770000000e+00 0.0000e+00 -1.0000e+00
       15  1    1    2    0    0 -4.5383178903e+01 -7.3331559768e+01 -3.3112271777e+00 8.6320753818e+01 1.7770000000e+00 0.0000e+00 1.0000e+00
</event>
<event>
 6 1 7.08916e-05 5.03439200e+02 7.54677100e-03 9.39214700e-02
      -11 -1    0    0    0    0 +0.0000000000e+00 +0.0000000000e+00 +5.0000000000e+02 5.0000000000e+02 0.0000000000e+00 0.0000e+00 1.0000e+00
       11 -1    0    0    0    0 -0.0000000000e+00 -0.0000000000e+00 -5.0000000000e+02 5.0000000000e+02 0.0000000000e+00 0.0000e+00 -1.0000e+00
      -11  1    1    2    0    0 -6.4441746595e+00 -3.1174461526e+00 +4.9650919393e+02 4.9656079740e+02 0.0000000000e+00 0.0000e+00 1.0000e+00
       11  1    1    2    0    0 -8.2993956477e+00 +2.8142529692e+00 -4.4383048625e+02 4.4391699733e+02 0.0000000000e+00 0.0000e+00 -1.0000e+00
      -15  1    1    2    0    0 +1.6055088821e+00 +3.8750558380e+00 +5.1557230728e-01 4.5844585636e+00 1.7770000000e+00 0.0000e+00 1.0000e+00
       15  1    1    2    0    0 +1.3138061425e+01 -3.5718626546e+00 -5.3194279987e+01 5.4937746706e+01 1.7770000000e+00 0.0000e+00 -1.0000e+00
</event>
<event>
 6 1 7.08916e-05 5.00069400e+02 7.54677100e-03 9.39965400e-02
      -11 -1    0    0    0    0 +0.0000000000e+00 +0.0000000000e+00 +5.0000000000e+02 5.0000000000e+02 0.0000000000e+00 0.0000e+00 -1.0000e+00
       11 -1    0    0    0    0 -0.0000000000e+00 -0.0000000000e+00 -5.0000000000e+02 5.0000000000e+02 0.0000000000e+00 0.0000e+00 -1.0000e+00
      -11  1    1    2    0    0 -1.2477658408e+00 +9.2461294473e+00 +4.9984353946e+02 4.9993060695e+02 0.0000000000e+00 0.0000e+00 -1.0000e+00
       11  1    1    2    0    0 +5.2151630629e-01 -8.4498101470e+00 -2.4730047850e+02 2.4744534334e+02 0.0000000000e+00 0.0000e+00 -1.0000e+00
      -15  1    1    2    0    0 -1.7025317766e+00 -1.9167825421e+00 -1.4253233800e+02 1.4256646792e+02 1.7770000000e+00 0.0000e+00 -1.0000e+00
       15  1    1    2    0    0 +2.4287813111e+00 +1.1204632419e+00 -1.1001072296e+02 1.1005758180e+02 1.7770000000e+00 0.0000e+00 1.0000e+00
</event>
<event>
 6 1 7.08916e-05 5.01026800e+02 7.54677100e-03 9.39751500e-02
      -11 -1    0    0    0    0 +0.0000000000e+00 +0.0000000000e+00 +5.0000000000e+02 5.0000000000e+02 0.0000000000e+00 0.0000e+00 -1.0000e+00
       11 -1    0    0    0    0 -0.0000000000e+00 -0.0000000000e+00 -5.0000000000e+02 5.0000000000e+02 0.0000000000e+00 0.0000e+00 -1.0000e+00
      -11  1    1    2    0    0 +1.5031156695e+01 +1.6108772207e+01 +4.9848649360e+02 4.9897315812e+02 0.0000000000e+00 0.0000e+00 -1.0000e+00
       11  1    1    2    0    0 -2.2016015278e+00 -4.0963395902e+00 -3.3971099865e+02 3.3974282869e+02 0.0000000000e+00 0.0000e+00 -1.0000e+00
      -15  1    1    2    0    0 -1.6844019535e+01 -8.9577204887e+00 -7.7524111382e+01 7.9856792604e+01 1.7770000000e+00 0.0000e+00 -1.0000e+00
       15  1    1    2    0    0 +4.0144643686e+00 -3.0547121282e+00 -8.1251383577e+01 8.1427220587e+01 1.7770000000e+00 0.0000e+00 -1.0000e+00
</event>
<event>
 6 1 7.08916e-05 5.00243200e+02 7.54677100e-03 9.39926600e-02
      -11 -1    0    0    0    0 +0.0000000000e+00 +0.0000000000e+00 +5.0000000000e+02 5.0000000000e+02 0.0000000000e+00 0.0000e+00 -1.0000e+00
       11 -1    0    0    0    0 -0.0000000000e+00 -0.0000000000e+00 -5.0000000000e+02 5.0000000000e+02 0.0000000000e+00 0.0000e+00 -1.0000e+00
      -11  1    1    2    0    0 +3.2057371995e+00 -9.2337434493e+00 +4.9966118856e+02 4.9975678297e+02 0.0000000000e+00 0.0000e+00 -1.0000e+00
       11  1    1    2    0    0 +1.3657659006e+00 +6.3521976268e+00 -2.9297043099e+02 2.9304246990e+02 0.0000000000e+00 0.0000e+00 -1.0000e+00
      -15  1    1    2    0    0 -8.1282754567e+00 +3.0158006389e+00 -8.8124088251e+01 8.8567356145e+01 1.7770000000e+00 0.0000e+00 1.0000e+00
       15  1    1    2    0    0 +3.5567723565e+00 -1.3425481642e-01 -1.1856666932e+02 1.1863339099e+02 1.7770000000e+00 0.0000e+00 -1.0000e+00
</event>
<event>
 6 1 7.08916e-05 5.00289100e+02 7.54677100e-03 9.39916300e-02
      -11 -1    0    0    0    0 +0.0000000000e+00 +0.0000000000e+00 +5.0000000000e+02 5.0000000000e+02 0.0000000000e+00 0.0000e+00 1.0000e+00
       11 -1    0    0    0    0 -0.0000000000e+00 -0.0000000000e+00 -5.0000000000e+02 5.0000000000e+02 0.0000000000e+00 0.0000e+00 -1.0000e+00
      -11  1    1    2    0    0 +2.6961421139e+00 +3.0463663554e+00 +1.7826997101e+02 1.7831638201e+02 0.0000000000e+00 0.0000e+00 1.0000e+00
       11  1    1    2    0    0 +1.5861321809e+01 +3.1097235007e+00 -4.9944938639e+02 4.9971085787e+02 0.0000000000e+00 0.0000e+00 -1.0000e+00
      -15  1    1    2    0    0 -5.0185071725e+00 -2.6849859656e+00 +4.0144314688e+01 4.0584705181e+01 1.7770000000e+00 0.0000e+00 -1.0000e+00
       15  1    1    2    0    0 -1.3538956750e+01 -3.4711038905e+00 +2.8103510069e+02 2.8138805494e+02 1.7770000000e+00 0.0000e+00 1.0000e+00
</event>
<event>
 6 1 7.08916e-05 5.09039400e+02 7.54677100e-03 9.37980700e-02
      -11 -1    0    0    0    0 +0.0000000000e+00 +0.0000000000e+00 +5.0000000000e+02 5.0000000000e+02 0.0000000000e+00 0.0000e+00 1.0000e+00
       11 -1    0    0    0    0 -0.0000000000e+00 -0.0000000000e+00 -5.0000000000e+02 5.0000000000e+02 0.0000000000e+00 0.0000e+00 -1.0000e+00
      -11  1    1    2    0    0 +7.7606624856e+00 -9.1646674186e+00 +4.7034351423e+02 4.7049680168e+02 0.0000000000e+00 0.0000e+00 1.0000e+00
       11  1    1    2    0    0 -4.2314447173e+00 +1.2399576084e+01 -4.9078576205e+02 4.9096060824e+02 0.0000000000e+00 0.0000e+00 -1.0000e+00
      -15  1    1    2    0    0 -1.0417035985e+01 +6.7677624557e+00 +2.2817669772e+01 2.6040757097e+01 1.7770000000e+00 0.0000e+00 -1.0000e+00
       15  1    1    2    0    0 +6.8878182164e+00 -1.0002671121e+01 -2.3754219520e+00 1.2501832977e+01 1.7770000000e+00 0.0000e+00 1.0000e+00
</event>
<event>
 6 1 7.08916e-05 5.00117600e+02 7.54677100e-03 9.39954700e-02
      -11 -1    0    0    0    0 +0.0000000000e+00 +0.0000000000e+00 +5.0000000000e+02 5.0000000000e+02 0.0000000000e+00 0.0000e+00 -1.0000e+00
       11 -1    0    0    0    0 -0.0000000000e+00 -0.0000000000e+00 -5.0000000000e+02 5.0000000000e+02 0.0000000000e+00 0.0000e+00 1.0000e+00
      -11  1    1    2    0    0 +2.6770321281e+00 -2.0214719610e+00 +2.2189447539e+02 2.2191983025e+02 0.0000000000e+00 0.0000e+00 -1.0000e+00
       11  1    1    2    0    0 +5.7995468270e+00 -4.4248481350e+00 -4.9982919015e+02 4.9988241952e+02 0.0000000000e+00 0.0000e+00 1.0000e+00
      -15  1    1    2    0    0 -2.5543436198e-01 +8.1635687988e-01 +4.6813981092e+01 4.6855503838e+01 1.7770000000e+00 0.0000e+00 -1.0000e+00
       15  1    1    2    0    0 -8.2211445931e+00 +5.6299632161e+00 +2.3112073366e+02 2.3134224639e+02 1.7770000000e+00 0.0000e+00 1.0000e+00
</event>
<event>
 6 1 7.08916e-05 5.31037700e+02 7.54677100e-03 9.33291900e-02
      -11 -1    0    0    0    0 +0.0000000000e+00 +0.0000000000e+00 +5.0000000000e+02 5.0000000000e+02 0.0000000000e+00 0.0000e+00 -1.0000e+00
       11 -1    0    0    0    0 -0.0000000000e+00 -0.0000000000e+00 -5.0000000000e+02 5.0000000000e+02 0.0000000000e+00 0.0000e+00 1.0000e+00
      -11  1    1    2    0    0 -2.5282380179e+00 +1.1757005644e+01 +4.6880812099e+02 4.6896233695e+02 0.0000000000e+00 0.0000e+00 -1.0000e+00
       11  1    1    2    0    0 +1.0310977928e+01 +2.5701130498e+00 -4.5317700128e+02 4.5330157317e+02 0.0000000000e+00 0.0000e+00 1.0000e+00
      -15  1    1    2    0    0 -1.0199569283e+01 +5.6851255385e+00 -4.2493563148e+01 4.4104563301e+01 1.7770000000e+00 0.0000e+00 -1.0000e+00
       15  1    1    2    0    0 +2.4168293730e+00 -2.0012244232e+01 +2.6862443439e+01 3.3631526577e+01 1.7770000000e+00 0.0000e+00 1.0000e+00
</event>
<event>
 6 1 7.08916e-05 5.05519300e+02 7.54677100e-03 9.38754400e-02
      -11 -1    0    0    0    0 +0.0000000000e+00 +0.0000000000e+00 +5.0000000000e+02 5.0000000000e+02 0.0000000000e+00 0.0000e+00 1.0000e+00
       11 -1    0    0    0    0 -0.0000000000e+00 -0.0000000000e+00 -5.0000000000e+02 5.0000000000e+02 0.0000000000e+00 0.0000e+00 1.0000e+00
      -11  1    1    2    0    0 +4.1504857169e+00 +5.4995410879e+00 +4.6561912854e+02 4.6567010248e+02 0.0000000000e+00 0.0000e+00 1.0000e+00
       11  1    1    2    0    0 -6.8205253909e+00 +1.1500013588e+01 -4.9429987338e+02 4.9448067172e+02 0.0000000000e+00 0.0000e+00 1.0000e+00
      -15  1    1    2    0    0 +3.2529273758e+00 -6.1970660602e+00 -1.8125588055e+00 7.4450159630e+00 1.7770000000e+00 0.0000e+00 1.0000e+00
       15  1    1    2    0    0 -5.8288770177e-01 -1.0802488615e+01 +3.0493303653e+01 3.2404209835e+01 1.7770000000e+00 0.0000e+00 -1.0000e+00
</event>
<event>
 6 1 7.08916e-05 5.00059300e+02 7.54677100e-03 9.39967700e-02
      -11 -1    0    0    0    0 +0.0000000000e+00 +0.0000000000e+00 +5.0000000000e+02 5.0000000000e+02 0.0000000000e+00 0.0000e+00 1.0000e+00
       11 -1    0    0    0    0 -0.0000000000e+00 -0.0000000000e+00 -5.0000000000e+02 5.0000000000e+02 0.0000000000e+00 0.0000e+00 -1.0000e+00
      -11  1    1    2    0    0 -7.9808637302e+00 +4.4020902802e+00 +4.9985765787e+02 4.9994074721e+02 0.0000000000e+00 0.0000e+00 1.0000e+00
       11  1    1    2    0    0 -4.2344033309e-02 -2.8622884572e+00 -1.1968532516e+02 1.1971955374e+02 0.0000000000e+00 0.0000e+00 -1.0000e+00
      -15  1    1    2    0    0 +6.3253651472e-01 -2.8712226638e+00 -9.2179965149e+01 9.2243957666e+01 1.7770000000e+00 0.0000e+00 1.0000e+00
       15  1    1    2    0    0 +7.3906712488e+00 +1.3314208407e+00 -2.8799236756e+02 2.8809574139e+02 1.7770000000e+00 0.0000e+00 -1.0000e+00
</event>
<event>
 6 1 7.08916e-05 4.84128500e+02 7.54677100e-03 9.43604100e-02
      -11 -1    0    0    0    0 +0.0000000000e+00 +0.0000000000e+00 +5.0000000000e+02 5.0000000000e+02 0.0000000000e+00 0.0000e+00 1.0000e+00
       11 -1    0    0    0    0 -0.0000000000e+00 -0.0000000000e+00 -5.0000000000e+02 5.0000000000e+02 0.0000000000e+00 0.0000e+00 1.0000e+00
      -11  1    1    2    0    0 +1.2570072985e+01 +6.7570002063e+00 +4.8552117071e+02 4.8573086272e+02 0.0000000000e+00 0.0000e+00 1.0000e+00
       11  1    1    2    0    0 +1.2506667031e+01 -1.2793955919e+01 -4.8254261600e+02 4.8287418474e+02 0.0000000000e+00 0.0000e+00 1.0000e+00
      -15  1    1    2    0    0 -2.5019658561e+01 +8.2548966906e+00 -6.1738281214e+00 2.7118269055e+01 1.7770000000e+00 0.0000e+00 -1.0000e+00
       15  1    1    2    0    0 -5.7081455690e-02 -2.2179409777e+00 +3.1952734128e+00 4.2766834879e+00 1.7770000000e+00 0.0000e+00 1.0000e+00
</event>
<event>
 6 1 7.08916e-05 5.03423600e+02 7.54677100e-03 9.39218200e-02
      -11 -1    0    0    0    0 +0.0000000000e+00 +0.0000000000e+00 +5.0000000000e+02 5.0000000000e+02 0.0000000000e+00 0.0000e+00 -1.0000e+00
       11 -1    0    0    0    0 -0.0000000000e+00 -0.0000000000e+00 -5.0000000000e+02 5.0000000000e+02 0.0000000000e+00 0.0000e+00 -1.0000e+00
      -11  1    1    2    0    0 +1.7552256145e+01 -3.2910412157e+00 +2.3696843470e+02 2.3764038312e+02 0.0000000000e+00 0.0000e+00 -1.0000e+00
       11  1    1    2    0    0 +1.2062385541e+01 -5.9685666085e+00 -4.9639400668e+02 4.9657641386e+02 0.0000000000e+00 0.0000e+00 -1.0000e+00
      -15  1    1    2    0    0 -6.4035317101e+00 -8.7834932943e+00 +1.9063181227e+02 1.9094973304e+02 1.7770000000e+00 0.0000e+00 1.0000e+00
       15  1    1    2    0    0 -2.3211109976e+01 +1.8043101119e+01 +6.8793759714e+01 7.4833469977e+01 1.7770000000e+00 0.0000e+00 -1.0000e+00
</event>
<event>
 6 1 7.08916e-05 5.59004400e+02 7.54677100e-03 9.27667400e-02
      -11 -1    0    0    0    0 +0.0000000000e+00 +0.0000000000e+00 +5.0000000000e+02 5.0000000000e+02 0.0000000000e+00 0.0000e+00 -1.0000e+00
       11 -1    0    0    0    0 -0.0000000000e+00 -0.0000000000e+00 -5.0000000000e+02 5.0000000000e+02 0.0000000000e+00 0.0000e+00 1.0000e+00
      -11  1    1    2    0    0 +6.2599375668e+00 +3.8400636987e+00 +3.1305755046e+02 3.1314367758e+02 0.0000000000e+00 0.0000e+00 -1.0000e+00
       11  1    1    2    0    0 -2.6050135275e+01 -5.4937763255e+01 -4.3678409731e+02 4.4099559527e+02 0.0000000000e+00 0.0000e+00 1.0000e+00
      -15  1    1    2    0    0 +2.4288599726e+01 +2.3471729801e+01 -5.5206019423e+01 6.4743497635e+01 1.7770000000e+00 0.0000e+00 1.0000e+00
       15  1    1    2    0    0 -4.4984020177e+00 +2.7625969755e+01 +1.7893256628e+02 1.8111722952e+02 1.7770000000e+00 0.0000e+00 -1.0000e+00
</event>
<event>
 6 1 7.08916e-05 5.19676000e+02 7.54677100e-03 9.35682800e-02
      -11 -1    0    0    0    0 +0.0000000000e+00 +0.0000000000e+00 +5.0000000000e+02 5.0000000000e+02 0.0000000000e+00 0.0000e+00 -1.0000e+00
       11 -1    0    0    0    0 -0.0000000000e+00 -0.0000000000e+00 -5.0000000000e+02 5.0000000000e+02 0.0000000000e+00 0.0000e+00 -1.0000e+00
      -11  1    1    2    0    0 -6.4703479867e+00 +7.9548547087e+00 +4.8021457078e+02 4.8032403553e+02 0.0000000000e+00 0.0000e+00 -1.0000e+00
       11  1    1    2    0    0 +2.9239130500e+00 -8.1045926209e+00 -4.7443107853e+02 4.7450930651e+02 0.0000000000e+00 0.0000e+00 -1.0000e+00
      -15  1    1    2    0    0 -4.5043453477e+00 -1.9837185129e+01 +4.9754329087e+00 2.1017033627e+01 1.7770000000e+00 0.0000e+00 -1.0000e+00
       15  1    1    2    0    0 +8.0507802844e+00 +1.9986923041e+01 -1.0758925165e+01 2.4149624336e+01 1.7770000000e+00 0.0000e+00 1.0000e+00
</event>
<event>
 6 1 7.08916e-05 4.79504700e+02 7.54677100e-03 9.44687500e-02
      -11 -1    0    0    0    0 +0.0000000000e+00 +0.0000000000e+00 +5.0000000000e+02 5.0000000000e+02 0.0000000000e+00 0.0000e+00 -1.0000e+00
       11 -1    0    0    0    0 -0.0000000000e+00 -0.0000000000e+00 -5.0000000000e+02 5.0000000000e+02 0.0000000000e+00 0.0000e+00 1.0000e+00
      -11  1    1    2    0    0 +4.4216505352e+00 +2.4437306621e+01 +4.8015545486e+02 4.8079724810e+02 0.0000000000e+00 0.0000e+00 -1.0000e+00
       11  1    1    2    0    0 +9.3898255195e+00 -1.5969589001e+00 -4.7849015823e+02 4.7858494609e+02 0.0000000000e+00 0.0000e+00 1.0000e+00
      -15  1    1    2    0    0 +8.9893077981e+00 -1.1714123048e+01 +1.6760591726e+00 1.4966470420e+01 1.7770000000e+00 0.0000e+00 -1.0000e+00
       15  1    1    2    0    0 -2.2800783853e+01 -1.1126224673e+01 -3.3413557954e+00 2.5651335391e+01 1.7770000000e+00 0.0000e+00 1.0000e+00
</event>
<event>
 6 1 7.08916e-05 5.02258700e+02 7.54677100e-03 9.39477000e-02
      -11 -1    0    0    0    0 +0.0000000000e+00 +0.0000000000e+00 +5.0000000000e+02 5.0000000000e+02 0.0000000000e+00 0.0000e+00 -1.0000e+00
       11 -1    0    0    0    0 -0.0000000000e+00 -0.0000000000e+00 -5.0000000000e+02 5.0000000000e+02 0.0000000000e+00 0.0000e+00 -1.0000e+00
      -11  1    1    2    0    0 -2.6967364138e+00 -6.1437060351e+00 +3.3474287900e+02 3.3481011417e+02 0.0000000000e+00 0.0000e+00 -1.0000e+00
       11  1    1    2    0    0 -1.1638547938e+00 -2.8010983592e+01 -4.9695111056e+02 4.9774127420e+02 0.0000000000e+00 0.0000e+00 -1.0000e+00
      -15  1    1    2    0    0 -9.6726993079e-01 +7.0037641586e+00 +8.7332479456e+01 8.7636225503e+01 1.7770000000e+00 0.0000e+00 -1.0000e+00
       15  1    1    2    0    0 +4.8278611384e+00 +2.7150925468e+01 +7.4875752102e+01 7.9812386124e+01 1.7770000000e+00 0.0000e+00 1.0000e+00
</event>
<event>
 6 1 7.08916e-05 5.47602000e+02 7.54677100e-03 9.29917500e-02
      -11 -1    0    0    0    0 +0.0000000000e+00 +0.0000000000e+00 +5.0000000000e+02 5.0000000000e+02 0.0000000000e+00 0.0000e+00 1.0000e+00
       11 -1    0    0    0    0 -0.0000000000e+00 -0.0000000000e+00 -5.0000000000e+02 5.0000000000e+02 0.0000000000e+00 0.0000e+00 -1.0000e+00
      -11  1    1    2    0    0 -7.8188051619e+00 -8.4642592866e+00 +4.5225117883e+02 4.5239795109e+02 0.0000000000e+00 0.0000e+00 1.0000e+00
       11  1    1    2    0    0 +3.2227349457e+00 +1.4748181747e+01 -3.6680665659e+02 3.6711717231e+02 0.0000000000e+00 0.0000e+00 -1.0000e+00
      -15  1    1    2    0    0 +2.1722782058e+01 -2.3118510148e+01 +4.0942276300e+01 5.1824439113e+01 1.7770000000e+00 0.0000e+00 1.0000e+00
       15  1    1    2    0    0 -1.7126711842e+01 +1.6834587688e+01 -1.2638679854e+02 1.2866043749e+02 1.7770000000e+00 0.0000e+00 -1.0000e+00
</event>
<event>
 6 1 7.08916e-05 5.02456800e+02 7.54677100e-03 9.39432900e-02
      -11 -1    0    0    0    0 +0.0000000000e+00 +0.0000000000e+00 +5.0000000000e+02 5.0000000000e+02 0.0000000000e+00 0.0000e+00 -1.0000e+00
       11 -1    0    0    0    0 -0.0000000000e+00 -0.0000000000e+00 -5.0000000000e+02 5.0000000000e+02 0.0000000000e+00 0.0000e+00 1.0000e+00
      -11  1    1    2    0    0 -5.4508922841e+00 +4.8271947979e+00 +3.1335481666e+02 3.1343939631e+02 0.0000000000e+00 0.0000e+00 -1.0000e+00
       11  1    1    2    0    0 +2.1533248324e-01 +1.0908096575e+01 -4.9742358929e+02 4.9754322437e+02 0.0000000000e+00 0.0000e+00 1.0000e+00
      -15  1    1    2    0    0 +1.0945873088e+01 -4.1365635487e+00 +1.3514061564e+01 1.7964155549e+01 1.7770000000e+00 0.0000e+00 -1.0000e+00
       15  1    1    2    0    0 -5.7103132868e+00 -1.1598727825e+01 +1.7055471106e+02 1.7105322376e+02 1.7770000000e+00 0.0000e+00 1.0000e+00
</event>
<event>
 6 1 7.08916e-05 5.06254400e+02 7.54677100e-03 9.38592300e-02
      -11 -1    0    0    0    0 +0.0000000000e+00 +0.0000000000e+00 +5.0000000000e+02 5.0000000000e+02 0.0000000000e+00 0.0000e+00 -1.0000e+00
       11 -1    0    0    0    0 -0.0000000000e+00 -0.0000000000e+00 -5.0000000000e+02 5.0000000000e+02 0.0000000000e+00 0.0000e+00 -1.0000e+00
      -11  1    1    2    0    0 +1.2539075581e+01 -1.1720426965e+00 +4.6114135345e+02 4.6131328830e+02 0.0000000000e+00 0.0000e+00 -1.0000e+00
       11  1    1    2    0    0 +4.4546536611e+00 +1.3746292323e+01 -4.9353407486e+02 4.9374556964e+02 0.0000000000e+00 0.0000e+00 -1.0000e+00
      -15  1    1    2    0    0 -6.3455835823e+00 +2.8389977223e+00 -3.4167045248e-01 7.1833701537e+00 1.7770000000e+00 0.0000e+00 1.0000e+00
       15  1    1    2    0    0 -1.0648145659e+01 -1.5413247349e+01 +3.2734391863e+01 3.7757771908e+01 1.7770000000e+00 0.0000e+00 -1.0000e+00
</event>
<event>
 6 1 7.08916e-05 5.16072400e+02 7.54677100e-03 9.36454800e-02
      -11 -1    0    0    0    0 +0.0000000000e+00 +0.0000000000e+00 +5.0000000000e+02 5.0000000000e+02 0.0000000000e+00 0.0000e+00 1.0000e+00
       11 -1    0    0    0    0 -0.0000000000e+00 -0.0000000000e+00 -5.0000000000e+02 5.0000000000e+02 0.0000000000e+00 0.0000e+00 1.0000e+00
      -11  1    1    2    0    0 -8.8415767337e+00 +1.9665024410e+01 +4.4074006596e+02 4.4126714404e+02 0.0000000000e+00 0.0000e+00 1.0000e+00
       11  1    1    2    0    0 +4.7321365471e+00 -2.2475378392e+01 -4.8338223185e+02 4.8392759564e+02 0.0000000000e+00 0.0000e+00 1.0000e+00
      -15  1    1    2    0    0 +6.0902078004e+00 -2.3472481331e+01 -3.8250148647e-01 2.4317731129e+01 1.7770000000e+00 0.0000e+00 -1.0000e+00
       15  1    1    2    0    0 -1.9807676139e+00 +2.6282835313e+01 +4.3024667374e+01 5.0487529194e+01 1.7770000000e+00 0.0000e+00 1.0000e+00
</event>
<event>
 6 1 7.08916e-05 5.00606400e+02 7.54677100e-03 9.39845400e-02
      -11 -1    0    0    0    0 +0.0000000000e+00 +0.0000000000e+00 +5.0000000000e+02 5.0000000000e+02 0.0000000000e+00 0.0000e+00 1.0000e+00
       11 -1    0    0    0    0 -0.0000000000e+00 -0.0000000000e+00 -5.0000000000e+02 5.0000000000e+02 0.0000000000e+00 0.0000e+00 1.0000e+00
      -11  1    1    2    0    0 -6.4256095250e+00 -4.4655767814e+00 +4.9933230116e+02 4.9939360911e+02 0.0000000000e+00 0.0000e+00 1.0000e+00
       11  1    1    2    0    0 -4.8162451406e-01 +6.9718298060e+00 -4.0289279712e+02 4.0295340220e+02 0.0000000000e+00 0.0000e+00 1.0000e+00
      -15  1    1    2    0    0 +8.3493268400e+00 +3.2476855697e+00 -5.9972404862e+01 6.0663875529e+01 1.7770000000e+00 0.0000e+00 1.0000e+00
       15  1    1    2    0    0 -1.4420928009e+00 -5.7539385943e+00 -3.6467099181e+01 3.6989113165e+01 1.7770000000e+00 0.0000e+00 1.0000e+00
</event>
<event>
 6 1 7.08916e-05 5.00300900e+02 7.54677100e-03 9.39913700e-02
      -11 -1    0    0    0    0 +0.0000000000e+00 +0.0000000000e+00 +5.0000000000e+02 5.0000000000e+02 0.0000000000e+00 0.0000e+00 1.0000e+00
       11 -1    0    0    0    0 -0.0000000000e+00 -0.0000000000e+00 -5.0000000000e+02 5.0000000000e+02 0.0000000000e+00 0.0000e+00 1.0000e+00
      -11  1    1    2    0    0 +3.1799204721e+00 +2.4902723377e+00 +2.5298552463e+02 2.5301776424e+02 0.0000000000e+00 0.0000e+00 1.0000e+00
       11  1    1    2    0    0 -2.3010453541e+00 -7.6300669728e+00 -4.9963552042e+02 4.9969907544e+02 0.0000000000e+00 0.0000e+00 1.0000e+00
      -15  1    1    2    0    0 +2.5045582828e+00 +6.0080974561e+00 +2.3257136677e+02 2.3266922533e+02 1.7770000000e+00 0.0000e+00 -1.0000e+00
       15  1    1    2    0    0 -3.3834334008e+00 -8.6830282102e-01 +1.4078629023e+01 1.4613934978e+01 1.7770000000e+00 0.0000e+00 1.0000e+00
</event>
<event>
 6 1 7.08916e-05 5.00133900e+02 7.54677100e-03 9.39951000e-02
      -11 -1    0    0    0    0 +0.0000000000e+00 +0.0000000000e+00 +5.0000000000e+02 5.0000000000e+02 0.0000000000e+00 0.0000e+00 1.0000e+00
       11 -1    0    0    0    0 -0.0000000000e+00 -0.0000000000e+00 -5.0000000000e+02 5.0000000000e+02 0.0000000000e+00 0.0000e+00 -1.0000e+00
      -11  1    1    2    0    0 -6.0787175112e+00 -2.2585503765e+01 +3.4794829604e+02 3.4873352650e+02 0.0000000000e+00 0.0000e+00 1.0000e+00
       11  1    1    2    0    0 +5.8815745661e+00 +2.3245103862e+01 -4.9929068286e+02 4.9986609584e+02 0.0000000000e+00 0.0000e+00 -1.0000e+00
      -15  1    1    2    0    0 +6.9024824462e-01 -1.1743257227e+00 +9.1401309636e+01 9.1428729707e+01 1.7770000000e+00 0.0000e+00 -1.0000e+00
       15  1    1    2    0    0 -4.9310529950e-01 +5.1472562525e-01 +5.9941077186e+01 5.9971647956e+01 1.7770000000e+00 0.0000e+00 1.0000e+00
</event>
<event>
 6 1 7.08916e-05 5.01614800e+02 7.54677100e-03 9.39620400e-02
      -11 -1    0    0    0    0 +0.0000000000e+00 +0.0000000000e+00 +5.0000000000e+02 5.0000000000e+02 0.0000000000e+00 0.0000e+00 -1.0000e+00
       11 -1    0    0    0    0 -0.0000000000e+00 -0.0000000000e+00 -5.0000000000e+02 5.0000000000e+02 0.0000000000e+00 0.0000e+00 -1.0000e+00
      -11  1    1    2    0    0 +7.3178357793e+00 +1.1137015497e+01 +4.9820703243e+02 4.9838522349e+02 0.0000000000e+00 0.0000e+00 -1.0000e+00
       11  1    1    2    0    0 +5.4805994095e+00 +3.1022889597e+00 -4.2092092151e+02 4.2096803125e+02 0.0000000000e+00 0.0000e+00 -1.0000e+00
      -15  1    1    2    0    0 -1.4734132669e+01 -9.6035361133e+00 -5.7524596423e+01 6.0179394265e+01 1.7770000000e+00 0.0000e+00 1.0000e+00
       15  1    1    2    0    0 +1.9356974803e+00 -4.6357683438e+00 -1.9761514492e+01 2.0467350998e+01 1.7770000000e+00 0.0000e+00 -1.0000e+00
</event>
<event>
 6 1 7.08916e-05 5.01018500e+02 7.54677100e-03 9.39753400e-02
      -11 -1    0    0    0    0 +0.0000000000e+00 +0.0000000000e+00 +5.0000000000e+02 5.0000000000e+02 0.0000000000e+00 0.0000e+00 -1.0000e+00
       11 -1    0    0    0    0 -0.0000000000e+00 -0.0000000000e+00 -5.0000000000e+02 5.0000000000e+02 0.0000000000e+00 0.0000e+00 -1.0000e+00
      -11  1    1    2    0    0 -4.4753210641e+00 +3.6055056904e+00 +6.9465553317e+00 9.0156974709e+00 0.0000000000e+00 0.0000e+00 -1.0000e+00
       11  1    1    2    0    0 +1.1279744022e+01 -1.0898320416e+01 -4.9873492827e+02 4.9898149734e+02 0.0000000000e+00 0.0000e+00 -1.0000e+00
      -15  1    1    2    0    0 +6.4289805994e-01 +5.2457054102e-01 +1.8414196463e+01 1.8518338278e+01 1.7770000000e+00 0.0000e+00 -1.0000e+00
       15  1    1    2    0    0 -7.4473210181e+00 +6.7682441845e+00 +4.7337417648e+02 4.7348446691e+02 1.7770000000e+00 0.0000e+00 -1.0000e+00
</event>
<event>
 6 1 7.08916e-05 4.81578400e+02 7.54677100e-03 9.44200000e-02
      -11 -1    0    0    0    0 +0.0000000000e+00 +0.0000000000e+00 +5.0000000000e+02 5.0000000000e+02 0.0000000000e+00 0.0000e+00 1.0000e+00
       11 -1    0    0    0    0 -0.0000000000e+00 -0.0000000000e+00 -5.0000000000e+02 5.0000000000e+02 0.0000000000e+00 0.0000e+00 -1.0000e+00
      -11  1    1    2    0    0 -3.8093583756e+00 +6.0987215276e+00 +4.8578191392e+02 4.8583512996e+02 0.0000000000e+00 0.0000e+00 1.0000e+00
       11  1    1    2    0    0 -1.1000650294e+01 +2.0575279640e+01 -4.7727234515e+02 4.7784228348e+02 0.0000000000e+00 0.0000e+00 -1.0000e+00
      -15  1    1    2    0    0 +1.4327889027e+01 -2.2307953111e+01 -1.3186870173e+01 2.9664531851e+01 1.7770000000e+00 0.0000e+00 1.0000e+00
       15  1    1    2    0    0 +4.8211964208e-01 -4.3660480562e+00 +4.6773014095e+00 6.6580547049e+00 1.7770000000e+00 0.0000e+00 -1.0000e+00
</event>
<event>
 6 1 7.08916e-05 5.00276800e+02 7.54677100e-03 9.39919100e-02
      -11 -1    0    0    0    0 +0.0000000000e+00 +0.0000000000e+00 +5.0000000000e+02 5.0000000000e+02 0.0000000000e+00 0.0000e+00 1.0000e+00
       11 -1    0    0    0    0 -0.0000000000e+00 -0.0000000000e+00 -5.0000000000e+02 5.0000000000e+02 0.0000000000e+00 0.0000e+00 1.0000e+00
      -11  1    1    2    0    0 +4.9810108315e+00 -3.8294010244e+00 +1.1736504117e+02 1.1753309181e+02 0.0000000000e+00 0.0000e+00 1.0000e+00
       11  1    1    2    0    0 -2.5236086754e+01 -2.0501107706e+01 -4.9866437541e+02 4.9972323819e+02 0.0000000000e+00 0.0000e+00 1.0000e+00
      -15  1    1    2    0    0 +4.0785247961e+00 +8.3704785304e+00 +1.5796289868e+02 1.5824706747e+02 1.7770000000e+00 0.0000e+00 -1.0000e+00
       15  1    1    2    0    0 +1.6176551127e+01 +1.5960030200e+01 +2.2333643555e+02 2.2449660252e+02 1.7770000000e+00 0.0000e+00 1.0000e+00
</event>
<event>
 6 1 7.08916e-05 5.00587000e+02 7.54677100e-03 9.39849700e-02
      -11 -1    0    0    0    0 +0.0000000000e+00 +0.0000000000e+00 +5.0000000000e+02 5.0000000000e+02 0.0000000000e+00 0.0000e+00 -1.0000e+00
       11 -1    0    0    0    0 -0.0000000000e+00 -0.0000000000e+00 -5.0000000000e+02 5.0000000000e+02 0.0000000000e+00 0.0000e+00 -1.0000e+00
      -11  1    1    2    0    0 -7.4140063544e+00 -4.8789724908e+00 +4.9933412569e+02 4.9941299637e+02 0.0000000000e+00 0.0000e+00 -1.0000e+00
       11  1    1    2    0    0 +1.9616502816e-01 -6.2325946567e+00 -3.8652331593e+02 3.8657361197e+02 0.0000000000e+00 0.0000e+00 -1.0000e+00
      -15  1    1    2    0    0 +4.3835078677e+00 +7.4806773853e-01 -5.3274926530e+01 5.3489721184e+01 1.7770000000e+00 0.0000e+00 1.0000e+00
       15  1    1    2    0    0 +2.8343334586e+00 +1.0363499409e+01 -5.9535883232e+01 6.0523670472e+01 1.7770000000e+00 0.0000e+00 -1.0000e+00
</event>
<event>
 6 1 7.08916e-05 5.10538700e+02 7.54677100e-03 9.37653200e-02
      -11 -1    0    0    0    0 +0.0000000000e+00 +0.0000000000e+00 +5.0000000000e+02 5.0000000000e+02 0.0000000000e+00 0.0000e+00 -1.0000e+00
       11 -1    0    0    0    0 -0.0000000000e+00 -0.0000000000e+00 -5.0000000000e+02 5.0000000000e+02 0.0000000000e+00 0.0000e+00 -1.0000e+00
      -11  1    1    2    0    0 -5.7627040917e+00 -2.1555296407e+00 +3.8197922884e+02 3.8202877684e+02 0.0000000000e+00 0.0000e+00 -1.0000e+00
       11  1    1    2    0    0 +1.7181424519e+01 +8.4968119103e+00 -4.8908579937e+02 4.8946125108e+02 0.0000000000e+00 0.0000e+00 -1.0000e+00
      -15  1    1    2    0    0 -1.2405066072e+01 +1.7742071471e+01 +3.3532780317e+00 2.1978829971e+01 1.7770000000e+00 0.0000e+00 -1.0000e+00
       15  1    1    2    0    0 +9.8634564468e-01 -2.4083353740e+01 +1.0375329250e+02 1.0653114211e+02 1.7770000000e+00 0.0000e+00 1.0000e+00
</event>
<event>
 6 1 7.08916e-05 5.00474200e+02 7.54677100e-03 9.39874900e-02
      -11 -1    0    0    0    0 +0.0000000000e+00 +0.0000000000e+00 +5.0000000000e+02 5.0000000000e+02 0.0000000000e+00 0.0000e+00 -1.0000e+00
       11 -1    0    0    0    0 -0.0000000000e+00 -0.0000000000e+00 -5.0000000000e+02 5.0000000000e+02 0.0000000000e+00 0.0000e+00 -1.0000e+00
      -11  1    1    2    0    0 +1.8749278075e+00 +9.4891132330e+00 +4.9943211893e+02 4.9952577516e+02 0.0000000000e+00 0.0000e+00 -1.0000e+00
       11  1    1    2    0    0 +5.7906928271e+00 +1.6824281891e-01 -3.9013880018e+02 3.9018180870e+02 0.0000000000e+00 0.0000e+00 -1.0000e+00
      -15  1    1    2    0    0 -5.3500759527e+00 -5.1256192354e+00 -3.5806927558e+01 3.6608592917e+01 1.7770000000e+00 0.0000e+00 -1.0000e+00
       15  1    1    2    0    0 -2.3155446818e+00 -4.5317368165e+00 -7.3486391192e+01 7.3683823226e+01 1.7770000000e+00 0.0000e+00 1.0000e+00
</event>
<event>
 6 1 7.08916e-05 4.85292200e+02 7.54677100e-03 9.43333400e-02
      -11 -1    0    0    0    0 +0.0000000000e+00 +0.0000000000e+00 +5.0000000000e+02 5.0000000000e+02 0.0000000000e+00 0.0000e+00 1.0000e+00
       11 -1    0    0    0    0 -0.0000000000e+00 -0.0000000000e+00 -5.0000000000e+02 5.0000000000e+02 0.0000000000e+00 0.0000e+00 -1.0000e+00
      -11  1    1    2    0    0 +1.7467559361e+01 +7.2697044181e+00 +4.7937646486e+02 4.7974968399e+02 0.0000000000e+00 0.0000e+00 1.0000e+00
       11  1    1    2    0    0 +4.4074872490e+00 -1.3986646890e+01 -4.9095457922e+02 4.9117354478e+02 0.0000000000e+00 0.0000e+00 -1.0000e+00
      -15  1    1    2    0    0 -1.9755486964e+01 +1.0349894044e+00 +6.2832866341e+00 2.0832375961e+01 1.7770000000e+00 0.0000e+00 1.0000e+00
       15  1    1    2    0    0 -2.1195596457e+00 +5.6819530672e+00 +5.2948277244e+00 8.2443952708e+00 1.7770000000e+00 0.0000e+00 -1.0000e+00
</event>
<event>
 6 1 7.08916e-05 5.00292300e+02 7.54677100e-03 9.39915600e-02
      -11 -1    0    0    0    0 +0.0000000000e+00 +0.0000000000e+00 +5.0000000000e+02 5.0000000000e+02 0.0000000000e+00 0.0000e+00 -1.0000e+00
       11 -1    0    0    0    0 -0.0000000000e+00 -0.0000000000e+00 -5.0000000000e+02 5.0000000000e+02 0.0000000000e+00 0.0000e+00 -1.0000e+00
      -11  1    1    2    0    0 -3.6517299743e-01 +8.0843600605e+00 +2.1434905362e+02 2.1450176460e+02 0.0000000000e+00 0.0000e+00 -1.0000e+00
       11  1    1    2    0    0 -4.7515031289e+00 +6.7573142574e+00 -4.9963939429e+02 4.9970767695e+02 0.0000000000e+00 0.0000e+00 -1.0000e+00
      -15  1    1    2    0    0 +2.9108881752e+00 -2.5169987122e+00 +6.6206555834e+01 6.6342100637e+01 1.7770000000e+00 0.0000e+00 1.0000e+00
       15  1    1    2    0    0 +2.2057879511e+00 -1.2324675606e+01 +2.1908378483e+02 2.1944845781e+02 1.7770000000e+00 0.0000e+00 -1.0000e+00
</event>
<event>
 6 1 7.08916e-05 5.08531200e+02 7.54677100e-03 9.38092000e-02
      -11 -1    0    0    0    0 +0.0000000000e+00 +0.0000000000e+00 +5.0000000000e+02 5.0000000000e+02 0.0000000000e+00 0.0000e+00 -1.0000e+00
       11 -1    0    0    0    0 -0.0000000000e+00 -0.0000000000e+00 -5.0000000000e+02 5.0000000000e+02 0.0000000000e+00 0.0000e+00 -1.0000e+00
      -11  1    1    2    0    0 -3.8524743579e+00 -1.7775348603e+01 +4.9113211679e+02 4.9146877899e+02 0.0000000000e+00 0.0000e+00 -1.0000e+00
       11  1    1    2    0    0 +6.4325356458e+00 -1.1955070858e+01 -4.2523231657e+02 4.2544896790e+02 0.0000000000e+00 0.0000e+00 -1.0000e+00
      -15  1    1    2    0    0 -5.7618945556e+00 +9.5767818614e+00 -6.0977199839e+01 6.2018471514e+01 1.7770000000e+00 0.0000e+00 1.0000e+00
       15  1    1    2    0    0 +3.1818332677e+00 +2.0153637599e+01 -4.9226003828e+00 2.1063781592e+01 1.7770000000e+00 0.0000e+00 -1.0000e+00
</event>
<event>
 6 1 7.08916e-05 5.00493900e+02 7.54677100e-03 9.39870500e-02
      -11 -1    0    0    0    0 +0.0000000000e+00 +0.0000000000e+00 +5.0000000000e+02 5.0000000000e+02 0.0000000000e+00 0.0000e+00 1.0000e+00
       11 -1    0    0    0    0 -0.0000000000e+00 -0.0000000000e+00 -5.0000000000e+02 5.0000000000e+02 0.0000000000e+00 0.0000e+00 1.0000e+00
      -11  1    1    2    0    0 +8.3933435193e+00 +9.6951165823e+00 +4.9934143341e+02 4.9950606665e+02 0.0000000000e+00 0.0000e+00 1.0000e+00
       11  1    1    2    0    0 -2.6319679562e+00 -3.8880456007e+00 -2.9338039659e+02 2.9341796342e+02 0.0000000000e+00 0.0000e+00 1.0000e+00
      -15  1    1    2    0    0 -1.0487278917e+01 -4.6656561042e+00 -1.8865883188e+02 1.8901604149e+02 1.7770000000e+00 0.0000e+00 1.0000e+00
       15  1    1    2    0    0 +4.7259033544e+00 -1.1414148773e+00 -1.7302204946e+01 1.8059928444e+01 1.7770000000e+00 0.0000e+00 -1.0000e+00
</event>
<event>
 6 1 7.08916e-05 4.82843000e+02 7.54677100e-03 9.43904000e-02
      -11 -1    0    0    0    0 +0.0000000000e+00 +0.0000000000e+00 +5.0000000000e+02 5.0000000000e+02 0.0000000000e+00 0.0000e+00 -1.0000e+00
       11 -1    0    0    0    0 -0.0000000000e+00 -0.0000000000e+00 -5.0000000000e+02 5.0000000000e+02 0.0000000000e+00 0.0000e+00 1.0000e+00
      -11  1    1    2    0    0 -3.5233746839e+00 -1.5499715025e+01 +4.8420040848e+02 4.8446123778e+02 0.0000000000e+00 0.0000e+00 -1.0000e+00
       11  1    1    2    0    0 +1.2352299449e+01 +2.2104075414e-01 -4.8123189800e+02 4.8139045256e+02 0.0000000000e+00 0.0000e+00 1.0000e+00
      -15  1    1    2    0    0 +1.3388459459e+00 +1.9858279644e+01 +4.6627024417e+00 2.0519315338e+01 1.7770000000e+00 0.0000e+00 -1.0000e+00
       15  1    1    2    0    0 -1.0167770711e+01 -4.5796053732e+00 -7.6312129247e+00 1.3628994325e+01 1.7770000000e+00 0.0000e+00 1.0000e+00
</event>
<event>
 6 1 7.08916e-05 5.03091200e+02 7.54677100e-03 9.39291900e-02
      -11 -1    0    0    0    0 +0.0000000000e+00 +0.0000000000e+00 +5.0000000000e+02 5.0000000000e+02 0.0000000000e+00 0.0000e+00 -1.0000e+00
       11 -1    0    0    0    0 -0.0000000000e+00 -0.0000000000e+00 -5.0000000000e+02 5.0000000000e+02 0.0000000000e+00 0.0000e+00 1.0000e+00
      -11  1    1    2    0    0 +2.5553151293e+00 -2.7586336222e+00 +2.4698395566e+02 2.4701257872e+02 0.0000000000e+00 0.0000e+00 -1.0000e+00
       11  1    1    2    0    0 +1.9265571573e+01 +1.0495176092e+01 -4.9642422239e+02 4.9690876380e+02 0.0000000000e+00 0.0000e+00 1.0000e+00
      -15  1    1    2    0    0 -3.2742142312e+01 +2.0034399408e+00 +8.7414323257e+01 9.3383527960e+01 1.7770000000e+00 0.0000e+00 1.0000e+00
       15  1    1    2    0    0 +1.0921255610e+01 -9.7399824108e+00 +1.6202594347e+02 1.6269512952e+02 1.7770000000e+00 0.0000e+00 -1.0000e+00
</event>
<event>
 6 1 7.08916e-05 4.83150500e+02 7.54677100e-03 9.43832200e-02
      -11 -1    0    0    0    0 +0.0000000000e+00 +0.0000000000e+00 +5.0000000000e+02 5.0000000000e+02 0.0000000000e+00 0.0000e+00 -1.0000e+00
       11 -1    0    0    0    0 -0.0000000000e+00 -0.0000000000e+00 -5.0000000000e+02 5.0000000000e+02 0.0000000000e+00 0.0000e+00 1.0000e+00
      -11  1    1    2    0    0 +1.0127510964e+01 -6.1560860166e+00 +4.8256253782e+02 4.8270805543e+02 0.0000000000e+00 0.0000e+00 -1.0000e+00
       11  1    1    2    0    0 +3.9666914901e+00 -6.6979864217e+00 -4.8371923223e+02 4.8378186541e+02 0.0000000000e+00 0.0000e+00 1.0000e+00
      -15  1    1    2    0    0 +6.8315510503e+00 +7.8071629819e-01 +5.3939917311e+00 8.9180986474e+00 1.7770000000e+00 0.0000e+00 -1.0000e+00
       15  1    1    2    0    0 -2.0925753504e+01 +1.2073356140e+01 -4.2372973117e+00 2.4591980516e+01 1.7770000000e+00 0.0000e+00 1.0000e+00
</event>
<event>
 6 1 7.08916e-05 5.11785000e+02 7.54677100e-03 9.37381900e-02
      -11 -1    0    0    0    0 +0.0000000000e+00 +0.0000000000e+00 +5.0000000000e+02 5.0000000000e+02 0.0000000000e+00 0.0000e+00 1.0000e+00
       11 -1    0    0    0    0 -0.0000000000e+00 -0.0000000000e+00 -5.0000000000e+02 5.0000000000e+02 0.0000000000e+00 0.0000e+00 -1.0000e+00
      -11  1    1    2    0    0 -2.8036739310e+01 -3.5674475580e+01 +4.8610196248e+02 4.8821495766e+02 0.0000000000e+00 0.0000e+00 1.0000e+00
       11  1    1    2    0    0 -2.1997984773e+01 +2.0041805767e+01 -4.2859288343e+02 4.2962477238e+02 0.0000000000e+00 0.0000e+00 -1.0000e+00
      -15  1    1    2    0    0 +1.0899237455e+01 -3.9643840940e+00 -2.7765681771e+00 1.2057229292e+01 1.7770000000e+00 0.0000e+00 1.0000e+00
       15  1    1    2    0    0 +3.9135486627e+01 +1.9597053907e+01 -5.4732510873e+01 7.0103040667e+01 1.7770000000e+00 0.0000e+00 -1.0000e+00
</event>
<event>
 6 1 7.08916e-05 5.02551200e+02 7.54677100e-03 9.39411900e-02
      -11 -1    0    0    0    0 +0.0000000000e+00 +0.0000000000e+00 +5.0000000000e+02 5.0000000000e+02 0.0000000000e+00 0.0000e+00 -1.0000e+00
       11 -1    0    0    0    0 -0.0000000000e+00 -0.0000000000e+00 -5.0000000000e+02 5.0000000000e+02 0.0000000000e+00 0.0000e+00 1.0000e+00
      -11  1    1    2    0    0 +3.6328594649e+00 +8.3870533631e+00 +3.7326055208e+02 3.7337244150e+02 0.0000000000e+00 0.0000e+00 -1.0000e+00
       11  1    1    2    0    0 +7.7708085679e+00 +3.6793965696e-01 -4.9738799837e+02 4.9744883331e+02 0.0000000000e+00 0.0000e+00 1.0000e+00
      -15  1    1    2    0    0 -5.0627168813e+00 +1.1963266231e+01 +6.1597851018e+01 6.2977804186e+01 1.7770000000e+00 0.0000e+00 1.0000e+00
       15  1    1    2    0    0 -6.3409511515e+00 -2.0718259251e+01 +6.2529595273e+01 6.6200921005e+01 1.7770000000e+00 0.0000e+00 -1.0000e+00
</event>
<event>
 6 1 7.08916e-05 5.00629500e+02 7.54677100e-03 9.39840200e-02
      -11 -1    0    0    0    0 +0.0000000000e+00 +0.0000000000e+00 +5.0000000000e+02 5.0000000000e+02 0.0000000000e+00 0.0000e+00 -1.0000e+00
       11 -1    0    0    0    0 -0.0000000000e+00 -0.0000000000e+00 -5.0000000000e+02 5.0000000000e+02 0.0000000000e+00 0.0000e+00 1.0000e+00
      -11  1    1    2    0    0 -3.0140374063e+00 -6.8250173115e+00 +2.9654036517e+02 2.9663420817e+02 0.0000000000e+00 0.0000e+00 -1.0000e+00
       11  1    1    2    0    0 +5.4408868843e+00 +4.8407519448e+00 -4.9931736505e+02 4.9937047086e+02 0.0000000000e+00 0.0000e+00 1.0000e+00
      -15  1    1    2    0    0 +8.3218935628e+00 -2.6579860165e+00 +1.2549299107e+02 1.2580924981e+02 1.7770000000e+00 0.0000e+00 -1.0000e+00
       15  1    1    2    0    0 -1.0748743041e+01 +4.6422513832e+00 +7.7284008812e+01 7.8186071150e+01 1.7770000000e+00 0.0000e+00 1.0000e+00
</event>
<event>
 6 1 7.08916e-05 5.00098900e+02 7.54677100e-03 9.39958800e-02
      -11 -1    0    0    0    0 +0.0000000000e+00 +0.0000000000e+00 +5.0000000000e+02 5.0000000000e+02 0.0000000000e+00 0.0000e+00 1.0000e+00
       11 -1    0    0    0    0 -0.0000000000e+00 -0.0000000000e+00 -5.0000000000e+02 5.0000000000e+02 0.0000000000e+00 0.0000e+00 -1.0000e+00
      -11  1    1    2    0    0 +1.5423966560e+01 +6.0599542094e+00 +2.9330154089e+02 2.9376932392e+02 0.0000000000e+00 0.0000e+00 1.0000e+00
       11  1    1    2    0    0 -2.6785326623e+01 -1.4881288759e+01 -4.9896107461e+02 4.9990105067e+02 0.0000000000e+00 0.0000e+00 -1.0000e+00
      -15  1    1    2    0    0 +9.8163206906e-01 -4.6468312434e-01 +1.3708324223e+01 1.3865619854e+01 1.7770000000e+00 0.0000e+00 1.0000e+00
       15  1    1    2    0    0 +1.0379727994e+01 +9.2860176739e+00 +1.9195120951e+02 1.9246400556e+02 1.7770000000e+00 0.0000e+00 -1.0000e+00
</event>
<event>
 6 1 7.08916e-05 5.03288700e+02 7.54677100e-03 9.39248100e-02
      -11 -1    0    0    0    0 +0.0000000000e+00 +0.0000000000e+00 +5.0000000000e+02 5.0000000000e+02 0.0000000000e+00 0.0000e+00 1.0000e+00
       11 -1    0    0    0    0 -0.0000000000e+00 -0.0000000000e+00 -5.0000000000e+02 5.0000000000e+02 0.0000000000e+00 0.0000e+00 1.0000e+00
      -11  1    1    2    0    0 -4.6566442402e+00 +5.2825093880e+00 +4.9666134842e+02 4.9671126850e+02 0.0000000000e+00 0.0000e+00 1.0000e+00
       11  1    1    2    0    0 -1.4551839814e+01 -5.3858068212e+00 -4.0656464895e+02 4.0686063552e+02 0.0000000000e+00 0.0000e+00 1.0000e+00
      -15  1    1    2    0    0 +7.9448827900e+00 +3.8967649478e+00 -4.6738474582e+00 1.0164079824e+01 1.7770000000e+00 0.0000e+00 -1.0000e+00
       15  1    1    2    0    0 +1.1263601264e+01 -3.7934675145e+00 -8.5422852009e+01 8.6264016157e+01 1.7770000000e+00 0.0000e+00 1.0000e+00
</event>
<event>
 6 1 7.08916e-05 4.90126900e+02 7.54677100e-03 9.42217700e-02
      -11 -1    0    0    0    0 +0.0000000000e+00 +0.0000000000e+00 +5.0000000000e+02 5.0000000000e+02 0.0000000000e+00 0.0000e+00 1.0000e+00
       11 -1    0    0    0    0 -0.0000000000e+00 -0.0000000000e+00 -5.0000000000e+02 5.0000000000e+02 0.0000000000e+00 0.0000e+00 -1.0000e+00
      -11  1    1    2    0    0 +8.0788805745e+00 +9.5128892374e+00 +4.9153711071e+02 4.9169553036e+02 0.0000000000e+00 0.0000e+00 1.0000e+00
       11  1    1    2    0    0 +7.2948420580e+00 -8.6217122910e-02 -4.8867393413e+02 4.8872838679e+02 0.0000000000e+00 0.0000e+00 -1.0000e+00
      -15  1    1    2    0    0 -1.2337051141e+01 -9.1815604864e+00 -3.7720721884e+00 1.5933930508e+01 1.7770000000e+00 0.0000e+00 1.0000e+00
       15  1    1    2    0    0 -3.0366714913e+00 -2.4511162815e-01 +9.0889561088e-01 3.6421523428e+00 1.7770000000e+00 0.0000e+00 -1.0000e+00
</event>
<event>
 6 1 7.08916e-05 4.81220700e+02 7.54677100e-03 9.44283900e-02
      -11 -1    0    0    0    0 +0.0000000000e+00 +0.0000000000e+00 +5.0000000000e+02 5.0000000000e+02 0.0000000000e+00 0.0000e+00 1.0000e+00
       11 -1    0    0    0    0 -0.0000000000e+00 -0.0000000000e+00 -5.0000000000e+02 5.0000000000e+02 0.0000000000e+00 0.0000e+00 -1.0000e+00
      -11  1    1    2    0    0 +1.2273236324e+01 -1.7250388991e+01 +4.8747391175e+02 4.8793342055e+02 0.0000000000e+00 0.0000e+00 1.0000e+00
       11  1    1    2    0    0 +3.1134040015e+00 -9.0584289566e+00 -4.7497496106e+02 4.7507153362e+02 0.0000000000e+00 0.0000e+00 -1.0000e+00
      -15  1    1    2    0    0 -1.9157262290e+00 +2.7335656790e+00 -8.7438981619e+00 9.5265876562e+00 1.7770000000e+00 0.0000e+00 1.0000e+00
       15  1    1    2    0    0 -1.3470914097e+01 +2.3575252268e+01 -3.7550525321e+00 2.7468458177e+01 1.7770000000e+00 0.0000e+00 -1.0000e+00
</event>
<event>
 6 1 7.08916e-05 5.00060700e+02 7.54677100e-03 9.39967400e-02
      -11 -1    0    0    0    0 +0.0000000000e+00 +0.0000000000e+00 +5.0000000000e+02 5.0000000000e+02 0.0000000000e+00 0.0000e+00 -1.0000e+00
       11 -1    0    0    0    0 -0.0000000000e+00 -0.0000000000e+00 -5.0000000000e+02 5.0000000000e+02 0.0000000000e+00 0.0000e+00 -1.0000e+00
      -11  1    1    2    0    0 -4.6449009277e+00 +2.5823710710e+00 +1.4443905696e+02 1.4453679435e+02 0.0000000000e+00 0.0000e+00 -1.0000e+00
       11  1    1    2    0    0 +8.2289874335e+00 +2.2379214592e+00 -4.9986653130e+02 4.9993926995e+02 0.0000000000e+00 0.0000e+00 -1.0000e+00
      -15  1    1    2    0    0 -1.9560155653e+00 -5.1365684180e+00 +2.7056716962e+02 2.7062882577e+02 1.7770000000e+00 0.0000e+00 -1.0000e+00
       15  1    1    2    0    0 -1.6280709405e+00 +3.1627588776e-01 +8.4860304717e+01 8.4895109936e+01 1.7770000000e+00 0.0000e+00 -1.0000e+00
</event>
<event>
 6 1 7.08916e-05 5.00466500e+02 7.54677100e-03 9.39876700e-02
      -11 -1    0    0    0    0 +0.0000000000e+00 +0.0000000000e+00 +5.0000000000e+02 5.0000000000e+02 0.0000000000e+00 0.0000e+00 1.0000e+00
       11 -1    0    0    0    0 -0.0000000000e+00 -0.0000000000e+00 -5.0000000000e+02 5.0000000000e+02 0.0000000000e+00 0.0000e+00 -1.0000e+00
      -11  1    1    2    0    0 +9.4641272031e+00 +3.1535423869e-01 +4.9944375162e+02 4.9953351257e+02 0.0000000000e+00 0.0000e+00 1.0000e+00
       11  1    1    2    0    0 -3.2219519732e+00 +3.8605619147e+00 -2.5033362207e+02 2.5038411941e+02 0.0000000000e+00 0.0000e+00 -1.0000e+00
      -15  1    1    2    0    0 -1.3774634095e+00 +4.2470249735e+00 -1.9604465685e+02 1.9610354366e+02 1.7770000000e+00 0.0000e+00 1.0000e+00
       15  1    1    2    0    0 -4.8647118205e+00 -8.4229411269e+00 -5.3065472696e+01 5.3978824365e+01 1.7770000000e+00 0.0000e+00 1.0000e+00
</event>
<event>
 6 1 7.08916e-05 5.10785800e+02 7.54677100e-03 9.37599400e-02
      -11 -1    0    0    0    0 +0.0000000000e+00 +0.0000000000e+00 +5.0000000000e+02 5.0000000000e+02 0.0000000000e+00 0.0000e+00 1.0000e+00
       11 -1    0    0    0    0 -0.0000000000e+00 -0.0000000000e+00 -5.0000000000e+02 5.0000000000e+02 0.0000000000e+00 0.0000e+00 1.0000e+00
      -11  1    1    2    0    0 +3.2929002303e+00 -6.4746720465e+00 +4.8916023976e+02 4.8921417062e+02 0.0000000000e+00 0.0000e+00 1.0000e+00
       11  1    1    2    0    0 +7.7601900111e+00 +1.9233954290e+01 -4.7578862179e+02 4.7624046255e+02 0.0000000000e+00 0.0000e+00 1.0000e+00
      -15  1    1    2    0    0 -2.8010612152e+00 +8.1520730856e+00 -6.5964801335e+00 1.0998796238e+01 1.7770000000e+00 0.0000e+00 -1.0000e+00
       15  1    1    2    0    0 -8.2520290262e+00 -2.0911355329e+01 -6.7751378380e+00 2.3546570589e+01 1.7770000000e+00 0.0000e+00 1.0000e+00
</event>
<event>
 6 1 7.08916e-05 5.39939200e+02 7.54677100e-03 9.31462600e-02
      -11 -1    0    0    0    0 +0.0000000000e+00 +0.0000000000e+00 +5.0000000000e+02 5.0000000000e+02 0.0000000000e+00 0.0000e+00 1.0000e+00
       11 -1    0    0    0    0 -0.0000000000e+00 -0.0000000000e+00 -5.0000000000e+02 5.0000000000e+02 0.0000000000e+00 0.0000e+00 -1.0000e+00
      -11  1    1    2    0    0 -4.0260954340e+00 +7.3523221250e+00 +4.5998447724e+02 4.6006084965e+02 0.0000000000e+00 0.0000e+00 1.0000e+00
       11  1    1    2    0    0 -1.3935807935e+01 +1.9542155543e+01 -3.5552927256e+02 3.5633855564e+02 0.0000000000e+00 0.0000e+00 -1.0000e+00
      -15  1    1    2    0    0 +4.6714178080e+00 -9.9342988604e+00 +3.7959069224e+01 3.9554533287e+01 1.7770000000e+00 0.0000e+00 -1.0000e+00
       15  1    1    2    0    0 +1.3290485561e+01 -1.6960178808e+01 -1.4241427390e+02 1.4404606142e+02 1.7770000000e+00 0.0000e+00 1.0000e+00
</event>
<event>
 6 1 7.08916e-05 5.00031700e+02 7.54677100e-03 9.39973900e-02
      -11 -1    0    0    0    0 +0.0000000000e+00 +0.0000000000e+00 +5.0000000000e+02 5.0000000000e+02 0.0000000000e+00 0.0000e+00 -1.0000e+00
       11 -1    0    0    0    0 -0.0000000000e+00 -0.0000000000e+00 -5.0000000000e+02 5.0000000000e+02 0.0000000000e+00 0.0000e+00 -1.0000e+00
      -11  1    1    2    0    0 -1.7947759421e+00 -2.8743910388e-01 +1.3056399380e+02 1.3057664538e+02 0.0000000000e+00 0.0000e+00 -1.0000e+00
       11  1    1    2    0    0 -1.3851026694e+00 +7.0637145250e+00 -4.9991643163e+02 4.9996825218e+02 0.0000000000e+00 0.0000e+00 -1.0000e+00
      -15  1    1    2    0    0 +1.2315571928e+00 -3.9048244426e+00 +2.4770314425e+02 2.4774335468e+02 1.7770000000e+00 0.0000e+00 1.0000e+00
       15  1    1    2    0    0 +1.9483214186e+00 -2.8714509786e+00 +1.2164929358e+02 1.2171174776e+02 1.7770000000e+00 0.0000e+00 -1.0000e+00
</event>
<event>
 6 1 7.08916e-05 4.83100300e+02 7.54677100e-03 9.43843900e-02
      -11 -1    0    0    0    0 +0.0000000000e+00 +0.0000000000e+00 +5.0000000000e+02 5.0000000000e+02 0.0000000000e+00 0.0000e+00 1.0000e+00
       11 -1    0    0    0    0 -0.0000000000e+00 -0.0000000000e+00 -5.0000000000e+02 5.0000000000e+02 0.0000000000e+00 0.0000e+00 -1.0000e+00
      -11  1    1    2    0    0 -1.1212455658e+01 +3.0037895806e+01 +4.9807534197e+02 4.9910624182e+02 0.0000000000e+00 0.0000e+00 1.0000e+00
       11  1    1    2    0    0 +1.4968350168e+00 -1.3662196472e+00 -3.4818603749e+01 3.4877531998e+01 0.0000000000e+00 0.0000e+00 -1.0000e+00
      -15  1    1    2    0    0 -1.6280159242e+00 -3.2386616586e+01 -2.1231262292e+02 2.1478210110e+02 1.7770000000e+00 0.0000e+00 1.0000e+00
       15  1    1    2    0    0 +1.1343636565e+01 +3.7149404269e+00 -2.5094411530e+02 2.5123412508e+02 1.7770000000e+00 0.0000e+00 -1.0000e+00
</event>
<event>
 6 1 7.08916e-05 5.42548100e+02 7.54677100e-03 9.30933500e-02
      -11 -1    0    0    0    0 +0.0000000000e+00 +0.0000000000e+00 +5.0000000000e+02 5.0000000000e+02 0.0000000000e+00 0.0000e+00 -1.0000e+00
       11 -1    0    0    0    0 -0.0000000000e+00 -0.0000000000e+00 -5.0000000000e+02 5.0000000000e+02 0.0000000000e+00 0.0000e+00 -1.0000e+00
      -11  1    1    2    0    0 -5.4621355847e+00 +5.3546776630e+00 +4.2307715121e+02 4.2314629075e+02 0.0000000000e+00 0.0000e+00 -1.0000e+00
       11  1    1    2    0    0 -8.8470100287e+00 +8.2268699576e+00 -4.5729235623e+02 4.5745191009e+02 0.0000000000e+00 0.0000e+00 -1.0000e+00
      -15  1    1    2    0    0 +1.0114545598e+01 -1.9807947071e+00 +7.5528673115e+01 7.6249365714e+01 1.7770000000e+00 0.0000e+00 -1.0000e+00
       15  1    1    2    0    0 +4.1946000149e+00 -1.1600752914e+01 -4.1313468095e+01 4.3152433448e+01 1.7770000000e+00 0.0000e+00 1.0000e+00
</event>
<event>
 6 1 7.08916e-05 5.05531900e+02 7.54677100e-03 9.38751600e-02
      -11 -1    0    0    0    0 +0.0000000000e+00 +0.0000000000e+00 +5.0000000000e+02 5.0000000000e+02 0.0000000000e+00 0.0000e+00 -1.0000e+00
       11 -1    0    0    0    0 -0.0000000000e+00 -0.0000000000e+00 -5.0000000000e+02 5.0000000000e+02 0.0000000000e+00 0.0000e+00 -1.0000e+00
      -11  1    1    2    0    0 +6.4809847047e+00 +3.0698724358e+00 +4.9441611403e+02 4.9446811939e+02 0.0000000000e+00 0.0000e+00 -1.0000e+00
       11  1    1    2    0    0 -9.7284161377e+00 +3.1612841358e+00 -4.3605898257e+02 4.3617894502e+02 0.0000000000e+00 0.0000e+00 -1.0000e+00
      -15  1    1    2    0    0 +3.4611845696e+00 -2.4060516990e+00 -6.2948617980e+01 6.3114618893e+01 1.7770000000e+00 0.0000e+00 1.0000e+00
       15  1    1    2    0    0 -2.1375313664e-01 -3.8251048727e+00 +4.5914865237e+00 6.2383166951e+00 1.7770000000e+00 0.0000e+00 -1.0000e+00
</event>
<event>
 6 1 7.08916e-05 5.00150800e+02 7.54677100e-03 9.39947200e-02
      -11 -1    0    0    0    0 +0.0000000000e+00 +0.0000000000e+00 +5.0000000000e+02 5.0000000000e+02 0.0000000000e+00 0.0000e+00 -1.0000e+00
       11 -1    0    0    0    0 -0.0000000000e+00 -0.0000000000e+00 -5.0000000000e+02 5.0000000000e+02 0.0000000000e+00 0.0000e+00 1.0000e+00
      -11  1    1    2    0    0 +2.1133347106e+00 +1.3538243388e+00 +1.4708772346e+02 1.4710913437e+02 0.0000000000e+00 0.0000e+00 -1.0000e+00
       11  1    1    2    0    0 -2.6082508971e+00 -6.2670314774e+00 -4.9980314747e+02 4.9984924215e+02 0.0000000000e+00 0.0000e+00 1.0000e+00
      -15  1    1    2    0    0 +6.5579852856e+00 -5.0319338267e-01 +1.7125745044e+02 1.7139291828e+02 1.7770000000e+00 0.0000e+00 1.0000e+00
       15  1    1    2    0    0 -6.0630690991e+00 +5.4164005213e+00 +1.8145797357e+02 1.8164870520e+02 1.7770000000e+00 0.0000e+00 -1.0000e+00
</event>
<event>
 6 1 7.08916e-05 5.06217700e+02 7.54677100e-03 9.38600400e-02
      -11 -1    0    0    0    0 +0.0000000000e+00 +0.0000000000e+00 +5.0000000000e+02 5.0000000000e+02 0.0000000000e+00 0.0000e+00 1.0000e+00
       11 -1    0    0    0    0 -0.0000000000e+00 -0.0000000000e+00 -5.0000000000e+02 5.0000000000e+02 0.0000000000e+00 0.0000e+00 1.0000e+00
      -11  1    1    2    0    0 +1.2611085509e+00 -8.5167644966e+00 +4.6067865908e+02 4.6075910475e+02 0.0000000000e+00 0.0000e+00 1.0000e+00
       11  1    1    2    0    0 +1.8956296996e+01 +2.6618537212e+01 -4.9269978019e+02 4.9378230135e+02 0.0000000000e+00 0.0000e+00 1.0000e+00
      -15  1    1    2    0    0 -3.9996495243e+00 -2.0149822840e+00 +1.7916888517e+01 1.8553435613e+01 1.7770000000e+00 0.0000e+00 -1.0000e+00
       15  1    1    2    0    0 -1.6217756022e+01 -1.6086790431e+01 +1.4104232595e+01 2.6905158295e+01 1.7770000000e+00 0.0000e+00 1.0000e+00
</event>
<event>
 6 1 7.08916e-05 5.18647600e+02 7.54677100e-03 9.35902400e-02
      -11 -1    0    0    0    0 +0.0000000000e+00 +0.0000000000e+00 +5.0000000000e+02 5.0000000000e+02 0.0000000000e+00 0.0000e+00 1.0000e+00
       11 -1    0    0    0    0 -0.0000000000e+00 -0.0000000000e+00 -5.0000000000e+02 5.0000000000e+02 0.0000000000e+00 0.0000e+00 -1.0000e+00
      -11  1    1    2    0    0 -3.0450720365e+00 -5.6154052093e+00 +4.6690608851e+02 4.6694978394e+02 0.0000000000e+00 0.0000e+00 1.0000e+00
       11  1    1    2    0    0 -1.1873369331e+00 -7.4491192292e+00 -4.8129326541e+02 4.8135237246e+02 0.0000000000e+00 0.0000e+00 -1.0000e+00
      -15  1    1    2    0    0 -3.7742094239e+00 +2.9205172545e+01 +1.5929417810e+01 3.3527463980e+01 1.7770000000e+00 0.0000e+00 -1.0000e+00
       15  1    1    2    0    0 +8.0066183936e+00 -1.6140648107e+01 -1.5422409069e+00 1.8170379617e+01 1.7770000000e+00 0.0000e+00 1.0000e+00
</event>
<event>
 6 1 7.08916e-05 5.00898700e+02 7.54677100e-03 9.39780100e-02
      -11 -1    0    0    0    0 +0.0000000000e+00 +0.0000000000e+00 +5.0000000000e+02 5.0000000000e+02 0.0000000000e+00 0.0000e+00 1.0000e+00
       11 -1    0    0    0    0 -0.0000000000e+00 -0.0000000000e+00 -5.0000000000e+02 5.0000000000e+02 0.0000000000e+00 0.0000e+00 1.0000e+00
      -11  1    1    2    0    0 +7.2758391152e+00 -1.1364300721e+00 +3.5659916240e+02 3.5667519108e+02 0.0000000000e+00 0.0000e+00 1.0000e+00
       11  1    1    2    0    0 -1.8042405274e+00 -1.3089765729e+01 -4.9892635948e+02 4.9910130177e+02 0.0000000000e+00 0.0000e+00 1.0000e+00
      -15  1    1    2    0    0 -3.3941197518e+00 -3.2684619581e+00 +4.6701302287e+01 4.6972036966e+01 1.7770000000e+00 0.0000e+00 -1.0000e+00
       15  1    1    2    0    0 -2.0774788360e+00 +1.7494657759e+01 +9.5625894795e+01 9.7251470183e+01 1.7770000000e+00 0.0000e+00 1.0000e+00
</event>
<event>
 6 1 7.08916e-05 5.02266400e+02 7.54677100e-03 9.39475300e-02
      -11 -1    0    0    0    0 +0.0000000000e+00 +0.0000000000e+00 +5.0000000000e+02 5.0000000000e+02 0.0000000000e+00 0.0000e+00 -1.0000e+00
       11 -1    0    0    0    0 -0.0000000000e+00 -0.0000000000e+00 -5.0000000000e+02 5.0000000000e+02 0.0000000000e+00 0.0000e+00 -1.0000e+00
      -11  1    1    2    0    0 +3.2011930665e+01 +3.6155299617e+01 +4.9538549512e+02 4.9773362170e+02 0.0000000000e+00 0.0000e+00 -1.0000e+00
       11  1    1    2    0    0 -1.7992900567e+01 +7.3733677222e-01 -2.5688769733e+02 2.5751811038e+02 0.0000000000e+00 0.0000e+00 -1.0000e+00
      -15  1    1    2    0    0 -2.3694177008e+01 -3.7253892159e+01 -1.7500885567e+02 1.8050075844e+02 1.7770000000e+00 0.0000e+00 -1.0000e+00
       15  1    1    2    0    0 +9.6751469094e+00 +3.6125576939e-01 -6.3488942124e+01 6.4247509481e+01 1.7770000000e+00 0.0000e+00 1.0000e+00
</event>
<event>
 6 1 7.08916e-05 5.02026800e+02 7.54677100e-03 9.39528600e-02
      -11 -1    0    0    0    0 +0.0000000000e+00 +0.0000000000e+00 +5.0000000000e+02 5.0000000000e+02 0.0000000000e+00 0.0000e+00 -1.0000e+00
       11 -1    0    0    0    0 -0.0000000000e+00 -0.0000000000e+00 -5.0000000000e+02 5.0000000000e+02 0.0000000000e+00 0.0000e+00 1.0000e+00
      -11  1    1    2    0    0 +8.4126161085e+00 +7.7490779274e+00 +4.9623024303e+02 4.9636203966e+02 0.0000000000e+00 0.0000e+00 -1.0000e+00
       11  1    1    2    0    0 -9.8035057308e+00 -9.2872757626e+00 -4.9779007626e+02 4.9797321438e+02 0.0000000000e+00 0.0000e+00 1.0000e+00
      -15  1    1    2    0    0 +1.4949648091e+00 +2.1693649385e+00 +1.9606844456e+00 3.7340429178e+00 1.7770000000e+00 0.0000e+00 -1.0000e+00
       15  1    1    2    0    0 -1.0407518683e-01 -6.3116710332e-01 -4.0085121463e-01 1.9307030463e+00 1.7770000000e+00 0.0000e+00 1.0000e+00
</event>
<event>
 6 1 7.08916e-05 5.01255500e+02 7.54677100e-03 9.39700500e-02
      -11 -1    0    0    0    0 +0.0000000000e+00 +0.0000000000e+00 +5.0000000000e+02 5.0000000000e+02 0.0000000000e+00 0.0000e+00 1.0000e+00
       11 -1    0    0    0    0 -0.0000000000e+00 -0.0000000000e+00 -5.0000000000e+02 5.0000000000e+02 0.0000000000e+00 0.0000e+00 1.0000e+00
      -11  1    1    2    0    0 +3.0958731471e+00 +1.0860903915e+01 +4.9861666315e+02 4.9874454426e+02 0.0000000000e+00 0.0000e+00 1.0000e+00
       11  1    1    2    0    0 -1.0814351962e+01 -4.6443288311e-01 -2.9414196861e+02 2.9434106680e+02 0.0000000000e+00 0.0000e+00 1.0000e+00
      -15  1    1    2    0    0 +1.5182758620e+01 -3.6412131371e+00 -5.8237201936e+01 6.0320013352e+01 1.7770000000e+00 0.0000e+00 -1.0000e+00
       15  1    1    2    0    0 -7.4642798056e+00 -6.7552578950e+00 -1.4623749260e+02 1.4659437559e+02 1.7770000000e+00 0.0000e+00 1.0000e+00
</event>
<event>
 6 1 7.08916e-05 5.13347700e+02 7.54677100e-03 9.37042900e-02
      -11 -1    0    0    0    0 +0.0000000000e+00 +0.0000000000e+00 +5.0000000000e+02 5.0000000000e+02 0.0000000000e+00 0.0000e+00 -1.0000e+00
       11 -1    0    0    0    0 -0.0000000000e+00 -0.0000000000e+00 -5.0000000000e+02 5.0000000000e+02 0.0000000000e+00 0.0000e+00 1.0000e+00
      -11  1    1    2    0    0 +2.7222339215e+01 -1.1727594101e+00 +4.3794367506e+02 4.3879048946e+02 0.0000000000e+00 0.0000e+00 -1.0000e+00
       11  1    1    2    0    0 +5.9529937615e+00 +6.1060730141e+00 -4.8657756082e+02 4.8665228342e+02 0.0000000000e+00 0.0000e+00 1.0000e+00
      -15  1    1    2    0    0 -1.8093377754e+01 -7.2183147871e-01 +5.4718300220e+01 5.7664039636e+01 1.7770000000e+00 0.0000e+00 -1.0000e+00
       15  1    1    2    0    0 -1.5081955223e+01 -4.2114821253e+00 -6.0844144541e+00 1.6893187482e+01 1.7770000000e+00 0.0000e+00 1.0000e+00
</event>
<event>
 6 1 7.08916e-05 4.81463400e+02 7.54677100e-03 9.44226900e-02
      -11 -1    0    0    0    0 +0.0000000000e+00 +0.0000000000e+00 +5.0000000000e+02 5.0000000000e+02 0.0000000000e+00 0.0000e+00 -1.0000e+00
       11 -1    0    0    0    0 -0.0000000000e+00 -0.0000000000e+00 -5.0000000000e+02 5.0000000000e+02 0.0000000000e+00 0.0000e+00 -1.0000e+00
      -11  1    1    2    0    0 -8.2666541536e+00 -6.5997226993e+00 +4.7491594772e+02 4.7503373702e+02 0.0000000000e+00 0.0000e+00 -1.0000e+00
       11  1    1    2    0    0 -1.4984659267e+01 -6.7655098912e+00 -4.8807965580e+02 4.8835649125e+02 0.0000000000e+00 0.0000e+00 -1.0000e+00
      -15  1    1    2    0    0 +5.4911092639e+00 +7.0162383852e+00 -4.9953134228e+00 1.0367775423e+01 1.7770000000e+00 0.0000e+00 1.0000e+00
       15  1    1    2    0    0 +1.7760204156e+01 +6.3489942054e+00 +1.8159021510e+01 2.6241996310e+01 1.7770000000e+00 0.0000e+00 -1.0000e+00
</event>
<event>
 6 1 7.08916e-05 5.00446600e+02 7.54677100e-03 9.39881100e-02
      -11 -1    0    0    0    0 +0.0000000000e+00 +0.0000000000e+00 +5.0000000000e+02 5.0000000000e+02 0.0000000000e+00 0.0000e+00 -1.0000e+00
       11 -1    0    0    0    0 -0.0000000000e+00 -0.0000000000e+00 -5.0000000000e+02 5.0000000000e+02 0.0000000000e+00 0.0000e+00 -1.0000e+00
      -11  1    1    2    0    0 -1.2996013244e+01 +2.1761916172e+00 +4.9937959377e+02 4.9955341140e+02 0.0000000000e+00 0.0000e+00 -1.0000e+00
       11  1    1    2    0    0 +7.2600855614e+00 -6.9884295920e+00 -4.5395432666e+02 4.5406616003e+02 0.0000000000e+00 0.0000e+00 -1.0000e+00
      -15  1    1    2    0    0 +4.7101286632e+00 +3.5935508430e+00 -3.9680940211e+01 4.0160100407e+01 1.7770000000e+00 0.0000e+00 -1.0000e+00
       15  1    1    2    0    0 +1.0257990193e+00 +1.2186871318e+00 -5.7443268955e+00 6.2203281615e+00 1.7770000000e+00 0.0000e+00 1.0000e+00
</event>
<event>
 6 1 7.08916e-05 4.68919000e+02 7.54677100e-03 9.47217400e-02
      -11 -1    0    0    0    0 +0.0000000000e+00 +0.0000000000e+00 +5.0000000000e+02 5.0000000000e+02 0.0000000000e+00 0.0000e+00 1.0000e+00
       11 -1    0    0    0    0 -0.0000000000e+00 -0.0000000000e+00 -5.0000000000e+02 5.0000000000e+02 0.0000000000e+00 0.0000e+00 -1.0000e+00
      -11  1    1    2    0    0 -1.6764353161e+01 -1.4581275594e+01 +4.6863254556e+02 4.6915894950e+02 0.0000000000e+00 0.0000e+00 1.0000e+00
       11  1    1    2    0    0 +7.1467214351e+00 -5.1631524679e+00 -4.6885329911e+02 4.6893618954e+02 0.0000000000e+00 0.0000e+00 -1.0000e+00
      -15  1    1    2    0    0 -5.0273359968e+00 +2.5091433802e+01 -2.2615221593e+01 3.4197370281e+01 1.7770000000e+00 0.0000e+00 -1.0000e+00
       15  1    1    2    0    0 +1.4644967723e+01 -5.3470057399e+00 +2.2835975144e+01 2.7707490680e+01 1.7770000000e+00 0.0000e+00 1.0000e+00
</event>
<event>
 6 1 7.08916e-05 5.04603600e+02 7.54677100e-03 9.38956700e-02
      -11 -1    0    0    0    0 +0.0000000000e+00 +0.0000000000e+00 +5.0000000000e+02 5.0000000000e+02 0.0000000000e+00 0.0000e+00 1.0000e+00
       11 -1    0    0    0    0 -0.0000000000e+00 -0.0000000000e+00 -5.0000000000e+02 5.0000000000e+02 0.0000000000e+00 0.0000e+00 -1.0000e+00
      -11  1    1    2    0    0 -5.2453943618e+00 -1.9592209466e+01 +4.9498107702e+02 4.9539644270e+02 0.0000000000e+00 0.0000e+00 1.0000e+00
       11  1    1    2    0    0 +1.4223114979e+01 +6.9155584297e-01 -4.4561558183e+02 4.4584304639e+02 0.0000000000e+00 0.0000e+00 -1.0000e+00
      -15  1    1    2    0    0 -3.5835892800e+00 +1.9162978972e+00 -3.6355268690e+01 3.6624822188e+01 1.7770000000e+00 0.0000e+00 -1.0000e+00
       15  1    1    2    0    0 -5.3941313375e+00 +1.6984355726e+01 -1.3010226502e+01 2.2135688717e+01 1.7770000000e+00 0.0000e+00 1.0000e+00
</event>
<event>
 6 1 7.08916e-05 5.00685300e+02 7.54677100e-03 9.39827800e-02
      -11 -1    0    0    0    0 +0.0000000000e+00 +0.0000000000e+00 +5.0000000000e+02 5.0000000000e+02 0.0000000000e+00 0.0000e+00 1.0000e+00
       11 -1    0    0    0    0 -0.0000000000e+00 -0.0000000000e+00 -5.0000000000e+02 5.0000000000e+02 0.0000000000e+00 0.0000e+00 -1.0000e+00
      -11  1    1    2    0    0 -4.5528410325e+00 +7.2406706278e+00 +4.9924146049e+02 4.9931472194e+02 0.0000000000e+00 0.0000e+00 1.0000e+00
       11  1    1    2    0    0 -7.1168041813e+00 -3.8453986366e+00 -2.6644685837e+02 2.6656962379e+02 0.0000000000e+00 0.0000e+00 -1.0000e+00
      -15  1    1    2    0    0 +2.2348692185e+00 -9.5227466720e+00 -1.7042093897e+02 1.7071066608e+02 1.7770000000e+00 0.0000e+00 1.0000e+00
       15  1    1    2    0    0 +9.4347759954e+00 +6.1274746809e+00 -6.2373663149e+01 6.3404988192e+01 1.7770000000e+00 0.0000e+00 -1.0000e+00
</event>
<event>
 6 1 7.08916e-05 5.01157400e+02 7.54677100e-03 9.39722400e-02
      -11 -1    0    0    0    0 +0.0000000000e+00 +0.0000000000e+00 +5.0000000000e+02 5.0000000000e+02 0.0000000000e+00 0.0000e+00 1.0000e+00
       11 -1    0    0    0    0 -0.0000000000e+00 -0.0000000000e+00 -5.0000000000e+02 5.0000000000e+02 0.0000000000e+00 0.0000e+00 1.0000e+00
      -11  1    1    2    0    0 -6.3149293686e+00 +7.7506812787e+00 +4.9874244219e+02 4.9884263554e+02 0.0000000000e+00 0.0000e+00 1.0000e+00
       11  1    1    2    0    0 -7.6928494694e+00 +2.7857241681e+00 -3.8518261184e+02 3.8526949614e+02 0.0000000000e+00 0.0000e+00 1.0000e+00
      -15  1    1    2    0    0 +1.0031865638e+01 -1.3144090986e+01 -6.6203943553e+01 6.8260715840e+01 1.7770000000e+00 0.0000e+00 1.0000e+00
       15  1    1    2    0    0 +3.9759132003e+00 +2.6076855388e+00 -4.7355886801e+01 4.7627152480e+01 1.7770000000e+00 0.0000e+00 -1.0000e+00
</event>
<event>
 6 1 7.08916e-05 5.04678500e+02 7.54677100e-03 9.38940200e-02
      -11 -1    0    0    0    0 +0.0000000000e+00 +0.0000000000e+00 +5.0000000000e+02 5.0000000000e+02 0.0000000000e+00 0.0000e+00 -1.0000e+00
       11 -1    0    0    0    0 -0.0000000000e+00 -0.0000000000e+00 -5.0000000000e+02 5.0000000000e+02 0.0000000000e+00 0.0000e+00 -1.0000e+00
      -11  1    1    2    0    0 -3.1220496723e+00 +8.1259789157e+00 +4.9524495746e+02 4.9532145787e+02 0.0000000000e+00 0.0000e+00 -1.0000e+00
       11  1    1    2    0    0 -8.0680033407e-01 -8.5466332755e+00 -4.9113836818e+02 4.9121338801e+02 0.0000000000e+00 0.0000e+00 -1.0000e+00
      -15  1    1    2    0    0 +5.2089386616e+00 -4.1214851494e+00 +1.3304375016e-01 6.8771441353e+00 1.7770000000e+00 0.0000e+00 -1.0000e+00
       15  1    1    2    0    0 -1.2800886553e+00 +4.5421395092e+00 -4.2396330362e+00 6.5880099854e+00 1.7770000000e+00 0.0000e+00 1.0000e+00
</event>
<event>
 6 1 7.08916e-05 5.02241500e+02 7.54677100e-03 9.39480800e-02
      -11 -1    0    0    0    0 +0.0000000000e+00 +0.0000000000e+00 +5.0000000000e+02 5.0000000000e+02 0.0000000000e+00 0.0000e+00 -1.0000e+00
       11 -1    0    0    0    0 -0.0000000000e+00 -0.0000000000e+00 -5.0000000000e+02 5.0000000000e+02 0.0000000000e+00 0.0000e+00 1.0000e+00
      -11  1    1    2    0    0 +1.9855127030e+01 -2.8385884598e+00 +4.9735422176e+02 4.9775848115e+02 0.0000000000e+00 0.0000e+00 -1.0000e+00
       11  1    1    2    0    0 -1.6088588620e+01 -1.0901676349e+01 -2.0687761960e+02 2.0778844703e+02 0.0000000000e+00 0.0000e+00 1.0000e+00
      -15  1    1    2    0    0 +1.4385831019e+01 +4.5864577653e+00 -2.3237433822e+02 2.3287116293e+02 1.7770000000e+00 0.0000e+00 -1.0000e+00
       15  1    1    2    0    0 -1.8152369429e+01 +9.1538070439e+00 -5.8102263939e+01 6.1581908895e+01 1.7770000000e+00 0.0000e+00 1.0000e+00
</event>
<event>
 6 1 7.08916e-05 4.65804800e+02 7.54677100e-03 9.47975300e-02
      -11 -1    0    0    0    0 +0.0000000000e+00 +0.0000000000e+00 +5.0000000000e+02 5.0000000000e+02 0.0000000000e+00 0.0000e+00 -1.0000e+00
       11 -1    0    0    0    0 -0.0000000000e+00 -0.0000000000e+00 -5.0000000000e+02 5.0000000000e+02 0.0000000000e+00 0.0000e+00 1.0000e+00
      -11  1    1    2    0    0 -2.4121676999e+01 -1.2029873300e+01 +4.7245027636e+02 4.7321859302e+02 0.0000000000e+00 0.0000e+00 -1.0000e+00
       11  1    1    2    0    0 +1.4755250045e+01 -3.0404305626e+01 -4.5826737082e+02 4.5951183049e+02 0.0000000000e+00 0.0000e+00 1.0000e+00
      -15  1    1    2    0    0 +2.9236918858e+01 +2.4110815093e+01 -3.3128984589e+00 3.8082303685e+01 1.7770000000e+00 0.0000e+00 -1.0000e+00
       15  1    1    2    0    0 -1.9870491904e+01 +1.8323363833e+01 -1.0870007083e+01 2.9187272803e+01 1.7770000000e+00 0.0000e+00 1.0000e+00
</event>
<event>
 6 1 7.08916e-05 5.00238200e+02 7.54677100e-03 9.39927700e-02
      -11 -1    0    0    0    0 +0.0000000000e+00 +0.0000000000e+00 +5.0000000000e+02 5.0000000000e+02 0.0000000000e+00 0.0000e+00 -1.0000e+00
       11 -1    0    0    0    0 -0.0000000000e+00 -0.0000000000e+00 -5.0000000000e+02 5.0000000000e+02 0.0000000000e+00 0.0000e+00 -1.0000e+00
      -11  1    1    2    0    0 -1.2743504829e+00 +3.6858226182e+00 +2.5529068370e+02 2.5532047008e+02 0.0000000000e+00 0.0000e+00 -1.0000e+00
       11  1    1    2    0    0 -2.4881501392e+00 -6.6893184279e+00 -4.9971082544e+02 4.9976179019e+02 0.0000000000e+00 0.0000e+00 -1.0000e+00
      -15  1    1    2    0    0 -2.9142223878e-01 -3.2299451638e+00 +1.8109851886e+02 1.8113627117e+02 1.7770000000e+00 0.0000e+00 1.0000e+00
       15  1    1    2    0    0 +4.0539228608e+00 +6.2334409734e+00 +6.3321622887e+01 6.3781468554e+01 1.7770000000e+00 0.0000e+00 -1.0000e+00
</event>
<event>
 6 1 7.08916e-05 5.01356800e+02 7.54677100e-03 9.39677900e-02
      -11 -1    0    0    0    0 +0.0000000000e+00 +0.0000000000e+00 +5.0000000000e+02 5.0000000000e+02 0.0000000000e+00 0.0000e+00 -1.0000e+00
       11 -1    0    0    0    0 -0.0000000000e+00 -0.0000000000e+00 -5.0000000000e+02 5.0000000000e+02 0.0000000000e+00 0.0000e+00 -1.0000e+00
      -11  1    1    2    0    0 -3.0827790244e+00 +1.3535814371e+01 +4.9844987432e+02 4.9864315799e+02 0.0000000000e+00 0.0000e+00 -1.0000e+00
       11  1    1    2    0    0 +2.1590317226e+00 +1.0709877940e+01 -1.2510007823e+02 1.2557624169e+02 0.0000000000e+00 0.0000e+00 -1.0000e+00
      -15  1    1    2    0    0 -1.3278657827e+01 -2.4296128808e+01 -2.7475119701e+02 2.7614851551e+02 1.7770000000e+00 0.0000e+00 -1.0000e+00
       15  1    1    2    0    0 +1.4202405128e+01 +5.0436497671e-02 -9.8598599079e+01 9.9632084815e+01 1.7770000000e+00 0.0000e+00 1.0000e+00
</event>
<event>
 6 1 7.08916e-05 4.83119200e+02 7.54677100e-03 9.43839500e-02
      -11 -1    0    0    0    0 +0.0000000000e+00 +0.0000000000e+00 +5.0000000000e+02 5.0000000000e+02 0.0000000000e+00 0.0000e+00 -1.0000e+00
       11 -1    0    0    0    0 -0.0000000000e+00 -0.0000000000e+00 -5.0000000000e+02 5.0000000000e+02 0.0000000000e+00 0.0000e+00 1.0000e+00
      -11  1    1    2    0    0 +7.3279652014e+00 +8.8662293086e+00 +4.8362860758e+02 4.8376537616e+02 0.0000000000e+00 0.0000e+00 -1.0000e+00
       11  1    1    2    0    0 +4.6604521250e+00 +7.6110168550e+00 -4.8260598803e+02 4.8268849901e+02 0.0000000000e+00 0.0000e+00 1.0000e+00
      -15  1    1    2    0    0 +3.0854822007e+00 -1.7131517266e+00 -9.8441529222e+00 1.0607552263e+01 1.7770000000e+00 0.0000e+00 -1.0000e+00
       15  1    1    2    0    0 -1.5073899527e+01 -1.4764094437e+01 +8.8215333701e+00 2.2938572569e+01 1.7770000000e+00 0.0000e+00 1.0000e+00
</event>
<event>
 7 1 7.08916e-05 5.12261200e+02 7.54677100e-03 9.37278500e-02
      -11 -1    0    0    0    0 +0.0000000000e+00 +0.0000000000e+00 +5.0000000000e+02 5.0000000000e+02 0.0000000000e+00 0.0000e+00 -1.0000e+00
       11 -1    0    0    0    0 -0.0000000000e+00 -0.0000000000e+00 -5.0000000000e+02 5.0000000000e+02 0.0000000000e+00 0.0000e+00 1.0000e+00
       23  2    1    2    0    0 +1.3802551120e+01 -6.9845529222e+00 -1.5304494313e+02 1.7778501822e+02 8.9137330493e+01 0.0000e+00 0.0000e+00
      -11  1    1    2    0    0 -2.1654528516e+01 -4.2877547356e+00 +4.8723894278e+02 4.8773875262e+02 0.0000000000e+00 0.0000e+00 -1.0000e+00
       11  1    1    2    0    0 +7.8519773956e+00 +1.1272307658e+01 -3.3419399965e+02 3.3447622916e+02 0.0000000000e+00 0.0000e+00 1.0000e+00
      -15  1    3    3    0    0 +3.1129146979e+01 -1.7336464031e+00 -1.5622661123e+02 1.5931710864e+02 1.7770000000e+00 0.0000e+00 1.0000e+00
       15  1    3    3    0    0 -1.7326595859e+01 -5.2509065191e+00 +3.1816680928e+00 1.8467909578e+01 1.7770000000e+00 0.0000e+00 -1.0000e+00
</event>
<event>
 6 1 7.08916e-05 5.00171500e+02 7.54677100e-03 9.39942600e-02
      -11 -1    0    0    0    0 +0.0000000000e+00 +0.0000000000e+00 +5.0000000000e+02 5.0000000000e+02 0.0000000000e+00 0.0000e+00 1.0000e+00
       11 -1    0    0    0    0 -0.0000000000e+00 -0.0000000000e+00 -5.0000000000e+02 5.0000000000e+02 0.0000000000e+00 0.0000e+00 1.0000e+00
      -11  1    1    2    0    0 -1.0191014113e+01 -1.2341163519e+00 +1.2275224629e+02 1.2318073624e+02 0.0000000000e+00 0.0000e+00 1.0000e+00
       11  1    1    2    0    0 +1.8009576540e+01 -3.2266445331e+00 -4.9949355601e+02 4.9982853918e+02 0.0000000000e+00 0.0000e+00 1.0000e+00
      -15  1    1    2    0    0 +4.4047312171e-01 +4.3912400932e+00 +9.0713211261e+01 9.0837885447e+01 1.7770000000e+00 0.0000e+00 -1.0000e+00
       15  1    1    2    0    0 -8.2590355489e+00 +6.9520791879e-02 +2.8602809847e+02 2.8615283913e+02 1.7770000000e+00 0.0000e+00 1.0000e+00
</event>
<event>
 6 1 7.08916e-05 5.00296400e+02 7.54677100e-03 9.39914700e-02
      -11 -1    0    0    0    0 +0.0000000000e+00 +0.0000000000e+00 +5.0000000000e+02 5.0000000000e+02 0.0000000000e+00 0.0000e+00 1.0000e+00
       11 -1    0    0    0    0 -0.0000000000e+00 -0.0000000000e+00 -5.0000000000e+02 5.0000000000e+02 0.0000000000e+00 0.0000e+00 1.0000e+00
      -11  1    1    2    0    0 +1.7520711324e+01 -8.2503195429e+00 +2.7269993902e+02 2.7338672213e+02 0.0000000000e+00 0.0000e+00 1.0000e+00
       11  1    1    2    0    0 -1.9407293727e+01 -4.6711609952e-01 -4.9932634883e+02 4.9970357601e+02 0.0000000000e+00 0.0000e+00 1.0000e+00
      -15  1    1    2    0    0 +2.2083760999e+00 +3.7284266449e+00 +5.4294519806e+01 5.4496153077e+01 1.7770000000e+00 0.0000e+00 1.0000e+00
       15  1    1    2    0    0 -3.2179369741e-01 +4.9890089975e+00 +1.7233189000e+02 1.7241354878e+02 1.7770000000e+00 0.0000e+00 1.0000e+00
</event>
<event>
 6 1 7.08916e-05 5.05077200e+02 7.54677100e-03 9.38852000e-02
      -11 -1    0    0    0    0 +0.0000000000e+00 +0.0000000000e+00 +5.0000000000e+02 5.0000000000e+02 0.0000000000e+00 0.0000e+00 -1.0000e+00
       11 -1    0    0    0    0 -0.0000000000e+00 -0.0000000000e+00 -5.0000000000e+02 5.0000000000e+02 0.0000000000e+00 0.0000e+00 1.0000e+00
      -11  1    1    2    0    0 +1.3960981036e+01 -2.1616775791e+01 +4.9425338687e+02 4.9492282673e+02 0.0000000000e+00 0.0000e+00 -1.0000e+00
       11  1    1    2    0    0 +8.3476604712e+00 +7.6023257916e+00 -3.7201438581e+02 3.7218568221e+02 0.0000000000e+00 0.0000e+00 1.0000e+00
      -15  1    1    2    0    0 +6.4620647939e+00 -1.1237420104e+01 -4.1613737626e+01 4.3622228051e+01 1.7770000000e+00 0.0000e+00 1.0000e+00
       15  1    1    2    0    0 -2.8770706302e+01 +2.5251870104e+01 -8.0625263439e+01 8.9269263011e+01 1.7770000000e+00 0.0000e+00 -1.0000e+00
</event>
<event>
 6 1 7.08916e-05 5.00749700e+02 7.54677100e-03 9.39813400e-02
      -11 -1    0    0    0    0 +0.0000000000e+00 +0.0000000000e+00 +5.0000000000e+02 5.0000000000e+02 0.0000000000e+00 0.0000e+00 1.0000e+00
       11 -1    0    0    0    0 -0.0000000000e+00 -0.0000000000e+00 -5.0000000000e+02 5.0000000000e+02 0.0000000000e+00 0.0000e+00 1.0000e+00
      -11  1    1    2    0    0 +1.7500697405e+01 +5.1696229142e-01 +4.9894323454e+02 4.9925033095e+02 0.0000000000e+00 0.0000e+00 1.0000e+00
       11  1    1    2    0    0 -6.2549514457e+00 -8.0058548428e+00 -3.2700877455e+02 3.2716655814e+02 0.0000000000e+00 0.0000e+00 1.0000e+00
      -15  1    1    2    0    0 -1.0210911398e+01 -1.8029859796e+00 -4.1885626980e+01 4.3186536635e+01 1.7770000000e+00 0.0000e+00 -1.0000e+00
       15  1    1    2    0    0 -1.0348345612e+00 +9.2918785310e+00 -1.3004883301e+02 1.3039657428e+02 1.7770000000e+00 0.0000e+00 1.0000e+00
</event>
<event>
 6 1 7.08916e-05 5.27763200e+02 7.54677100e-03 9.33974400e-02
      -11 -1    0    0    0    0 +0.0000000000e+00 +0.0000000000e+00 +5.0000000000e+02 5.0000000000e+02 0.0000000000e+00 0.0000e+00 1.0000e+00
       11 -1    0    0    0    0 -0.0000000000e+00 -0.0000000000e+00 -5.0000000000e+02 5.0000000000e+02 0.0000000000e+00 0.0000e+00 1.0000e+00
      -11  1    1    2    0    0 -1.4839322037e+01 +3.3847617878e+00 +3.8251411791e+02 3.8281681323e+02 0.0000000000e+00 0.0000e+00 1.0000e+00
       11  1    1    2    0    0 -6.9748937880e+00 -7.7271426786e-01 -4.7218469105e+02 4.7223683538e+02 0.0000000000e+00 0.0000e+00 1.0000e+00
      -15  1    1    2    0    0 +4.2414025989e+01 -3.7270738853e+00 +1.0874295603e+02 1.1679481536e+02 1.7770000000e+00 0.0000e+00 -1.0000e+00
       15  1    1    2    0    0 -2.0599810164e+01 +1.1150263653e+00 -1.9072382889e+01 2.8151536027e+01 1.7770000000e+00 0.0000e+00 1.0000e+00
</event>
<event>
 6 1 7.08916e-05 5.05749300e+02 7.54677100e-03 9.38703600e-02
      -11 -1    0    0    0    0 +0.0000000000e+00 +0.0000000000e+00 +5.0000000000e+02 5.0000000000e+02 0.0000000000e+00 0.0000e+00 -1.0000e+00
       11 -1    0    0    0    0 -0.0000000000e+00 -0.0000000000e+00 -5.0000000000e+02 5.0000000000e+02 0.0000000000e+00 0.0000e+00 1.0000e+00
      -11  1    1    2    0    0 +4.9987919657e-01 +9.5109679192e+00 +4.9415893157e+02 4.9425070363e+02 0.0000000000e+00 0.0000e+00 -1.0000e+00
       11  1    1    2    0    0 +7.0132760537e+00 +3.3323874604e+00 -3.9791619361e+02 3.9799194463e+02 0.0000000000e+00 0.0000e+00 1.0000e+00
      -15  1    1    2    0    0 +1.0786241399e+01 -1.3951224632e+00 -7.9818502786e+01 8.0575681730e+01 1.7770000000e+00 0.0000e+00 1.0000e+00
       15  1    1    2    0    0 -1.8299396649e+01 -1.1448232916e+01 -1.6424235171e+01 2.7181670011e+01 1.7770000000e+00 0.0000e+00 -1.0000e+00
</event>
<event>
 6 1 7.08916e-05 5.66018900e+02 7.54677100e-03 9.26311200e-02
      -11 -1    0    0    0    0 +0.0000000000e+00 +0.0000000000e+00 +5.0000000000e+02 5.0000000000e+02 0.0000000000e+00 0.0000e+00 1.0000e+00
       11 -1    0    0    0    0 -0.0000000000e+00 -0.0000000000e+00 -5.0000000000e+02 5.0000000000e+02 0.0000000000e+00 0.0000e+00 1.0000e+00
      -11  1    1    2    0    0 -2.4851126211e+01 -1.1126679108e+02 +4.1873821289e+02 4.3398106895e+02 0.0000000000e+00 0.0000e+00 1.0000e+00
       11  1    1    2    0    0 +3.1372004538e+00 -1.3110586215e+01 -2.7052830344e+02 2.7086397409e+02 0.0000000000e+00 0.0000e+00 1.0000e+00
      -15  1    1    2    0    0 +2.8392453718e+01 +9.8198990570e+01 -2.0675561388e+02 2.3065171748e+02 1.7770000000e+00 0.0000e+00 1.0000e+00
       15  1    1    2    0    0 -6.6785279604e+00 +2.6178386725e+01 +5.8545704431e+01 6.4503239482e+01 1.7770000000e+00 0.0000e+00 -1.0000e+00
</event>
<event>
 6 1 7.08916e-05 5.00383000e+02 7.54677100e-03 9.39895300e-02
      -11 -1    0    0    0    0 +0.0000000000e+00 +0.0000000000e+00 +5.0000000000e+02 5.0000000000e+02 0.0000000000e+00 0.0000e+00 1.0000e+00
       11 -1    0    0    0    0 -0.0000000000e+00 -0.0000000000e+00 -5.0000000000e+02 5.0000000000e+02 0.0000000000e+00 0.0000e+00 -1.0000e+00
      -11  1    1    2    0    0 +1.2977744680e+01 -4.2544559412e+00 +4.9943028152e+02 4.9961698165e+02 0.0000000000e+00 0.0000e+00 1.0000e+00
       11  1    1    2    0    0 -1.1180762612e+00 +3.7726404830e-01 -3.6733250053e+01 3.6752198330e+01 0.0000000000e+00 0.0000e+00 -1.0000e+00
      -15  1    1    2    0    0 -1.8591131917e+01 -1.7297279225e+00 -2.3051484811e+02 2.3127662025e+02 1.7770000000e+00 0.0000e+00 1.0000e+00
       15  1    1    2    0    0 +6.7314634988e+00 +5.6069198154e+00 -2.3218218336e+02 2.3235419977e+02 1.7770000000e+00 0.0000e+00 -1.0000e+00
</event>
<event>
 6 1 7.08916e-05 5.04700400e+02 7.54677100e-03 9.38935300e-02
      -11 -1    0    0    0    0 +0.0000000000e+00 +0.0000000000e+00 +5.0000000000e+02 5.0000000000e+02 0.0000000000e+00 0.0000e+00 -1.0000e+00
       11 -1    0    0    0    0 -0.0000000000e+00 -0.0000000000e+00 -5.0000000000e+02 5.0000000000e+02 0.0000000000e+00 0.0000e+00 -1.0000e+00
      -11  1    1    2    0    0 +9.5209862775e+00 -3.6214699277e+00 +4.4410013977e+02 4.4421694966e+02 0.0000000000e+00 0.0000e+00 -1.0000e+00
       11  1    1    2    0    0 +4.2970986257e+00 -5.7761569170e+00 -4.9524726252e+02 4.9529958619e+02 0.0000000000e+00 0.0000e+00 -1.0000e+00
      -15  1    1    2    0    0 -1.2315228066e+01 +6.0789721491e+00 +5.3856184943e+01 5.5608139065e+01 1.7770000000e+00 0.0000e+00 1.0000e+00
       15  1    1    2    0    0 -1.5028568369e+00 +3.3186546956e+00 -2.7090621898e+00 4.8753250772e+00 1.7770000000e+00 0.0000e+00 -1.0000e+00
</event>
<event>
 6 1 7.08916e-05 5.01196700e+02 7.54677100e-03 9.39713600e-02
      -11 -1    0    0    0    0 +0.0000000000e+00 +0.0000000000e+00 +5.0000000000e+02 5.0000000000e+02 0.0000000000e+00 0.0000e+00 -1.0000e+00
       11 -1    0    0    0    0 -0.0000000000e+00 -0.0000000000e+00 -5.0000000000e+02 5.0000000000e+02 0.0000000000e+00 0.0000e+00 -1.0000e+00
      -11  1    1    2    0    0 +6.3170571932e+00 +1.5088024464e+00 +4.4801054550e+02 4.4805761971e+02 0.0000000000e+00 0.0000e+00 -1.0000e+00
       11  1    1    2    0    0 -3.3885077813e-01 +1.1877543919e+01 -4.9866173157e+02 4.9880328127e+02 0.0000000000e+00 0.0000e+00 -1.0000e+00
      -15  1    1    2    0    0 -5.1739570047e+00 -1.2270507714e+01 +4.6695009215e+01 4.8589266358e+01 1.7770000000e+00 0.0000e+00 -1.0000e+00
       15  1    1    2    0    0 -8.0424941038e-01 -1.1158386508e+00 +3.9561768520e+00 4.5498326664e+00 1.7770000000e+00 0.0000e+00 -1.0000e+00
</event>
<event>
 6 1 7.08916e-05 5.01680000e+02 7.54677100e-03 9.39605800e-02
      -11 -1    0    0    0    0 +0.0000000000e+00 +0.0000000000e+00 +5.0000000000e+02 5.0000000000e+02 0.0000000000e+00 0.0000e+00 -1.0000e+00
       11 -1    0    0    0    0 -0.0000000000e+00 -0.0000000000e+00 -5.0000000000e+02 5.0000000000e+02 0.0000000000e+00 0.0000e+00 1.0000e+00
      -11  1    1    2    0    0 +1.1238336459e+01 -7.8596559998e+00 +4.9813120935e+02 4.9831995357e+02 0.0000000000e+00 0.0000e+00 -1.0000e+00
       11  1    1    2    0    0 -9.4016982420e+00 -5.4970944664e+00 -4.6411006444e+02 4.6423782902e+02 0.0000000000e+00 0.0000e+00 1.0000e+00
      -15  1    1    2    0    0 -2.3163007193e+00 +7.5387449566e+00 -1.1158713052e+01 1.3779424172e+01 1.7770000000e+00 0.0000e+00 1.0000e+00
       15  1    1    2    0    0 +4.7966250256e-01 +5.8180055096e+00 -2.2862431862e+01 2.3662793239e+01 1.7770000000e+00 0.0000e+00 -1.0000e+00
</event>
<event>
 6 1 7.08916e-05 5.00863600e+02 7.54677100e-03 9.39788000e-02
      -11 -1    0    0    0    0 +0.0000000000e+00 +0.0000000000e+00 +5.0000000000e+02 5.0000000000e+02 0.0000000000e+00 0.0000e+00 1.0000e+00
       11 -1    0    0    0    0 -0.0000000000e+00 -0.0000000000e+00 -5.0000000000e+02 5.0000000000e+02 0.0000000000e+00 0.0000e+00 -1.0000e+00
      -11  1    1    2    0    0 -1.2869957451e+01 -1.6186440114e+01 +4.9870788864e+02 4.9913644912e+02 0.0000000000e+00 0.0000e+00 1.0000e+00
       11  1    1    2    0    0 +9.5817285826e+00 +1.3459527196e+01 -6.7286547702e+01 6.9285264643e+01 0.0000000000e+00 0.0000e+00 -1.0000e+00
      -15  1    1    2    0    0 +5.4297963956e+00 +3.3422465507e+00 -3.9124462226e+02 3.9130060756e+02 1.7770000000e+00 0.0000e+00 -1.0000e+00
       15  1    1    2    0    0 -2.1415675277e+00 -6.1533363279e-01 -4.0176718675e+01 4.0277678675e+01 1.7770000000e+00 0.0000e+00 1.0000e+00
</event>
<event>
 6 1 7.08916e-05 4.82503200e+02 7.54677100e-03 9.43983400e-02
      -11 -1    0    0    0    0 +0.0000000000e+00 +0.0000000000e+00 +5.0000000000e+02 5.0000000000e+02 0.0000000000e+00 0.0000e+00 -1.0000e+00
       11 -1    0    0    0    0 -0.0000000000e+00 -0.0000000000e+00 -5.0000000000e+02 5.0000000000e+02 0.0000000000e+00 0.0000e+00 -1.0000e+00
      -11  1    1    2    0    0 +6.4548448314e+00 -4.6228928180e+00 +4.8621852986e+02 4.8628334841e+02 0.0000000000e+00 0.0000e+00 -1.0000e+00
       11  1    1    2    0    0 +6.9317323151e+00 +7.4263349498e+00 -4.7874111460e+02 4.7884888449e+02 0.0000000000e+00 0.0000e+00 -1.0000e+00
      -15  1    1    2    0    0 -1.6836783288e+01 +4.9917651589e+00 +6.1535779819e+00 1.8692759076e+01 1.7770000000e+00 0.0000e+00 1.0000e+00
       15  1    1    2    0    0 +3.4502061411e+00 -7.7952072907e+00 -1.3630993240e+01 1.6175008032e+01 1.7770000000e+00 0.0000e+00 -1.0000e+00
</event>
<event>
 6 1 7.08916e-05 4.78065800e+02 7.54677100e-03 9.45027300e-02
      -11 -1    0    0    0    0 +0.0000000000e+00 +0.0000000000e+00 +5.0000000000e+02 5.0000000000e+02 0.0000000000e+00 0.0000e+00 1.0000e+00
       11 -1    0    0    0    0 -0.0000000000e+00 -0.0000000000e+00 -5.0000000000e+02 5.0000000000e+02 0.0000000000e+00 0.0000e+00 -1.0000e+00
      -11  1    1    2    0    0 -7.2137757990e+00 -9.5032451083e+00 +4.7411312967e+02 4.7426322855e+02 0.0000000000e+00 0.0000e+00 1.0000e+00
       11  1    1    2    0    0 +6.1089030836e+00 -2.4208930577e+01 -4.8184789502e+02 4.8249433670e+02 0.0000000000e+00 0.0000e+00 -1.0000e+00
      -15  1    1    2    0    0 -3.2043684007e+00 +3.4092060968e+00 +1.1317206365e+01 1.2374471786e+01 1.7770000000e+00 0.0000e+00 -1.0000e+00
       15  1    1    2    0    0 +4.3092411161e+00 +3.0302969589e+01 -3.5824410155e+00 3.0867962964e+01 1.7770000000e+00 0.0000e+00 1.0000e+00
</event>
<event>
 6 1 7.08916e-05 5.03446500e+02 7.54677100e-03 9.39213100e-02
      -11 -1    0    0    0    0 +0.0000000000e+00 +0.0000000000e+00 +5.0000000000e+02 5.0000000000e+02 0.0000000000e+00 0.0000e+00 1.0000e+00
       11 -1    0    0    0    0 -0.0000000000e+00 -0.0000000000e+00 -5.0000000000e+02 5.0000000000e+02 0.0000000000e+00 0.0000e+00 1.0000e+00
      -11  1    1    2    0    0 -5.9753064441e+00 +1.8347781554e-01 +4.3746934879e+02 4.3751019312e+02 0.0000000000e+00 0.0000e+00 1.0000e+00
       11  1    1    2    0    0 +3.8976547135e+00 -5.6728482259e+00 -4.9650583395e+02 4.9655353797e+02 0.0000000000e+00 0.0000e+00 1.0000e+00
      -15  1    1    2    0    0 +7.2172102460e+00 +5.8162259368e+00 +5.9706039231e+01 6.0447377590e+01 1.7770000000e+00 0.0000e+00 -1.0000e+00
       15  1    1    2    0    0 -5.1395585154e+00 -3.2685552644e-01 -6.6955407319e-01 5.4888913202e+00 1.7770000000e+00 0.0000e+00 1.0000e+00
</event>
<event>
 6 1 7.08916e-05 5.04247400e+02 7.54677100e-03 9.39035600e-02
      -11 -1    0    0    0    0 +0.0000000000e+00 +0.0000000000e+00 +5.0000000000e+02 5.0000000000e+02 0.0000000000e+00 0.0000e+00 -1.0000e+00
       11 -1    0    0    0    0 -0.0000000000e+00 -0.0000000000e+00 -5.0000000000e+02 5.0000000000e+02 0.0000000000e+00 0.0000e+00 -1.0000e+00
      -11  1    1    2    0    0 -1.1015704442e+01 +5.3137394141e+00 +3.1665141849e+02 3.1688752327e+02 0.0000000000e+00 0.0000e+00 -1.0000e+00
       11  1    1    2    0    0 -2.7455653314e+01 +1.4865221038e+01 -4.9476845939e+02 4.9575257549e+02 0.0000000000e+00 0.0000e+00 -1.0000e+00
      -15  1    1    2    0    0 +4.4769679187e+01 -1.2581900448e+01 +1.6025886714e+02 1.6687926959e+02 1.7770000000e+00 0.0000e+00 -1.0000e+00
       15  1    1    2    0    0 -6.2983214310e+00 -7.5970600043e+00 +1.7858173763e+01 2.0480631648e+01 1.7770000000e+00 0.0000e+00 1.0000e+00
</event>
<event>
 6 1 7.08916e-05 5.02449400e+02 7.54677100e-03 9.39434600e-02
      -11 -1    0    0    0    0 +0.0000000000e+00 +0.0000000000e+00 +5.0000000000e+02 5.0000000000e+02 0.0000000000e+00 0.0000e+00 -1.0000e+00
       11 -1    0    0    0    0 -0.0000000000e+00 -0.0000000000e+00 -5.0000000000e+02 5.0000000000e+02 0.0000000000e+00 0.0000e+00 1.0000e+00
      -11  1    1    2    0    0 -2.7194095863e+00 +6.0042437943e+00 +4.5719047731e+02 4.5723798910e+02 0.0000000000e+00 0.0000e+00 -1.0000e+00
       11  1    1    2    0    0 -5.2567467579e+00 -4.7864715560e+00 -4.9749982017e+02 4.9755061528e+02 0.0000000000e+00 0.0000e+00 1.0000e+00
      -15  1    1    2    0    0 +3.9198494844e+00 +3.4207566482e+00 +1.2616694850e+00 5.6405970354e+00 1.7770000000e+00 0.0000e+00 1.0000e+00
       15  1    1    2    0    0 +4.0563068598e+00 -4.6385288865e+00 +3.9047673372e+01 3.9570798581e+01 1.7770000000e+00 0.0000e+00 -1.0000e+00
</event>
<event>
 6 1 7.08916e-05 4.75014500e+02 7.54677100e-03 9.45752000e-02
      -11 -1    0    0    0    0 +0.0000000000e+00 +0.0000000000e+00 +5.0000000000e+02 5.0000000000e+02 0.0000000000e+00 0.0000e+00 -1.0000e+00
       11 -1    0    0    0    0 -0.0000000000e+00 -0.0000000000e+00 -5.0000000000e+02 5.0000000000e+02 0.0000000000e+00 0.0000e+00 1.0000e+00
      -11  1    1    2    0    0 -7.5530591617e+00 +1.8290475880e+00 +4.8407141012e+02 4.8413378752e+02 0.0000000000e+00 0.0000e+00 -1.0000e+00
       11  1    1    2    0    0 -2.5193962638e+01 -2.4556347142e+01 -4.6558341183e+02 4.6691076590e+02 0.0000000000e+00 0.0000e+00 1.0000e+00
      -15  1    1    2    0    0 +1.2043230176e+00 -3.6094746715e+00 -1.6885546018e+00 4.5263282004e+00 1.7770000000e+00 0.0000e+00 -1.0000e+00
       15  1    1    2    0    0 +3.1542698782e+01 +2.6336774225e+01 -1.6799443690e+01 4.4429118384e+01 1.7770000000e+00 0.0000e+00 1.0000e+00
</event>
<event>
 6 1 7.08916e-05 5.00132500e+02 7.54677100e-03 9.39951300e-02
      -11 -1    0    0    0    0 +0.0000000000e+00 +0.0000000000e+00 +5.0000000000e+02 5.0000000000e+02 0.0000000000e+00 0.0000e+00 -1.0000e+00
       11 -1    0    0    0    0 -0.0000000000e+00 -0.0000000000e+00 -5.0000000000e+02 5.0000000000e+02 0.0000000000e+00 0.0000e+00 1.0000e+00
      -11  1    1    2    0    0 +3.4078791152e+00 -3.7635011810e+00 +2.8781474299e+02 2.8785952106e+02 0.0000000000e+00 0.0000e+00 -1.0000e+00
       11  1    1    2    0    0 +1.1914713819e+00 +1.1575260192e+01 -4.9973199751e+02 4.9986745802e+02 0.0000000000e+00 0.0000e+00 1.0000e+00
      -15  1    1    2    0    0 -4.6330661658e+00 -8.9035639357e+00 +1.7339994259e+02 1.7369927050e+02 1.7770000000e+00 0.0000e+00 -1.0000e+00
       15  1    1    2    0    0 +3.3715668749e-02 +1.0918049248e+00 +3.8517311925e+01 3.8573750423e+01 1.7770000000e+00 0.0000e+00 -1.0000e+00
</event>
<event>
 6 1 7.08916e-05 5.01175300e+02 7.54677100e-03 9.39718400e-02
      -11 -1    0    0    0    0 +0.0000000000e+00 +0.0000000000e+00 +5.0000000000e+02 5.0000000000e+02 0.0000000000e+00 0.0000e+00 1.0000e+00
       11 -1    0    0    0    0 -0.0000000000e+00 -0.0000000000e+00 -5.0000000000e+02 5.0000000000e+02 0.0000000000e+00 0.0000e+00 -1.0000e+00
      -11  1    1    2    0    0 +8.4498488494e+00 -4.7599695374e+00 +4.9873043635e+02 4.9882472412e+02 0.0000000000e+00 0.0000e+00 1.0000e+00
       11  1    1    2    0    0 +3.9958697709e+00 +5.0315021050e+00 -8.6264519216e+00 1.0756331225e+01 0.0000000000e+00 0.0000e+00 -1.0000e+00
      -15  1    1    2    0    0 -1.5352722574e+00 -4.9067871675e+00 -1.2515686984e+02 1.2527503110e+02 1.7770000000e+00 0.0000e+00 -1.0000e+00
       15  1    1    2    0    0 -1.0910446363e+01 +4.6352545999e+00 -3.6494711459e+02 3.6514391355e+02 1.7770000000e+00 0.0000e+00 1.0000e+00
</event>
<event>
 6 1 7.08916e-05 5.01858500e+02 7.54677100e-03 9.39566100e-02
      -11 -1    0    0    0    0 +0.0000000000e+00 +0.0000000000e+00 +5.0000000000e+02 5.0000000000e+02 0.0000000000e+00 0.0000e+00 1.0000e+00
       11 -1    0    0    0    0 -0.0000000000e+00 -0.0000000000e+00 -5.0000000000e+02 5.0000000000e+02 0.0000000000e+00 0.0000e+00 -1.0000e+00
      -11  1    1    2    0    0 -1.3503735210e+01 +9.4313206618e+00 +4.9786916124e+02 4.9814154855e+02 0.0000000000e+00 0.0000e+00 1.0000e+00
       11  1    1    2    0    0 -1.0543627113e+00 +1.4746192096e+00 -7.0109125138e+01 7.0132557420e+01 0.0000000000e+00 0.0000e+00 -1.0000e+00
      -15  1    1    2    0    0 +3.8844193859e+00 -1.2878569798e+01 -2.2209632768e+01 2.6026367221e+01 1.7770000000e+00 0.0000e+00 1.0000e+00
       15  1    1    2    0    0 +1.0673678536e+01 +1.9726299270e+00 -4.0555040333e+02 4.0569952681e+02 1.7770000000e+00 0.0000e+00 -1.0000e+00
</event>
<event>
 6 1 7.08916e-05 5.02106900e+02 7.54677100e-03 9.39510800e-02
      -11 -1    0    0    0    0 +0.0000000000e+00 +0.0000000000e+00 +5.0000000000e+02 5.0000000000e+02 0.0000000000e+00 0.0000e+00 -1.0000e+00
       11 -1    0    0    0    0 -0.0000000000e+00 -0.0000000000e+00 -5.0000000000e+02 5.0000000000e+02 0.0000000000e+00 0.0000e+00 1.0000e+00
      -11  1    1    2    0    0 +2.4753003225e+00 -1.1077449518e+01 +4.2977248621e+02 4.2992234985e+02 0.0000000000e+00 0.0000e+00 -1.0000e+00
       11  1    1    2    0    0 -8.9760003272e+00 -1.0733037764e+01 -4.9769644513e+02 4.9789307906e+02 0.0000000000e+00 0.0000e+00 1.0000e+00
      -15  1    1    2    0    0 +1.3172308120e+00 +1.1583314396e+01 +4.4619262798e+01 4.6151322961e+01 1.7770000000e+00 0.0000e+00 -1.0000e+00
       15  1    1    2    0    0 +5.1834691927e+00 +1.0227172887e+01 +2.3304696120e+01 2.6033248133e+01 1.7770000000e+00 0.0000e+00 1.0000e+00
</event>
<event>
 6 1 7.08916e-05 4.96052300e+02 7.54677100e-03 9.40868600e-02
      -11 -1    0    0    0    0 +0.0000000000e+00 +0.0000000000e+00 +5.0000000000e+02 5.0000000000e+02 0.0000000000e+00 0.0000e+00 1.0000e+00
       11 -1    0    0    0    0 -0.0000000000e+00 -0.0000000000e+00 -5.0000000000e+02 5.0000000000e+02 0.0000000000e+00 0.0000e+00 1.0000e+00
      -11  1    1    2    0    0 -6.2005733095e+00 +1.2360182342e+00 +2.2379036466e+01 2.3255023620e+01 0.0000000000e+00 0.0000e+00 1.0000e+00
       11  1    1    2    0    0 +1.2153126960e+01 +9.2277391230e+01 -4.8239562936e+02 4.9129253878e+02 0.0000000000e+00 0.0000e+00 1.0000e+00
      -15  1    1    2    0    0 -9.7127628871e+00 -8.2446720143e+01 +1.2403942475e+02 1.4926733081e+02 1.7770000000e+00 0.0000e+00 -1.0000e+00
       15  1    1    2    0    0 +3.7602092370e+00 -1.1066689321e+01 +3.3597716815e+02 3.3618510679e+02 1.7770000000e+00 0.0000e+00 1.0000e+00
</event>
<event>
 6 1 7.08916e-05 5.00581900e+02 7.54677100e-03 9.39850900e-02
      -11 -1    0    0    0    0 +0.0000000000e+00 +0.0000000000e+00 +5.0000000000e+02 5.0000000000e+02 0.0000000000e+00 0.0000e+00 1.0000e+00
       11 -1    0    0    0    0 -0.0000000000e+00 -0.0000000000e+00 -5.0000000000e+02 5.0000000000e+02 0.0000000000e+00 0.0000e+00 -1.0000e+00
      -11  1    1    2    0    0 +9.8305805826e+00 -2.1418058924e+00 +3.3609784289e+02 3.3624840169e+02 0.0000000000e+00 0.0000e+00 1.0000e+00
       11  1    1    2    0    0 +1.3237821703e+00 -8.7234745012e+00 -4.9934013373e+02 4.9941808194e+02 0.0000000000e+00 0.0000e+00 -1.0000e+00
      -15  1    1    2    0    0 +3.6143199570e-01 +3.5086140574e+00 +6.6200111191e+01 6.6317821559e+01 1.7770000000e+00 0.0000e+00 1.0000e+00
       15  1    1    2    0    0 -1.1515794749e+01 +7.3566663363e+00 +9.7042179656e+01 9.8015694813e+01 1.7770000000e+00 0.0000e+00 -1.0000e+00
</event>
<event>
 6 1 7.08916e-05 5.00192600e+02 7.54677100e-03 9.39937900e-02
      -11 -1    0    0    0    0 +0.0000000000e+00 +0.0000000000e+00 +5.0000000000e+02 5.0000000000e+02 0.0000000000e+00 0.0000e+00 -1.0000e+00
       11 -1    0    0    0    0 -0.0000000000e+00 -0.0000000000e+00 -5.0000000000e+02 5.0000000000e+02 0.0000000000e+00 0.0000e+00 -1.0000e+00
      -11  1    1    2    0    0 +2.6291554757e+00 +1.3518911776e+01 +4.9961763977e+02 4.9980742232e+02 0.0000000000e+00 0.0000e+00 -1.0000e+00
       11  1    1    2    0    0 -3.6502868504e+00 +3.7573246011e+00 -1.7034774289e+02 1.7042827110e+02 0.0000000000e+00 0.0000e+00 -1.0000e+00
      -15  1    1    2    0    0 +1.8315369386e+00 -4.9341616361e+00 -1.0200240091e+02 1.0215355108e+02 1.7770000000e+00 0.0000e+00 1.0000e+00
       15  1    1    2    0    0 -8.1040556382e-01 -1.2342074741e+01 -2.2726749597e+02 2.2761075550e+02 1.7770000000e+00 0.0000e+00 -1.0000e+00
</event>
<event>
 6 1 7.08916e-05 5.21644500e+02 7.54677100e-03 9.35264000e-02
      -11 -1    0    0    0    0 +0.0000000000e+00 +0.0000000000e+00 +5.0000000000e+02 5.0000000000e+02 0.0000000000e+00 0.0000e+00 -1.0000e+00
       11 -1    0    0    0    0 -0.0000000000e+00 -0.0000000000e+00 -5.0000000000e+02 5.0000000000e+02 0.0000000000e+00 0.0000e+00 1.0000e+00
      -11  1    1    2    0    0 -9.3989412690e+01 -3.7328953202e+01 +7.3359579746e+01 1.2493633733e+02 0.0000000000e+00 0.0000e+00 -1.0000e+00
       11  1    1    2    0    0 +5.6757719566e+01 +1.2452842385e+02 -4.5836148676e+02 4.7835553684e+02 0.0000000000e+00 0.0000e+00 1.0000e+00
      -15  1    1    2    0    0 +2.3303023466e+00 -5.7997808841e+00 +3.9490589804e+01 4.0021646385e+01 1.7770000000e+00 0.0000e+00 1.0000e+00
       15  1    1    2    0    0 +3.4901390777e+01 -8.1399689767e+01 +3.4551131721e+02 3.5668647945e+02 1.7770000000e+00 0.0000e+00 -1.0000e+00
</event>
<event>
 7 1 7.08916e-05 5.32732600e+02 7.54677100e-03 9.32940700e-02
      -11 -1    0    0    0    0 +0.0000000000e+00 +0.0000000000e+00 +5.0000000000e+02 5.0000000000e+02 0.0000000000e+00 0.0000e+00 -1.0000e+00
       11 -1    0    0    0    0 -0.0000000000e+00 -0.0000000000e+00 -5.0000000000e+02 5.0000000000e+02 0.0000000000e+00 0.0000e+00 -1.0000e+00
       23  2    1    2    0    0 -2.1751136552e+01 -2.1862736960e+01 +4.2395311841e+01 1.0804262872e+02 9.4470926458e+01 0.0000e+00 0.0000e+00
      -11  1    1    2    0    0 +2.3266280069e+00 +1.5017112886e+01 +4.2441799336e+02 4.2468995746e+02 0.0000000000e+00 0.0000e+00 -1.0000e+00
       11  1    1    2    0    0 +1.9424508546e+01 +6.8456240740e+00 -4.6681330520e+02 4.6726741382e+02 0.0000000000e+00 0.0000e+00 -1.0000e+00
      -15  1    3    3    0    0 -1.5627501425e+01 -2.7287738406e+01 +7.1301745182e+01 7.7948290957e+01 1.7770000000e+00 0.0000e+00 -1.0000e+00
       15  1    3    3    0    0 -6.1236351277e+00 +5.4250014458e+00 -2.8906433341e+01 3.0094337763e+01 1.7770000000e+00 0.0000e+00 1.0000e+00
</event>
<event>
 6 1 7.08916e-05 5.04452200e+02 7.54677100e-03 9.38990200e-02
      -11 -1    0    0    0    0 +0.0000000000e+00 +0.0000000000e+00 +5.0000000000e+02 5.0000000000e+02 0.0000000000e+00 0.0000e+00 -1.0000e+00
       11 -1    0    0    0    0 -0.0000000000e+00 -0.0000000000e+00 -5.0000000000e+02 5.0000000000e+02 0.0000000000e+00 0.0000e+00 -1.0000e+00
      -11  1    1    2    0    0 +9.3297225202e+00 +2.8717237684e+00 +4.9545166928e+02 4.9554782525e+02 0.0000000000e+00 0.0000e+00 -1.0000e+00
       11  1    1    2    0    0 +1.9149419038e+00 -1.0803590505e+01 -4.8659201379e+02 4.8671569983e+02 0.0000000000e+00 0.0000e+00 -1.0000e+00
      -15  1    1    2    0    0 -4.3251063719e+00 +6.3404626075e-01 -4.8450022000e+00 6.7631601421e+00 1.7770000000e+00 0.0000e+00 -1.0000e+00
       15  1    1    2    0    0 -6.9195580520e+00 +7.2978204763e+00 -4.0146532829e+00 1.0973314783e+01 1.7770000000e+00 0.0000e+00 1.0000e+00
</event>
<event>
 6 1 7.08916e-05 5.02391500e+02 7.54677100e-03 9.39447400e-02
      -11 -1    0    0    0    0 +0.0000000000e+00 +0.0000000000e+00 +5.0000000000e+02 5.0000000000e+02 0.0000000000e+00 0.0000e+00 -1.0000e+00
       11 -1    0    0    0    0 -0.0000000000e+00 -0.0000000000e+00 -5.0000000000e+02 5.0000000000e+02 0.0000000000e+00 0.0000e+00 1.0000e+00
      -11  1    1    2    0    0 -8.2940574434e+00 +5.6487175096e+00 +4.9750728822e+02 4.9760848187e+02 0.0000000000e+00 0.0000e+00 -1.0000e+00
       11  1    1    2    0    0 +3.5605563367e+00 +7.8266181723e+00 -4.7124324504e+02 4.7132168368e+02 0.0000000000e+00 0.0000e+00 1.0000e+00
      -15  1    1    2    0    0 +6.2148576923e+00 -9.5129294964e+00 -1.4959998380e+01 1.8870070595e+01 1.7770000000e+00 0.0000e+00 1.0000e+00
       15  1    1    2    0    0 -1.4813565856e+00 -3.9624061855e+00 -1.1304044802e+01 1.2199763850e+01 1.7770000000e+00 0.0000e+00 -1.0000e+00
</event>
<event>
 6 1 7.08916e-05 5.01535600e+02 7.54677100e-03 9.39638000e-02
      -11 -1    0    0    0    0 +0.0000000000e+00 +0.0000000000e+00 +5.0000000000e+02 5.0000000000e+02 0.0000000000e+00 0.0000e+00 -1.0000e+00
       11 -1    0    0    0    0 -0.0000000000e+00 -0.0000000000e+00 -5.0000000000e+02 5.0000000000e+02 0.0000000000e+00 0.0000e+00 1.0000e+00
      -11  1    1    2    0    0 -1.6195817950e+00 -8.3029437050e+00 +4.3587400762e+02 4.3595609004e+02 0.0000000000e+00 0.0000e+00 -1.0000e+00
       11  1    1    2    0    0 +2.5627349880e-01 +6.9959530933e+00 -4.9841526858e+02 4.9846443102e+02 0.0000000000e+00 0.0000e+00 1.0000e+00
      -15  1    1    2    0    0 +2.9736201071e+00 +3.9559739757e+00 +6.1680247194e+01 6.1903980240e+01 1.7770000000e+00 0.0000e+00 -1.0000e+00
       15  1    1    2    0    0 -1.6103118108e+00 -2.6489833639e+00 +8.6101376857e-01 3.6754987009e+00 1.7770000000e+00 0.0000e+00 1.0000e+00
</event>
<event>
 7 1 7.08916e-05 4.55097200e+02 7.54677100e-03 9.50629900e-02
      -11 -1    0    0    0    0 +0.0000000000e+00 +0.0000000000e+00 +5.0000000000e+02 5.0000000000e+02 0.0000000000e+00 0.0000e+00 -1.0000e+00
       11 -1    0    0    0    0 -0.0000000000e+00 -0.0000000000e+00 -5.0000000000e+02 5.0000000000e+02 0.0000000000e+00 0.0000e+00 -1.0000e+00
       23  2    1    2    0    0 +3.2999915803e+01 -3.2235936235e+01 +3.2159240435e+01 8.8070078348e+01 6.7778845719e+01 0.0000e+00 0.0000e+00
      -11  1    1    2    0    0 -3.9762745605e+01 +3.0072250064e+01 +4.3844593648e+02 4.4127118122e+02 0.0000000000e+00 0.0000e+00 -1.0000e+00
       11  1    1    2    0    0 +6.7628298019e+00 +2.1636861705e+00 -4.7060517691e+02 4.7065874043e+02 0.0000000000e+00 0.0000e+00 -1.0000e+00
      -15  1    3    3    0    0 +4.3054558440e+01 -4.1317639702e+01 +4.0426176066e+01 7.2099069296e+01 1.7770000000e+00 0.0000e+00 1.0000e+00
       15  1    3    3    0    0 -1.0054642637e+01 +9.0817034665e+00 -8.2669356312e+00 1.5971009052e+01 1.7770000000e+00 0.0000e+00 -1.0000e+00
</event>
<event>
 6 1 7.08916e-05 5.30898100e+02 7.54677100e-03 9.33320900e-02
      -11 -1    0    0    0    0 +0.0000000000e+00 +0.0000000000e+00 +5.0000000000e+02 5.0000000000e+02 0.0000000000e+00 0.0000e+00 -1.0000e+00
       11 -1    0    0    0    0 -0.0000000000e+00 -0.0000000000e+00 -5.0000000000e+02 5.0000000000e+02 0.0000000000e+00 0.0000e+00 -1.0000e+00
      -11  1    1    2    0    0 +8.7688050440e+01 -1.0167420691e+02 +4.4947719332e+02 4.6910189283e+02 0.0000000000e+00 0.0000e+00 -1.0000e+00
       11  1    1    2    0    0 -3.1754134366e+00 -1.3937203304e+00 -2.4607611387e+02 2.4610054759e+02 0.0000000000e+00 0.0000e+00 -1.0000e+00
      -15  1    1    2    0    0 -8.4940982814e+01 +9.6609060656e+01 -6.1250912847e+01 1.4248899331e+02 1.7770000000e+00 0.0000e+00 -1.0000e+00
       15  1    1    2    0    0 +4.2834581041e-01 +6.4588665890e+00 -1.4215016660e+02 1.4230856627e+02 1.7770000000e+00 0.0000e+00 1.0000e+00
</event>
<event>
 6 1 7.08916e-05 5.00225800e+02 7.54677100e-03 9.39930500e-02
      -11 -1    0    0    0    0 +0.0000000000e+00 +0.0000000000e+00 +5.0000000000e+02 5.0000000000e+02 0.0000000000e+00 0.0000e+00 1.0000e+00
       11 -1    0    0    0    0 -0.0000000000e+00 -0.0000000000e+00 -5.0000000000e+02 5.0000000000e+02 0.0000000000e+00 0.0000e+00 -1.0000e+00
      -11  1    1    2    0    0 -6.2964857701e+00 +2.2433836501e+01 +4.9923074551e+02 4.9977420904e+02 0.0000000000e+00 0.0000e+00 1.0000e+00
       11  1    1    2    0    0 -2.2313835066e+00 +1.6950105644e+00 -6.3369892973e+01 6.3431817478e+01 0.0000000000e+00 0.0000e+00 -1.0000e+00
      -15  1    1    2    0    0 +8.3386018592e-01 -1.2811975156e+01 -1.3614118531e+02 1.3675679909e+02 1.7770000000e+00 0.0000e+00 -1.0000e+00
       15  1    1    2    0    0 +7.6940090908e+00 -1.1316871909e+01 -2.9971966723e+02 3.0003717439e+02 1.7770000000e+00 0.0000e+00 1.0000e+00
</event>
<event>
 6 1 7.08916e-05 5.01573400e+02 7.54677100e-03 9.39629600e-02
      -11 -1    0    0    0    0 +0.0000000000e+00 +0.0000000000e+00 +5.0000000000e+02 5.0000000000e+02 0.0000000000e+00 0.0000e+00 -1.0000e+00
       11 -1    0    0    0    0 -0.0000000000e+00 -0.0000000000e+00 -5.0000000000e+02 5.0000000000e+02 0.0000000000e+00 0.0000e+00 -1.0000e+00
      -11  1    1    2    0    0 +8.2540491117e+00 +3.8985973913e+00 +4.9834302298e+02 4.9842662142e+02 0.0000000000e+00 0.0000e+00 -1.0000e+00
       11  1    1    2    0    0 +2.0662010156e+01 -7.1486017124e+00 -2.5785596487e+02 2.5878121993e+02 0.0000000000e+00 0.0000e+00 -1.0000e+00
      -15  1    1    2    0    0 -3.9006916693e+00 -1.4028164003e+00 -1.0952069878e+01 1.1844359542e+01 1.7770000000e+00 0.0000e+00 1.0000e+00
       15  1    1    2    0    0 -2.5015367599e+01 +4.6528207214e+00 -2.2953498824e+02 2.3094779910e+02 1.7770000000e+00 0.0000e+00 -1.0000e+00
</event>
<event>
 6 1 7.08916e-05 5.01237800e+02 7.54677100e-03 9.39704400e-02
      -11 -1    0    0    0    0 +0.0000000000e+00 +0.0000000000e+00 +5.0000000000e+02 5.0000000000e+02 0.0000000000e+00 0.0000e+00 1.0000e+00
       11 -1    0    0    0    0 -0.0000000000e+00 -0.0000000000e+00 -5.0000000000e+02 5.0000000000e+02 0.0000000000e+00 0.0000e+00 1.0000e+00
      -11  1    1    2    0    0 -8.3767125856e+00 +4.6910585664e-01 +4.9869167035e+02 4.9876223940e+02 0.0000000000e+00 0.0000e+00 1.0000e+00
       11  1    1    2    0    0 +1.1129971846e+01 -9.5325922470e+00 -2.9953801605e+02 2.9989626481e+02 0.0000000000e+00 0.0000e+00 1.0000e+00
      -15  1    1    2    0    0 +2.1095766768e+00 -8.4055322394e+00 -1.0940377323e+02 1.0976086102e+02 1.7770000000e+00 0.0000e+00 -1.0000e+00
       15  1    1    2    0    0 -4.8628359373e+00 +1.7469018630e+01 -8.9749881067e+01 9.1580634775e+01 1.7770000000e+00 0.0000e+00 1.0000e+00
</event>
<event>
 6 1 7.08916e-05 5.02645200e+02 7.54677100e-03 9.39391000e-02
      -11 -1    0    0    0    0 +0.0000000000e+00 +0.0000000000e+00 +5.0000000000e+02 5.0000000000e+02 0.0000000000e+00 0.0000e+00 1.0000e+00
       11 -1    0    0    0    0 -0.0000000000e+00 -0.0000000000e+00 -5.0000000000e+02 5.0000000000e+02 0.0000000000e+00 0.0000e+00 -1.0000e+00
      -11  1    1    2    0    0 +1.0811691349e+01 -1.5776143130e+01 +2.5152317121e+02 2.5224925176e+02 0.0000000000e+00 0.0000e+00 1.0000e+00
       11  1    1    2    0    0 +2.0563115672e+00 +9.6935178024e+00 -4.9725604326e+02 4.9735476801e+02 0.0000000000e+00 0.0000e+00 -1.0000e+00
      -15  1    1    2    0    0 +1.3105719555e+01 -3.4958518883e+00 +1.5280011719e+02 1.5341125906e+02 1.7770000000e+00 0.0000e+00 1.0000e+00
       15  1    1    2    0    0 -2.5973722472e+01 +9.5784772157e+00 +9.2932754859e+01 9.6984721166e+01 1.7770000000e+00 0.0000e+00 -1.0000e+00
</event>
<event>
 6 1 7.08916e-05 5.00040200e+02 7.54677100e-03 9.39972000e-02
      -11 -1    0    0    0    0 +0.0000000000e+00 +0.0000000000e+00 +5.0000000000e+02 5.0000000000e+02 0.0000000000e+00 0.0000e+00 -1.0000e+00
       11 -1    0    0    0    0 -0.0000000000e+00 -0.0000000000e+00 -5.0000000000e+02 5.0000000000e+02 0.0000000000e+00 0.0000e+00 1.0000e+00
      -11  1    1    2    0    0 +3.6502262822e+00 +8.0995888120e+00 +4.9988082222e+02 4.9995976230e+02 0.0000000000e+00 0.0000e+00 -1.0000e+00
       11  1    1    2    0    0 -3.4948336543e+00 -2.9454752567e-01 -1.1488107849e+02 1.1493460234e+02 0.0000000000e+00 0.0000e+00 1.0000e+00
      -15  1    1    2    0    0 -8.9841094951e-01 -3.4365953511e+00 -1.2818093431e+02 1.2824245389e+02 1.7770000000e+00 0.0000e+00 -1.0000e+00
       15  1    1    2    0    0 +7.4301832159e-01 -4.3684459353e+00 -2.5681880942e+02 2.5686318148e+02 1.7770000000e+00 0.0000e+00 1.0000e+00
</event>
<event>
 6 1 7.08916e-05 5.05065600e+02 7.54677100e-03 9.38854600e-02
      -11 -1    0    0    0    0 +0.0000000000e+00 +0.0000000000e+00 +5.0000000000e+02 5.0000000000e+02 0.0000000000e+00 0.0000e+00 -1.0000e+00
       11 -1    0    0    0    0 -0.0000000000e+00 -0.0000000000e+00 -5.0000000000e+02 5.0000000000e+02 0.0000000000e+00 0.0000e+00 -1.0000e+00
      -11  1    1    2    0    0 -1.3748617473e+01 +6.1994810727e+00 +4.9470454154e+02 4.9493438097e+02 0.0000000000e+00 0.0000e+00 -1.0000e+00
       11  1    1    2    0    0 -4.7204422423e+00 +1.5934639560e+01 -3.4028614050e+02 3.4069172683e+02 0.0000000000e+00 0.0000e+00 -1.0000e+00
      -15  1    1    2    0    0 +1.3689856427e+01 -1.5029076877e+01 -1.5428381423e+02 1.5562756305e+02 1.7770000000e+00 0.0000e+00 -1.0000e+00
       15  1    1    2    0    0 +4.7792032885e+00 -7.1050437550e+00 -1.3458681409e-01 8.7463291411e+00 1.7770000000e+00 0.0000e+00 1.0000e+00
</event>
<event>
 6 1 7.08916e-05 5.25457700e+02 7.54677100e-03 9.34458100e-02
      -11 -1    0    0    0    0 +0.0000000000e+00 +0.0000000000e+00 +5.0000000000e+02 5.0000000000e+02 0.0000000000e+00 0.0000e+00 -1.0000e+00
       11 -1    0    0    0    0 -0.0000000000e+00 -0.0000000000e+00 -5.0000000000e+02 5.0000000000e+02 0.0000000000e+00 0.0000e+00 1.0000e+00
      -11  1    1    2    0    0 -1.3529695437e+01 -4.4826365017e+00 +4.7432824295e+02 4.7454233610e+02 0.0000000000e+00 0.0000e+00 -1.0000e+00
       11  1    1    2    0    0 +5.2939585736e+00 -6.2374464398e+00 -2.6738936633e+02 2.6751449486e+02 0.0000000000e+00 0.0000e+00 1.0000e+00
      -15  1    1    2    0    0 -5.7913811846e+00 +5.1604120664e+00 -2.3010329387e+02 2.3024085981e+02 1.7770000000e+00 0.0000e+00 1.0000e+00
       15  1    1    2    0    0 +1.4027118048e+01 +5.5596708752e+00 +2.3164417246e+01 2.7702309223e+01 1.7770000000e+00 0.0000e+00 -1.0000e+00
</event>
<event>
 6 1 7.08916e-05 5.22338900e+02 7.54677100e-03 9.35116700e-02
      -11 -1    0    0    0    0 +0.0000000000e+00 +0.0000000000e+00 +5.0000000000e+02 5.0000000000e+02 0.0000000000e+00 0.0000e+00 -1.0000e+00
       11 -1    0    0    0    0 -0.0000000000e+00 -0.0000000000e+00 -5.0000000000e+02 5.0000000000e+02 0.0000000000e+00 0.0000e+00 -1.0000e+00
      -11  1    1    2    0    0 -7.6269665028e+00 +1.1513632126e+01 +4.7746143751e+02 4.7766113371e+02 0.0000000000e+00 0.0000e+00 -1.0000e+00
       11  1    1    2    0    0 +3.4780640420e+00 -6.2682596659e+00 -3.8691864208e+02 3.8698504312e+02 0.0000000000e+00 0.0000e+00 -1.0000e+00
      -15  1    1    2    0    0 -1.7044496233e+01 -2.0046541104e+01 +1.2441133933e+01 2.9160216127e+01 1.7770000000e+00 0.0000e+00 1.0000e+00
       15  1    1    2    0    0 +2.1193398693e+01 +1.4801168643e+01 -1.0298392936e+02 1.0619360705e+02 1.7770000000e+00 0.0000e+00 -1.0000e+00
</event>
<event>
 6 1 7.08916e-05 5.00371900e+02 7.54677100e-03 9.39897800e-02
      -11 -1    0    0    0    0 +0.0000000000e+00 +0.0000000000e+00 +5.0000000000e+02 5.0000000000e+02 0.0000000000e+00 0.0000e+00 1.0000e+00
       11 -1    0    0    0    0 -0.0000000000e+00 -0.0000000000e+00 -5.0000000000e+02 5.0000000000e+02 0.0000000000e+00 0.0000e+00 1.0000e+00
      -11  1    1    2    0    0 -1.1413668994e+01 +1.5962362384e+00 +2.6471030661e+02 2.6496106551e+02 0.0000000000e+00 0.0000e+00 1.0000e+00
       11  1    1    2    0    0 +3.2750530451e+00 -8.8684581111e+00 -4.9953863491e+02 4.9962808497e+02 0.0000000000e+00 0.0000e+00 1.0000e+00
      -15  1    1    2    0    0 +5.1609486265e+00 -3.4298057856e-01 +1.6381136113e+02 1.6390263204e+02 1.7770000000e+00 0.0000e+00 1.0000e+00
       15  1    1    2    0    0 +2.9776673222e+00 +7.6152024512e+00 +7.1016967172e+01 7.1508217474e+01 1.7770000000e+00 0.0000e+00 -1.0000e+00
</event>
<event>
 6 1 7.08916e-05 4.95988400e+02 7.54677100e-03 9.40883100e-02
      -11 -1    0    0    0    0 +0.0000000000e+00 +0.0000000000e+00 +5.0000000000e+02 5.0000000000e+02 0.0000000000e+00 0.0000e+00 1.0000e+00
       11 -1    0    0    0    0 -0.0000000000e+00 -0.0000000000e+00 -5.0000000000e+02 5.0000000000e+02 0.0000000000e+00 0.0000e+00 1.0000e+00
      -11  1    1    2    0    0 -7.8375171435e+00 -3.9407865223e+00 +4.9566339660e+02 4.9574102029e+02 0.0000000000e+00 0.0000e+00 1.0000e+00
       11  1    1    2    0    0 +3.3758749715e+00 +5.8601472122e+00 -4.9620169038e+02 4.9624777621e+02 0.0000000000e+00 0.0000e+00 1.0000e+00
      -15  1    1    2    0    0 +4.0227339648e+00 -3.2959427002e+00 +1.2040930706e+00 5.6261173075e+00 1.7770000000e+00 0.0000e+00 1.0000e+00
       15  1    1    2    0    0 +4.3890820715e-01 +1.3765820103e+00 -6.6579929097e-01 2.3850861916e+00 1.7770000000e+00 0.0000e+00 -1.0000e+00
</event>
<event>
 6 1 7.08916e-05 5.33191600e+02 7.54677100e-03 9.32845800e-02
      -11 -1    0    0    0    0 +0.0000000000e+00 +0.0000000000e+00 +5.0000000000e+02 5.0000000000e+02 0.0000000000e+00 0.0000e+00 1.0000e+00
       11 -1    0    0    0    0 -0.0000000000e+00 -0.0000000000e+00 -5.0000000000e+02 5.0000000000e+02 0.0000000000e+00 0.0000e+00 1.0000e+00
      -11  1    1    2    0    0 -9.2149812601e+00 -1.6868440662e+01 +4.6641253018e+02 4.6680842803e+02 0.0000000000e+00 0.0000e+00 1.0000e+00
       11  1    1    2    0    0 -2.2876049777e+01 +1.5226690081e+01 -2.6329538139e+02 2.6472556281e+02 0.0000000000e+00 0.0000e+00 1.0000e+00
      -15  1    1    2    0    0 +2.4638081349e+01 -3.6298447270e+00 -2.3445325960e+02 2.3577892079e+02 1.7770000000e+00 0.0000e+00 1.0000e+00
       15  1    1    2    0    0 +7.4529496886e+00 +5.2715953086e+00 +3.1336110811e+01 3.2687088367e+01 1.7770000000e+00 0.0000e+00 -1.0000e+00
</event>
<event>
 6 1 7.08916e-05 4.87515700e+02 7.54677100e-03 9.42818600e-02
      -11 -1    0    0    0    0 +0.0000000000e+00 +0.0000000000e+00 +5.0000000000e+02 5.0000000000e+02 0.0000000000e+00 0.0000e+00 -1.0000e+00
       11 -1    0    0    0    0 -0.0000000000e+00 -0.0000000000e+00 -5.0000000000e+02 5.0000000000e+02 0.0000000000e+00 0.0000e+00 1.0000e+00
      -11  1    1    2    0    0 +7.3638821403e+00 +4.1891544781e+00 +4.9081714875e+02 4.9089026195e+02 0.0000000000e+00 0.0000e+00 -1.0000e+00
       11  1    1    2    0    0 -7.6726264196e+00 -2.2264753782e+01 -2.1371019307e+01 3.1801083682e+01 0.0000000000e+00 0.0000e+00 1.0000e+00
      -15  1    1    2    0    0 +3.0392594754e+01 -2.0264005904e+01 -1.6712701420e+02 1.7108166575e+02 1.7770000000e+00 0.0000e+00 1.0000e+00
       15  1    1    2    0    0 -3.0083850475e+01 +3.8339605208e+01 -3.0231911524e+02 3.0622698862e+02 1.7770000000e+00 0.0000e+00 -1.0000e+00
</event>
<event>
 6 1 7.08916e-05 5.17040400e+02 7.54677100e-03 9.36246800e-02
      -11 -1    0    0    0    0 +0.0000000000e+00 +0.0000000000e+00 +5.0000000000e+02 5.0000000000e+02 0.0000000000e+00 0.0000e+00 1.0000e+00
       11 -1    0    0    0    0 -0.0000000000e+00 -0.0000000000e+00 -5.0000000000e+02 5.0000000000e+02 0.0000000000e+00 0.0000e+00 -1.0000e+00
      -11  1    1    2    0    0 +1.7550292721e+01 -1.1147141608e+01 +3.5073780180e+02 3.5135349315e+02 0.0000000000e+00 0.0000e+00 1.0000e+00
       11  1    1    2    0    0 +1.6341481143e+01 -6.3140787350e+00 -4.8264178447e+02 4.8295962949e+02 0.0000000000e+00 0.0000e+00 -1.0000e+00
      -15  1    1    2    0    0 +1.8774571912e+01 -2.3685240482e+01 +2.3509330168e+01 3.8331729691e+01 1.7770000000e+00 0.0000e+00 1.0000e+00
       15  1    1    2    0    0 -5.2666345777e+01 +4.1146460824e+01 +1.0839465251e+02 1.2735514767e+02 1.7770000000e+00 0.0000e+00 -1.0000e+00
</event>
<event>
 6 1 7.08916e-05 5.05425300e+02 7.54677100e-03 9.38775100e-02
      -11 -1    0    0    0    0 +0.0000000000e+00 +0.0000000000e+00 +5.0000000000e+02 5.0000000000e+02 0.0000000000e+00 0.0000e+00 -1.0000e+00
       11 -1    0    0    0    0 -0.0000000000e+00 -0.0000000000e+00 -5.0000000000e+02 5.0000000000e+02 0.0000000000e+00 0.0000e+00 -1.0000e+00
      -11  1    1    2    0    0 +1.9324486296e+01 +1.4812191359e+01 +4.9397503296e+02 4.9457473649e+02 0.0000000000e+00 0.0000e+00 -1.0000e+00
       11  1    1    2    0    0 -4.4945882743e+00 -4.5653017700e+00 -4.0054530928e+02 4.0059654029e+02 0.0000000000e+00 0.0000e+00 -1.0000e+00
      -15  1    1    2    0    0 -1.7628618443e+01 -1.4682324368e+01 -1.8048994631e+01 2.9244876017e+01 1.7770000000e+00 0.0000e+00 1.0000e+00
       15  1    1    2    0    0 +2.7987204208e+00 +4.4354347796e+00 -7.5380729047e+01 7.5583847205e+01 1.7770000000e+00 0.0000e+00 1.0000e+00
</event>
<event>
 6 1 7.08916e-05 4.57364800e+02 7.54677100e-03 9.50061300e-02
      -11 -1    0    0    0    0 +0.0000000000e+00 +0.0000000000e+00 +5.0000000000e+02 5.0000000000e+02 0.0000000000e+00 0.0000e+00 1.0000e+00
       11 -1    0    0    0    0 -0.0000000000e+00 -0.0000000000e+00 -5.0000000000e+02 5.0000000000e+02 0.0000000000e+00 0.0000e+00 -1.0000e+00
      -11  1    1    2    0    0 +2.5105419024e+01 -3.8038174004e+01 +4.4935672519e+02 4.5166209850e+02 0.0000000000e+00 0.0000e+00 1.0000e+00
       11  1    1    2    0    0 +1.2411957579e+01 -2.1075337515e+01 -4.6523799875e+02 4.6588048041e+02 0.0000000000e+00 0.0000e+00 -1.0000e+00
      -15  1    1    2    0    0 +1.5717388345e+00 -4.7228617805e+00 +4.0396837713e+00 6.6522597914e+00 1.7770000000e+00 0.0000e+00 1.0000e+00
       15  1    1    2    0    0 -3.9089115437e+01 +6.3836373300e+01 +1.1841589787e+01 7.5805161298e+01 1.7770000000e+00 0.0000e+00 -1.0000e+00
</event>
<event>
 6 1 7.08916e-05 5.11302700e+02 7.54677100e-03 9.37486800e-02
      -11 -1    0    0    0    0 +0.0000000000e+00 +0.0000000000e+00 +5.0000000000e+02 5.0000000000e+02 0.0000000000e+00 0.0000e+00 1.0000e+00
       11 -1    0    0    0    0 -0.0000000000e+00 -0.0000000000e+00 -5.0000000000e+02 5.0000000000e+02 0.0000000000e+00 0.0000e+00 -1.0000e+00
      -11  1    1    2    0    0 -5.9661328574e+00 +5.0025726075e+00 +4.8863527112e+02 4.8869729758e+02 0.0000000000e+00 0.0000e+00 1.0000e+00
       11  1    1    2    0    0 +1.1428711866e+01 -3.1492323283e+00 -4.1618088702e+02 4.1634968937e+02 0.0000000000e+00 0.0000e+00 -1.0000e+00
      -15  1    1    2    0    0 +1.0720026963e+01 +3.8820766489e+00 -7.6384055049e+01 7.7250702858e+01 1.7770000000e+00 0.0000e+00 -1.0000e+00
       15  1    1    2    0    0 -1.6182605972e+01 -5.7354169282e+00 +3.9296709510e+00 1.7702310193e+01 1.7770000000e+00 0.0000e+00 1.0000e+00
</event>
<event>
 6 1 7.08916e-05 5.00290300e+02 7.54677100e-03 9.39916000e-02
      -11 -1    0    0    0    0 +0.0000000000e+00 +0.0000000000e+00 +5.0000000000e+02 5.0000000000e+02 0.0000000000e+00 0.0000e+00 -1.0000e+00
       11 -1    0    0    0    0 -0.0000000000e+00 -0.0000000000e+00 -5.0000000000e+02 5.0000000000e+02 0.0000000000e+00 0.0000e+00 -1.0000e+00
      -11  1    1    2    0    0 +1.9451137535e+00 -1.3678215661e+00 +2.4849216924e+01 2.4962731923e+01 0.0000000000e+00 0.0000e+00 -1.0000e+00
       11  1    1    2    0    0 +8.7209272271e+00 +2.0045466701e+01 -4.9923130847e+02 4.9970969038e+02 0.0000000000e+00 0.0000e+00 -1.0000e+00
      -15  1    1    2    0    0 -5.2916350530e+00 -2.2451195535e+01 +3.5775900119e+02 3.5850623181e+02 1.7770000000e+00 0.0000e+00 -1.0000e+00
       15  1    1    2    0    0 -5.3744059276e+00 +3.7735503997e+00 +1.1662309035e+02 1.1682134588e+02 1.7770000000e+00 0.0000e+00 -1.0000e+00
</event>
<event>
 6 1 7.08916e-05 4.87457800e+02 7.54677100e-03 9.42831900e-02
      -11 -1    0    0    0    0 +0.0000000000e+00 +0.0000000000e+00 +5.0000000000e+02 5.0000000000e+02 0.0000000000e+00 0.0000e+00 -1.0000e+00
       11 -1    0    0    0    0 -0.0000000000e+00 -0.0000000000e+00 -5.0000000000e+02 5.0000000000e+02 0.0000000000e+00 0.0000e+00 -1.0000e+00
      -11  1    1    2    0    0 -5.6381276445e+00 -2.0897453364e+01 +4.8210392358e+02 4.8258956182e+02 0.0000000000e+00 0.0000e+00 -1.0000e+00
       11  1    1    2    0    0 -8.4001990896e+00 +8.9394790402e+00 -4.9240212204e+02 4.9255489787e+02 0.0000000000e+00 0.0000e+00 -1.0000e+00
      -15  1    1    2    0    0 +2.4257714573e+00 -8.7461834929e-01 +6.2533901690e+00 6.9937073162e+00 1.7770000000e+00 0.0000e+00 -1.0000e+00
       15  1    1    2    0    0 +1.1612555277e+01 +1.2832592673e+01 +4.0448082871e+00 1.7861832993e+01 1.7770000000e+00 0.0000e+00 1.0000e+00
</event>
<event>
 6 1 7.08916e-05 3.39920000e+02 7.54677100e-03 9.85274000e-02
      -11 -1    0    0    0    0 +0.0000000000e+00 +0.0000000000e+00 +5.0000000000e+02 5.0000000000e+02 0.0000000000e+00 0.0000e+00 -1.0000e+00
       11 -1    0    0    0    0 -0.0000000000e+00 -0.0000000000e+00 -5.0000000000e+02 5.0000000000e+02 0.0000000000e+00 0.0000e+00 1.0000e+00
      -11  1    1    2    0    0 +1.2951998367e+01 +7.6004375560e+00 +3.2367020768e+02 3.2401840110e+02 0.0000000000e+00 0.0000e+00 -1.0000e+00
       11  1    1    2    0    0 +1.0254981444e+01 +9.4255547979e+00 -1.4079566236e+02 1.4148294691e+02 0.0000000000e+00 0.0000e+00 1.0000e+00
      -15  1    1    2    0    0 -2.0752287182e+01 -2.8945891268e+01 +1.7389670254e+02 1.7751547236e+02 1.7770000000e+00 0.0000e+00 -1.0000e+00
       15  1    1    2    0    0 -2.4546926292e+00 +1.1919898915e+01 -3.5677124786e+02 3.5698317962e+02 1.7770000000e+00 0.0000e+00 1.0000e+00
</event>
<event>
 6 1 7.08916e-05 4.88836900e+02 7.54677100e-03 9.42514000e-02
      -11 -1    0    0    0    0 +0.0000000000e+00 +0.0000000000e+00 +5.0000000000e+02 5.0000000000e+02 0.0000000000e+00 0.0000e+00 1.0000e+00
       11 -1    0    0    0    0 -0.0000000000e+00 -0.0000000000e+00 -5.0000000000e+02 5.0000000000e+02 0.0000000000e+00 0.0000e+00 1.0000e+00
      -11  1    1    2    0    0 -6.3597435215e+00 +1.2645627351e+01 +4.9267097950e+02 4.9287427633e+02 0.0000000000e+00 0.0000e+00 1.0000e+00
       11  1    1    2    0    0 -1.2415904030e+01 -1.2839280460e+01 -4.8468351064e+02 4.8501248157e+02 0.0000000000e+00 0.0000e+00 1.0000e+00
      -15  1    1    2    0    0 +1.4028722228e+01 -3.1802448637e+00 -6.2264519517e+00 1.5774835582e+01 1.7770000000e+00 0.0000e+00 1.0000e+00
       15  1    1    2    0    0 +4.7469253236e+00 +3.3738979728e+00 -1.7610169125e+00 6.3384065131e+00 1.7770000000e+00 0.0000e+00 -1.0000e+00
</event>
<event>
 6 1 7.08916e-05 4.81534000e+02 7.54677100e-03 9.44210400e-02
      -11 -1    0    0    0    0 +0.0000000000e+00 +0.0000000000e+00 +5.0000000000e+02 5.0000000000e+02 0.0000000000e+00 0.0000e+00 -1.0000e+00
       11 -1    0    0    0    0 -0.0000000000e+00 -0.0000000000e+00 -5.0000000000e+02 5.0000000000e+02 0.0000000000e+00 0.0000e+00 1.0000e+00
      -11  1    1    2    0    0 +2.2155572557e+01 -2.3406706605e+00 +4.8312048970e+02 4.8363390669e+02 0.0000000000e+00 0.0000e+00 -1.0000e+00
       11  1    1    2    0    0 +9.5862830359e+00 -1.1076984139e+01 -4.7983246890e+02 4.8005603279e+02 0.0000000000e+00 0.0000e+00 1.0000e+00
      -15  1    1    2    0    0 -8.1982118783e+00 +5.8638596736e-01 -4.2476361706e+00 9.4209696179e+00 1.7770000000e+00 0.0000e+00 1.0000e+00
       15  1    1    2    0    0 -2.3543643714e+01 +1.2831268832e+01 +9.5961537765e-01 2.6889090908e+01 1.7770000000e+00 0.0000e+00 -1.0000e+00
</event>
<event>
 7 1 7.08916e-05 5.07079700e+02 7.54677100e-03 9.38410600e-02
      -11 -1    0    0    0    0 +0.0000000000e+00 +0.0000000000e+00 +5.0000000000e+02 5.0000000000e+02 0.0000000000e+00 0.0000e+00 1.0000e+00
       11 -1    0    0    0    0 -0.0000000000e+00 -0.0000000000e+00 -5.0000000000e+02 5.0000000000e+02 0.0000000000e+00 0.0000e+00 1.0000e+00
       23  2    1    2    0    0 +1.8345323069e+00 -9.0980860837e+00 -2.7968448536e+02 2.9345430835e+02 8.8350886023e+01 0.0000e+00 0.0000e+00
      -11  1    1    2    0    0 +1.4673934295e+01 +6.6520387984e+00 +4.9265696761e+02 4.9292034012e+02 0.0000000000e+00 0.0000e+00 1.0000e+00
       11  1    1    2    0    0 -1.6508466602e+01 +2.4460472853e+00 -2.1297248225e+02 2.1362535152e+02 0.0000000000e+00 0.0000e+00 1.0000e+00
      -15  1    3    3    0    0 -1.0161058411e+01 -4.7400122521e+01 -1.6147026607e+02 1.6859959453e+02 1.7770000000e+00 0.0000e+00 1.0000e+00
       15  1    3    3    0    0 +1.1995590718e+01 +3.8302036437e+01 -1.1821421929e+02 1.2485471382e+02 1.7770000000e+00 0.0000e+00 -1.0000e+00
</event>
<event>
 6 1 7.08916e-05 5.00044600e+02 7.54677100e-03 9.39971000e-02
      -11 -1    0    0    0    0 +0.0000000000e+00 +0.0000000000e+00 +5.0000000000e+02 5.0000000000e+02 0.0000000000e+00 0.0000e+00 -1.0000e+00
       11 -1    0    0    0    0 -0.0000000000e+00 -0.0000000000e+00 -5.0000000000e+02 5.0000000000e+02 0.0000000000e+00 0.0000e+00 -1.0000e+00
      -11  1    1    2    0    0 +1.9887564205e+00 -2.2006103918e+00 +1.9384086821e+02 1.9386356034e+02 0.0000000000e+00 0.0000e+00 -1.0000e+00
       11  1    1    2    0    0 +2.3198108953e+00 +1.0908051738e+01 -4.9983103076e+02 4.9995542444e+02 0.0000000000e+00 0.0000e+00 -1.0000e+00
      -15  1    1    2    0    0 -4.1498289388e+00 -5.3819124695e+00 +2.0543175770e+02 2.0555182038e+02 1.7770000000e+00 0.0000e+00 -1.0000e+00
       15  1    1    2    0    0 -1.5873837690e-01 -3.3255288764e+00 +1.0055840485e+02 1.0062919484e+02 1.7770000000e+00 0.0000e+00 1.0000e+00
</event>
<event>
 6 1 7.08916e-05 5.01731700e+02 7.54677100e-03 9.39594300e-02
      -11 -1    0    0    0    0 +0.0000000000e+00 +0.0000000000e+00 +5.0000000000e+02 5.0000000000e+02 0.0000000000e+00 0.0000e+00 -1.0000e+00
       11 -1    0    0    0    0 -0.0000000000e+00 -0.0000000000e+00 -5.0000000000e+02 5.0000000000e+02 0.0000000000e+00 0.0000e+00 1.0000e+00
      -11  1    1    2    0    0 -6.8478376726e+00 -1.1331823151e+01 +3.9885749749e+02 3.9907719353e+02 0.0000000000e+00 0.0000e+00 -1.0000e+00
       11  1    1    2    0    0 -8.8267620855e+00 -2.9792850977e+00 -4.9818124516e+02 4.9826834226e+02 0.0000000000e+00 0.0000e+00 1.0000e+00
      -15  1    1    2    0    0 +4.9035634460e+00 -2.1969181273e+00 +1.4814063576e+01 1.5858297272e+01 1.7770000000e+00 0.0000e+00 -1.0000e+00
       15  1    1    2    0    0 +1.0771036312e+01 +1.6508026376e+01 +8.4509684101e+01 8.6796166931e+01 1.7770000000e+00 0.0000e+00 1.0000e+00
</event>
<event>
 6 1 7.08916e-05 5.07544500e+02 7.54677100e-03 9.38308500e-02
      -11 -1    0    0    0    0 +0.0000000000e+00 +0.0000000000e+00 +5.0000000000e+02 5.0000000000e+02 0.0000000000e+00 0.0000e+00 1.0000e+00
       11 -1    0    0    0    0 -0.0000000000e+00 -0.0000000000e+00 -5.0000000000e+02 5.0000000000e+02 0.0000000000e+00 0.0000e+00 -1.0000e+00
      -11  1    1    2    0    0 -8.2134801664e+00 +6.5603334982e-01 +4.9238654431e+02 4.9245548089e+02 0.0000000000e+00 0.0000e+00 1.0000e+00
       11  1    1    2    0    0 -1.6011537961e+01 -3.9054062121e+00 -4.7669761288e+02 4.7698242701e+02 0.0000000000e+00 0.0000e+00 -1.0000e+00
      -15  1    1    2    0    0 +5.1057179203e+00 -2.1380589802e+00 -6.1234817152e+00 8.4436016605e+00 1.7770000000e+00 0.0000e+00 -1.0000e+00
       15  1    1    2    0    0 +1.9119300207e+01 +5.3874318425e+00 -9.5654497136e+00 2.2118490443e+01 1.7770000000e+00 0.0000e+00 1.0000e+00
</event>
<event>
 6 1 7.08916e-05 5.22862200e+02 7.54677100e-03 9.35005800e-02
      -11 -1    0    0    0    0 +0.0000000000e+00 +0.0000000000e+00 +5.0000000000e+02 5.0000000000e+02 0.0000000000e+00 0.0000e+00 -1.0000e+00
       11 -1    0    0    0    0 -0.0000000000e+00 -0.0000000000e+00 -5.0000000000e+02 5.0000000000e+02 0.0000000000e+00 0.0000e+00 -1.0000e+00
      -11  1    1    2    0    0 +1.2605542246e+01 +3.4569213624e+00 +4.7695872267e+02 4.7713779260e+02 0.0000000000e+00 0.0000e+00 -1.0000e+00
       11  1    1    2    0    0 +4.5036957106e-01 +1.5317070856e+01 -4.3438011505e+02 4.3465031904e+02 0.0000000000e+00 0.0000e+00 -1.0000e+00
      -15  1    1    2    0    0 +1.6894029416e+01 -1.6774235323e+01 -5.1569416562e+01 5.6827331928e+01 1.7770000000e+00 0.0000e+00 1.0000e+00
       15  1    1    2    0    0 -2.9949941233e+01 -1.9997568946e+00 +8.9908089441e+00 3.1384556425e+01 1.7770000000e+00 0.0000e+00 -1.0000e+00
</event>
<event>
 6 1 7.08916e-05 3.85096700e+02 7.54677100e-03 9.70149000e-02
      -11 -1    0    0    0    0 +0.0000000000e+00 +0.0000000000e+00 +5.0000000000e+02 5.0000000000e+02 0.0000000000e+00 0.0000e+00 1.0000e+00
       11 -1    0    0    0    0 -0.0000000000e+00 -0.0000000000e+00 -5.0000000000e+02 5.0000000000e+02 0.0000000000e+00 0.0000e+00 -1.0000e+00
      -11  1    1    2    0    0 -7.4195838483e+00 +2.3291173911e+00 +2.4322264237e+01 2.5535221751e+01 0.0000000000e+00 0.0000e+00 1.0000e+00
       11  1    1    2    0    0 -1.8165495943e+00 -2.5386095778e+01 -3.1237176657e+02 3.1340688292e+02 0.0000000000e+00 0.0000e+00 -1.0000e+00
      -15  1    1    2    0    0 -2.6663296169e+01 +4.1370967421e+01 +4.7107342385e+02 4.7364102091e+02 1.7770000000e+00 0.0000e+00 1.0000e+00
       15  1    1    2    0    0 +3.5899429612e+01 -1.8313989034e+01 -1.8302392151e+02 1.8741687441e+02 1.7770000000e+00 0.0000e+00 -1.0000e+00
</event>
<event>
 6 1 7.08916e-05 5.01969800e+02 7.54677100e-03 9.39541300e-02
      -11 -1    0    0    0    0 +0.0000000000e+00 +0.0000000000e+00 +5.0000000000e+02 5.0000000000e+02 0.0000000000e+00 0.0000e+00 -1.0000e+00
       11 -1    0    0    0    0 -0.0000000000e+00 -0.0000000000e+00 -5.0000000000e+02 5.0000000000e+02 0.0000000000e+00 0.0000e+00 1.0000e+00
      -11  1    1    2    0    0 +8.0731933216e+00 +1.2717305633e+01 +4.9780235531e+02 4.9803021120e+02 0.0000000000e+00 0.0000e+00 -1.0000e+00
       11  1    1    2    0    0 -2.7900483243e+00 -6.4905215901e+00 -2.5925498015e+02 2.5935122127e+02 0.0000000000e+00 0.0000e+00 1.0000e+00
      -15  1    1    2    0    0 -2.2838256298e+00 +4.2438066060e+00 -2.2537840700e+02 2.2543693092e+02 1.7770000000e+00 0.0000e+00 1.0000e+00
       15  1    1    2    0    0 -2.9993193675e+00 -1.0470590649e+01 -1.3168968166e+01 1.7181636615e+01 1.7770000000e+00 0.0000e+00 -1.0000e+00
</event>
<event>
 7 1 7.08916e-05 5.19099300e+02 7.54677100e-03 9.35805900e-02
      -11 -1    0    0    0    0 +0.0000000000e+00 +0.0000000000e+00 +5.0000000000e+02 5.0000000000e+02 0.0000000000e+00 0.0000e+00 1.0000e+00
       11 -1    0    0    0    0 -0.0000000000e+00 -0.0000000000e+00 -5.0000000000e+02 5.0000000000e+02 0.0000000000e+00 0.0000e+00 1.0000e+00
       23  2    1    2    0    0 +3.0082218551e+01 +3.7675766485e+01 +1.1327222528e+02 1.5222458648e+02 8.9539513368e+01 0.0000e+00 0.0000e+00
      -11  1    1    2    0    0 -1.2123911833e+01 -1.0498129746e+01 +3.6652397794e+02 3.6687467393e+02 0.0000000000e+00 0.0000e+00 1.0000e+00
       11  1    1    2    0    0 -1.7958306718e+01 -2.7177636739e+01 -4.7979620322e+02 4.8090073960e+02 0.0000000000e+00 0.0000e+00 1.0000e+00
      -15  1    3    3    0    0 +2.1807064569e+01 +6.6560958101e+01 +9.0653164747e+01 1.1457339663e+02 1.7770000000e+00 0.0000e+00 1.0000e+00
       15  1    3    3    0    0 +8.2751539820e+00 -2.8885191615e+01 +2.2619060535e+01 3.7651189843e+01 1.7770000000e+00 0.0000e+00 -1.0000e+00
</event>
<event>
 6 1 7.08916e-05 5.00986400e+02 7.54677100e-03 9.39760500e-02
      -11 -1    0    0    0    0 +0.0000000000e+00 +0.0000000000e+00 +5.0000000000e+02 5.0000000000e+02 0.0000000000e+00 0.0000e+00 1.0000e+00
       11 -1    0    0    0    0 -0.0000000000e+00 -0.0000000000e+00 -5.0000000000e+02 5.0000000000e+02 0.0000000000e+00 0.0000e+00 1.0000e+00
      -11  1    1    2    0    0 -4.6304125135e-01 -6.5275734715e+00 +3.6896250945e+02 3.6902053738e+02 0.0000000000e+00 0.0000e+00 1.0000e+00
       11  1    1    2    0    0 +6.1380582082e+00 -5.0155793568e+00 -4.9895065858e+02 4.9901361855e+02 0.0000000000e+00 0.0000e+00 1.0000e+00
      -15  1    1    2    0    0 +7.8879142252e-01 +2.4074374343e+00 +9.7665594266e+01 9.7714604739e+01 1.7770000000e+00 0.0000e+00 1.0000e+00
       15  1    1    2    0    0 -6.4638083793e+00 +9.1357153939e+00 +3.2322554861e+01 3.4251239339e+01 1.7770000000e+00 0.0000e+00 1.0000e+00
</event>
<event>
 6 1 7.08916e-05 5.15024500e+02 7.54677100e-03 9.36680500e-02
      -11 -1    0    0    0    0 +0.0000000000e+00 +0.0000000000e+00 +5.0000000000e+02 5.0000000000e+02 0.0000000000e+00 0.0000e+00 -1.0000e+00
       11 -1    0    0    0    0 -0.0000000000e+00 -0.0000000000e+00 -5.0000000000e+02 5.0000000000e+02 0.0000000000e+00 0.0000e+00 1.0000e+00
      -11  1    1    2    0    0 +1.1894891390e+01 -4.3795208318e+00 +4.8480985088e+02 4.8497552532e+02 0.0000000000e+00 0.0000e+00 -1.0000e+00
       11  1    1    2    0    0 +7.7382201636e+00 -1.2818606741e+01 -4.5276203920e+02 4.5300955936e+02 0.0000000000e+00 0.0000e+00 1.0000e+00
      -15  1    1    2    0    0 -1.1034346711e+01 +1.2145725320e+01 -4.3618060783e+01 4.6636556545e+01 1.7770000000e+00 0.0000e+00 1.0000e+00
       15  1    1    2    0    0 -8.5987648424e+00 +5.0524022529e+00 +1.1570249102e+01 1.5378358775e+01 1.7770000000e+00 0.0000e+00 -1.0000e+00
</event>
<event>
 6 1 7.08916e-05 5.00652500e+02 7.54677100e-03 9.39835100e-02
      -11 -1    0    0    0    0 +0.0000000000e+00 +0.0000000000e+00 +5.0000000000e+02 5.0000000000e+02 0.0000000000e+00 0.0000e+00 -1.0000e+00
       11 -1    0    0    0    0 -0.0000000000e+00 -0.0000000000e+00 -5.0000000000e+02 5.0000000000e+02 0.0000000000e+00 0.0000e+00 -1.0000e+00
      -11  1    1    2    0    0 -6.0426892058e+00 +1.1043211830e+01 +2.0869981090e+02 2.0907911825e+02 0.0000000000e+00 0.0000e+00 -1.0000e+00
       11  1    1    2    0    0 +4.4009912471e+00 +1.0304061621e+01 -4.9922178086e+02 4.9934750315e+02 0.0000000000e+00 0.0000e+00 -1.0000e+00
      -15  1    1    2    0    0 +3.3987651405e+00 -1.1261968952e+01 +2.1638944886e+02 2.1671625425e+02 1.7770000000e+00 0.0000e+00 -1.0000e+00
       15  1    1    2    0    0 -1.7570671818e+00 -1.0085304499e+01 +7.4132521107e+01 7.4857124354e+01 1.7770000000e+00 0.0000e+00 1.0000e+00
</event>
<event>
 6 1 7.08916e-05 5.00136500e+02 7.54677100e-03 9.39950400e-02
      -11 -1    0    0    0    0 +0.0000000000e+00 +0.0000000000e+00 +5.0000000000e+02 5.0000000000e+02 0.0000000000e+00 0.0000e+00 1.0000e+00
       11 -1    0    0    0    0 -0.0000000000e+00 -0.0000000000e+00 -5.0000000000e+02 5.0000000000e+02 0.0000000000e+00 0.0000e+00 -1.0000e+00
      -11  1    1    2    0    0 -1.8923234204e+00 +1.8877521339e+00 +2.6084556795e+01 2.6221147939e+01 0.0000000000e+00 0.0000e+00 1.0000e+00
       11  1    1    2    0    0 -3.8150484618e+00 +1.4848332765e+01 -4.9962835391e+02 4.9986350098e+02 0.0000000000e+00 0.0000e+00 -1.0000e+00
      -15  1    1    2    0    0 +1.0144416064e+00 -1.0677495707e+01 +2.6285319036e+02 2.6307792651e+02 1.7770000000e+00 0.0000e+00 1.0000e+00
       15  1    1    2    0    0 +4.6929302759e+00 -6.0585891913e+00 +2.1069060676e+02 2.1083742457e+02 1.7770000000e+00 0.0000e+00 -1.0000e+00
</event>
<event>
 7 1 7.08916e-05 5.02741000e+02 7.54677100e-03 9.39369700e-02
      -11 -1    0    0    0    0 +0.0000000000e+00 +0.0000000000e+00 +5.0000000000e+02 5.0000000000e+02 0.0000000000e+00 0.0000e+00 1.0000e+00
       11 -1    0    0    0    0 -0.0000000000e+00 -0.0000000000e+00 -5.0000000000e+02 5.0000000000e+02 0.0000000000e+00 0.0000e+00 -1.0000e+00
       23  2    1    2    0    0 +7.8423440513e-01 -5.9513728560e+00 -4.9424864039e+02 5.0274099329e+02 9.1819137133e+01 0.0000e+00 0.0000e+00
      -11  1    1    2    0    0 -9.1876460656e+00 +1.1750338940e+00 +4.7971592469e+02 4.7980533755e+02 0.0000000000e+00 0.0000e+00 1.0000e+00
       11  1    1    2    0    0 +8.4034116605e+00 +4.7763389620e+00 +1.4532715702e+01 1.7453669158e+01 0.0000000000e+00 0.0000e+00 -1.0000e+00
      -15  1    3    3    0    0 +7.4166529338e+00 +4.0999423415e+01 -2.9425491234e+02 2.9719534086e+02 1.7770000000e+00 0.0000e+00 -1.0000e+00
       15  1    3    3    0    0 -6.6324185287e+00 -4.6950796271e+01 -1.9999372805e+02 2.0554565243e+02 1.7770000000e+00 0.0000e+00 1.0000e+00
</event>
<event>
 6 1 7.08916e-05 5.00514800e+02 7.54677100e-03 9.39865900e-02
      -11 -1    0    0    0    0 +0.0000000000e+00 +0.0000000000e+00 +5.0000000000e+02 5.0000000000e+02 0.0000000000e+00 0.0000e+00 1.0000e+00
       11 -1    0    0    0    0 -0.0000000000e+00 -0.0000000000e+00 -5.0000000000e+02 5.0000000000e+02 0.0000000000e+00 0.0000e+00 -1.0000e+00
      -11  1    1    2    0    0 +4.4741294086e+00 +6.0583104180e+00 +4.9942841265e+02 4.9948519530e+02 0.0000000000e+00 0.0000e+00 1.0000e+00
       11  1    1    2    0    0 -5.8185949291e+00 +6.5042142419e+00 -3.8293033832e+02 3.8302977020e+02 0.0000000000e+00 0.0000e+00 -1.0000e+00
      -15  1    1    2    0    0 -9.1465228798e-02 -1.0294730595e+01 -6.0570366518e+01 6.1464761230e+01 1.7770000000e+00 0.0000e+00 -1.0000e+00
       15  1    1    2    0    0 +1.4359307492e+00 -2.2677940647e+00 -5.5927707816e+01 5.6020273273e+01 1.7770000000e+00 0.0000e+00 1.0000e+00
</event>
<event>
 6 1 7.08916e-05 5.17362500e+02 7.54677100e-03 9.36177700e-02
      -11 -1    0    0    0    0 +0.0000000000e+00 +0.0000000000e+00 +5.0000000000e+02 5.0000000000e+02 0.0000000000e+00 0.0000e+00 1.0000e+00
       11 -1    0    0    0    0 -0.0000000000e+00 -0.0000000000e+00 -5.0000000000e+02 5.0000000000e+02 0.0000000000e+00 0.0000e+00 -1.0000e+00
      -11  1    1    2    0    0 -4.4249267977e+01 +1.3698172708e+02 +4.6067016852e+02 4.8263754043e+02 0.0000000000e+00 0.0000e+00 1.0000e+00
       11  1    1    2    0    0 +5.9639163100e+01 -6.6127033959e+01 -3.8823047455e+02 3.9831208337e+02 0.0000000000e+00 0.0000e+00 -1.0000e+00
      -15  1    1    2    0    0 +1.4626509870e+01 -5.7735246784e+01 -3.4340231267e+01 6.8772834206e+01 1.7770000000e+00 0.0000e+00 -1.0000e+00
       15  1    1    2    0    0 -3.0016404994e+01 -1.3119446341e+01 -3.8099462705e+01 5.0277541989e+01 1.7770000000e+00 0.0000e+00 1.0000e+00
</event>
<event>
 6 1 7.08916e-05 5.12960000e+02 7.54677100e-03 9.37126900e-02
      -11 -1    0    0    0    0 +0.0000000000e+00 +0.0000000000e+00 +5.0000000000e+02 5.0000000000e+02 0.0000000000e+00 0.0000e+00 1.0000e+00
       11 -1    0    0    0    0 -0.0000000000e+00 -0.0000000000e+00 -5.0000000000e+02 5.0000000000e+02 0.0000000000e+00 0.0000e+00 1.0000e+00
      -11  1    1    2    0    0 -1.4847881972e+01 -3.6209732174e-01 +4.4359120426e+02 4.4383977651e+02 0.0000000000e+00 0.0000e+00 1.0000e+00
       11  1    1    2    0    0 -2.2302431201e+01 +9.4380265907e+00 -4.8643758800e+02 4.8704004127e+02 0.0000000000e+00 0.0000e+00 1.0000e+00
      -15  1    1    2    0    0 +6.1585290647e+00 +7.7723871513e+00 +2.9817718761e+01 3.1473664601e+01 1.7770000000e+00 0.0000e+00 -1.0000e+00
       15  1    1    2    0    0 +3.0991784107e+01 -1.6848316420e+01 +1.3028664978e+01 3.7646517614e+01 1.7770000000e+00 0.0000e+00 1.0000e+00
</event>
<event>
 6 1 7.08916e-05 5.05361300e+02 7.54677100e-03 9.38789300e-02
      -11 -1    0    0    0    0 +0.0000000000e+00 +0.0000000000e+00 +5.0000000000e+02 5.0000000000e+02 0.0000000000e+00 0.0000e+00 -1.0000e+00
       11 -1    0    0    0    0 -0.0000000000e+00 -0.0000000000e+00 -5.0000000000e+02 5.0000000000e+02 0.0000000000e+00 0.0000e+00 1.0000e+00
      -11  1    1    2    0    0 +1.1153049172e+01 +2.4778576938e+00 +3.7829094951e+02 3.7846343650e+02 0.0000000000e+00 0.0000e+00 -1.0000e+00
       11  1    1    2    0    0 -8.6254265912e-01 -1.6602604279e+01 -4.9435921202e+02 4.9463867717e+02 0.0000000000e+00 0.0000e+00 1.0000e+00
      -15  1    1    2    0    0 -4.5593971623e+00 +1.8998361481e+01 +1.2987828828e+01 2.3528010288e+01 1.7770000000e+00 0.0000e+00 1.0000e+00
       15  1    1    2    0    0 -5.7311093506e+00 -4.8736148955e+00 +1.0308043368e+02 1.0336987604e+02 1.7770000000e+00 0.0000e+00 -1.0000e+00
</event>
<event>
 6 1 7.08916e-05 5.01948700e+02 7.54677100e-03 9.39546000e-02
      -11 -1    0    0    0    0 +0.0000000000e+00 +0.0000000000e+00 +5.0000000000e+02 5.0000000000e+02 0.0000000000e+00 0.0000e+00 1.0000e+00
       11 -1    0    0    0    0 -0.0000000000e+00 -0.0000000000e+00 -5.0000000000e+02 5.0000000000e+02 0.0000000000e+00 0.0000e+00 -1.0000e+00
      -11  1    1    2    0    0 +3.7296071414e+00 -2.0688052620e+00 +2.7878832538e+02 2.7882094665e+02 0.0000000000e+00 0.0000e+00 1.0000e+00
       11  1    1    2    0    0 -2.1649191739e+01 +1.3052861288e+01 -4.9740934269e+02 4.9805132154e+02 0.0000000000e+00 0.0000e+00 -1.0000e+00
      -15  1    1    2    0    0 +2.6741052888e+01 -4.6922878047e+00 +1.9708485849e+02 1.9895401642e+02 1.7770000000e+00 0.0000e+00 1.0000e+00
       15  1    1    2    0    0 -8.8214682899e+00 -6.2917682218e+00 +2.1536158813e+01 2.4173715386e+01 1.7770000000e+00 0.0000e+00 -1.0000e+00
</event>
<event>
 6 1 7.08916e-05 5.01721200e+02 7.54677100e-03 9.39596700e-02
      -11 -1    0    0    0    0 +0.0000000000e+00 +0.0000000000e+00 +5.0000000000e+02 5.0000000000e+02 0.0000000000e+00 0.0000e+00 -1.0000e+00
       11 -1    0    0    0    0 -0.0000000000e+00 -0.0000000000e+00 -5.0000000000e+02 5.0000000000e+02 0.0000000000e+00 0.0000e+00 -1.0000e+00
      -11  1    1    2    0    0 -2.6012945678e+01 +3.7762510772e+01 +1.8623335505e+02 1.9179557632e+02 0.0000000000e+00 0.0000e+00 -1.0000e+00
       11  1    1    2    0    0 +2.2224230836e+01 -4.1674944955e+01 -4.9603531540e+02 4.9827878903e+02 0.0000000000e+00 0.0000e+00 -1.0000e+00
      -15  1    1    2    0    0 +4.1800111835e+00 +1.7821360265e+00 +1.1491159136e+02 1.1501512970e+02 1.7770000000e+00 0.0000e+00 -1.0000e+00
       15  1    1    2    0    0 -3.9129634168e-01 +2.1302981566e+00 +1.9489036899e+02 1.9491050495e+02 1.7770000000e+00 0.0000e+00 1.0000e+00
</event>
<event>
 6 1 7.08916e-05 5.01404000e+02 7.54677100e-03 9.39667400e-02
      -11 -1    0    0    0    0 +0.0000000000e+00 +0.0000000000e+00 +5.0000000000e+02 5.0000000000e+02 0.0000000000e+00 0.0000e+00 1.0000e+00
       11 -1    0    0    0    0 -0.0000000000e+00 -0.0000000000e+00 -5.0000000000e+02 5.0000000000e+02 0.0000000000e+00 0.0000e+00 1.0000e+00
      -11  1    1    2    0    0 -1.1860443092e+01 -1.6117805531e+01 -5.5566775821e+01 5.9060311045e+01 0.0000000000e+00 0.0000e+00 1.0000e+00
       11  1    1    2    0    0 +1.4136407601e+01 +1.7719262569e+01 -4.4176253344e+02 4.4234369695e+02 0.0000000000e+00 0.0000e+00 1.0000e+00
      -15  1    1    2    0    0 -9.1881575234e+00 +1.1996278362e+01 +3.7471073807e+02 3.7501950334e+02 1.7770000000e+00 0.0000e+00 1.0000e+00
       15  1    1    2    0    0 +6.9121930144e+00 -1.3597735399e+01 +1.2261857119e+02 1.2357648866e+02 1.7770000000e+00 0.0000e+00 -1.0000e+00
</event>
<event>
 6 1 7.08916e-05 5.02528900e+02 7.54677100e-03 9.39416900e-02
      -11 -1    0    0    0    0 +0.0000000000e+00 +0.0000000000e+00 +5.0000000000e+02 5.0000000000e+02 0.0000000000e+00 0.0000e+00 1.0000e+00
       11 -1    0    0    0    0 -0.0000000000e+00 -0.0000000000e+00 -5.0000000000e+02 5.0000000000e+02 0.0000000000e+00 0.0000e+00 1.0000e+00
      -11  1    1    2    0    0 -2.2932653648e+00 +1.1513813316e+01 +3.2275019099e+02 3.2296363997e+02 0.0000000000e+00 0.0000e+00 1.0000e+00
       11  1    1    2    0    0 +1.1878400982e+01 +2.8916763363e+01 -4.9648789426e+02 4.9747110947e+02 0.0000000000e+00 0.0000e+00 1.0000e+00
      -15  1    1    2    0    0 +3.3974779380e+00 -2.2822148239e+01 +9.9162872045e+01 1.0182743357e+02 1.7770000000e+00 0.0000e+00 1.0000e+00
       15  1    1    2    0    0 -1.2982613555e+01 -1.7608428441e+01 +7.4574831230e+01 7.7737816980e+01 1.7770000000e+00 0.0000e+00 -1.0000e+00
</event>
<event>
 6 1 7.08916e-05 5.00382600e+02 7.54677100e-03 9.39895400e-02
      -11 -1    0    0    0    0 +0.0000000000e+00 +0.0000000000e+00 +5.0000000000e+02 5.0000000000e+02 0.0000000000e+00 0.0000e+00 -1.0000e+00
       11 -1    0    0    0    0 -0.0000000000e+00 -0.0000000000e+00 -5.0000000000e+02 5.0000000000e+02 0.0000000000e+00 0.0000e+00 1.0000e+00
      -11  1    1    2    0    0 -7.7468941567e+00 -2.3731115531e+00 +4.9955172416e+02 4.9961742477e+02 0.0000000000e+00 0.0000e+00 -1.0000e+00
       11  1    1    2    0    0 +2.6211054809e+00 -4.1647648563e+00 -1.5868825667e+02 1.5876453718e+02 0.0000000000e+00 0.0000e+00 1.0000e+00
      -15  1    1    2    0    0 +2.0616921847e+00 +1.4011147835e+01 -1.9631441211e+02 1.9683259123e+02 1.7770000000e+00 0.0000e+00 1.0000e+00
       15  1    1    2    0    0 +3.0640964910e+00 -7.4732714253e+00 -1.4454905537e+02 1.4478544682e+02 1.7770000000e+00 0.0000e+00 -1.0000e+00
</event>
<event>
 6 1 7.08916e-05 5.05816000e+02 7.54677100e-03 9.38688900e-02
      -11 -1    0    0    0    0 +0.0000000000e+00 +0.0000000000e+00 +5.0000000000e+02 5.0000000000e+02 0.0000000000e+00 0.0000e+00 -1.0000e+00
       11 -1    0    0    0    0 -0.0000000000e+00 -0.0000000000e+00 -5.0000000000e+02 5.0000000000e+02 0.0000000000e+00 0.0000e+00 1.0000e+00
      -11  1    1    2    0    0 -4.6785973235e+00 -1.0033940605e+01 +4.9406001870e+02 4.9418404600e+02 0.0000000000e+00 0.0000e+00 -1.0000e+00
       11  1    1    2    0    0 +2.9359237502e+00 -4.5655320910e+00 -4.0242010131e+02 4.0245670782e+02 0.0000000000e+00 0.0000e+00 1.0000e+00
      -15  1    1    2    0    0 -7.6390727476e+00 +8.3646272379e+00 -9.1230251352e+01 9.1948022882e+01 1.7770000000e+00 0.0000e+00 -1.0000e+00
       15  1    1    2    0    0 +9.3817463209e+00 +6.2348454576e+00 -4.0966603866e-01 1.1411223299e+01 1.7770000000e+00 0.0000e+00 1.0000e+00
</event>
<event>
 6 1 7.08916e-05 5.14254100e+02 7.54677100e-03 9.36846800e-02
      -11 -1    0    0    0    0 +0.0000000000e+00 +0.0000000000e+00 +5.0000000000e+02 5.0000000000e+02 0.0000000000e+00 0.0000e+00 1.0000e+00
       11 -1    0    0    0    0 -0.0000000000e+00 -0.0000000000e+00 -5.0000000000e+02 5.0000000000e+02 0.0000000000e+00 0.0000e+00 -1.0000e+00
      -11  1    1    2    0    0 +2.0331656749e+01 -9.7702484029e-02 +4.4709441283e+02 4.4755647666e+02 0.0000000000e+00 0.0000e+00 1.0000e+00
       11  1    1    2    0    0 +3.1247965617e+00 -1.4796514513e+01 -4.8551041932e+02 4.8574588878e+02 0.0000000000e+00 0.0000e+00 -1.0000e+00
      -15  1    1    2    0    0 +1.2704225699e+01 +5.4509701720e+00 +2.1530719833e+01 2.5648392775e+01 1.7770000000e+00 0.0000e+00 1.0000e+00
       15  1    1    2    0    0 -3.6160679009e+01 +9.4432468250e+00 +1.6885286653e+01 4.1049241788e+01 1.7770000000e+00 0.0000e+00 -1.0000e+00
</event>
<event>
 6 1 7.08916e-05 5.03830400e+02 7.54677100e-03 9.39127900e-02
      -11 -1    0    0    0    0 +0.0000000000e+00 +0.0000000000e+00 +5.0000000000e+02 5.0000000000e+02 0.0000000000e+00 0.0000e+00 1.0000e+00
       11 -1    0    0    0    0 -0.0000000000e+00 -0.0000000000e+00 -5.0000000000e+02 5.0000000000e+02 0.0000000000e+00 0.0000e+00 -1.0000e+00
      -11  1    1    2    0    0 +6.9874176978e+00 -6.9484287615e+00 +4.9607174186e+02 4.9616960582e+02 0.0000000000e+00 0.0000e+00 1.0000e+00
       11  1    1    2    0    0 +6.9573522005e+00 -7.4097124470e-01 -4.7219997207e+02 4.7225180509e+02 0.0000000000e+00 0.0000e+00 -1.0000e+00
      -15  1    1    2    0    0 -2.8468471856e+00 -1.2375371670e-01 -1.4754764737e+01 1.5132107102e+01 1.7770000000e+00 0.0000e+00 -1.0000e+00
       15  1    1    2    0    0 -1.1097922713e+01 +7.8131537229e+00 -9.1170050481e+00 1.6446481985e+01 1.7770000000e+00 0.0000e+00 1.0000e+00
</event>
<event>
 6 1 7.08916e-05 5.00537700e+02 7.54677100e-03 9.39860700e-02
      -11 -1    0    0    0    0 +0.0000000000e+00 +0.0000000000e+00 +5.0000000000e+02 5.0000000000e+02 0.0000000000e+00 0.0000e+00 -1.0000e+00
       11 -1    0    0    0    0 -0.0000000000e+00 -0.0000000000e+00 -5.0000000000e+02 5.0000000000e+02 0.0000000000e+00 0.0000e+00 -1.0000e+00
      -11  1    1    2    0    0 -1.2637727680e+01 -7.2431384154e+00 +4.9924988199e+02 4.9946233080e+02 0.0000000000e+00 0.0000e+00 -1.0000e+00
       11  1    1    2    0    0 +1.5525064357e+01 +1.2139645563e+01 -1.8008526725e+02 1.8116043194e+02 0.0000000000e+00 0.0000e+00 -1.0000e+00
      -15  1    1    2    0    0 -3.2168801255e+00 -7.4969642472e+00 -2.0795417657e+02 2.0812171937e+02 1.7770000000e+00 0.0000e+00 -1.0000e+00
       15  1    1    2    0    0 +3.2954344858e-01 +2.6004570995e+00 -1.1121043817e+02 1.1125551790e+02 1.7770000000e+00 0.0000e+00 1.0000e+00
</event>
<event>
 6 1 7.08916e-05 4.93991300e+02 7.54677100e-03 9.41335600e-02
      -11 -1    0    0    0    0 +0.0000000000e+00 +0.0000000000e+00 +5.0000000000e+02 5.0000000000e+02 0.0000000000e+00 0.0000e+00 -1.0000e+00
       11 -1    0    0    0    0 -0.0000000000e+00 -0.0000000000e+00 -5.0000000000e+02 5.0000000000e+02 0.0000000000e+00 0.0000e+00 1.0000e+00
      -11  1    1    2    0    0 -1.5696190069e+01 +1.7995006967e+01 +4.8515994337e+02 4.8574721956e+02 0.0000000000e+00 0.0000e+00 -1.0000e+00
       11  1    1    2    0    0 +1.3779244958e+01 +3.7698897547e+00 +7.8885335064e+00 1.6318965079e+01 0.0000000000e+00 0.0000e+00 1.0000e+00
      -15  1    1    2    0    0 +4.1508397995e+00 -2.7764514391e+01 -4.8967520859e+02 4.9048248223e+02 1.7770000000e+00 0.0000e+00 1.0000e+00
       15  1    1    2    0    0 -2.2338946883e+00 +5.9996176688e+00 -3.3732682791e+00 7.4513331380e+00 1.7770000000e+00 0.0000e+00 -1.0000e+00
</event>
<event>
 6 1 7.08916e-05 5.01399100e+02 7.54677100e-03 9.39668500e-02
      -11 -1    0    0    0    0 +0.0000000000e+00 +0.0000000000e+00 +5.0000000000e+02 5.0000000000e+02 0.0000000000e+00 0.0000e+00 -1.0000e+00
       11 -1    0    0    0    0 -0.0000000000e+00 -0.0000000000e+00 -5.0000000000e+02 5.0000000000e+02 0.0000000000e+00 0.0000e+00 1.0000e+00
      -11  1    1    2    0    0 +2.6840084628e+00 -3.9850858796e+00 +2.8647806003e+02 2.8651834791e+02 0.0000000000e+00 0.0000e+00 -1.0000e+00
       11  1    1    2    0    0 +1.5233544167e+01 +1.0023075811e+01 -4.9826732061e+02 4.9860088819e+02 0.0000000000e+00 0.0000e+00 1.0000e+00
      -15  1    1    2    0    0 -1.1253169750e+01 +3.4559761352e+00 +1.8778128486e+02 1.8815830110e+02 1.7770000000e+00 0.0000e+00 1.0000e+00
       15  1    1    2    0    0 -6.6643828788e+00 -9.4939660662e+00 +2.4007975722e+01 2.6722462800e+01 1.7770000000e+00 0.0000e+00 -1.0000e+00
</event>
<event>
 6 1 7.08916e-05 4.24133000e+02 7.54677100e-03 9.58766600e-02
      -11 -1    0    0    0    0 +0.0000000000e+00 +0.0000000000e+00 +5.0000000000e+02 5.0000000000e+02 0.0000000000e+00 0.0000e+00 1.0000e+00
       11 -1    0    0    0    0 -0.0000000000e+00 -0.0000000000e+00 -5.0000000000e+02 5.0000000000e+02 0.0000000000e+00 0.0000e+00 -1.0000e+00
      -11  1    1    2    0    0 +7.0253028119e+00 -5.4113981746e+00 +4.4783271030e+02 4.4792050023e+02 0.0000000000e+00 0.0000e+00 1.0000e+00
       11  1    1    2    0    0 +2.6796148919e+00 +1.5505340740e+01 -6.8319479290e+01 7.0108110643e+01 0.0000000000e+00 0.0000e+00 -1.0000e+00
      -15  1    1    2    0    0 -7.3221531834e+01 -4.7826778772e+01 -3.9659074278e+02 4.0612334146e+02 1.7770000000e+00 0.0000e+00 -1.0000e+00
       15  1    1    2    0    0 +6.3516614130e+01 +3.7732836207e+01 +1.7077511769e+01 7.5848047674e+01 1.7770000000e+00 0.0000e+00 1.0000e+00
</event>
<event>
 7 1 7.08916e-05 5.23676500e+02 7.54677100e-03 9.34833700e-02
      -11 -1    0    0    0    0 +0.0000000000e+00 +0.0000000000e+00 +5.0000000000e+02 5.0000000000e+02 0.0000000000e+00 0.0000e+00 -1.0000e+00
       11 -1    0    0    0    0 -0.0000000000e+00 -0.0000000000e+00 -5.0000000000e+02 5.0000000000e+02 0.0000000000e+00 0.0000e+00 -1.0000e+00
       23  2    1    2    0    0 +3.9669915885e+01 -8.2175097185e+01 -9.9430108778e+01 1.5306412181e+02 7.2220703620e+01 0.0000e+00 0.0000e+00
      -11  1    1    2    0    0 -3.1113652176e+01 +7.2096095127e+01 +4.6980655816e+02 4.7632353330e+02 0.0000000000e+00 0.0000e+00 -1.0000e+00
       11  1    1    2    0    0 -8.5562637099e+00 +1.0079002058e+01 -3.7037644938e+02 3.7061234489e+02 0.0000000000e+00 0.0000e+00 -1.0000e+00
      -15  1    3    3    0    0 +3.3070439496e+01 -7.5801757514e+01 -3.8182604829e+01 9.1107790288e+01 1.7770000000e+00 0.0000e+00 -1.0000e+00
       15  1    3    3    0    0 +6.5994763895e+00 -6.3733396709e+00 -6.1247503949e+01 6.1956331526e+01 1.7770000000e+00 0.0000e+00 1.0000e+00
</event>
<event>
 6 1 7.08916e-05 5.04353600e+02 7.54677100e-03 9.39012100e-02
      -11 -1    0    0    0    0 +0.0000000000e+00 +0.0000000000e+00 +5.0000000000e+02 5.0000000000e+02 0.0000000000e+00 0.0000e+00 1.0000e+00
       11 -1    0    0    0    0 -0.0000000000e+00 -0.0000000000e+00 -5.0000000000e+02 5.0000000000e+02 0.0000000000e+00 0.0000e+00 -1.0000e+00
      -11  1    1    2    0    0 -1.5954880345e+01 -1.8104056074e+01 +4.5968205359e+02 4.6031500676e+02 0.0000000000e+00 0.0000e+00 1.0000e+00
       11  1    1    2    0    0 -6.1697084855e+00 +7.9039564762e+00 -4.9554494660e+02 4.9564637791e+02 0.0000000000e+00 0.0000e+00 -1.0000e+00
      -15  1    1    2    0    0 +1.7374905195e+01 +6.3135987552e+00 +3.0440905136e+01 3.5658873991e+01 1.7770000000e+00 0.0000e+00 -1.0000e+00
       15  1    1    2    0    0 +4.7496836353e+00 +3.8865008423e+00 +5.4219878742e+00 8.3797413409e+00 1.7770000000e+00 0.0000e+00 1.0000e+00
</event>
<event>
 6 1 7.08916e-05 5.01184000e+02 7.54677100e-03 9.39716400e-02
      -11 -1    0    0    0    0 +0.0000000000e+00 +0.0000000000e+00 +5.0000000000e+02 5.0000000000e+02 0.0000000000e+00 0.0000e+00 1.0000e+00
       11 -1    0    0    0    0 -0.0000000000e+00 -0.0000000000e+00 -5.0000000000e+02 5.0000000000e+02 0.0000000000e+00 0.0000e+00 -1.0000e+00
      -11  1    1    2    0    0 +6.9250508537e+01 +3.0236442118e+01 +4.9305932067e+02 4.9881596713e+02 0.0000000000e+00 0.0000e+00 1.0000e+00
       11  1    1    2    0    0 -3.3373388823e+01 -3.3121237752e+01 -1.8602923501e+02 1.9187932601e+02 0.0000000000e+00 0.0000e+00 -1.0000e+00
      -15  1    1    2    0    0 -2.7045383974e+01 -5.3779721976e-01 -2.5007541562e+02 2.5154048033e+02 1.7770000000e+00 0.0000e+00 -1.0000e+00
       15  1    1    2    0    0 -8.8317357402e+00 +3.4225928541e+00 -5.6954670047e+01 5.7764226535e+01 1.7770000000e+00 0.0000e+00 1.0000e+00
</event>
<event>
 6 1 7.08916e-05 4.82723200e+02 7.54677100e-03 9.43932000e-02
      -11 -1    0    0    0    0 +0.0000000000e+00 +0.0000000000e+00 +5.0000000000e+02 5.0000000000e+02 0.0000000000e+00 0.0000e+00 1.0000e+00
       11 -1    0    0    0    0 -0.0000000000e+00 -0.0000000000e+00 -5.0000000000e+02 5.0000000000e+02 0.0000000000e+00 0.0000e+00 1.0000e+00
      -11  1    1    2    0    0 +7.6756830774e+00 -2.2525663260e+00 +4.7506473959e+02 4.7513208371e+02 0.0000000000e+00 0.0000e+00 1.0000e+00
       11  1    1    2    0    0 +1.2756379032e+01 +2.1334080418e+01 -4.9020798099e+02 4.9083778667e+02 0.0000000000e+00 0.0000e+00 1.0000e+00
      -15  1    1    2    0    0 -8.0073543460e+00 -1.1825188386e+01 +2.1290465475e+00 1.4547967975e+01 1.7770000000e+00 0.0000e+00 -1.0000e+00
       15  1    1    2    0    0 -1.2424707764e+01 -7.2563257055e+00 +1.3014194856e+01 1.9482161649e+01 1.7770000000e+00 0.0000e+00 1.0000e+00
</event>
<event>
 6 1 7.08916e-05 5.17748900e+02 7.54677100e-03 9.36094800e-02
      -11 -1    0    0    0    0 +0.0000000000e+00 +0.0000000000e+00 +5.0000000000e+02 5.0000000000e+02 0.0000000000e+00 0.0000e+00 1.0000e+00
       11 -1    0    0    0    0 -0.0000000000e+00 -0.0000000000e+00 -5.0000000000e+02 5.0000000000e+02 0.0000000000e+00 0.0000e+00 -1.0000e+00
      -11  1    1    2    0    0 +3.9540069793e+01 -1.0442678892e+01 +4.8051392365e+02 4.8225107308e+02 0.0000000000e+00 0.0000e+00 1.0000e+00
       11  1    1    2    0    0 -2.2269041524e+00 +5.7682667578e+00 -4.4360910309e+02 4.4365219299e+02 0.0000000000e+00 0.0000e+00 -1.0000e+00
      -15  1    1    2    0    0 -3.5796499697e+01 +5.7671866468e+00 +7.9349694995e-01 3.6310290535e+01 1.7770000000e+00 0.0000e+00 1.0000e+00
       15  1    1    2    0    0 -1.5166659440e+00 -1.0927745130e+00 -3.7698317518e+01 3.7786443394e+01 1.7770000000e+00 0.0000e+00 -1.0000e+00
</event>
<event>
 6 1 7.08916e-05 5.04266900e+02 7.54677100e-03 9.39031200e-02
      -11 -1    0    0    0    0 +0.0000000000e+00 +0.0000000000e+00 +5.0000000000e+02 5.0000000000e+02 0.0000000000e+00 0.0000e+00 -1.0000e+00
       11 -1    0    0    0    0 -0.0000000000e+00 -0.0000000000e+00 -5.0000000000e+02 5.0000000000e+02 0.0000000000e+00 0.0000e+00 -1.0000e+00
      -11  1    1    2    0    0 -3.0496118648e+00 +1.9064542833e+01 +4.9535695606e+02 4.9573306410e+02 0.0000000000e+00 0.0000e+00 -1.0000e+00
       11  1    1    2    0    0 +2.8238105113e+00 -4.5010707654e+00 -3.5527901006e+02 3.5531874216e+02 0.0000000000e+00 0.0000e+00 -1.0000e+00
      -15  1    1    2    0    0 -6.0840203429e+00 +7.3883552332e-01 +1.3678751813e+00 6.5261009014e+00 1.7770000000e+00 0.0000e+00 1.0000e+00
       15  1    1    2    0    0 +6.3098216964e+00 -1.5302307591e+01 -1.4144582118e+02 1.4242209283e+02 1.7770000000e+00 0.0000e+00 -1.0000e+00
</event>
<event>
 6 1 7.08916e-05 5.01067600e+02 7.54677100e-03 9.39742400e-02
      -11 -1    0    0    0    0 +0.0000000000e+00 +0.0000000000e+00 +5.0000000000e+02 5.0000000000e+02 0.0000000000e+00 0.0000e+00 1.0000e+00
       11 -1    0    0    0    0 -0.0000000000e+00 -0.0000000000e+00 -5.0000000000e+02 5.0000000000e+02 0.0000000000e+00 0.0000e+00 -1.0000e+00
      -11  1    1    2    0    0 +9.2387502347e+00 +6.1487062990e+00 +4.9880893085e+02 4.9893237076e+02 0.0000000000e+00 0.0000e+00 1.0000e+00
       11  1    1    2    0    0 +3.0243253336e+00 -4.9286184874e+00 -3.8642985938e+02 3.8647312202e+02 0.0000000000e+00 0.0000e+00 -1.0000e+00
      -15  1    1    2    0    0 +1.1143951168e+00 +1.6889236922e+00 -6.9411254800e+01 6.9463475018e+01 1.7770000000e+00 0.0000e+00 -1.0000e+00
       15  1    1    2    0    0 -1.3377470685e+01 -2.9090115038e+00 -4.2967816664e+01 4.5131032203e+01 1.7770000000e+00 0.0000e+00 -1.0000e+00
</event>
<event>
 6 1 7.08916e-05 5.00589900e+02 7.54677100e-03 9.39849100e-02
      -11 -1    0    0    0    0 +0.0000000000e+00 +0.0000000000e+00 +5.0000000000e+02 5.0000000000e+02 0.0000000000e+00 0.0000e+00 -1.0000e+00
       11 -1    0    0    0    0 -0.0000000000e+00 -0.0000000000e+00 -5.0000000000e+02 5.0000000000e+02 0.0000000000e+00 0.0000e+00 1.0000e+00
      -11  1    1    2    0    0 -8.8828016810e+00 -4.1010903366e+00 +4.3817423150e+02 4.3828344739e+02 0.0000000000e+00 0.0000e+00 -1.0000e+00
       11  1    1    2    0    0 +2.7022542537e+00 +1.1998690372e+01 -4.9925859294e+02 4.9941006535e+02 0.0000000000e+00 0.0000e+00 1.0000e+00
      -15  1    1    2    0    0 +8.3757993686e-01 +2.0781356745e-01 +1.7902446456e+01 1.8011108926e+01 1.7770000000e+00 0.0000e+00 -1.0000e+00
       15  1    1    2    0    0 +5.3429674905e+00 -8.1054136029e+00 +4.3181914979e+01 4.4295378332e+01 1.7770000000e+00 0.0000e+00 1.0000e+00
</event>
<event>
 6 1 7.08916e-05 5.09757200e+02 7.54677100e-03 9.37823800e-02
      -11 -1    0    0    0    0 +0.0000000000e+00 +0.0000000000e+00 +5.0000000000e+02 5.0000000000e+02 0.0000000000e+00 0.0000e+00 1.0000e+00
       11 -1    0    0    0    0 -0.0000000000e+00 -0.0000000000e+00 -5.0000000000e+02 5.0000000000e+02 0.0000000000e+00 0.0000e+00 -1.0000e+00
      -11  1    1    2    0    0 +8.0715186708e+00 +7.8111018823e-01 +4.9017570746e+02 4.9024278039e+02 0.0000000000e+00 0.0000e+00 1.0000e+00
       11  1    1    2    0    0 +6.8321789993e+00 +1.7813353889e+01 -4.6016965253e+02 4.6056498277e+02 0.0000000000e+00 0.0000e+00 -1.0000e+00
      -15  1    1    2    0    0 -1.2097692894e+01 -2.5285773740e+01 -3.0795608444e+01 4.1680352151e+01 1.7770000000e+00 0.0000e+00 1.0000e+00
       15  1    1    2    0    0 -2.8060047762e+00 +6.6913096633e+00 +7.8955351250e-01 7.5118846879e+00 1.7770000000e+00 0.0000e+00 -1.0000e+00
</event>
<event>
 6 1 7.08916e-05 5.00862300e+02 7.54677100e-03 9.39788200e-02
      -11 -1    0    0    0    0 +0.0000000000e+00 +0.0000000000e+00 +5.0000000000e+02 5.0000000000e+02 0.0000000000e+00 0.0000e+00 1.0000e+00
       11 -1    0    0    0    0 -0.0000000000e+00 -0.0000000000e+00 -5.0000000000e+02 5.0000000000e+02 0.0000000000e+00 0.0000e+00 -1.0000e+00
      -11  1    1    2    0    0 +9.9076427856e+00 -2.2909882167e+00 +3.9565220321e+02 3.9578286461e+02 0.0000000000e+00 0.0000e+00 1.0000e+00
       11  1    1    2    0    0 +6.0292341840e+00 +3.9091750542e+00 -4.9908593336e+02 4.9913765856e+02 0.0000000000e+00 0.0000e+00 -1.0000e+00
      -15  1    1    2    0    0 -1.1700010281e+01 -2.4507456027e+00 +4.9904544726e+01 5.1347032123e+01 1.7770000000e+00 0.0000e+00 -1.0000e+00
       15  1    1    2    0    0 -4.2368666885e+00 +8.3255876529e-01 +5.3529185424e+01 5.3732444711e+01 1.7770000000e+00 0.0000e+00 1.0000e+00
</event>
<event>
 6 1 7.08916e-05 5.01248700e+02 7.54677100e-03 9.39702000e-02
      -11 -1    0    0    0    0 +0.0000000000e+00 +0.0000000000e+00 +5.0000000000e+02 5.0000000000e+02 0.0000000000e+00 0.0000e+00 1.0000e+00
       11 -1    0    0    0    0 -0.0000000000e+00 -0.0000000000e+00 -5.0000000000e+02 5.0000000000e+02 0.0000000000e+00 0.0000e+00 -1.0000e+00
      -11  1    1    2    0    0 -3.8733308044e+00 +6.6547269957e+00 +4.2689739143e+02 4.2696682646e+02 0.0000000000e+00 0.0000e+00 1.0000e+00
       11  1    1    2    0    0 +2.6808101565e+00 -1.1378218304e+01 -4.9861424777e+02 4.9875125933e+02 0.0000000000e+00 0.0000e+00 -1.0000e+00
      -15  1    1    2    0    0 +5.4457371610e-02 +1.3240183655e+00 +6.9817741364e+01 6.9852922118e+01 1.7770000000e+00 0.0000e+00 -1.0000e+00
       15  1    1    2    0    0 +1.1380632763e+00 +3.3994729431e+00 +1.8991149757e+00 4.4289920978e+00 1.7770000000e+00 0.0000e+00 1.0000e+00
</event>
<event>
 6 1 7.08916e-05 5.04351300e+02 7.54677100e-03 9.39012600e-02
      -11 -1    0    0    0    0 +0.0000000000e+00 +0.0000000000e+00 +5.0000000000e+02 5.0000000000e+02 0.0000000000e+00 0.0000e+00 1.0000e+00
       11 -1    0    0    0    0 -0.0000000000e+00 -0.0000000000e+00 -5.0000000000e+02 5.0000000000e+02 0.0000000000e+00 0.0000e+00 1.0000e+00
      -11  1    1    2    0    0 +2.5088115582e+00 -6.7153699594e+00 +3.5567314324e+02 3.5574537966e+02 0.0000000000e+00 0.0000e+00 1.0000e+00
       11  1    1    2    0    0 -6.1001929948e+00 -3.9016181655e+00 -4.9559583169e+02 4.9564872982e+02 0.0000000000e+00 0.0000e+00 1.0000e+00
      -15  1    1    2    0    0 -2.0777125910e+00 +2.1398773291e+01 +1.3247074927e+02 1.3421580209e+02 1.7770000000e+00 0.0000e+00 1.0000e+00
       15  1    1    2    0    0 +5.6690940275e+00 -1.0781785166e+01 +7.4519391811e+00 1.4390088430e+01 1.7770000000e+00 0.0000e+00 -1.0000e+00
</event>
<event>
 6 1 7.08916e-05 5.82467500e+02 7.54677100e-03 9.23211200e-02
      -11 -1    0    0    0    0 +0.0000000000e+00 +0.0000000000e+00 +5.0000000000e+02 5.0000000000e+02 0.0000000000e+00 0.0000e+00 -1.0000e+00
       11 -1    0    0    0    0 -0.0000000000e+00 -0.0000000000e+00 -5.0000000000e+02 5.0000000000e+02 0.0000000000e+00 0.0000e+00 -1.0000e+00
      -11  1    1    2    0    0 -9.4581623121e-01 +1.7955285768e+01 +4.1714518435e+02 4.1753250375e+02 0.0000000000e+00 0.0000e+00 -1.0000e+00
       11  1    1    2    0    0 +1.9436568046e+01 -4.1847581738e+00 -2.7491048354e+02 2.7562849334e+02 0.0000000000e+00 0.0000e+00 -1.0000e+00
      -15  1    1    2    0    0 -4.4292310969e+01 -1.0636633382e+01 -2.2007918145e+02 2.2475086344e+02 1.7770000000e+00 0.0000e+00 -1.0000e+00
       15  1    1    2    0    0 +2.5801559155e+01 -3.1338942119e+00 +7.7844480639e+01 8.2088139476e+01 1.7770000000e+00 0.0000e+00 1.0000e+00
</event>
<event>
 6 1 7.08916e-05 5.00538000e+02 7.54677100e-03 9.39860700e-02
      -11 -1    0    0    0    0 +0.0000000000e+00 +0.0000000000e+00 +5.0000000000e+02 5.0000000000e+02 0.0000000000e+00 0.0000e+00 -1.0000e+00
       11 -1    0    0    0    0 -0.0000000000e+00 -0.0000000000e+00 -5.0000000000e+02 5.0000000000e+02 0.0000000000e+00 0.0000e+00 1.0000e+00
      -11  1    1    2    0    0 +9.1487033993e+00 -6.9451570420e-02 +3.5969617251e+02 3.5981250689e+02 0.0000000000e+00 0.0000e+00 -1.0000e+00
       11  1    1    2    0    0 +8.4518126238e-01 -6.9522804412e+00 -4.9941286448e+02 4.9946196827e+02 0.0000000000e+00 0.0000e+00 1.0000e+00
      -15  1    1    2    0    0 -7.1663435938e+00 +9.5925555502e+00 +8.6605006914e+01 8.7446889905e+01 1.7770000000e+00 0.0000e+00 1.0000e+00
       15  1    1    2    0    0 -2.8275410678e+00 -2.5708235386e+00 +5.3111685058e+01 5.3278634938e+01 1.7770000000e+00 0.0000e+00 -1.0000e+00
</event>
<event>
 6 1 7.08916e-05 5.06876000e+02 7.54677100e-03 9.38455400e-02
      -11 -1    0    0    0    0 +0.0000000000e+00 +0.0000000000e+00 +5.0000000000e+02 5.0000000000e+02 0.0000000000e+00 0.0000e+00 1.0000e+00
       11 -1    0    0    0    0 -0.0000000000e+00 -0.0000000000e+00 -5.0000000000e+02 5.0000000000e+02 0.0000000000e+00 0.0000e+00 -1.0000e+00
      -11  1    1    2    0    0 +1.1327062460e+01 -1.5282473205e+01 +4.0014148292e+02 4.0059338821e+02 0.0000000000e+00 0.0000e+00 1.0000e+00
       11  1    1    2    0    0 -1.8215299140e+01 +9.3490689064e-01 -4.9278657188e+02 4.9312399719e+02 0.0000000000e+00 0.0000e+00 -1.0000e+00
      -15  1    1    2    0    0 -1.4407815789e+01 +1.7814149333e+01 +1.9948124345e+01 3.0430485802e+01 1.7770000000e+00 0.0000e+00 1.0000e+00
       15  1    1    2    0    0 +2.1296052469e+01 -3.4665830181e+00 +7.2696964622e+01 7.5852128796e+01 1.7770000000e+00 0.0000e+00 -1.0000e+00
</event>
<event>
 6 1 7.08916e-05 5.00181200e+02 7.54677100e-03 9.39940400e-02
      -11 -1    0    0    0    0 +0.0000000000e+00 +0.0000000000e+00 +5.0000000000e+02 5.0000000000e+02 0.0000000000e+00 0.0000e+00 -1.0000e+00
       11 -1    0    0    0    0 -0.0000000000e+00 -0.0000000000e+00 -5.0000000000e+02 5.0000000000e+02 0.0000000000e+00 0.0000e+00 1.0000e+00
      -11  1    1    2    0    0 +5.7480843921e+00 -6.9237543689e+00 +4.9973780795e+02 4.9981882272e+02 0.0000000000e+00 0.0000e+00 -1.0000e+00
       11  1    1    2    0    0 -5.0930872234e+00 +1.2112197469e+01 -3.6381174035e+02 3.6404893529e+02 0.0000000000e+00 0.0000e+00 1.0000e+00
      -15  1    1    2    0    0 -2.0287882867e+00 -3.7543513241e+00 -1.0040140451e+02 1.0050776534e+02 1.7770000000e+00 0.0000e+00 -1.0000e+00
       15  1    1    2    0    0 +1.3737911180e+00 -1.4340917763e+00 -3.5524663081e+01 3.5624476659e+01 1.7770000000e+00 0.0000e+00 1.0000e+00
</event>
<event>
 6 1 7.08916e-05 5.07091400e+02 7.54677100e-03 9.38408000e-02
      -11 -1    0    0    0    0 +0.0000000000e+00 +0.0000000000e+00 +5.0000000000e+02 5.0000000000e+02 0.0000000000e+00 0.0000e+00 -1.0000e+00
       11 -1    0    0    0    0 -0.0000000000e+00 -0.0000000000e+00 -5.0000000000e+02 5.0000000000e+02 0.0000000000e+00 0.0000e+00 -1.0000e+00
      -11  1    1    2    0    0 -4.7866849742e+00 -8.3804867985e+00 +4.9281409744e+02 4.9290859147e+02 0.0000000000e+00 0.0000e+00 -1.0000e+00
       11  1    1    2    0    0 +1.7682227771e+01 +3.1279680184e+00 -4.6508031800e+02 4.6542684447e+02 0.0000000000e+00 0.0000e+00 -1.0000e+00
      -15  1    1    2    0    0 -2.9855190876e+00 -7.7606354367e-01 -2.9572836420e+01 2.9786338845e+01 1.7770000000e+00 0.0000e+00 -1.0000e+00
       15  1    1    2    0    0 -9.9100237091e+00 +6.0285823238e+00 +1.8390569789e+00 1.1878225218e+01 1.7770000000e+00 0.0000e+00 1.0000e+00
</event>
<event>
 6 1 7.08916e-05 5.08395200e+02 7.54677100e-03 9.38121800e-02
      -11 -1    0    0    0    0 +0.0000000000e+00 +0.0000000000e+00 +5.0000000000e+02 5.0000000000e+02 0.0000000000e+00 0.0000e+00 -1.0000e+00
       11 -1    0    0    0    0 -0.0000000000e+00 -0.0000000000e+00 -5.0000000000e+02 5.0000000000e+02 0.0000000000e+00 0.0000e+00 -1.0000e+00
      -11  1    1    2    0    0 -1.0795081801e+01 +7.6328727074e+00 +4.8089205222e+02 4.8107375778e+02 0.0000000000e+00 0.0000e+00 -1.0000e+00
       11  1    1    2    0    0 +6.8790604604e+00 +2.6776629104e+00 -4.9154935577e+02 4.9160478080e+02 0.0000000000e+00 0.0000e+00 -1.0000e+00
      -15  1    1    2    0    0 +8.4534082212e+00 -1.3076161203e+00 +1.4043143820e+01 1.6538971789e+01 1.7770000000e+00 0.0000e+00 -1.0000e+00
       15  1    1    2    0    0 -4.5373868801e+00 -9.0029194975e+00 -3.3858402776e+00 1.0782489627e+01 1.7770000000e+00 0.0000e+00 1.0000e+00
</event>
<event>
 6 1 7.08916e-05 5.00180000e+02 7.54677100e-03 9.39940700e-02
      -11 -1    0    0    0    0 +0.0000000000e+00 +0.0000000000e+00 +5.0000000000e+02 5.0000000000e+02 0.0000000000e+00 0.0000e+00 1.0000e+00
       11 -1    0    0    0    0 -0.0000000000e+00 -0.0000000000e+00 -5.0000000000e+02 5.0000000000e+02 0.0000000000e+00 0.0000e+00 1.0000e+00
      -11  1    1    2    0    0 -1.3659831906e+00 +2.9754229750e+01 +4.2512698203e+02 4.2616913420e+02 0.0000000000e+00 0.0000e+00 1.0000e+00
       11  1    1    2    0    0 +3.1216471718e+00 -2.9956037344e+01 -4.9891169828e+02 4.9981995912e+02 0.0000000000e+00 0.0000e+00 1.0000e+00
      -15  1    1    2    0    0 -3.2787772505e-01 -1.9385756955e+00 +3.2349590362e+01 3.2457962122e+01 1.7770000000e+00 0.0000e+00 1.0000e+00
       15  1    1    2    0    0 -1.4277862562e+00 +2.1403832891e+00 +4.1435125892e+01 4.1552944552e+01 1.7770000000e+00 0.0000e+00 -1.0000e+00
</event>
<event>
 6 1 7.08916e-05 5.03789800e+02 7.54677100e-03 9.39137000e-02
      -11 -1    0    0    0    0 +0.0000000000e+00 +0.0000000000e+00 +5.0000000000e+02 5.0000000000e+02 0.0000000000e+00 0.0000e+00 1.0000e+00
       11 -1    0    0    0    0 -0.0000000000e+00 -0.0000000000e+00 -5.0000000000e+02 5.0000000000e+02 0.0000000000e+00 0.0000e+00 1.0000e+00
      -11  1    1    2    0    0 +8.6764960018e+00 -3.3633030037e+00 +4.9612298366e+02 4.9621024607e+02 0.0000000000e+00 0.0000e+00 1.0000e+00
       11  1    1    2    0    0 -2.9784732636e+00 -7.1925953596e+00 -4.8500620639e+02 4.8506868067e+02 0.0000000000e+00 0.0000e+00 1.0000e+00
      -15  1    1    2    0    0 -1.8732581092e+00 -9.2837342429e-01 -2.8474659414e+00 3.9543348930e+00 1.7770000000e+00 0.0000e+00 -1.0000e+00
       15  1    1    2    0    0 -3.8247646291e+00 +1.1484271788e+01 -8.2693113348e+00 1.4766738364e+01 1.7770000000e+00 0.0000e+00 1.0000e+00
</event>
<event>
 6 1 7.08916e-05 5.14648400e+02 7.54677100e-03 9.36761700e-02
      -11 -1    0    0    0    0 +0.0000000000e+00 +0.0000000000e+00 +5.0000000000e+02 5.0000000000e+02 0.0000000000e+00 0.0000e+00 1.0000e+00
       11 -1    0    0    0    0 -0.0000000000e+00 -0.0000000000e+00 -5.0000000000e+02 5.0000000000e+02 0.0000000000e+00 0.0000e+00 -1.0000e+00
      -11  1    1    2    0    0 +6.2605636042e+00 -2.4027580749e+01 +4.3323376648e+02 4.3394471505e+02 0.0000000000e+00 0.0000e+00 1.0000e+00
       11  1    1    2    0    0 +6.1952217091e+00 -6.3693853057e+00 -4.8527029203e+02 4.8535163147e+02 0.0000000000e+00 0.0000e+00 -1.0000e+00
      -15  1    1    2    0    0 -1.5564951625e+00 +7.2366674097e+00 -1.0579982233e+01 1.3034024146e+01 1.7770000000e+00 0.0000e+00 -1.0000e+00
       15  1    1    2    0    0 -1.0899290151e+01 +2.3160298645e+01 +6.2616507781e+01 6.7669629338e+01 1.7770000000e+00 0.0000e+00 1.0000e+00
</event>
<event>
 6 1 7.08916e-05 5.00003700e+02 7.54677100e-03 9.39980100e-02
      -11 -1    0    0    0    0 +0.0000000000e+00 +0.0000000000e+00 +5.0000000000e+02 5.0000000000e+02 0.0000000000e+00 0.0000e+00 -1.0000e+00
       11 -1    0    0    0    0 -0.0000000000e+00 -0.0000000000e+00 -5.0000000000e+02 5.0000000000e+02 0.0000000000e+00 0.0000e+00 1.0000e+00
      -11  1    1    2    0    0 -1.6109896706e+01 +3.9617908868e+00 -2.7788804433e+02 2.7838281150e+02 0.0000000000e+00 0.0000e+00 1.0000e+00
       11  1    1    2    0    0 -8.4136404908e+00 -9.2410029723e+00 -2.2126825921e+02 2.2162091060e+02 0.0000000000e+00 0.0000e+00 -1.0000e+00
      -15  1    1    2    0    0 +6.4284284639e+00 +8.1000984248e+00 +1.6402866333e+02 1.6436391456e+02 1.7770000000e+00 0.0000e+00 -1.0000e+00
       15  1    1    2    0    0 +1.8095108732e+01 -2.8208863393e+00 +3.3512764021e+02 3.3563236334e+02 1.7770000000e+00 0.0000e+00 -1.0000e+00
</event>
<event>
 6 1 7.08916e-05 5.17524800e+02 7.54677100e-03 9.36142800e-02
      -11 -1    0    0    0    0 +0.0000000000e+00 +0.0000000000e+00 +5.0000000000e+02 5.0000000000e+02 0.0000000000e+00 0.0000e+00 -1.0000e+00
       11 -1    0    0    0    0 -0.0000000000e+00 -0.0000000000e+00 -5.0000000000e+02 5.0000000000e+02 0.0000000000e+00 0.0000e+00 -1.0000e+00
      -11  1    1    2    0    0 -5.9058113752e+00 +6.9067517141e+00 +3.9978651733e+02 3.9988978640e+02 0.0000000000e+00 0.0000e+00 -1.0000e+00
       11  1    1    2    0    0 -4.3249763597e+00 -8.8784489579e+00 -4.8237410674e+02 4.8247519225e+02 0.0000000000e+00 0.0000e+00 -1.0000e+00
      -15  1    1    2    0    0 +3.8025552376e+01 +3.2745678453e+00 +8.1174927564e+01 8.9717289427e+01 1.7770000000e+00 0.0000e+00 -1.0000e+00
       15  1    1    2    0    0 -2.7794764641e+01 -1.3028706015e+00 +1.4126618464e+00 2.7917731924e+01 1.7770000000e+00 0.0000e+00 1.0000e+00
</event>
<event>
 6 1 7.08916e-05 5.02551100e+02 7.54677100e-03 9.39412000e-02
      -11 -1    0    0    0    0 +0.0000000000e+00 +0.0000000000e+00 +5.0000000000e+02 5.0000000000e+02 0.0000000000e+00 0.0000e+00 1.0000e+00
       11 -1    0    0    0    0 -0.0000000000e+00 -0.0000000000e+00 -5.0000000000e+02 5.0000000000e+02 0.0000000000e+00 0.0000e+00 1.0000e+00
      -11  1    1    2    0    0 -1.3320183354e+01 -1.0799773048e+01 +4.9715328731e+02 4.9744894559e+02 0.0000000000e+00 0.0000e+00 1.0000e+00
       11  1    1    2    0    0 -8.3309577337e+00 +1.0047041118e+01 -3.9343716189e+02 3.9365358915e+02 0.0000000000e+00 0.0000e+00 1.0000e+00
      -15  1    1    2    0    0 +2.3987447446e+01 -5.8920277778e+00 -9.0378927076e+01 9.3710307943e+01 1.7770000000e+00 0.0000e+00 -1.0000e+00
       15  1    1    2    0    0 -2.3363063584e+00 +6.6447597082e+00 -1.3337198343e+01 1.5187157325e+01 1.7770000000e+00 0.0000e+00 1.0000e+00
</event>
<event>
 6 1 7.08916e-05 5.00393500e+02 7.54677100e-03 9.39893000e-02
      -11 -1    0    0    0    0 +0.0000000000e+00 +0.0000000000e+00 +5.0000000000e+02 5.0000000000e+02 0.0000000000e+00 0.0000e+00 1.0000e+00
       11 -1    0    0    0    0 -0.0000000000e+00 -0.0000000000e+00 -5.0000000000e+02 5.0000000000e+02 0.0000000000e+00 0.0000e+00 1.0000e+00
      -11  1    1    2    0    0 -1.7099666756e+00 -2.8591006472e+00 +2.2609953015e+02 2.2612407209e+02 0.0000000000e+00 0.0000e+00 1.0000e+00
       11  1    1    2    0    0 -1.6585946588e+00 -1.3625379205e+01 -4.9941795054e+02 4.9960653640e+02 0.0000000000e+00 0.0000e+00 1.0000e+00
      -15  1    1    2    0    0 +7.5876103445e+00 +1.6477133186e+01 +2.1440567698e+02 2.1517904127e+02 1.7770000000e+00 0.0000e+00 1.0000e+00
       15  1    1    2    0    0 -4.2190490100e+00 +7.3466658379e-03 +5.8912743398e+01 5.9090350246e+01 1.7770000000e+00 0.0000e+00 -1.0000e+00
</event>
<event>
 6 1 7.08916e-05 5.02136100e+02 7.54677100e-03 9.39504300e-02
      -11 -1    0    0    0    0 +0.0000000000e+00 +0.0000000000e+00 +5.0000000000e+02 5.0000000000e+02 0.0000000000e+00 0.0000e+00 -1.0000e+00
       11 -1    0    0    0    0 -0.0000000000e+00 -0.0000000000e+00 -5.0000000000e+02 5.0000000000e+02 0.0000000000e+00 0.0000e+00 -1.0000e+00
      -11  1    1    2    0    0 -1.6957339169e+01 -4.5689173794e+00 +4.6457419092e+02 4.6490601763e+02 0.0000000000e+00 0.0000e+00 -1.0000e+00
       11  1    1    2    0    0 +2.3231909688e+00 +7.2675867448e+00 -4.9780545648e+02 4.9786392472e+02 0.0000000000e+00 0.0000e+00 -1.0000e+00
      -15  1    1    2    0    0 +8.6236492608e+00 -3.8865867303e+00 +1.4168787548e+01 1.7128489500e+01 1.7770000000e+00 0.0000e+00 -1.0000e+00
       15  1    1    2    0    0 +6.0104989389e+00 +1.1879173649e+00 +1.9062478010e+01 2.0101568149e+01 1.7770000000e+00 0.0000e+00 1.0000e+00
</event>
<event>
 6 1 7.08916e-05 5.02701700e+02 7.54677100e-03 9.39378500e-02
      -11 -1    0    0    0    0 +0.0000000000e+00 +0.0000000000e+00 +5.0000000000e+02 5.0000000000e+02 0.0000000000e+00 0.0000e+00 1.0000e+00
       11 -1    0    0    0    0 -0.0000000000e+00 -0.0000000000e+00 -5.0000000000e+02 5.0000000000e+02 0.0000000000e+00 0.0000e+00 1.0000e+00
      -11  1    1    2    0    0 +1.2821640015e+01 +3.4350933609e+00 +3.8262052422e+02 3.8285070181e+02 0.0000000000e+00 0.0000e+00 1.0000e+00
       11  1    1    2    0    0 +1.1365519812e+01 -1.1808399349e+01 -4.9702820015e+02 4.9729834615e+02 0.0000000000e+00 0.0000e+00 1.0000e+00
      -15  1    1    2    0    0 -2.5705279950e+01 +4.1804055837e+00 +6.2642341854e+01 6.7863524298e+01 1.7770000000e+00 0.0000e+00 1.0000e+00
       15  1    1    2    0    0 +1.5181201223e+00 +4.1929004040e+00 +5.1765334077e+01 5.1987427746e+01 1.7770000000e+00 0.0000e+00 -1.0000e+00
</event>
<event>
 6 1 7.08916e-05 5.03747200e+02 7.54677100e-03 9.39146400e-02
      -11 -1    0    0    0    0 +0.0000000000e+00 +0.0000000000e+00 +5.0000000000e+02 5.0000000000e+02 0.0000000000e+00 0.0000e+00 -1.0000e+00
       11 -1    0    0    0    0 -0.0000000000e+00 -0.0000000000e+00 -5.0000000000e+02 5.0000000000e+02 0.0000000000e+00 0.0000e+00 -1.0000e+00
      -11  1    1    2    0    0 -1.2869013361e+01 -3.0922281122e+00 +4.9607631726e+02 4.9625284475e+02 0.0000000000e+00 0.0000e+00 -1.0000e+00
       11  1    1    2    0    0 -7.7989513378e+00 -8.2535479748e+00 -4.3337394766e+02 4.3352269053e+02 0.0000000000e+00 0.0000e+00 -1.0000e+00
      -15  1    1    2    0    0 +6.7558030974e+00 -1.5980109713e+00 -3.4097201185e+00 7.9358953396e+00 1.7770000000e+00 0.0000e+00 1.0000e+00
       15  1    1    2    0    0 +1.3912161601e+01 +1.2943787058e+01 -5.9292649477e+01 6.2288569375e+01 1.7770000000e+00 0.0000e+00 -1.0000e+00
</event>
<event>
 6 1 7.08916e-05 5.00193500e+02 7.54677100e-03 9.39937700e-02
      -11 -1    0    0    0    0 +0.0000000000e+00 +0.0000000000e+00 +5.0000000000e+02 5.0000000000e+02 0.0000000000e+00 0.0000e+00 1.0000e+00
       11 -1    0    0    0    0 -0.0000000000e+00 -0.0000000000e+00 -5.0000000000e+02 5.0000000000e+02 0.0000000000e+00 0.0000e+00 -1.0000e+00
      -11  1    1    2    0    0 -7.0919576832e+00 -7.0032025730e-01 +2.8097442396e+02 2.8106478476e+02 0.0000000000e+00 0.0000e+00 1.0000e+00
       11  1    1    2    0    0 +1.0035647667e-01 +1.1048825901e+01 -4.9968440044e+02 4.9980654924e+02 0.0000000000e+00 0.0000e+00 -1.0000e+00
      -15  1    1    2    0    0 +6.6482378419e+00 -7.6446800771e+00 +1.6591578811e+02 1.6623431256e+02 1.7770000000e+00 0.0000e+00 1.0000e+00
       15  1    1    2    0    0 +3.4336336469e-01 -2.7038255664e+00 +5.2794188368e+01 5.2894353438e+01 1.7770000000e+00 0.0000e+00 -1.0000e+00
</event>
<event>
 6 1 7.08916e-05 5.10087600e+02 7.54677100e-03 9.37751700e-02
      -11 -1    0    0    0    0 +0.0000000000e+00 +0.0000000000e+00 +5.0000000000e+02 5.0000000000e+02 0.0000000000e+00 0.0000e+00 1.0000e+00
       11 -1    0    0    0    0 -0.0000000000e+00 -0.0000000000e+00 -5.0000000000e+02 5.0000000000e+02 0.0000000000e+00 0.0000e+00 -1.0000e+00
      -11  1    1    2    0    0 -9.2847875047e+00 -4.9666161145e+00 +4.8979926802e+02 4.8991243862e+02 0.0000000000e+00 0.0000e+00 1.0000e+00
       11  1    1    2    0    0 +2.5662413842e+01 +2.1544814535e+00 -3.4420002000e+02 3.4516207069e+02 0.0000000000e+00 0.0000e+00 -1.0000e+00
      -15  1    1    2    0    0 -3.2344338488e+01 +2.4238253551e+00 -1.4526435914e+02 1.4885201687e+02 1.7770000000e+00 0.0000e+00 1.0000e+00
       15  1    1    2    0    0 +1.5966712150e+01 +3.8830930585e-01 -3.3488887975e-01 1.6073473818e+01 1.7770000000e+00 0.0000e+00 -1.0000e+00
</event>
<event>
 6 1 7.08916e-05 5.25011400e+02 7.54677100e-03 9.34552100e-02
      -11 -1    0    0    0    0 +0.0000000000e+00 +0.0000000000e+00 +5.0000000000e+02 5.0000000000e+02 0.0000000000e+00 0.0000e+00 -1.0000e+00
       11 -1    0    0    0    0 -0.0000000000e+00 -0.0000000000e+00 -5.0000000000e+02 5.0000000000e+02 0.0000000000e+00 0.0000e+00 1.0000e+00
      -11  1    1    2    0    0 +3.5313948344e-01 +1.5621582208e+01 +4.4408913488e+02 4.4436394798e+02 0.0000000000e+00 0.0000e+00 -1.0000e+00
       11  1    1    2    0    0 +6.9841843519e+00 +1.2178614627e+01 -4.7478105573e+02 4.7498857709e+02 0.0000000000e+00 0.0000e+00 1.0000e+00
      -15  1    1    2    0    0 +5.0344700582e+00 -4.9365235031e+01 +2.0284540062e+01 5.3636672277e+01 1.7770000000e+00 0.0000e+00 1.0000e+00
       15  1    1    2    0    0 -1.2371793894e+01 +2.1565038196e+01 +1.0407380783e+01 2.7010802659e+01 1.7770000000e+00 0.0000e+00 -1.0000e+00
</event>
<event>
 6 1 7.08916e-05 5.10132400e+02 7.54677100e-03 9.37741900e-02
      -11 -1    0    0    0    0 +0.0000000000e+00 +0.0000000000e+00 +5.0000000000e+02 5.0000000000e+02 0.0000000000e+00 0.0000e+00 -1.0000e+00
       11 -1    0    0    0    0 -0.0000000000e+00 -0.0000000000e+00 -5.0000000000e+02 5.0000000000e+02 0.0000000000e+00 0.0000e+00 -1.0000e+00
      -11  1    1    2    0    0 +7.4779526442e+00 +2.5162381727e+00 +3.9822773059e+02 3.9830588326e+02 0.0000000000e+00 0.0000e+00 -1.0000e+00
       11  1    1    2    0    0 -8.9528589948e+00 +6.4579724217e+00 -4.8974321285e+02 4.8986760826e+02 0.0000000000e+00 0.0000e+00 -1.0000e+00
      -15  1    1    2    0    0 -1.9354393940e+01 -2.2469997321e+01 +7.8095033565e+01 8.3555283142e+01 1.7770000000e+00 0.0000e+00 -1.0000e+00
       15  1    1    2    0    0 +2.0829300291e+01 +1.3495786727e+01 +1.3420448688e+01 2.8271225335e+01 1.7770000000e+00 0.0000e+00 1.0000e+00
</event>
<event>
 6 1 7.08916e-05 5.00390600e+02 7.54677100e-03 9.39893600e-02
      -11 -1    0    0    0    0 +0.0000000000e+00 +0.0000000000e+00 +5.0000000000e+02 5.0000000000e+02 0.0000000000e+00 0.0000e+00 -1.0000e+00
       11 -1    0    0    0    0 -0.0000000000e+00 -0.0000000000e+00 -5.0000000000e+02 5.0000000000e+02 0.0000000000e+00 0.0000e+00 -1.0000e+00
      -11  1    1    2    0    0 +4.4437590672e+00 -4.6169290319e+00 +4.4791529705e+01 4.5247587357e+01 0.0000000000e+00 0.0000e+00 -1.0000e+00
       11  1    1    2    0    0 -4.9185273172e+00 +8.5427320120e+00 -4.9951216898e+02 4.9960942459e+02 0.0000000000e+00 0.0000e+00 -1.0000e+00
      -15  1    1    2    0    0 -4.2414003886e+00 -6.8249612739e+00 +4.0499198386e+02 4.0507559084e+02 1.7770000000e+00 0.0000e+00 1.0000e+00
       15  1    1    2    0    0 +4.7161686385e+00 +2.8991582938e+00 +4.9728655413e+01 5.0067397212e+01 1.7770000000e+00 0.0000e+00 -1.0000e+00
</event>
<event>
 6 1 7.08916e-05 5.00058300e+02 7.54677100e-03 9.39967900e-02
      -11 -1    0    0    0    0 +0.0000000000e+00 +0.0000000000e+00 +5.0000000000e+02 5.0000000000e+02 0.0000000000e+00 0.0000e+00 -1.0000e+00
       11 -1    0    0    0    0 -0.0000000000e+00 -0.0000000000e+00 -5.0000000000e+02 5.0000000000e+02 0.0000000000e+00 0.0000e+00 -1.0000e+00
      -11  1    1    2    0    0 -8.7308242717e+00 -3.6803337936e+00 +4.9985189997e+02 4.9994169065e+02 0.0000000000e+00 0.0000e+00 -1.0000e+00
       11  1    1    2    0    0 +5.8830798378e+00 +6.3440967815e+00 -3.1157291105e+02 3.1169301740e+02 0.0000000000e+00 0.0000e+00 -1.0000e+00
      -15  1    1    2    0    0 +1.6893149825e+00 -2.4243718234e-01 -8.9219528160e+01 8.9253540518e+01 1.7770000000e+00 0.0000e+00 -1.0000e+00
       15  1    1    2    0    0 +1.1584294515e+00 -2.4213258056e+00 -9.9059460756e+01 9.9111751431e+01 1.7770000000e+00 0.0000e+00 -1.0000e+00
</event>
<event>
 6 1 7.08916e-05 5.01194700e+02 7.54677100e-03 9.39714100e-02
      -11 -1    0    0    0    0 +0.0000000000e+00 +0.0000000000e+00 +5.0000000000e+02 5.0000000000e+02 0.0000000000e+00 0.0000e+00 -1.0000e+00
       11 -1    0    0    0    0 -0.0000000000e+00 -0.0000000000e+00 -5.0000000000e+02 5.0000000000e+02 0.0000000000e+00 0.0000e+00 -1.0000e+00
      -11  1    1    2    0    0 -1.0704894873e+00 -3.6122155679e+00 +7.9174718820e+01 7.9264305644e+01 0.0000000000e+00 0.0000e+00 -1.0000e+00
       11  1    1    2    0    0 +7.8968825932e+00 -1.4369689743e+01 -4.9853576267e+02 4.9880532816e+02 0.0000000000e+00 0.0000e+00 -1.0000e+00
      -15  1    1    2    0    0 +4.7894062008e+00 +1.8242352247e+01 +3.8762522867e+02 3.8808787337e+02 1.7770000000e+00 0.0000e+00 -1.0000e+00
       15  1    1    2    0    0 -1.1615799307e+01 -2.6044693645e-01 +3.1735815185e+01 3.3842492825e+01 1.7770000000e+00 0.0000e+00 1.0000e+00
</event>
<event>
 6 1 7.08916e-05 5.18187500e+02 7.54677100e-03 9.36000900e-02
      -11 -1    0    0    0    0 +0.0000000000e+00 +0.0000000000e+00 +5.0000000000e+02 5.0000000000e+02 0.0000000000e+00 0.0000e+00 1.0000e+00
       11 -1    0    0    0    0 -0.0000000000e+00 -0.0000000000e+00 -5.0000000000e+02 5.0000000000e+02 0.0000000000e+00 0.0000e+00 -1.0000e+00
      -11  1    1    2    0    0 -8.5238791036e+00 +4.7322652230e+00 +4.6917938127e+02 4.6928066512e+02 0.0000000000e+00 0.0000e+00 1.0000e+00
       11  1    1    2    0    0 -7.6344830050e+00 +5.0280701257e+00 -4.8172573760e+02 4.8181246672e+02 0.0000000000e+00 0.0000e+00 -1.0000e+00
      -15  1    1    2    0    0 +8.8739160312e+00 -5.8000497922e+00 -1.5917332399e+01 1.9206930078e+01 1.7770000000e+00 0.0000e+00 1.0000e+00
       15  1    1    2    0    0 +7.2844460774e+00 -3.9602855565e+00 +2.8463688738e+01 2.9699938079e+01 1.7770000000e+00 0.0000e+00 -1.0000e+00
</event>
<event>
 6 1 7.08916e-05 5.01023400e+02 7.54677100e-03 9.39752300e-02
      -11 -1    0    0    0    0 +0.0000000000e+00 +0.0000000000e+00 +5.0000000000e+02 5.0000000000e+02 0.0000000000e+00 0.0000e+00 1.0000e+00
       11 -1    0    0    0    0 -0.0000000000e+00 -0.0000000000e+00 -5.0000000000e+02 5.0000000000e+02 0.0000000000e+00 0.0000e+00 1.0000e+00
      -11  1    1    2    0    0 -2.5638659132e+00 +8.5563657431e+00 +4.9889661955e+02 4.9897657440e+02 0.0000000000e+00 0.0000e+00 1.0000e+00
       11  1    1    2    0    0 +7.6370179924e+00 -5.7189907556e+00 -3.9579393040e+02 3.9590891154e+02 0.0000000000e+00 0.0000e+00 1.0000e+00
      -15  1    1    2    0    0 -5.2093001919e+00 +3.3344854618e+00 -9.2457333439e+01 9.2681021991e+01 1.7770000000e+00 0.0000e+00 1.0000e+00
       15  1    1    2    0    0 +1.3614811266e-01 -6.1718604492e+00 -1.0645355713e+01 1.2433492067e+01 1.7770000000e+00 0.0000e+00 -1.0000e+00
</event>
<event>
 6 1 7.08916e-05 5.05670400e+02 7.54677100e-03 9.38721000e-02
      -11 -1    0    0    0    0 +0.0000000000e+00 +0.0000000000e+00 +5.0000000000e+02 5.0000000000e+02 0.0000000000e+00 0.0000e+00 1.0000e+00
       11 -1    0    0    0    0 -0.0000000000e+00 -0.0000000000e+00 -5.0000000000e+02 5.0000000000e+02 0.0000000000e+00 0.0000e+00 -1.0000e+00
      -11  1    1    2    0    0 +4.6219051698e+00 +5.4841312291e+00 +4.7258513957e+02 4.7263955806e+02 0.0000000000e+00 0.0000e+00 1.0000e+00
       11  1    1    2    0    0 +4.8042615719e+00 +1.4725375545e+01 -4.9408688625e+02 4.9432961552e+02 0.0000000000e+00 0.0000e+00 -1.0000e+00
      -15  1    1    2    0    0 -3.2432424623e+00 -1.2494323999e+01 +1.8343943110e+01 2.2500771802e+01 1.7770000000e+00 0.0000e+00 1.0000e+00
       15  1    1    2    0    0 -6.1829242794e+00 -7.7151827750e+00 +3.1578035658e+00 1.0530054618e+01 1.7770000000e+00 0.0000e+00 -1.0000e+00
</event>
<event>
 6 1 7.08916e-05 5.04649300e+02 7.54677100e-03 9.38946600e-02
      -11 -1    0    0    0    0 +0.0000000000e+00 +0.0000000000e+00 +5.0000000000e+02 5.0000000000e+02 0.0000000000e+00 0.0000e+00 -1.0000e+00
       11 -1    0    0    0    0 -0.0000000000e+00 -0.0000000000e+00 -5.0000000000e+02 5.0000000000e+02 0.0000000000e+00 0.0000e+00 -1.0000e+00
      -11  1    1    2    0    0 +9.3843833523e+00 +5.9346658148e+00 +4.9522619588e+02 4.9535065559e+02 0.0000000000e+00 0.0000e+00 -1.0000e+00
       11  1    1    2    0    0 +7.2170116570e+00 -2.3069013723e+00 -4.5637249408e+02 4.5643538469e+02 0.0000000000e+00 0.0000e+00 -1.0000e+00
      -15  1    1    2    0    0 -1.2761600696e+01 +5.6369208113e+00 -9.0649756749e+00 1.6732149938e+01 1.7770000000e+00 0.0000e+00 1.0000e+00
       15  1    1    2    0    0 -3.8397943136e+00 -9.2646852537e+00 -2.9788726131e+01 3.1481809775e+01 1.7770000000e+00 0.0000e+00 -1.0000e+00
</event>
<event>
 6 1 7.08916e-05 5.00384800e+02 7.54677100e-03 9.39894900e-02
      -11 -1    0    0    0    0 +0.0000000000e+00 +0.0000000000e+00 +5.0000000000e+02 5.0000000000e+02 0.0000000000e+00 0.0000e+00 1.0000e+00
       11 -1    0    0    0    0 -0.0000000000e+00 -0.0000000000e+00 -5.0000000000e+02 5.0000000000e+02 0.0000000000e+00 0.0000e+00 1.0000e+00
      -11  1    1    2    0    0 -8.2422309693e+00 +4.7025483563e+00 +7.3357479323e+01 7.3968696791e+01 0.0000000000e+00 0.0000e+00 1.0000e+00
       11  1    1    2    0    0 +4.0436243418e+00 +6.1542449383e+00 -4.9956089937e+02 4.9961516972e+02 0.0000000000e+00 0.0000e+00 1.0000e+00
      -15  1    1    2    0    0 +9.2076398761e-01 -9.0470365149e+00 +3.1189331533e+02 3.1203091922e+02 1.7770000000e+00 0.0000e+00 1.0000e+00
       15  1    1    2    0    0 +3.2778426398e+00 -1.8097567797e+00 +1.1431010473e+02 1.1438521427e+02 1.7770000000e+00 0.0000e+00 -1.0000e+00
</event>
<event>
 6 1 7.08916e-05 5.00570200e+02 7.54677100e-03 9.39853500e-02
      -11 -1    0    0    0    0 +0.0000000000e+00 +0.0000000000e+00 +5.0000000000e+02 5.0000000000e+02 0.0000000000e+00 0.0000e+00 1.0000e+00
       11 -1    0    0    0    0 -0.0000000000e+00 -0.0000000000e+00 -5.0000000000e+02 5.0000000000e+02 0.0000000000e+00 0.0000e+00 -1.0000e+00
      -11  1    1    2    0    0 +9.6645228551e+00 -1.5728018673e+01 +4.9908852724e+02 4.9942980647e+02 0.0000000000e+00 0.0000e+00 1.0000e+00
       11  1    1    2    0    0 +5.1727140812e+00 +1.6678327667e+00 -2.2134553896e+02 2.2141225407e+02 0.0000000000e+00 0.0000e+00 -1.0000e+00
      -15  1    1    2    0    0 -4.7301122877e+00 +7.1553555439e+00 -3.4297423512e+01 3.5398362445e+01 1.7770000000e+00 0.0000e+00 1.0000e+00
       15  1    1    2    0    0 -1.0107124649e+01 +6.9048303625e+00 -2.4344556476e+02 2.4375957701e+02 1.7770000000e+00 0.0000e+00 -1.0000e+00
</event>
<event>
 6 1 7.08916e-05 5.02705900e+02 7.54677100e-03 9.39377500e-02
      -11 -1    0    0    0    0 +0.0000000000e+00 +0.0000000000e+00 +5.0000000000e+02 5.0000000000e+02 0.0000000000e+00 0.0000e+00 1.0000e+00
       11 -1    0    0    0    0 -0.0000000000e+00 -0.0000000000e+00 -5.0000000000e+02 5.0000000000e+02 0.0000000000e+00 0.0000e+00 1.0000e+00
      -11  1    1    2    0    0 +7.6677211506e-01 +8.8262040251e+00 +4.9721517077e+02 4.9729409393e+02 0.0000000000e+00 0.0000e+00 1.0000e+00
       11  1    1    2    0    0 +1.6188332391e+01 -1.9626996759e+01 -4.2031632549e+02 4.2108561431e+02 0.0000000000e+00 0.0000e+00 1.0000e+00
      -15  1    1    2    0    0 -3.0778292449e+00 +5.2011129102e-01 -9.5424264193e-01 3.7164306311e+00 1.7770000000e+00 0.0000e+00 -1.0000e+00
       15  1    1    2    0    0 -1.3877275261e+01 +1.0280681443e+01 -7.5944602635e+01 7.7903861123e+01 1.7770000000e+00 0.0000e+00 1.0000e+00
</event>
<event>
 6 1 7.08916e-05 5.00675800e+02 7.54677100e-03 9.39829900e-02
      -11 -1    0    0    0    0 +0.0000000000e+00 +0.0000000000e+00 +5.0000000000e+02 5.0000000000e+02 0.0000000000e+00 0.0000e+00 -1.0000e+00
       11 -1    0    0    0    0 -0.0000000000e+00 -0.0000000000e+00 -5.0000000000e+02 5.0000000000e+02 0.0000000000e+00 0.0000e+00 -1.0000e+00
      -11  1    1    2    0    0 -6.9216332094e+00 -3.8743650928e+00 +4.9926120679e+02 4.9932421563e+02 0.0000000000e+00 0.0000e+00 -1.0000e+00
       11  1    1    2    0    0 -4.0422144553e+00 -2.1247197856e+00 -1.0654652968e+02 1.0664434781e+02 0.0000000000e+00 0.0000e+00 -1.0000e+00
      -15  1    1    2    0    0 +9.7913408624e+00 +4.9762351307e+00 -3.9088604957e+02 3.9104436417e+02 1.7770000000e+00 0.0000e+00 -1.0000e+00
       15  1    1    2    0    0 +1.1725068023e+00 +1.0228497477e+00 -1.8286275419e+00 2.9870723953e+00 1.7770000000e+00 0.0000e+00 1.0000e+00
</event>
<event>
 6 1 7.08916e-05 5.02473700e+02 7.54677100e-03 9.39429200e-02
      -11 -1    0    0    0    0 +0.0000000000e+00 +0.0000000000e+00 +5.0000000000e+02 5.0000000000e+02 0.0000000000e+00 0.0000e+00 1.0000e+00
       11 -1    0    0    0    0 -0.0000000000e+00 -0.0000000000e+00 -5.0000000000e+02 5.0000000000e+02 0.0000000000e+00 0.0000e+00 1.0000e+00
      -11  1    1    2    0    0 -7.5824212054e+00 +8.8983195414e-01 +3.5435818214e+02 3.5444041271e+02 0.0000000000e+00 0.0000e+00 1.0000e+00
       11  1    1    2    0    0 -1.5074168520e+01 +2.6914959600e+01 -4.9656897573e+02 4.9752627394e+02 0.0000000000e+00 0.0000e+00 1.0000e+00
      -15  1    1    2    0    0 -9.9162190635e-02 -1.7509528512e+00 +1.0908247263e+00 2.7245727391e+00 1.7770000000e+00 0.0000e+00 1.0000e+00
       15  1    1    2    0    0 +2.2755751916e+01 -2.6053838703e+01 +1.4111996886e+02 1.4530874061e+02 1.7770000000e+00 0.0000e+00 -1.0000e+00
</event>
<event>
 6 1 7.08916e-05 5.08264300e+02 7.54677100e-03 9.38150500e-02
      -11 -1    0    0    0    0 +0.0000000000e+00 +0.0000000000e+00 +5.0000000000e+02 5.0000000000e+02 0.0000000000e+00 0.0000e+00 1.0000e+00
       11 -1    0    0    0    0 -0.0000000000e+00 -0.0000000000e+00 -5.0000000000e+02 5.0000000000e+02 0.0000000000e+00 0.0000e+00 -1.0000e+00
      -11  1    1    2    0    0 -1.8149746429e+01 -2.0057241036e+01 +4.9099112402e+02 4.9173569128e+02 0.0000000000e+00 0.0000e+00 1.0000e+00
       11  1    1    2    0    0 +1.1531329365e+01 +2.5988453224e+00 -4.1630951431e+02 4.1647729501e+02 0.0000000000e+00 0.0000e+00 -1.0000e+00
      -15  1    1    2    0    0 +2.0573113259e+01 +1.4521240309e+01 -1.2887119078e+01 2.8343517361e+01 1.7770000000e+00 0.0000e+00 1.0000e+00
       15  1    1    2    0    0 -1.3954696195e+01 +2.9371554052e+00 -6.1794490627e+01 6.3443496346e+01 1.7770000000e+00 0.0000e+00 1.0000e+00
</event>
<event>
 6 1 7.08916e-05 5.01164000e+02 7.54677100e-03 9.39720900e-02
      -11 -1    0    0    0    0 +0.0000000000e+00 +0.0000000000e+00 +5.0000000000e+02 5.0000000000e+02 0.0000000000e+00 0.0000e+00 -1.0000e+00
       11 -1    0    0    0    0 -0.0000000000e+00 -0.0000000000e+00 -5.0000000000e+02 5.0000000000e+02 0.0000000000e+00 0.0000e+00 -1.0000e+00
      -11  1    1    2    0    0 -9.9710981421e-01 +8.4546319338e+00 +3.4115662356e+02 3.4126282661e+02 0.0000000000e+00 0.0000e+00 -1.0000e+00
       11  1    1    2    0    0 -2.2304801967e+01 -7.9129736894e+00 -4.9827430322e+02 4.9883604580e+02 0.0000000000e+00 0.0000e+00 -1.0000e+00
      -15  1    1    2    0    0 +2.0143575300e+01 -1.7536315978e+00 +7.5104858258e+01 7.7799333625e+01 1.7770000000e+00 0.0000e+00 1.0000e+00
       15  1    1    2    0    0 +3.1583364809e+00 +1.2119733534e+00 +8.2012821399e+01 8.2101793961e+01 1.7770000000e+00 0.0000e+00 -1.0000e+00
</event>
<event>
 6 1 7.08916e-05 5.19870700e+02 7.54677100e-03 9.35641300e-02
      -11 -1    0    0    0    0 +0.0000000000e+00 +0.0000000000e+00 +5.0000000000e+02 5.0000000000e+02 0.0000000000e+00 0.0000e+00 -1.0000e+00
       11 -1    0    0    0    0 -0.0000000000e+00 -0.0000000000e+00 -5.0000000000e+02 5.0000000000e+02 0.0000000000e+00 0.0000e+00 -1.0000e+00
      -11  1    1    2    0    0 -1.0400696642e+01 -1.1683812051e+01 +4.7987438865e+02 4.8012926888e+02 0.0000000000e+00 0.0000e+00 -1.0000e+00
       11  1    1    2    0    0 +7.0610850978e+01 -1.9758579066e+01 -4.0313422810e+02 4.0974809285e+02 0.0000000000e+00 0.0000e+00 -1.0000e+00
      -15  1    1    2    0    0 -4.8426177698e+01 +2.1727364079e+01 -3.0166309831e+01 6.1076484952e+01 1.7770000000e+00 0.0000e+00 1.0000e+00
       15  1    1    2    0    0 -1.1783976638e+01 +9.7150270379e+00 -4.6573850716e+01 4.9046153318e+01 1.7770000000e+00 0.0000e+00 -1.0000e+00
</event>
<event>
 6 1 7.08916e-05 5.19984400e+02 7.54677100e-03 9.35617100e-02
      -11 -1    0    0    0    0 +0.0000000000e+00 +0.0000000000e+00 +5.0000000000e+02 5.0000000000e+02 0.0000000000e+00 0.0000e+00 -1.0000e+00
       11 -1    0    0    0    0 -0.0000000000e+00 -0.0000000000e+00 -5.0000000000e+02 5.0000000000e+02 0.0000000000e+00 0.0000e+00 1.0000e+00
      -11  1    1    2    0    0 -5.3026076692e+00 +8.4087158766e+00 +4.7991264154e+02 4.8001559106e+02 0.0000000000e+00 0.0000e+00 -1.0000e+00
       11  1    1    2    0    0 +7.8152450139e+00 +3.7858510098e-01 -2.7124409233e+02 2.7135692179e+02 0.0000000000e+00 0.0000e+00 1.0000e+00
      -15  1    1    2    0    0 +2.0770430769e+00 -1.6374465947e+01 +1.6424446469e+01 2.3352888768e+01 1.7770000000e+00 0.0000e+00 -1.0000e+00
       15  1    1    2    0    0 -4.5896804216e+00 +7.5871649690e+00 -2.2509299568e+02 2.2527459837e+02 1.7770000000e+00 0.0000e+00 1.0000e+00
</event>
<event>
 6 1 7.08916e-05 4.30999900e+02 7.54677100e-03 9.56899500e-02
      -11 -1    0    0    0    0 +0.0000000000e+00 +0.0000000000e+00 +5.0000000000e+02 5.0000000000e+02 0.0000000000e+00 0.0000e+00 -1.0000e+00
       11 -1    0    0    0    0 -0.0000000000e+00 -0.0000000000e+00 -5.0000000000e+02 5.0000000000e+02 0.0000000000e+00 0.0000e+00 1.0000e+00
      -11  1    1    2    0    0 -1.3805392202e+01 -1.4066063285e+01 +4.2947229266e+02 4.2992428770e+02 0.0000000000e+00 0.0000e+00 -1.0000e+00
       11  1    1    2    0    0 -6.8698910855e+00 -2.0095105940e+00 -4.3241906263e+02 4.3247829918e+02 0.0000000000e+00 0.0000e+00 1.0000e+00
      -15  1    1    2    0    0 -5.5808703108e+01 -7.0428410764e+00 +1.0747052151e+01 5.7296333321e+01 1.7770000000e+00 0.0000e+00 -1.0000e+00
       15  1    1    2    0    0 +7.6483986396e+01 +2.3118414955e+01 -7.8002821861e+00 8.0301079795e+01 1.7770000000e+00 0.0000e+00 1.0000e+00
</event>
<event>
 6 1 7.08916e-05 4.89742000e+02 7.54677100e-03 9.42306000e-02
      -11 -1    0    0    0    0 +0.0000000000e+00 +0.0000000000e+00 +5.0000000000e+02 5.0000000000e+02 0.0000000000e+00 0.0000e+00 1.0000e+00
       11 -1    0    0    0    0 -0.0000000000e+00 -0.0000000000e+00 -5.0000000000e+02 5.0000000000e+02 0.0000000000e+00 0.0000e+00 -1.0000e+00
      -11  1    1    2    0    0 -7.7454093380e+00 -7.9733549815e-01 +4.9241814963e+02 4.9247970638e+02 0.0000000000e+00 0.0000e+00 1.0000e+00
       11  1    1    2    0    0 -3.5647770089e+00 +1.1164635212e+01 -4.8699838832e+02 4.8713939170e+02 0.0000000000e+00 0.0000e+00 -1.0000e+00
      -15  1    1    2    0    0 -1.5442610023e+00 -5.2044070089e-01 -3.0993454872e+00 3.9267380884e+00 1.7770000000e+00 0.0000e+00 -1.0000e+00
       15  1    1    2    0    0 +1.2854447349e+01 -9.8468590126e+00 -2.3204158195e+00 1.6454163839e+01 1.7770000000e+00 0.0000e+00 -1.0000e+00
</event>
<event>
 6 1 7.08916e-05 4.81856800e+02 7.54677100e-03 9.44134700e-02
      -11 -1    0    0    0    0 +0.0000000000e+00 +0.0000000000e+00 +5.0000000000e+02 5.0000000000e+02 0.0000000000e+00 0.0000e+00 -1.0000e+00
       11 -1    0    0    0    0 -0.0000000000e+00 -0.0000000000e+00 -5.0000000000e+02 5.0000000000e+02 0.0000000000e+00 0.0000e+00 1.0000e+00
      -11  1    1    2    0    0 -1.4864348161e+01 +2.0340821557e+01 +4.8795701659e+02 4.8860694623e+02 0.0000000000e+00 0.0000e+00 -1.0000e+00
       11  1    1    2    0    0 +1.0603821174e+01 +4.5137182152e+00 -4.7537884894e+02 4.7551852192e+02 0.0000000000e+00 0.0000e+00 1.0000e+00
      -15  1    1    2    0    0 +8.8404232525e+00 -1.7751367754e+01 +8.2773358653e-01 1.9927544061e+01 1.7770000000e+00 0.0000e+00 -1.0000e+00
       15  1    1    2    0    0 -4.5798962659e+00 -7.1031720184e+00 -1.3405901236e+01 1.5946987787e+01 1.7770000000e+00 0.0000e+00 1.0000e+00
</event>
<event>
 6 1 7.08916e-05 5.00177100e+02 7.54677100e-03 9.39941400e-02
      -11 -1    0    0    0    0 +0.0000000000e+00 +0.0000000000e+00 +5.0000000000e+02 5.0000000000e+02 0.0000000000e+00 0.0000e+00 -1.0000e+00
       11 -1    0    0    0    0 -0.0000000000e+00 -0.0000000000e+00 -5.0000000000e+02 5.0000000000e+02 0.0000000000e+00 0.0000e+00 1.0000e+00
      -11  1    1    2    0    0 -2.0538575634e+00 -4.3147656208e+00 +2.8335779203e+02 2.8339808369e+02 0.0000000000e+00 0.0000e+00 -1.0000e+00
       11  1    1    2    0    0 -6.9763455261e+00 -1.7218652391e+00 -4.9977126394e+02 4.9982291912e+02 0.0000000000e+00 0.0000e+00 1.0000e+00
      -15  1    1    2    0    0 +8.4094947232e+00 +3.1870063278e+00 +1.5901718858e+02 1.5928119978e+02 1.7770000000e+00 0.0000e+00 -1.0000e+00
       15  1    1    2    0    0 +6.2070836637e-01 +2.8496245322e+00 +5.7396283323e+01 5.7497797412e+01 1.7770000000e+00 0.0000e+00 1.0000e+00
</event>
<event>
 6 1 7.08916e-05 5.10451600e+02 7.54677100e-03 9.37672200e-02
      -11 -1    0    0    0    0 +0.0000000000e+00 +0.0000000000e+00 +5.0000000000e+02 5.0000000000e+02 0.0000000000e+00 0.0000e+00 -1.0000e+00
       11 -1    0    0    0    0 -0.0000000000e+00 -0.0000000000e+00 -5.0000000000e+02 5.0000000000e+02 0.0000000000e+00 0.0000e+00 1.0000e+00
      -11  1    1    2    0    0 -5.0654659265e+00 -1.0287554911e+01 +4.8941405080e+02 4.8954836926e+02 0.0000000000e+00 0.0000e+00 -1.0000e+00
       11  1    1    2    0    0 -1.5841619366e+01 -1.8742969498e+01 -4.1782203370e+02 4.1854212172e+02 0.0000000000e+00 0.0000e+00 1.0000e+00
      -15  1    1    2    0    0 +1.5187914321e+01 +2.1166154385e+01 -7.6528273589e+01 8.0860455232e+01 1.7770000000e+00 0.0000e+00 -1.0000e+00
       15  1    1    2    0    0 +5.7191709718e+00 +7.8643700235e+00 +4.9362564905e+00 1.1049053788e+01 1.7770000000e+00 0.0000e+00 1.0000e+00
</event>
<event>
 6 1 7.08916e-05 5.00265300e+02 7.54677100e-03 9.39921600e-02
      -11 -1    0    0    0    0 +0.0000000000e+00 +0.0000000000e+00 +5.0000000000e+02 5.0000000000e+02 0.0000000000e+00 0.0000e+00 -1.0000e+00
       11 -1    0    0    0    0 -0.0000000000e+00 -0.0000000000e+00 -5.0000000000e+02 5.0000000000e+02 0.0000000000e+00 0.0000e+00 -1.0000e+00
      -11  1    1    2    0    0 +2.8540581748e+00 -3.0981464415e+00 +8.8777408606e+01 8.8877288652e+01 0.0000000000e+00 0.0000e+00 -1.0000e+00
       11  1    1    2    0    0 +1.2341827981e+01 +1.6110915115e+00 -4.9957967342e+02 4.9973469604e+02 0.0000000000e+00 0.0000e+00 -1.0000e+00
      -15  1    1    2    0    0 -8.5890993251e+00 +6.5967971773e+00 +3.1919666147e+02 3.1938527953e+02 1.7770000000e+00 0.0000e+00 -1.0000e+00
       15  1    1    2    0    0 -6.6067868312e+00 -5.1097422473e+00 +9.1605603345e+01 9.2002735781e+01 1.7770000000e+00 0.0000e+00 1.0000e+00
</event>
<event>
 6 1 7.08916e-05 5.02593700e+02 7.54677100e-03 9.39402500e-02
      -11 -1    0    0    0    0 +0.0000000000e+00 +0.0000000000e+00 +5.0000000000e+02 5.0000000000e+02 0.0000000000e+00 0.0000e+00 1.0000e+00
       11 -1    0    0    0    0 -0.0000000000e+00 -0.0000000000e+00 -5.0000000000e+02 5.0000000000e+02 0.0000000000e+00 0.0000e+00 -1.0000e+00
      -11  1    1    2    0    0 +9.3978851254e+01 -2.1853208676e+01 +3.5632977360e+02 3.6916188152e+02 0.0000000000e+00 0.0000e+00 1.0000e+00
       11  1    1    2    0    0 -8.9151755580e+01 +1.3674060865e+01 -4.8916049610e+02 4.9740627902e+02 0.0000000000e+00 0.0000e+00 -1.0000e+00
      -15  1    1    2    0    0 +1.5067845721e+00 +1.6951313481e+00 +5.1028441079e+01 5.1109719212e+01 1.7770000000e+00 0.0000e+00 -1.0000e+00
       15  1    1    2    0    0 -6.3338802468e+00 +6.4840164638e+00 +8.1802281420e+01 8.2322120253e+01 1.7770000000e+00 0.0000e+00 1.0000e+00
</event>
<event>
 6 1 7.08916e-05 5.04177000e+02 7.54677100e-03 9.39051200e-02
      -11 -1    0    0    0    0 +0.0000000000e+00 +0.0000000000e+00 +5.0000000000e+02 5.0000000000e+02 0.0000000000e+00 0.0000e+00 1.0000e+00
       11 -1    0    0    0    0 -0.0000000000e+00 -0.0000000000e+00 -5.0000000000e+02 5.0000000000e+02 0.0000000000e+00 0.0000e+00 1.0000e+00
      -11  1    1    2    0    0 -5.6068334683e+00 +4.3054795798e+00 +4.6309930194e+02 4.6315325454e+02 0.0000000000e+00 0.0000e+00 1.0000e+00
       11  1    1    2    0    0 +5.9501098107e+00 -1.0742495662e+01 -4.9567088150e+02 4.9582298029e+02 0.0000000000e+00 0.0000e+00 1.0000e+00
      -15  1    1    2    0    0 -5.4296488905e+00 +8.7630738980e+00 +3.0100256962e+00 1.0885335774e+01 1.7770000000e+00 0.0000e+00 1.0000e+00
       15  1    1    2    0    0 +5.0863725481e+00 -2.3260578157e+00 +2.9561553864e+01 3.0138429397e+01 1.7770000000e+00 0.0000e+00 -1.0000e+00
</event>
<event>
 6 1 7.08916e-05 5.01316300e+02 7.54677100e-03 9.39686900e-02
      -11 -1    0    0    0    0 +0.0000000000e+00 +0.0000000000e+00 +5.0000000000e+02 5.0000000000e+02 0.0000000000e+00 0.0000e+00 -1.0000e+00
       11 -1    0    0    0    0 -0.0000000000e+00 -0.0000000000e+00 -5.0000000000e+02 5.0000000000e+02 0.0000000000e+00 0.0000e+00 -1.0000e+00
      -11  1    1    2    0    0 +1.1357523681e+01 +2.0350546423e+00 +4.9855018687e+02 4.9868369095e+02 0.0000000000e+00 0.0000e+00 -1.0000e+00
       11  1    1    2    0    0 -6.6164667222e+00 -6.0001054780e+00 -4.4597943723e+02 4.4606887061e+02 0.0000000000e+00 0.0000e+00 -1.0000e+00
      -15  1    1    2    0    0 -8.5708810306e+00 +7.0310885939e-01 -1.5668187161e+01 1.7961185418e+01 1.7770000000e+00 0.0000e+00 -1.0000e+00
       15  1    1    2    0    0 +3.8298240715e+00 +3.2619419763e+00 -3.6902562477e+01 3.7286253019e+01 1.7770000000e+00 0.0000e+00 1.0000e+00
</event>
<event>
 6 1 7.08916e-05 5.08995300e+02 7.54677100e-03 9.37990400e-02
      -11 -1    0    0    0    0 +0.0000000000e+00 +0.0000000000e+00 +5.0000000000e+02 5.0000000000e+02 0.0000000000e+00 0.0000e+00 -1.0000e+00
       11 -1    0    0    0    0 -0.0000000000e+00 -0.0000000000e+00 -5.0000000000e+02 5.0000000000e+02 0.0000000000e+00 0.0000e+00 1.0000e+00
      -11  1    1    2    0    0 +3.3751373664e+00 +8.2576214203e+00 +4.9092370458e+02 4.9100474904e+02 0.0000000000e+00 0.0000e+00 -1.0000e+00
       11  1    1    2    0    0 -3.4408482304e-02 -8.1848090369e+00 -4.7939049251e+02 4.7946035977e+02 0.0000000000e+00 0.0000e+00 1.0000e+00
      -15  1    1    2    0    0 -5.9494051734e+00 -6.9394406023e+00 +5.5601101193e+00 1.0845451181e+01 1.7770000000e+00 0.0000e+00 -1.0000e+00
       15  1    1    2    0    0 +2.6086762893e+00 +6.8666282189e+00 -1.7093322191e+01 1.8689440003e+01 1.7770000000e+00 0.0000e+00 1.0000e+00
</event>
<event>
 6 1 7.08916e-05 5.03391800e+02 7.54677100e-03 9.39225200e-02
      -11 -1    0    0    0    0 +0.0000000000e+00 +0.0000000000e+00 +5.0000000000e+02 5.0000000000e+02 0.0000000000e+00 0.0000e+00 -1.0000e+00
       11 -1    0    0    0    0 -0.0000000000e+00 -0.0000000000e+00 -5.0000000000e+02 5.0000000000e+02 0.0000000000e+00 0.0000e+00 1.0000e+00
      -11  1    1    2    0    0 -2.7555465878e-01 -9.6374144385e+00 +4.9651459137e+02 4.9660819076e+02 0.0000000000e+00 0.0000e+00 -1.0000e+00
       11  1    1    2    0    0 -6.7694351966e+00 +1.1677805043e-01 -4.7894946205e+02 4.7899731324e+02 0.0000000000e+00 0.0000e+00 1.0000e+00
      -15  1    1    2    0    0 +9.9560981369e+00 +7.6254582595e+00 -1.5373988301e+01 1.9919556950e+01 1.7770000000e+00 0.0000e+00 -1.0000e+00
       15  1    1    2    0    0 -2.9111082815e+00 +1.8951781286e+00 -2.1911410164e+00 4.4749390521e+00 1.7770000000e+00 0.0000e+00 1.0000e+00
</event>
<event>
 6 1 7.08916e-05 5.02404100e+02 7.54677100e-03 9.39444600e-02
      -11 -1    0    0    0    0 +0.0000000000e+00 +0.0000000000e+00 +5.0000000000e+02 5.0000000000e+02 0.0000000000e+00 0.0000e+00 -1.0000e+00
       11 -1    0    0    0    0 -0.0000000000e+00 -0.0000000000e+00 -5.0000000000e+02 5.0000000000e+02 0.0000000000e+00 0.0000e+00 1.0000e+00
      -11  1    1    2    0    0 +1.0921635975e+00 +6.2672722556e+00 +4.5087260253e+02 4.5091748163e+02 0.0000000000e+00 0.0000e+00 -1.0000e+00
       11  1    1    2    0    0 +5.5232029452e+00 +4.6505061057e+00 -4.9754348039e+02 4.9759586801e+02 0.0000000000e+00 0.0000e+00 1.0000e+00
      -15  1    1    2    0    0 +4.8249282697e+00 -1.9045338240e+00 +2.2940630328e+01 2.3586806285e+01 1.7770000000e+00 0.0000e+00 1.0000e+00
       15  1    1    2    0    0 -1.1440294812e+01 -9.0132445373e+00 +2.3730247535e+01 2.7899844078e+01 1.7770000000e+00 0.0000e+00 -1.0000e+00
</event>
<event>
 6 1 7.08916e-05 5.00128900e+02 7.54677100e-03 9.39952100e-02
      -11 -1    0    0    0    0 +0.0000000000e+00 +0.0000000000e+00 +5.0000000000e+02 5.0000000000e+02 0.0000000000e+00 0.0000e+00 1.0000e+00
       11 -1    0    0    0    0 -0.0000000000e+00 -0.0000000000e+00 -5.0000000000e+02 5.0000000000e+02 0.0000000000e+00 0.0000e+00 1.0000e+00
      -11  1    1    2    0    0 -8.4119465845e+00 +1.1636798544e+01 +4.9966485535e+02 4.9987112699e+02 0.0000000000e+00 0.0000e+00 1.0000e+00
       11  1    1    2    0    0 +4.3958037597e-01 -1.3161921924e+00 -8.7518800034e+01 8.7529800367e+01 0.0000000000e+00 0.0000e+00 1.0000e+00
      -15  1    1    2    0    0 +2.7200725442e+00 +1.4534805295e+00 -2.7050676926e+01 2.7283845979e+01 1.7770000000e+00 0.0000e+00 -1.0000e+00
       15  1    1    2    0    0 +5.2522936643e+00 -1.1774086881e+01 -3.8509537839e+02 3.8531522666e+02 1.7770000000e+00 0.0000e+00 1.0000e+00
</event>
<event>
 6 1 7.08916e-05 4.83812200e+02 7.54677100e-03 9.43677800e-02
      -11 -1    0    0    0    0 +0.0000000000e+00 +0.0000000000e+00 +5.0000000000e+02 5.0000000000e+02 0.0000000000e+00 0.0000e+00 -1.0000e+00
       11 -1    0    0    0    0 -0.0000000000e+00 -0.0000000000e+00 -5.0000000000e+02 5.0000000000e+02 0.0000000000e+00 0.0000e+00 -1.0000e+00
      -11  1    1    2    0    0 +1.0542387686e+01 -5.1977490382e+00 +4.8542931888e+02 4.8557160354e+02 0.0000000000e+00 0.0000e+00 -1.0000e+00
       11  1    1    2    0    0 -4.8886625927e+00 -1.1392637501e+01 -4.8205799331e+02 4.8221737850e+02 0.0000000000e+00 0.0000e+00 -1.0000e+00
      -15  1    1    2    0    0 -3.9278102332e+00 +6.0052149820e+00 +1.1572005662e+01 1.3731691238e+01 1.7770000000e+00 0.0000e+00 -1.0000e+00
       15  1    1    2    0    0 -1.7259148601e+00 +1.0585171557e+01 -1.4943331229e+01 1.8479326726e+01 1.7770000000e+00 0.0000e+00 1.0000e+00
</event>
<event>
 6 1 7.08916e-05 5.06457000e+02 7.54677100e-03 9.38547700e-02
      -11 -1    0    0    0    0 +0.0000000000e+00 +0.0000000000e+00 +5.0000000000e+02 5.0000000000e+02 0.0000000000e+00 0.0000e+00 1.0000e+00
       11 -1    0    0    0    0 -0.0000000000e+00 -0.0000000000e+00 -5.0000000000e+02 5.0000000000e+02 0.0000000000e+00 0.0000e+00 -1.0000e+00
      -11  1    1    2    0    0 +4.5405181506e+00 +2.2669975471e+01 +3.9695920933e+02 3.9763193780e+02 0.0000000000e+00 0.0000e+00 1.0000e+00
       11  1    1    2    0    0 -1.9739759707e+01 +7.2680622120e+00 -4.9309457346e+02 4.9354304900e+02 0.0000000000e+00 0.0000e+00 -1.0000e+00
      -15  1    1    2    0    0 -6.9209876196e+00 -1.8822745078e+01 +1.8585573242e+01 2.7400311379e+01 1.7770000000e+00 0.0000e+00 1.0000e+00
       15  1    1    2    0    0 +2.2120229176e+01 -1.1115292605e+01 +7.7549790895e+01 8.1424701813e+01 1.7770000000e+00 0.0000e+00 -1.0000e+00
</event>
<event>
 6 1 7.08916e-05 5.04686500e+02 7.54677100e-03 9.38938400e-02
      -11 -1    0    0    0    0 +0.0000000000e+00 +0.0000000000e+00 +5.0000000000e+02 5.0000000000e+02 0.0000000000e+00 0.0000e+00 -1.0000e+00
       11 -1    0    0    0    0 -0.0000000000e+00 -0.0000000000e+00 -5.0000000000e+02 5.0000000000e+02 0.0000000000e+00 0.0000e+00 1.0000e+00
      -11  1    1    2    0    0 -5.1340901290e+00 +7.8079397478e+00 +4.9522534108e+02 4.9531349795e+02 0.0000000000e+00 0.0000e+00 -1.0000e+00
       11  1    1    2    0    0 -1.9282150063e+00 -6.7664567994e+00 -4.7925087060e+02 4.7930251399e+02 0.0000000000e+00 0.0000e+00 1.0000e+00
      -15  1    1    2    0    0 +2.9705013645e+00 +9.5547342900e-01 +3.6736157531e+00 5.1371187967e+00 1.7770000000e+00 0.0000e+00 1.0000e+00
       15  1    1    2    0    0 +4.0918037708e+00 -1.9969563774e+00 -1.9648086241e+01 2.0246869259e+01 1.7770000000e+00 0.0000e+00 1.0000e+00
</event>
<event>
 6 1 7.08916e-05 5.07682200e+02 7.54677100e-03 9.38278200e-02
      -11 -1    0    0    0    0 +0.0000000000e+00 +0.0000000000e+00 +5.0000000000e+02 5.0000000000e+02 0.0000000000e+00 0.0000e+00 1.0000e+00
       11 -1    0    0    0    0 -0.0000000000e+00 -0.0000000000e+00 -5.0000000000e+02 5.0000000000e+02 0.0000000000e+00 0.0000e+00 1.0000e+00
      -11  1    1    2    0    0 +7.0315627304e+00 -1.6704347241e+00 +4.9226473331e+02 4.9231778445e+02 0.0000000000e+00 0.0000e+00 1.0000e+00
       11  1    1    2    0    0 -2.8741938707e+00 +1.1890874690e+01 -4.7364231995e+02 4.7380027558e+02 0.0000000000e+00 0.0000e+00 1.0000e+00
      -15  1    1    2    0    0 -1.2734282279e+00 +3.4066700008e+00 -1.9400781744e+01 1.9818553964e+01 1.7770000000e+00 0.0000e+00 1.0000e+00
       15  1    1    2    0    0 -2.8839406319e+00 -1.3627109966e+01 +7.7836839146e-01 1.4063386006e+01 1.7770000000e+00 0.0000e+00 -1.0000e+00
</event>
<event>
 6 1 7.08916e-05 5.06387600e+02 7.54677100e-03 9.38562900e-02
      -11 -1    0    0    0    0 +0.0000000000e+00 +0.0000000000e+00 +5.0000000000e+02 5.0000000000e+02 0.0000000000e+00 0.0000e+00 -1.0000e+00
       11 -1    0    0    0    0 -0.0000000000e+00 -0.0000000000e+00 -5.0000000000e+02 5.0000000000e+02 0.0000000000e+00 0.0000e+00 -1.0000e+00
      -11  1    1    2    0    0 -1.2507131010e+01 +9.3413337150e+00 +4.7409930392e+02 4.7435623620e+02 0.0000000000e+00 0.0000e+00 -1.0000e+00
       11  1    1    2    0    0 -5.9264826394e+00 -4.2119984101e+00 -4.9355880928e+02 4.9361236041e+02 0.0000000000e+00 0.0000e+00 -1.0000e+00
      -15  1    1    2    0    0 +1.1510404284e+01 -2.8622108361e+00 +2.1178239608e+01 2.4338389831e+01 1.7770000000e+00 0.0000e+00 1.0000e+00
       15  1    1    2    0    0 +6.9232093660e+00 -2.2671244687e+00 -1.7187342506e+00 7.6930135647e+00 1.7770000000e+00 0.0000e+00 -1.0000e+00
</event>
<event>
 6 1 7.08916e-05 5.09563300e+02 7.54677100e-03 9.37866200e-02
      -11 -1    0    0    0    0 +0.0000000000e+00 +0.0000000000e+00 +5.0000000000e+02 5.0000000000e+02 0.0000000000e+00 0.0000e+00 -1.0000e+00
       11 -1    0    0    0    0 -0.0000000000e+00 -0.0000000000e+00 -5.0000000000e+02 5.0000000000e+02 0.0000000000e+00 0.0000e+00 1.0000e+00
      -11  1    1    2    0    0 -1.5377072846e+01 -1.4476464602e+01 +4.1077079370e+02 4.1131334449e+02 0.0000000000e+00 0.0000e+00 -1.0000e+00
       11  1    1    2    0    0 +6.7175811802e+00 +2.7574086459e+00 -4.9038297103e+02 4.9043673137e+02 0.0000000000e+00 0.0000e+00 1.0000e+00
      -15  1    1    2    0    0 -5.5198972166e+00 +2.1842071478e+01 +7.7359912782e+01 8.0593170842e+01 1.7770000000e+00 0.0000e+00 1.0000e+00
       15  1    1    2    0    0 +1.4179388882e+01 -1.0123015522e+01 +2.2522645468e+00 1.7656753295e+01 1.7770000000e+00 0.0000e+00 -1.0000e+00
</event>
<event>
 6 1 7.08916e-05 5.04570400e+02 7.54677100e-03 9.38964100e-02
      -11 -1    0    0    0    0 +0.0000000000e+00 +0.0000000000e+00 +5.0000000000e+02 5.0000000000e+02 0.0000000000e+00 0.0000e+00 1.0000e+00
       11 -1    0    0    0    0 -0.0000000000e+00 -0.0000000000e+00 -5.0000000000e+02 5.0000000000e+02 0.0000000000e+00 0.0000e+00 -1.0000e+00
      -11  1    1    2    0    0 +5.5830632438e+00 +4.3414901494e+00 +4.6753187588e+02 4.6758536557e+02 0.0000000000e+00 0.0000e+00 1.0000e+00
       11  1    1    2    0    0 -1.0477244364e+01 +1.5163817984e+01 -4.9508664664e+02 4.9542961327e+02 0.0000000000e+00 0.0000e+00 -1.0000e+00
      -15  1    1    2    0    0 -4.5051423464e+00 -8.9629173137e+00 +8.9630724858e+00 1.3569251701e+01 1.7770000000e+00 0.0000e+00 -1.0000e+00
       15  1    1    2    0    0 +9.3993234668e+00 -1.0542390819e+01 +1.8591698267e+01 2.3415769457e+01 1.7770000000e+00 0.0000e+00 1.0000e+00
</event>
<event>
 6 1 7.08916e-05 4.87348900e+02 7.54677100e-03 9.42857100e-02
      -11 -1    0    0    0    0 +0.0000000000e+00 +0.0000000000e+00 +5.0000000000e+02 5.0000000000e+02 0.0000000000e+00 0.0000e+00 -1.0000e+00
       11 -1    0    0    0    0 -0.0000000000e+00 -0.0000000000e+00 -5.0000000000e+02 5.0000000000e+02 0.0000000000e+00 0.0000e+00 1.0000e+00
      -11  1    1    2    0    0 -6.0848924124e+00 +4.3824027845e+00 +4.8317113724e+02 4.8322932364e+02 0.0000000000e+00 0.0000e+00 -1.0000e+00
       11  1    1    2    0    0 -1.2370126367e+01 +4.7473644146e+00 -4.9154326361e+02 4.9172180905e+02 0.0000000000e+00 0.0000e+00 1.0000e+00
      -15  1    1    2    0    0 +1.4630332020e+01 -4.1413791038e+00 +1.0039725303e+01 1.8307142023e+01 1.7770000000e+00 0.0000e+00 -1.0000e+00
       15  1    1    2    0    0 +3.8246867597e+00 -4.9883880953e+00 -1.6675989325e+00 6.7417252836e+00 1.7770000000e+00 0.0000e+00 1.0000e+00
</event>
<event>
 6 1 7.08916e-05 5.03437900e+02 7.54677100e-03 9.39215000e-02
      -11 -1    0    0    0    0 +0.0000000000e+00 +0.0000000000e+00 +5.0000000000e+02 5.0000000000e+02 0.0000000000e+00 0.0000e+00 1.0000e+00
       11 -1    0    0    0    0 -0.0000000000e+00 -0.0000000000e+00 -5.0000000000e+02 5.0000000000e+02 0.0000000000e+00 0.0000e+00 -1.0000e+00
      -11  1    1    2    0    0 -5.3738644525e+00 +3.4546389309e+00 +4.3286852342e+02 4.3291566328e+02 0.0000000000e+00 0.0000e+00 1.0000e+00
       11  1    1    2    0    0 -9.2297166811e+00 -1.0635454238e+01 -4.9636243604e+02 4.9656214965e+02 0.0000000000e+00 0.0000e+00 -1.0000e+00
      -15  1    1    2    0    0 +7.3775037863e-01 -8.3260715245e+00 +2.8699067104e+01 2.9944313722e+01 1.7770000000e+00 0.0000e+00 -1.0000e+00
       15  1    1    2    0    0 +1.3865830755e+01 +1.5506886832e+01 +3.4794845515e+01 4.0577873344e+01 1.7770000000e+00 0.0000e+00 1.0000e+00
</event>
<event>
 6 1 7.08916e-05 5.07116800e+02 7.54677100e-03 9.38402500e-02
      -11 -1    0    0    0    0 +0.0000000000e+00 +0.0000000000e+00 +5.0000000000e+02 5.0000000000e+02 0.0000000000e+00 0.0000e+00 -1.0000e+00
       11 -1    0    0    0    0 -0.0000000000e+00 -0.0000000000e+00 -5.0000000000e+02 5.0000000000e+02 0.0000000000e+00 0.0000e+00 1.0000e+00
      -11  1    1    2    0    0 +1.3393073490e+01 -6.7483893671e+00 +4.2115368627e+02 4.2142062436e+02 0.0000000000e+00 0.0000e+00 -1.0000e+00
       11  1    1    2    0    0 +1.3540960495e+01 +1.2883969136e+01 -4.9252865112e+02 4.9288317728e+02 0.0000000000e+00 0.0000e+00 1.0000e+00
      -15  1    1    2    0    0 -2.8240332740e+01 -1.5762819120e+01 +3.3675764535e+01 4.6724701239e+01 1.7770000000e+00 0.0000e+00 1.0000e+00
       15  1    1    2    0    0 +1.3062987554e+00 +9.6272393507e+00 +3.7699200318e+01 3.8971497117e+01 1.7770000000e+00 0.0000e+00 -1.0000e+00
</event>
<event>
 6 1 7.08916e-05 5.25008500e+02 7.54677100e-03 9.34552700e-02
      -11 -1    0    0    0    0 +0.0000000000e+00 +0.0000000000e+00 +5.0000000000e+02 5.0000000000e+02 0.0000000000e+00 0.0000e+00 -1.0000e+00
       11 -1    0    0    0    0 -0.0000000000e+00 -0.0000000000e+00 -5.0000000000e+02 5.0000000000e+02 0.0000000000e+00 0.0000e+00 -1.0000e+00
      -11  1    1    2    0    0 +6.3875520284e+00 -1.2177851507e+00 +4.0787449182e+02 4.0792632288e+02 0.0000000000e+00 0.0000e+00 -1.0000e+00
       11  1    1    2    0    0 +7.5229016973e+00 -8.4474796090e+00 -4.7485677580e+02 4.7499148569e+02 0.0000000000e+00 0.0000e+00 -1.0000e+00
      -15  1    1    2    0    0 +1.2446498155e+01 -1.0209308844e+01 -1.8998678038e+01 2.4965031536e+01 1.7770000000e+00 0.0000e+00 1.0000e+00
       15  1    1    2    0    0 -2.6356951881e+01 +1.9874573604e+01 +8.5980962012e+01 9.2117159888e+01 1.7770000000e+00 0.0000e+00 -1.0000e+00
</event>
<event>
 6 1 7.08916e-05 5.01474000e+02 7.54677100e-03 9.39651800e-02
      -11 -1    0    0    0    0 +0.0000000000e+00 +0.0000000000e+00 +5.0000000000e+02 5.0000000000e+02 0.0000000000e+00 0.0000e+00 1.0000e+00
       11 -1    0    0    0    0 -0.0000000000e+00 -0.0000000000e+00 -5.0000000000e+02 5.0000000000e+02 0.0000000000e+00 0.0000e+00 -1.0000e+00
      -11  1    1    2    0    0 +7.4937957172e+00 -1.3335530815e+00 +2.8980751009e+02 2.8990744772e+02 0.0000000000e+00 0.0000e+00 1.0000e+00
       11  1    1    2    0    0 -9.8365308465e+00 -1.8686062789e+00 -4.9842544692e+02 4.9852600250e+02 0.0000000000e+00 0.0000e+00 -1.0000e+00
      -15  1    1    2    0    0 +7.0278383778e+00 +1.3555268588e+01 +4.5161196807e+01 4.7705631164e+01 1.7770000000e+00 0.0000e+00 -1.0000e+00
       15  1    1    2    0    0 -4.6851032485e+00 -1.0353109228e+01 +1.6345674002e+02 1.6386091862e+02 1.7770000000e+00 0.0000e+00 1.0000e+00
</event>
<event>
 6 1 7.08916e-05 5.02420200e+02 7.54677100e-03 9.39441100e-02
      -11 -1    0    0    0    0 +0.0000000000e+00 +0.0000000000e+00 +5.0000000000e+02 5.0000000000e+02 0.0000000000e+00 0.0000e+00 1.0000e+00
       11 -1    0    0    0    0 -0.0000000000e+00 -0.0000000000e+00 -5.0000000000e+02 5.0000000000e+02 0.0000000000e+00 0.0000e+00 1.0000e+00
      -11  1    1    2    0    0 -4.0444845589e+00 +6.4885963381e+00 +4.9752109522e+02 4.9757984277e+02 0.0000000000e+00 0.0000e+00 1.0000e+00
       11  1    1    2    0    0 -1.3014258140e+01 +3.1880426529e+00 -4.5522961796e+02 4.5542676645e+02 0.0000000000e+00 0.0000e+00 1.0000e+00
      -15  1    1    2    0    0 +1.0765687194e+01 -8.4297715378e+00 -2.9931907400e+01 3.2955088811e+01 1.7770000000e+00 0.0000e+00 1.0000e+00
       15  1    1    2    0    0 +6.2930555048e+00 -1.2468674533e+00 -1.2359569866e+01 1.4038301974e+01 1.7770000000e+00 0.0000e+00 -1.0000e+00
</event>
<event>
 6 1 7.08916e-05 5.06194500e+02 7.54677100e-03 9.38605500e-02
      -11 -1    0    0    0    0 +0.0000000000e+00 +0.0000000000e+00 +5.0000000000e+02 5.0000000000e+02 0.0000000000e+00 0.0000e+00 1.0000e+00
       11 -1    0    0    0    0 -0.0000000000e+00 -0.0000000000e+00 -5.0000000000e+02 5.0000000000e+02 0.0000000000e+00 0.0000e+00 -1.0000e+00
      -11  1    1    2    0    0 -6.9545678251e-01 +1.6144455959e+01 +4.6944192389e+02 4.6971996660e+02 0.0000000000e+00 0.0000e+00 1.0000e+00
       11  1    1    2    0    0 -1.1676025529e+01 -4.4289236103e+00 -4.9364759397e+02 4.9380552039e+02 0.0000000000e+00 0.0000e+00 -1.0000e+00
      -15  1    1    2    0    0 +9.5454429838e+00 +3.8601902831e+00 +5.1845080628e+00 1.1664193227e+01 1.7770000000e+00 0.0000e+00 -1.0000e+00
       15  1    1    2    0    0 +2.8260393282e+00 -1.5575722632e+01 +1.9021162017e+01 2.4810319774e+01 1.7770000000e+00 0.0000e+00 1.0000e+00
</event>
<event>
 6 1 7.08916e-05 5.00475500e+02 7.54677100e-03 9.39874600e-02
      -11 -1    0    0    0    0 +0.0000000000e+00 +0.0000000000e+00 +5.0000000000e+02 5.0000000000e+02 0.0000000000e+00 0.0000e+00 1.0000e+00
       11 -1    0    0    0    0 -0.0000000000e+00 -0.0000000000e+00 -5.0000000000e+02 5.0000000000e+02 0.0000000000e+00 0.0000e+00 -1.0000e+00
      -11  1    1    2    0    0 -7.4012584604e-01 -3.5821600424e+00 +2.1982266564e+02 2.1985309637e+02 0.0000000000e+00 0.0000e+00 1.0000e+00
       11  1    1    2    0    0 -2.3958995041e-01 -7.8732628829e+00 -4.9946239932e+02 4.9952450792e+02 0.0000000000e+00 0.0000e+00 -1.0000e+00
      -15  1    1    2    0    0 -9.9424248840e-01 +2.4453151415e+00 +2.3421389894e+02 2.3423551453e+02 1.7770000000e+00 0.0000e+00 -1.0000e+00
       15  1    1    2    0    0 +1.9739582848e+00 +9.0101077838e+00 +4.5425834748e+01 4.6386881175e+01 1.7770000000e+00 0.0000e+00 1.0000e+00
</event>
<event>
 6 1 7.08916e-05 4.84869900e+02 7.54677100e-03 9.43431600e-02
      -11 -1    0    0    0    0 +0.0000000000e+00 +0.0000000000e+00 +5.0000000000e+02 5.0000000000e+02 0.0000000000e+00 0.0000e+00 -1.0000e+00
       11 -1    0    0    0    0 -0.0000000000e+00 -0.0000000000e+00 -5.0000000000e+02 5.0000000000e+02 0.0000000000e+00 0.0000e+00 -1.0000e+00
      -11  1    1    2    0    0 -1.3759132476e+01 +1.3635699825e+01 +4.8005858039e+02 4.8044925501e+02 0.0000000000e+00 0.0000e+00 -1.0000e+00
       11  1    1    2    0    0 +4.0156347075e+00 +8.0163076852e+00 -4.8954552001e+02 4.8962761633e+02 0.0000000000e+00 0.0000e+00 -1.0000e+00
      -15  1    1    2    0    0 -3.1502237621e+00 -6.0935904362e+00 +6.1154228878e+00 9.3601218076e+00 1.7770000000e+00 0.0000e+00 -1.0000e+00
       15  1    1    2    0    0 +1.2893721531e+01 -1.5558417074e+01 +3.3715167339e+00 2.0563006853e+01 1.7770000000e+00 0.0000e+00 1.0000e+00
</event>
<event>
 6 1 7.08916e-05 5.02568800e+02 7.54677100e-03 9.39408000e-02
      -11 -1    0    0    0    0 +0.0000000000e+00 +0.0000000000e+00 +5.0000000000e+02 5.0000000000e+02 0.0000000000e+00 0.0000e+00 -1.0000e+00
       11 -1    0    0    0    0 -0.0000000000e+00 -0.0000000000e+00 -5.0000000000e+02 5.0000000000e+02 0.0000000000e+00 0.0000e+00 1.0000e+00
      -11  1    1    2    0    0 +7.6579896206e+00 -7.4332124912e+00 +3.9999134376e+02 4.0013369332e+02 0.0000000000e+00 0.0000e+00 -1.0000e+00
       11  1    1    2    0    0 +1.6268960327e+00 -1.3027386803e+01 -4.9725795921e+02 4.9743123906e+02 0.0000000000e+00 0.0000e+00 1.0000e+00
      -15  1    1    2    0    0 -1.1886413420e+01 +1.9799725912e+00 +2.5492991895e+01 2.8253450767e+01 1.7770000000e+00 0.0000e+00 -1.0000e+00
       15  1    1    2    0    0 +2.6015277666e+00 +1.8480626703e+01 +7.1773623559e+01 7.4181616846e+01 1.7770000000e+00 0.0000e+00 1.0000e+00
</event>
<event>
 6 1 7.08916e-05 5.02342500e+02 7.54677100e-03 9.39458300e-02
      -11 -1    0    0    0    0 +0.0000000000e+00 +0.0000000000e+00 +5.0000000000e+02 5.0000000000e+02 0.0000000000e+00 0.0000e+00 1.0000e+00
       11 -1    0    0    0    0 -0.0000000000e+00 -0.0000000000e+00 -5.0000000000e+02 5.0000000000e+02 0.0000000000e+00 0.0000e+00 1.0000e+00
      -11  1    1    2    0    0 -2.4041554993e+01 +1.3483642823e+01 +9.5683258527e+01 9.9574549724e+01 0.0000000000e+00 0.0000e+00 1.0000e+00
       11  1    1    2    0    0 +6.5581671850e+00 +4.7342857716e+00 -4.9759172822e+02 4.9765746353e+02 0.0000000000e+00 0.0000e+00 1.0000e+00
      -15  1    1    2    0    0 +3.2924089007e+00 -5.8281217714e+00 +1.4390899359e+02 1.4407554659e+02 1.7770000000e+00 0.0000e+00 1.0000e+00
       15  1    1    2    0    0 +1.4190978907e+01 -1.2389806823e+01 +2.5799947610e+02 2.5869244016e+02 1.7770000000e+00 0.0000e+00 1.0000e+00
</event>
<event>
 6 1 7.08916e-05 5.02116200e+02 7.54677100e-03 9.39508700e-02
      -11 -1    0    0    0    0 +0.0000000000e+00 +0.0000000000e+00 +5.0000000000e+02 5.0000000000e+02 0.0000000000e+00 0.0000e+00 -1.0000e+00
       11 -1    0    0    0    0 -0.0000000000e+00 -0.0000000000e+00 -5.0000000000e+02 5.0000000000e+02 0.0000000000e+00 0.0000e+00 1.0000e+00
      -11  1    1    2    0    0 +1.1736940596e+00 +5.6660257407e+00 +4.2863593966e+02 4.2867499364e+02 0.0000000000e+00 0.0000e+00 -1.0000e+00
       11  1    1    2    0    0 -4.9159344472e+00 +5.0789183222e+00 -4.9783364612e+02 4.9788382282e+02 0.0000000000e+00 0.0000e+00 1.0000e+00
      -15  1    1    2    0    0 +3.6648321830e+00 -4.3549932196e+00 +2.5848878467e+00 6.4989487652e+00 1.7770000000e+00 0.0000e+00 -1.0000e+00
       15  1    1    2    0    0 +7.7408204604e-02 -6.3899508433e+00 +6.6612818611e+01 6.6942234770e+01 1.7770000000e+00 0.0000e+00 1.0000e+00
</event>
</LesHouchesEvents>
