<event>
 6    1  0.1298204E-002  0.1835586E+03  0.7546771E-02  0.1067615E+00
        -11   -1    0    0    0    0  0.00000000000E+00  0.00000000000E+00  0.18250000000E+03  0.18250000000E+03  0.00000000000E+00 0. -1.
         11   -1    0    0    0    0 -0.00000000000E+00 -0.00000000000E+00 -0.18250000000E+03  0.18250000000E+03  0.00000000000E+00 0. -1.
        -11    1    1    2    0    0 -0.35313963794E+01  0.94570575992E+00  0.15430510059E+03  0.15434840196E+03  0.00000000000E+00 0. -1.
         11    1    1    2    0    0  0.31477015329E+01  0.10178793562E+00 -0.18141410233E+03  0.18144143658E+03  0.00000000000E+00 0. -1.
        -15    1    1    2    0    0  0.42212773145E+01  0.24833637939E+01  0.15673988242E+02  0.16517200559E+02  0.17770000000E+01 0.  1.
         15    1    1    2    0    0 -0.38375824679E+01 -0.35308574895E+01  0.11435013494E+02  0.12692960901E+02  0.17770000000E+01 0. -1.
</event>
<event>
 6    1  0.1298204E-002  0.2237792E+03  0.7546771E-02  0.1039648E+00
        -11   -1    0    0    0    0  0.00000000000E+00  0.00000000000E+00  0.18250000000E+03  0.18250000000E+03  0.00000000000E+00 0.  1.
         11   -1    0    0    0    0 -0.00000000000E+00 -0.00000000000E+00 -0.18250000000E+03  0.18250000000E+03  0.00000000000E+00 0.  1.
        -11    1    1    2    0    0 -0.18756499090E+01 -0.18983863537E+01  0.10173467009E+03  0.10176966656E+03  0.00000000000E+00 0.  1.
         11    1    1    2    0    0  0.67270459544E+00  0.44730987704E+01 -0.14114829764E+03  0.14122076005E+03  0.00000000000E+00 0.  1.
        -15    1    1    2    0    0  0.11674778212E+02  0.20947831713E+02 -0.35441713715E+02  0.42829719820E+02  0.17770000000E+01 0. -1.
         15    1    1    2    0    0 -0.10471832899E+02 -0.23522544129E+02  0.74855341266E+02  0.79179853572E+02  0.17770000000E+01 0.  1.
</event>
<event>
 6    1  0.1298204E-002  0.2011980E+03  0.7546771E-02  0.1054475E+00
        -11   -1    0    0    0    0  0.00000000000E+00  0.00000000000E+00  0.18250000000E+03  0.18250000000E+03  0.00000000000E+00 0.  1.
         11   -1    0    0    0    0 -0.00000000000E+00 -0.00000000000E+00 -0.18250000000E+03  0.18250000000E+03  0.00000000000E+00 0.  1.
        -11    1    1    2    0    0  0.11751552964E+02 -0.17226613639E+01  0.16337082718E+03  0.16380199551E+03  0.00000000000E+00 0.  1.
         11    1    1    2    0    0  0.23693184851E+01 -0.68553664858E+00 -0.14887037251E+03  0.14889080375E+03  0.00000000000E+00 0.  1.
        -15    1    1    2    0    0 -0.15974199845E+02  0.21034508913E+02  0.29734084947E+01  0.26638778369E+02  0.17770000000E+01 0. -1.
         15    1    1    2    0    0  0.18533283958E+01 -0.18626310900E+02 -0.17473863164E+02  0.25668422366E+02  0.17770000000E+01 0.  1.
</event>
<event>
 6    1  0.1298204E-002  0.1847934E+03  0.7546771E-02  0.1066644E+00
        -11   -1    0    0    0    0  0.00000000000E+00  0.00000000000E+00  0.18250000000E+03  0.18250000000E+03  0.00000000000E+00 0.  1.
         11   -1    0    0    0    0 -0.00000000000E+00 -0.00000000000E+00 -0.18250000000E+03  0.18250000000E+03  0.00000000000E+00 0. -1.
        -11    1    1    2    0    0  0.50529298238E+00 -0.27240200823E+01  0.15563730541E+03  0.15566196209E+03  0.00000000000E+00 0.  1.
         11    1    1    2    0    0 -0.11546674519E+01 -0.63924000621E+01 -0.18008948344E+03  0.18020659833E+03  0.00000000000E+00 0. -1.
        -15    1    1    2    0    0  0.61048992572E+01  0.30652791268E+01  0.14652310866E+02  0.16263876345E+02  0.17770000000E+01 0. -1.
         15    1    1    2    0    0 -0.54555247877E+01  0.60511410176E+01  0.97998671626E+01  0.12867563240E+02  0.17770000000E+01 0.  1.
</event>
<event>
 6    1  0.1298204E-002  0.2051628E+03  0.7546771E-02  0.1051722E+00
        -11   -1    0    0    0    0  0.00000000000E+00  0.00000000000E+00  0.18250000000E+03  0.18250000000E+03  0.00000000000E+00 0. -1.
         11   -1    0    0    0    0 -0.00000000000E+00 -0.00000000000E+00 -0.18250000000E+03  0.18250000000E+03  0.00000000000E+00 0. -1.
        -11    1    1    2    0    0 -0.35188069517E+01  0.79983616222E+00  0.12344154766E+03  0.12349428096E+03  0.00000000000E+00 0. -1.
         11    1    1    2    0    0  0.13372773105E+00 -0.32002190352E+01 -0.15980511531E+03  0.15983721145E+03  0.00000000000E+00 0. -1.
        -15    1    1    2    0    0 -0.15487974778E+01 -0.39641031626E+01  0.58171177214E+02  0.58353718605E+02  0.17770000000E+01 0. -1.
         15    1    1    2    0    0  0.49338766984E+01  0.63644860356E+01 -0.21807609565E+02  0.23314788991E+02  0.17770000000E+01 0.  1.
</event>
<event>
 6    1  0.1298204E-002  0.1695890E+03  0.7546771E-02  0.1079223E+00
        -11   -1    0    0    0    0  0.00000000000E+00  0.00000000000E+00  0.18250000000E+03  0.18250000000E+03  0.00000000000E+00 0.  1.
         11   -1    0    0    0    0 -0.00000000000E+00 -0.00000000000E+00 -0.18250000000E+03  0.18250000000E+03  0.00000000000E+00 0.  1.
        -11    1    1    2    0    0  0.34126037409E+01  0.34334667303E+00  0.17068355376E+03  0.17071801099E+03  0.00000000000E+00 0.  1.
         11    1    1    2    0    0  0.20965255201E+01  0.34860888897E+01 -0.16848432125E+03  0.16853342322E+03  0.00000000000E+00 0.  1.
        -15    1    1    2    0    0 -0.17974189101E+01 -0.35653527066E+01 -0.13250708585E+02  0.13952829880E+02  0.17770000000E+01 0.  1.
         15    1    1    2    0    0 -0.37117103509E+01 -0.26408285618E+00  0.11051476070E+02  0.11795735917E+02  0.17770000000E+01 0.  1.
</event>
<event>
 6    1  0.1298204E-002  0.1744243E+03  0.7546771E-02  0.1075071E+00
        -11   -1    0    0    0    0  0.00000000000E+00  0.00000000000E+00  0.18250000000E+03  0.18250000000E+03  0.00000000000E+00 0. -1.
         11   -1    0    0    0    0 -0.00000000000E+00 -0.00000000000E+00 -0.18250000000E+03  0.18250000000E+03  0.00000000000E+00 0.  1.
        -11    1    1    2    0    0 -0.10762510069E+01  0.24130871577E+01  0.17558682116E+03  0.17560669996E+03  0.00000000000E+00 0. -1.
         11    1    1    2    0    0 -0.18111264534E+01  0.24132803759E+01 -0.17326860297E+03  0.17329487262E+03  0.00000000000E+00 0.  1.
        -15    1    1    2    0    0 -0.11050828243E+00  0.11207782817E+01  0.53731109996E+01  0.57703038786E+01  0.17770000000E+01 0.  1.
         15    1    1    2    0    0  0.29978857428E+01 -0.59471458152E+01 -0.76913291846E+01  0.10328123542E+02  0.17770000000E+01 0. -1.
</event>
<event>
 6    1  0.1298204E-002  0.1903391E+03  0.7546771E-02  0.1062381E+00
        -11   -1    0    0    0    0  0.00000000000E+00  0.00000000000E+00  0.18250000000E+03  0.18250000000E+03  0.00000000000E+00 0.  1.
         11   -1    0    0    0    0 -0.00000000000E+00 -0.00000000000E+00 -0.18250000000E+03  0.18250000000E+03  0.00000000000E+00 0.  1.
        -11    1    1    2    0    0  0.80180152566E+01 -0.50753713516E+00  0.15283732955E+03  0.15304834356E+03  0.00000000000E+00 0.  1.
         11    1    1    2    0    0  0.13585374007E+01  0.71045401392E+01 -0.17451101169E+03  0.17466085227E+03  0.00000000000E+00 0.  1.
        -15    1    1    2    0    0 -0.15747393785E+02  0.47919055304E+01  0.15746106453E+02  0.22848202710E+02  0.17770000000E+01 0.  1.
         15    1    1    2    0    0  0.63708411282E+01 -0.11388908534E+02  0.59275756858E+01  0.14442601455E+02  0.17770000000E+01 0. -1.
</event>
<event>
 6    1  0.1298204E-002  0.1844142E+03  0.7546771E-02  0.1066941E+00
        -11   -1    0    0    0    0  0.00000000000E+00  0.00000000000E+00  0.18250000000E+03  0.18250000000E+03  0.00000000000E+00 0.  1.
         11   -1    0    0    0    0 -0.00000000000E+00 -0.00000000000E+00 -0.18250000000E+03  0.18250000000E+03  0.00000000000E+00 0. -1.
        -11    1    1    2    0    0  0.24027393751E+01 -0.25348669697E+01  0.15588222762E+03  0.15592135067E+03  0.00000000000E+00 0.  1.
         11    1    1    2    0    0 -0.37936039752E+01 -0.37950157505E+01 -0.18050609928E+03  0.18058583957E+03  0.00000000000E+00 0. -1.
        -15    1    1    2    0    0  0.37502129041E+00  0.22240057904E+01  0.23623311079E+02  0.23797172060E+02  0.17770000000E+01 0. -1.
         15    1    1    2    0    0  0.10158433097E+01  0.41058769298E+01  0.10005605824E+01  0.46956377066E+01  0.17770000000E+01 0. -1.
</event>
<event>
 6    1  0.1298204E-002  0.1841152E+03  0.7546771E-02  0.1067176E+00
        -11   -1    0    0    0    0  0.00000000000E+00  0.00000000000E+00  0.18250000000E+03  0.18250000000E+03  0.00000000000E+00 0.  1.
         11   -1    0    0    0    0 -0.00000000000E+00 -0.00000000000E+00 -0.18250000000E+03  0.18250000000E+03  0.00000000000E+00 0. -1.
        -11    1    1    2    0    0  0.79073550894E+00 -0.14845965461E+01  0.12439123776E+03  0.12440260978E+03  0.00000000000E+00 0.  1.
         11    1    1    2    0    0  0.43532185501E+01 -0.62462091561E+01 -0.18072454351E+03  0.18088484256E+03  0.00000000000E+00 0. -1.
        -15    1    1    2    0    0 -0.95685320929E+01  0.53212735921E+01  0.19013885256E+02  0.22012685447E+02  0.17770000000E+01 0.  1.
         15    1    1    2    0    0  0.44245780338E+01  0.24095321100E+01  0.37319420495E+02  0.37699862212E+02  0.17770000000E+01 0. -1.
</event>
<event>
 6    1  0.1298204E-002  0.1831622E+03  0.7546771E-02  0.1067929E+00
        -11   -1    0    0    0    0  0.00000000000E+00  0.00000000000E+00  0.18250000000E+03  0.18250000000E+03  0.00000000000E+00 0.  1.
         11   -1    0    0    0    0 -0.00000000000E+00 -0.00000000000E+00 -0.18250000000E+03  0.18250000000E+03  0.00000000000E+00 0.  1.
        -11    1    1    2    0    0  0.44263198872E+01 -0.32381858542E+01  0.18175511019E+03  0.18183783500E+03  0.00000000000E+00 0.  1.
         11    1    1    2    0    0  0.11313726863E+01 -0.15557800106E+01 -0.13232516434E+03  0.13233914603E+03  0.00000000000E+00 0.  1.
        -15    1    1    2    0    0  0.15710424130E-01  0.11122480482E+01 -0.32058246887E+02  0.32126721977E+02  0.17770000000E+01 0. -1.
         15    1    1    2    0    0 -0.55734029977E+01  0.36817178166E+01 -0.17371698968E+02  0.18696296989E+02  0.17770000000E+01 0. -1.
</event>
<event>
 6    1  0.1298204E-002  0.1877788E+03  0.7546771E-02  0.1064329E+00
        -11   -1    0    0    0    0  0.00000000000E+00  0.00000000000E+00  0.18250000000E+03  0.18250000000E+03  0.00000000000E+00 0.  1.
         11   -1    0    0    0    0 -0.00000000000E+00 -0.00000000000E+00 -0.18250000000E+03  0.18250000000E+03  0.00000000000E+00 0.  1.
        -11    1    1    2    0    0  0.22408767612E+01 -0.18260900533E+01  0.16735073884E+03  0.16737570291E+03  0.00000000000E+00 0.  1.
         11    1    1    2    0    0  0.28598981523E+01 -0.68489935576E+01 -0.17706575690E+03  0.17722124590E+03  0.00000000000E+00 0.  1.
        -15    1    1    2    0    0 -0.38175948292E+01  0.53679530750E+01  0.13369022609E+02  0.15009245318E+02  0.17770000000E+01 0. -1.
         15    1    1    2    0    0 -0.12831800843E+01  0.33071305359E+01 -0.36540045488E+01  0.53938058691E+01  0.17770000000E+01 0.  1.
</event>
<event>
 6    1  0.1298204E-002  0.1865320E+03  0.7546771E-02  0.1065290E+00
        -11   -1    0    0    0    0  0.00000000000E+00  0.00000000000E+00  0.18250000000E+03  0.18250000000E+03  0.00000000000E+00 0.  1.
         11   -1    0    0    0    0 -0.00000000000E+00 -0.00000000000E+00 -0.18250000000E+03  0.18250000000E+03  0.00000000000E+00 0. -1.
        -11    1    1    2    0    0  0.43875840058E+01  0.61939572531E+00  0.17841298563E+03  0.17846800269E+03  0.00000000000E+00 0.  1.
         11    1    1    2    0    0  0.31194763861E+01  0.54290436496E+01 -0.16915391916E+03  0.16926976698E+03  0.00000000000E+00 0. -1.
        -15    1    1    2    0    0  0.62057254589E+00 -0.15922691379E+01 -0.71890050421E+01  0.75999969597E+01  0.17770000000E+01 0.  1.
         15    1    1    2    0    0 -0.81276329377E+01 -0.44561702371E+01 -0.20700614265E+01  0.96622333682E+01  0.17770000000E+01 0. -1.
</event>
<event>
 6    1  0.1298204E-002  0.1773155E+03  0.7546771E-02  0.1072658E+00
        -11   -1    0    0    0    0  0.00000000000E+00  0.00000000000E+00  0.18250000000E+03  0.18250000000E+03  0.00000000000E+00 0. -1.
         11   -1    0    0    0    0 -0.00000000000E+00 -0.00000000000E+00 -0.18250000000E+03  0.18250000000E+03  0.00000000000E+00 0. -1.
        -11    1    1    2    0    0  0.53790622069E+01 -0.62846899895E+01  0.17893056241E+03  0.17912168434E+03  0.00000000000E+00 0. -1.
         11    1    1    2    0    0 -0.28582560935E+01  0.64133991036E+00 -0.17555481771E+03  0.17557925551E+03  0.00000000000E+00 0. -1.
        -15    1    1    2    0    0 -0.54889647380E+00 -0.13027417516E+01 -0.10963128855E+01  0.25215182635E+01  0.17770000000E+01 0.  1.
         15    1    1    2    0    0 -0.19719096396E+01  0.69460918307E+01 -0.22794318098E+01  0.77775418818E+01  0.17770000000E+01 0.  1.
</event>
<event>
 6    1  0.1298204E-002  0.1832016E+03  0.7546771E-02  0.1067898E+00
        -11   -1    0    0    0    0  0.00000000000E+00  0.00000000000E+00  0.18250000000E+03  0.18250000000E+03  0.00000000000E+00 0.  1.
         11   -1    0    0    0    0 -0.00000000000E+00 -0.00000000000E+00 -0.18250000000E+03  0.18250000000E+03  0.00000000000E+00 0.  1.
        -11    1    1    2    0    0 -0.47710693665E+00  0.11745398997E+01  0.70359768531E+02  0.70371188726E+02  0.00000000000E+00 0.  1.
         11    1    1    2    0    0 -0.87516042117E+00 -0.43092636282E+01 -0.18174524147E+03  0.18179842808E+03  0.00000000000E+00 0.  1.
        -15    1    1    2    0    0  0.45922866269E+01  0.15282608876E+01  0.10589266418E+03  0.10601810569E+03  0.17770000000E+01 0.  1.
         15    1    1    2    0    0 -0.32400192690E+01  0.16064628410E+01  0.54928087544E+01  0.68122774999E+01  0.17770000000E+01 0. -1.
</event>
<event>
 6    1  0.1298204E-002  0.1898890E+03  0.7546771E-02  0.1062721E+00
        -11   -1    0    0    0    0  0.00000000000E+00  0.00000000000E+00  0.18250000000E+03  0.18250000000E+03  0.00000000000E+00 0.  1.
         11   -1    0    0    0    0 -0.00000000000E+00 -0.00000000000E+00 -0.18250000000E+03  0.18250000000E+03  0.00000000000E+00 0. -1.
        -11    1    1    2    0    0  0.32807106898E+01  0.92502232668E+00  0.10878504850E+03  0.10883843763E+03  0.00000000000E+00 0.  1.
         11    1    1    2    0    0  0.74458977692E+01 -0.13294474229E+02 -0.17444677054E+03  0.17511099392E+03  0.00000000000E+00 0. -1.
        -15    1    1    2    0    0 -0.73432303391E+01  0.16244209535E+02  0.71120566495E+02  0.73342280322E+02  0.17770000000E+01 0.  1.
         15    1    1    2    0    0 -0.33833781199E+01 -0.38747576325E+01 -0.54588444483E+01  0.77082881318E+01  0.17770000000E+01 0. -1.
</event>
<event>
 6    1  0.1298204E-002  0.1866938E+03  0.7546771E-02  0.1065165E+00
        -11   -1    0    0    0    0  0.00000000000E+00  0.00000000000E+00  0.18250000000E+03  0.18250000000E+03  0.00000000000E+00 0. -1.
         11   -1    0    0    0    0 -0.00000000000E+00 -0.00000000000E+00 -0.18250000000E+03  0.18250000000E+03  0.00000000000E+00 0. -1.
        -11    1    1    2    0    0  0.16724461630E+01 -0.10581784317E+01  0.77127442025E+02  0.77152829702E+02  0.00000000000E+00 0. -1.
         11    1    1    2    0    0 -0.98864225672E+00 -0.10864057607E+02 -0.17797215832E+03  0.17830618132E+03  0.00000000000E+00 0. -1.
        -15    1    1    2    0    0  0.31411387775E+01  0.23442296442E+02  0.33254029060E+02  0.40846005839E+02  0.17770000000E+01 0.  1.
         15    1    1    2    0    0 -0.38249426838E+01 -0.11520060404E+02  0.67590687234E+02  0.68694983135E+02  0.17770000000E+01 0. -1.
</event>
<event>
 6    1  0.1298204E-002  0.1832268E+03  0.7546771E-02  0.1067878E+00
        -11   -1    0    0    0    0  0.00000000000E+00  0.00000000000E+00  0.18250000000E+03  0.18250000000E+03  0.00000000000E+00 0.  1.
         11   -1    0    0    0    0 -0.00000000000E+00 -0.00000000000E+00 -0.18250000000E+03  0.18250000000E+03  0.00000000000E+00 0.  1.
        -11    1    1    2    0    0  0.67326474919E+00 -0.25275326182E+01  0.78263316745E+02  0.78307014082E+02  0.00000000000E+00 0.  1.
         11    1    1    2    0    0  0.53038612492E+00  0.46638751237E+01 -0.18171255297E+03  0.18177316894E+03  0.00000000000E+00 0.  1.
        -15    1    1    2    0    0 -0.23542548257E+01 -0.11623704333E+01  0.27594928781E+01  0.42031120319E+01  0.17770000000E+01 0. -1.
         15    1    1    2    0    0  0.11506039516E+01 -0.97397207224E+00  0.10068974334E+03  0.10071670494E+03  0.17770000000E+01 0.  1.
</event>
<event>
 6    1  0.1298204E-002  0.1825319E+03  0.7546771E-02  0.1068429E+00
        -11   -1    0    0    0    0  0.00000000000E+00  0.00000000000E+00  0.18250000000E+03  0.18250000000E+03  0.00000000000E+00 0.  1.
         11   -1    0    0    0    0 -0.00000000000E+00 -0.00000000000E+00 -0.18250000000E+03  0.18250000000E+03  0.00000000000E+00 0. -1.
        -11    1    1    2    0    0  0.41426902333E+00  0.99147450214E+00  0.19980854555E+02  0.20009727366E+02  0.00000000000E+00 0.  1.
         11    1    1    2    0    0 -0.22501745367E+01 -0.20590151194E+01 -0.18244262825E+03  0.18246812169E+03  0.00000000000E+00 0. -1.
        -15    1    1    2    0    0  0.92463451979E+00 -0.33811918821E-01  0.96937049934E+02  0.96957750959E+02  0.17770000000E+01 0.  1.
         15    1    1    2    0    0  0.91127099363E+00  0.11013525360E+01  0.65524723764E+02  0.65564399987E+02  0.17770000000E+01 0. -1.
</event>
<event>
 6    1  0.1298204E-002  0.1829569E+03  0.7546771E-02  0.1068092E+00
        -11   -1    0    0    0    0  0.00000000000E+00  0.00000000000E+00  0.18250000000E+03  0.18250000000E+03  0.00000000000E+00 0. -1.
         11   -1    0    0    0    0 -0.00000000000E+00 -0.00000000000E+00 -0.18250000000E+03  0.18250000000E+03  0.00000000000E+00 0. -1.
        -11    1    1    2    0    0  0.14137855654E+01 -0.98141840938E+00  0.12581141796E+03  0.12582318888E+03  0.00000000000E+00 0. -1.
         11    1    1    2    0    0 -0.30557982705E+01 -0.32772483114E+00 -0.18201711310E+03  0.18204305745E+03  0.00000000000E+00 0. -1.
        -15    1    1    2    0    0  0.40089457792E+01  0.35361481796E+00  0.11387409429E+02  0.12207682508E+02  0.17770000000E+01 0. -1.
         15    1    1    2    0    0 -0.23669330741E+01  0.95552842257E+00  0.44818285708E+02  0.44926071157E+02  0.17770000000E+01 0. -1.
</event>
<event>
 6    1  0.1298204E-002  0.1832517E+03  0.7546771E-02  0.1067858E+00
        -11   -1    0    0    0    0  0.00000000000E+00  0.00000000000E+00  0.18250000000E+03  0.18250000000E+03  0.00000000000E+00 0.  1.
         11   -1    0    0    0    0 -0.00000000000E+00 -0.00000000000E+00 -0.18250000000E+03  0.18250000000E+03  0.00000000000E+00 0.  1.
        -11    1    1    2    0    0  0.74962930048E+00  0.14148010412E+01  0.11164997823E+03  0.11166145819E+03  0.00000000000E+00 0.  1.
         11    1    1    2    0    0 -0.47120131405E+01 -0.14739485578E+01 -0.18168125880E+03  0.18174832981E+03  0.00000000000E+00 0.  1.
        -15    1    1    2    0    0  0.58566756224E+01  0.50043315639E+00  0.67965477730E+02  0.68242325391E+02  0.17770000000E+01 0. -1.
         15    1    1    2    0    0 -0.18942917824E+01 -0.44128563975E+00  0.20658028304E+01  0.33478866030E+01  0.17770000000E+01 0. -1.
</event>
<event>
 6    1  0.1298204E-002  0.1842691E+03  0.7546771E-02  0.1067055E+00
        -11   -1    0    0    0    0  0.00000000000E+00  0.00000000000E+00  0.18250000000E+03  0.18250000000E+03  0.00000000000E+00 0. -1.
         11   -1    0    0    0    0 -0.00000000000E+00 -0.00000000000E+00 -0.18250000000E+03  0.18250000000E+03  0.00000000000E+00 0. -1.
        -11    1    1    2    0    0  0.36871728915E+00  0.34780693295E+01  0.16821960395E+03  0.16825595999E+03  0.00000000000E+00 0. -1.
         11    1    1    2    0    0  0.37078488808E+01 -0.18232933822E+01 -0.18068370753E+03  0.18073094563E+03  0.00000000000E+00 0. -1.
        -15    1    1    2    0    0 -0.41930352524E+01 -0.45452789282E+01  0.64723847664E+01  0.91263683208E+01  0.17770000000E+01 0. -1.
         15    1    1    2    0    0  0.11646908241E+00  0.28905029810E+01  0.59917188102E+01  0.68867260604E+01  0.17770000000E+01 0.  1.
</event>
<event>
 6    1  0.1298204E-002  0.1746138E+03  0.7546771E-02  0.1074911E+00
        -11   -1    0    0    0    0  0.00000000000E+00  0.00000000000E+00  0.18250000000E+03  0.18250000000E+03  0.00000000000E+00 0. -1.
         11   -1    0    0    0    0 -0.00000000000E+00 -0.00000000000E+00 -0.18250000000E+03  0.18250000000E+03  0.00000000000E+00 0. -1.
        -11    1    1    2    0    0  0.53861925639E+01 -0.32729512630E+01  0.17452578420E+03  0.17463955059E+03  0.00000000000E+00 0. -1.
         11    1    1    2    0    0 -0.38322569420E+01 -0.15586659263E+01 -0.17457589111E+03  0.17462490484E+03  0.00000000000E+00 0. -1.
        -15    1    1    2    0    0 -0.41243735288E+00 -0.96537823740E+00 -0.64508242087E+01  0.67729551662E+01  0.17770000000E+01 0. -1.
         15    1    1    2    0    0 -0.11414982690E+01  0.57969954267E+01  0.65009311240E+01  0.89625894000E+01  0.17770000000E+01 0.  1.
</event>
<event>
 6    1  0.1298204E-002  0.1880460E+03  0.7546771E-02  0.1064124E+00
        -11   -1    0    0    0    0  0.00000000000E+00  0.00000000000E+00  0.18250000000E+03  0.18250000000E+03  0.00000000000E+00 0. -1.
         11   -1    0    0    0    0 -0.00000000000E+00 -0.00000000000E+00 -0.18250000000E+03  0.18250000000E+03  0.00000000000E+00 0.  1.
        -11    1    1    2    0    0 -0.79181266775E+01 -0.79101221004E+01  0.17659969732E+03  0.17695400491E+03  0.00000000000E+00 0. -1.
         11    1    1    2    0    0  0.29523781532E+01  0.16417333313E+01 -0.14917853859E+03  0.14921678257E+03  0.00000000000E+00 0.  1.
        -15    1    1    2    0    0 -0.30050847726E+00  0.21850028173E+01  0.49654208063E+01  0.57164390525E+01  0.17770000000E+01 0. -1.
         15    1    1    2    0    0  0.52662570015E+01  0.40833859518E+01 -0.32386579535E+02  0.33112773466E+02  0.17770000000E+01 0.  1.
</event>
<event>
 6    1  0.1298204E-002  0.1828250E+03  0.7546771E-02  0.1068196E+00
        -11   -1    0    0    0    0  0.00000000000E+00  0.00000000000E+00  0.18250000000E+03  0.18250000000E+03  0.00000000000E+00 0. -1.
         11   -1    0    0    0    0 -0.00000000000E+00 -0.00000000000E+00 -0.18250000000E+03  0.18250000000E+03  0.00000000000E+00 0.  1.
        -11    1    1    2    0    0 -0.81268777912E+01 -0.26642794344E+01  0.18197418451E+03  0.18217504866E+03  0.00000000000E+00 0. -1.
         11    1    1    2    0    0  0.10624516581E+01  0.12062199566E+01 -0.42874702678E+02  0.42904823736E+02  0.00000000000E+00 0.  1.
        -15    1    1    2    0    0  0.89070348245E+01 -0.33493631845E+01 -0.87274279978E+02  0.87809516442E+02  0.17770000000E+01 0. -1.
         15    1    1    2    0    0 -0.18426086914E+01  0.48074226622E+01 -0.51825201853E+02  0.52110611161E+02  0.17770000000E+01 0.  1.
</event>
<event>
 6    1  0.1298204E-002  0.1835237E+03  0.7546771E-02  0.1067643E+00
        -11   -1    0    0    0    0  0.00000000000E+00  0.00000000000E+00  0.18250000000E+03  0.18250000000E+03  0.00000000000E+00 0.  1.
         11   -1    0    0    0    0 -0.00000000000E+00 -0.00000000000E+00 -0.18250000000E+03  0.18250000000E+03  0.00000000000E+00 0.  1.
        -11    1    1    2    0    0  0.16726635890E+01 -0.52843657284E+01  0.18139164370E+03  0.18147630900E+03  0.00000000000E+00 0.  1.
         11    1    1    2    0    0  0.42031993757E+01 -0.20208742834E+01 -0.73729340786E+02  0.73876698022E+02  0.00000000000E+00 0.  1.
        -15    1    1    2    0    0 -0.59021077304E+01 -0.26059231366E+01 -0.78704437613E+02  0.78988429153E+02  0.17770000000E+01 0. -1.
         15    1    1    2    0    0  0.26244765677E-01  0.99111631485E+01 -0.28957865303E+02  0.30658563822E+02  0.17770000000E+01 0. -1.
</event>
<event>
 6    1  0.1298204E-002  0.1825574E+03  0.7546771E-02  0.1068409E+00
        -11   -1    0    0    0    0  0.00000000000E+00  0.00000000000E+00  0.18250000000E+03  0.18250000000E+03  0.00000000000E+00 0. -1.
         11   -1    0    0    0    0 -0.00000000000E+00 -0.00000000000E+00 -0.18250000000E+03  0.18250000000E+03  0.00000000000E+00 0.  1.
        -11    1    1    2    0    0 -0.33525806995E+01  0.15077602007E+01  0.18240551666E+03  0.18244255437E+03  0.00000000000E+00 0. -1.
         11    1    1    2    0    0  0.30601024250E+00 -0.13723441601E+01 -0.55247385479E+02  0.55265274568E+02  0.00000000000E+00 0.  1.
        -15    1    1    2    0    0  0.26035065573E+01 -0.12689698132E+01 -0.57159319812E+02  0.57260231411E+02  0.17770000000E+01 0.  1.
         15    1    1    2    0    0  0.44306389974E+00  0.11335537727E+01 -0.69998811365E+02  0.70031939651E+02  0.17770000000E+01 0. -1.
</event>
<event>
 6    1  0.1298204E-002  0.1826848E+03  0.7546771E-02  0.1068308E+00
        -11   -1    0    0    0    0  0.00000000000E+00  0.00000000000E+00  0.18250000000E+03  0.18250000000E+03  0.00000000000E+00 0.  1.
         11   -1    0    0    0    0 -0.00000000000E+00 -0.00000000000E+00 -0.18250000000E+03  0.18250000000E+03  0.00000000000E+00 0.  1.
        -11    1    1    2    0    0 -0.84997511859E-01 -0.19856206303E+01  0.82017582540E+02  0.82041658684E+02  0.00000000000E+00 0.  1.
         11    1    1    2    0    0 -0.37495939751E+01 -0.18248382895E+01 -0.18226746861E+03  0.18231516559E+03  0.00000000000E+00 0.  1.
        -15    1    1    2    0    0  0.46380778600E+01  0.14257374691E+01  0.42810385140E+02  0.43121123575E+02  0.17770000000E+01 0.  1.
         15    1    1    2    0    0 -0.80348637310E+00  0.23847214507E+01  0.57439500935E+02  0.57522052148E+02  0.17770000000E+01 0.  1.
</event>
<event>
 6    1  0.1298204E-002  0.1830464E+03  0.7546771E-02  0.1068021E+00
        -11   -1    0    0    0    0  0.00000000000E+00  0.00000000000E+00  0.18250000000E+03  0.18250000000E+03  0.00000000000E+00 0. -1.
         11   -1    0    0    0    0 -0.00000000000E+00 -0.00000000000E+00 -0.18250000000E+03  0.18250000000E+03  0.00000000000E+00 0.  1.
        -11    1    1    2    0    0  0.12132530804E+01  0.45622178002E-01  0.58848583956E+02  0.58861106837E+02  0.00000000000E+00 0. -1.
         11    1    1    2    0    0  0.32400687534E+01 -0.52308851606E+00 -0.18192395158E+03  0.18195355404E+03  0.00000000000E+00 0.  1.
        -15    1    1    2    0    0 -0.10211332233E+01 -0.11919909623E+01  0.11545484169E+03  0.11547918321E+03  0.17770000000E+01 0. -1.
         15    1    1    2    0    0 -0.34321886106E+01  0.16694573004E+01  0.76205259351E+01  0.87061559177E+01  0.17770000000E+01 0. -1.
</event>
<event>
 6    1  0.1298204E-002  0.1836764E+03  0.7546771E-02  0.1067522E+00
        -11   -1    0    0    0    0  0.00000000000E+00  0.00000000000E+00  0.18250000000E+03  0.18250000000E+03  0.00000000000E+00 0.  1.
         11   -1    0    0    0    0 -0.00000000000E+00 -0.00000000000E+00 -0.18250000000E+03  0.18250000000E+03  0.00000000000E+00 0. -1.
        -11    1    1    2    0    0 -0.25974744046E+01  0.21597839444E+01  0.12456981349E+03  0.12461560887E+03  0.00000000000E+00 0.  1.
         11    1    1    2    0    0  0.72558207968E+01  0.73718069331E+01 -0.18102836954E+03  0.18132363621E+03  0.00000000000E+00 0. -1.
        -15    1    1    2    0    0 -0.61662377851E+01 -0.10619815925E+02  0.29822612813E+02  0.32300912412E+02  0.17770000000E+01 0.  1.
         15    1    1    2    0    0  0.15078913929E+01  0.10882250474E+01  0.26635943228E+02  0.26759842505E+02  0.17770000000E+01 0.  1.
</event>
<event>
 6    1  0.1298204E-002  0.1750046E+03  0.7546771E-02  0.1074583E+00
        -11   -1    0    0    0    0  0.00000000000E+00  0.00000000000E+00  0.18250000000E+03  0.18250000000E+03  0.00000000000E+00 0. -1.
         11   -1    0    0    0    0 -0.00000000000E+00 -0.00000000000E+00 -0.18250000000E+03  0.18250000000E+03  0.00000000000E+00 0. -1.
        -11    1    1    2    0    0 -0.66958098648E+00 -0.20934927432E+01  0.51431817516E+01  0.55931537699E+01  0.00000000000E+00 0. -1.
         11    1    1    2    0    0 -0.11636897774E+01 -0.33499136282E+01 -0.17949845356E+03  0.17953348135E+03  0.00000000000E+00 0. -1.
        -15    1    1    2    0    0 -0.49786966041E+01  0.83699835060E+00  0.17055984335E+03  0.17064379824E+03  0.17770000000E+01 0. -1.
         15    1    1    2    0    0  0.68119673680E+01  0.46064080208E+01  0.37954284593E+01  0.92295666456E+01  0.17770000000E+01 0.  1.
</event>
<event>
 6    1  0.1298204E-002  0.1830479E+03  0.7546771E-02  0.1068020E+00
        -11   -1    0    0    0    0  0.00000000000E+00  0.00000000000E+00  0.18250000000E+03  0.18250000000E+03  0.00000000000E+00 0. -1.
         11   -1    0    0    0    0 -0.00000000000E+00 -0.00000000000E+00 -0.18250000000E+03  0.18250000000E+03  0.00000000000E+00 0. -1.
        -11    1    1    2    0    0  0.54539876159E+00 -0.40536834594E+01  0.12327965487E+03  0.12334748929E+03  0.00000000000E+00 0. -1.
         11    1    1    2    0    0 -0.65855329600E+01  0.32113928531E+00 -0.18183264588E+03  0.18195214613E+03  0.00000000000E+00 0. -1.
        -15    1    1    2    0    0 -0.95926600376E+00  0.23013146191E+01  0.31986589631E+02  0.32132785211E+02  0.17770000000E+01 0. -1.
         15    1    1    2    0    0  0.69994002022E+01  0.14312295550E+01  0.26566401379E+02  0.27567579372E+02  0.17770000000E+01 0.  1.
</event>
<event>
 6    1  0.1298204E-002  0.1827205E+03  0.7546771E-02  0.1068279E+00
        -11   -1    0    0    0    0  0.00000000000E+00  0.00000000000E+00  0.18250000000E+03  0.18250000000E+03  0.00000000000E+00 0.  1.
         11   -1    0    0    0    0 -0.00000000000E+00 -0.00000000000E+00 -0.18250000000E+03  0.18250000000E+03  0.00000000000E+00 0.  1.
        -11    1    1    2    0    0 -0.10352470395E+00  0.96610363815E+00  0.65559968584E+02  0.65567168265E+02  0.00000000000E+00 0.  1.
         11    1    1    2    0    0 -0.24303111967E+01 -0.50419990246E+00 -0.18226262734E+03  0.18227952698E+03  0.00000000000E+00 0.  1.
        -15    1    1    2    0    0  0.21916271594E+00  0.25051494074E+01  0.95303985507E+02  0.95353716175E+02  0.17770000000E+01 0.  1.
         15    1    1    2    0    0  0.23146731847E+01 -0.29670531431E+01  0.21398673252E+02  0.21799588580E+02  0.17770000000E+01 0. -1.
</event>
<event>
 6    1  0.1298204E-002  0.1833652E+03  0.7546771E-02  0.1067768E+00
        -11   -1    0    0    0    0  0.00000000000E+00  0.00000000000E+00  0.18250000000E+03  0.18250000000E+03  0.00000000000E+00 0. -1.
         11   -1    0    0    0    0 -0.00000000000E+00 -0.00000000000E+00 -0.18250000000E+03  0.18250000000E+03  0.00000000000E+00 0.  1.
        -11    1    1    2    0    0 -0.53736155770E+00  0.42141733954E+01  0.18158513573E+03  0.18163482467E+03  0.00000000000E+00 0. -1.
         11    1    1    2    0    0 -0.24429969448E+01  0.15957830729E+00 -0.16807065392E+03  0.16808848387E+03  0.00000000000E+00 0.  1.
        -15    1    1    2    0    0 -0.56059170082E-01 -0.25867722374E+01 -0.67795411822E+01  0.74709062958E+01  0.17770000000E+01 0. -1.
         15    1    1    2    0    0  0.30364176726E+01 -0.17869794654E+01 -0.67349406231E+01  0.78057851680E+01  0.17770000000E+01 0.  1.
</event>
<event>
 6    1  0.1298204E-002  0.1830738E+03  0.7546771E-02  0.1067999E+00
        -11   -1    0    0    0    0  0.00000000000E+00  0.00000000000E+00  0.18250000000E+03  0.18250000000E+03  0.00000000000E+00 0. -1.
         11   -1    0    0    0    0 -0.00000000000E+00 -0.00000000000E+00 -0.18250000000E+03  0.18250000000E+03  0.00000000000E+00 0.  1.
        -11    1    1    2    0    0  0.34934562762E+01  0.12021993543E+01  0.10584092039E+03  0.10590538206E+03  0.00000000000E+00 0. -1.
         11    1    1    2    0    0 -0.38839527105E+01  0.50022317935E+01 -0.18181598653E+03  0.18192624981E+03  0.00000000000E+00 0.  1.
        -15    1    1    2    0    0 -0.49842728057E+01 -0.42316398571E+01  0.27423922571E+02  0.28248522253E+02  0.17770000000E+01 0. -1.
         15    1    1    2    0    0  0.53747692400E+01 -0.19727912907E+01  0.48551143571E+02  0.48919845880E+02  0.17770000000E+01 0.  1.
</event>
<event>
 6    1  0.1298204E-002  0.1878891E+03  0.7546771E-02  0.1064244E+00
        -11   -1    0    0    0    0  0.00000000000E+00  0.00000000000E+00  0.18250000000E+03  0.18250000000E+03  0.00000000000E+00 0.  1.
         11   -1    0    0    0    0 -0.00000000000E+00 -0.00000000000E+00 -0.18250000000E+03  0.18250000000E+03  0.00000000000E+00 0.  1.
        -11    1    1    2    0    0 -0.16912852106E+01 -0.36141184000E+01  0.17706591462E+03  0.17711087041E+03  0.00000000000E+00 0.  1.
         11    1    1    2    0    0 -0.58165050388E+00  0.10428377686E+01 -0.67645690834E+02  0.67656228954E+02  0.00000000000E+00 0.  1.
        -15    1    1    2    0    0  0.11472561061E+02  0.75646827841E+01 -0.42009095973E+01  0.14479276686E+02  0.17770000000E+01 0. -1.
         15    1    1    2    0    0 -0.91996253463E+01 -0.49934021527E+01 -0.10521931419E+03  0.10575362395E+03  0.17770000000E+01 0.  1.
</event>
<event>
 6    1  0.1298204E-002  0.1851971E+03  0.7546771E-02  0.1066328E+00
        -11   -1    0    0    0    0  0.00000000000E+00  0.00000000000E+00  0.18250000000E+03  0.18250000000E+03  0.00000000000E+00 0.  1.
         11   -1    0    0    0    0 -0.00000000000E+00 -0.00000000000E+00 -0.18250000000E+03  0.18250000000E+03  0.00000000000E+00 0. -1.
        -11    1    1    2    0    0 -0.14877640917E+01  0.10991621049E+01  0.71793921825E+02  0.71817747183E+02  0.00000000000E+00 0.  1.
         11    1    1    2    0    0 -0.33137000249E+01 -0.34652694681E+01 -0.17973891614E+03  0.17980285502E+03  0.00000000000E+00 0. -1.
        -15    1    1    2    0    0  0.65498263802E+00 -0.47302965896E+01  0.10394108129E+03  0.10406589651E+03  0.17770000000E+01 0.  1.
         15    1    1    2    0    0  0.41464814786E+01  0.70964039528E+01  0.40039130207E+01  0.93135012853E+01  0.17770000000E+01 0. -1.
</event>
<event>
 6    1  0.1298204E-002  0.1787944E+03  0.7546771E-02  0.1071443E+00
        -11   -1    0    0    0    0  0.00000000000E+00  0.00000000000E+00  0.18250000000E+03  0.18250000000E+03  0.00000000000E+00 0. -1.
         11   -1    0    0    0    0 -0.00000000000E+00 -0.00000000000E+00 -0.18250000000E+03  0.18250000000E+03  0.00000000000E+00 0.  1.
        -11    1    1    2    0    0  0.40532197903E+01 -0.75607372541E+00  0.17930028455E+03  0.17934768545E+03  0.00000000000E+00 0. -1.
         11    1    1    2    0    0 -0.23505035955E+01  0.29663257481E+01 -0.17821351341E+03  0.17825369651E+03  0.00000000000E+00 0.  1.
        -15    1    1    2    0    0 -0.11648398535E+00 -0.39716492889E+01 -0.75479227748E+00  0.44175793116E+01  0.17770000000E+01 0.  1.
         15    1    1    2    0    0 -0.15862322095E+01  0.17613972661E+01 -0.33197885595E+00  0.29810387304E+01  0.17770000000E+01 0. -1.
</event>
<event>
 6    1  0.1298204E-002  0.1633732E+03  0.7546771E-02  0.1084789E+00
        -11   -1    0    0    0    0  0.00000000000E+00  0.00000000000E+00  0.18250000000E+03  0.18250000000E+03  0.00000000000E+00 0.  1.
         11   -1    0    0    0    0 -0.00000000000E+00 -0.00000000000E+00 -0.18250000000E+03  0.18250000000E+03  0.00000000000E+00 0. -1.
        -11    1    1    2    0    0 -0.10635504369E+01  0.25463192802E+02  0.16786625693E+03  0.16978982756E+03  0.00000000000E+00 0.  1.
         11    1    1    2    0    0 -0.21159892612E+01 -0.30785343453E+01 -0.15784692171E+03  0.15789111906E+03  0.00000000000E+00 0. -1.
        -15    1    1    2    0    0  0.30398721924E+01 -0.28557596303E+02 -0.50893827904E+01  0.29220483838E+02  0.17770000000E+01 0. -1.
         15    1    1    2    0    0  0.13966750569E+00  0.61729378463E+01 -0.49299524302E+01  0.80985695423E+01  0.17770000000E+01 0.  1.
</event>
<event>
 6    1  0.1298204E-002  0.1859279E+03  0.7546771E-02  0.1065758E+00
        -11   -1    0    0    0    0  0.00000000000E+00  0.00000000000E+00  0.18250000000E+03  0.18250000000E+03  0.00000000000E+00 0. -1.
         11   -1    0    0    0    0 -0.00000000000E+00 -0.00000000000E+00 -0.18250000000E+03  0.18250000000E+03  0.00000000000E+00 0. -1.
        -11    1    1    2    0    0  0.67682267318E+00 -0.23945635174E+01  0.95450759990E+02  0.95483190175E+02  0.00000000000E+00 0. -1.
         11    1    1    2    0    0 -0.88525597224E+01 -0.77203683069E+01 -0.17868640223E+03  0.17907205880E+03  0.00000000000E+00 0. -1.
        -15    1    1    2    0    0  0.46989980355E+01  0.77777126390E+01  0.85045058019E+02  0.85547606740E+02  0.17770000000E+01 0. -1.
         15    1    1    2    0    0  0.34767390138E+01  0.23372191853E+01 -0.18094157757E+01  0.48971442841E+01  0.17770000000E+01 0.  1.
</event>
<event>
 6    1  0.1298204E-002  0.1551750E+03  0.7546771E-02  0.1092560E+00
        -11   -1    0    0    0    0  0.00000000000E+00  0.00000000000E+00  0.18250000000E+03  0.18250000000E+03  0.00000000000E+00 0. -1.
         11   -1    0    0    0    0 -0.00000000000E+00 -0.00000000000E+00 -0.18250000000E+03  0.18250000000E+03  0.00000000000E+00 0. -1.
        -11    1    1    2    0    0 -0.53922914915E+01 -0.19413239410E+01  0.12394240850E+03  0.12407484101E+03  0.00000000000E+00 0. -1.
         11    1    1    2    0    0 -0.91747629219E+01  0.30734924451E+02 -0.99136128220E+02  0.10419589135E+03  0.00000000000E+00 0. -1.
        -15    1    1    2    0    0  0.32618791242E+01  0.56689280394E+01  0.51647328465E+02  0.52090122548E+02  0.17770000000E+01 0. -1.
         15    1    1    2    0    0  0.11305175289E+02 -0.34462528549E+02 -0.76453608748E+02  0.84639145092E+02  0.17770000000E+01 0. -1.
</event>
<event>
 6    1  0.1298204E-002  0.1837915E+03  0.7546771E-02  0.1067431E+00
        -11   -1    0    0    0    0  0.00000000000E+00  0.00000000000E+00  0.18250000000E+03  0.18250000000E+03  0.00000000000E+00 0. -1.
         11   -1    0    0    0    0 -0.00000000000E+00 -0.00000000000E+00 -0.18250000000E+03  0.18250000000E+03  0.00000000000E+00 0. -1.
        -11    1    1    2    0    0 -0.25733893638E+01  0.31333509254E+01  0.15412512355E+03  0.15417844833E+03  0.00000000000E+00 0. -1.
         11    1    1    2    0    0  0.36661952198E+01  0.56187369231E+00 -0.18117057489E+03  0.18120853704E+03  0.00000000000E+00 0. -1.
        -15    1    1    2    0    0 -0.55762964491E+01 -0.14604938080E+01  0.92694666304E+01  0.11059333834E+02  0.17770000000E+01 0. -1.
         15    1    1    2    0    0  0.44834905931E+01 -0.22347308096E+01  0.17775984710E+02  0.18553680796E+02  0.17770000000E+01 0. -1.
</event>
<event>
 6    1  0.1298204E-002  0.1826092E+03  0.7546771E-02  0.1068368E+00
        -11   -1    0    0    0    0  0.00000000000E+00  0.00000000000E+00  0.18250000000E+03  0.18250000000E+03  0.00000000000E+00 0.  1.
         11   -1    0    0    0    0 -0.00000000000E+00 -0.00000000000E+00 -0.18250000000E+03  0.18250000000E+03  0.00000000000E+00 0.  1.
        -11    1    1    2    0    0  0.25677021896E+01  0.10268326003E+01  0.18236986061E+03  0.18239082635E+03  0.00000000000E+00 0.  1.
         11    1    1    2    0    0  0.60703004382E+00  0.18808860271E+01 -0.34157788279E+02  0.34214919521E+02  0.00000000000E+00 0.  1.
        -15    1    1    2    0    0 -0.30319275012E+01  0.24430487475E-02 -0.50242537865E+02  0.50365294901E+02  0.17770000000E+01 0. -1.
         15    1    1    2    0    0 -0.14280473223E+00 -0.29101616761E+01 -0.97969534465E+02  0.98028959224E+02  0.17770000000E+01 0.  1.
</event>
<event>
 6    1  0.1298204E-002  0.1688012E+03  0.7546771E-02  0.1079914E+00
        -11   -1    0    0    0    0  0.00000000000E+00  0.00000000000E+00  0.18250000000E+03  0.18250000000E+03  0.00000000000E+00 0.  1.
         11   -1    0    0    0    0 -0.00000000000E+00 -0.00000000000E+00 -0.18250000000E+03  0.18250000000E+03  0.00000000000E+00 0.  1.
        -11    1    1    2    0    0 -0.25287784344E+01  0.11394493404E+01  0.17006350122E+03  0.17008611793E+03  0.00000000000E+00 0.  1.
         11    1    1    2    0    0 -0.80023435536E+00 -0.48590141470E+01 -0.16749052332E+03  0.16756290102E+03  0.00000000000E+00 0.  1.
        -15    1    1    2    0    0 -0.11844659658E+00 -0.40282885256E+01 -0.13039629433E+02  0.13763386312E+02  0.17770000000E+01 0.  1.
         15    1    1    2    0    0  0.34474593863E+01  0.77478533321E+01  0.10466651542E+02  0.13587594746E+02  0.17770000000E+01 0. -1.
</event>
<event>
 6    1  0.1298204E-002  0.1840998E+03  0.7546771E-02  0.1067188E+00
        -11   -1    0    0    0    0  0.00000000000E+00  0.00000000000E+00  0.18250000000E+03  0.18250000000E+03  0.00000000000E+00 0.  1.
         11   -1    0    0    0    0 -0.00000000000E+00 -0.00000000000E+00 -0.18250000000E+03  0.18250000000E+03  0.00000000000E+00 0. -1.
        -11    1    1    2    0    0  0.54048448425E+01 -0.74974102142E+01  0.18066390279E+03  0.18090016385E+03  0.00000000000E+00 0.  1.
         11    1    1    2    0    0 -0.40865870101E+01 -0.23740705214E+01 -0.12789575648E+03  0.12798304939E+03  0.00000000000E+00 0. -1.
        -15    1    1    2    0    0 -0.43816419466E+01  0.89580888885E+01 -0.14576637902E+02  0.17750556166E+02  0.17770000000E+01 0.  1.
         15    1    1    2    0    0  0.30633841142E+01  0.91339184712E+00 -0.38191508408E+02  0.38366230599E+02  0.17770000000E+01 0.  1.
</event>
<event>
 6    1  0.1298204E-002  0.1863876E+03  0.7546771E-02  0.1065402E+00
        -11   -1    0    0    0    0  0.00000000000E+00  0.00000000000E+00  0.18250000000E+03  0.18250000000E+03  0.00000000000E+00 0. -1.
         11   -1    0    0    0    0 -0.00000000000E+00 -0.00000000000E+00 -0.18250000000E+03  0.18250000000E+03  0.00000000000E+00 0.  1.
        -11    1    1    2    0    0 -0.95663921393E+00  0.63583934767E+01  0.17849660019E+03  0.17861237529E+03  0.00000000000E+00 0. -1.
         11    1    1    2    0    0 -0.71612866257E+01 -0.40284641800E+01 -0.12107125139E+03  0.12134974439E+03  0.00000000000E+00 0.  1.
        -15    1    1    2    0    0  0.52470444257E+01 -0.12193941589E+02 -0.10641009825E+02  0.17105920197E+02  0.17770000000E+01 0.  1.
         15    1    1    2    0    0  0.28708814139E+01  0.98640122922E+01 -0.46784338975E+02  0.47931960120E+02  0.17770000000E+01 0. -1.
</event>
<event>
 6    1  0.1298204E-002  0.1835878E+03  0.7546771E-02  0.1067592E+00
        -11   -1    0    0    0    0  0.00000000000E+00  0.00000000000E+00  0.18250000000E+03  0.18250000000E+03  0.00000000000E+00 0. -1.
         11   -1    0    0    0    0 -0.00000000000E+00 -0.00000000000E+00 -0.18250000000E+03  0.18250000000E+03  0.00000000000E+00 0.  1.
        -11    1    1    2    0    0  0.60439750632E+01 -0.45014998029E+01  0.18125562474E+03  0.18141222295E+03  0.00000000000E+00 0. -1.
         11    1    1    2    0    0 -0.80233997094E+01  0.23835401472E+01 -0.11186494193E+03  0.11217763342E+03  0.00000000000E+00 0.  1.
        -15    1    1    2    0    0 -0.27427939933E+01  0.14022825667E+01 -0.25513019626E+01  0.43767780377E+01  0.17770000000E+01 0. -1.
         15    1    1    2    0    0  0.47222186395E+01  0.71567708893E+00 -0.66839380849E+02  0.67033365601E+02  0.17770000000E+01 0.  1.
</event>
<event>
 6    1  0.1298204E-002  0.1864797E+03  0.7546771E-02  0.1065330E+00
        -11   -1    0    0    0    0  0.00000000000E+00  0.00000000000E+00  0.18250000000E+03  0.18250000000E+03  0.00000000000E+00 0. -1.
         11   -1    0    0    0    0 -0.00000000000E+00 -0.00000000000E+00 -0.18250000000E+03  0.18250000000E+03  0.00000000000E+00 0. -1.
        -11    1    1    2    0    0  0.31736536358E+01  0.65146417095E+01  0.16935186547E+03  0.16950683459E+03  0.00000000000E+00 0. -1.
         11    1    1    2    0    0  0.45572526554E+01 -0.42575415753E+01 -0.17841135518E+03  0.17852032621E+03  0.00000000000E+00 0. -1.
        -15    1    1    2    0    0  0.90341890808E+00 -0.10847138934E+01 -0.18286703778E+01  0.29145384377E+01  0.17770000000E+01 0.  1.
         15    1    1    2    0    0 -0.86343251993E+01 -0.11723862407E+01  0.10888160090E+02  0.14058300761E+02  0.17770000000E+01 0. -1.
</event>
<event>
 6    1  0.1298204E-002  0.1825886E+03  0.7546771E-02  0.1068384E+00
        -11   -1    0    0    0    0  0.00000000000E+00  0.00000000000E+00  0.18250000000E+03  0.18250000000E+03  0.00000000000E+00 0.  1.
         11   -1    0    0    0    0 -0.00000000000E+00 -0.00000000000E+00 -0.18250000000E+03  0.18250000000E+03  0.00000000000E+00 0. -1.
        -11    1    1    2    0    0 -0.89821133869E-01  0.11122164276E+01  0.73489150083E+02  0.73497620867E+02  0.00000000000E+00 0.  1.
         11    1    1    2    0    0 -0.37156719885E+01  0.13389565544E+00 -0.18237349749E+03  0.18241139419E+03  0.00000000000E+00 0. -1.
        -15    1    1    2    0    0  0.10152338423E+01  0.13854294090E+01  0.43481096927E+02  0.43551275910E+02  0.17770000000E+01 0. -1.
         15    1    1    2    0    0  0.27902592801E+01 -0.26315414921E+01  0.65403250478E+02  0.65539709028E+02  0.17770000000E+01 0.  1.
</event>
<event>
 6    1  0.1298204E-002  0.1828140E+03  0.7546771E-02  0.1068205E+00
        -11   -1    0    0    0    0  0.00000000000E+00  0.00000000000E+00  0.18250000000E+03  0.18250000000E+03  0.00000000000E+00 0.  1.
         11   -1    0    0    0    0 -0.00000000000E+00 -0.00000000000E+00 -0.18250000000E+03  0.18250000000E+03  0.00000000000E+00 0. -1.
        -11    1    1    2    0    0  0.50462145590E+00 -0.19350067598E+01  0.87907793053E+02  0.87930534932E+02  0.00000000000E+00 0.  1.
         11    1    1    2    0    0  0.30842517525E+01  0.26621578941E+01 -0.18214042697E+03  0.18218598966E+03  0.00000000000E+00 0. -1.
        -15    1    1    2    0    0 -0.69206676354E+01 -0.12948689474E+01  0.64009665387E+02  0.64420239972E+02  0.17770000000E+01 0.  1.
         15    1    1    2    0    0  0.33317944270E+01  0.56771781307E+00  0.30222968527E+02  0.30463235435E+02  0.17770000000E+01 0. -1.
</event>
<event>
 6    1  0.1298204E-002  0.1879763E+03  0.7546771E-02  0.1064177E+00
        -11   -1    0    0    0    0  0.00000000000E+00  0.00000000000E+00  0.18250000000E+03  0.18250000000E+03  0.00000000000E+00 0. -1.
         11   -1    0    0    0    0 -0.00000000000E+00 -0.00000000000E+00 -0.18250000000E+03  0.18250000000E+03  0.00000000000E+00 0. -1.
        -11    1    1    2    0    0  0.37564869462E+01  0.73026770701E+01  0.17683314031E+03  0.17702372666E+03  0.00000000000E+00 0. -1.
         11    1    1    2    0    0  0.34428219616E+01  0.24589667852E+01 -0.16464855723E+03  0.16470290507E+03  0.00000000000E+00 0. -1.
        -15    1    1    2    0    0 -0.90892903833E+01 -0.38505631011E+01 -0.64465529477E+00  0.10050639050E+02  0.17770000000E+01 0. -1.
         15    1    1    2    0    0  0.18899814756E+01 -0.59110807542E+01 -0.11539927789E+02  0.13222729221E+02  0.17770000000E+01 0.  1.
</event>
<event>
 6    1  0.1298204E-002  0.1835953E+03  0.7546771E-02  0.1067586E+00
        -11   -1    0    0    0    0  0.00000000000E+00  0.00000000000E+00  0.18250000000E+03  0.18250000000E+03  0.00000000000E+00 0. -1.
         11   -1    0    0    0    0 -0.00000000000E+00 -0.00000000000E+00 -0.18250000000E+03  0.18250000000E+03  0.00000000000E+00 0.  1.
        -11    1    1    2    0    0  0.70865145818E-01  0.43658743069E+01  0.18135218869E+03  0.18140474697E+03  0.00000000000E+00 0. -1.
         11    1    1    2    0    0  0.52198701429E+01  0.70693938158E+00 -0.50192167339E+02  0.50467816178E+02  0.00000000000E+00 0.  1.
        -15    1    1    2    0    0 -0.46003076682E+01 -0.49373110034E+01 -0.13102580462E+03  0.13121150512E+03  0.17770000000E+01 0.  1.
         15    1    1    2    0    0 -0.69042762053E+00 -0.13550268511E+00 -0.13421672598E+00  0.19159317332E+01  0.17770000000E+01 0. -1.
</event>
<event>
 6    1  0.1298204E-002  0.1843299E+03  0.7546771E-02  0.1067007E+00
        -11   -1    0    0    0    0  0.00000000000E+00  0.00000000000E+00  0.18250000000E+03  0.18250000000E+03  0.00000000000E+00 0. -1.
         11   -1    0    0    0    0 -0.00000000000E+00 -0.00000000000E+00 -0.18250000000E+03  0.18250000000E+03  0.00000000000E+00 0.  1.
        -11    1    1    2    0    0 -0.35645518550E+01 -0.46225555972E+00  0.18063429565E+03  0.18067005417E+03  0.00000000000E+00 0. -1.
         11    1    1    2    0    0 -0.27147091915E+01 -0.52437126364E+01 -0.14826835315E+03  0.14838588448E+03  0.00000000000E+00 0.  1.
        -15    1    1    2    0    0  0.16576297988E+01  0.35998158071E+01 -0.29556597037E+02  0.29874011579E+02  0.17770000000E+01 0.  1.
         15    1    1    2    0    0  0.46216312477E+01  0.21061523890E+01 -0.28093454600E+01  0.60700497683E+01  0.17770000000E+01 0.  1.
</event>
<event>
 6    1  0.1298204E-002  0.1836619E+03  0.7546771E-02  0.1067534E+00
        -11   -1    0    0    0    0  0.00000000000E+00  0.00000000000E+00  0.18250000000E+03  0.18250000000E+03  0.00000000000E+00 0.  1.
         11   -1    0    0    0    0 -0.00000000000E+00 -0.00000000000E+00 -0.18250000000E+03  0.18250000000E+03  0.00000000000E+00 0.  1.
        -11    1    1    2    0    0  0.26940253755E+01 -0.11572193891E+01  0.18131439240E+03  0.18133809809E+03  0.00000000000E+00 0.  1.
         11    1    1    2    0    0 -0.28359164704E+01 -0.66836095114E+00 -0.16075785714E+03  0.16078425844E+03  0.00000000000E+00 0.  1.
        -15    1    1    2    0    0  0.44653405817E+01 -0.35600360204E+00 -0.11213505853E+02  0.12205181178E+02  0.17770000000E+01 0.  1.
         15    1    1    2    0    0 -0.43234494868E+01  0.21815839423E+01 -0.93430294047E+01  0.10672462294E+02  0.17770000000E+01 0.  1.
</event>
<event>
 6    1  0.1298204E-002  0.1827426E+03  0.7546771E-02  0.1068262E+00
        -11   -1    0    0    0    0  0.00000000000E+00  0.00000000000E+00  0.18250000000E+03  0.18250000000E+03  0.00000000000E+00 0.  1.
         11   -1    0    0    0    0 -0.00000000000E+00 -0.00000000000E+00 -0.18250000000E+03  0.18250000000E+03  0.00000000000E+00 0.  1.
        -11    1    1    2    0    0 -0.32445477292E+00  0.68887689959E+00  0.33283759990E+02  0.33292469139E+02  0.00000000000E+00 0.  1.
         11    1    1    2    0    0 -0.15626417479E+01  0.54587424744E+01 -0.18216890849E+03  0.18225737554E+03  0.00000000000E+00 0.  1.
        -15    1    1    2    0    0  0.42983236400E+01 -0.68544359925E+01  0.67430645313E+02  0.67937534068E+02  0.17770000000E+01 0.  1.
         15    1    1    2    0    0 -0.24112271191E+01  0.70681661849E+00  0.81454503184E+02  0.81512621255E+02  0.17770000000E+01 0.  1.
</event>
<event>
 6    1  0.1298204E-002  0.1837844E+03  0.7546771E-02  0.1067437E+00
        -11   -1    0    0    0    0  0.00000000000E+00  0.00000000000E+00  0.18250000000E+03  0.18250000000E+03  0.00000000000E+00 0.  1.
         11   -1    0    0    0    0 -0.00000000000E+00 -0.00000000000E+00 -0.18250000000E+03  0.18250000000E+03  0.00000000000E+00 0. -1.
        -11    1    1    2    0    0  0.18245104447E+01 -0.40568487738E+01  0.15353758996E+03  0.15360201298E+03  0.00000000000E+00 0.  1.
         11    1    1    2    0    0  0.33484797363E+01  0.43799280889E+01 -0.18113171623E+03  0.18121560283E+03  0.00000000000E+00 0. -1.
        -15    1    1    2    0    0 -0.36362745796E+01 -0.36409349672E+01  0.55788130465E+01  0.77948562695E+01  0.17770000000E+01 0. -1.
         15    1    1    2    0    0 -0.15367156013E+01  0.33178556520E+01  0.22015313223E+02  0.22387527918E+02  0.17770000000E+01 0.  1.
</event>
<event>
 6    1  0.1298204E-002  0.1842201E+03  0.7546771E-02  0.1067094E+00
        -11   -1    0    0    0    0  0.00000000000E+00  0.00000000000E+00  0.18250000000E+03  0.18250000000E+03  0.00000000000E+00 0.  1.
         11   -1    0    0    0    0 -0.00000000000E+00 -0.00000000000E+00 -0.18250000000E+03  0.18250000000E+03  0.00000000000E+00 0.  1.
        -11    1    1    2    0    0 -0.44901774609E+01  0.21288554429E+00  0.15678893439E+03  0.15685336134E+03  0.00000000000E+00 0.  1.
         11    1    1    2    0    0 -0.60621628346E+01  0.37398165991E+01 -0.18063948965E+03  0.18077986964E+03  0.00000000000E+00 0.  1.
        -15    1    1    2    0    0  0.88243501440E+01 -0.22660970817E+01  0.21910830584E+02  0.23795936152E+02  0.17770000000E+01 0.  1.
         15    1    1    2    0    0  0.17279901514E+01 -0.16866050617E+01  0.19397246709E+01  0.35708328715E+01  0.17770000000E+01 0. -1.
</event>
<event>
 6    1  0.1298204E-002  0.1841800E+03  0.7546771E-02  0.1067125E+00
        -11   -1    0    0    0    0  0.00000000000E+00  0.00000000000E+00  0.18250000000E+03  0.18250000000E+03  0.00000000000E+00 0.  1.
         11   -1    0    0    0    0 -0.00000000000E+00 -0.00000000000E+00 -0.18250000000E+03  0.18250000000E+03  0.00000000000E+00 0.  1.
        -11    1    1    2    0    0 -0.32702119345E+01 -0.39687431276E+01  0.17285879054E+03  0.17293526729E+03  0.00000000000E+00 0.  1.
         11    1    1    2    0    0  0.63047804569E+01  0.19344130977E+01 -0.18069965894E+03  0.18081996282E+03  0.00000000000E+00 0.  1.
        -15    1    1    2    0    0  0.14740570458E+01  0.15217129023E+01  0.12163530407E+01  0.30208770334E+01  0.17770000000E+01 0. -1.
         15    1    1    2    0    0 -0.45086255682E+01  0.51261712754E+00  0.66245153671E+01  0.82238928546E+01  0.17770000000E+01 0.  1.
</event>
<event>
 6    1  0.1298204E-002  0.1828794E+03  0.7546771E-02  0.1068153E+00
        -11   -1    0    0    0    0  0.00000000000E+00  0.00000000000E+00  0.18250000000E+03  0.18250000000E+03  0.00000000000E+00 0. -1.
         11   -1    0    0    0    0 -0.00000000000E+00 -0.00000000000E+00 -0.18250000000E+03  0.18250000000E+03  0.00000000000E+00 0. -1.
        -11    1    1    2    0    0  0.17571437882E+01 -0.28762882602E+01  0.18208937067E+03  0.18212056309E+03  0.00000000000E+00 0. -1.
         11    1    1    2    0    0 -0.34007532504E+01  0.24010859381E+00 -0.13913640672E+03  0.13917816800E+03  0.00000000000E+00 0. -1.
        -15    1    1    2    0    0  0.36955624425E+01  0.22595375863E+01 -0.34473049017E+02  0.34789531894E+02  0.17770000000E+01 0.  1.
         15    1    1    2    0    0 -0.20519529803E+01  0.37664208009E+00 -0.84799149373E+01  0.89117370156E+01  0.17770000000E+01 0. -1.
</event>
<event>
 6    1  0.1298204E-002  0.1718490E+03  0.7546771E-02  0.1077264E+00
        -11   -1    0    0    0    0  0.00000000000E+00  0.00000000000E+00  0.18250000000E+03  0.18250000000E+03  0.00000000000E+00 0. -1.
         11   -1    0    0    0    0 -0.00000000000E+00 -0.00000000000E+00 -0.18250000000E+03  0.18250000000E+03  0.00000000000E+00 0. -1.
        -11    1    1    2    0    0  0.90364158391E+01 -0.12046229870E+02  0.17044945088E+03  0.17111336526E+03  0.00000000000E+00 0. -1.
         11    1    1    2    0    0 -0.74320130195E-01  0.63478999832E+01 -0.17263890763E+03  0.17275558973E+03  0.00000000000E+00 0. -1.
        -15    1    1    2    0    0 -0.31908656105E+01 -0.63325774298E+01  0.23182122251E+01  0.76690936341E+01  0.17770000000E+01 0. -1.
         15    1    1    2    0    0 -0.57712300984E+01  0.12030907316E+02 -0.12875548236E+00  0.13461951369E+02  0.17770000000E+01 0.  1.
</event>
<event>
 6    1  0.1298204E-002  0.1852371E+03  0.7546771E-02  0.1066297E+00
        -11   -1    0    0    0    0  0.00000000000E+00  0.00000000000E+00  0.18250000000E+03  0.18250000000E+03  0.00000000000E+00 0. -1.
         11   -1    0    0    0    0 -0.00000000000E+00 -0.00000000000E+00 -0.18250000000E+03  0.18250000000E+03  0.00000000000E+00 0. -1.
        -11    1    1    2    0    0 -0.14676536157E+01  0.69170396849E+01  0.17962374567E+03  0.17976287007E+03  0.00000000000E+00 0. -1.
         11    1    1    2    0    0  0.78608177113E+01  0.24387758146E+00 -0.17180795182E+03  0.17198786073E+03  0.00000000000E+00 0. -1.
        -15    1    1    2    0    0 -0.28182537402E+01 -0.27197562375E+01 -0.14941167154E+01  0.45529926307E+01  0.17770000000E+01 0.  1.
         15    1    1    2    0    0 -0.35749103554E+01 -0.44411610288E+01 -0.63216771368E+01  0.86962765684E+01  0.17770000000E+01 0. -1.
</event>
<event>
 6    1  0.1298204E-002  0.1826927E+03  0.7546771E-02  0.1068302E+00
        -11   -1    0    0    0    0  0.00000000000E+00  0.00000000000E+00  0.18250000000E+03  0.18250000000E+03  0.00000000000E+00 0.  1.
         11   -1    0    0    0    0 -0.00000000000E+00 -0.00000000000E+00 -0.18250000000E+03  0.18250000000E+03  0.00000000000E+00 0. -1.
        -11    1    1    2    0    0  0.18347673573E+01  0.45107115406E+01  0.18224229959E+03  0.18230734667E+03  0.00000000000E+00 0.  1.
         11    1    1    2    0    0  0.38718798772E+00  0.12155784532E+01 -0.10222701645E+02  0.10301998565E+02  0.00000000000E+00 0. -1.
        -15    1    1    2    0    0 -0.33398012303E+01 -0.42023077968E+01 -0.15973910289E+03  0.15983914535E+03  0.17770000000E+01 0. -1.
         15    1    1    2    0    0  0.11178458852E+01 -0.15239821970E+01 -0.12280495047E+02  0.12551509421E+02  0.17770000000E+01 0.  1.
</event>
<event>
 6    1  0.1298204E-002  0.1773664E+03  0.7546771E-02  0.1072616E+00
        -11   -1    0    0    0    0  0.00000000000E+00  0.00000000000E+00  0.18250000000E+03  0.18250000000E+03  0.00000000000E+00 0.  1.
         11   -1    0    0    0    0 -0.00000000000E+00 -0.00000000000E+00 -0.18250000000E+03  0.18250000000E+03  0.00000000000E+00 0. -1.
        -11    1    1    2    0    0  0.39417640888E+01  0.35319316282E+01  0.17762626277E+03  0.17770509635E+03  0.00000000000E+00 0.  1.
         11    1    1    2    0    0  0.31825821242E+01 -0.21907749128E+01 -0.17706005119E+03  0.17710220228E+03  0.00000000000E+00 0. -1.
        -15    1    1    2    0    0 -0.41403436932E+01 -0.38162170612E+01 -0.52410940584E+00  0.59277633409E+01  0.17770000000E+01 0.  1.
         15    1    1    2    0    0 -0.29840025198E+01  0.24750603458E+01 -0.42102168658E-01  0.42649380237E+01  0.17770000000E+01 0. -1.
</event>
<event>
 6    1  0.1298204E-002  0.1736678E+03  0.7546771E-02  0.1075711E+00
        -11   -1    0    0    0    0  0.00000000000E+00  0.00000000000E+00  0.18250000000E+03  0.18250000000E+03  0.00000000000E+00 0.  1.
         11   -1    0    0    0    0 -0.00000000000E+00 -0.00000000000E+00 -0.18250000000E+03  0.18250000000E+03  0.00000000000E+00 0. -1.
        -11    1    1    2    0    0 -0.28495890860E+01 -0.77985930822E+00  0.17388515746E+03  0.17391025364E+03  0.00000000000E+00 0.  1.
         11    1    1    2    0    0  0.11084232686E+01  0.25850217425E+01 -0.17341193622E+03  0.17343474439E+03  0.00000000000E+00 0. -1.
        -15    1    1    2    0    0 -0.78761344363E+00 -0.46157172850E+00 -0.86148349080E+01  0.88434434973E+01  0.17770000000E+01 0. -1.
         15    1    1    2    0    0  0.25287792610E+01 -0.13435907057E+01  0.81416136672E+01  0.88115584684E+01  0.17770000000E+01 0.  1.
</event>
<event>
 6    1  0.1298204E-002  0.1543380E+03  0.7546771E-02  0.1093383E+00
        -11   -1    0    0    0    0  0.00000000000E+00  0.00000000000E+00  0.18250000000E+03  0.18250000000E+03  0.00000000000E+00 0. -1.
         11   -1    0    0    0    0 -0.00000000000E+00 -0.00000000000E+00 -0.18250000000E+03  0.18250000000E+03  0.00000000000E+00 0. -1.
        -11    1    1    2    0    0  0.62700792992E+01  0.44473462229E+00  0.15436473697E+03  0.15449266553E+03  0.00000000000E+00 0. -1.
         11    1    1    2    0    0  0.14108837904E+01  0.25895082415E+01 -0.15426563665E+03  0.15429381970E+03  0.00000000000E+00 0. -1.
        -15    1    1    2    0    0 -0.18119704115E+01 -0.18389887567E+01 -0.27719113663E+02  0.27895736371E+02  0.17770000000E+01 0. -1.
         15    1    1    2    0    0 -0.58689926782E+01 -0.11952541071E+01  0.27620013343E+02  0.28317778399E+02  0.17770000000E+01 0. -1.
</event>
<event>
 6    1  0.1298204E-002  0.1894205E+03  0.7546771E-02  0.1063076E+00
        -11   -1    0    0    0    0  0.00000000000E+00  0.00000000000E+00  0.18250000000E+03  0.18250000000E+03  0.00000000000E+00 0. -1.
         11   -1    0    0    0    0 -0.00000000000E+00 -0.00000000000E+00 -0.18250000000E+03  0.18250000000E+03  0.00000000000E+00 0.  1.
        -11    1    1    2    0    0  0.18627693740E+01  0.17233196201E+01  0.17556111674E+03  0.17557945623E+03  0.00000000000E+00 0. -1.
         11    1    1    2    0    0 -0.17585856305E+01 -0.10703052736E+01 -0.11121461980E+03  0.11123367221E+03  0.00000000000E+00 0.  1.
        -15    1    1    2    0    0 -0.20076333047E+02 -0.54748587680E+01 -0.18439536784E+02  0.27860500228E+02  0.17770000000E+01 0.  1.
         15    1    1    2    0    0  0.19972149303E+02  0.48218444215E+01 -0.45906960158E+02  0.50326371331E+02  0.17770000000E+01 0. -1.
</event>
<event>
 6    1  0.1298204E-002  0.1854526E+03  0.7546771E-02  0.1066129E+00
        -11   -1    0    0    0    0  0.00000000000E+00  0.00000000000E+00  0.18250000000E+03  0.18250000000E+03  0.00000000000E+00 0.  1.
         11   -1    0    0    0    0 -0.00000000000E+00 -0.00000000000E+00 -0.18250000000E+03  0.18250000000E+03  0.00000000000E+00 0. -1.
        -11    1    1    2    0    0 -0.41131133672E+01 -0.28819789081E+01  0.85835196295E+02  0.85982000599E+02  0.00000000000E+00 0.  1.
         11    1    1    2    0    0 -0.23798840577E+01 -0.51844360388E+00 -0.17953084332E+03  0.17954736516E+03  0.00000000000E+00 0. -1.
        -15    1    1    2    0    0  0.54705258203E+01  0.67760592478E+00  0.95458046852E+02  0.95633583224E+02  0.17770000000E+01 0.  1.
         15    1    1    2    0    0  0.10224716045E+01  0.27228165872E+01 -0.17623998222E+01  0.38370510138E+01  0.17770000000E+01 0.  1.
</event>
<event>
 6    1  0.1298204E-002  0.1860687E+03  0.7546771E-02  0.1065649E+00
        -11   -1    0    0    0    0  0.00000000000E+00  0.00000000000E+00  0.18250000000E+03  0.18250000000E+03  0.00000000000E+00 0.  1.
         11   -1    0    0    0    0 -0.00000000000E+00 -0.00000000000E+00 -0.18250000000E+03  0.18250000000E+03  0.00000000000E+00 0. -1.
        -11    1    1    2    0    0  0.10990949531E+01 -0.18212710867E+00  0.42858831837E+02  0.42873309255E+02  0.00000000000E+00 0.  1.
         11    1    1    2    0    0 -0.14495410846E+01 -0.48544434994E+01 -0.17885960383E+03  0.17893134067E+03  0.00000000000E+00 0. -1.
        -15    1    1    2    0    0 -0.33139297387E+01 -0.17912450578E+02  0.34516376455E+02  0.39068862136E+02  0.17770000000E+01 0. -1.
         15    1    1    2    0    0  0.36643758703E+01  0.22949021186E+02  0.10148439554E+03  0.10412648794E+03  0.17770000000E+01 0.  1.
</event>
<event>
 6    1  0.1298204E-002  0.2282855E+03  0.7546771E-02  0.1036916E+00
        -11   -1    0    0    0    0  0.00000000000E+00  0.00000000000E+00  0.18250000000E+03  0.18250000000E+03  0.00000000000E+00 0. -1.
         11   -1    0    0    0    0 -0.00000000000E+00 -0.00000000000E+00 -0.18250000000E+03  0.18250000000E+03  0.00000000000E+00 0.  1.
        -11    1    1    2    0    0 -0.13679068812E+01  0.12993132315E+01  0.11322415257E+03  0.11323986978E+03  0.00000000000E+00 0. -1.
         11    1    1    2    0    0 -0.27168273612E+02 -0.17501628559E+02 -0.13283988397E+03  0.13671450861E+03  0.00000000000E+00 0.  1.
        -15    1    1    2    0    0  0.22275240897E+02  0.18909207845E+02 -0.43008850619E+02  0.52025603878E+02  0.17770000000E+01 0. -1.
         15    1    1    2    0    0  0.62609395959E+01 -0.27068925171E+01  0.62624582019E+02  0.63020017723E+02  0.17770000000E+01 0.  1.
</event>
<event>
 6    1  0.1298204E-002  0.1638628E+03  0.7546771E-02  0.1084341E+00
        -11   -1    0    0    0    0  0.00000000000E+00  0.00000000000E+00  0.18250000000E+03  0.18250000000E+03  0.00000000000E+00 0.  1.
         11   -1    0    0    0    0 -0.00000000000E+00 -0.00000000000E+00 -0.18250000000E+03  0.18250000000E+03  0.00000000000E+00 0. -1.
        -11    1    1    2    0    0  0.32223863891E+01  0.14516771979E-02  0.19788225250E+02  0.20048881134E+02  0.00000000000E+00 0.  1.
         11    1    1    2    0    0  0.38177621823E+01  0.61055689803E+01 -0.17491106886E+03  0.17505923366E+03  0.00000000000E+00 0. -1.
        -15    1    1    2    0    0  0.73574589249E+01  0.10512187265E+01  0.15343732994E+03  0.15362750148E+03  0.17770000000E+01 0.  1.
         15    1    1    2    0    0 -0.14397607496E+02 -0.71582393839E+01  0.16855136651E+01  0.16264383727E+02  0.17770000000E+01 0. -1.
</event>
<event>
 6    1  0.1298204E-002  0.1825449E+03  0.7546771E-02  0.1068419E+00
        -11   -1    0    0    0    0  0.00000000000E+00  0.00000000000E+00  0.18250000000E+03  0.18250000000E+03  0.00000000000E+00 0.  1.
         11   -1    0    0    0    0 -0.00000000000E+00 -0.00000000000E+00 -0.18250000000E+03  0.18250000000E+03  0.00000000000E+00 0. -1.
        -11    1    1    2    0    0 -0.27040501985E+00  0.37220513030E+01  0.18241689242E+03  0.18245506138E+03  0.00000000000E+00 0.  1.
         11    1    1    2    0    0  0.56543528156E+00  0.48201629475E-01 -0.63013280596E+01  0.63268298357E+01  0.00000000000E+00 0. -1.
        -15    1    1    2    0    0  0.66512957668E+00 -0.21285841712E+01 -0.12835771473E+03  0.12838938401E+03  0.17770000000E+01 0. -1.
         15    1    1    2    0    0 -0.96015983839E+00 -0.16416687613E+01 -0.47757849625E+02  0.47828724769E+02  0.17770000000E+01 0.  1.
</event>
<event>
 6    1  0.1298204E-002  0.1829772E+03  0.7546771E-02  0.1068076E+00
        -11   -1    0    0    0    0  0.00000000000E+00  0.00000000000E+00  0.18250000000E+03  0.18250000000E+03  0.00000000000E+00 0.  1.
         11   -1    0    0    0    0 -0.00000000000E+00 -0.00000000000E+00 -0.18250000000E+03  0.18250000000E+03  0.00000000000E+00 0.  1.
        -11    1    1    2    0    0 -0.22236449832E+01 -0.36089356774E+01  0.18197343670E+03  0.18202280263E+03  0.00000000000E+00 0.  1.
         11    1    1    2    0    0  0.13138021040E+01  0.24239884585E+01 -0.11464867207E+03  0.11468181985E+03  0.00000000000E+00 0.  1.
        -15    1    1    2    0    0 -0.26517851737E+01 -0.14614638882E+01 -0.75116974641E+01  0.82916324747E+01  0.17770000000E+01 0.  1.
         15    1    1    2    0    0  0.35616280529E+01  0.26464111070E+01 -0.59813067166E+02  0.60003745041E+02  0.17770000000E+01 0.  1.
</event>
<event>
 6    1  0.1298204E-002  0.1909457E+03  0.7546771E-02  0.1061924E+00
        -11   -1    0    0    0    0  0.00000000000E+00  0.00000000000E+00  0.18250000000E+03  0.18250000000E+03  0.00000000000E+00 0. -1.
         11   -1    0    0    0    0 -0.00000000000E+00 -0.00000000000E+00 -0.18250000000E+03  0.18250000000E+03  0.00000000000E+00 0. -1.
        -11    1    1    2    0    0 -0.47656473101E+01 -0.16725937064E+01  0.15104615611E+03  0.15113057347E+03  0.00000000000E+00 0. -1.
         11    1    1    2    0    0 -0.11590088985E+01 -0.31058901480E+01 -0.17402270416E+03  0.17405427722E+03  0.00000000000E+00 0. -1.
        -15    1    1    2    0    0 -0.11463618954E+02  0.53424649277E+01  0.17147994312E+02  0.21381485658E+02  0.17770000000E+01 0.  1.
         15    1    1    2    0    0  0.17388275162E+02 -0.56398107326E+00  0.58285537415E+01  0.18433663648E+02  0.17770000000E+01 0. -1.
</event>
<event>
 6    1  0.1298204E-002  0.1853200E+03  0.7546771E-02  0.1066232E+00
        -11   -1    0    0    0    0  0.00000000000E+00  0.00000000000E+00  0.18250000000E+03  0.18250000000E+03  0.00000000000E+00 0. -1.
         11   -1    0    0    0    0 -0.00000000000E+00 -0.00000000000E+00 -0.18250000000E+03  0.18250000000E+03  0.00000000000E+00 0. -1.
        -11    1    1    2    0    0  0.26699285705E+01  0.48814025653E+00  0.17569557377E+03  0.17571653719E+03  0.00000000000E+00 0. -1.
         11    1    1    2    0    0 -0.11275351263E+01  0.38754100961E+01 -0.17963470753E+03  0.17968004421E+03  0.00000000000E+00 0. -1.
        -15    1    1    2    0    0 -0.26946101497E+01 -0.13431125035E+01  0.46791422881E+01  0.58409739435E+01  0.17770000000E+01 0.  1.
         15    1    1    2    0    0  0.11522167055E+01 -0.30204378492E+01 -0.74000853195E+00  0.37624446527E+01  0.17770000000E+01 0.  1.
</event>
<event>
 6    1  0.1298204E-002  0.2282428E+03  0.7546771E-02  0.1036941E+00
        -11   -1    0    0    0    0  0.00000000000E+00  0.00000000000E+00  0.18250000000E+03  0.18250000000E+03  0.00000000000E+00 0.  1.
         11   -1    0    0    0    0 -0.00000000000E+00 -0.00000000000E+00 -0.18250000000E+03  0.18250000000E+03  0.00000000000E+00 0.  1.
        -11    1    1    2    0    0  0.13927128276E+02 -0.12942589691E+02  0.13542913356E+03  0.13675717805E+03  0.00000000000E+00 0.  1.
         11    1    1    2    0    0  0.18846693414E+01 -0.16511196579E+01 -0.99428767012E+02  0.99460333220E+02  0.00000000000E+00 0.  1.
        -15    1    1    2    0    0 -0.54479487398E+02  0.14112757834E+02 -0.60753887167E+02  0.82833429337E+02  0.17770000000E+01 0.  1.
         15    1    1    2    0    0  0.38667689781E+02  0.48095151504E+00  0.24753520615E+02  0.45949059394E+02  0.17770000000E+01 0. -1.
</event>
<event>
 6    1  0.1298204E-002  0.1832169E+03  0.7546771E-02  0.1067886E+00
        -11   -1    0    0    0    0  0.00000000000E+00  0.00000000000E+00  0.18250000000E+03  0.18250000000E+03  0.00000000000E+00 0.  1.
         11   -1    0    0    0    0 -0.00000000000E+00 -0.00000000000E+00 -0.18250000000E+03  0.18250000000E+03  0.00000000000E+00 0. -1.
        -11    1    1    2    0    0 -0.46989178829E+01 -0.21336941148E+01  0.18170985085E+03  0.18178311906E+03  0.00000000000E+00 0.  1.
         11    1    1    2    0    0 -0.53727451930E+01  0.65515506601E+00 -0.58524928960E+02  0.58774679317E+02  0.00000000000E+00 0. -1.
        -15    1    1    2    0    0  0.10139076438E+00 -0.48358475721E+01 -0.24347153681E+02  0.24886488768E+02  0.17770000000E+01 0.  1.
         15    1    1    2    0    0  0.99702723115E+01  0.63143866209E+01 -0.98837768208E+02  0.99555712854E+02  0.17770000000E+01 0. -1.
</event>
<event>
 6    1  0.1298204E-002  0.1853570E+03  0.7546771E-02  0.1066203E+00
        -11   -1    0    0    0    0  0.00000000000E+00  0.00000000000E+00  0.18250000000E+03  0.18250000000E+03  0.00000000000E+00 0.  1.
         11   -1    0    0    0    0 -0.00000000000E+00 -0.00000000000E+00 -0.18250000000E+03  0.18250000000E+03  0.00000000000E+00 0. -1.
        -11    1    1    2    0    0 -0.16737801400E+01 -0.22188981185E+01  0.17212002794E+03  0.17214246736E+03  0.00000000000E+00 0.  1.
         11    1    1    2    0    0  0.76069785334E+01  0.16109997347E+01 -0.17947466091E+03  0.17964302200E+03  0.00000000000E+00 0. -1.
        -15    1    1    2    0    0 -0.15382052489E+01  0.42842746678E+01  0.24539693078E+01  0.54681604933E+01  0.17770000000E+01 0. -1.
         15    1    1    2    0    0 -0.43949931446E+01 -0.36763762839E+01  0.49006636653E+01  0.77463501523E+01  0.17770000000E+01 0.  1.
</event>
<event>
 6    1  0.1298204E-002  0.1830803E+03  0.7546771E-02  0.1067994E+00
        -11   -1    0    0    0    0  0.00000000000E+00  0.00000000000E+00  0.18250000000E+03  0.18250000000E+03  0.00000000000E+00 0.  1.
         11   -1    0    0    0    0 -0.00000000000E+00 -0.00000000000E+00 -0.18250000000E+03  0.18250000000E+03  0.00000000000E+00 0. -1.
        -11    1    1    2    0    0 -0.21090162142E+01  0.31588424350E+01  0.11691981657E+03  0.11698149316E+03  0.00000000000E+00 0.  1.
         11    1    1    2    0    0  0.28676843858E+01 -0.66324494164E+00 -0.18189591145E+03  0.18191972435E+03  0.00000000000E+00 0. -1.
        -15    1    1    2    0    0  0.32307088288E+01 -0.19057267005E+01  0.55423160628E+02  0.55578356729E+02  0.17770000000E+01 0.  1.
         15    1    1    2    0    0 -0.39893770003E+01 -0.58987079289E+00  0.95529342449E+01  0.10520425756E+02  0.17770000000E+01 0. -1.
</event>
<event>
 6    1  0.1298204E-002  0.1876472E+03  0.7546771E-02  0.1064430E+00
        -11   -1    0    0    0    0  0.00000000000E+00  0.00000000000E+00  0.18250000000E+03  0.18250000000E+03  0.00000000000E+00 0. -1.
         11   -1    0    0    0    0 -0.00000000000E+00 -0.00000000000E+00 -0.18250000000E+03  0.18250000000E+03  0.00000000000E+00 0. -1.
        -11    1    1    2    0    0 -0.60089287410E+01 -0.19227883027E+01  0.16526140258E+03  0.16538178715E+03  0.00000000000E+00 0. -1.
         11    1    1    2    0    0 -0.27412072876E+01 -0.21976214132E+01 -0.17731802516E+03  0.17735282858E+03  0.00000000000E+00 0. -1.
        -15    1    1    2    0    0  0.73725322815E+01 -0.95744158187E+00  0.14348579710E+02  0.16257625759E+02  0.17770000000E+01 0. -1.
         15    1    1    2    0    0  0.13776037471E+01  0.50778512977E+01 -0.22919571264E+01  0.60077585134E+01  0.17770000000E+01 0. -1.
</event>
<event>
 6    1  0.1298204E-002  0.1873725E+03  0.7546771E-02  0.1064641E+00
        -11   -1    0    0    0    0  0.00000000000E+00  0.00000000000E+00  0.18250000000E+03  0.18250000000E+03  0.00000000000E+00 0. -1.
         11   -1    0    0    0    0 -0.00000000000E+00 -0.00000000000E+00 -0.18250000000E+03  0.18250000000E+03  0.00000000000E+00 0. -1.
        -11    1    1    2    0    0 -0.96645755087E-01  0.40749527261E+01  0.17758067656E+03  0.17762745077E+03  0.00000000000E+00 0. -1.
         11    1    1    2    0    0  0.26334950113E+00  0.32648405731E+01 -0.12581360729E+03  0.12585623670E+03  0.00000000000E+00 0. -1.
        -15    1    1    2    0    0 -0.58257583958E+01  0.21287581091E+01 -0.49745156552E+02  0.50161832117E+02  0.17770000000E+01 0.  1.
         15    1    1    2    0    0  0.56590546497E+01 -0.94685514083E+01 -0.20219127156E+01  0.11354480408E+02  0.17770000000E+01 0. -1.
</event>
<event>
 6    1  0.1298204E-002  0.1841997E+03  0.7546771E-02  0.1067110E+00
        -11   -1    0    0    0    0  0.00000000000E+00  0.00000000000E+00  0.18250000000E+03  0.18250000000E+03  0.00000000000E+00 0. -1.
         11   -1    0    0    0    0 -0.00000000000E+00 -0.00000000000E+00 -0.18250000000E+03  0.18250000000E+03  0.00000000000E+00 0. -1.
        -11    1    1    2    0    0 -0.23093248446E+01  0.10982637389E+01  0.17215202951E+03  0.17217102088E+03  0.00000000000E+00 0. -1.
         11    1    1    2    0    0  0.38101239630E+01  0.11098784465E+01 -0.18075679045E+03  0.18080034892E+03  0.00000000000E+00 0. -1.
        -15    1    1    2    0    0 -0.35065901595E+01  0.94538915083E+00  0.28771345792E+01  0.49624154985E+01  0.17770000000E+01 0. -1.
         15    1    1    2    0    0  0.20057910411E+01 -0.31535313362E+01  0.57276263604E+01  0.70662147089E+01  0.17770000000E+01 0. -1.
</event>
<event>
 6    1  0.1298204E-002  0.1953593E+03  0.7546771E-02  0.1058656E+00
        -11   -1    0    0    0    0  0.00000000000E+00  0.00000000000E+00  0.18250000000E+03  0.18250000000E+03  0.00000000000E+00 0. -1.
         11   -1    0    0    0    0 -0.00000000000E+00 -0.00000000000E+00 -0.18250000000E+03  0.18250000000E+03  0.00000000000E+00 0. -1.
        -11    1    1    2    0    0  0.18893090548E+01  0.17117863631E+01  0.16962153381E+03  0.16964069215E+03  0.00000000000E+00 0. -1.
         11    1    1    2    0    0  0.45348359375E+01  0.20085396172E+01 -0.16069814916E+03  0.16077466875E+03  0.00000000000E+00 0. -1.
        -15    1    1    2    0    0  0.13234108169E+02 -0.28605054269E+01 -0.37545055977E+01  0.14162561619E+02  0.17770000000E+01 0.  1.
         15    1    1    2    0    0 -0.19658253161E+02 -0.85982055345E+00 -0.51688790563E+01  0.20422077476E+02  0.17770000000E+01 0. -1.
</event>
<event>
 6    1  0.1298204E-002  0.1860587E+03  0.7546771E-02  0.1065657E+00
        -11   -1    0    0    0    0  0.00000000000E+00  0.00000000000E+00  0.18250000000E+03  0.18250000000E+03  0.00000000000E+00 0. -1.
         11   -1    0    0    0    0 -0.00000000000E+00 -0.00000000000E+00 -0.18250000000E+03  0.18250000000E+03  0.00000000000E+00 0. -1.
        -11    1    1    2    0    0  0.34027925302E+01 -0.75856353415E+01  0.16435364367E+03  0.16456379021E+03  0.00000000000E+00 0. -1.
         11    1    1    2    0    0 -0.97412908660E+01 -0.15015364466E+01 -0.17866964361E+03  0.17894130017E+03  0.00000000000E+00 0. -1.
        -15    1    1    2    0    0  0.11962978611E+01  0.60989026584E+01  0.13833096321E+02  0.15268923506E+02  0.17770000000E+01 0.  1.
         15    1    1    2    0    0  0.51422004747E+01  0.29882691297E+01  0.48290361417E+00  0.62259861078E+01  0.17770000000E+01 0.  1.
</event>
<event>
 6    1  0.1298204E-002  0.1893087E+03  0.7546771E-02  0.1063161E+00
        -11   -1    0    0    0    0  0.00000000000E+00  0.00000000000E+00  0.18250000000E+03  0.18250000000E+03  0.00000000000E+00 0. -1.
         11   -1    0    0    0    0 -0.00000000000E+00 -0.00000000000E+00 -0.18250000000E+03  0.18250000000E+03  0.00000000000E+00 0. -1.
        -11    1    1    2    0    0 -0.20720741136E+01  0.95910391828E+00  0.15469388091E+03  0.15471073060E+03  0.00000000000E+00 0. -1.
         11    1    1    2    0    0  0.96669736239E+00  0.46651777914E+01 -0.17562672577E+03  0.17569133499E+03  0.00000000000E+00 0. -1.
        -15    1    1    2    0    0  0.57215632969E-01  0.74481878505E+00  0.26081227136E+02  0.26152364454E+02  0.17770000000E+01 0. -1.
         15    1    1    2    0    0  0.10481611183E+01 -0.63691004947E+01 -0.51483822786E+01  0.84455699587E+01  0.17770000000E+01 0. -1.
</event>
<event>
 6    1  0.1298204E-002  0.1502027E+03  0.7546771E-02  0.1097534E+00
        -11   -1    0    0    0    0  0.00000000000E+00  0.00000000000E+00  0.18250000000E+03  0.18250000000E+03  0.00000000000E+00 0. -1.
         11   -1    0    0    0    0 -0.00000000000E+00 -0.00000000000E+00 -0.18250000000E+03  0.18250000000E+03  0.00000000000E+00 0.  1.
        -11    1    1    2    0    0 -0.79178321493E+01 -0.75101483213E+01  0.14835563306E+03  0.14875647298E+03  0.00000000000E+00 0. -1.
         11    1    1    2    0    0 -0.19553199811E+02  0.13298827818E+02 -0.15113197508E+03  0.15297078262E+03  0.00000000000E+00 0.  1.
        -15    1    1    2    0    0  0.98118183403E+01  0.24350536046E+02 -0.64650494670E+01  0.27095663463E+02  0.17770000000E+01 0.  1.
         15    1    1    2    0    0  0.17659213620E+02 -0.30139215542E+02  0.92413914915E+01  0.36177080934E+02  0.17770000000E+01 0. -1.
</event>
<event>
 6    1  0.1298204E-002  0.1850677E+03  0.7546771E-02  0.1066429E+00
        -11   -1    0    0    0    0  0.00000000000E+00  0.00000000000E+00  0.18250000000E+03  0.18250000000E+03  0.00000000000E+00 0. -1.
         11   -1    0    0    0    0 -0.00000000000E+00 -0.00000000000E+00 -0.18250000000E+03  0.18250000000E+03  0.00000000000E+00 0.  1.
        -11    1    1    2    0    0  0.42523905337E+01  0.54725281037E+01  0.17979876360E+03  0.17993228388E+03  0.00000000000E+00 0. -1.
         11    1    1    2    0    0  0.10945747257E+01  0.32455225339E+01 -0.13681258730E+03  0.13685545496E+03  0.00000000000E+00 0.  1.
        -15    1    1    2    0    0  0.42730208692E+00 -0.13282375039E+01 -0.36730383063E+02  0.36799803951E+02  0.17770000000E+01 0. -1.
         15    1    1    2    0    0 -0.57742673462E+01 -0.73898131338E+01 -0.62557932407E+01  0.11412457212E+02  0.17770000000E+01 0.  1.
</event>
<event>
 6    1  0.1298204E-002  0.1857744E+03  0.7546771E-02  0.1065878E+00
        -11   -1    0    0    0    0  0.00000000000E+00  0.00000000000E+00  0.18250000000E+03  0.18250000000E+03  0.00000000000E+00 0.  1.
         11   -1    0    0    0    0 -0.00000000000E+00 -0.00000000000E+00 -0.18250000000E+03  0.18250000000E+03  0.00000000000E+00 0.  1.
        -11    1    1    2    0    0 -0.18599843727E+01  0.69615216560E+00  0.14041318694E+03  0.14042723111E+03  0.00000000000E+00 0.  1.
         11    1    1    2    0    0  0.47434044215E+01 -0.96284585848E+01 -0.17890385906E+03  0.17922555032E+03  0.00000000000E+00 0.  1.
        -15    1    1    2    0    0  0.57435910597E+01  0.83636975233E+01  0.65433196555E+01  0.12202992897E+02  0.17770000000E+01 0. -1.
         15    1    1    2    0    0 -0.86270111085E+01  0.56860889582E+00  0.31947352464E+02  0.33144225669E+02  0.17770000000E+01 0.  1.
</event>
<event>
 6    1  0.1298204E-002  0.1829172E+03  0.7546771E-02  0.1068123E+00
        -11   -1    0    0    0    0  0.00000000000E+00  0.00000000000E+00  0.18250000000E+03  0.18250000000E+03  0.00000000000E+00 0. -1.
         11   -1    0    0    0    0 -0.00000000000E+00 -0.00000000000E+00 -0.18250000000E+03  0.18250000000E+03  0.00000000000E+00 0.  1.
        -11    1    1    2    0    0 -0.16180114980E+01 -0.76800801947E+00  0.71749092789E+02  0.71771443580E+02  0.00000000000E+00 0. -1.
         11    1    1    2    0    0 -0.57024167520E+01 -0.90299305539E+00 -0.18199124681E+03  0.18208280223E+03  0.00000000000E+00 0.  1.
        -15    1    1    2    0    0  0.40799790149E+01  0.37526607770E+01  0.98308527758E+02  0.98480724259E+02  0.17770000000E+01 0. -1.
         15    1    1    2    0    0  0.32404492351E+01 -0.20816597022E+01  0.11933626262E+02  0.12665029930E+02  0.17770000000E+01 0.  1.
</event>
<event>
 6    1  0.1298204E-002  0.1668448E+03  0.7546771E-02  0.1081648E+00
        -11   -1    0    0    0    0  0.00000000000E+00  0.00000000000E+00  0.18250000000E+03  0.18250000000E+03  0.00000000000E+00 0. -1.
         11   -1    0    0    0    0 -0.00000000000E+00 -0.00000000000E+00 -0.18250000000E+03  0.18250000000E+03  0.00000000000E+00 0. -1.
        -11    1    1    2    0    0 -0.64982040468E+01  0.87637969599E+01  0.16897140060E+03  0.16932325597E+03  0.00000000000E+00 0. -1.
         11    1    1    2    0    0  0.11005922535E+02  0.36736209435E+01 -0.16425254649E+03  0.16466185001E+03  0.00000000000E+00 0. -1.
        -15    1    1    2    0    0 -0.18794705448E+01 -0.11003948004E+02  0.10484771193E+02  0.15417763689E+02  0.17770000000E+01 0. -1.
         15    1    1    2    0    0 -0.26282479438E+01 -0.14334698992E+01 -0.15203625299E+02  0.15597130328E+02  0.17770000000E+01 0.  1.
</event>
<event>
 6    1  0.1298204E-002  0.1834493E+03  0.7546771E-02  0.1067702E+00
        -11   -1    0    0    0    0  0.00000000000E+00  0.00000000000E+00  0.18250000000E+03  0.18250000000E+03  0.00000000000E+00 0.  1.
         11   -1    0    0    0    0 -0.00000000000E+00 -0.00000000000E+00 -0.18250000000E+03  0.18250000000E+03  0.00000000000E+00 0. -1.
        -11    1    1    2    0    0 -0.33092905560E+01  0.39849626987E+01  0.27079860472E+02  0.27570821078E+02  0.00000000000E+00 0.  1.
         11    1    1    2    0    0  0.23842675347E+01 -0.18549738708E+01 -0.18152561014E+03  0.18155074441E+03  0.00000000000E+00 0. -1.
        -15    1    1    2    0    0  0.23503226450E+01 -0.35670834406E+01  0.15246482086E+03  0.15253500395E+03  0.17770000000E+01 0.  1.
         15    1    1    2    0    0 -0.14252996236E+01  0.14370946127E+01  0.19809288071E+01  0.33434305558E+01  0.17770000000E+01 0. -1.
</event>
<event>
 6    1  0.1298204E-002  0.1830079E+03  0.7546771E-02  0.1068051E+00
        -11   -1    0    0    0    0  0.00000000000E+00  0.00000000000E+00  0.18250000000E+03  0.18250000000E+03  0.00000000000E+00 0. -1.
         11   -1    0    0    0    0 -0.00000000000E+00 -0.00000000000E+00 -0.18250000000E+03  0.18250000000E+03  0.00000000000E+00 0. -1.
        -11    1    1    2    0    0  0.21230734505E+01 -0.16247700177E+01  0.18197246019E+03  0.18199209759E+03  0.00000000000E+00 0. -1.
         11    1    1    2    0    0  0.18229643456E+01 -0.35116365686E+00 -0.12909997057E+03  0.12911331812E+03  0.00000000000E+00 0. -1.
        -15    1    1    2    0    0 -0.28581447295E+01  0.51889698689E+01 -0.24678253620E+02  0.25441468714E+02  0.17770000000E+01 0. -1.
         15    1    1    2    0    0 -0.10878930665E+01 -0.32130361944E+01 -0.28194236004E+02  0.28453115572E+02  0.17770000000E+01 0.  1.
</event>
<event>
 6    1  0.1298204E-002  0.1964422E+03  0.7546771E-02  0.1057868E+00
        -11   -1    0    0    0    0  0.00000000000E+00  0.00000000000E+00  0.18250000000E+03  0.18250000000E+03  0.00000000000E+00 0.  1.
         11   -1    0    0    0    0 -0.00000000000E+00 -0.00000000000E+00 -0.18250000000E+03  0.18250000000E+03  0.00000000000E+00 0.  1.
        -11    1    1    2    0    0  0.86808891810E+01 -0.10089264296E+02  0.70840980815E+02  0.72080480394E+02  0.00000000000E+00 0.  1.
         11    1    1    2    0    0  0.29413031224E+01 -0.44477035830E+01 -0.16847342323E+03  0.16855778732E+03  0.00000000000E+00 0.  1.
        -15    1    1    2    0    0  0.30917287331E+01 -0.29574438818E+01 -0.11735171450E+02  0.12616546232E+02  0.17770000000E+01 0. -1.
         15    1    1    2    0    0 -0.14713921036E+02  0.17494411761E+02  0.10936761386E+03  0.11174518605E+03  0.17770000000E+01 0.  1.
</event>
<event>
 6    1  0.1298204E-002  0.1846049E+03  0.7546771E-02  0.1066792E+00
        -11   -1    0    0    0    0  0.00000000000E+00  0.00000000000E+00  0.18250000000E+03  0.18250000000E+03  0.00000000000E+00 0. -1.
         11   -1    0    0    0    0 -0.00000000000E+00 -0.00000000000E+00 -0.18250000000E+03  0.18250000000E+03  0.00000000000E+00 0.  1.
        -11    1    1    2    0    0  0.24958522483E+01  0.66329484843E+00  0.17090041014E+03  0.17091992109E+03  0.00000000000E+00 0. -1.
         11    1    1    2    0    0  0.12903634788E+01 -0.32444461771E+01 -0.18036125694E+03  0.18039505113E+03  0.00000000000E+00 0.  1.
        -15    1    1    2    0    0 -0.30048482765E+01  0.43838906751E+01  0.95066269453E+01  0.11035456288E+02  0.17770000000E+01 0.  1.
         15    1    1    2    0    0 -0.78136745053E+00 -0.18027393464E+01 -0.45780152972E-01  0.26495714873E+01  0.17770000000E+01 0.  1.
</event>
<event>
 6    1  0.1298204E-002  0.1843631E+03  0.7546771E-02  0.1066981E+00
        -11   -1    0    0    0    0  0.00000000000E+00  0.00000000000E+00  0.18250000000E+03  0.18250000000E+03  0.00000000000E+00 0. -1.
         11   -1    0    0    0    0 -0.00000000000E+00 -0.00000000000E+00 -0.18250000000E+03  0.18250000000E+03  0.00000000000E+00 0. -1.
        -11    1    1    2    0    0 -0.19903638168E+01  0.44683519713E+01  0.18057062103E+03  0.18063686472E+03  0.00000000000E+00 0. -1.
         11    1    1    2    0    0 -0.70413890555E+00 -0.29768876108E+01 -0.83643295955E+02  0.83699215228E+02  0.00000000000E+00 0. -1.
        -15    1    1    2    0    0 -0.50806814852E+01  0.31609571018E+01 -0.43052267865E+01  0.75827225214E+01  0.17770000000E+01 0. -1.
         15    1    1    2    0    0  0.77751842076E+01 -0.46524214624E+01 -0.92622098283E+02  0.93081197534E+02  0.17770000000E+01 0.  1.
</event>
<event>
 6    1  0.1298204E-002  0.1826856E+03  0.7546771E-02  0.1068307E+00
        -11   -1    0    0    0    0  0.00000000000E+00  0.00000000000E+00  0.18250000000E+03  0.18250000000E+03  0.00000000000E+00 0. -1.
         11   -1    0    0    0    0 -0.00000000000E+00 -0.00000000000E+00 -0.18250000000E+03  0.18250000000E+03  0.00000000000E+00 0.  1.
        -11    1    1    2    0    0  0.38176891959E-01 -0.20594198796E+01  0.90263695830E+02  0.90287194289E+02  0.00000000000E+00 0. -1.
         11    1    1    2    0    0 -0.19074931513E+01 -0.23205745228E+01 -0.18228964735E+03  0.18231439638E+03  0.00000000000E+00 0.  1.
        -15    1    1    2    0    0  0.17073514039E+01  0.32767469043E+01  0.24561524182E+02  0.24901371814E+02  0.17770000000E+01 0. -1.
         15    1    1    2    0    0  0.16196485548E+00  0.11032474981E+01  0.67464427341E+02  0.67497037514E+02  0.17770000000E+01 0. -1.
</event>
<event>
 6    1  0.1298204E-002  0.1843687E+03  0.7546771E-02  0.1066977E+00
        -11   -1    0    0    0    0  0.00000000000E+00  0.00000000000E+00  0.18250000000E+03  0.18250000000E+03  0.00000000000E+00 0.  1.
         11   -1    0    0    0    0 -0.00000000000E+00 -0.00000000000E+00 -0.18250000000E+03  0.18250000000E+03  0.00000000000E+00 0.  1.
        -11    1    1    2    0    0 -0.14891813865E+01  0.93384411810E+00  0.39626446398E+02  0.39665412896E+02  0.00000000000E+00 0.  1.
         11    1    1    2    0    0  0.67297705974E+00 -0.31669610215E+01 -0.18060226214E+03  0.18063128087E+03  0.00000000000E+00 0.  1.
        -15    1    1    2    0    0  0.99424581501E+00  0.13321415571E+01 -0.10594760385E+01  0.26539299812E+01  0.17770000000E+01 0. -1.
         15    1    1    2    0    0 -0.17804148823E+00  0.90097534626E+00  0.14203529178E+03  0.14204937625E+03  0.17770000000E+01 0.  1.
</event>
<event>
 6    1  0.1298204E-002  0.1835185E+03  0.7546771E-02  0.1067647E+00
        -11   -1    0    0    0    0  0.00000000000E+00  0.00000000000E+00  0.18250000000E+03  0.18250000000E+03  0.00000000000E+00 0.  1.
         11   -1    0    0    0    0 -0.00000000000E+00 -0.00000000000E+00 -0.18250000000E+03  0.18250000000E+03  0.00000000000E+00 0.  1.
        -11    1    1    2    0    0  0.34697454975E+01 -0.39503845449E+01  0.18140530904E+03  0.18148148892E+03  0.00000000000E+00 0.  1.
         11    1    1    2    0    0  0.69927783670E+01  0.55118498417E+01 -0.13049965814E+03  0.13080305888E+03  0.00000000000E+00 0.  1.
        -15    1    1    2    0    0 -0.40196999810E+01  0.18183064922E+01 -0.32471754395E+02  0.32818238663E+02  0.17770000000E+01 0.  1.
         15    1    1    2    0    0 -0.64428238835E+01 -0.33797717891E+01 -0.18433896510E+02  0.19897213535E+02  0.17770000000E+01 0. -1.
</event>
<event>
 6    1  0.1298204E-002  0.1766355E+03  0.7546771E-02  0.1073221E+00
        -11   -1    0    0    0    0  0.00000000000E+00  0.00000000000E+00  0.18250000000E+03  0.18250000000E+03  0.00000000000E+00 0.  1.
         11   -1    0    0    0    0 -0.00000000000E+00 -0.00000000000E+00 -0.18250000000E+03  0.18250000000E+03  0.00000000000E+00 0.  1.
        -11    1    1    2    0    0 -0.10550888291E+01 -0.21578102215E+01  0.17663574157E+03  0.17665207204E+03  0.00000000000E+00 0.  1.
         11    1    1    2    0    0 -0.53591609927E+01 -0.54138186861E+01 -0.17659399864E+03  0.17675822582E+03  0.00000000000E+00 0.  1.
        -15    1    1    2    0    0 -0.53517771032E-01  0.29368885524E+01 -0.14460443080E+00  0.34361050569E+01  0.17770000000E+01 0.  1.
         15    1    1    2    0    0  0.64677675928E+01  0.46347403552E+01  0.10286150664E+00  0.81535970764E+01  0.17770000000E+01 0. -1.
</event>
<event>
 6    1  0.1298204E-002  0.1778415E+03  0.7546771E-02  0.1072225E+00
        -11   -1    0    0    0    0  0.00000000000E+00  0.00000000000E+00  0.18250000000E+03  0.18250000000E+03  0.00000000000E+00 0.  1.
         11   -1    0    0    0    0 -0.00000000000E+00 -0.00000000000E+00 -0.18250000000E+03  0.18250000000E+03  0.00000000000E+00 0.  1.
        -11    1    1    2    0    0 -0.29730065970E+01 -0.40045012217E+01  0.17608231590E+03  0.17615293574E+03  0.00000000000E+00 0.  1.
         11    1    1    2    0    0  0.35196563175E+01 -0.24927649271E+01 -0.17955495161E+03  0.17960674404E+03  0.00000000000E+00 0.  1.
        -15    1    1    2    0    0  0.22067383206E+00  0.52612831143E+01  0.64106402166E+00  0.55945052532E+01  0.17770000000E+01 0.  1.
         15    1    1    2    0    0 -0.76732355253E+00  0.12359830345E+01  0.28315716907E+01  0.36458149618E+01  0.17770000000E+01 0. -1.
</event>
<event>
 6    1  0.1298204E-002  0.1352814E+03  0.7546771E-02  0.1113834E+00
        -11   -1    0    0    0    0  0.00000000000E+00  0.00000000000E+00  0.18250000000E+03  0.18250000000E+03  0.00000000000E+00 0.  1.
         11   -1    0    0    0    0 -0.00000000000E+00 -0.00000000000E+00 -0.18250000000E+03  0.18250000000E+03  0.00000000000E+00 0. -1.
        -11    1    1    2    0    0 -0.13240981307E+01  0.12295122671E+00  0.49893216273E+02  0.49910934503E+02  0.00000000000E+00 0.  1.
         11    1    1    2    0    0  0.49204432450E+01  0.45944623635E+01 -0.14308988513E+03  0.14324815905E+03  0.00000000000E+00 0. -1.
        -15    1    1    2    0    0  0.21722055866E+02 -0.11429391895E+02  0.12681806079E+03  0.12918381084E+03  0.17770000000E+01 0.  1.
         15    1    1    2    0    0 -0.25318400980E+02  0.67119783051E+01 -0.33621391937E+02  0.42657095609E+02  0.17770000000E+01 0. -1.
</event>
<event>
 6    1  0.1298204E-002  0.1839023E+03  0.7546771E-02  0.1067344E+00
        -11   -1    0    0    0    0  0.00000000000E+00  0.00000000000E+00  0.18250000000E+03  0.18250000000E+03  0.00000000000E+00 0. -1.
         11   -1    0    0    0    0 -0.00000000000E+00 -0.00000000000E+00 -0.18250000000E+03  0.18250000000E+03  0.00000000000E+00 0.  1.
        -11    1    1    2    0    0  0.17704096803E+02  0.25163932048E+01  0.18021269022E+03  0.18109771118E+03  0.00000000000E+00 0. -1.
         11    1    1    2    0    0  0.49935763293E-01 -0.16014074345E+01 -0.56188851785E+02  0.56211689748E+02  0.00000000000E+00 0.  1.
        -15    1    1    2    0    0  0.25094506495E+01 -0.60413919248E+00 -0.68258181756E+02  0.68330077070E+02  0.17770000000E+01 0. -1.
         15    1    1    2    0    0 -0.20263483215E+02 -0.31084657777E+00 -0.55765656683E+02  0.59360521998E+02  0.17770000000E+01 0.  1.
</event>
<event>
 6    1  0.1298204E-002  0.1848719E+03  0.7546771E-02  0.1066582E+00
        -11   -1    0    0    0    0  0.00000000000E+00  0.00000000000E+00  0.18250000000E+03  0.18250000000E+03  0.00000000000E+00 0.  1.
         11   -1    0    0    0    0 -0.00000000000E+00 -0.00000000000E+00 -0.18250000000E+03  0.18250000000E+03  0.00000000000E+00 0.  1.
        -11    1    1    2    0    0 -0.12366124854E+01  0.22816578039E+01  0.18010943571E+03  0.18012813219E+03  0.00000000000E+00 0.  1.
         11    1    1    2    0    0  0.33485495121E+00 -0.30230123404E+01 -0.17713640085E+03  0.17716251082E+03  0.00000000000E+00 0.  1.
        -15    1    1    2    0    0  0.95695794555E+00 -0.26115328535E+01 -0.16522871353E+01  0.36910234531E+01  0.17770000000E+01 0. -1.
         15    1    1    2    0    0 -0.55200411334E-01  0.33528873899E+01 -0.13207477235E+01  0.40183335456E+01  0.17770000000E+01 0. -1.
</event>
<event>
 6    1  0.1298204E-002  0.1844076E+03  0.7546771E-02  0.1066946E+00
        -11   -1    0    0    0    0  0.00000000000E+00  0.00000000000E+00  0.18250000000E+03  0.18250000000E+03  0.00000000000E+00 0.  1.
         11   -1    0    0    0    0 -0.00000000000E+00 -0.00000000000E+00 -0.18250000000E+03  0.18250000000E+03  0.00000000000E+00 0.  1.
        -11    1    1    2    0    0  0.92301856924E+01  0.24149499560E+01  0.14186445998E+03  0.14218492647E+03  0.00000000000E+00 0.  1.
         11    1    1    2    0    0 -0.26194329992E+01 -0.61761765556E-01 -0.18057339881E+03  0.18059240737E+03  0.00000000000E+00 0.  1.
        -15    1    1    2    0    0 -0.79807834345E+01 -0.24556177212E+01  0.39030841108E+02  0.39953563661E+02  0.17770000000E+01 0.  1.
         15    1    1    2    0    0  0.13700307413E+01  0.10242953074E+00 -0.32190227972E+00  0.22691024919E+01  0.17770000000E+01 0. -1.
</event>
<event>
 6    1  0.1298204E-002  0.1844009E+03  0.7546771E-02  0.1066952E+00
        -11   -1    0    0    0    0  0.00000000000E+00  0.00000000000E+00  0.18250000000E+03  0.18250000000E+03  0.00000000000E+00 0. -1.
         11   -1    0    0    0    0 -0.00000000000E+00 -0.00000000000E+00 -0.18250000000E+03  0.18250000000E+03  0.00000000000E+00 0. -1.
        -11    1    1    2    0    0  0.74575302463E+00  0.36085288522E+01  0.18056148035E+03  0.18059907479E+03  0.00000000000E+00 0. -1.
         11    1    1    2    0    0  0.56812523418E+01  0.13600105308E+01 -0.16466178678E+03  0.16476537950E+03  0.00000000000E+00 0. -1.
        -15    1    1    2    0    0 -0.32916134523E+01 -0.32008304678E+01 -0.22594341428E+01  0.54169000774E+01  0.17770000000E+01 0.  1.
         15    1    1    2    0    0 -0.31353919142E+01 -0.17677089152E+01 -0.13640259427E+02  0.14218645628E+02  0.17770000000E+01 0.  1.
</event>
<event>
 6    1  0.1298204E-002  0.1676926E+03  0.7546771E-02  0.1080893E+00
        -11   -1    0    0    0    0  0.00000000000E+00  0.00000000000E+00  0.18250000000E+03  0.18250000000E+03  0.00000000000E+00 0.  1.
         11   -1    0    0    0    0 -0.00000000000E+00 -0.00000000000E+00 -0.18250000000E+03  0.18250000000E+03  0.00000000000E+00 0.  1.
        -11    1    1    2    0    0  0.23825342580E+02  0.55416750499E+01  0.16998374603E+03  0.17173476941E+03  0.00000000000E+00 0.  1.
         11    1    1    2    0    0 -0.10564392257E+02 -0.10536870761E+02 -0.16333541892E+03  0.16401552092E+03  0.00000000000E+00 0.  1.
        -15    1    1    2    0    0 -0.10164638342E+02 -0.91797070287E+01 -0.41427114556E+01  0.14418969483E+02  0.17770000000E+01 0. -1.
         15    1    1    2    0    0 -0.30963119811E+01  0.14174902739E+02 -0.25056156549E+01  0.14830740183E+02  0.17770000000E+01 0.  1.
</event>
<event>
 6    1  0.1298204E-002  0.1760576E+03  0.7546771E-02  0.1073702E+00
        -11   -1    0    0    0    0  0.00000000000E+00  0.00000000000E+00  0.18250000000E+03  0.18250000000E+03  0.00000000000E+00 0.  1.
         11   -1    0    0    0    0 -0.00000000000E+00 -0.00000000000E+00 -0.18250000000E+03  0.18250000000E+03  0.00000000000E+00 0. -1.
        -11    1    1    2    0    0  0.98736188555E-02 -0.39759994044E+01  0.17710080390E+03  0.17714543011E+03  0.00000000000E+00 0.  1.
         11    1    1    2    0    0 -0.44767124017E+01 -0.20005487075E+01 -0.17498647375E+03  0.17505516029E+03  0.00000000000E+00 0. -1.
        -15    1    1    2    0    0  0.53729821279E+00  0.71235296960E+01 -0.34660303726E+01  0.81366123321E+01  0.17770000000E+01 0.  1.
         15    1    1    2    0    0  0.39295405701E+01 -0.11469815841E+01  0.13517002219E+01  0.46627972652E+01  0.17770000000E+01 0. -1.
</event>
<event>
 6    1  0.1298204E-002  0.1790691E+03  0.7546771E-02  0.1071219E+00
        -11   -1    0    0    0    0  0.00000000000E+00  0.00000000000E+00  0.18250000000E+03  0.18250000000E+03  0.00000000000E+00 0.  1.
         11   -1    0    0    0    0 -0.00000000000E+00 -0.00000000000E+00 -0.18250000000E+03  0.18250000000E+03  0.00000000000E+00 0. -1.
        -11    1    1    2    0    0  0.20203226636E+01 -0.28260131819E+01  0.17811130445E+03  0.17814517907E+03  0.00000000000E+00 0.  1.
         11    1    1    2    0    0 -0.25404291344E+01 -0.16440927166E+01 -0.18000087239E+03  0.18002630608E+03  0.00000000000E+00 0. -1.
        -15    1    1    2    0    0  0.15700301671E+01  0.19796434172E+01  0.12989099976E-01  0.30889934448E+01  0.17770000000E+01 0. -1.
         15    1    1    2    0    0 -0.10499236963E+01  0.24904624812E+01  0.18765788426E+01  0.37395213987E+01  0.17770000000E+01 0.  1.
</event>
<event>
 6    1  0.1298204E-002  0.1851864E+03  0.7546771E-02  0.1066336E+00
        -11   -1    0    0    0    0  0.00000000000E+00  0.00000000000E+00  0.18250000000E+03  0.18250000000E+03  0.00000000000E+00 0.  1.
         11   -1    0    0    0    0 -0.00000000000E+00 -0.00000000000E+00 -0.18250000000E+03  0.18250000000E+03  0.00000000000E+00 0. -1.
        -11    1    1    2    0    0 -0.39933087396E+01 -0.13581665423E+00  0.16616716579E+03  0.16621519771E+03  0.00000000000E+00 0.  1.
         11    1    1    2    0    0 -0.32828768879E+01  0.27579596025E+01 -0.17976242981E+03  0.17981355564E+03  0.00000000000E+00 0. -1.
        -15    1    1    2    0    0  0.95834674983E+00  0.35300457147E+01  0.57017562254E+01  0.70033852025E+01  0.17770000000E+01 0.  1.
         15    1    1    2    0    0  0.63178388777E+01 -0.61521886630E+01  0.78935077894E+01  0.11967861449E+02  0.17770000000E+01 0. -1.
</event>
<event>
 6    1  0.1298204E-002  0.1837494E+03  0.7546771E-02  0.1067465E+00
        -11   -1    0    0    0    0  0.00000000000E+00  0.00000000000E+00  0.18250000000E+03  0.18250000000E+03  0.00000000000E+00 0.  1.
         11   -1    0    0    0    0 -0.00000000000E+00 -0.00000000000E+00 -0.18250000000E+03  0.18250000000E+03  0.00000000000E+00 0. -1.
        -11    1    1    2    0    0 -0.24613806336E+01  0.14974688964E+01  0.17151729081E+03  0.17154148727E+03  0.00000000000E+00 0.  1.
         11    1    1    2    0    0  0.13488643480E+01  0.22298258992E+01 -0.18123188132E+03  0.18125061756E+03  0.00000000000E+00 0. -1.
        -15    1    1    2    0    0  0.20162929840E+01  0.42799333490E+00  0.43963946921E+01  0.51705542237E+01  0.17770000000E+01 0.  1.
         15    1    1    2    0    0 -0.90377669852E+00 -0.41552881305E+01  0.53181958237E+01  0.70373409458E+01  0.17770000000E+01 0. -1.
</event>
<event>
 6    1  0.1298204E-002  0.1835314E+03  0.7546771E-02  0.1067637E+00
        -11   -1    0    0    0    0  0.00000000000E+00  0.00000000000E+00  0.18250000000E+03  0.18250000000E+03  0.00000000000E+00 0. -1.
         11   -1    0    0    0    0 -0.00000000000E+00 -0.00000000000E+00 -0.18250000000E+03  0.18250000000E+03  0.00000000000E+00 0.  1.
        -11    1    1    2    0    0 -0.28683584481E+01 -0.91739527793E+00  0.18144356489E+03  0.18146855467E+03  0.00000000000E+00 0. -1.
         11    1    1    2    0    0 -0.49407354108E+01 -0.44393420062E+00 -0.10998815858E+03  0.11009996808E+03  0.00000000000E+00 0.  1.
        -15    1    1    2    0    0 -0.22772747126E-01  0.46842275377E+01 -0.50462189419E+02  0.50710282943E+02  0.17770000000E+01 0.  1.
         15    1    1    2    0    0  0.78318666060E+01 -0.33228980591E+01 -0.20993216892E+02  0.22721194302E+02  0.17770000000E+01 0. -1.
</event>
<event>
 6    1  0.1298204E-002  0.1982902E+03  0.7546771E-02  0.1056537E+00
        -11   -1    0    0    0    0  0.00000000000E+00  0.00000000000E+00  0.18250000000E+03  0.18250000000E+03  0.00000000000E+00 0.  1.
         11   -1    0    0    0    0 -0.00000000000E+00 -0.00000000000E+00 -0.18250000000E+03  0.18250000000E+03  0.00000000000E+00 0.  1.
        -11    1    1    2    0    0 -0.35992489262E+01  0.35902551174E+01  0.13373548869E+03  0.13383207934E+03  0.00000000000E+00 0.  1.
         11    1    1    2    0    0  0.23861399497E+02 -0.15603643196E+02 -0.16425379119E+03  0.16670977172E+03  0.00000000000E+00 0.  1.
        -15    1    1    2    0    0 -0.16180274433E+02  0.63502412579E+00  0.43608499521E+02  0.46551729247E+02  0.17770000000E+01 0.  1.
         15    1    1    2    0    0 -0.40818761384E+01  0.11378363953E+02 -0.13090197023E+02  0.17906419691E+02  0.17770000000E+01 0. -1.
</event>
<event>
 6    1  0.1298204E-002  0.1780727E+03  0.7546771E-02  0.1072035E+00
        -11   -1    0    0    0    0  0.00000000000E+00  0.00000000000E+00  0.18250000000E+03  0.18250000000E+03  0.00000000000E+00 0.  1.
         11   -1    0    0    0    0 -0.00000000000E+00 -0.00000000000E+00 -0.18250000000E+03  0.18250000000E+03  0.00000000000E+00 0.  1.
        -11    1    1    2    0    0  0.14911418946E+01 -0.22096254898E+01  0.17682547054E+03  0.17684556251E+03  0.00000000000E+00 0.  1.
         11    1    1    2    0    0  0.28145373896E+01 -0.64781653337E-01 -0.17931976407E+03  0.17934186239E+03  0.00000000000E+00 0.  1.
        -15    1    1    2    0    0 -0.39136807012E+01  0.38278513939E+01  0.65110640098E+00  0.57923234950E+01  0.17770000000E+01 0. -1.
         15    1    1    2    0    0 -0.39199858290E+00 -0.15534442508E+01  0.18431871333E+01  0.30202516017E+01  0.17770000000E+01 0.  1.
</event>
<event>
 6    1  0.1298204E-002  0.1830634E+03  0.7546771E-02  0.1068007E+00
        -11   -1    0    0    0    0  0.00000000000E+00  0.00000000000E+00  0.18250000000E+03  0.18250000000E+03  0.00000000000E+00 0.  1.
         11   -1    0    0    0    0 -0.00000000000E+00 -0.00000000000E+00 -0.18250000000E+03  0.18250000000E+03  0.00000000000E+00 0.  1.
        -11    1    1    2    0    0  0.36429494121E+01  0.30385181370E+01  0.10671795141E+03  0.10682333465E+03  0.00000000000E+00 0.  1.
         11    1    1    2    0    0  0.27435766967E+01 -0.11527003145E+00 -0.18191590839E+03  0.18193663245E+03  0.00000000000E+00 0.  1.
        -15    1    1    2    0    0 -0.28206275152E+01  0.92401100893E+00  0.59376287603E+02  0.59476978693E+02  0.17770000000E+01 0.  1.
         15    1    1    2    0    0 -0.35658985936E+01 -0.38472591145E+01  0.15821669382E+02  0.16763054212E+02  0.17770000000E+01 0. -1.
</event>
<event>
 6    1  0.1298204E-002  0.1828305E+03  0.7546771E-02  0.1068192E+00
        -11   -1    0    0    0    0  0.00000000000E+00  0.00000000000E+00  0.18250000000E+03  0.18250000000E+03  0.00000000000E+00 0. -1.
         11   -1    0    0    0    0 -0.00000000000E+00 -0.00000000000E+00 -0.18250000000E+03  0.18250000000E+03  0.00000000000E+00 0.  1.
        -11    1    1    2    0    0 -0.12079100995E+01 -0.17025901802E+01  0.87280772586E+02  0.87305733622E+02  0.00000000000E+00 0. -1.
         11    1    1    2    0    0 -0.78345660518E+01 -0.23190557495E+01 -0.18198615756E+03  0.18216948150E+03  0.00000000000E+00 0.  1.
        -15    1    1    2    0    0 -0.34009778294E+00  0.12644783083E+01  0.10151598454E+02  0.10388804170E+02  0.17770000000E+01 0. -1.
         15    1    1    2    0    0  0.93825739343E+01  0.27571676214E+01  0.84553786523E+02  0.85135980709E+02  0.17770000000E+01 0. -1.
</event>
<event>
 6    1  0.1298204E-002  0.1940664E+03  0.7546771E-02  0.1059603E+00
        -11   -1    0    0    0    0  0.00000000000E+00  0.00000000000E+00  0.18250000000E+03  0.18250000000E+03  0.00000000000E+00 0.  1.
         11   -1    0    0    0    0 -0.00000000000E+00 -0.00000000000E+00 -0.18250000000E+03  0.18250000000E+03  0.00000000000E+00 0. -1.
        -11    1    1    2    0    0  0.19812080201E+02  0.55351987144E+01  0.79412540386E+02  0.82033581643E+02  0.00000000000E+00 0.  1.
         11    1    1    2    0    0 -0.21196516534E+02  0.11410630838E+02 -0.16923000397E+03  0.17093358082E+03  0.00000000000E+00 0. -1.
        -15    1    1    2    0    0 -0.19268358439E+02 -0.24573417713E+02  0.83338166373E+02  0.89014213463E+02  0.17770000000E+01 0.  1.
         15    1    1    2    0    0  0.20652794772E+02  0.76275881611E+01  0.64792972069E+01  0.23018624076E+02  0.17770000000E+01 0. -1.
</event>
<event>
 6    1  0.1298204E-002  0.1832151E+03  0.7546771E-02  0.1067887E+00
        -11   -1    0    0    0    0  0.00000000000E+00  0.00000000000E+00  0.18250000000E+03  0.18250000000E+03  0.00000000000E+00 0.  1.
         11   -1    0    0    0    0 -0.00000000000E+00 -0.00000000000E+00 -0.18250000000E+03  0.18250000000E+03  0.00000000000E+00 0.  1.
        -11    1    1    2    0    0 -0.46565322308E+01  0.30549812366E+01  0.14964956353E+03  0.14975315712E+03  0.00000000000E+00 0.  1.
         11    1    1    2    0    0  0.32001541699E+01 -0.11867381208E+01 -0.18175281985E+03  0.18178486422E+03  0.00000000000E+00 0.  1.
        -15    1    1    2    0    0  0.98404225886E+00  0.10585821539E+01  0.28014569467E+02  0.28108055194E+02  0.17770000000E+01 0. -1.
         15    1    1    2    0    0  0.47233580201E+00 -0.29268252698E+01  0.40886868564E+01  0.53539234660E+01  0.17770000000E+01 0. -1.
</event>
<event>
 6    1  0.1298204E-002  0.1854595E+03  0.7546771E-02  0.1066123E+00
        -11   -1    0    0    0    0  0.00000000000E+00  0.00000000000E+00  0.18250000000E+03  0.18250000000E+03  0.00000000000E+00 0. -1.
         11   -1    0    0    0    0 -0.00000000000E+00 -0.00000000000E+00 -0.18250000000E+03  0.18250000000E+03  0.00000000000E+00 0. -1.
        -11    1    1    2    0    0  0.85995148403E+01  0.81329713801E+01  0.13734649798E+03  0.13785556712E+03  0.00000000000E+00 0. -1.
         11    1    1    2    0    0  0.23722277459E+01 -0.25285509462E+01 -0.17950706399E+03  0.17954054432E+03  0.00000000000E+00 0. -1.
        -15    1    1    2    0    0 -0.85799776559E+01 -0.37881320497E+01  0.42973419372E+02  0.44020886662E+02  0.17770000000E+01 0.  1.
         15    1    1    2    0    0 -0.23917649303E+01 -0.18162883842E+01 -0.81285336384E+00  0.35830018933E+01  0.17770000000E+01 0. -1.
</event>
<event>
 6    1  0.1298204E-002  0.1851932E+03  0.7546771E-02  0.1066331E+00
        -11   -1    0    0    0    0  0.00000000000E+00  0.00000000000E+00  0.18250000000E+03  0.18250000000E+03  0.00000000000E+00 0. -1.
         11   -1    0    0    0    0 -0.00000000000E+00 -0.00000000000E+00 -0.18250000000E+03  0.18250000000E+03  0.00000000000E+00 0.  1.
        -11    1    1    2    0    0 -0.24304127663E+01 -0.15179567544E+01  0.17978396322E+03  0.17980679779E+03  0.00000000000E+00 0. -1.
         11    1    1    2    0    0 -0.29774908616E+01  0.30891017580E+01 -0.16961493173E+03  0.16966918715E+03  0.00000000000E+00 0.  1.
        -15    1    1    2    0    0  0.22288119674E+01  0.62548857283E+00  0.13716182391E+01  0.32245781638E+01  0.17770000000E+01 0. -1.
         15    1    1    2    0    0  0.31790916606E+01 -0.21966335764E+01 -0.11540649730E+02  0.12299436900E+02  0.17770000000E+01 0.  1.
</event>
<event>
 6    1  0.1298204E-002  0.1826985E+03  0.7546771E-02  0.1068297E+00
        -11   -1    0    0    0    0  0.00000000000E+00  0.00000000000E+00  0.18250000000E+03  0.18250000000E+03  0.00000000000E+00 0.  1.
         11   -1    0    0    0    0 -0.00000000000E+00 -0.00000000000E+00 -0.18250000000E+03  0.18250000000E+03  0.00000000000E+00 0. -1.
        -11    1    1    2    0    0  0.18654108775E+01  0.62494350572E+01  0.18218476839E+03  0.18230146744E+03  0.00000000000E+00 0.  1.
         11    1    1    2    0    0 -0.16645678611E+01  0.14797966570E+01 -0.97413147254E+02  0.97438605502E+02  0.00000000000E+00 0. -1.
        -15    1    1    2    0    0  0.17842589413E+00 -0.22561220151E+01 -0.16849179128E+02  0.17093112315E+02  0.17770000000E+01 0. -1.
         15    1    1    2    0    0 -0.37926891053E+00 -0.54731096991E+01 -0.67922442010E+02  0.68166814744E+02  0.17770000000E+01 0.  1.
</event>
<event>
 6    1  0.1298204E-002  0.1826740E+03  0.7546771E-02  0.1068316E+00
        -11   -1    0    0    0    0  0.00000000000E+00  0.00000000000E+00  0.18250000000E+03  0.18250000000E+03  0.00000000000E+00 0. -1.
         11   -1    0    0    0    0 -0.00000000000E+00 -0.00000000000E+00 -0.18250000000E+03  0.18250000000E+03  0.00000000000E+00 0.  1.
        -11    1    1    2    0    0  0.45998629008E+01 -0.13294386417E+01  0.18226315869E+03  0.18232604082E+03  0.00000000000E+00 0. -1.
         11    1    1    2    0    0  0.13043058570E+01  0.19431921125E+01 -0.36171135304E+02  0.36246768663E+02  0.00000000000E+00 0.  1.
        -15    1    1    2    0    0 -0.49948543658E+01  0.13940105577E+01 -0.12778611079E+03  0.12790363434E+03  0.17770000000E+01 0.  1.
         15    1    1    2    0    0 -0.90931439199E+00 -0.20077640285E+01 -0.18305912588E+02  0.18523556184E+02  0.17770000000E+01 0. -1.
</event>
<event>
 6    1  0.1298204E-002  0.1192876E+03  0.7546771E-02  0.1134102E+00
        -11   -1    0    0    0    0  0.00000000000E+00  0.00000000000E+00  0.18250000000E+03  0.18250000000E+03  0.00000000000E+00 0. -1.
         11   -1    0    0    0    0 -0.00000000000E+00 -0.00000000000E+00 -0.18250000000E+03  0.18250000000E+03  0.00000000000E+00 0.  1.
        -11    1    1    2    0    0 -0.21021568761E+02  0.55869078839E+01  0.11688485479E+03  0.11889150168E+03  0.00000000000E+00 0. -1.
         11    1    1    2    0    0 -0.37939049132E+00 -0.71699850215E+00 -0.48175400054E+02  0.48182229031E+02  0.00000000000E+00 0.  1.
        -15    1    1    2    0    0 -0.16586117676E+02  0.29273280530E+02 -0.12052590542E+03  0.12514661745E+03  0.17770000000E+01 0.  1.
         15    1    1    2    0    0  0.37987076928E+02 -0.34143189912E+02  0.51816450683E+02  0.72779651835E+02  0.17770000000E+01 0. -1.
</event>
<event>
 6    1  0.1298204E-002  0.1847453E+03  0.7546771E-02  0.1066681E+00
        -11   -1    0    0    0    0  0.00000000000E+00  0.00000000000E+00  0.18250000000E+03  0.18250000000E+03  0.00000000000E+00 0. -1.
         11   -1    0    0    0    0 -0.00000000000E+00 -0.00000000000E+00 -0.18250000000E+03  0.18250000000E+03  0.00000000000E+00 0. -1.
        -11    1    1    2    0    0  0.22565432826E+01 -0.62016444284E+00  0.16478128268E+03  0.16479789960E+03  0.00000000000E+00 0. -1.
         11    1    1    2    0    0 -0.18908861683E+01 -0.21051884360E+01 -0.18023243877E+03  0.18025465113E+03  0.00000000000E+00 0. -1.
        -15    1    1    2    0    0  0.24391803593E+01  0.66703401145E+01  0.10488059198E+02  0.12790627538E+02  0.17770000000E+01 0.  1.
         15    1    1    2    0    0 -0.28048374736E+01 -0.39449872357E+01  0.49630968922E+01  0.71568217320E+01  0.17770000000E+01 0.  1.
</event>
<event>
 6    1  0.1298204E-002  0.1846425E+03  0.7546771E-02  0.1066762E+00
        -11   -1    0    0    0    0  0.00000000000E+00  0.00000000000E+00  0.18250000000E+03  0.18250000000E+03  0.00000000000E+00 0.  1.
         11   -1    0    0    0    0 -0.00000000000E+00 -0.00000000000E+00 -0.18250000000E+03  0.18250000000E+03  0.00000000000E+00 0.  1.
        -11    1    1    2    0    0  0.38835377766E+01  0.97781422486E-01  0.17147861348E+03  0.17152261165E+03  0.00000000000E+00 0.  1.
         11    1    1    2    0    0 -0.45854305764E+01  0.74030717806E+00 -0.18029769977E+03  0.18035751930E+03  0.00000000000E+00 0.  1.
        -15    1    1    2    0    0  0.47635618407E+01  0.26795409786E+00  0.53291586133E+01  0.73702768832E+01  0.17770000000E+01 0.  1.
         15    1    1    2    0    0 -0.40616690409E+01 -0.11060426984E+01  0.34899276762E+01  0.57495921624E+01  0.17770000000E+01 0.  1.
</event>
<event>
 6    1  0.1298204E-002  0.1894264E+03  0.7546771E-02  0.1063071E+00
        -11   -1    0    0    0    0  0.00000000000E+00  0.00000000000E+00  0.18250000000E+03  0.18250000000E+03  0.00000000000E+00 0. -1.
         11   -1    0    0    0    0 -0.00000000000E+00 -0.00000000000E+00 -0.18250000000E+03  0.18250000000E+03  0.00000000000E+00 0.  1.
        -11    1    1    2    0    0  0.12660633444E+01 -0.40305476529E+01  0.11556026393E+03  0.11563746292E+03  0.00000000000E+00 0. -1.
         11    1    1    2    0    0 -0.44353907065E+01  0.87498557473E+00 -0.17551535407E+03  0.17557356807E+03  0.00000000000E+00 0.  1.
        -15    1    1    2    0    0  0.64758550052E+01 -0.21270774706E+01 -0.49192608181E+01  0.85917409534E+01  0.17770000000E+01 0. -1.
         15    1    1    2    0    0 -0.33065276431E+01  0.52826395488E+01  0.64874350955E+02  0.65197228058E+02  0.17770000000E+01 0. -1.
</event>
<event>
 6    1  0.1298204E-002  0.1845700E+03  0.7546771E-02  0.1066819E+00
        -11   -1    0    0    0    0  0.00000000000E+00  0.00000000000E+00  0.18250000000E+03  0.18250000000E+03  0.00000000000E+00 0.  1.
         11   -1    0    0    0    0 -0.00000000000E+00 -0.00000000000E+00 -0.18250000000E+03  0.18250000000E+03  0.00000000000E+00 0.  1.
        -11    1    1    2    0    0 -0.37857582920E+01 -0.50109274228E+01  0.18032065416E+03  0.18042998552E+03  0.00000000000E+00 0.  1.
         11    1    1    2    0    0  0.67629349720E+01 -0.37014191531E+00 -0.13997847397E+03  0.14014224014E+03  0.00000000000E+00 0.  1.
        -15    1    1    2    0    0  0.18786736370E+00 -0.62109979377E+01 -0.13943392326E+02  0.15368399659E+02  0.17770000000E+01 0. -1.
         15    1    1    2    0    0 -0.31650440437E+01  0.11592067276E+02 -0.26398787858E+02  0.29059374681E+02  0.17770000000E+01 0.  1.
</event>
<event>
 6    1  0.1298204E-002  0.1743320E+03  0.7546771E-02  0.1075149E+00
        -11   -1    0    0    0    0  0.00000000000E+00  0.00000000000E+00  0.18250000000E+03  0.18250000000E+03  0.00000000000E+00 0.  1.
         11   -1    0    0    0    0 -0.00000000000E+00 -0.00000000000E+00 -0.18250000000E+03  0.18250000000E+03  0.00000000000E+00 0. -1.
        -11    1    1    2    0    0  0.62791350073E+01 -0.32722302646E+01  0.17454515135E+03  0.17468870853E+03  0.00000000000E+00 0.  1.
         11    1    1    2    0    0  0.19271613160E+01 -0.21555957840E+01 -0.17409041915E+03  0.17411442957E+03  0.00000000000E+00 0. -1.
        -15    1    1    2    0    0 -0.51243520854E+01 -0.31153072845E+01 -0.24716077660E+01  0.67253771434E+01  0.17770000000E+01 0. -1.
         15    1    1    2    0    0 -0.30819442378E+01  0.85431333330E+01  0.20168755626E+01  0.94714847551E+01  0.17770000000E+01 0.  1.
</event>
<event>
 6    1  0.1298204E-002  0.1758652E+03  0.7546771E-02  0.1073862E+00
        -11   -1    0    0    0    0  0.00000000000E+00  0.00000000000E+00  0.18250000000E+03  0.18250000000E+03  0.00000000000E+00 0. -1.
         11   -1    0    0    0    0 -0.00000000000E+00 -0.00000000000E+00 -0.18250000000E+03  0.18250000000E+03  0.00000000000E+00 0. -1.
        -11    1    1    2    0    0 -0.71423868817E+00 -0.31564732772E+01  0.17649287769E+03  0.17652254626E+03  0.00000000000E+00 0. -1.
         11    1    1    2    0    0  0.23000373391E+01 -0.16396416978E+01 -0.17522363480E+03  0.17524640021E+03  0.00000000000E+00 0. -1.
        -15    1    1    2    0    0 -0.54084237349E+01 -0.40059315592E+00  0.16349360854E+01  0.59365197866E+01  0.17770000000E+01 0. -1.
         15    1    1    2    0    0  0.38226250840E+01  0.51967081309E+01 -0.29041789824E+01  0.72945337406E+01  0.17770000000E+01 0.  1.
</event>
<event>
 6    1  0.1298204E-002  0.1838039E+03  0.7546771E-02  0.1067422E+00
        -11   -1    0    0    0    0  0.00000000000E+00  0.00000000000E+00  0.18250000000E+03  0.18250000000E+03  0.00000000000E+00 0. -1.
         11   -1    0    0    0    0 -0.00000000000E+00 -0.00000000000E+00 -0.18250000000E+03  0.18250000000E+03  0.00000000000E+00 0.  1.
        -11    1    1    2    0    0  0.23469632647E+00  0.52775585063E+01  0.13967289098E+03  0.13977275908E+03  0.00000000000E+00 0. -1.
         11    1    1    2    0    0  0.16316884628E+01 -0.19118103987E+01 -0.18117870326E+03  0.18119613666E+03  0.00000000000E+00 0.  1.
        -15    1    1    2    0    0  0.36579229596E+01 -0.20096192680E+01  0.34656580365E+02  0.34952185362E+02  0.17770000000E+01 0. -1.
         15    1    1    2    0    0 -0.55243077489E+01 -0.13561288396E+01  0.68492319159E+01  0.90789188989E+01  0.17770000000E+01 0.  1.
</event>
<event>
 6    1  0.1298204E-002  0.1834943E+03  0.7546771E-02  0.1067666E+00
        -11   -1    0    0    0    0  0.00000000000E+00  0.00000000000E+00  0.18250000000E+03  0.18250000000E+03  0.00000000000E+00 0.  1.
         11   -1    0    0    0    0 -0.00000000000E+00 -0.00000000000E+00 -0.18250000000E+03  0.18250000000E+03  0.00000000000E+00 0. -1.
        -11    1    1    2    0    0  0.40313909743E+01 -0.60587451974E+00  0.18145987357E+03  0.18150566083E+03  0.00000000000E+00 0.  1.
         11    1    1    2    0    0 -0.37784419500E+01 -0.69742297309E+00 -0.13310907271E+03  0.13316451577E+03  0.00000000000E+00 0. -1.
        -15    1    1    2    0    0  0.21581880438E+01  0.65305484033E+01 -0.34527956763E+02  0.35251147007E+02  0.17770000000E+01 0.  1.
         15    1    1    2    0    0 -0.24111370681E+01 -0.52272509105E+01 -0.13822844091E+02  0.15078676395E+02  0.17770000000E+01 0. -1.
</event>
<event>
 6    1  0.1298204E-002  0.1825347E+03  0.7546771E-02  0.1068427E+00
        -11   -1    0    0    0    0  0.00000000000E+00  0.00000000000E+00  0.18250000000E+03  0.18250000000E+03  0.00000000000E+00 0. -1.
         11   -1    0    0    0    0 -0.00000000000E+00 -0.00000000000E+00 -0.18250000000E+03  0.18250000000E+03  0.00000000000E+00 0.  1.
        -11    1    1    2    0    0  0.36729342296E+00  0.10513145566E+01  0.45445947477E+02  0.45459589845E+02  0.00000000000E+00 0. -1.
         11    1    1    2    0    0  0.17226822619E+01 -0.19842716920E+01 -0.18244637282E+03  0.18246529512E+03  0.00000000000E+00 0.  1.
        -15    1    1    2    0    0 -0.96802697286E+00  0.10127055259E+01  0.52860022761E+02  0.52908433959E+02  0.17770000000E+01 0.  1.
         15    1    1    2    0    0 -0.11219487120E+01 -0.79748390477E-01  0.84140402578E+02  0.84166681079E+02  0.17770000000E+01 0. -1.
</event>
<event>
 6    1  0.1298204E-002  0.1830806E+03  0.7546771E-02  0.1067994E+00
        -11   -1    0    0    0    0  0.00000000000E+00  0.00000000000E+00  0.18250000000E+03  0.18250000000E+03  0.00000000000E+00 0. -1.
         11   -1    0    0    0    0 -0.00000000000E+00 -0.00000000000E+00 -0.18250000000E+03  0.18250000000E+03  0.00000000000E+00 0.  1.
        -11    1    1    2    0    0  0.84997075783E+01 -0.10491177200E+01  0.18171768586E+03  0.18191938608E+03  0.00000000000E+00 0. -1.
         11    1    1    2    0    0  0.19620095963E+01  0.29590985111E+00 -0.81247751480E+02  0.81271976504E+02  0.00000000000E+00 0.  1.
        -15    1    1    2    0    0 -0.95892898052E+01  0.11399301540E+01 -0.36227980671E+02  0.37535026738E+02  0.17770000000E+01 0. -1.
         15    1    1    2    0    0 -0.87242736945E+00 -0.38672228513E+00 -0.64241953712E+02  0.64273610677E+02  0.17770000000E+01 0. -1.
</event>
<event>
 6    1  0.1298204E-002  0.1887664E+03  0.7546771E-02  0.1063573E+00
        -11   -1    0    0    0    0  0.00000000000E+00  0.00000000000E+00  0.18250000000E+03  0.18250000000E+03  0.00000000000E+00 0. -1.
         11   -1    0    0    0    0 -0.00000000000E+00 -0.00000000000E+00 -0.18250000000E+03  0.18250000000E+03  0.00000000000E+00 0. -1.
        -11    1    1    2    0    0 -0.15682266685E+00 -0.36957544096E+01  0.97952867820E+02  0.98022688741E+02  0.00000000000E+00 0. -1.
         11    1    1    2    0    0 -0.35257479027E+01  0.27641484531E+02 -0.17401665860E+03  0.17623359508E+03  0.00000000000E+00 0. -1.
        -15    1    1    2    0    0  0.90395911245E+01 -0.17607912304E+02  0.79231137195E+02  0.81685271705E+02  0.17770000000E+01 0.  1.
         15    1    1    2    0    0 -0.53570205549E+01 -0.63378178176E+01 -0.31673464139E+01  0.90584444703E+01  0.17770000000E+01 0. -1.
</event>
<event>
 6    1  0.1298204E-002  0.1835360E+03  0.7546771E-02  0.1067633E+00
        -11   -1    0    0    0    0  0.00000000000E+00  0.00000000000E+00  0.18250000000E+03  0.18250000000E+03  0.00000000000E+00 0. -1.
         11   -1    0    0    0    0 -0.00000000000E+00 -0.00000000000E+00 -0.18250000000E+03  0.18250000000E+03  0.00000000000E+00 0. -1.
        -11    1    1    2    0    0 -0.72185312103E+01  0.71267070400E+01  0.87352428426E+02  0.87939433122E+02  0.00000000000E+00 0. -1.
         11    1    1    2    0    0 -0.88272359558E+00 -0.51900547681E+01 -0.18138758215E+03  0.18146396564E+03  0.00000000000E+00 0. -1.
        -15    1    1    2    0    0 -0.32586383644E+01  0.14391500391E+01  0.10939368235E+02  0.11641193376E+02  0.17770000000E+01 0.  1.
         15    1    1    2    0    0  0.11359893170E+02 -0.33758023110E+01  0.83095785487E+02  0.83955407859E+02  0.17770000000E+01 0. -1.
</event>
<event>
 6    1  0.1298204E-002  0.1830302E+03  0.7546771E-02  0.1068034E+00
        -11   -1    0    0    0    0  0.00000000000E+00  0.00000000000E+00  0.18250000000E+03  0.18250000000E+03  0.00000000000E+00 0. -1.
         11   -1    0    0    0    0 -0.00000000000E+00 -0.00000000000E+00 -0.18250000000E+03  0.18250000000E+03  0.00000000000E+00 0.  1.
        -11    1    1    2    0    0  0.17634549005E+01 -0.60758283333E+01  0.18185982470E+03  0.18196983624E+03  0.00000000000E+00 0. -1.
         11    1    1    2    0    0  0.14371676227E+00  0.38572359774E+01 -0.79699581548E+02  0.79792996076E+02  0.00000000000E+00 0.  1.
        -15    1    1    2    0    0  0.33736945443E+01 -0.33336644190E+01 -0.17669988254E+02  0.18381549098E+02  0.17770000000E+01 0. -1.
         15    1    1    2    0    0 -0.52808662071E+01  0.55522567749E+01 -0.84490254897E+02  0.84855618581E+02  0.17770000000E+01 0.  1.
</event>
<event>
 6    1  0.1298204E-002  0.1864985E+03  0.7546771E-02  0.1065316E+00
        -11   -1    0    0    0    0  0.00000000000E+00  0.00000000000E+00  0.18250000000E+03  0.18250000000E+03  0.00000000000E+00 0. -1.
         11   -1    0    0    0    0 -0.00000000000E+00 -0.00000000000E+00 -0.18250000000E+03  0.18250000000E+03  0.00000000000E+00 0. -1.
        -11    1    1    2    0    0 -0.87706046829E+01  0.54505658399E+01  0.16872230418E+03  0.16903800787E+03  0.00000000000E+00 0. -1.
         11    1    1    2    0    0  0.51193650580E+01 -0.17127576099E+00 -0.17842801652E+03  0.17850152468E+03  0.00000000000E+00 0. -1.
        -15    1    1    2    0    0  0.83067948146E+01 -0.32796203140E+01  0.67176556606E+01  0.11315625306E+02  0.17770000000E+01 0. -1.
         15    1    1    2    0    0 -0.46555551897E+01 -0.19996697649E+01  0.29880566770E+01  0.61448421459E+01  0.17770000000E+01 0.  1.
</event>
<event>
 6    1  0.1298204E-002  0.1845638E+03  0.7546771E-02  0.1066824E+00
        -11   -1    0    0    0    0  0.00000000000E+00  0.00000000000E+00  0.18250000000E+03  0.18250000000E+03  0.00000000000E+00 0.  1.
         11   -1    0    0    0    0 -0.00000000000E+00 -0.00000000000E+00 -0.18250000000E+03  0.18250000000E+03  0.00000000000E+00 0.  1.
        -11    1    1    2    0    0 -0.64360953715E+01  0.57595641160E+01  0.18022932998E+03  0.18043615848E+03  0.00000000000E+00 0.  1.
         11    1    1    2    0    0 -0.25122367546E+01  0.10713340955E+00 -0.15560405038E+03  0.15562436605E+03  0.00000000000E+00 0.  1.
        -15    1    1    2    0    0  0.76336655048E+01 -0.40762133938E+01 -0.75267922934E+01  0.11605976732E+02  0.17770000000E+01 0. -1.
         15    1    1    2    0    0  0.13146666213E+01 -0.17904841318E+01 -0.17098487300E+02  0.17333498744E+02  0.17770000000E+01 0. -1.
</event>
<event>
 6    1  0.1298204E-002  0.1976137E+03  0.7546771E-02  0.1057023E+00
        -11   -1    0    0    0    0  0.00000000000E+00  0.00000000000E+00  0.18250000000E+03  0.18250000000E+03  0.00000000000E+00 0.  1.
         11   -1    0    0    0    0 -0.00000000000E+00 -0.00000000000E+00 -0.18250000000E+03  0.18250000000E+03  0.00000000000E+00 0.  1.
        -11    1    1    2    0    0 -0.98069608164E+01 -0.13790927170E+00  0.16709872204E+03  0.16738631487E+03  0.00000000000E+00 0.  1.
         11    1    1    2    0    0  0.48477845456E+01  0.84617183829E+01 -0.11521206900E+03  0.11562405690E+03  0.00000000000E+00 0.  1.
        -15    1    1    2    0    0  0.24863845798E+02 -0.20818714750E+02 -0.48220272131E+02  0.58137613342E+02  0.17770000000E+01 0.  1.
         15    1    1    2    0    0 -0.19904669527E+02  0.12494905639E+02 -0.36663809120E+01  0.23852014882E+02  0.17770000000E+01 0. -1.
</event>
<event>
 6    1  0.1298204E-002  0.1839327E+03  0.7546771E-02  0.1067320E+00
        -11   -1    0    0    0    0  0.00000000000E+00  0.00000000000E+00  0.18250000000E+03  0.18250000000E+03  0.00000000000E+00 0.  1.
         11   -1    0    0    0    0 -0.00000000000E+00 -0.00000000000E+00 -0.18250000000E+03  0.18250000000E+03  0.00000000000E+00 0.  1.
        -11    1    1    2    0    0 -0.97736925826E+00  0.22487685514E+01  0.18105067101E+03  0.18106727392E+03  0.00000000000E+00 0.  1.
         11    1    1    2    0    0 -0.10147629812E+01 -0.32725917266E+01 -0.17534131315E+03  0.17537478638E+03  0.00000000000E+00 0.  1.
        -15    1    1    2    0    0  0.14357396326E+01 -0.11520149364E+01 -0.49078603420E+00  0.26052037613E+01  0.17770000000E+01 0. -1.
         15    1    1    2    0    0  0.55639260679E+00  0.21758381116E+01 -0.52185718314E+01  0.59527359407E+01  0.17770000000E+01 0.  1.
</event>
<event>
 6    1  0.1298204E-002  0.1827311E+03  0.7546771E-02  0.1068271E+00
        -11   -1    0    0    0    0  0.00000000000E+00  0.00000000000E+00  0.18250000000E+03  0.18250000000E+03  0.00000000000E+00 0.  1.
         11   -1    0    0    0    0 -0.00000000000E+00 -0.00000000000E+00 -0.18250000000E+03  0.18250000000E+03  0.00000000000E+00 0.  1.
        -11    1    1    2    0    0  0.44010425241E+01 -0.12230122264E-01  0.18221573690E+03  0.18226887858E+03  0.00000000000E+00 0.  1.
         11    1    1    2    0    0  0.13530013811E+01  0.14628180348E+01 -0.91755906553E+02  0.91777539936E+02  0.00000000000E+00 0.  1.
        -15    1    1    2    0    0 -0.35493828881E+01 -0.34787747887E+01 -0.36281025845E+02  0.36662931665E+02  0.17770000000E+01 0. -1.
         15    1    1    2    0    0 -0.22046610172E+01  0.20281868762E+01 -0.54178804499E+02  0.54290649823E+02  0.17770000000E+01 0.  1.
</event>
<event>
 6    1  0.1298204E-002  0.1832010E+03  0.7546771E-02  0.1067898E+00
        -11   -1    0    0    0    0  0.00000000000E+00  0.00000000000E+00  0.18250000000E+03  0.18250000000E+03  0.00000000000E+00 0. -1.
         11   -1    0    0    0    0 -0.00000000000E+00 -0.00000000000E+00 -0.18250000000E+03  0.18250000000E+03  0.00000000000E+00 0.  1.
        -11    1    1    2    0    0 -0.30519956048E+01 -0.11319208123E+00  0.74616125530E+02  0.74678602550E+02  0.00000000000E+00 0. -1.
         11    1    1    2    0    0 -0.12852466561E+01 -0.10521219159E+02 -0.18148971999E+03  0.18179897242E+03  0.00000000000E+00 0.  1.
        -15    1    1    2    0    0  0.85239607529E+01  0.95122078537E+01  0.92749768757E+02  0.93641963556E+02  0.17770000000E+01 0. -1.
         15    1    1    2    0    0 -0.41867184920E+01  0.11222033865E+01  0.14123825702E+02  0.14880461473E+02  0.17770000000E+01 0.  1.
</event>
<event>
 6    1  0.1298204E-002  0.1828381E+03  0.7546771E-02  0.1068186E+00
        -11   -1    0    0    0    0  0.00000000000E+00  0.00000000000E+00  0.18250000000E+03  0.18250000000E+03  0.00000000000E+00 0. -1.
         11   -1    0    0    0    0 -0.00000000000E+00 -0.00000000000E+00 -0.18250000000E+03  0.18250000000E+03  0.00000000000E+00 0. -1.
        -11    1    1    2    0    0 -0.14426406199E+01 -0.34022779636E+01  0.18212439132E+03  0.18216188026E+03  0.00000000000E+00 0. -1.
         11    1    1    2    0    0 -0.11430281243E+01  0.23076987295E+01 -0.73170502011E+02  0.73215806704E+02  0.00000000000E+00 0. -1.
        -15    1    1    2    0    0  0.22931882795E+01 -0.13967102047E+01 -0.80280931018E+01  0.86497121185E+01  0.17770000000E+01 0.  1.
         15    1    1    2    0    0  0.29248046474E+00  0.24912894388E+01 -0.10092579620E+03  0.10097260092E+03  0.17770000000E+01 0. -1.
</event>
<event>
 6    1  0.1298204E-002  0.2028078E+03  0.7546771E-02  0.1053349E+00
        -11   -1    0    0    0    0  0.00000000000E+00  0.00000000000E+00  0.18250000000E+03  0.18250000000E+03  0.00000000000E+00 0.  1.
         11   -1    0    0    0    0 -0.00000000000E+00 -0.00000000000E+00 -0.18250000000E+03  0.18250000000E+03  0.00000000000E+00 0.  1.
        -11    1    1    2    0    0  0.11654829529E+02  0.14832491344E+02  0.16109145710E+03  0.16219215579E+03  0.00000000000E+00 0.  1.
         11    1    1    2    0    0 -0.14127900864E+02 -0.22694118469E+02 -0.11064976529E+03  0.11383317247E+03  0.00000000000E+00 0.  1.
        -15    1    1    2    0    0 -0.14879866335E+02 -0.73049893385E+01  0.13200564341E+02  0.21264663630E+02  0.17770000000E+01 0. -1.
         15    1    1    2    0    0  0.17352937670E+02  0.15166616463E+02 -0.63642256150E+02  0.67710008105E+02  0.17770000000E+01 0.  1.
</event>
<event>
 6    1  0.1298204E-002  0.1846898E+03  0.7546771E-02  0.1066725E+00
        -11   -1    0    0    0    0  0.00000000000E+00  0.00000000000E+00  0.18250000000E+03  0.18250000000E+03  0.00000000000E+00 0. -1.
         11   -1    0    0    0    0 -0.00000000000E+00 -0.00000000000E+00 -0.18250000000E+03  0.18250000000E+03  0.00000000000E+00 0. -1.
        -11    1    1    2    0    0 -0.10809048365E+02  0.33084457759E+01  0.17995548310E+03  0.18031016953E+03  0.00000000000E+00 0. -1.
         11    1    1    2    0    0 -0.27893675300E+01  0.11552469710E+01 -0.11967518704E+03  0.11971326393E+03  0.00000000000E+00 0. -1.
        -15    1    1    2    0    0  0.74950070575E+01  0.34222601273E+00 -0.51473546159E+01  0.92706654550E+01  0.17770000000E+01 0. -1.
         15    1    1    2    0    0  0.61034088377E+01 -0.48059187596E+01 -0.55132941439E+02  0.55705901082E+02  0.17770000000E+01 0.  1.
</event>
<event>
 6    1  0.1298204E-002  0.1837159E+03  0.7546771E-02  0.1067491E+00
        -11   -1    0    0    0    0  0.00000000000E+00  0.00000000000E+00  0.18250000000E+03  0.18250000000E+03  0.00000000000E+00 0.  1.
         11   -1    0    0    0    0 -0.00000000000E+00 -0.00000000000E+00 -0.18250000000E+03  0.18250000000E+03  0.00000000000E+00 0. -1.
        -11    1    1    2    0    0  0.23123815318E+01  0.17341049901E+01  0.18126108880E+03  0.18128413208E+03  0.00000000000E+00 0.  1.
         11    1    1    2    0    0 -0.65345446327E-01  0.24571100663E+01 -0.15488149932E+03  0.15490100223E+03  0.00000000000E+00 0. -1.
        -15    1    1    2    0    0 -0.15361770235E+01 -0.51237830683E+01 -0.56659625422E+01  0.79921119429E+01  0.17770000000E+01 0. -1.
         15    1    1    2    0    0 -0.71085906198E+00  0.93256801195E+00 -0.20713626940E+02  0.20822753750E+02  0.17770000000E+01 0.  1.
</event>
<event>
 6    1  0.1298204E-002  0.1829810E+03  0.7546771E-02  0.1068073E+00
        -11   -1    0    0    0    0  0.00000000000E+00  0.00000000000E+00  0.18250000000E+03  0.18250000000E+03  0.00000000000E+00 0.  1.
         11   -1    0    0    0    0 -0.00000000000E+00 -0.00000000000E+00 -0.18250000000E+03  0.18250000000E+03  0.00000000000E+00 0. -1.
        -11    1    1    2    0    0 -0.53605204174E-01 -0.13657568255E+01  0.90007970292E+02  0.90018347471E+02  0.00000000000E+00 0.  1.
         11    1    1    2    0    0 -0.23329192870E+00 -0.61360424791E+01 -0.18191544341E+03  0.18201904844E+03  0.00000000000E+00 0. -1.
        -15    1    1    2    0    0  0.25400221069E+01  0.74595679555E+01  0.32606828459E+02  0.33592556579E+02  0.17770000000E+01 0. -1.
         15    1    1    2    0    0 -0.22531249741E+01  0.42231349049E-01  0.59300644660E+02  0.59370047513E+02  0.17770000000E+01 0. -1.
</event>
<event>
 6    1  0.1298204E-002  0.1827979E+03  0.7546771E-02  0.1068218E+00
        -11   -1    0    0    0    0  0.00000000000E+00  0.00000000000E+00  0.18250000000E+03  0.18250000000E+03  0.00000000000E+00 0.  1.
         11   -1    0    0    0    0 -0.00000000000E+00 -0.00000000000E+00 -0.18250000000E+03  0.18250000000E+03  0.00000000000E+00 0. -1.
        -11    1    1    2    0    0 -0.34558402606E+01  0.75917836928E+00  0.18216774567E+03  0.18220210413E+03  0.00000000000E+00 0.  1.
         11    1    1    2    0    0  0.10146601994E+01 -0.54617579933E+01 -0.11486205171E+03  0.11499630976E+03  0.00000000000E+00 0. -1.
        -15    1    1    2    0    0 -0.58815439543E+00  0.17218712920E+01 -0.10272246900E+02  0.10582417102E+02  0.17770000000E+01 0.  1.
         15    1    1    2    0    0  0.30293344567E+01  0.29807083320E+01 -0.57033447064E+02  0.57219169012E+02  0.17770000000E+01 0.  1.
</event>
<event>
 6    1  0.1298204E-002  0.1896120E+03  0.7546771E-02  0.1062931E+00
        -11   -1    0    0    0    0  0.00000000000E+00  0.00000000000E+00  0.18250000000E+03  0.18250000000E+03  0.00000000000E+00 0. -1.
         11   -1    0    0    0    0 -0.00000000000E+00 -0.00000000000E+00 -0.18250000000E+03  0.18250000000E+03  0.00000000000E+00 0. -1.
        -11    1    1    2    0    0  0.10239370397E+01 -0.13214827515E+01  0.94138203504E+02  0.94153046274E+02  0.00000000000E+00 0. -1.
         11    1    1    2    0    0 -0.98119997144E+00  0.29983753670E+01 -0.17535967247E+03  0.17538804901E+03  0.00000000000E+00 0. -1.
        -15    1    1    2    0    0 -0.13558291637E+02  0.11883367239E+02  0.71793730733E+02  0.74044170537E+02  0.17770000000E+01 0. -1.
         15    1    1    2    0    0  0.13515554569E+02 -0.13560259854E+02  0.94277382323E+01  0.21414734175E+02  0.17770000000E+01 0.  1.
</event>
<event>
 6    1  0.1298204E-002  0.1834369E+03  0.7546771E-02  0.1067711E+00
        -11   -1    0    0    0    0  0.00000000000E+00  0.00000000000E+00  0.18250000000E+03  0.18250000000E+03  0.00000000000E+00 0. -1.
         11   -1    0    0    0    0 -0.00000000000E+00 -0.00000000000E+00 -0.18250000000E+03  0.18250000000E+03  0.00000000000E+00 0. -1.
        -11    1    1    2    0    0 -0.26115099162E+01 -0.35492976171E+00  0.14959561560E+03  0.14961882959E+03  0.00000000000E+00 0. -1.
         11    1    1    2    0    0 -0.31274596685E+01  0.37421034105E+01 -0.18149759747E+03  0.18156310812E+03  0.00000000000E+00 0. -1.
        -15    1    1    2    0    0 -0.13429645511E+01  0.11861343461E+01  0.56354387576E+01  0.61746552506E+01  0.17770000000E+01 0. -1.
         15    1    1    2    0    0  0.70819341358E+01 -0.45733079949E+01  0.26266543110E+02  0.27643407045E+02  0.17770000000E+01 0. -1.
</event>
<event>
 6    1  0.1298204E-002  0.1829428E+03  0.7546771E-02  0.1068103E+00
        -11   -1    0    0    0    0  0.00000000000E+00  0.00000000000E+00  0.18250000000E+03  0.18250000000E+03  0.00000000000E+00 0. -1.
         11   -1    0    0    0    0 -0.00000000000E+00 -0.00000000000E+00 -0.18250000000E+03  0.18250000000E+03  0.00000000000E+00 0. -1.
        -11    1    1    2    0    0  0.12434279819E-01 -0.49780289860E+01  0.15217880391E+03  0.15226020257E+03  0.00000000000E+00 0. -1.
         11    1    1    2    0    0 -0.26554529676E+01  0.11208404536E+01 -0.18203434253E+03  0.18205716018E+03  0.00000000000E+00 0. -1.
        -15    1    1    2    0    0  0.60906472327E+00  0.68350306748E+00  0.37783082962E+01  0.42745150440E+01  0.17770000000E+01 0. -1.
         15    1    1    2    0    0  0.20339539645E+01  0.31736854649E+01  0.26077230323E+02  0.26408122207E+02  0.17770000000E+01 0.  1.
</event>
<event>
 6    1  0.1298204E-002  0.1868265E+03  0.7546771E-02  0.1065062E+00
        -11   -1    0    0    0    0  0.00000000000E+00  0.00000000000E+00  0.18250000000E+03  0.18250000000E+03  0.00000000000E+00 0.  1.
         11   -1    0    0    0    0 -0.00000000000E+00 -0.00000000000E+00 -0.18250000000E+03  0.18250000000E+03  0.00000000000E+00 0.  1.
        -11    1    1    2    0    0 -0.52265788381E+01 -0.87056436240E-01  0.17809682441E+03  0.17817352095E+03  0.00000000000E+00 0.  1.
         11    1    1    2    0    0  0.19958900469E+01  0.33624577025E+01 -0.16922062341E+03  0.16926579420E+03  0.00000000000E+00 0.  1.
        -15    1    1    2    0    0  0.37917993885E+01 -0.18637665448E+01  0.29859417860E+01  0.54703697942E+01  0.17770000000E+01 0. -1.
         15    1    1    2    0    0 -0.56111059732E+00 -0.14116347215E+01 -0.11862142781E+02  0.12090315051E+02  0.17770000000E+01 0.  1.
</event>
<event>
 6    1  0.1298204E-002  0.1830153E+03  0.7546771E-02  0.1068045E+00
        -11   -1    0    0    0    0  0.00000000000E+00  0.00000000000E+00  0.18250000000E+03  0.18250000000E+03  0.00000000000E+00 0.  1.
         11   -1    0    0    0    0 -0.00000000000E+00 -0.00000000000E+00 -0.18250000000E+03  0.18250000000E+03  0.00000000000E+00 0.  1.
        -11    1    1    2    0    0 -0.24994416970E+01  0.18460613747E+01  0.18195813187E+03  0.18198466118E+03  0.00000000000E+00 0.  1.
         11    1    1    2    0    0 -0.20020980168E+01 -0.68419462070E+00 -0.13800371951E+03  0.13801993739E+03  0.00000000000E+00 0.  1.
        -15    1    1    2    0    0  0.40645442810E+01  0.13025680132E+00 -0.41230477403E+02  0.41468632518E+02  0.17770000000E+01 0. -1.
         15    1    1    2    0    0  0.43699543281E+00 -0.12921235554E+01 -0.27239349573E+01  0.35267689097E+01  0.17770000000E+01 0.  1.
</event>
<event>
 6    1  0.1298204E-002  0.1828149E+03  0.7546771E-02  0.1068204E+00
        -11   -1    0    0    0    0  0.00000000000E+00  0.00000000000E+00  0.18250000000E+03  0.18250000000E+03  0.00000000000E+00 0. -1.
         11   -1    0    0    0    0 -0.00000000000E+00 -0.00000000000E+00 -0.18250000000E+03  0.18250000000E+03  0.00000000000E+00 0.  1.
        -11    1    1    2    0    0  0.57627228622E+00 -0.32880002347E+01  0.18215455769E+03  0.18218514188E+03  0.00000000000E+00 0. -1.
         11    1    1    2    0    0  0.45622073244E+00 -0.40887899077E+01 -0.43686280534E+02  0.43879578931E+02  0.00000000000E+00 0.  1.
        -15    1    1    2    0    0 -0.36937152816E+01  0.70609479682E+01 -0.98176542962E+02  0.98515439581E+02  0.17770000000E+01 0.  1.
         15    1    1    2    0    0  0.26612222629E+01  0.31584217414E+00 -0.40291734195E+02  0.40419839605E+02  0.17770000000E+01 0. -1.
</event>
<event>
 6    1  0.1298204E-002  0.1826093E+03  0.7546771E-02  0.1068368E+00
        -11   -1    0    0    0    0  0.00000000000E+00  0.00000000000E+00  0.18250000000E+03  0.18250000000E+03  0.00000000000E+00 0.  1.
         11   -1    0    0    0    0 -0.00000000000E+00 -0.00000000000E+00 -0.18250000000E+03  0.18250000000E+03  0.00000000000E+00 0.  1.
        -11    1    1    2    0    0 -0.17206572897E+01 -0.23000060826E+01  0.18236804539E+03  0.18239066497E+03  0.00000000000E+00 0.  1.
         11    1    1    2    0    0 -0.70077200331E+00  0.60129266958E+00 -0.97705209590E+01  0.98140569636E+01  0.00000000000E+00 0.  1.
        -15    1    1    2    0    0  0.58381632919E+00  0.32142626949E+01 -0.14312523560E+03  0.14317354197E+03  0.17770000000E+01 0.  1.
         15    1    1    2    0    0  0.18376129638E+01 -0.15155492819E+01 -0.29472288830E+02  0.29621736088E+02  0.17770000000E+01 0. -1.
</event>
<event>
 6    1  0.1298204E-002  0.1825542E+03  0.7546771E-02  0.1068412E+00
        -11   -1    0    0    0    0  0.00000000000E+00  0.00000000000E+00  0.18250000000E+03  0.18250000000E+03  0.00000000000E+00 0. -1.
         11   -1    0    0    0    0 -0.00000000000E+00 -0.00000000000E+00 -0.18250000000E+03  0.18250000000E+03  0.00000000000E+00 0. -1.
        -11    1    1    2    0    0  0.11936885039E+01 -0.57139103506E+00  0.34898556184E+02  0.34923639611E+02  0.00000000000E+00 0. -1.
         11    1    1    2    0    0  0.18355692579E+01  0.33739467707E+01 -0.18240536028E+03  0.18244579548E+03  0.00000000000E+00 0. -1.
        -15    1    1    2    0    0 -0.71896594521E-01 -0.11909759558E+01  0.41173832242E+02  0.41229428608E+02  0.17770000000E+01 0. -1.
         15    1    1    2    0    0 -0.29573611672E+01 -0.16115797799E+01  0.10633297185E+03  0.10640113630E+03  0.17770000000E+01 0.  1.
</event>
<event>
 6    1  0.1298204E-002  0.2255534E+03  0.7546771E-02  0.1038564E+00
        -11   -1    0    0    0    0  0.00000000000E+00  0.00000000000E+00  0.18250000000E+03  0.18250000000E+03  0.00000000000E+00 0. -1.
         11   -1    0    0    0    0 -0.00000000000E+00 -0.00000000000E+00 -0.18250000000E+03  0.18250000000E+03  0.00000000000E+00 0.  1.
        -11    1    1    2    0    0 -0.37406174352E+00  0.59470619511E+01  0.13931922356E+03  0.13944659738E+03  0.00000000000E+00 0. -1.
         11    1    1    2    0    0  0.27945388868E+01 -0.13805501182E+01 -0.13328041225E+03  0.13331685436E+03  0.00000000000E+00 0.  1.
        -15    1    1    2    0    0  0.72370634261E+01 -0.10052959760E+02 -0.47580675407E+02  0.49198734620E+02  0.17770000000E+01 0.  1.
         15    1    1    2    0    0 -0.96575405693E+01  0.54864479268E+01  0.41541864103E+02  0.43037813640E+02  0.17770000000E+01 0. -1.
</event>
<event>
 6    1  0.1298204E-002  0.1846290E+03  0.7546771E-02  0.1066773E+00
        -11   -1    0    0    0    0  0.00000000000E+00  0.00000000000E+00  0.18250000000E+03  0.18250000000E+03  0.00000000000E+00 0. -1.
         11   -1    0    0    0    0 -0.00000000000E+00 -0.00000000000E+00 -0.18250000000E+03  0.18250000000E+03  0.00000000000E+00 0.  1.
        -11    1    1    2    0    0  0.72349671797E+00  0.53168381239E+01  0.15589293993E+03  0.15598525871E+03  0.00000000000E+00 0. -1.
         11    1    1    2    0    0 -0.38403118506E+01  0.50036185389E+01 -0.18026064754E+03  0.18037096563E+03  0.00000000000E+00 0.  1.
        -15    1    1    2    0    0 -0.29194933595E+00 -0.10891124694E+02  0.19578548769E+02  0.22476190345E+02  0.17770000000E+01 0. -1.
         15    1    1    2    0    0  0.34087644685E+01  0.57066803156E+00  0.47891588336E+01  0.61675853085E+01  0.17770000000E+01 0.  1.
</event>
<event>
 6    1  0.1298204E-002  0.1872320E+03  0.7546771E-02  0.1064749E+00
        -11   -1    0    0    0    0  0.00000000000E+00  0.00000000000E+00  0.18250000000E+03  0.18250000000E+03  0.00000000000E+00 0.  1.
         11   -1    0    0    0    0 -0.00000000000E+00 -0.00000000000E+00 -0.18250000000E+03  0.18250000000E+03  0.00000000000E+00 0.  1.
        -11    1    1    2    0    0  0.49426021827E+01  0.50101821742E+00  0.16906811830E+03  0.16914109187E+03  0.00000000000E+00 0.  1.
         11    1    1    2    0    0  0.48091328097E+01 -0.95818539383E+00 -0.17770035460E+03  0.17776800022E+03  0.00000000000E+00 0.  1.
        -15    1    1    2    0    0 -0.40165856646E+01 -0.66332675476E+00  0.10745862338E+02  0.11627736201E+02  0.17770000000E+01 0. -1.
         15    1    1    2    0    0 -0.57351493279E+01  0.11204939312E+01 -0.21136260390E+01  0.64631717055E+01  0.17770000000E+01 0. -1.
</event>
<event>
 6    1  0.1298204E-002  0.1854476E+03  0.7546771E-02  0.1066132E+00
        -11   -1    0    0    0    0  0.00000000000E+00  0.00000000000E+00  0.18250000000E+03  0.18250000000E+03  0.00000000000E+00 0.  1.
         11   -1    0    0    0    0 -0.00000000000E+00 -0.00000000000E+00 -0.18250000000E+03  0.18250000000E+03  0.00000000000E+00 0. -1.
        -11    1    1    2    0    0 -0.26484886619E+02 -0.38024527845E+01  0.17754760373E+03  0.17955238639E+03  0.00000000000E+00 0.  1.
         11    1    1    2    0    0 -0.41269782143E+01 -0.39941096246E+01 -0.61018720460E+02  0.61288409243E+02  0.00000000000E+00 0. -1.
        -15    1    1    2    0    0  0.29513726369E+02  0.65604914632E+01 -0.56705802061E+02  0.64286902311E+02  0.17770000000E+01 0.  1.
         15    1    1    2    0    0  0.10981384637E+01  0.12360709459E+01 -0.59823081210E+02  0.59872302060E+02  0.17770000000E+01 0. -1.
</event>
<event>
 6    1  0.1298204E-002  0.1831310E+03  0.7546771E-02  0.1067954E+00
        -11   -1    0    0    0    0  0.00000000000E+00  0.00000000000E+00  0.18250000000E+03  0.18250000000E+03  0.00000000000E+00 0. -1.
         11   -1    0    0    0    0 -0.00000000000E+00 -0.00000000000E+00 -0.18250000000E+03  0.18250000000E+03  0.00000000000E+00 0.  1.
        -11    1    1    2    0    0 -0.23802343576E+01 -0.10704437707E+01  0.15475027662E+03  0.15477228266E+03  0.00000000000E+00 0. -1.
         11    1    1    2    0    0  0.14603226559E+00 -0.24893925393E+01 -0.18185189920E+03  0.18186899583E+03  0.00000000000E+00 0.  1.
        -15    1    1    2    0    0  0.17188626446E+01  0.37546342984E+01  0.80805404934E+01  0.92468714261E+01  0.17770000000E+01 0.  1.
         15    1    1    2    0    0  0.51533944735E+00 -0.19479798844E+00  0.19021082083E+02  0.19111850083E+02  0.17770000000E+01 0.  1.
</event>
<event>
 6    1  0.1298204E-002  0.1826142E+03  0.7546771E-02  0.1068364E+00
        -11   -1    0    0    0    0  0.00000000000E+00  0.00000000000E+00  0.18250000000E+03  0.18250000000E+03  0.00000000000E+00 0.  1.
         11   -1    0    0    0    0 -0.00000000000E+00 -0.00000000000E+00 -0.18250000000E+03  0.18250000000E+03  0.00000000000E+00 0. -1.
        -11    1    1    2    0    0 -0.24641568196E+01  0.11594171460E+01  0.62108666018E+02  0.62168341714E+02  0.00000000000E+00 0.  1.
         11    1    1    2    0    0  0.41800934453E+01  0.43281424828E+00 -0.18233738882E+03  0.18238581050E+03  0.00000000000E+00 0. -1.
        -15    1    1    2    0    0 -0.21000008035E+01 -0.52252207932E+00  0.10801658021E+03  0.10805286836E+03  0.17770000000E+01 0.  1.
         15    1    1    2    0    0  0.38406417777E+00 -0.10697093150E+01  0.12212142594E+02  0.12392979426E+02  0.17770000000E+01 0.  1.
</event>
<event>
 6    1  0.1298204E-002  0.1826829E+03  0.7546771E-02  0.1068309E+00
        -11   -1    0    0    0    0  0.00000000000E+00  0.00000000000E+00  0.18250000000E+03  0.18250000000E+03  0.00000000000E+00 0. -1.
         11   -1    0    0    0    0 -0.00000000000E+00 -0.00000000000E+00 -0.18250000000E+03  0.18250000000E+03  0.00000000000E+00 0. -1.
        -11    1    1    2    0    0 -0.70671360013E+01 -0.15409584350E+00  0.18218000248E+03  0.18231709043E+03  0.00000000000E+00 0. -1.
         11    1    1    2    0    0 -0.28095426113E+00  0.11257555186E+01 -0.62984605167E+02  0.62995291481E+02  0.00000000000E+00 0. -1.
        -15    1    1    2    0    0  0.58571904871E-01 -0.20804130418E+01 -0.50652897326E+02  0.50726770896E+02  0.17770000000E+01 0. -1.
         15    1    1    2    0    0  0.72895183576E+01  0.11087533667E+01 -0.68542499991E+02  0.68960847196E+02  0.17770000000E+01 0. -1.
</event>
<event>
 6    1  0.1298204E-002  0.1835795E+03  0.7546771E-02  0.1067599E+00
        -11   -1    0    0    0    0  0.00000000000E+00  0.00000000000E+00  0.18250000000E+03  0.18250000000E+03  0.00000000000E+00 0.  1.
         11   -1    0    0    0    0 -0.00000000000E+00 -0.00000000000E+00 -0.18250000000E+03  0.18250000000E+03  0.00000000000E+00 0. -1.
        -11    1    1    2    0    0 -0.47989913642E+01  0.34327001071E+01  0.96323360366E+02  0.96503904068E+02  0.00000000000E+00 0.  1.
         11    1    1    2    0    0 -0.83340249022E-01 -0.28204496254E+01 -0.18139854031E+03  0.18142048481E+03  0.00000000000E+00 0. -1.
        -15    1    1    2    0    0  0.57656938870E+01 -0.38980473958E+01  0.81544418381E+02  0.81860172841E+02  0.17770000000E+01 0.  1.
         15    1    1    2    0    0 -0.88336227379E+00  0.32857969140E+01  0.35307615623E+01  0.52154382823E+01  0.17770000000E+01 0.  1.
</event>
<event>
 6    1  0.1298204E-002  0.1893732E+03  0.7546771E-02  0.1063112E+00
        -11   -1    0    0    0    0  0.00000000000E+00  0.00000000000E+00  0.18250000000E+03  0.18250000000E+03  0.00000000000E+00 0. -1.
         11   -1    0    0    0    0 -0.00000000000E+00 -0.00000000000E+00 -0.18250000000E+03  0.18250000000E+03  0.00000000000E+00 0. -1.
        -11    1    1    2    0    0 -0.16502311142E+01  0.46176785607E+01  0.14611022535E+03  0.14619249012E+03  0.00000000000E+00 0. -1.
         11    1    1    2    0    0 -0.63304670175E+01  0.16426704054E+02 -0.17474222888E+03  0.17562675756E+03  0.00000000000E+00 0. -1.
        -15    1    1    2    0    0 -0.79922778402E+01 -0.53896577202E+01  0.72933951679E+01  0.12217866323E+02  0.17770000000E+01 0.  1.
         15    1    1    2    0    0  0.15972975972E+02 -0.15654724895E+02  0.21338608363E+02  0.30962885990E+02  0.17770000000E+01 0. -1.
</event>
<event>
 6    1  0.1298204E-002  0.1872712E+03  0.7546771E-02  0.1064719E+00
        -11   -1    0    0    0    0  0.00000000000E+00  0.00000000000E+00  0.18250000000E+03  0.18250000000E+03  0.00000000000E+00 0. -1.
         11   -1    0    0    0    0 -0.00000000000E+00 -0.00000000000E+00 -0.18250000000E+03  0.18250000000E+03  0.00000000000E+00 0.  1.
        -11    1    1    2    0    0 -0.91888538864E+00  0.14712385250E+01  0.10134599459E+03  0.10136083816E+03  0.00000000000E+00 0. -1.
         11    1    1    2    0    0  0.36038193681E+01 -0.32177764469E+01 -0.17766310622E+03  0.17772878470E+03  0.00000000000E+00 0.  1.
        -15    1    1    2    0    0 -0.21242017169E+00  0.15551149535E+02  0.11127911400E+02  0.19206028098E+02  0.17770000000E+01 0.  1.
         15    1    1    2    0    0 -0.24725138078E+01 -0.13804611613E+02  0.65189200224E+02  0.66704349042E+02  0.17770000000E+01 0. -1.
</event>
<event>
 6    1  0.1298204E-002  0.1875214E+03  0.7546771E-02  0.1064527E+00
        -11   -1    0    0    0    0  0.00000000000E+00  0.00000000000E+00  0.18250000000E+03  0.18250000000E+03  0.00000000000E+00 0.  1.
         11   -1    0    0    0    0 -0.00000000000E+00 -0.00000000000E+00 -0.18250000000E+03  0.18250000000E+03  0.00000000000E+00 0.  1.
        -11    1    1    2    0    0 -0.26182682441E+01 -0.26176684954E+00  0.67174528219E+02  0.67226044744E+02  0.00000000000E+00 0.  1.
         11    1    1    2    0    0  0.94003812232E+01  0.16447665621E+01 -0.17722179645E+03  0.17747855521E+03  0.00000000000E+00 0.  1.
        -15    1    1    2    0    0 -0.20766813697E+02 -0.84700352036E+01  0.97709055212E+02  0.10026574314E+03  0.17770000000E+01 0.  1.
         15    1    1    2    0    0  0.13984700717E+02  0.70870354910E+01  0.12338213018E+02  0.20029656904E+02  0.17770000000E+01 0. -1.
</event>
<event>
 6    1  0.1298204E-002  0.1829325E+03  0.7546771E-02  0.1068111E+00
        -11   -1    0    0    0    0  0.00000000000E+00  0.00000000000E+00  0.18250000000E+03  0.18250000000E+03  0.00000000000E+00 0.  1.
         11   -1    0    0    0    0 -0.00000000000E+00 -0.00000000000E+00 -0.18250000000E+03  0.18250000000E+03  0.00000000000E+00 0.  1.
        -11    1    1    2    0    0  0.22147754259E+01 -0.26667529483E+01  0.18203449391E+03  0.18206749785E+03  0.00000000000E+00 0.  1.
         11    1    1    2    0    0  0.11869522884E+01  0.24437093997E+01 -0.16483969414E+03  0.16486207974E+03  0.00000000000E+00 0.  1.
        -15    1    1    2    0    0 -0.29622918772E+01 -0.36761598815E+00 -0.88633564072E+01  0.95198282800E+01  0.17770000000E+01 0. -1.
         15    1    1    2    0    0 -0.43943583713E+00  0.59065953675E+00 -0.83314433612E+01  0.85505941328E+01  0.17770000000E+01 0.  1.
</event>
<event>
 6    1  0.1298204E-002  0.2034245E+03  0.7546771E-02  0.1052921E+00
        -11   -1    0    0    0    0  0.00000000000E+00  0.00000000000E+00  0.18250000000E+03  0.18250000000E+03  0.00000000000E+00 0.  1.
         11   -1    0    0    0    0 -0.00000000000E+00 -0.00000000000E+00 -0.18250000000E+03  0.18250000000E+03  0.00000000000E+00 0.  1.
        -11    1    1    2    0    0 -0.65139397760E-01  0.23605935731E+01  0.16155826278E+03  0.16157552079E+03  0.00000000000E+00 0.  1.
         11    1    1    2    0    0 -0.24307708030E+01 -0.19179013245E+01 -0.15621046243E+03  0.15624114555E+03  0.00000000000E+00 0.  1.
        -15    1    1    2    0    0  0.53013449060E+01  0.46701751940E+01 -0.25296073129E+02  0.26324206330E+02  0.17770000000E+01 0. -1.
         15    1    1    2    0    0 -0.28054347052E+01 -0.51128674426E+01  0.19948272770E+02  0.20859127328E+02  0.17770000000E+01 0.  1.
</event>
<event>
 6    1  0.1298204E-002  0.1866078E+03  0.7546771E-02  0.1065231E+00
        -11   -1    0    0    0    0  0.00000000000E+00  0.00000000000E+00  0.18250000000E+03  0.18250000000E+03  0.00000000000E+00 0. -1.
         11   -1    0    0    0    0 -0.00000000000E+00 -0.00000000000E+00 -0.18250000000E+03  0.18250000000E+03  0.00000000000E+00 0.  1.
        -11    1    1    2    0    0  0.80728912489E+01 -0.83160046621E+01  0.15752756788E+03  0.15795335435E+03  0.00000000000E+00 0. -1.
         11    1    1    2    0    0 -0.27757361669E+01 -0.63071872798E+00 -0.17836946090E+03  0.17839217219E+03  0.00000000000E+00 0.  1.
        -15    1    1    2    0    0  0.18171170107E+01  0.11000682406E+02  0.84208741809E+01  0.14084948654E+02  0.17770000000E+01 0.  1.
         15    1    1    2    0    0 -0.71142720927E+01 -0.20539590155E+01  0.12421018840E+02  0.14569524806E+02  0.17770000000E+01 0. -1.
</event>
<event>
 6    1  0.1298204E-002  0.1842534E+03  0.7546771E-02  0.1067068E+00
        -11   -1    0    0    0    0  0.00000000000E+00  0.00000000000E+00  0.18250000000E+03  0.18250000000E+03  0.00000000000E+00 0.  1.
         11   -1    0    0    0    0 -0.00000000000E+00 -0.00000000000E+00 -0.18250000000E+03  0.18250000000E+03  0.00000000000E+00 0.  1.
        -11    1    1    2    0    0 -0.33772817527E+01  0.82977940797E+01  0.14611455165E+03  0.14638893955E+03  0.00000000000E+00 0.  1.
         11    1    1    2    0    0  0.21927261267E+01  0.22876421257E+01 -0.18071886411E+03  0.18074664367E+03  0.00000000000E+00 0.  1.
        -15    1    1    2    0    0 -0.43328867610E+01 -0.61217327360E+01  0.21731498545E+02  0.23057868015E+02  0.17770000000E+01 0.  1.
         15    1    1    2    0    0  0.55174423870E+01 -0.44637034694E+01  0.12872813917E+02  0.14806548764E+02  0.17770000000E+01 0. -1.
</event>
<event>
 6    1  0.1298204E-002  0.1830223E+03  0.7546771E-02  0.1068040E+00
        -11   -1    0    0    0    0  0.00000000000E+00  0.00000000000E+00  0.18250000000E+03  0.18250000000E+03  0.00000000000E+00 0. -1.
         11   -1    0    0    0    0 -0.00000000000E+00 -0.00000000000E+00 -0.18250000000E+03  0.18250000000E+03  0.00000000000E+00 0. -1.
        -11    1    1    2    0    0 -0.35612615755E-01 -0.42737028139E+01  0.18192748469E+03  0.18197767855E+03  0.00000000000E+00 0. -1.
         11    1    1    2    0    0  0.43596693030E+00 -0.26401577982E+01 -0.11554771588E+03  0.11557869677E+03  0.00000000000E+00 0. -1.
        -15    1    1    2    0    0  0.92643330153E+00  0.23838390783E+01 -0.52358350056E+01  0.60920164658E+01  0.17770000000E+01 0.  1.
         15    1    1    2    0    0 -0.13267876161E+01  0.45300215338E+01 -0.61143933807E+02  0.61351608217E+02  0.17770000000E+01 0. -1.
</event>
<event>
 6    1  0.1298204E-002  0.1829158E+03  0.7546771E-02  0.1068124E+00
        -11   -1    0    0    0    0  0.00000000000E+00  0.00000000000E+00  0.18250000000E+03  0.18250000000E+03  0.00000000000E+00 0. -1.
         11   -1    0    0    0    0 -0.00000000000E+00 -0.00000000000E+00 -0.18250000000E+03  0.18250000000E+03  0.00000000000E+00 0. -1.
        -11    1    1    2    0    0  0.22309353505E+01  0.29763375996E+00  0.77548371518E+02  0.77581025925E+02  0.00000000000E+00 0. -1.
         11    1    1    2    0    0  0.50366623427E+01  0.55930057641E+01 -0.18192854396E+03  0.18208416951E+03  0.00000000000E+00 0. -1.
        -15    1    1    2    0    0 -0.60385516955E+01 -0.73752071256E+01  0.52463258970E+02  0.53351748401E+02  0.17770000000E+01 0.  1.
         15    1    1    2    0    0 -0.12290459977E+01  0.14845676016E+01  0.51916913468E+02  0.51983056163E+02  0.17770000000E+01 0.  1.
</event>
<event>
 6    1  0.1298204E-002  0.1847029E+03  0.7546771E-02  0.1066715E+00
        -11   -1    0    0    0    0  0.00000000000E+00  0.00000000000E+00  0.18250000000E+03  0.18250000000E+03  0.00000000000E+00 0. -1.
         11   -1    0    0    0    0 -0.00000000000E+00 -0.00000000000E+00 -0.18250000000E+03  0.18250000000E+03  0.00000000000E+00 0.  1.
        -11    1    1    2    0    0 -0.11639405265E+00  0.29001138653E+01  0.18027371412E+03  0.18029707765E+03  0.00000000000E+00 0. -1.
         11    1    1    2    0    0 -0.19340980423E+01  0.32141467704E+01 -0.16986800527E+03  0.16990941907E+03  0.00000000000E+00 0.  1.
        -15    1    1    2    0    0 -0.61025062225E+00 -0.29753102731E+01 -0.96194145840E+01  0.10242838619E+02  0.17770000000E+01 0. -1.
         15    1    1    2    0    0  0.26607427172E+01 -0.31389503626E+01 -0.78629426904E+00  0.45506646618E+01  0.17770000000E+01 0.  1.
</event>
<event>
 6    1  0.1298204E-002  0.1883651E+03  0.7546771E-02  0.1063880E+00
        -11   -1    0    0    0    0  0.00000000000E+00  0.00000000000E+00  0.18250000000E+03  0.18250000000E+03  0.00000000000E+00 0.  1.
         11   -1    0    0    0    0 -0.00000000000E+00 -0.00000000000E+00 -0.18250000000E+03  0.18250000000E+03  0.00000000000E+00 0.  1.
        -11    1    1    2    0    0  0.25632459930E+01 -0.21944188382E+01  0.17660265076E+03  0.17663488319E+03  0.00000000000E+00 0.  1.
         11    1    1    2    0    0  0.11309989667E+01 -0.36117132727E+01 -0.16659667965E+03  0.16663966305E+03  0.00000000000E+00 0.  1.
        -15    1    1    2    0    0 -0.39178022015E+01  0.95823298632E+01 -0.12904781601E+02  0.16639150725E+02  0.17770000000E+01 0.  1.
         15    1    1    2    0    0  0.22355724181E+00 -0.37761977523E+01  0.28988104865E+01  0.50863030328E+01  0.17770000000E+01 0. -1.
</event>
<event>
 6    1  0.1298204E-002  0.1843737E+03  0.7546771E-02  0.1066973E+00
        -11   -1    0    0    0    0  0.00000000000E+00  0.00000000000E+00  0.18250000000E+03  0.18250000000E+03  0.00000000000E+00 0. -1.
         11   -1    0    0    0    0 -0.00000000000E+00 -0.00000000000E+00 -0.18250000000E+03  0.18250000000E+03  0.00000000000E+00 0. -1.
        -11    1    1    2    0    0  0.28984998831E+01  0.37830152431E+01  0.11214769677E+03  0.11224891267E+03  0.00000000000E+00 0. -1.
         11    1    1    2    0    0 -0.55081001273E+01  0.12718705388E+02 -0.18009377207E+03  0.18062633078E+03  0.00000000000E+00 0. -1.
        -15    1    1    2    0    0  0.14822081349E+00 -0.87749204234E+01  0.93596526324E+01  0.12953070070E+02  0.17770000000E+01 0.  1.
         15    1    1    2    0    0  0.24613794308E+01 -0.77268002079E+01  0.58586422667E+02  0.59171686473E+02  0.17770000000E+01 0. -1.
</event>
<event>
 6    1  0.1298204E-002  0.1880432E+03  0.7546771E-02  0.1064126E+00
        -11   -1    0    0    0    0  0.00000000000E+00  0.00000000000E+00  0.18250000000E+03  0.18250000000E+03  0.00000000000E+00 0.  1.
         11   -1    0    0    0    0 -0.00000000000E+00 -0.00000000000E+00 -0.18250000000E+03  0.18250000000E+03  0.00000000000E+00 0.  1.
        -11    1    1    2    0    0 -0.56734585684E+01 -0.90755442315E+01  0.17663280704E+03  0.17695678048E+03  0.00000000000E+00 0.  1.
         11    1    1    2    0    0 -0.96444286802E+00 -0.35025945167E+01 -0.16064636606E+03  0.16068743960E+03  0.00000000000E+00 0.  1.
        -15    1    1    2    0    0  0.69114511873E+00  0.58835850053E+01 -0.17076416359E+02  0.18161937638E+02  0.17770000000E+01 0.  1.
         15    1    1    2    0    0  0.59467563177E+01  0.66945537429E+01  0.10899753753E+01  0.91938422782E+01  0.17770000000E+01 0.  1.
</event>
<event>
 6    1  0.1298204E-002  0.1826631E+03  0.7546771E-02  0.1068325E+00
        -11   -1    0    0    0    0  0.00000000000E+00  0.00000000000E+00  0.18250000000E+03  0.18250000000E+03  0.00000000000E+00 0. -1.
         11   -1    0    0    0    0 -0.00000000000E+00 -0.00000000000E+00 -0.18250000000E+03  0.18250000000E+03  0.00000000000E+00 0. -1.
        -11    1    1    2    0    0 -0.14101750332E+01  0.12742444786E+01  0.97135951739E+02  0.97154543964E+02  0.00000000000E+00 0. -1.
         11    1    1    2    0    0  0.85973222936E+00 -0.29371171894E+01 -0.18231125150E+03  0.18233693598E+03  0.00000000000E+00 0. -1.
        -15    1    1    2    0    0 -0.26696111530E+01  0.20965041340E+01  0.45129131798E+02  0.45291482854E+02  0.17770000000E+01 0. -1.
         15    1    1    2    0    0  0.32200539568E+01 -0.43363142309E+00  0.40046167967E+02  0.40217037204E+02  0.17770000000E+01 0.  1.
</event>
<event>
 6    1  0.1298204E-002  0.1900516E+03  0.7546771E-02  0.1062598E+00
        -11   -1    0    0    0    0  0.00000000000E+00  0.00000000000E+00  0.18250000000E+03  0.18250000000E+03  0.00000000000E+00 0.  1.
         11   -1    0    0    0    0 -0.00000000000E+00 -0.00000000000E+00 -0.18250000000E+03  0.18250000000E+03  0.00000000000E+00 0. -1.
        -11    1    1    2    0    0 -0.15244312247E+01 -0.20931067055E+01  0.17492920432E+03  0.17494836812E+03  0.00000000000E+00 0.  1.
         11    1    1    2    0    0 -0.41768507823E+01 -0.71619508618E+01 -0.16436784187E+03  0.16457681205E+03  0.00000000000E+00 0. -1.
        -15    1    1    2    0    0  0.13377871917E+01  0.47698371976E+01  0.58214520216E+01  0.78478056870E+01  0.17770000000E+01 0.  1.
         15    1    1    2    0    0  0.43634948153E+01  0.44852203698E+01 -0.16382814465E+02  0.17627014142E+02  0.17770000000E+01 0.  1.
</event>
<event>
 6    1  0.1298204E-002  0.1830816E+03  0.7546771E-02  0.1067993E+00
        -11   -1    0    0    0    0  0.00000000000E+00  0.00000000000E+00  0.18250000000E+03  0.18250000000E+03  0.00000000000E+00 0. -1.
         11   -1    0    0    0    0 -0.00000000000E+00 -0.00000000000E+00 -0.18250000000E+03  0.18250000000E+03  0.00000000000E+00 0. -1.
        -11    1    1    2    0    0 -0.14028021705E+00  0.10422193358E+01  0.38917444819E+02  0.38931650503E+02  0.00000000000E+00 0. -1.
         11    1    1    2    0    0  0.80626729315E+01  0.48960244161E+01 -0.18167369352E+03  0.18191841212E+03  0.00000000000E+00 0. -1.
        -15    1    1    2    0    0  0.27838318075E-01 -0.21782091679E+01  0.11381718995E+03  0.11385190304E+03  0.17770000000E+01 0. -1.
         15    1    1    2    0    0 -0.79502310325E+01 -0.37600345840E+01  0.28939058760E+02  0.30298034334E+02  0.17770000000E+01 0. -1.
</event>
<event>
 6    1  0.1298204E-002  0.1837808E+03  0.7546771E-02  0.1067440E+00
        -11   -1    0    0    0    0  0.00000000000E+00  0.00000000000E+00  0.18250000000E+03  0.18250000000E+03  0.00000000000E+00 0.  1.
         11   -1    0    0    0    0 -0.00000000000E+00 -0.00000000000E+00 -0.18250000000E+03  0.18250000000E+03  0.00000000000E+00 0.  1.
        -11    1    1    2    0    0  0.19384524085E+01  0.18384548534E+00  0.56970469409E+02  0.57003734804E+02  0.00000000000E+00 0.  1.
         11    1    1    2    0    0  0.40156937183E+01 -0.69605864639E+01 -0.18104097012E+03  0.18121922751E+03  0.00000000000E+00 0.  1.
        -15    1    1    2    0    0  0.67465472112E+01  0.75962660686E+01  0.27780249677E+02  0.29633075415E+02  0.17770000000E+01 0.  1.
         15    1    1    2    0    0 -0.12700693338E+02 -0.81952509004E+00  0.96290251030E+02  0.97143962267E+02  0.17770000000E+01 0. -1.
</event>
<event>
 6    1  0.1298204E-002  0.1825979E+03  0.7546771E-02  0.1068377E+00
        -11   -1    0    0    0    0  0.00000000000E+00  0.00000000000E+00  0.18250000000E+03  0.18250000000E+03  0.00000000000E+00 0. -1.
         11   -1    0    0    0    0 -0.00000000000E+00 -0.00000000000E+00 -0.18250000000E+03  0.18250000000E+03  0.00000000000E+00 0.  1.
        -11    1    1    2    0    0  0.13257126972E+01 -0.13928171016E+01  0.65540655997E+02  0.65568857259E+02  0.00000000000E+00 0. -1.
         11    1    1    2    0    0 -0.28956568875E+01 -0.24805244438E+01 -0.18236221102E+03  0.18240206644E+03  0.00000000000E+00 0.  1.
        -15    1    1    2    0    0  0.18224379692E+01  0.22406802193E+01  0.33286509644E+02  0.33458801253E+02  0.17770000000E+01 0. -1.
         15    1    1    2    0    0 -0.25249377887E+00  0.16326613262E+01  0.83535045383E+02  0.83570275052E+02  0.17770000000E+01 0. -1.
</event>
<event>
 6    1  0.1298204E-002  0.1854563E+03  0.7546771E-02  0.1066126E+00
        -11   -1    0    0    0    0  0.00000000000E+00  0.00000000000E+00  0.18250000000E+03  0.18250000000E+03  0.00000000000E+00 0. -1.
         11   -1    0    0    0    0 -0.00000000000E+00 -0.00000000000E+00 -0.18250000000E+03  0.18250000000E+03  0.00000000000E+00 0.  1.
        -11    1    1    2    0    0 -0.57655461030E+01 -0.30399219598E+01  0.17942535758E+03  0.17954370384E+03  0.00000000000E+00 0. -1.
         11    1    1    2    0    0 -0.58587960281E+01  0.11887062293E+01 -0.15939053178E+03  0.15950260229E+03  0.00000000000E+00 0.  1.
        -15    1    1    2    0    0  0.10661136346E+02  0.52299751260E+01 -0.11843668719E+02  0.16865428715E+02  0.17770000000E+01 0. -1.
         15    1    1    2    0    0  0.96320578481E+00 -0.33787593955E+01 -0.81911570716E+01  0.90882651595E+01  0.17770000000E+01 0.  1.
</event>
<event>
 6    1  0.1298204E-002  0.2062136E+03  0.7546771E-02  0.1051004E+00
        -11   -1    0    0    0    0  0.00000000000E+00  0.00000000000E+00  0.18250000000E+03  0.18250000000E+03  0.00000000000E+00 0.  1.
         11   -1    0    0    0    0 -0.00000000000E+00 -0.00000000000E+00 -0.18250000000E+03  0.18250000000E+03  0.00000000000E+00 0.  1.
        -11    1    1    2    0    0  0.51531697432E+01  0.43008399070E+01  0.15330996337E+03  0.15345682537E+03  0.00000000000E+00 0.  1.
         11    1    1    2    0    0 -0.47796997950E+01 -0.45802076811E+01 -0.15864837041E+03  0.15878642658E+03  0.00000000000E+00 0.  1.
        -15    1    1    2    0    0  0.35863405846E+01  0.39148083876E+01 -0.23095624172E+02  0.23764535519E+02  0.17770000000E+01 0. -1.
         15    1    1    2    0    0 -0.39598105329E+01 -0.36354406134E+01  0.28434031209E+02  0.28992212536E+02  0.17770000000E+01 0.  1.
</event>
<event>
 6    1  0.1298204E-002  0.1836161E+03  0.7546771E-02  0.1067570E+00
        -11   -1    0    0    0    0  0.00000000000E+00  0.00000000000E+00  0.18250000000E+03  0.18250000000E+03  0.00000000000E+00 0. -1.
         11   -1    0    0    0    0 -0.00000000000E+00 -0.00000000000E+00 -0.18250000000E+03  0.18250000000E+03  0.00000000000E+00 0.  1.
        -11    1    1    2    0    0  0.43183928089E+01 -0.20120909667E+01  0.18132137257E+03  0.18138394961E+03  0.00000000000E+00 0. -1.
         11    1    1    2    0    0 -0.33179402445E+01  0.43781941557E+01 -0.10561655218E+03  0.10575931829E+03  0.00000000000E+00 0.  1.
        -15    1    1    2    0    0  0.68836345769E+01  0.19785362250E+01 -0.50446980834E+02  0.50983866417E+02  0.17770000000E+01 0. -1.
         15    1    1    2    0    0 -0.78840871413E+01 -0.43446394139E+01 -0.25257839556E+02  0.26872865678E+02  0.17770000000E+01 0.  1.
</event>
<event>
 6    1  0.1298204E-002  0.1857970E+03  0.7546771E-02  0.1065860E+00
        -11   -1    0    0    0    0  0.00000000000E+00  0.00000000000E+00  0.18250000000E+03  0.18250000000E+03  0.00000000000E+00 0. -1.
         11   -1    0    0    0    0 -0.00000000000E+00 -0.00000000000E+00 -0.18250000000E+03  0.18250000000E+03  0.00000000000E+00 0. -1.
        -11    1    1    2    0    0 -0.42624248387E+01  0.24041100281E+01  0.17913615980E+03  0.17920299037E+03  0.00000000000E+00 0. -1.
         11    1    1    2    0    0  0.37872017351E+01 -0.36645857193E+01 -0.17498546423E+03  0.17506480165E+03  0.00000000000E+00 0. -1.
        -15    1    1    2    0    0  0.22109770263E+01  0.24823749341E+01 -0.62220279356E+01  0.72747484737E+01  0.17770000000E+01 0. -1.
         15    1    1    2    0    0 -0.17357539228E+01 -0.12218992430E+01  0.20713323664E+01  0.34574595026E+01  0.17770000000E+01 0.  1.
</event>
<event>
 6    1  0.1298204E-002  0.1825893E+03  0.7546771E-02  0.1068384E+00
        -11   -1    0    0    0    0  0.00000000000E+00  0.00000000000E+00  0.18250000000E+03  0.18250000000E+03  0.00000000000E+00 0.  1.
         11   -1    0    0    0    0 -0.00000000000E+00 -0.00000000000E+00 -0.18250000000E+03  0.18250000000E+03  0.00000000000E+00 0.  1.
        -11    1    1    2    0    0  0.10042963883E+01 -0.38201348346E+01  0.18236797742E+03  0.18241074867E+03  0.00000000000E+00 0.  1.
         11    1    1    2    0    0  0.95267144361E-01 -0.12067757685E+01 -0.59819295280E+02  0.59831542445E+02  0.00000000000E+00 0.  1.
        -15    1    1    2    0    0 -0.49224304960E-01  0.39684661935E+01 -0.98893330240E+02  0.98988886457E+02  0.17770000000E+01 0.  1.
         15    1    1    2    0    0 -0.10503392277E+01  0.10584444097E+01 -0.23655351901E+02  0.23768822429E+02  0.17770000000E+01 0. -1.
</event>
<event>
 6    1  0.1298204E-002  0.1848249E+03  0.7546771E-02  0.1066619E+00
        -11   -1    0    0    0    0  0.00000000000E+00  0.00000000000E+00  0.18250000000E+03  0.18250000000E+03  0.00000000000E+00 0. -1.
         11   -1    0    0    0    0 -0.00000000000E+00 -0.00000000000E+00 -0.18250000000E+03  0.18250000000E+03  0.00000000000E+00 0. -1.
        -11    1    1    2    0    0  0.15737041702E+01 -0.21778009977E+01  0.17161380793E+03  0.17163484038E+03  0.00000000000E+00 0. -1.
         11    1    1    2    0    0  0.19074084709E+01  0.28861846568E+01 -0.18014188412E+03  0.18017510006E+03  0.00000000000E+00 0. -1.
        -15    1    1    2    0    0 -0.23593826863E+01 -0.24665258738E+01  0.95261505319E+01  0.10274030830E+02  0.17770000000E+01 0.  1.
         15    1    1    2    0    0 -0.11217299547E+01  0.17581422147E+01 -0.99807434018E+00  0.29160287254E+01  0.17770000000E+01 0. -1.
</event>
<event>
 6    1  0.1298204E-002  0.1829813E+03  0.7546771E-02  0.1068072E+00
        -11   -1    0    0    0    0  0.00000000000E+00  0.00000000000E+00  0.18250000000E+03  0.18250000000E+03  0.00000000000E+00 0.  1.
         11   -1    0    0    0    0 -0.00000000000E+00 -0.00000000000E+00 -0.18250000000E+03  0.18250000000E+03  0.00000000000E+00 0.  1.
        -11    1    1    2    0    0 -0.23566910154E+01 -0.17257303422E+01  0.12698571855E+03  0.12701930898E+03  0.00000000000E+00 0.  1.
         11    1    1    2    0    0  0.25708389278E+01 -0.10596961793E+00 -0.18200049768E+03  0.18201868475E+03  0.00000000000E+00 0.  1.
        -15    1    1    2    0    0  0.26815685729E+01  0.39251415404E+00  0.47293625497E+02  0.47404531630E+02  0.17770000000E+01 0.  1.
         15    1    1    2    0    0 -0.28957164853E+01  0.14391858061E+01  0.77211536358E+01  0.85574746400E+01  0.17770000000E+01 0.  1.
</event>
<event>
 6    1  0.1298204E-002  0.1841798E+03  0.7546771E-02  0.1067126E+00
        -11   -1    0    0    0    0  0.00000000000E+00  0.00000000000E+00  0.18250000000E+03  0.18250000000E+03  0.00000000000E+00 0. -1.
         11   -1    0    0    0    0 -0.00000000000E+00 -0.00000000000E+00 -0.18250000000E+03  0.18250000000E+03  0.00000000000E+00 0.  1.
        -11    1    1    2    0    0 -0.37427858479E+01  0.25005831994E+01  0.17217589127E+03  0.17223472036E+03  0.00000000000E+00 0. -1.
         11    1    1    2    0    0 -0.13890096832E+01 -0.21992563416E+01 -0.18080151848E+03  0.18082022885E+03  0.00000000000E+00 0.  1.
        -15    1    1    2    0    0  0.33224414650E+01 -0.12746010783E+01  0.13852258231E+01  0.42118647625E+01  0.17770000000E+01 0. -1.
         15    1    1    2    0    0  0.18093540661E+01  0.97327422044E+00  0.72404013911E+01  0.77331860284E+01  0.17770000000E+01 0.  1.
</event>
<event>
 6    1  0.1298204E-002  0.1828209E+03  0.7546771E-02  0.1068200E+00
        -11   -1    0    0    0    0  0.00000000000E+00  0.00000000000E+00  0.18250000000E+03  0.18250000000E+03  0.00000000000E+00 0. -1.
         11   -1    0    0    0    0 -0.00000000000E+00 -0.00000000000E+00 -0.18250000000E+03  0.18250000000E+03  0.00000000000E+00 0.  1.
        -11    1    1    2    0    0 -0.11516722758E+00 -0.64172395577E+01  0.18206599130E+03  0.18217908611E+03  0.00000000000E+00 0. -1.
         11    1    1    2    0    0 -0.23301628385E+01 -0.33868349014E+00 -0.13264375332E+03  0.13266465113E+03  0.00000000000E+00 0.  1.
        -15    1    1    2    0    0 -0.45165858544E+00  0.25448700541E+01 -0.17687695206E+02  0.17963648008E+02  0.17770000000E+01 0. -1.
         15    1    1    2    0    0  0.28969886515E+01  0.42110529938E+01 -0.31734542775E+02  0.32192614754E+02  0.17770000000E+01 0.  1.
</event>
<event>
 6    1  0.1298204E-002  0.1832064E+03  0.7546771E-02  0.1067894E+00
        -11   -1    0    0    0    0  0.00000000000E+00  0.00000000000E+00  0.18250000000E+03  0.18250000000E+03  0.00000000000E+00 0. -1.
         11   -1    0    0    0    0 -0.00000000000E+00 -0.00000000000E+00 -0.18250000000E+03  0.18250000000E+03  0.00000000000E+00 0.  1.
        -11    1    1    2    0    0  0.37473273387E+01  0.17184354030E+01  0.94991207073E+02  0.95080623176E+02  0.00000000000E+00 0. -1.
         11    1    1    2    0    0  0.28299222365E+01  0.76250135877E+00 -0.18176996408E+03  0.18179359094E+03  0.00000000000E+00 0.  1.
        -15    1    1    2    0    0  0.91164493959E+00  0.44382071984E+01  0.33425919560E+02  0.33778374843E+02  0.17770000000E+01 0. -1.
         15    1    1    2    0    0 -0.74888945149E+01 -0.69191439602E+01  0.53352837443E+02  0.54347411037E+02  0.17770000000E+01 0.  1.
</event>
<event>
 6    1  0.1298204E-002  0.1872861E+03  0.7546771E-02  0.1064708E+00
        -11   -1    0    0    0    0  0.00000000000E+00  0.00000000000E+00  0.18250000000E+03  0.18250000000E+03  0.00000000000E+00 0.  1.
         11   -1    0    0    0    0 -0.00000000000E+00 -0.00000000000E+00 -0.18250000000E+03  0.18250000000E+03  0.00000000000E+00 0.  1.
        -11    1    1    2    0    0 -0.56132975328E+01 -0.58457581103E+00  0.16436673376E+03  0.16446359477E+03  0.00000000000E+00 0.  1.
         11    1    1    2    0    0 -0.47171207145E+01  0.30635225012E+01 -0.17762489378E+03  0.17771392542E+03  0.00000000000E+00 0.  1.
        -15    1    1    2    0    0  0.88823058742E+00  0.31083697475E+01 -0.18016325299E+01  0.41054262673E+01  0.17770000000E+01 0.  1.
         15    1    1    2    0    0  0.94421876599E+01 -0.55873164376E+01  0.15059792546E+02  0.18717053542E+02  0.17770000000E+01 0. -1.
</event>
<event>
 6    1  0.1298204E-002  0.1856374E+03  0.7546771E-02  0.1065985E+00
        -11   -1    0    0    0    0  0.00000000000E+00  0.00000000000E+00  0.18250000000E+03  0.18250000000E+03  0.00000000000E+00 0. -1.
         11   -1    0    0    0    0 -0.00000000000E+00 -0.00000000000E+00 -0.18250000000E+03  0.18250000000E+03  0.00000000000E+00 0. -1.
        -11    1    1    2    0    0  0.10323436244E+02  0.49705633605E+01  0.17899624802E+03  0.17936258428E+03  0.00000000000E+00 0. -1.
         11    1    1    2    0    0 -0.40211630663E+01 -0.38222222382E+01 -0.15531689095E+03  0.15541594432E+03  0.00000000000E+00 0. -1.
        -15    1    1    2    0    0  0.39678488555E+01  0.45049765632E+01 -0.12226892227E+02  0.13736566562E+02  0.17770000000E+01 0. -1.
         15    1    1    2    0    0 -0.10270122033E+02 -0.56533176855E+01 -0.11452464838E+02  0.16484904832E+02  0.17770000000E+01 0.  1.
</event>
<event>
 6    1  0.1298204E-002  0.1869483E+03  0.7546771E-02  0.1064968E+00
        -11   -1    0    0    0    0  0.00000000000E+00  0.00000000000E+00  0.18250000000E+03  0.18250000000E+03  0.00000000000E+00 0.  1.
         11   -1    0    0    0    0 -0.00000000000E+00 -0.00000000000E+00 -0.18250000000E+03  0.18250000000E+03  0.00000000000E+00 0.  1.
        -11    1    1    2    0    0 -0.38517916544E+00  0.31304769488E+01  0.17207641338E+03  0.17210531744E+03  0.00000000000E+00 0.  1.
         11    1    1    2    0    0 -0.33168942966E+01  0.25797023999E+01 -0.17800211833E+03  0.17805170817E+03  0.00000000000E+00 0.  1.
        -15    1    1    2    0    0  0.39587862912E+01  0.25412958684E+01  0.32380197953E+01  0.59810262318E+01  0.17770000000E+01 0. -1.
         15    1    1    2    0    0 -0.25671282915E+00 -0.82514752171E+01  0.26876851504E+01  0.88619481607E+01  0.17770000000E+01 0.  1.
</event>
<event>
 6    1  0.1298204E-002  0.1816806E+03  0.7546771E-02  0.1069109E+00
        -11   -1    0    0    0    0  0.00000000000E+00  0.00000000000E+00  0.18250000000E+03  0.18250000000E+03  0.00000000000E+00 0.  1.
         11   -1    0    0    0    0 -0.00000000000E+00 -0.00000000000E+00 -0.18250000000E+03  0.18250000000E+03  0.00000000000E+00 0. -1.
        -11    1    1    2    0    0 -0.49876980566E+00 -0.18109880301E+00  0.28972857354E+01  0.29454766555E+01  0.00000000000E+00 0.  1.
         11    1    1    2    0    0 -0.14298014227E+01 -0.20635946039E+01 -0.18179042153E+03  0.18180775593E+03  0.00000000000E+00 0. -1.
        -15    1    1    2    0    0  0.61366110715E+01 -0.13620037872E+01  0.16451794341E+02  0.17701195322E+02  0.17770000000E+01 0. -1.
         15    1    1    2    0    0 -0.42080398431E+01  0.36066971940E+01  0.16244134146E+03  0.16254557209E+03  0.17770000000E+01 0.  1.
</event>
<event>
 6    1  0.1298204E-002  0.1828515E+03  0.7546771E-02  0.1068175E+00
        -11   -1    0    0    0    0  0.00000000000E+00  0.00000000000E+00  0.18250000000E+03  0.18250000000E+03  0.00000000000E+00 0.  1.
         11   -1    0    0    0    0 -0.00000000000E+00 -0.00000000000E+00 -0.18250000000E+03  0.18250000000E+03  0.00000000000E+00 0.  1.
        -11    1    1    2    0    0 -0.42094653108E+01  0.20680291074E+00  0.18209970664E+03  0.18214847110E+03  0.00000000000E+00 0.  1.
         11    1    1    2    0    0  0.72353343926E+00  0.32240065190E+01 -0.96730966959E+02  0.96787383927E+02  0.00000000000E+00 0.  1.
        -15    1    1    2    0    0 -0.25388369349E+01  0.49989415922E-01 -0.41101058296E+02  0.41217749987E+02  0.17770000000E+01 0.  1.
         15    1    1    2    0    0  0.60247688065E+01 -0.34807988457E+01 -0.44267681381E+02  0.44846394990E+02  0.17770000000E+01 0.  1.
</event>
<event>
 6    1  0.1298204E-002  0.1839564E+03  0.7546771E-02  0.1067301E+00
        -11   -1    0    0    0    0  0.00000000000E+00  0.00000000000E+00  0.18250000000E+03  0.18250000000E+03  0.00000000000E+00 0.  1.
         11   -1    0    0    0    0 -0.00000000000E+00 -0.00000000000E+00 -0.18250000000E+03  0.18250000000E+03  0.00000000000E+00 0. -1.
        -11    1    1    2    0    0 -0.38952825262E+01  0.26692581988E+01  0.75651547067E+02  0.75798777952E+02  0.00000000000E+00 0.  1.
         11    1    1    2    0    0 -0.15303947106E+01  0.20908054147E+01 -0.18102503416E+03  0.18104357643E+03  0.00000000000E+00 0. -1.
        -15    1    1    2    0    0  0.51073445666E+01  0.23476792591E+01  0.56523089216E+01  0.81671838213E+01  0.17770000000E+01 0. -1.
         15    1    1    2    0    0  0.31833267018E+00 -0.71077428725E+01  0.99721178172E+02  0.99990461792E+02  0.17770000000E+01 0.  1.
</event>
<event>
 6    1  0.1298204E-002  0.1830834E+03  0.7546771E-02  0.1067991E+00
        -11   -1    0    0    0    0  0.00000000000E+00  0.00000000000E+00  0.18250000000E+03  0.18250000000E+03  0.00000000000E+00 0. -1.
         11   -1    0    0    0    0 -0.00000000000E+00 -0.00000000000E+00 -0.18250000000E+03  0.18250000000E+03  0.00000000000E+00 0.  1.
        -11    1    1    2    0    0  0.17399492559E+01 -0.95073756458E+00  0.12992308222E+03  0.12993821077E+03  0.00000000000E+00 0. -1.
         11    1    1    2    0    0  0.10885253811E+01  0.32001021910E+01 -0.18188519051E+03  0.18191659647E+03  0.00000000000E+00 0.  1.
        -15    1    1    2    0    0  0.10036331538E+01  0.33420992475E+01  0.24057460405E+02  0.24374085358E+02  0.17770000000E+01 0. -1.
         15    1    1    2    0    0 -0.38321077908E+01 -0.55914638740E+01  0.27904647888E+02  0.28771107402E+02  0.17770000000E+01 0. -1.
</event>
<event>
 6    1  0.1298204E-002  0.1832749E+03  0.7546771E-02  0.1067840E+00
        -11   -1    0    0    0    0  0.00000000000E+00  0.00000000000E+00  0.18250000000E+03  0.18250000000E+03  0.00000000000E+00 0. -1.
         11   -1    0    0    0    0 -0.00000000000E+00 -0.00000000000E+00 -0.18250000000E+03  0.18250000000E+03  0.00000000000E+00 0.  1.
        -11    1    1    2    0    0 -0.32190999588E+01  0.14091132052E+00  0.14722763876E+03  0.14726289443E+03  0.00000000000E+00 0. -1.
         11    1    1    2    0    0 -0.44920665744E+01  0.13166686916E+01 -0.18166484265E+03  0.18172514227E+03  0.00000000000E+00 0.  1.
        -15    1    1    2    0    0  0.23682160821E+01  0.84384794170E+00  0.21461746157E+02  0.21681439155E+02  0.17770000000E+01 0.  1.
         15    1    1    2    0    0  0.53429504512E+01 -0.23014279538E+01  0.12975457731E+02  0.14330524152E+02  0.17770000000E+01 0.  1.
</event>
<event>
 6    1  0.1298204E-002  0.1866743E+03  0.7546771E-02  0.1065180E+00
        -11   -1    0    0    0    0  0.00000000000E+00  0.00000000000E+00  0.18250000000E+03  0.18250000000E+03  0.00000000000E+00 0. -1.
         11   -1    0    0    0    0 -0.00000000000E+00 -0.00000000000E+00 -0.18250000000E+03  0.18250000000E+03  0.00000000000E+00 0.  1.
        -11    1    1    2    0    0 -0.20989201172E+01  0.19870335699E+01  0.16333046455E+03  0.16335603576E+03  0.00000000000E+00 0. -1.
         11    1    1    2    0    0 -0.23091411060E+01  0.32265338027E+01 -0.17828154874E+03  0.17832569437E+03  0.00000000000E+00 0.  1.
        -15    1    1    2    0    0 -0.18852468786E+01 -0.37426885274E+01 -0.20882285143E+01  0.50080236156E+01  0.17770000000E+01 0. -1.
         15    1    1    2    0    0  0.62933081019E+01 -0.14708788451E+01  0.17039312701E+02  0.18310246251E+02  0.17770000000E+01 0.  1.
</event>
<event>
 6    1  0.1298204E-002  0.1847074E+03  0.7546771E-02  0.1066711E+00
        -11   -1    0    0    0    0  0.00000000000E+00  0.00000000000E+00  0.18250000000E+03  0.18250000000E+03  0.00000000000E+00 0. -1.
         11   -1    0    0    0    0 -0.00000000000E+00 -0.00000000000E+00 -0.18250000000E+03  0.18250000000E+03  0.00000000000E+00 0.  1.
        -11    1    1    2    0    0  0.23353190571E+01 -0.18806076491E+01  0.14847964684E+03  0.14850991861E+03  0.00000000000E+00 0. -1.
         11    1    1    2    0    0 -0.14039906754E+01  0.24885841690E+01 -0.18026990782E+03  0.18029255089E+03  0.00000000000E+00 0.  1.
        -15    1    1    2    0    0 -0.31242230199E+01  0.27124485757E+01  0.31510502926E+02  0.31830609017E+02  0.17770000000E+01 0.  1.
         15    1    1    2    0    0  0.21928946382E+01 -0.33204250956E+01  0.27975805050E+00  0.43669214873E+01  0.17770000000E+01 0.  1.
</event>
<event>
 6    1  0.1298204E-002  0.1826836E+03  0.7546771E-02  0.1068309E+00
        -11   -1    0    0    0    0  0.00000000000E+00  0.00000000000E+00  0.18250000000E+03  0.18250000000E+03  0.00000000000E+00 0. -1.
         11   -1    0    0    0    0 -0.00000000000E+00 -0.00000000000E+00 -0.18250000000E+03  0.18250000000E+03  0.00000000000E+00 0. -1.
        -11    1    1    2    0    0 -0.50223874117E+00  0.49250211283E+00  0.47606813909E+02  0.47612010382E+02  0.00000000000E+00 0. -1.
         11    1    1    2    0    0 -0.20479171743E+01  0.23929367237E+01 -0.18228917553E+03  0.18231638332E+03  0.00000000000E+00 0. -1.
        -15    1    1    2    0    0  0.25124435756E+01 -0.39025648875E+01  0.33324743123E+02  0.33693302281E+02  0.17770000000E+01 0. -1.
         15    1    1    2    0    0  0.37712339820E-01  0.10171260510E+01  0.10135761850E+03  0.10137830401E+03  0.17770000000E+01 0. -1.
</event>
<event>
 6    1  0.1298204E-002  0.1873990E+03  0.7546771E-02  0.1064621E+00
        -11   -1    0    0    0    0  0.00000000000E+00  0.00000000000E+00  0.18250000000E+03  0.18250000000E+03  0.00000000000E+00 0. -1.
         11   -1    0    0    0    0 -0.00000000000E+00 -0.00000000000E+00 -0.18250000000E+03  0.18250000000E+03  0.00000000000E+00 0.  1.
        -11    1    1    2    0    0  0.16268810567E+01 -0.30726172410E+01  0.17756694649E+03  0.17760098031E+03  0.00000000000E+00 0. -1.
         11    1    1    2    0    0  0.11321965704E+02 -0.45774074496E+00 -0.15038762494E+03  0.15081390575E+03  0.00000000000E+00 0.  1.
        -15    1    1    2    0    0 -0.79913514251E+01  0.11416964154E+01 -0.29286346449E+02  0.30430461476E+02  0.17770000000E+01 0.  1.
         15    1    1    2    0    0 -0.49574953361E+01  0.23886615705E+01  0.21070248920E+01  0.61546524680E+01  0.17770000000E+01 0. -1.
</event>
<event>
 6    1  0.1298204E-002  0.1848128E+03  0.7546771E-02  0.1066629E+00
        -11   -1    0    0    0    0  0.00000000000E+00  0.00000000000E+00  0.18250000000E+03  0.18250000000E+03  0.00000000000E+00 0. -1.
         11   -1    0    0    0    0 -0.00000000000E+00 -0.00000000000E+00 -0.18250000000E+03  0.18250000000E+03  0.00000000000E+00 0. -1.
        -11    1    1    2    0    0  0.81843202350E+01  0.12839002124E+01  0.17999668579E+03  0.18018723150E+03  0.00000000000E+00 0. -1.
         11    1    1    2    0    0 -0.35440985112E+00 -0.26884157246E+01 -0.16701226411E+03  0.16703427657E+03  0.00000000000E+00 0. -1.
        -15    1    1    2    0    0 -0.61384343940E+01  0.41306645747E+00 -0.23525100205E+01  0.68222454592E+01  0.17770000000E+01 0. -1.
         15    1    1    2    0    0 -0.16914759899E+01  0.99144905467E+00 -0.10631911660E+02  0.10956246474E+02  0.17770000000E+01 0.  1.
</event>
<event>
 6    1  0.1298204E-002  0.1946149E+03  0.7546771E-02  0.1059201E+00
        -11   -1    0    0    0    0  0.00000000000E+00  0.00000000000E+00  0.18250000000E+03  0.18250000000E+03  0.00000000000E+00 0.  1.
         11   -1    0    0    0    0 -0.00000000000E+00 -0.00000000000E+00 -0.18250000000E+03  0.18250000000E+03  0.00000000000E+00 0. -1.
        -11    1    1    2    0    0 -0.27347172377E+01 -0.16983182226E+01  0.95672336764E+02  0.95726480062E+02  0.00000000000E+00 0.  1.
         11    1    1    2    0    0  0.17037334894E+02  0.22090676088E+00 -0.16953104005E+03  0.17038513174E+03  0.00000000000E+00 0. -1.
        -15    1    1    2    0    0  0.29839559096E+01  0.12025836544E+01  0.80277148239E+02  0.80361237290E+02  0.17770000000E+01 0.  1.
         15    1    1    2    0    0 -0.17286573566E+02  0.27482780724E+00 -0.64184449584E+01  0.18527150905E+02  0.17770000000E+01 0.  1.
</event>
<event>
 6    1  0.1298204E-002  0.1836732E+03  0.7546771E-02  0.1067525E+00
        -11   -1    0    0    0    0  0.00000000000E+00  0.00000000000E+00  0.18250000000E+03  0.18250000000E+03  0.00000000000E+00 0.  1.
         11   -1    0    0    0    0 -0.00000000000E+00 -0.00000000000E+00 -0.18250000000E+03  0.18250000000E+03  0.00000000000E+00 0. -1.
        -11    1    1    2    0    0  0.60976158030E+01  0.43445299221E+01  0.18117215889E+03  0.18132679618E+03  0.00000000000E+00 0.  1.
         11    1    1    2    0    0 -0.19416843785E+01  0.18449719834E+01 -0.12978472649E+03  0.12981236186E+03  0.00000000000E+00 0. -1.
        -15    1    1    2    0    0 -0.54583974753E+01 -0.50740500792E+01 -0.11040437222E+02  0.13438343286E+02  0.17770000000E+01 0.  1.
         15    1    1    2    0    0  0.13024660508E+01 -0.11154518263E+01 -0.40346995173E+02  0.40422498674E+02  0.17770000000E+01 0. -1.
</event>
<event>
 6    1  0.1298204E-002  0.1829947E+03  0.7546771E-02  0.1068062E+00
        -11   -1    0    0    0    0  0.00000000000E+00  0.00000000000E+00  0.18250000000E+03  0.18250000000E+03  0.00000000000E+00 0. -1.
         11   -1    0    0    0    0 -0.00000000000E+00 -0.00000000000E+00 -0.18250000000E+03  0.18250000000E+03  0.00000000000E+00 0. -1.
        -11    1    1    2    0    0  0.11921509907E-01 -0.40690240302E+01  0.18195978372E+03  0.18200527462E+03  0.00000000000E+00 0. -1.
         11    1    1    2    0    0  0.22232011696E+01 -0.88117721184E+00 -0.13558510029E+03  0.13560618908E+03  0.00000000000E+00 0. -1.
        -15    1    1    2    0    0  0.20318105185E+01 -0.30477817491E+00 -0.14843698296E+02  0.15090203836E+02  0.17770000000E+01 0. -1.
         15    1    1    2    0    0 -0.42669331979E+01  0.52549794170E+01 -0.31530985132E+02  0.32298332464E+02  0.17770000000E+01 0.  1.
</event>
<event>
 6    1  0.1298204E-002  0.1914962E+03  0.7546771E-02  0.1061511E+00
        -11   -1    0    0    0    0  0.00000000000E+00  0.00000000000E+00  0.18250000000E+03  0.18250000000E+03  0.00000000000E+00 0.  1.
         11   -1    0    0    0    0 -0.00000000000E+00 -0.00000000000E+00 -0.18250000000E+03  0.18250000000E+03  0.00000000000E+00 0.  1.
        -11    1    1    2    0    0 -0.49020104430E+01  0.27594341251E+02  0.80758409577E+02  0.85483320554E+02  0.00000000000E+00 0.  1.
         11    1    1    2    0    0 -0.12482335590E+01  0.31583417436E+01 -0.17347051303E+03  0.17350375241E+03  0.00000000000E+00 0.  1.
        -15    1    1    2    0    0 -0.88799650598E+01 -0.10690708081E+02  0.51685820823E+01  0.14933753328E+02  0.17770000000E+01 0. -1.
         15    1    1    2    0    0  0.15030209062E+02 -0.20061974914E+02  0.87543521366E+02  0.91079173712E+02  0.17770000000E+01 0.  1.
</event>
<event>
 6    1  0.1298204E-002  0.1828199E+03  0.7546771E-02  0.1068200E+00
        -11   -1    0    0    0    0  0.00000000000E+00  0.00000000000E+00  0.18250000000E+03  0.18250000000E+03  0.00000000000E+00 0.  1.
         11   -1    0    0    0    0 -0.00000000000E+00 -0.00000000000E+00 -0.18250000000E+03  0.18250000000E+03  0.00000000000E+00 0.  1.
        -11    1    1    2    0    0 -0.54593085358E+00 -0.12250065383E+01  0.32280198504E+02  0.32308046938E+02  0.00000000000E+00 0.  1.
         11    1    1    2    0    0 -0.15303985989E+01 -0.28655459026E+01 -0.18215111752E+03  0.18218008422E+03  0.00000000000E+00 0.  1.
        -15    1    1    2    0    0  0.35004321454E+01 -0.80548185952E+00  0.14796926156E+02  0.15329989527E+02  0.17770000000E+01 0. -1.
         15    1    1    2    0    0 -0.14241026930E+01  0.48960343004E+01  0.13507399286E+03  0.13518187932E+03  0.17770000000E+01 0.  1.
</event>
<event>
 6    1  0.1298204E-002  0.1842549E+03  0.7546771E-02  0.1067066E+00
        -11   -1    0    0    0    0  0.00000000000E+00  0.00000000000E+00  0.18250000000E+03  0.18250000000E+03  0.00000000000E+00 0.  1.
         11   -1    0    0    0    0 -0.00000000000E+00 -0.00000000000E+00 -0.18250000000E+03  0.18250000000E+03  0.00000000000E+00 0. -1.
        -11    1    1    2    0    0  0.48190056305E+01 -0.50728713738E+00  0.18068008517E+03  0.18074505065E+03  0.00000000000E+00 0.  1.
         11    1    1    2    0    0 -0.12015636606E+01  0.14239624983E+01 -0.88502889593E+02  0.88522499347E+02  0.00000000000E+00 0. -1.
        -15    1    1    2    0    0 -0.53913465253E+01 -0.33228748395E+01 -0.44618797799E+01  0.79482208528E+01  0.17770000000E+01 0.  1.
         15    1    1    2    0    0  0.17739045555E+01  0.24061994786E+01 -0.87715315799E+02  0.87784229153E+02  0.17770000000E+01 0. -1.
</event>
<event>
 6    1  0.1298204E-002  0.1899168E+03  0.7546771E-02  0.1062700E+00
        -11   -1    0    0    0    0  0.00000000000E+00  0.00000000000E+00  0.18250000000E+03  0.18250000000E+03  0.00000000000E+00 0. -1.
         11   -1    0    0    0    0 -0.00000000000E+00 -0.00000000000E+00 -0.18250000000E+03  0.18250000000E+03  0.00000000000E+00 0.  1.
        -11    1    1    2    0    0 -0.10342381917E+02 -0.82278217293E+01  0.15624692397E+03  0.15680485695E+03  0.00000000000E+00 0. -1.
         11    1    1    2    0    0 -0.53388537497E+01 -0.39862361612E+01 -0.17495639449E+03  0.17508321853E+03  0.00000000000E+00 0.  1.
        -15    1    1    2    0    0  0.57325728147E+01 -0.46934886840E+01  0.50053371104E+01  0.91160493467E+01  0.17770000000E+01 0. -1.
         15    1    1    2    0    0  0.99486628516E+01  0.16907546575E+02  0.13704133414E+02  0.23995875173E+02  0.17770000000E+01 0.  1.
</event>
<event>
 6    1  0.2567997E-002  0.1925182E+03  0.7546771E-02  0.1060749E+00
        -11   -1    0    0    0    0  0.00000000000E+00  0.00000000000E+00  0.18250000000E+03  0.18250000000E+03  0.00000000000E+00 0.  1.
         11   -1    0    0    0    0 -0.00000000000E+00 -0.00000000000E+00 -0.18250000000E+03  0.18250000000E+03  0.00000000000E+00 0.  1.
        -11    1    1    2    0    0 -0.20004405911E+01 -0.86605077426E+01  0.13721700866E+03  0.13750459491E+03  0.00000000000E+00 0.  1.
         11    1    1    2    0    0 -0.17103065965E+01  0.12886434836E+02 -0.17199128033E+03  0.17248184212E+03  0.00000000000E+00 0.  1.
        -15    1    1    2    0    0  0.49709933178E-01  0.65517929162E+01  0.41245229281E+02  0.41800180968E+02  0.17770000000E+01 0. -1.
         15    1    1    2    0    0  0.36610372544E+01 -0.10777720009E+02 -0.64709576104E+01  0.13213381996E+02  0.17770000000E+01 0.  1.
</event>
<event>
 6    1  0.1298204E-002  0.1966266E+03  0.7546771E-02  0.1057735E+00
        -11   -1    0    0    0    0  0.00000000000E+00  0.00000000000E+00  0.18250000000E+03  0.18250000000E+03  0.00000000000E+00 0. -1.
         11   -1    0    0    0    0 -0.00000000000E+00 -0.00000000000E+00 -0.18250000000E+03  0.18250000000E+03  0.00000000000E+00 0. -1.
        -11    1    1    2    0    0 -0.80346372191E+00  0.13915744736E+02  0.10998096110E+03  0.11086074738E+03  0.00000000000E+00 0. -1.
         11    1    1    2    0    0 -0.66324814343E+01 -0.84150277942E+00 -0.16824059987E+03  0.16837338679E+03  0.00000000000E+00 0. -1.
        -15    1    1    2    0    0  0.19609741577E+00 -0.21080114888E+02  0.67940496792E+02  0.71158123438E+02  0.17770000000E+01 0. -1.
         15    1    1    2    0    0  0.72398477404E+01  0.80058729312E+01 -0.96808580223E+01  0.14607742390E+02  0.17770000000E+01 0.  1.
</event>
<event>
 6    1  0.1298204E-002  0.1881693E+03  0.7546771E-02  0.1064030E+00
        -11   -1    0    0    0    0  0.00000000000E+00  0.00000000000E+00  0.18250000000E+03  0.18250000000E+03  0.00000000000E+00 0.  1.
         11   -1    0    0    0    0 -0.00000000000E+00 -0.00000000000E+00 -0.18250000000E+03  0.18250000000E+03  0.00000000000E+00 0.  1.
        -11    1    1    2    0    0 -0.47959078923E+01  0.80898537020E+00  0.17676382755E+03  0.17683072674E+03  0.00000000000E+00 0.  1.
         11    1    1    2    0    0  0.16889122928E+01 -0.17146141699E+01 -0.14589632820E+03  0.14591617768E+03  0.00000000000E+00 0.  1.
        -15    1    1    2    0    0  0.38763220394E-01 -0.30009115681E+01 -0.35233138009E+02  0.35405348689E+02  0.17770000000E+01 0. -1.
         15    1    1    2    0    0  0.30682323791E+01  0.39065403678E+01  0.43656386598E+01  0.68477468912E+01  0.17770000000E+01 0.  1.
</event>
<event>
 6    1  0.1298204E-002  0.1723176E+03  0.7546771E-02  0.1076862E+00
        -11   -1    0    0    0    0  0.00000000000E+00  0.00000000000E+00  0.18250000000E+03  0.18250000000E+03  0.00000000000E+00 0. -1.
         11   -1    0    0    0    0 -0.00000000000E+00 -0.00000000000E+00 -0.18250000000E+03  0.18250000000E+03  0.00000000000E+00 0.  1.
        -11    1    1    2    0    0 -0.12191156267E+02 -0.25369669603E+01  0.17084872281E+03  0.17130191645E+03  0.00000000000E+00 0. -1.
         11    1    1    2    0    0 -0.25027448377E+01 -0.19157709050E+00 -0.17365035207E+03  0.17366849227E+03  0.00000000000E+00 0.  1.
        -15    1    1    2    0    0  0.11489230286E+02  0.44566653701E+01  0.69265771702E+01  0.14247788568E+02  0.17770000000E+01 0.  1.
         15    1    1    2    0    0  0.32046708189E+01 -0.17281213193E+01 -0.41249479060E+01  0.57818027102E+01  0.17770000000E+01 0. -1.
</event>
<event>
 6    1  0.1298204E-002  0.1853935E+03  0.7546771E-02  0.1066175E+00
        -11   -1    0    0    0    0  0.00000000000E+00  0.00000000000E+00  0.18250000000E+03  0.18250000000E+03  0.00000000000E+00 0. -1.
         11   -1    0    0    0    0 -0.00000000000E+00 -0.00000000000E+00 -0.18250000000E+03  0.18250000000E+03  0.00000000000E+00 0.  1.
        -11    1    1    2    0    0 -0.43391161236E+01 -0.10262687150E+01  0.17955119038E+03  0.17960654532E+03  0.00000000000E+00 0. -1.
         11    1    1    2    0    0 -0.35449397214E+01  0.96290933809E+01 -0.86983919240E+02  0.87587032392E+02  0.00000000000E+00 0.  1.
        -15    1    1    2    0    0 -0.18327946081E+01  0.62560377958E+01 -0.49119955619E+01  0.83535964936E+01  0.17770000000E+01 0. -1.
         15    1    1    2    0    0  0.97168504531E+01 -0.14858862462E+02 -0.87655275578E+02  0.89452825791E+02  0.17770000000E+01 0.  1.
</event>
<event>
 6    1  0.1298204E-002  0.1858432E+03  0.7546771E-02  0.1065824E+00
        -11   -1    0    0    0    0  0.00000000000E+00  0.00000000000E+00  0.18250000000E+03  0.18250000000E+03  0.00000000000E+00 0. -1.
         11   -1    0    0    0    0 -0.00000000000E+00 -0.00000000000E+00 -0.18250000000E+03  0.18250000000E+03  0.00000000000E+00 0.  1.
        -11    1    1    2    0    0  0.48301810931E+01 -0.12335859987E+01  0.17908744033E+03  0.17915681306E+03  0.00000000000E+00 0. -1.
         11    1    1    2    0    0  0.71739689565E+01  0.27590201180E+01 -0.15913888403E+03  0.15932439372E+03  0.00000000000E+00 0.  1.
        -15    1    1    2    0    0 -0.69416975606E+01 -0.20570327947E+01 -0.19156462875E+01  0.76971409393E+01  0.17770000000E+01 0. -1.
         15    1    1    2    0    0 -0.50624524890E+01  0.53159867540E+00 -0.18032910004E+02  0.18821652280E+02  0.17770000000E+01 0.  1.
</event>
<event>
 6    1  0.1298204E-002  0.1829669E+03  0.7546771E-02  0.1068084E+00
        -11   -1    0    0    0    0  0.00000000000E+00  0.00000000000E+00  0.18250000000E+03  0.18250000000E+03  0.00000000000E+00 0. -1.
         11   -1    0    0    0    0 -0.00000000000E+00 -0.00000000000E+00 -0.18250000000E+03  0.18250000000E+03  0.00000000000E+00 0.  1.
        -11    1    1    2    0    0 -0.56388774193E+01 -0.65649645197E+01  0.18182728714E+03  0.18203312349E+03  0.00000000000E+00 0. -1.
         11    1    1    2    0    0  0.29555985399E+01  0.35639678732E+01 -0.63218488603E+02  0.63387812165E+02  0.00000000000E+00 0.  1.
        -15    1    1    2    0    0  0.40658670590E+01  0.13322396660E+01 -0.11026241967E+02  0.11960011638E+02  0.17770000000E+01 0. -1.
         15    1    1    2    0    0 -0.13825881796E+01  0.16687569805E+01 -0.10758255657E+03  0.10761905271E+03  0.17770000000E+01 0.  1.
</event>
<event>
 6    1  0.1298204E-002  0.1841419E+03  0.7546771E-02  0.1067155E+00
        -11   -1    0    0    0    0  0.00000000000E+00  0.00000000000E+00  0.18250000000E+03  0.18250000000E+03  0.00000000000E+00 0.  1.
         11   -1    0    0    0    0 -0.00000000000E+00 -0.00000000000E+00 -0.18250000000E+03  0.18250000000E+03  0.00000000000E+00 0. -1.
        -11    1    1    2    0    0  0.38508990701E+01 -0.16103990298E+01  0.18080997448E+03  0.18085814795E+03  0.00000000000E+00 0.  1.
         11    1    1    2    0    0  0.28826665451E+01 -0.98255024532E+00 -0.16586811102E+03  0.16589606814E+03  0.00000000000E+00 0. -1.
        -15    1    1    2    0    0  0.60690376291E+00 -0.72673578201E+00 -0.45632018467E+01  0.49876865547E+01  0.17770000000E+01 0.  1.
         15    1    1    2    0    0 -0.73404693781E+01  0.33196850572E+01 -0.10378661616E+02  0.13258097357E+02  0.17770000000E+01 0.  1.
</event>
<event>
 6    1  0.1298204E-002  0.1880011E+03  0.7546771E-02  0.1064158E+00
        -11   -1    0    0    0    0  0.00000000000E+00  0.00000000000E+00  0.18250000000E+03  0.18250000000E+03  0.00000000000E+00 0. -1.
         11   -1    0    0    0    0 -0.00000000000E+00 -0.00000000000E+00 -0.18250000000E+03  0.18250000000E+03  0.00000000000E+00 0.  1.
        -11    1    1    2    0    0  0.35400104299E+01 -0.21055498184E+01  0.17695098704E+03  0.17699891759E+03  0.00000000000E+00 0. -1.
         11    1    1    2    0    0 -0.37097950598E+01  0.14923911458E+02 -0.14881978511E+03  0.14961221258E+03  0.00000000000E+00 0.  1.
        -15    1    1    2    0    0  0.12014615681E+01  0.53961898274E+01 -0.13942255669E+01  0.59719317214E+01  0.17770000000E+01 0.  1.
         15    1    1    2    0    0 -0.10316769383E+01 -0.18214551467E+02 -0.26736976365E+02  0.32416938113E+02  0.17770000000E+01 0. -1.
</event>
<event>
 6    1  0.1298204E-002  0.1915687E+03  0.7546771E-02  0.1061457E+00
        -11   -1    0    0    0    0  0.00000000000E+00  0.00000000000E+00  0.18250000000E+03  0.18250000000E+03  0.00000000000E+00 0. -1.
         11   -1    0    0    0    0 -0.00000000000E+00 -0.00000000000E+00 -0.18250000000E+03  0.18250000000E+03  0.00000000000E+00 0. -1.
        -11    1    1    2    0    0 -0.40691306799E+01 -0.38946077350E+01  0.16059608273E+03  0.16069482749E+03  0.00000000000E+00 0. -1.
         11    1    1    2    0    0  0.61784711920E+01  0.81067984898E+01 -0.17313153978E+03  0.17343132288E+03  0.00000000000E+00 0. -1.
        -15    1    1    2    0    0 -0.39173787835E+01 -0.14201765708E+02  0.25414439328E+00  0.14841102524E+02  0.17770000000E+01 0.  1.
         15    1    1    2    0    0  0.18080382714E+01  0.99895749529E+01  0.12281312657E+02  0.16032747104E+02  0.17770000000E+01 0. -1.
</event>
<event>
 6    1  0.1298204E-002  0.1889597E+03  0.7546771E-02  0.1063426E+00
        -11   -1    0    0    0    0  0.00000000000E+00  0.00000000000E+00  0.18250000000E+03  0.18250000000E+03  0.00000000000E+00 0. -1.
         11   -1    0    0    0    0 -0.00000000000E+00 -0.00000000000E+00 -0.18250000000E+03  0.18250000000E+03  0.00000000000E+00 0. -1.
        -11    1    1    2    0    0  0.39791844690E+01  0.35812399467E+01  0.17595892779E+03  0.17604034611E+03  0.00000000000E+00 0. -1.
         11    1    1    2    0    0  0.27530211502E+01 -0.92778972179E+00 -0.16817318999E+03  0.16819828106E+03  0.00000000000E+00 0. -1.
        -15    1    1    2    0    0  0.44007158772E+01  0.39399451621E+01 -0.29149145575E+01  0.68223107515E+01  0.17770000000E+01 0. -1.
         15    1    1    2    0    0 -0.11132921496E+02 -0.65933953871E+01 -0.48708232402E+01  0.13939062085E+02  0.17770000000E+01 0.  1.
</event>
<event>
 6    1  0.1298204E-002  0.1832440E+03  0.7546771E-02  0.1067864E+00
        -11   -1    0    0    0    0  0.00000000000E+00  0.00000000000E+00  0.18250000000E+03  0.18250000000E+03  0.00000000000E+00 0.  1.
         11   -1    0    0    0    0 -0.00000000000E+00 -0.00000000000E+00 -0.18250000000E+03  0.18250000000E+03  0.00000000000E+00 0.  1.
        -11    1    1    2    0    0  0.57886895435E+01  0.36149563950E+01  0.18162777935E+03  0.18175595470E+03  0.00000000000E+00 0.  1.
         11    1    1    2    0    0  0.26014209618E+01  0.33249219222E+01 -0.11202817683E+03  0.11210769332E+03  0.00000000000E+00 0.  1.
        -15    1    1    2    0    0  0.15615508020E+01 -0.25573173154E+01 -0.22294534260E+02  0.22565068128E+02  0.17770000000E+01 0.  1.
         15    1    1    2    0    0 -0.99516613072E+01 -0.43825610019E+01 -0.47305068254E+02  0.48571283854E+02  0.17770000000E+01 0. -1.
</event>
<event>
 6    1  0.1298204E-002  0.1857357E+03  0.7546771E-02  0.1065908E+00
        -11   -1    0    0    0    0  0.00000000000E+00  0.00000000000E+00  0.18250000000E+03  0.18250000000E+03  0.00000000000E+00 0. -1.
         11   -1    0    0    0    0 -0.00000000000E+00 -0.00000000000E+00 -0.18250000000E+03  0.18250000000E+03  0.00000000000E+00 0. -1.
        -11    1    1    2    0    0 -0.27124363652E+01 -0.45407330274E+00  0.14130627384E+03  0.14133303408E+03  0.00000000000E+00 0. -1.
         11    1    1    2    0    0 -0.87059128940E+01 -0.57758168203E+01 -0.17895962275E+03  0.17926432873E+03  0.00000000000E+00 0. -1.
        -15    1    1    2    0    0  0.92375825116E+01  0.41536134325E+01  0.47729206416E+01  0.11336839756E+02  0.17770000000E+01 0.  1.
         15    1    1    2    0    0  0.21807667476E+01  0.20762766906E+01  0.32880428265E+02  0.33065797441E+02  0.17770000000E+01 0.  1.
</event>
<event>
 6    1  0.1298204E-002  0.1838070E+03  0.7546771E-02  0.1067419E+00
        -11   -1    0    0    0    0  0.00000000000E+00  0.00000000000E+00  0.18250000000E+03  0.18250000000E+03  0.00000000000E+00 0. -1.
         11   -1    0    0    0    0 -0.00000000000E+00 -0.00000000000E+00 -0.18250000000E+03  0.18250000000E+03  0.00000000000E+00 0. -1.
        -11    1    1    2    0    0 -0.66035226137E+01  0.26914425145E+01  0.18105265125E+03  0.18119302663E+03  0.00000000000E+00 0. -1.
         11    1    1    2    0    0  0.10411137947E+01 -0.37047249512E+01 -0.15624302261E+03  0.15629040604E+03  0.00000000000E+00 0. -1.
        -15    1    1    2    0    0  0.83110411594E+01  0.43629565567E+00 -0.16459645371E+02  0.18529474191E+02  0.17770000000E+01 0.  1.
         15    1    1    2    0    0 -0.27486323404E+01  0.57698678100E+00 -0.83499832688E+01  0.89870931383E+01  0.17770000000E+01 0. -1.
</event>
<event>
 6    1  0.1298204E-002  0.1875937E+03  0.7546771E-02  0.1064471E+00
        -11   -1    0    0    0    0  0.00000000000E+00  0.00000000000E+00  0.18250000000E+03  0.18250000000E+03  0.00000000000E+00 0. -1.
         11   -1    0    0    0    0 -0.00000000000E+00 -0.00000000000E+00 -0.18250000000E+03  0.18250000000E+03  0.00000000000E+00 0. -1.
        -11    1    1    2    0    0  0.17204482466E+01 -0.91493342531E+00  0.12860121178E+03  0.12861597380E+03  0.00000000000E+00 0. -1.
         11    1    1    2    0    0  0.60532432870E+01  0.32596225848E+01 -0.17727303703E+03  0.17740630358E+03  0.00000000000E+00 0. -1.
        -15    1    1    2    0    0 -0.51742684076E+01 -0.11167076348E+01 -0.35695215820E+01  0.66271640103E+01  0.17770000000E+01 0. -1.
         15    1    1    2    0    0 -0.25994231260E+01 -0.12279815246E+01  0.52241346833E+02  0.52350558613E+02  0.17770000000E+01 0. -1.
</event>
<event>
 6    1  0.1298204E-002  0.1831769E+03  0.7546771E-02  0.1067917E+00
        -11   -1    0    0    0    0  0.00000000000E+00  0.00000000000E+00  0.18250000000E+03  0.18250000000E+03  0.00000000000E+00 0.  1.
         11   -1    0    0    0    0 -0.00000000000E+00 -0.00000000000E+00 -0.18250000000E+03  0.18250000000E+03  0.00000000000E+00 0.  1.
        -11    1    1    2    0    0  0.26406256769E+01  0.13669781116E+00  0.16058216976E+03  0.16060393779E+03  0.00000000000E+00 0.  1.
         11    1    1    2    0    0 -0.39117778063E+01 -0.13387016168E+01 -0.18177608937E+03  0.18182310302E+03  0.00000000000E+00 0.  1.
        -15    1    1    2    0    0  0.26986465556E+01 -0.65956131087E+00  0.17700793478E+02  0.18005375118E+02  0.17770000000E+01 0. -1.
         15    1    1    2    0    0 -0.14274944262E+01  0.18615651165E+01  0.34931261312E+01  0.45675840647E+01  0.17770000000E+01 0. -1.
</event>
<event>
 6    1  0.1298204E-002  0.1838320E+03  0.7546771E-02  0.1067399E+00
        -11   -1    0    0    0    0  0.00000000000E+00  0.00000000000E+00  0.18250000000E+03  0.18250000000E+03  0.00000000000E+00 0.  1.
         11   -1    0    0    0    0 -0.00000000000E+00 -0.00000000000E+00 -0.18250000000E+03  0.18250000000E+03  0.00000000000E+00 0.  1.
        -11    1    1    2    0    0 -0.29439240335E+01  0.25953008353E+00  0.18114389978E+03  0.18116800621E+03  0.00000000000E+00 0.  1.
         11    1    1    2    0    0 -0.40111501476E+00  0.24035637120E+01 -0.16665048317E+03  0.16666829798E+03  0.00000000000E+00 0.  1.
        -15    1    1    2    0    0  0.11389420460E+01 -0.35826806841E+01 -0.13334615117E+02  0.13967908906E+02  0.17770000000E+01 0.  1.
         15    1    1    2    0    0  0.22060970023E+01  0.91958688853E+00 -0.11588015020E+01  0.31957869063E+01  0.17770000000E+01 0. -1.
</event>
<event>
 6    1  0.1298204E-002  0.1828204E+03  0.7546771E-02  0.1068200E+00
        -11   -1    0    0    0    0  0.00000000000E+00  0.00000000000E+00  0.18250000000E+03  0.18250000000E+03  0.00000000000E+00 0. -1.
         11   -1    0    0    0    0 -0.00000000000E+00 -0.00000000000E+00 -0.18250000000E+03  0.18250000000E+03  0.00000000000E+00 0. -1.
        -11    1    1    2    0    0  0.26569053020E+00 -0.31842018795E+01  0.18215154597E+03  0.18217956919E+03  0.00000000000E+00 0. -1.
         11    1    1    2    0    0  0.68733829792E+00  0.16853651340E+01 -0.93106449892E+02  0.93124239063E+02  0.00000000000E+00 0. -1.
        -15    1    1    2    0    0  0.57300202932E+00 -0.25053256131E+01 -0.91933288724E+01  0.97097895193E+01  0.17770000000E+01 0. -1.
         15    1    1    2    0    0 -0.15260308574E+01  0.40041623586E+01 -0.79851767203E+02  0.79986402225E+02  0.17770000000E+01 0.  1.
</event>
<event>
 6    1  0.1298204E-002  0.1828371E+03  0.7546771E-02  0.1068187E+00
        -11   -1    0    0    0    0  0.00000000000E+00  0.00000000000E+00  0.18250000000E+03  0.18250000000E+03  0.00000000000E+00 0. -1.
         11   -1    0    0    0    0 -0.00000000000E+00 -0.00000000000E+00 -0.18250000000E+03  0.18250000000E+03  0.00000000000E+00 0.  1.
        -11    1    1    2    0    0 -0.41387447291E+00  0.43389658398E+00  0.42036988918E+02  0.42041265390E+02  0.00000000000E+00 0. -1.
         11    1    1    2    0    0 -0.75900258163E+00  0.28482597983E+01 -0.18213908270E+03  0.18216293288E+03  0.00000000000E+00 0.  1.
        -15    1    1    2    0    0  0.11913410031E+01 -0.24717331128E+01  0.13751678880E+03  0.13755563852E+03  0.17770000000E+01 0. -1.
         15    1    1    2    0    0 -0.18463948548E-01 -0.81042326946E+00  0.25853049755E+01  0.32401632072E+01  0.17770000000E+01 0. -1.
</event>
<event>
 6    1  0.1298204E-002  0.1863806E+03  0.7546771E-02  0.1065407E+00
        -11   -1    0    0    0    0  0.00000000000E+00  0.00000000000E+00  0.18250000000E+03  0.18250000000E+03  0.00000000000E+00 0.  1.
         11   -1    0    0    0    0 -0.00000000000E+00 -0.00000000000E+00 -0.18250000000E+03  0.18250000000E+03  0.00000000000E+00 0. -1.
        -11    1    1    2    0    0  0.33063969946E+01 -0.37663461044E+01  0.14865209769E+03  0.14873655829E+03  0.00000000000E+00 0.  1.
         11    1    1    2    0    0 -0.25099573896E+01  0.28770740807E+01 -0.17857855890E+03  0.17861936944E+03  0.00000000000E+00 0. -1.
        -15    1    1    2    0    0  0.86805747256E-01 -0.36401406113E+01 -0.25539260156E+01  0.47894076879E+01  0.17770000000E+01 0. -1.
         15    1    1    2    0    0 -0.88324535231E+00  0.45294126350E+01  0.32480387227E+02  0.32854664579E+02  0.17770000000E+01 0.  1.
</event>
<event>
 6    1  0.1298204E-002  0.1851448E+03  0.7546771E-02  0.1066369E+00
        -11   -1    0    0    0    0  0.00000000000E+00  0.00000000000E+00  0.18250000000E+03  0.18250000000E+03  0.00000000000E+00 0. -1.
         11   -1    0    0    0    0 -0.00000000000E+00 -0.00000000000E+00 -0.18250000000E+03  0.18250000000E+03  0.00000000000E+00 0. -1.
        -11    1    1    2    0    0  0.52204571280E+01  0.55281754246E+01  0.16023382131E+03  0.16041412465E+03  0.00000000000E+00 0. -1.
         11    1    1    2    0    0 -0.72885941292E+01  0.59161886090E+01 -0.17961003984E+03  0.17985519538E+03  0.00000000000E+00 0. -1.
        -15    1    1    2    0    0 -0.15059224002E+01 -0.56848859698E+01  0.15609744512E+02  0.16775207405E+02  0.17770000000E+01 0. -1.
         15    1    1    2    0    0  0.35740594014E+01 -0.57594780638E+01  0.37664740190E+01  0.79554725635E+01  0.17770000000E+01 0.  1.
</event>
<event>
 6    1  0.1298204E-002  0.1876067E+03  0.7546771E-02  0.1064461E+00
        -11   -1    0    0    0    0  0.00000000000E+00  0.00000000000E+00  0.18250000000E+03  0.18250000000E+03  0.00000000000E+00 0. -1.
         11   -1    0    0    0    0 -0.00000000000E+00 -0.00000000000E+00 -0.18250000000E+03  0.18250000000E+03  0.00000000000E+00 0.  1.
        -11    1    1    2    0    0  0.22500329788E+01  0.40327488479E-01  0.13940780772E+03  0.13942597007E+03  0.00000000000E+00 0. -1.
         11    1    1    2    0    0  0.25026386325E+02 -0.54002806261E+01 -0.17553608261E+03  0.17739334639E+03  0.00000000000E+00 0.  1.
        -15    1    1    2    0    0 -0.26401216435E+02  0.80107278624E+01  0.27745662634E+02  0.39168552617E+02  0.17770000000E+01 0. -1.
         15    1    1    2    0    0 -0.87520286826E+00 -0.26507747248E+01  0.83826122535E+01  0.90121309297E+01  0.17770000000E+01 0.  1.
</event>
<event>
 6    1  0.1298204E-002  0.1871444E+03  0.7546771E-02  0.1064817E+00
        -11   -1    0    0    0    0  0.00000000000E+00  0.00000000000E+00  0.18250000000E+03  0.18250000000E+03  0.00000000000E+00 0.  1.
         11   -1    0    0    0    0 -0.00000000000E+00 -0.00000000000E+00 -0.18250000000E+03  0.18250000000E+03  0.00000000000E+00 0.  1.
        -11    1    1    2    0    0  0.66132638602E+01 -0.72611609177E+01  0.17758422683E+03  0.17785560811E+03  0.00000000000E+00 0.  1.
         11    1    1    2    0    0 -0.59313942365E+00 -0.33172395624E+01 -0.12655187258E+03  0.12659673119E+03  0.00000000000E+00 0.  1.
        -15    1    1    2    0    0 -0.57376976005E+01  0.16306312796E+02 -0.12148082678E+02  0.21202609568E+02  0.17770000000E+01 0.  1.
         15    1    1    2    0    0 -0.28242683606E+00 -0.57279123163E+01 -0.38884271569E+02  0.39345051136E+02  0.17770000000E+01 0.  1.
</event>
<event>
 6    1  0.1298204E-002  0.1855430E+03  0.7546771E-02  0.1066058E+00
        -11   -1    0    0    0    0  0.00000000000E+00  0.00000000000E+00  0.18250000000E+03  0.18250000000E+03  0.00000000000E+00 0. -1.
         11   -1    0    0    0    0 -0.00000000000E+00 -0.00000000000E+00 -0.18250000000E+03  0.18250000000E+03  0.00000000000E+00 0. -1.
        -11    1    1    2    0    0  0.11318966482E+00 -0.25227148049E+01  0.17327003081E+03  0.17328843146E+03  0.00000000000E+00 0. -1.
         11    1    1    2    0    0  0.37242558647E+00  0.26029201919E+01 -0.17943771346E+03  0.17945697787E+03  0.00000000000E+00 0. -1.
        -15    1    1    2    0    0 -0.21939603745E+00 -0.87799241532E+00 -0.25957602920E+01  0.32733325214E+01  0.17770000000E+01 0. -1.
         15    1    1    2    0    0 -0.26621921384E+00  0.79778702828E+00  0.87634429412E+01  0.89812581522E+01  0.17770000000E+01 0.  1.
</event>
<event>
 6    1  0.1298204E-002  0.1829131E+03  0.7546771E-02  0.1068126E+00
        -11   -1    0    0    0    0  0.00000000000E+00  0.00000000000E+00  0.18250000000E+03  0.18250000000E+03  0.00000000000E+00 0. -1.
         11   -1    0    0    0    0 -0.00000000000E+00 -0.00000000000E+00 -0.18250000000E+03  0.18250000000E+03  0.00000000000E+00 0.  1.
        -11    1    1    2    0    0 -0.37894778777E+01  0.70388795982E+01  0.18191136642E+03  0.18208693309E+03  0.00000000000E+00 0. -1.
         11    1    1    2    0    0 -0.52765349652E+00 -0.11304849877E+00 -0.85295471674E+01  0.85466000876E+01  0.00000000000E+00 0.  1.
        -15    1    1    2    0    0  0.23491640538E+01 -0.49040646481E+01 -0.16765013050E+02  0.17714169848E+02  0.17770000000E+01 0. -1.
         15    1    1    2    0    0  0.19679673204E+01 -0.20217664513E+01 -0.15661680620E+03  0.15665229698E+03  0.17770000000E+01 0.  1.
</event>
<event>
 6    1  0.1298204E-002  0.1865511E+03  0.7546771E-02  0.1065275E+00
        -11   -1    0    0    0    0  0.00000000000E+00  0.00000000000E+00  0.18250000000E+03  0.18250000000E+03  0.00000000000E+00 0. -1.
         11   -1    0    0    0    0 -0.00000000000E+00 -0.00000000000E+00 -0.18250000000E+03  0.18250000000E+03  0.00000000000E+00 0.  1.
        -11    1    1    2    0    0 -0.12815999688E+01 -0.82388635304E+01  0.15079365930E+03  0.15102400159E+03  0.00000000000E+00 0. -1.
         11    1    1    2    0    0  0.23484887131E+00  0.30649914935E+01 -0.17842238732E+03  0.17844886557E+03  0.00000000000E+00 0.  1.
        -15    1    1    2    0    0  0.57764700228E+01 -0.37593095199E+00 -0.81499400841E+00  0.61098996914E+01  0.17770000000E+01 0. -1.
         15    1    1    2    0    0 -0.47297189253E+01  0.55498029889E+01  0.28443722030E+02  0.29417233151E+02  0.17770000000E+01 0.  1.
</event>
<event>
 6    1  0.1298204E-002  0.1831551E+03  0.7546771E-02  0.1067935E+00
        -11   -1    0    0    0    0  0.00000000000E+00  0.00000000000E+00  0.18250000000E+03  0.18250000000E+03  0.00000000000E+00 0.  1.
         11   -1    0    0    0    0 -0.00000000000E+00 -0.00000000000E+00 -0.18250000000E+03  0.18250000000E+03  0.00000000000E+00 0.  1.
        -11    1    1    2    0    0 -0.89877749841E+00 -0.58863593927E+01  0.12665087952E+03  0.12679078165E+03  0.00000000000E+00 0.  1.
         11    1    1    2    0    0 -0.25222946592E+01 -0.62268692867E+00 -0.18182635844E+03  0.18184491836E+03  0.00000000000E+00 0.  1.
        -15    1    1    2    0    0 -0.18582040013E+01  0.14841147077E+01  0.28494338823E+02  0.28648570515E+02  0.17770000000E+01 0.  1.
         15    1    1    2    0    0  0.52792761589E+01  0.50249316136E+01  0.26681140098E+02  0.27715729477E+02  0.17770000000E+01 0. -1.
</event>
<event>
 6    1  0.1298204E-002  0.1846048E+03  0.7546771E-02  0.1066792E+00
        -11   -1    0    0    0    0  0.00000000000E+00  0.00000000000E+00  0.18250000000E+03  0.18250000000E+03  0.00000000000E+00 0. -1.
         11   -1    0    0    0    0 -0.00000000000E+00 -0.00000000000E+00 -0.18250000000E+03  0.18250000000E+03  0.00000000000E+00 0.  1.
        -11    1    1    2    0    0  0.28392146516E+01 -0.16848324255E+01  0.17346635747E+03  0.17349777225E+03  0.00000000000E+00 0. -1.
         11    1    1    2    0    0 -0.80260555644E+00  0.51644606995E+01 -0.18031951880E+03  0.18039524576E+03  0.00000000000E+00 0.  1.
        -15    1    1    2    0    0 -0.40411746874E+01 -0.36707465079E+00  0.47430335800E+01  0.64899871490E+01  0.17770000000E+01 0. -1.
         15    1    1    2    0    0  0.20045655922E+01 -0.31125536232E+01  0.21101277519E+01  0.46169948451E+01  0.17770000000E+01 0.  1.
</event>
<event>
 6    1  0.1298204E-002  0.1877354E+03  0.7546771E-02  0.1064362E+00
        -11   -1    0    0    0    0  0.00000000000E+00  0.00000000000E+00  0.18250000000E+03  0.18250000000E+03  0.00000000000E+00 0. -1.
         11   -1    0    0    0    0 -0.00000000000E+00 -0.00000000000E+00 -0.18250000000E+03  0.18250000000E+03  0.00000000000E+00 0. -1.
        -11    1    1    2    0    0  0.29408756638E+01  0.24287001288E+01  0.16713387572E+03  0.16717739006E+03  0.00000000000E+00 0. -1.
         11    1    1    2    0    0  0.21770814472E+01 -0.33531292462E+01 -0.17721952185E+03  0.17726461035E+03  0.00000000000E+00 0. -1.
        -15    1    1    2    0    0 -0.68224299627E+01  0.78453864412E+01  0.64255595785E+01  0.12350756410E+02  0.17770000000E+01 0.  1.
         15    1    1    2    0    0  0.17044728518E+01 -0.69209573237E+01  0.36600865484E+01  0.82072431743E+01  0.17770000000E+01 0. -1.
</event>
<event>
 6    1  0.1298204E-002  0.1832688E+03  0.7546771E-02  0.1067844E+00
        -11   -1    0    0    0    0  0.00000000000E+00  0.00000000000E+00  0.18250000000E+03  0.18250000000E+03  0.00000000000E+00 0. -1.
         11   -1    0    0    0    0 -0.00000000000E+00 -0.00000000000E+00 -0.18250000000E+03  0.18250000000E+03  0.00000000000E+00 0. -1.
        -11    1    1    2    0    0  0.20080770438E+01  0.16607302586E+01  0.18171250639E+03  0.18173118989E+03  0.00000000000E+00 0. -1.
         11    1    1    2    0    0 -0.14059286505E+01  0.23416853701E+01 -0.15630010394E+03  0.15632396687E+03  0.00000000000E+00 0. -1.
        -15    1    1    2    0    0  0.22433063362E+01  0.48174561462E+00 -0.13116064939E+02  0.13433294109E+02  0.17770000000E+01 0. -1.
         15    1    1    2    0    0 -0.28454547296E+01 -0.44841612433E+01 -0.12296337516E+02  0.13511549133E+02  0.17770000000E+01 0.  1.
</event>
<event>
 6    1  0.1298204E-002  0.1834057E+03  0.7546771E-02  0.1067736E+00
        -11   -1    0    0    0    0  0.00000000000E+00  0.00000000000E+00  0.18250000000E+03  0.18250000000E+03  0.00000000000E+00 0. -1.
         11   -1    0    0    0    0 -0.00000000000E+00 -0.00000000000E+00 -0.18250000000E+03  0.18250000000E+03  0.00000000000E+00 0.  1.
        -11    1    1    2    0    0 -0.32857039240E+01  0.30380014632E+01  0.18153911326E+03  0.18159425912E+03  0.00000000000E+00 0. -1.
         11    1    1    2    0    0 -0.25506944462E+01  0.24553930327E+01 -0.11381762092E+03  0.11387267376E+03  0.00000000000E+00 0.  1.
        -15    1    1    2    0    0  0.95199229756E+01 -0.36047353331E+01 -0.56570195590E+02  0.57506241473E+02  0.17770000000E+01 0.  1.
         15    1    1    2    0    0 -0.36835246053E+01 -0.18886591628E+01 -0.11151296750E+02  0.12026825648E+02  0.17770000000E+01 0. -1.
</event>
<event>
 6    1  0.1298204E-002  0.1785795E+03  0.7546771E-02  0.1071619E+00
        -11   -1    0    0    0    0  0.00000000000E+00  0.00000000000E+00  0.18250000000E+03  0.18250000000E+03  0.00000000000E+00 0. -1.
         11   -1    0    0    0    0 -0.00000000000E+00 -0.00000000000E+00 -0.18250000000E+03  0.18250000000E+03  0.00000000000E+00 0. -1.
        -11    1    1    2    0    0 -0.23604311002E+01  0.95796559163E+00  0.17980659063E+03  0.17982463504E+03  0.00000000000E+00 0. -1.
         11    1    1    2    0    0 -0.28197174165E+01  0.20183634985E+01 -0.17735887504E+03  0.17739277086E+03  0.00000000000E+00 0. -1.
        -15    1    1    2    0    0  0.41431458977E+01 -0.14507804759E+01 -0.99938902628E+00  0.48401373271E+01  0.17770000000E+01 0. -1.
         15    1    1    2    0    0  0.10370026190E+01 -0.15255486142E+01 -0.14483265672E+01  0.29424567714E+01  0.17770000000E+01 0.  1.
</event>
<event>
 6    1  0.1298204E-002  0.1827509E+03  0.7546771E-02  0.1068255E+00
        -11   -1    0    0    0    0  0.00000000000E+00  0.00000000000E+00  0.18250000000E+03  0.18250000000E+03  0.00000000000E+00 0. -1.
         11   -1    0    0    0    0 -0.00000000000E+00 -0.00000000000E+00 -0.18250000000E+03  0.18250000000E+03  0.00000000000E+00 0. -1.
        -11    1    1    2    0    0  0.37349718783E+00  0.45881102046E+00  0.41400468596E+02  0.41404695479E+02  0.00000000000E+00 0. -1.
         11    1    1    2    0    0  0.33970946102E+01 -0.36345222984E+01 -0.18218116641E+03  0.18224908065E+03  0.00000000000E+00 0. -1.
        -15    1    1    2    0    0  0.35692063299E+01  0.44415914665E+00  0.69257318714E+02  0.69373413031E+02  0.17770000000E+01 0. -1.
         15    1    1    2    0    0 -0.73397981279E+01  0.27315521313E+01  0.71523379098E+02  0.71972810840E+02  0.17770000000E+01 0.  1.
</event>
<event>
 6    1  0.1298204E-002  0.1834293E+03  0.7546771E-02  0.1067717E+00
        -11   -1    0    0    0    0  0.00000000000E+00  0.00000000000E+00  0.18250000000E+03  0.18250000000E+03  0.00000000000E+00 0. -1.
         11   -1    0    0    0    0 -0.00000000000E+00 -0.00000000000E+00 -0.18250000000E+03  0.18250000000E+03  0.00000000000E+00 0.  1.
        -11    1    1    2    0    0  0.10683214908E+01  0.35449294838E+01  0.18153296678E+03  0.18157071863E+03  0.00000000000E+00 0. -1.
         11    1    1    2    0    0  0.19426995631E-01 -0.40446709199E+01 -0.17428572559E+03  0.17433265295E+03  0.00000000000E+00 0.  1.
        -15    1    1    2    0    0  0.87964692364E+00  0.56369642243E+00 -0.56180159442E+01  0.59842597300E+01  0.17770000000E+01 0. -1.
         15    1    1    2    0    0 -0.19673954101E+01 -0.63954986321E-01 -0.16292252428E+01  0.31123686850E+01  0.17770000000E+01 0.  1.
</event>
<event>
 6    1  0.1298204E-002  0.1836082E+03  0.7546771E-02  0.1067576E+00
        -11   -1    0    0    0    0  0.00000000000E+00  0.00000000000E+00  0.18250000000E+03  0.18250000000E+03  0.00000000000E+00 0. -1.
         11   -1    0    0    0    0 -0.00000000000E+00 -0.00000000000E+00 -0.18250000000E+03  0.18250000000E+03  0.00000000000E+00 0. -1.
        -11    1    1    2    0    0  0.30031116350E+01 -0.44728672381E+01  0.18131173200E+03  0.18139175665E+03  0.00000000000E+00 0. -1.
         11    1    1    2    0    0 -0.20953379682E+01 -0.21278989940E+01 -0.16566575153E+03  0.16569266618E+03  0.00000000000E+00 0. -1.
        -15    1    1    2    0    0 -0.27376577154E+00  0.74967964726E+00 -0.13976364532E+01  0.23975161994E+01  0.17770000000E+01 0.  1.
         15    1    1    2    0    0 -0.63400789527E+00  0.58510865848E+01 -0.14248344015E+02  0.15518060974E+02  0.17770000000E+01 0. -1.
</event>
<event>
 6    1  0.1298204E-002  0.1780668E+03  0.7546771E-02  0.1072039E+00
        -11   -1    0    0    0    0  0.00000000000E+00  0.00000000000E+00  0.18250000000E+03  0.18250000000E+03  0.00000000000E+00 0.  1.
         11   -1    0    0    0    0 -0.00000000000E+00 -0.00000000000E+00 -0.18250000000E+03  0.18250000000E+03  0.00000000000E+00 0.  1.
        -11    1    1    2    0    0 -0.26750827390E+01 -0.88255770637E+00  0.17772711712E+03  0.17774943920E+03  0.00000000000E+00 0.  1.
         11    1    1    2    0    0  0.43759663619E+01 -0.28962183206E+01 -0.17833159447E+03  0.17840878551E+03  0.00000000000E+00 0.  1.
        -15    1    1    2    0    0  0.38907924360E+00 -0.11610962607E+01 -0.16921631004E+01  0.27423843900E+01  0.17770000000E+01 0. -1.
         15    1    1    2    0    0 -0.20899628664E+01  0.49398722876E+01  0.22966404417E+01  0.60993908974E+01  0.17770000000E+01 0.  1.
</event>
<event>
 6    1  0.1298204E-002  0.2056927E+03  0.7546771E-02  0.1051359E+00
        -11   -1    0    0    0    0  0.00000000000E+00  0.00000000000E+00  0.18250000000E+03  0.18250000000E+03  0.00000000000E+00 0.  1.
         11   -1    0    0    0    0 -0.00000000000E+00 -0.00000000000E+00 -0.18250000000E+03  0.18250000000E+03  0.00000000000E+00 0. -1.
        -11    1    1    2    0    0 -0.23879386776E+02  0.25877183579E+02  0.15536713660E+03  0.15930725306E+03  0.00000000000E+00 0.  1.
         11    1    1    2    0    0  0.42564938881E+01  0.43878128302E+01 -0.12193903793E+03  0.12209217671E+03  0.00000000000E+00 0. -1.
        -15    1    1    2    0    0  0.35900427548E+02 -0.21546711863E+01  0.12778609267E+01  0.36031568986E+02  0.17770000000E+01 0.  1.
         15    1    1    2    0    0 -0.16277534660E+02 -0.28110325223E+02 -0.34705959595E+02  0.47569001242E+02  0.17770000000E+01 0. -1.
</event>
<event>
 6    1  0.1298204E-002  0.1911767E+03  0.7546771E-02  0.1061751E+00
        -11   -1    0    0    0    0  0.00000000000E+00  0.00000000000E+00  0.18250000000E+03  0.18250000000E+03  0.00000000000E+00 0.  1.
         11   -1    0    0    0    0 -0.00000000000E+00 -0.00000000000E+00 -0.18250000000E+03  0.18250000000E+03  0.00000000000E+00 0.  1.
        -11    1    1    2    0    0  0.28393756146E+00 -0.76228554070E+01  0.16171997926E+03  0.16189978455E+03  0.00000000000E+00 0.  1.
         11    1    1    2    0    0 -0.16634036938E+02  0.70958507450E+01 -0.17287996671E+03  0.17382325843E+03  0.00000000000E+00 0.  1.
        -15    1    1    2    0    0  0.11127690038E+02 -0.64247325064E+01 -0.22809474720E+01  0.13170539994E+02  0.17770000000E+01 0. -1.
         15    1    1    2    0    0  0.52224093386E+01  0.69517371684E+01  0.13440934918E+02  0.16106417027E+02  0.17770000000E+01 0.  1.
</event>
<event>
 6    1  0.1298204E-002  0.1778202E+03  0.7546771E-02  0.1072242E+00
        -11   -1    0    0    0    0  0.00000000000E+00  0.00000000000E+00  0.18250000000E+03  0.18250000000E+03  0.00000000000E+00 0.  1.
         11   -1    0    0    0    0 -0.00000000000E+00 -0.00000000000E+00 -0.18250000000E+03  0.18250000000E+03  0.00000000000E+00 0.  1.
        -11    1    1    2    0    0  0.32569466387E+01 -0.34981366308E+01  0.17606776200E+03  0.17613262468E+03  0.00000000000E+00 0.  1.
         11    1    1    2    0    0 -0.14917315239E+01 -0.20398070165E+01 -0.17955456602E+03  0.17957234825E+03  0.00000000000E+00 0.  1.
        -15    1    1    2    0    0 -0.10936526318E+00  0.37378211674E+01  0.44921147870E+01  0.61090172778E+01  0.17770000000E+01 0.  1.
         15    1    1    2    0    0 -0.16558498516E+01  0.18001224799E+01 -0.10053107614E+01  0.31860097929E+01  0.17770000000E+01 0. -1.
</event>
<event>
 6    1  0.1298204E-002  0.1907581E+03  0.7546771E-02  0.1062065E+00
        -11   -1    0    0    0    0  0.00000000000E+00  0.00000000000E+00  0.18250000000E+03  0.18250000000E+03  0.00000000000E+00 0.  1.
         11   -1    0    0    0    0 -0.00000000000E+00 -0.00000000000E+00 -0.18250000000E+03  0.18250000000E+03  0.00000000000E+00 0. -1.
        -11    1    1    2    0    0  0.62179464826E+01  0.50626066952E+00  0.15028984574E+03  0.15041927035E+03  0.00000000000E+00 0.  1.
         11    1    1    2    0    0 -0.15634404379E+02  0.28711563705E+01 -0.17351526586E+03  0.17424185957E+03  0.00000000000E+00 0. -1.
        -15    1    1    2    0    0  0.20358553995E+02  0.20683549452E+01  0.15935895616E+02  0.25997294302E+02  0.17770000000E+01 0.  1.
         15    1    1    2    0    0 -0.10942096098E+02 -0.54457719852E+01  0.72895245029E+01  0.14341575786E+02  0.17770000000E+01 0. -1.
</event>
<event>
 6    1  0.1298204E-002  0.1740604E+03  0.7546771E-02  0.1075378E+00
        -11   -1    0    0    0    0  0.00000000000E+00  0.00000000000E+00  0.18250000000E+03  0.18250000000E+03  0.00000000000E+00 0. -1.
         11   -1    0    0    0    0 -0.00000000000E+00 -0.00000000000E+00 -0.18250000000E+03  0.18250000000E+03  0.00000000000E+00 0. -1.
        -11    1    1    2    0    0 -0.27723713295E+01  0.23955172264E+01  0.17282894482E+03  0.17286777812E+03  0.00000000000E+00 0. -1.
         11    1    1    2    0    0 -0.37773623929E+01  0.53648330327E+00 -0.17529420127E+03  0.17533571593E+03  0.00000000000E+00 0. -1.
        -15    1    1    2    0    0  0.20072027457E+01 -0.81509333135E+00 -0.61012682382E+01  0.67138992482E+01  0.17770000000E+01 0. -1.
         15    1    1    2    0    0  0.45425309766E+01 -0.21169071984E+01  0.85665246902E+01  0.10082606708E+02  0.17770000000E+01 0.  1.
</event>
<event>
 6    1  0.1298204E-002  0.1843784E+03  0.7546771E-02  0.1066969E+00
        -11   -1    0    0    0    0  0.00000000000E+00  0.00000000000E+00  0.18250000000E+03  0.18250000000E+03  0.00000000000E+00 0.  1.
         11   -1    0    0    0    0 -0.00000000000E+00 -0.00000000000E+00 -0.18250000000E+03  0.18250000000E+03  0.00000000000E+00 0.  1.
        -11    1    1    2    0    0 -0.15439650707E+01 -0.32038789149E+01  0.18058655161E+03  0.18062156929E+03  0.00000000000E+00 0.  1.
         11    1    1    2    0    0 -0.38849355621E+00 -0.45843229123E+01 -0.14314574442E+03  0.14321966028E+03  0.00000000000E+00 0.  1.
        -15    1    1    2    0    0  0.12019410772E+01  0.95921202300E+01 -0.37240440853E+02  0.38515731809E+02  0.17770000000E+01 0. -1.
         15    1    1    2    0    0  0.73051754965E+00 -0.18039184029E+01 -0.20036633613E+00  0.26430386231E+01  0.17770000000E+01 0. -1.
</event>
<event>
 6    1  0.1298204E-002  0.1839334E+03  0.7546771E-02  0.1067320E+00
        -11   -1    0    0    0    0  0.00000000000E+00  0.00000000000E+00  0.18250000000E+03  0.18250000000E+03  0.00000000000E+00 0. -1.
         11   -1    0    0    0    0 -0.00000000000E+00 -0.00000000000E+00 -0.18250000000E+03  0.18250000000E+03  0.00000000000E+00 0. -1.
        -11    1    1    2    0    0  0.29353219483E+01 -0.92960982747E+00  0.18104045699E+03  0.18106663789E+03  0.00000000000E+00 0. -1.
         11    1    1    2    0    0 -0.23814786022E+01  0.18998585684E-01 -0.16395672979E+03  0.16397402552E+03  0.00000000000E+00 0. -1.
        -15    1    1    2    0    0 -0.27392414860E+01  0.39207559904E+01 -0.48112102068E+01  0.70129340585E+01  0.17770000000E+01 0. -1.
         15    1    1    2    0    0  0.21853981399E+01 -0.30101447486E+01 -0.12272516991E+02  0.12946402541E+02  0.17770000000E+01 0. -1.
</event>
<event>
 6    1  0.1298204E-002  0.1855123E+03  0.7546771E-02  0.1066082E+00
        -11   -1    0    0    0    0  0.00000000000E+00  0.00000000000E+00  0.18250000000E+03  0.18250000000E+03  0.00000000000E+00 0. -1.
         11   -1    0    0    0    0 -0.00000000000E+00 -0.00000000000E+00 -0.18250000000E+03  0.18250000000E+03  0.00000000000E+00 0.  1.
        -11    1    1    2    0    0  0.17694691141E+01 -0.32258411358E+01  0.17516860747E+03  0.17520724333E+03  0.00000000000E+00 0. -1.
         11    1    1    2    0    0 -0.23958622210E+01 -0.10631722212E+01 -0.17946855915E+03  0.17948769934E+03  0.00000000000E+00 0.  1.
        -15    1    1    2    0    0  0.17770810595E+01  0.60800543867E+01  0.27736953265E+01  0.71397614247E+01  0.17770000000E+01 0.  1.
         15    1    1    2    0    0 -0.11506879527E+01 -0.17910410298E+01  0.15262563546E+01  0.31652959095E+01  0.17770000000E+01 0. -1.
</event>
<event>
 6    1  0.1298204E-002  0.1901788E+03  0.7546771E-02  0.1062502E+00
        -11   -1    0    0    0    0  0.00000000000E+00  0.00000000000E+00  0.18250000000E+03  0.18250000000E+03  0.00000000000E+00 0.  1.
         11   -1    0    0    0    0 -0.00000000000E+00 -0.00000000000E+00 -0.18250000000E+03  0.18250000000E+03  0.00000000000E+00 0. -1.
        -11    1    1    2    0    0 -0.25888984414E+01  0.33161252681E+00  0.17480167196E+03  0.17482115685E+03  0.00000000000E+00 0.  1.
         11    1    1    2    0    0  0.36668279303E+01  0.20333544481E+01 -0.12331065503E+03  0.12338191845E+03  0.00000000000E+00 0. -1.
        -15    1    1    2    0    0 -0.14044219081E+02  0.94618242671E+01 -0.44807403148E+02  0.47933571888E+02  0.17770000000E+01 0. -1.
         15    1    1    2    0    0  0.12966289592E+02 -0.11826791242E+02 -0.66836137860E+01  0.18863352806E+02  0.17770000000E+01 0.  1.
</event>
<event>
 6    1  0.1298204E-002  0.1876616E+03  0.7546771E-02  0.1064419E+00
        -11   -1    0    0    0    0  0.00000000000E+00  0.00000000000E+00  0.18250000000E+03  0.18250000000E+03  0.00000000000E+00 0. -1.
         11   -1    0    0    0    0 -0.00000000000E+00 -0.00000000000E+00 -0.18250000000E+03  0.18250000000E+03  0.00000000000E+00 0.  1.
        -11    1    1    2    0    0 -0.21030163862E+01 -0.31871665371E+01  0.17729732175E+03  0.17733843635E+03  0.00000000000E+00 0. -1.
         11    1    1    2    0    0  0.41267672282E+01  0.86966347644E+01 -0.11519471861E+03  0.11559621473E+03  0.00000000000E+00 0.  1.
        -15    1    1    2    0    0 -0.16466097286E+02 -0.40817192964E+01 -0.14894943764E+02  0.22645305716E+02  0.17770000000E+01 0. -1.
         15    1    1    2    0    0  0.14442346444E+02 -0.14277489308E+01 -0.47207659371E+02  0.49420043203E+02  0.17770000000E+01 0.  1.
</event>
<event>
 6    1  0.1298204E-002  0.1826631E+03  0.7546771E-02  0.1068325E+00
        -11   -1    0    0    0    0  0.00000000000E+00  0.00000000000E+00  0.18250000000E+03  0.18250000000E+03  0.00000000000E+00 0.  1.
         11   -1    0    0    0    0 -0.00000000000E+00 -0.00000000000E+00 -0.18250000000E+03  0.18250000000E+03  0.00000000000E+00 0. -1.
        -11    1    1    2    0    0 -0.35950670228E+00  0.15007681129E+01  0.67868547079E+02  0.67886090126E+02  0.00000000000E+00 0.  1.
         11    1    1    2    0    0  0.55511424052E+01  0.14963007310E+01 -0.18224622407E+03  0.18233688679E+03  0.00000000000E+00 0. -1.
        -15    1    1    2    0    0 -0.18940866992E+01  0.20120986848E+01  0.43498931794E+02  0.43622825468E+02  0.17770000000E+01 0. -1.
         15    1    1    2    0    0 -0.32975490038E+01 -0.50091675287E+01  0.70878745195E+02  0.71154197614E+02  0.17770000000E+01 0.  1.
</event>
<event>
 6    1  0.1298204E-002  0.1736139E+03  0.7546771E-02  0.1075757E+00
        -11   -1    0    0    0    0  0.00000000000E+00  0.00000000000E+00  0.18250000000E+03  0.18250000000E+03  0.00000000000E+00 0.  1.
         11   -1    0    0    0    0 -0.00000000000E+00 -0.00000000000E+00 -0.18250000000E+03  0.18250000000E+03  0.00000000000E+00 0.  1.
        -11    1    1    2    0    0  0.51131223614E+01  0.22397655303E+01  0.17165266096E+03  0.17174340332E+03  0.00000000000E+00 0.  1.
         11    1    1    2    0    0  0.79042952544E+01 -0.34271066999E-01 -0.17557963574E+03  0.17575746796E+03  0.00000000000E+00 0.  1.
        -15    1    1    2    0    0 -0.20158139983E+01  0.28513128017E+01  0.35002743175E+01  0.52538690569E+01  0.17770000000E+01 0. -1.
         15    1    1    2    0    0 -0.11001603617E+02 -0.50568072650E+01  0.42670046235E+00  0.12245259661E+02  0.17770000000E+01 0.  1.
</event>
<event>
 6    1  0.1298204E-002  0.1827670E+03  0.7546771E-02  0.1068243E+00
        -11   -1    0    0    0    0  0.00000000000E+00  0.00000000000E+00  0.18250000000E+03  0.18250000000E+03  0.00000000000E+00 0.  1.
         11   -1    0    0    0    0 -0.00000000000E+00 -0.00000000000E+00 -0.18250000000E+03  0.18250000000E+03  0.00000000000E+00 0. -1.
        -11    1    1    2    0    0 -0.82578679535E+00 -0.43202827039E+01  0.18217995936E+03  0.18223304958E+03  0.00000000000E+00 0.  1.
         11    1    1    2    0    0  0.68429251799E+00 -0.28852735066E+00 -0.45506194506E+02  0.45512253764E+02  0.00000000000E+00 0. -1.
        -15    1    1    2    0    0  0.35913537646E+01 -0.34073260132E+00 -0.97188184499E+02  0.97271346530E+02  0.17770000000E+01 0. -1.
         15    1    1    2    0    0 -0.34498594872E+01  0.49495426559E+01 -0.39485580351E+02  0.39983350130E+02  0.17770000000E+01 0.  1.
</event>
<event>
 6    1  0.1298204E-002  0.1861517E+03  0.7546771E-02  0.1065585E+00
        -11   -1    0    0    0    0  0.00000000000E+00  0.00000000000E+00  0.18250000000E+03  0.18250000000E+03  0.00000000000E+00 0.  1.
         11   -1    0    0    0    0 -0.00000000000E+00 -0.00000000000E+00 -0.18250000000E+03  0.18250000000E+03  0.00000000000E+00 0.  1.
        -11    1    1    2    0    0  0.46503114439E+00 -0.34527631645E+01  0.17881433058E+03  0.17884826711E+03  0.00000000000E+00 0.  1.
         11    1    1    2    0    0 -0.62292526431E+00 -0.19672081772E+01 -0.82335833875E+02  0.82361686989E+02  0.00000000000E+00 0.  1.
        -15    1    1    2    0    0  0.41842818792E+01  0.10309204418E+01 -0.97395685022E+02  0.97507170001E+02  0.17770000000E+01 0.  1.
         15    1    1    2    0    0 -0.40263877593E+01  0.43890508998E+01  0.91718831894E+00  0.62828759021E+01  0.17770000000E+01 0.  1.
</event>
<event>
 6    1  0.1298204E-002  0.1826284E+03  0.7546771E-02  0.1068353E+00
        -11   -1    0    0    0    0  0.00000000000E+00  0.00000000000E+00  0.18250000000E+03  0.18250000000E+03  0.00000000000E+00 0.  1.
         11   -1    0    0    0    0 -0.00000000000E+00 -0.00000000000E+00 -0.18250000000E+03  0.18250000000E+03  0.00000000000E+00 0. -1.
        -11    1    1    2    0    0 -0.17206111509E+01  0.11195337924E+01  0.10005456507E+03  0.10007562066E+03  0.00000000000E+00 0.  1.
         11    1    1    2    0    0  0.25520613014E+01  0.15343416537E+01 -0.18234728015E+03  0.18237159263E+03  0.00000000000E+00 0. -1.
        -15    1    1    2    0    0 -0.25074616424E+01 -0.44355008589E+00  0.48714226009E+02  0.48813088872E+02  0.17770000000E+01 0. -1.
         15    1    1    2    0    0  0.16760114919E+01 -0.22103253603E+01  0.33578489074E+02  0.33739697838E+02  0.17770000000E+01 0.  1.
</event>
<event>
 6    1  0.1298204E-002  0.1845528E+03  0.7546771E-02  0.1066832E+00
        -11   -1    0    0    0    0  0.00000000000E+00  0.00000000000E+00  0.18250000000E+03  0.18250000000E+03  0.00000000000E+00 0.  1.
         11   -1    0    0    0    0 -0.00000000000E+00 -0.00000000000E+00 -0.18250000000E+03  0.18250000000E+03  0.00000000000E+00 0. -1.
        -11    1    1    2    0    0 -0.24625166998E+01 -0.36631263916E+01  0.13526520911E+03  0.13533720582E+03  0.00000000000E+00 0.  1.
         11    1    1    2    0    0 -0.14705853566E+01  0.45281527943E+01 -0.18038439572E+03  0.18044721391E+03  0.00000000000E+00 0. -1.
        -15    1    1    2    0    0 -0.14710032387E+01 -0.37880635845E+01  0.88655250017E+00  0.45229393744E+01  0.17770000000E+01 0.  1.
         15    1    1    2    0    0  0.54041052952E+01  0.29230371818E+01  0.44232634113E+02  0.44692640892E+02  0.17770000000E+01 0. -1.
</event>
<event>
 6    1  0.1298204E-002  0.1850757E+03  0.7546771E-02  0.1066423E+00
        -11   -1    0    0    0    0  0.00000000000E+00  0.00000000000E+00  0.18250000000E+03  0.18250000000E+03  0.00000000000E+00 0.  1.
         11   -1    0    0    0    0 -0.00000000000E+00 -0.00000000000E+00 -0.18250000000E+03  0.18250000000E+03  0.00000000000E+00 0. -1.
        -11    1    1    2    0    0  0.29245133242E+01 -0.87742675501E+00  0.17989835310E+03  0.17992426214E+03  0.00000000000E+00 0.  1.
         11    1    1    2    0    0 -0.27329403739E+01  0.16487041393E+01 -0.90513337849E+02  0.90569594882E+02  0.00000000000E+00 0. -1.
        -15    1    1    2    0    0  0.57742827796E+00  0.73014370387E+00  0.21487306694E+01  0.29396097928E+01  0.17770000000E+01 0.  1.
         15    1    1    2    0    0 -0.76900122827E+00 -0.15014210882E+01 -0.91533745924E+02  0.91566533188E+02  0.17770000000E+01 0. -1.
</event>
<event>
 6    1  0.1298204E-002  0.1849804E+03  0.7546771E-02  0.1066497E+00
        -11   -1    0    0    0    0  0.00000000000E+00  0.00000000000E+00  0.18250000000E+03  0.18250000000E+03  0.00000000000E+00 0. -1.
         11   -1    0    0    0    0 -0.00000000000E+00 -0.00000000000E+00 -0.18250000000E+03  0.18250000000E+03  0.00000000000E+00 0. -1.
        -11    1    1    2    0    0 -0.49457109427E+01  0.23707218383E+01  0.17993598912E+03  0.18001955604E+03  0.00000000000E+00 0. -1.
         11    1    1    2    0    0  0.36783183900E+00  0.52713389891E+01 -0.16351036489E+03  0.16359572654E+03  0.00000000000E+00 0. -1.
        -15    1    1    2    0    0  0.28539552011E+01 -0.91768884389E+01 -0.15507816271E+02  0.18330587448E+02  0.17770000000E+01 0.  1.
         15    1    1    2    0    0  0.17239239026E+01  0.15348276115E+01 -0.91780795630E+00  0.30541299684E+01  0.17770000000E+01 0. -1.
</event>
<event>
 6    1  0.1298204E-002  0.1709117E+03  0.7546771E-02  0.1078073E+00
        -11   -1    0    0    0    0  0.00000000000E+00  0.00000000000E+00  0.18250000000E+03  0.18250000000E+03  0.00000000000E+00 0. -1.
         11   -1    0    0    0    0 -0.00000000000E+00 -0.00000000000E+00 -0.18250000000E+03  0.18250000000E+03  0.00000000000E+00 0. -1.
        -11    1    1    2    0    0 -0.80192783332E+00 -0.28179381090E+01  0.17465607209E+03  0.17468064398E+03  0.00000000000E+00 0. -1.
         11    1    1    2    0    0  0.58803360476E+00 -0.74236460927E-01 -0.13479959913E+02  0.13492983875E+02  0.00000000000E+00 0. -1.
        -15    1    1    2    0    0 -0.72789494264E+01 -0.37882303197E+00  0.58978789988E+01  0.95430245377E+01  0.17770000000E+01 0.  1.
         15    1    1    2    0    0  0.74928436550E+01  0.32709976019E+01 -0.16707399117E+03  0.16728334761E+03  0.17770000000E+01 0. -1.
</event>
<event>
 6    1  0.1298204E-002  0.1827090E+03  0.7546771E-02  0.1068289E+00
        -11   -1    0    0    0    0  0.00000000000E+00  0.00000000000E+00  0.18250000000E+03  0.18250000000E+03  0.00000000000E+00 0. -1.
         11   -1    0    0    0    0 -0.00000000000E+00 -0.00000000000E+00 -0.18250000000E+03  0.18250000000E+03  0.00000000000E+00 0.  1.
        -11    1    1    2    0    0  0.66056626644E+01  0.46943782288E+01  0.18211080196E+03  0.18229102050E+03  0.00000000000E+00 0. -1.
         11    1    1    2    0    0 -0.34527344033E+00 -0.14299605033E+01 -0.59725800154E+02  0.59743913538E+02  0.00000000000E+00 0.  1.
        -15    1    1    2    0    0  0.83106125531E+00  0.20346099906E+01 -0.35423950251E+02  0.35536520384E+02  0.17770000000E+01 0.  1.
         15    1    1    2    0    0 -0.70914504794E+01 -0.52990277161E+01 -0.86961051555E+02  0.87428545574E+02  0.17770000000E+01 0.  1.
</event>
<event>
 6    1  0.1298204E-002  0.1827789E+03  0.7546771E-02  0.1068233E+00
        -11   -1    0    0    0    0  0.00000000000E+00  0.00000000000E+00  0.18250000000E+03  0.18250000000E+03  0.00000000000E+00 0. -1.
         11   -1    0    0    0    0 -0.00000000000E+00 -0.00000000000E+00 -0.18250000000E+03  0.18250000000E+03  0.00000000000E+00 0.  1.
        -11    1    1    2    0    0 -0.18563979425E+00 -0.86476977051E+00  0.45847301164E+02  0.45855831831E+02  0.00000000000E+00 0. -1.
         11    1    1    2    0    0  0.25947379970E+01 -0.17744222673E+01 -0.18219400560E+03  0.18222112094E+03  0.00000000000E+00 0.  1.
        -15    1    1    2    0    0 -0.29114277127E+01  0.10849478238E+01  0.11305846505E+02  0.11858896125E+02  0.17770000000E+01 0. -1.
         15    1    1    2    0    0  0.50232950998E+00  0.15542442140E+01  0.12504085793E+03  0.12506415110E+03  0.17770000000E+01 0. -1.
</event>
<event>
 6    1  0.1298204E-002  0.1842574E+03  0.7546771E-02  0.1067064E+00
        -11   -1    0    0    0    0  0.00000000000E+00  0.00000000000E+00  0.18250000000E+03  0.18250000000E+03  0.00000000000E+00 0. -1.
         11   -1    0    0    0    0 -0.00000000000E+00 -0.00000000000E+00 -0.18250000000E+03  0.18250000000E+03  0.00000000000E+00 0.  1.
        -11    1    1    2    0    0  0.36476371860E+01  0.46797456034E+01  0.16601471064E+03  0.16612070739E+03  0.00000000000E+00 0. -1.
         11    1    1    2    0    0 -0.26658289583E+01 -0.11688841141E+01 -0.18071919410E+03  0.18074263485E+03  0.00000000000E+00 0.  1.
        -15    1    1    2    0    0  0.29873571860E+01 -0.28184450277E+01  0.12365744416E+02  0.13150562699E+02  0.17770000000E+01 0.  1.
         15    1    1    2    0    0 -0.39691654137E+01 -0.69241646165E+00  0.23387390519E+01  0.49860950643E+01  0.17770000000E+01 0. -1.
</event>
<event>
 6    1  0.1298204E-002  0.1851243E+03  0.7546771E-02  0.1066385E+00
        -11   -1    0    0    0    0  0.00000000000E+00  0.00000000000E+00  0.18250000000E+03  0.18250000000E+03  0.00000000000E+00 0.  1.
         11   -1    0    0    0    0 -0.00000000000E+00 -0.00000000000E+00 -0.18250000000E+03  0.18250000000E+03  0.00000000000E+00 0.  1.
        -11    1    1    2    0    0  0.17521978882E+01  0.23202287337E+01  0.17985221617E+03  0.17987571631E+03  0.00000000000E+00 0.  1.
         11    1    1    2    0    0 -0.10209531887E+01 -0.40319867246E+01 -0.17461575996E+03  0.17466528816E+03  0.00000000000E+00 0.  1.
        -15    1    1    2    0    0 -0.14549643391E+01 -0.17085117813E+01 -0.58279194500E+01  0.64929429268E+01  0.17770000000E+01 0.  1.
         15    1    1    2    0    0  0.72371963966E+00  0.34202697722E+01  0.59146324193E+00  0.39660525965E+01  0.17770000000E+01 0. -1.
</event>
<event>
 6    1  0.1298204E-002  0.1765266E+03  0.7546771E-02  0.1073312E+00
        -11   -1    0    0    0    0  0.00000000000E+00  0.00000000000E+00  0.18250000000E+03  0.18250000000E+03  0.00000000000E+00 0. -1.
         11   -1    0    0    0    0 -0.00000000000E+00 -0.00000000000E+00 -0.18250000000E+03  0.18250000000E+03  0.00000000000E+00 0.  1.
        -11    1    1    2    0    0 -0.19580830927E+01 -0.33358727265E+01  0.17678478807E+03  0.17682710038E+03  0.00000000000E+00 0. -1.
         11    1    1    2    0    0 -0.36370959816E+01  0.61396220641E-01 -0.17624846653E+03  0.17628600112E+03  0.00000000000E+00 0.  1.
        -15    1    1    2    0    0  0.19776955191E+01  0.27488929005E+01 -0.47060002148E+01  0.60639804391E+01  0.17770000000E+01 0.  1.
         15    1    1    2    0    0  0.36174835552E+01  0.52558360538E+00  0.41696786808E+01  0.58229180571E+01  0.17770000000E+01 0. -1.
</event>
<event>
 6    1  0.1298204E-002  0.1887177E+03  0.7546771E-02  0.1063611E+00
        -11   -1    0    0    0    0  0.00000000000E+00  0.00000000000E+00  0.18250000000E+03  0.18250000000E+03  0.00000000000E+00 0.  1.
         11   -1    0    0    0    0 -0.00000000000E+00 -0.00000000000E+00 -0.18250000000E+03  0.18250000000E+03  0.00000000000E+00 0.  1.
        -11    1    1    2    0    0  0.35466912234E+01 -0.74381925475E+00  0.17624509285E+03  0.17628234466E+03  0.00000000000E+00 0.  1.
         11    1    1    2    0    0 -0.14515139435E+00 -0.28933629869E+01 -0.16016384075E+03  0.16019003871E+03  0.00000000000E+00 0.  1.
        -15    1    1    2    0    0 -0.27981165358E+01  0.14317348441E+01  0.55949326133E+01  0.66588528111E+01  0.17770000000E+01 0. -1.
         15    1    1    2    0    0 -0.60342329326E+00  0.22054473975E+01 -0.21676184718E+02  0.21868763816E+02  0.17770000000E+01 0. -1.
</event>
<event>
 6    1  0.1298204E-002  0.1834192E+03  0.7546771E-02  0.1067725E+00
        -11   -1    0    0    0    0  0.00000000000E+00  0.00000000000E+00  0.18250000000E+03  0.18250000000E+03  0.00000000000E+00 0. -1.
         11   -1    0    0    0    0 -0.00000000000E+00 -0.00000000000E+00 -0.18250000000E+03  0.18250000000E+03  0.00000000000E+00 0.  1.
        -11    1    1    2    0    0  0.72947106994E+00  0.47274647642E+01  0.13164596899E+03  0.13173284405E+03  0.00000000000E+00 0. -1.
         11    1    1    2    0    0 -0.32111200228E+01  0.74066272901E+00 -0.18155091688E+03  0.18158082304E+03  0.00000000000E+00 0.  1.
        -15    1    1    2    0    0 -0.38124379662E+01 -0.42763129405E+00  0.88343899105E+01  0.97939637461E+01  0.17770000000E+01 0.  1.
         15    1    1    2    0    0  0.62940869190E+01 -0.50404961992E+01  0.41070557985E+02  0.41892369166E+02  0.17770000000E+01 0. -1.
</event>
<event>
 6    1  0.1298204E-002  0.1585298E+03  0.7546771E-02  0.1089318E+00
        -11   -1    0    0    0    0  0.00000000000E+00  0.00000000000E+00  0.18250000000E+03  0.18250000000E+03  0.00000000000E+00 0.  1.
         11   -1    0    0    0    0 -0.00000000000E+00 -0.00000000000E+00 -0.18250000000E+03  0.18250000000E+03  0.00000000000E+00 0.  1.
        -11    1    1    2    0    0 -0.90599564630E+01  0.30221721415E+02  0.14699389448E+03  0.15034174494E+03  0.00000000000E+00 0.  1.
         11    1    1    2    0    0 -0.18196346281E+01 -0.66839355029E+01 -0.16835010954E+03  0.16849256793E+03  0.00000000000E+00 0.  1.
        -15    1    1    2    0    0 -0.41849227249E+01 -0.87082054342E+01 -0.60282439303E+01  0.11525791686E+02  0.17770000000E+01 0. -1.
         15    1    1    2    0    0  0.15064513816E+02 -0.14829580478E+02  0.27384458987E+02  0.34639895449E+02  0.17770000000E+01 0.  1.
</event>
<event>
 6    1  0.1298204E-002  0.1672910E+03  0.7546771E-02  0.1081250E+00
        -11   -1    0    0    0    0  0.00000000000E+00  0.00000000000E+00  0.18250000000E+03  0.18250000000E+03  0.00000000000E+00 0. -1.
         11   -1    0    0    0    0 -0.00000000000E+00 -0.00000000000E+00 -0.18250000000E+03  0.18250000000E+03  0.00000000000E+00 0. -1.
        -11    1    1    2    0    0  0.16328888866E+02  0.23561329102E+02  0.16403451001E+03  0.16652053721E+03  0.00000000000E+00 0. -1.
         11    1    1    2    0    0 -0.26918394077E+01 -0.20947931760E+01 -0.16902947846E+03  0.16906388954E+03  0.00000000000E+00 0. -1.
        -15    1    1    2    0    0  0.22236536996E+01 -0.27583348932E+01 -0.10339645706E+01  0.40963226060E+01  0.17770000000E+01 0.  1.
         15    1    1    2    0    0 -0.15860703158E+02 -0.18708201033E+02  0.60289330271E+01  0.25319250640E+02  0.17770000000E+01 0. -1.
</event>
<event>
 6    1  0.1298204E-002  0.1903577E+03  0.7546771E-02  0.1062367E+00
        -11   -1    0    0    0    0  0.00000000000E+00  0.00000000000E+00  0.18250000000E+03  0.18250000000E+03  0.00000000000E+00 0. -1.
         11   -1    0    0    0    0 -0.00000000000E+00 -0.00000000000E+00 -0.18250000000E+03  0.18250000000E+03  0.00000000000E+00 0.  1.
        -11    1    1    2    0    0  0.24773118068E+01  0.13899847803E+01  0.14817711686E+03  0.14820434236E+03  0.00000000000E+00 0. -1.
         11    1    1    2    0    0  0.21203316965E+01 -0.86845824215E+01 -0.17441338274E+03  0.17464233695E+03  0.00000000000E+00 0.  1.
        -15    1    1    2    0    0 -0.11154150691E+02  0.24578917855E+01 -0.28416244562E+01  0.11903313329E+02  0.17770000000E+01 0.  1.
         15    1    1    2    0    0  0.65565071873E+01  0.48367058557E+01  0.29077890332E+02  0.30250007359E+02  0.17770000000E+01 0. -1.
</event>
<event>
 6    1  0.1298204E-002  0.1860207E+03  0.7546771E-02  0.1065686E+00
        -11   -1    0    0    0    0  0.00000000000E+00  0.00000000000E+00  0.18250000000E+03  0.18250000000E+03  0.00000000000E+00 0. -1.
         11   -1    0    0    0    0 -0.00000000000E+00 -0.00000000000E+00 -0.18250000000E+03  0.18250000000E+03  0.00000000000E+00 0.  1.
        -11    1    1    2    0    0 -0.26720206250E+01  0.58410047078E+00  0.17895842610E+03  0.17897932601E+03  0.00000000000E+00 0. -1.
         11    1    1    2    0    0 -0.27671356557E+01  0.40311229175E+01 -0.16799359098E+03  0.16806473040E+03  0.00000000000E+00 0.  1.
        -15    1    1    2    0    0  0.54855247659E+01 -0.20446201451E+01  0.43699239009E+00  0.61335262976E+01  0.17770000000E+01 0.  1.
         15    1    1    2    0    0 -0.46368485175E-01 -0.25706032432E+01 -0.11401827509E+02  0.11822417292E+02  0.17770000000E+01 0. -1.
</event>
<event>
 6    1  0.1298204E-002  0.1863472E+03  0.7546771E-02  0.1065433E+00
        -11   -1    0    0    0    0  0.00000000000E+00  0.00000000000E+00  0.18250000000E+03  0.18250000000E+03  0.00000000000E+00 0.  1.
         11   -1    0    0    0    0 -0.00000000000E+00 -0.00000000000E+00 -0.18250000000E+03  0.18250000000E+03  0.00000000000E+00 0.  1.
        -11    1    1    2    0    0  0.31991630187E+01 -0.29186801752E+01  0.14639475279E+03  0.14645878937E+03  0.00000000000E+00 0.  1.
         11    1    1    2    0    0  0.45901223303E+01  0.19416650492E+01 -0.17858326045E+03  0.17865279231E+03  0.00000000000E+00 0.  1.
        -15    1    1    2    0    0 -0.65222512894E+01  0.11210344071E+02  0.17530004345E+02  0.21878536455E+02  0.17770000000E+01 0. -1.
         15    1    1    2    0    0 -0.12670340596E+01 -0.10233328945E+02  0.14658503315E+02  0.18009881872E+02  0.17770000000E+01 0.  1.
</event>
<event>
 6    1  0.1370330E-002  0.1827475E+03  0.7546771E-02  0.1068258E+00
        -11   -1    0    0    0    0  0.00000000000E+00  0.00000000000E+00  0.18250000000E+03  0.18250000000E+03  0.00000000000E+00 0.  1.
         11   -1    0    0    0    0 -0.00000000000E+00 -0.00000000000E+00 -0.18250000000E+03  0.18250000000E+03  0.00000000000E+00 0. -1.
        -11    1    1    2    0    0 -0.42365563994E+01 -0.55705197373E+01  0.18211804958E+03  0.18225247072E+03  0.00000000000E+00 0.  1.
         11    1    1    2    0    0 -0.42147617518E+00 -0.11477703014E+01 -0.65619584502E+02  0.65630975073E+02  0.00000000000E+00 0. -1.
        -15    1    1    2    0    0  0.41786614598E+01  0.69941612795E+01 -0.58829567149E+02  0.59417633776E+02  0.17770000000E+01 0.  1.
         15    1    1    2    0    0  0.47937111479E+00 -0.27587124077E+00 -0.57668897929E+02  0.57698920432E+02  0.17770000000E+01 0. -1.
</event>
<event>
 6    1  0.1298204E-002  0.1816792E+03  0.7546771E-02  0.1069110E+00
        -11   -1    0    0    0    0  0.00000000000E+00  0.00000000000E+00  0.18250000000E+03  0.18250000000E+03  0.00000000000E+00 0. -1.
         11   -1    0    0    0    0 -0.00000000000E+00 -0.00000000000E+00 -0.18250000000E+03  0.18250000000E+03  0.00000000000E+00 0.  1.
        -11    1    1    2    0    0  0.23263213509E+01 -0.33010100724E+01  0.18088389398E+03  0.18092896822E+03  0.00000000000E+00 0. -1.
         11    1    1    2    0    0 -0.71760102203E+00  0.79304480412E+00 -0.44849509619E+01  0.46107110535E+01  0.00000000000E+00 0.  1.
        -15    1    1    2    0    0 -0.15107431075E+02  0.21353789396E+00 -0.48794491645E+02  0.51111057669E+02  0.17770000000E+01 0.  1.
         15    1    1    2    0    0  0.13498710746E+02  0.22944273743E+01 -0.12760445137E+03  0.12834926306E+03  0.17770000000E+01 0. -1.
</event>
<event>
 6    1  0.1298204E-002  0.1849799E+03  0.7546771E-02  0.1066498E+00
        -11   -1    0    0    0    0  0.00000000000E+00  0.00000000000E+00  0.18250000000E+03  0.18250000000E+03  0.00000000000E+00 0.  1.
         11   -1    0    0    0    0 -0.00000000000E+00 -0.00000000000E+00 -0.18250000000E+03  0.18250000000E+03  0.00000000000E+00 0. -1.
        -11    1    1    2    0    0 -0.55090931603E+01  0.52515989957E+01  0.17985915241E+03  0.18002012139E+03  0.00000000000E+00 0.  1.
         11    1    1    2    0    0 -0.38927635494E+01  0.61925544202E+01 -0.14484920376E+03  0.14503376561E+03  0.00000000000E+00 0. -1.
        -15    1    1    2    0    0  0.27847837541E+01 -0.24413490313E+01 -0.11788559144E+01  0.42734805389E+01  0.17770000000E+01 0.  1.
         15    1    1    2    0    0  0.66170729557E+01 -0.90028043846E+01 -0.33831092738E+02  0.35672632454E+02  0.17770000000E+01 0. -1.
</event>
<event>
 6    1  0.1298204E-002  0.1838438E+03  0.7546771E-02  0.1067390E+00
        -11   -1    0    0    0    0  0.00000000000E+00  0.00000000000E+00  0.18250000000E+03  0.18250000000E+03  0.00000000000E+00 0.  1.
         11   -1    0    0    0    0 -0.00000000000E+00 -0.00000000000E+00 -0.18250000000E+03  0.18250000000E+03  0.00000000000E+00 0. -1.
        -11    1    1    2    0    0 -0.24662714970E+01  0.48782001908E+01  0.18107367711E+03  0.18115616433E+03  0.00000000000E+00 0.  1.
         11    1    1    2    0    0 -0.15152117848E+01  0.86409452857E+01 -0.11577053941E+03  0.11610245303E+03  0.00000000000E+00 0. -1.
        -15    1    1    2    0    0  0.43744537270E+01 -0.14312873423E+02 -0.62591901102E+02  0.64380882284E+02  0.17770000000E+01 0. -1.
         15    1    1    2    0    0 -0.39297044527E+00  0.79372794637E+00 -0.27112365925E+01  0.33605003621E+01  0.17770000000E+01 0. -1.
</event>
<event>
 6    1  0.1298204E-002  0.1832392E+03  0.7546771E-02  0.1067868E+00
        -11   -1    0    0    0    0  0.00000000000E+00  0.00000000000E+00  0.18250000000E+03  0.18250000000E+03  0.00000000000E+00 0.  1.
         11   -1    0    0    0    0 -0.00000000000E+00 -0.00000000000E+00 -0.18250000000E+03  0.18250000000E+03  0.00000000000E+00 0. -1.
        -11    1    1    2    0    0  0.39633553126E+01  0.67749773062E+00  0.13333048467E+03  0.13339109915E+03  0.00000000000E+00 0.  1.
         11    1    1    2    0    0  0.32479083582E+01 -0.65145755565E+00 -0.18173061855E+03  0.18176080717E+03  0.00000000000E+00 0. -1.
        -15    1    1    2    0    0 -0.48740338079E+01  0.18803029833E+01  0.43370599362E+02  0.43720228303E+02  0.17770000000E+01 0. -1.
         15    1    1    2    0    0 -0.23372298629E+01 -0.19063431582E+01  0.50295345132E+01  0.61278653778E+01  0.17770000000E+01 0.  1.
</event>
<event>
 6    1  0.1298204E-002  0.1843054E+03  0.7546771E-02  0.1067027E+00
        -11   -1    0    0    0    0  0.00000000000E+00  0.00000000000E+00  0.18250000000E+03  0.18250000000E+03  0.00000000000E+00 0. -1.
         11   -1    0    0    0    0 -0.00000000000E+00 -0.00000000000E+00 -0.18250000000E+03  0.18250000000E+03  0.00000000000E+00 0. -1.
        -11    1    1    2    0    0  0.38885583874E+01  0.10466300817E+01  0.18064973001E+03  0.18069460776E+03  0.00000000000E+00 0. -1.
         11    1    1    2    0    0 -0.46312932401E+01  0.17260514684E+01 -0.14893246574E+03  0.14901445394E+03  0.00000000000E+00 0. -1.
        -15    1    1    2    0    0  0.52159385882E+01 -0.61774534149E+01 -0.11097304376E+02  0.13844668269E+02  0.17770000000E+01 0.  1.
         15    1    1    2    0    0 -0.44732037354E+01  0.34047718647E+01 -0.20619959893E+02  0.21446270027E+02  0.17770000000E+01 0. -1.
</event>
<event>
 6    1  0.1298204E-002  0.1826907E+03  0.7546771E-02  0.1068303E+00
        -11   -1    0    0    0    0  0.00000000000E+00  0.00000000000E+00  0.18250000000E+03  0.18250000000E+03  0.00000000000E+00 0.  1.
         11   -1    0    0    0    0 -0.00000000000E+00 -0.00000000000E+00 -0.18250000000E+03  0.18250000000E+03  0.00000000000E+00 0. -1.
        -11    1    1    2    0    0  0.23571119251E+01  0.83190355539E+00  0.18229217148E+03  0.18230930811E+03  0.00000000000E+00 0.  1.
         11    1    1    2    0    0 -0.24361614212E+01 -0.15572229593E+01 -0.11563590757E+03  0.11567204912E+03  0.00000000000E+00 0. -1.
        -15    1    1    2    0    0 -0.92788470746E+00  0.12207555183E+01 -0.83253408417E+01  0.86498695479E+01  0.17770000000E+01 0.  1.
         15    1    1    2    0    0  0.10069342036E+01 -0.49543611435E+00 -0.58330923065E+02  0.58368773227E+02  0.17770000000E+01 0. -1.
</event>
<event>
 6    1  0.1298204E-002  0.1839725E+03  0.7546771E-02  0.1067289E+00
        -11   -1    0    0    0    0  0.00000000000E+00  0.00000000000E+00  0.18250000000E+03  0.18250000000E+03  0.00000000000E+00 0. -1.
         11   -1    0    0    0    0 -0.00000000000E+00 -0.00000000000E+00 -0.18250000000E+03  0.18250000000E+03  0.00000000000E+00 0.  1.
        -11    1    1    2    0    0 -0.53738694789E+01 -0.40444372785E+01  0.18090246976E+03  0.18102745513E+03  0.00000000000E+00 0. -1.
         11    1    1    2    0    0 -0.51422134041E+01 -0.40172970234E+00 -0.10335656988E+03  0.10348518871E+03  0.00000000000E+00 0.  1.
        -15    1    1    2    0    0 -0.25821891208E+01  0.31284395627E+01 -0.46611485734E+02  0.46821396456E+02  0.17770000000E+01 0.  1.
         15    1    1    2    0    0  0.13098272004E+02  0.13177274181E+01 -0.30934414151E+02  0.33665959706E+02  0.17770000000E+01 0. -1.
</event>
<event>
 6    1  0.1298204E-002  0.1784122E+03  0.7546771E-02  0.1071756E+00
        -11   -1    0    0    0    0  0.00000000000E+00  0.00000000000E+00  0.18250000000E+03  0.18250000000E+03  0.00000000000E+00 0. -1.
         11   -1    0    0    0    0 -0.00000000000E+00 -0.00000000000E+00 -0.18250000000E+03  0.18250000000E+03  0.00000000000E+00 0. -1.
        -11    1    1    2    0    0  0.68351590435E+00 -0.36562487299E+01  0.17683713823E+03  0.17687625280E+03  0.00000000000E+00 0. -1.
         11    1    1    2    0    0  0.31326005335E+01 -0.95394627380E+00 -0.17998245701E+03  0.18001224412E+03  0.00000000000E+00 0. -1.
        -15    1    1    2    0    0 -0.48555101061E+00  0.26302563363E+01  0.12382445466E+01  0.34416546508E+01  0.17770000000E+01 0.  1.
         15    1    1    2    0    0 -0.33305654272E+01  0.19799386675E+01  0.19070742373E+01  0.46698484278E+01  0.17770000000E+01 0. -1.
</event>
<event>
 6    1  0.1298204E-002  0.1828316E+03  0.7546771E-02  0.1068191E+00
        -11   -1    0    0    0    0  0.00000000000E+00  0.00000000000E+00  0.18250000000E+03  0.18250000000E+03  0.00000000000E+00 0.  1.
         11   -1    0    0    0    0 -0.00000000000E+00 -0.00000000000E+00 -0.18250000000E+03  0.18250000000E+03  0.00000000000E+00 0. -1.
        -11    1    1    2    0    0  0.21649184597E+01 -0.15801660274E+00  0.15884411239E+03  0.15885894335E+03  0.00000000000E+00 0.  1.
         11    1    1    2    0    0 -0.31779605346E+01  0.12873882946E+01 -0.18213611203E+03  0.18216838394E+03  0.00000000000E+00 0. -1.
        -15    1    1    2    0    0  0.21483504357E+01 -0.30402966739E+00  0.17990647042E+02  0.18207936555E+02  0.17770000000E+01 0.  1.
         15    1    1    2    0    0 -0.11353083608E+01 -0.82534202452E+00  0.53013526042E+01  0.57647361575E+01  0.17770000000E+01 0.  1.
</event>
<event>
 6    1  0.1298204E-002  0.1828104E+03  0.7546771E-02  0.1068208E+00
        -11   -1    0    0    0    0  0.00000000000E+00  0.00000000000E+00  0.18250000000E+03  0.18250000000E+03  0.00000000000E+00 0.  1.
         11   -1    0    0    0    0 -0.00000000000E+00 -0.00000000000E+00 -0.18250000000E+03  0.18250000000E+03  0.00000000000E+00 0. -1.
        -11    1    1    2    0    0  0.26917378671E+01 -0.38883306754E+00  0.18216928850E+03  0.18218958894E+03  0.00000000000E+00 0.  1.
         11    1    1    2    0    0 -0.38393451494E+01 -0.30758639316E+01 -0.11279322452E+03  0.11290045619E+03  0.00000000000E+00 0. -1.
        -15    1    1    2    0    0 -0.81149491455E+00  0.28362955433E+01 -0.12408655643E+02  0.12877715646E+02  0.17770000000E+01 0.  1.
         15    1    1    2    0    0  0.19591021968E+01  0.62840145579E+00 -0.56967408340E+02  0.57032239232E+02  0.17770000000E+01 0. -1.
</event>
<event>
 6    1  0.1298204E-002  0.1829375E+03  0.7546771E-02  0.1068107E+00
        -11   -1    0    0    0    0  0.00000000000E+00  0.00000000000E+00  0.18250000000E+03  0.18250000000E+03  0.00000000000E+00 0. -1.
         11   -1    0    0    0    0 -0.00000000000E+00 -0.00000000000E+00 -0.18250000000E+03  0.18250000000E+03  0.00000000000E+00 0.  1.
        -11    1    1    2    0    0 -0.19535885081E+01 -0.61991494717E+00  0.12764334212E+03  0.12765979630E+03  0.00000000000E+00 0. -1.
         11    1    1    2    0    0 -0.16884715950E+01  0.28170706420E+01 -0.18203286197E+03  0.18206248834E+03  0.00000000000E+00 0.  1.
        -15    1    1    2    0    0  0.12992950355E+01  0.13872822266E+01  0.41469446210E+02  0.41550997792E+02  0.17770000000E+01 0. -1.
         15    1    1    2    0    0  0.23427650676E+01 -0.35844379215E+01  0.12920073637E+02  0.13726717567E+02  0.17770000000E+01 0. -1.
</event>
<event>
 6    1  0.1298204E-002  0.1840490E+03  0.7546771E-02  0.1067228E+00
        -11   -1    0    0    0    0  0.00000000000E+00  0.00000000000E+00  0.18250000000E+03  0.18250000000E+03  0.00000000000E+00 0.  1.
         11   -1    0    0    0    0 -0.00000000000E+00 -0.00000000000E+00 -0.18250000000E+03  0.18250000000E+03  0.00000000000E+00 0. -1.
        -11    1    1    2    0    0 -0.26844632966E+01  0.15946524866E+00  0.17368701098E+03  0.17370782814E+03  0.00000000000E+00 0.  1.
         11    1    1    2    0    0 -0.25032145524E+01 -0.13768375185E+01 -0.18092845372E+03  0.18095100754E+03  0.00000000000E+00 0. -1.
        -15    1    1    2    0    0  0.45093953752E+01  0.37805185954E+00  0.65357989485E+01  0.81456716576E+01  0.17770000000E+01 0. -1.
         15    1    1    2    0    0  0.67828247370E+00  0.83932041026E+00  0.70564379534E+00  0.21954926625E+01  0.17770000000E+01 0.  1.
</event>
<event>
 6    1  0.1298204E-002  0.1835112E+03  0.7546771E-02  0.1067653E+00
        -11   -1    0    0    0    0  0.00000000000E+00  0.00000000000E+00  0.18250000000E+03  0.18250000000E+03  0.00000000000E+00 0. -1.
         11   -1    0    0    0    0 -0.00000000000E+00 -0.00000000000E+00 -0.18250000000E+03  0.18250000000E+03  0.00000000000E+00 0.  1.
        -11    1    1    2    0    0 -0.32196622728E+01  0.13174690846E+01  0.16307657707E+03  0.16311367796E+03  0.00000000000E+00 0. -1.
         11    1    1    2    0    0  0.19296143761E+01  0.21162562948E+01 -0.18146618360E+03  0.18148878131E+03  0.00000000000E+00 0.  1.
        -15    1    1    2    0    0  0.61148626264E+00 -0.31087901504E+00  0.15805936162E+02  0.15920298621E+02  0.17770000000E+01 0. -1.
         15    1    1    2    0    0  0.67856163404E+00 -0.31228463644E+01  0.25836703674E+01  0.44772421058E+01  0.17770000000E+01 0.  1.
</event>
<event>
 6    1  0.1298204E-002  0.1826947E+03  0.7546771E-02  0.1068300E+00
        -11   -1    0    0    0    0  0.00000000000E+00  0.00000000000E+00  0.18250000000E+03  0.18250000000E+03  0.00000000000E+00 0.  1.
         11   -1    0    0    0    0 -0.00000000000E+00 -0.00000000000E+00 -0.18250000000E+03  0.18250000000E+03  0.00000000000E+00 0.  1.
        -11    1    1    2    0    0 -0.43100870742E+00  0.43077566475E+01  0.92546670967E+02  0.92647875545E+02  0.00000000000E+00 0.  1.
         11    1    1    2    0    0  0.24767359364E+01  0.11802125292E+01 -0.18228469976E+03  0.18230534520E+03  0.00000000000E+00 0.  1.
        -15    1    1    2    0    0 -0.31518960813E+00 -0.41596897157E+01  0.62326975812E+02  0.62491695496E+02  0.17770000000E+01 0.  1.
         15    1    1    2    0    0 -0.17305376208E+01 -0.13282794609E+01  0.27411052977E+02  0.27555083761E+02  0.17770000000E+01 0. -1.
</event>
<event>
 6    1  0.1298204E-002  0.1825234E+03  0.7546771E-02  0.1068436E+00
        -11   -1    0    0    0    0  0.00000000000E+00  0.00000000000E+00  0.18250000000E+03  0.18250000000E+03  0.00000000000E+00 0.  1.
         11   -1    0    0    0    0 -0.00000000000E+00 -0.00000000000E+00 -0.18250000000E+03  0.18250000000E+03  0.00000000000E+00 0.  1.
        -11    1    1    2    0    0 -0.48500030573E+00 -0.39853955691E+00  0.27815203540E+02  0.27822286158E+02  0.00000000000E+00 0.  1.
         11    1    1    2    0    0  0.24455633335E+00  0.26034688850E+01 -0.18245785369E+03  0.18247659091E+03  0.00000000000E+00 0.  1.
        -15    1    1    2    0    0  0.35719965659E+00 -0.79173417556E+00  0.74115200172E+02  0.74141587926E+02  0.17770000000E+01 0.  1.
         15    1    1    2    0    0 -0.11675568421E+00 -0.14131951525E+01  0.80527449974E+02  0.80559535008E+02  0.17770000000E+01 0. -1.
</event>
<event>
 6    1  0.1298204E-002  0.1689889E+03  0.7546771E-02  0.1079749E+00
        -11   -1    0    0    0    0  0.00000000000E+00  0.00000000000E+00  0.18250000000E+03  0.18250000000E+03  0.00000000000E+00 0.  1.
         11   -1    0    0    0    0 -0.00000000000E+00 -0.00000000000E+00 -0.18250000000E+03  0.18250000000E+03  0.00000000000E+00 0. -1.
        -11    1    1    2    0    0 -0.92412880486E+00 -0.30084217333E+01  0.16924971363E+03  0.16927897147E+03  0.00000000000E+00 0.  1.
         11    1    1    2    0    0  0.31734880346E+01 -0.16153829485E+02 -0.16844756737E+03  0.16925011133E+03  0.00000000000E+00 0. -1.
        -15    1    1    2    0    0 -0.17925487687E+01  0.93779102929E+00  0.62799350897E+01  0.68328615407E+01  0.17770000000E+01 0.  1.
         15    1    1    2    0    0 -0.45681046098E+00  0.18224460189E+02 -0.70820813577E+01  0.19638055666E+02  0.17770000000E+01 0. -1.
</event>
<event>
 6    1  0.1298204E-002  0.1743337E+03  0.7546771E-02  0.1075148E+00
        -11   -1    0    0    0    0  0.00000000000E+00  0.00000000000E+00  0.18250000000E+03  0.18250000000E+03  0.00000000000E+00 0.  1.
         11   -1    0    0    0    0 -0.00000000000E+00 -0.00000000000E+00 -0.18250000000E+03  0.18250000000E+03  0.00000000000E+00 0.  1.
        -11    1    1    2    0    0 -0.26392611874E+01  0.59435963707E+01  0.17655562335E+03  0.17667535248E+03  0.00000000000E+00 0.  1.
         11    1    1    2    0    0 -0.42735675866E+00  0.52760368709E+01 -0.17213265789E+03  0.17221402704E+03  0.00000000000E+00 0.  1.
        -15    1    1    2    0    0 -0.16506944865E+01 -0.96351219509E+01 -0.42969124011E+01  0.10825042840E+02  0.17770000000E+01 0.  1.
         15    1    1    2    0    0  0.47173124325E+01 -0.15845112907E+01 -0.12605305671E+00  0.52855776401E+01  0.17770000000E+01 0. -1.
</event>
<event>
 6    1  0.1298204E-002  0.1881410E+03  0.7546771E-02  0.1064051E+00
        -11   -1    0    0    0    0  0.00000000000E+00  0.00000000000E+00  0.18250000000E+03  0.18250000000E+03  0.00000000000E+00 0.  1.
         11   -1    0    0    0    0 -0.00000000000E+00 -0.00000000000E+00 -0.18250000000E+03  0.18250000000E+03  0.00000000000E+00 0.  1.
        -11    1    1    2    0    0 -0.19048373306E+01 -0.35609150214E+01  0.14989389881E+03  0.14994828916E+03  0.00000000000E+00 0.  1.
         11    1    1    2    0    0 -0.26819693518E+01 -0.25743853322E+01 -0.17681989073E+03  0.17685896691E+03  0.00000000000E+00 0.  1.
        -15    1    1    2    0    0  0.34835945793E+01  0.53858276478E+01  0.31983502606E+02  0.32668711922E+02  0.17770000000E+01 0.  1.
         15    1    1    2    0    0  0.11032121031E+01  0.74947270569E+00 -0.50575106877E+01  0.55240320091E+01  0.17770000000E+01 0. -1.
</event>
<event>
 6    1  0.1298204E-002  0.1908170E+03  0.7546771E-02  0.1062021E+00
        -11   -1    0    0    0    0  0.00000000000E+00  0.00000000000E+00  0.18250000000E+03  0.18250000000E+03  0.00000000000E+00 0. -1.
         11   -1    0    0    0    0 -0.00000000000E+00 -0.00000000000E+00 -0.18250000000E+03  0.18250000000E+03  0.00000000000E+00 0.  1.
        -11    1    1    2    0    0  0.76138307372E+01 -0.14108432776E+02  0.17344361484E+03  0.17418296651E+03  0.00000000000E+00 0. -1.
         11    1    1    2    0    0  0.88902662494E+00 -0.20730861152E+01 -0.15077012624E+03  0.15078699885E+03  0.00000000000E+00 0.  1.
        -15    1    1    2    0    0  0.50930030322E+01  0.10567225011E+02 -0.22240648708E+02  0.25207322513E+02  0.17770000000E+01 0.  1.
         15    1    1    2    0    0 -0.13595860394E+02  0.56142938802E+01 -0.43283988793E+00  0.14822712134E+02  0.17770000000E+01 0. -1.
</event>
<event>
 6    1  0.1298204E-002  0.1833698E+03  0.7546771E-02  0.1067765E+00
        -11   -1    0    0    0    0  0.00000000000E+00  0.00000000000E+00  0.18250000000E+03  0.18250000000E+03  0.00000000000E+00 0. -1.
         11   -1    0    0    0    0 -0.00000000000E+00 -0.00000000000E+00 -0.18250000000E+03  0.18250000000E+03  0.00000000000E+00 0.  1.
        -11    1    1    2    0    0  0.44733066018E+01 -0.51066201792E+00  0.15018615076E+03  0.15025362268E+03  0.00000000000E+00 0. -1.
         11    1    1    2    0    0 -0.21848570482E+01  0.43655463537E+01 -0.18156457446E+03  0.18163019103E+03  0.00000000000E+00 0.  1.
        -15    1    1    2    0    0 -0.13143300977E+01 -0.58486200439E+01  0.12007620292E+02  0.13537891051E+02  0.17770000000E+01 0. -1.
         15    1    1    2    0    0 -0.97411945593E+00  0.19937357081E+01  0.19370803409E+02  0.19578295239E+02  0.17770000000E+01 0.  1.
</event>
<event>
 6    1  0.1298204E-002  0.1831170E+03  0.7546771E-02  0.1067965E+00
        -11   -1    0    0    0    0  0.00000000000E+00  0.00000000000E+00  0.18250000000E+03  0.18250000000E+03  0.00000000000E+00 0.  1.
         11   -1    0    0    0    0 -0.00000000000E+00 -0.00000000000E+00 -0.18250000000E+03  0.18250000000E+03  0.00000000000E+00 0. -1.
        -11    1    1    2    0    0 -0.37985355547E+01  0.17023689167E+01  0.13869162870E+03  0.13875408032E+03  0.00000000000E+00 0.  1.
         11    1    1    2    0    0 -0.19074691751E+01 -0.21542852836E+01 -0.18186022019E+03  0.18188298181E+03  0.00000000000E+00 0. -1.
        -15    1    1    2    0    0  0.44242838611E+01  0.25750259369E+01  0.13636647443E+02  0.14673817797E+02  0.17770000000E+01 0.  1.
         15    1    1    2    0    0  0.12817208687E+01 -0.21231095700E+01  0.29531944046E+02  0.29689120074E+02  0.17770000000E+01 0.  1.
</event>
<event>
 6    1  0.1298204E-002  0.1846530E+03  0.7546771E-02  0.1066754E+00
        -11   -1    0    0    0    0  0.00000000000E+00  0.00000000000E+00  0.18250000000E+03  0.18250000000E+03  0.00000000000E+00 0. -1.
         11   -1    0    0    0    0 -0.00000000000E+00 -0.00000000000E+00 -0.18250000000E+03  0.18250000000E+03  0.00000000000E+00 0.  1.
        -11    1    1    2    0    0 -0.21177023344E+01 -0.63354383321E+00  0.15175391337E+03  0.15177001108E+03  0.00000000000E+00 0. -1.
         11    1    1    2    0    0 -0.22141327527E+00  0.26322188746E+01 -0.18032764107E+03  0.18034698703E+03  0.00000000000E+00 0.  1.
        -15    1    1    2    0    0 -0.57707051559E+01 -0.39730099822E+01  0.90980755866E+01  0.11619748478E+02  0.17770000000E+01 0. -1.
         15    1    1    2    0    0  0.81098207656E+01  0.19743349408E+01  0.19475652110E+02  0.21263253406E+02  0.17770000000E+01 0.  1.
</event>
<event>
 6    1  0.1298204E-002  0.1741751E+03  0.7546771E-02  0.1075282E+00
        -11   -1    0    0    0    0  0.00000000000E+00  0.00000000000E+00  0.18250000000E+03  0.18250000000E+03  0.00000000000E+00 0. -1.
         11   -1    0    0    0    0 -0.00000000000E+00 -0.00000000000E+00 -0.18250000000E+03  0.18250000000E+03  0.00000000000E+00 0.  1.
        -11    1    1    2    0    0  0.31754001668E+01  0.61769985664E+01  0.17719874952E+03  0.17733481133E+03  0.00000000000E+00 0. -1.
         11    1    1    2    0    0  0.29823123037E+01  0.29270991306E+01 -0.17118945278E+03  0.17124044744E+03  0.00000000000E+00 0.  1.
        -15    1    1    2    0    0  0.10011458634E+01 -0.32180357416E+01  0.17641518907E+01  0.41985721343E+01  0.17770000000E+01 0. -1.
         15    1    1    2    0    0 -0.71588583339E+01 -0.58860619554E+01 -0.77734486306E+01  0.12226169089E+02  0.17770000000E+01 0.  1.
</event>
<event>
 6    1  0.1298204E-002  0.1847867E+03  0.7546771E-02  0.1066649E+00
        -11   -1    0    0    0    0  0.00000000000E+00  0.00000000000E+00  0.18250000000E+03  0.18250000000E+03  0.00000000000E+00 0.  1.
         11   -1    0    0    0    0 -0.00000000000E+00 -0.00000000000E+00 -0.18250000000E+03  0.18250000000E+03  0.00000000000E+00 0.  1.
        -11    1    1    2    0    0 -0.18665508251E+01 -0.23132283267E+01  0.16809327334E+03  0.16811955145E+03  0.00000000000E+00 0.  1.
         11    1    1    2    0    0  0.29990696632E+01 -0.32262222987E+01 -0.18015941944E+03  0.18021326073E+03  0.00000000000E+00 0.  1.
        -15    1    1    2    0    0  0.72971380175E+00 -0.61901534109E+00  0.91729751551E+01  0.93923833196E+01  0.17770000000E+01 0.  1.
         15    1    1    2    0    0 -0.18622326398E+01  0.61584659665E+01  0.28931709402E+01  0.72748045028E+01  0.17770000000E+01 0.  1.
</event>
<event>
 6    1  0.1298204E-002  0.1841973E+03  0.7546771E-02  0.1067112E+00
        -11   -1    0    0    0    0  0.00000000000E+00  0.00000000000E+00  0.18250000000E+03  0.18250000000E+03  0.00000000000E+00 0. -1.
         11   -1    0    0    0    0 -0.00000000000E+00 -0.00000000000E+00 -0.18250000000E+03  0.18250000000E+03  0.00000000000E+00 0.  1.
        -11    1    1    2    0    0 -0.28735616833E+01  0.55428189355E+00  0.18077898487E+03  0.18080267131E+03  0.00000000000E+00 0. -1.
         11    1    1    2    0    0 -0.25036106826E+01  0.30512184822E+01 -0.15960499565E+03  0.15965378993E+03  0.00000000000E+00 0.  1.
        -15    1    1    2    0    0  0.36680462670E+01  0.71208136749E+00 -0.18380755293E+02  0.18840687817E+02  0.17770000000E+01 0. -1.
         15    1    1    2    0    0  0.17091260989E+01 -0.43175817432E+01 -0.27932339205E+01  0.57028509419E+01  0.17770000000E+01 0.  1.
</event>
<event>
 6    1  0.1298204E-002  0.1838142E+03  0.7546771E-02  0.1067413E+00
        -11   -1    0    0    0    0  0.00000000000E+00  0.00000000000E+00  0.18250000000E+03  0.18250000000E+03  0.00000000000E+00 0. -1.
         11   -1    0    0    0    0 -0.00000000000E+00 -0.00000000000E+00 -0.18250000000E+03  0.18250000000E+03  0.00000000000E+00 0. -1.
        -11    1    1    2    0    0  0.25349441239E+01 -0.47830719767E+01  0.18110487111E+03  0.18118575567E+03  0.00000000000E+00 0. -1.
         11    1    1    2    0    0  0.19591118902E+01 -0.34035403125E+01 -0.15382340330E+03  0.15387352472E+03  0.00000000000E+00 0. -1.
        -15    1    1    2    0    0 -0.20053415178E+01  0.86406028557E+01 -0.17782887116E+02  0.19951697058E+02  0.17770000000E+01 0. -1.
         15    1    1    2    0    0 -0.24887144963E+01 -0.45399056662E+00 -0.94985806939E+01  0.99890225486E+01  0.17770000000E+01 0. -1.
</event>
<event>
 6    1  0.1298204E-002  0.1918804E+03  0.7546771E-02  0.1061224E+00
        -11   -1    0    0    0    0  0.00000000000E+00  0.00000000000E+00  0.18250000000E+03  0.18250000000E+03  0.00000000000E+00 0.  1.
         11   -1    0    0    0    0 -0.00000000000E+00 -0.00000000000E+00 -0.18250000000E+03  0.18250000000E+03  0.00000000000E+00 0. -1.
        -11    1    1    2    0    0  0.37369037587E+01  0.16617543884E+00  0.17307918140E+03  0.17311959768E+03  0.00000000000E+00 0.  1.
         11    1    1    2    0    0 -0.14988101013E+01  0.70353722193E+00 -0.11500695729E+03  0.11501887507E+03  0.00000000000E+00 0. -1.
        -15    1    1    2    0    0  0.17316157972E+02  0.75530827615E+01 -0.50904486376E+02  0.54326078896E+02  0.17770000000E+01 0. -1.
         15    1    1    2    0    0 -0.19554251629E+02 -0.84227954222E+01 -0.71677377361E+01  0.22535448359E+02  0.17770000000E+01 0.  1.
</event>
<event>
 6    1  0.1298204E-002  0.1863934E+03  0.7546771E-02  0.1065397E+00
        -11   -1    0    0    0    0  0.00000000000E+00  0.00000000000E+00  0.18250000000E+03  0.18250000000E+03  0.00000000000E+00 0. -1.
         11   -1    0    0    0    0 -0.00000000000E+00 -0.00000000000E+00 -0.18250000000E+03  0.18250000000E+03  0.00000000000E+00 0.  1.
        -11    1    1    2    0    0 -0.70750561355E+01  0.38575181301E+01  0.97087487196E+02  0.97421337681E+02  0.00000000000E+00 0. -1.
         11    1    1    2    0    0 -0.23664774084E+01  0.40081418597E+01 -0.17854592717E+03  0.17860658870E+03  0.00000000000E+00 0.  1.
        -15    1    1    2    0    0  0.56938655012E+01  0.11163295061E+02  0.52980644727E+02  0.54471512790E+02  0.17770000000E+01 0. -1.
         15    1    1    2    0    0  0.37476680427E+01 -0.19028955051E+02  0.28477795252E+02  0.34500560828E+02  0.17770000000E+01 0.  1.
</event>
<event>
 6    1  0.1298204E-002  0.1533640E+03  0.7546771E-02  0.1094347E+00
        -11   -1    0    0    0    0  0.00000000000E+00  0.00000000000E+00  0.18250000000E+03  0.18250000000E+03  0.00000000000E+00 0.  1.
         11   -1    0    0    0    0 -0.00000000000E+00 -0.00000000000E+00 -0.18250000000E+03  0.18250000000E+03  0.00000000000E+00 0.  1.
        -11    1    1    2    0    0  0.74125704237E+01  0.96826522708E+01  0.14979891163E+03  0.15029442399E+03  0.00000000000E+00 0.  1.
         11    1    1    2    0    0 -0.26194534919E+01  0.42603057756E+01 -0.15678757389E+03  0.15686731676E+03  0.00000000000E+00 0.  1.
        -15    1    1    2    0    0 -0.23488630538E+02  0.74023590195E+01  0.14231947337E+02  0.28499416443E+02  0.17770000000E+01 0.  1.
         15    1    1    2    0    0  0.18695513606E+02 -0.21345317066E+02 -0.72432850794E+01  0.29338842809E+02  0.17770000000E+01 0. -1.
</event>
<event>
 6    1  0.1298204E-002  0.1921184E+03  0.7546771E-02  0.1061046E+00
        -11   -1    0    0    0    0  0.00000000000E+00  0.00000000000E+00  0.18250000000E+03  0.18250000000E+03  0.00000000000E+00 0.  1.
         11   -1    0    0    0    0 -0.00000000000E+00 -0.00000000000E+00 -0.18250000000E+03  0.18250000000E+03  0.00000000000E+00 0. -1.
        -11    1    1    2    0    0 -0.79716211181E+01  0.61691773198E+01  0.11688950481E+03  0.11732332175E+03  0.00000000000E+00 0.  1.
         11    1    1    2    0    0 -0.59767418503E+01  0.64509987978E+01 -0.17265781620E+03  0.17288163096E+03  0.00000000000E+00 0. -1.
        -15    1    1    2    0    0 -0.13691240544E+01 -0.19203767895E+02  0.54674699402E+02  0.57992583023E+02  0.17770000000E+01 0.  1.
         15    1    1    2    0    0  0.15317487023E+02  0.65835917771E+01  0.10936119913E+01  0.16802464271E+02  0.17770000000E+01 0. -1.
</event>
<event>
 6    1  0.1298204E-002  0.1826284E+03  0.7546771E-02  0.1068353E+00
        -11   -1    0    0    0    0  0.00000000000E+00  0.00000000000E+00  0.18250000000E+03  0.18250000000E+03  0.00000000000E+00 0. -1.
         11   -1    0    0    0    0 -0.00000000000E+00 -0.00000000000E+00 -0.18250000000E+03  0.18250000000E+03  0.00000000000E+00 0. -1.
        -11    1    1    2    0    0 -0.80606213080E+00 -0.67578109177E+00  0.13436626009E+02  0.13477734778E+02  0.00000000000E+00 0. -1.
         11    1    1    2    0    0  0.79706683939E+00  0.31972326741E+01 -0.18234184567E+03  0.18237161592E+03  0.00000000000E+00 0. -1.
        -15    1    1    2    0    0  0.16701657838E+01 -0.13956783505E+01  0.15265461802E+03  0.15268047519E+03  0.17770000000E+01 0. -1.
         15    1    1    2    0    0 -0.16611704924E+01 -0.11257732318E+01  0.16250601636E+02  0.16470174112E+02  0.17770000000E+01 0.  1.
</event>
<event>
 6    1  0.1298204E-002  0.1834782E+03  0.7546771E-02  0.1067679E+00
        -11   -1    0    0    0    0  0.00000000000E+00  0.00000000000E+00  0.18250000000E+03  0.18250000000E+03  0.00000000000E+00 0. -1.
         11   -1    0    0    0    0 -0.00000000000E+00 -0.00000000000E+00 -0.18250000000E+03  0.18250000000E+03  0.00000000000E+00 0.  1.
        -11    1    1    2    0    0  0.82720646426E+01 -0.13967973746E+02  0.18079441702E+03  0.18152176886E+03  0.00000000000E+00 0. -1.
         11    1    1    2    0    0  0.49208762248E+01  0.21563453204E+01 -0.33976779387E+02  0.34398930004E+02  0.00000000000E+00 0.  1.
        -15    1    1    2    0    0 -0.11050890995E+02  0.16782315111E+02 -0.11437803483E+03  0.11614327735E+03  0.17770000000E+01 0. -1.
         15    1    1    2    0    0 -0.21420498721E+01 -0.49706866855E+01 -0.32439602802E+02  0.32936023785E+02  0.17770000000E+01 0.  1.
</event>
<event>
 6    1  0.1298204E-002  0.1827144E+03  0.7546771E-02  0.1068284E+00
        -11   -1    0    0    0    0  0.00000000000E+00  0.00000000000E+00  0.18250000000E+03  0.18250000000E+03  0.00000000000E+00 0.  1.
         11   -1    0    0    0    0 -0.00000000000E+00 -0.00000000000E+00 -0.18250000000E+03  0.18250000000E+03  0.00000000000E+00 0. -1.
        -11    1    1    2    0    0  0.25333412019E+01  0.19221562520E+01  0.18225789055E+03  0.18228563073E+03  0.00000000000E+00 0.  1.
         11    1    1    2    0    0  0.15634567649E+01 -0.30253221491E+01 -0.84942308379E+02  0.85010544781E+02  0.00000000000E+00 0. -1.
        -15    1    1    2    0    0 -0.18492037431E+01  0.37328552632E+01 -0.39786524747E+02  0.40043464428E+02  0.17770000000E+01 0.  1.
         15    1    1    2    0    0 -0.22475942238E+01 -0.26296893661E+01 -0.57529057422E+02  0.57660360065E+02  0.17770000000E+01 0. -1.
</event>
<event>
 6    1  0.1298204E-002  0.1825426E+03  0.7546771E-02  0.1068421E+00
        -11   -1    0    0    0    0  0.00000000000E+00  0.00000000000E+00  0.18250000000E+03  0.18250000000E+03  0.00000000000E+00 0.  1.
         11   -1    0    0    0    0 -0.00000000000E+00 -0.00000000000E+00 -0.18250000000E+03  0.18250000000E+03  0.00000000000E+00 0. -1.
        -11    1    1    2    0    0 -0.36004762008E+01  0.13134057087E+01  0.18241712623E+03  0.18245738244E+03  0.00000000000E+00 0.  1.
         11    1    1    2    0    0  0.20547258613E+01  0.26332787029E-01 -0.45547773756E+02  0.45594103631E+02  0.00000000000E+00 0. -1.
        -15    1    1    2    0    0  0.90123682018E+00  0.43409760463E+00 -0.53412170498E+02  0.53451083757E+02  0.17770000000E+01 0. -1.
         15    1    1    2    0    0  0.64451351928E+00 -0.17738361003E+01 -0.83457181980E+02  0.83497430172E+02  0.17770000000E+01 0. -1.
</event>
<event>
 6    1  0.1298204E-002  0.1957354E+03  0.7546771E-02  0.1058382E+00
        -11   -1    0    0    0    0  0.00000000000E+00  0.00000000000E+00  0.18250000000E+03  0.18250000000E+03  0.00000000000E+00 0. -1.
         11   -1    0    0    0    0 -0.00000000000E+00 -0.00000000000E+00 -0.18250000000E+03  0.18250000000E+03  0.00000000000E+00 0.  1.
        -11    1    1    2    0    0  0.63743988848E+01  0.19139867016E+02  0.16805813946E+03  0.16926460265E+03  0.00000000000E+00 0. -1.
         11    1    1    2    0    0  0.63942377428E+00 -0.20430164721E+01 -0.14925636425E+03  0.14927171550E+03  0.00000000000E+00 0.  1.
        -15    1    1    2    0    0  0.65982631541E+01 -0.25496213773E+02 -0.11610303909E+02  0.28836623923E+02  0.17770000000E+01 0.  1.
         15    1    1    2    0    0 -0.13612085813E+02  0.83993632291E+01 -0.71914713064E+01  0.17627057933E+02  0.17770000000E+01 0. -1.
</event>
<event>
 6    1  0.1298204E-002  0.1880152E+03  0.7546771E-02  0.1064148E+00
        -11   -1    0    0    0    0  0.00000000000E+00  0.00000000000E+00  0.18250000000E+03  0.18250000000E+03  0.00000000000E+00 0. -1.
         11   -1    0    0    0    0 -0.00000000000E+00 -0.00000000000E+00 -0.18250000000E+03  0.18250000000E+03  0.00000000000E+00 0.  1.
        -11    1    1    2    0    0 -0.14982597032E+01 -0.19005219461E+01  0.17696823280E+03  0.17698477953E+03  0.00000000000E+00 0. -1.
         11    1    1    2    0    0 -0.15189539487E+01  0.10056235549E+01 -0.11364700501E+03  0.11366160410E+03  0.00000000000E+00 0.  1.
        -15    1    1    2    0    0 -0.11048196948E+02 -0.22583167359E+01 -0.23224369132E+01  0.11649639157E+02  0.17770000000E+01 0. -1.
         15    1    1    2    0    0  0.14065410599E+02  0.31532151271E+01 -0.60998790876E+02  0.62703977212E+02  0.17770000000E+01 0.  1.
</event>
<event>
 6    1  0.1298204E-002  0.1826926E+03  0.7546771E-02  0.1068302E+00
        -11   -1    0    0    0    0  0.00000000000E+00  0.00000000000E+00  0.18250000000E+03  0.18250000000E+03  0.00000000000E+00 0.  1.
         11   -1    0    0    0    0 -0.00000000000E+00 -0.00000000000E+00 -0.18250000000E+03  0.18250000000E+03  0.00000000000E+00 0. -1.
        -11    1    1    2    0    0 -0.13759815003E+01 -0.46477107134E+01  0.18224299132E+03  0.18230743930E+03  0.00000000000E+00 0.  1.
         11    1    1    2    0    0  0.17095274030E+01 -0.47132059495E+00 -0.99760677509E+02  0.99776437119E+02  0.00000000000E+00 0. -1.
        -15    1    1    2    0    0 -0.96042594143E+00 -0.21189740143E+00 -0.40996147739E+02  0.41046427091E+02  0.17770000000E+01 0.  1.
         15    1    1    2    0    0  0.62688003877E+00  0.53309287098E+01 -0.41486166072E+02  0.41869696487E+02  0.17770000000E+01 0.  1.
</event>
<event>
 6    1  0.1298204E-002  0.1834792E+03  0.7546771E-02  0.1067678E+00
        -11   -1    0    0    0    0  0.00000000000E+00  0.00000000000E+00  0.18250000000E+03  0.18250000000E+03  0.00000000000E+00 0.  1.
         11   -1    0    0    0    0 -0.00000000000E+00 -0.00000000000E+00 -0.18250000000E+03  0.18250000000E+03  0.00000000000E+00 0. -1.
        -11    1    1    2    0    0 -0.83957846030E+00 -0.23564641840E+01  0.16609420578E+03  0.16611304287E+03  0.00000000000E+00 0.  1.
         11    1    1    2    0    0  0.21414806659E+01 -0.15380563024E+01 -0.18150163517E+03  0.18152078428E+03  0.00000000000E+00 0. -1.
        -15    1    1    2    0    0 -0.12545643408E+01 -0.58631272773E+00  0.16609350121E+01  0.27989513062E+01  0.17770000000E+01 0.  1.
         15    1    1    2    0    0 -0.47337864791E-01  0.44808332141E+01  0.13746494371E+02  0.14567221549E+02  0.17770000000E+01 0. -1.
</event>
<event>
 6    1  0.1298204E-002  0.1885483E+03  0.7546771E-02  0.1063740E+00
        -11   -1    0    0    0    0  0.00000000000E+00  0.00000000000E+00  0.18250000000E+03  0.18250000000E+03  0.00000000000E+00 0.  1.
         11   -1    0    0    0    0 -0.00000000000E+00 -0.00000000000E+00 -0.18250000000E+03  0.18250000000E+03  0.00000000000E+00 0.  1.
        -11    1    1    2    0    0 -0.83619558942E+01 -0.29475272628E+01  0.11780777495E+03  0.11814094152E+03  0.00000000000E+00 0.  1.
         11    1    1    2    0    0 -0.15618380713E+01 -0.32010783476E+01 -0.17641574712E+03  0.17645169898E+03  0.00000000000E+00 0.  1.
        -15    1    1    2    0    0 -0.34933328906E+01 -0.50691190768E+01 -0.24570229009E+01  0.68625092667E+01  0.17770000000E+01 0.  1.
         15    1    1    2    0    0  0.13417126856E+02  0.11217724687E+02  0.61064995066E+02  0.63544850237E+02  0.17770000000E+01 0. -1.
</event>
<event>
 6    1  0.1298204E-002  0.1846354E+03  0.7546771E-02  0.1066768E+00
        -11   -1    0    0    0    0  0.00000000000E+00  0.00000000000E+00  0.18250000000E+03  0.18250000000E+03  0.00000000000E+00 0. -1.
         11   -1    0    0    0    0 -0.00000000000E+00 -0.00000000000E+00 -0.18250000000E+03  0.18250000000E+03  0.00000000000E+00 0.  1.
        -11    1    1    2    0    0 -0.40425799149E+01  0.37378665373E+01  0.14546738922E+03  0.14557154744E+03  0.00000000000E+00 0. -1.
         11    1    1    2    0    0 -0.41777475121E+01 -0.96548779374E+01 -0.18005749530E+03  0.18036455266E+03  0.00000000000E+00 0.  1.
        -15    1    1    2    0    0  0.15847470147E+01  0.50040109296E+01  0.30537172864E+02  0.31035917966E+02  0.17770000000E+01 0. -1.
         15    1    1    2    0    0  0.66355804122E+01  0.91300047044E+00  0.40529332157E+01  0.80279819330E+01  0.17770000000E+01 0.  1.
</event>
<event>
 6    1  0.1298204E-002  0.1935823E+03  0.7546771E-02  0.1059960E+00
        -11   -1    0    0    0    0  0.00000000000E+00  0.00000000000E+00  0.18250000000E+03  0.18250000000E+03  0.00000000000E+00 0.  1.
         11   -1    0    0    0    0 -0.00000000000E+00 -0.00000000000E+00 -0.18250000000E+03  0.18250000000E+03  0.00000000000E+00 0.  1.
        -11    1    1    2    0    0 -0.22164095256E+01  0.24224634676E+01  0.17138622944E+03  0.17141767833E+03  0.00000000000E+00 0.  1.
         11    1    1    2    0    0 -0.22907894207E+01 -0.53659945910E+01 -0.15707875861E+03  0.15718707969E+03  0.00000000000E+00 0.  1.
        -15    1    1    2    0    0  0.17371523790E+01 -0.55557518122E+01 -0.23005321545E+02  0.23796777618E+02  0.17770000000E+01 0. -1.
         15    1    1    2    0    0  0.27700465673E+01  0.84992829356E+01  0.86978507117E+01  0.12598464367E+02  0.17770000000E+01 0.  1.
</event>
<event>
 6    1  0.1298204E-002  0.1980374E+03  0.7546771E-02  0.1056719E+00
        -11   -1    0    0    0    0  0.00000000000E+00  0.00000000000E+00  0.18250000000E+03  0.18250000000E+03  0.00000000000E+00 0.  1.
         11   -1    0    0    0    0 -0.00000000000E+00 -0.00000000000E+00 -0.18250000000E+03  0.18250000000E+03  0.00000000000E+00 0. -1.
        -11    1    1    2    0    0  0.17181797829E+01  0.30051812839E+02  0.13312753743E+03  0.13648811237E+03  0.00000000000E+00 0.  1.
         11    1    1    2    0    0  0.37313265053E+01 -0.48548856716E+01 -0.16685031449E+03  0.16696263102E+03  0.00000000000E+00 0. -1.
        -15    1    1    2    0    0 -0.31948459713E+01 -0.27218983512E+02  0.43341257582E+02  0.51309866907E+02  0.17770000000E+01 0.  1.
         15    1    1    2    0    0 -0.22546603169E+01  0.20220563450E+01 -0.96184805224E+01  0.10239389707E+02  0.17770000000E+01 0.  1.
</event>
<event>
 6    1  0.1298204E-002  0.1754041E+03  0.7546771E-02  0.1074248E+00
        -11   -1    0    0    0    0  0.00000000000E+00  0.00000000000E+00  0.18250000000E+03  0.18250000000E+03  0.00000000000E+00 0.  1.
         11   -1    0    0    0    0 -0.00000000000E+00 -0.00000000000E+00 -0.18250000000E+03  0.18250000000E+03  0.00000000000E+00 0.  1.
        -11    1    1    2    0    0  0.83598938617E+00 -0.32427342063E+01  0.17646459495E+03  0.17649636674E+03  0.00000000000E+00 0.  1.
         11    1    1    2    0    0  0.39380462635E+01 -0.46039499266E+01 -0.17433319690E+03  0.17443843644E+03  0.00000000000E+00 0.  1.
        -15    1    1    2    0    0 -0.16793624400E+01 -0.82733667635E-02  0.31209107425E+01  0.39646108909E+01  0.17770000000E+01 0. -1.
         15    1    1    2    0    0 -0.30946732096E+01  0.78549574996E+01 -0.52523087841E+01  0.10100585931E+02  0.17770000000E+01 0.  1.
</event>
<event>
 6    1  0.1298204E-002  0.1871057E+03  0.7546771E-02  0.1064847E+00
        -11   -1    0    0    0    0  0.00000000000E+00  0.00000000000E+00  0.18250000000E+03  0.18250000000E+03  0.00000000000E+00 0.  1.
         11   -1    0    0    0    0 -0.00000000000E+00 -0.00000000000E+00 -0.18250000000E+03  0.18250000000E+03  0.00000000000E+00 0. -1.
        -11    1    1    2    0    0 -0.23935389450E+01  0.33292410424E+00  0.17303900894E+03  0.17305588255E+03  0.00000000000E+00 0.  1.
         11    1    1    2    0    0 -0.24720818041E+01 -0.10786374137E+01 -0.17787387900E+03  0.17789432671E+03  0.00000000000E+00 0. -1.
        -15    1    1    2    0    0 -0.10789290301E+01  0.79582866170E-02  0.71043065395E+01  0.74022328789E+01  0.17770000000E+01 0.  1.
         15    1    1    2    0    0  0.59445497791E+01  0.73775502284E+00 -0.22694364850E+01  0.66475578606E+01  0.17770000000E+01 0. -1.
</event>
<event>
 6    1  0.1298204E-002  0.1841270E+03  0.7546771E-02  0.1067167E+00
        -11   -1    0    0    0    0  0.00000000000E+00  0.00000000000E+00  0.18250000000E+03  0.18250000000E+03  0.00000000000E+00 0. -1.
         11   -1    0    0    0    0 -0.00000000000E+00 -0.00000000000E+00 -0.18250000000E+03  0.18250000000E+03  0.00000000000E+00 0.  1.
        -11    1    1    2    0    0  0.18403439494E+01 -0.19539093072E+01  0.18085309925E+03  0.18087301661E+03  0.00000000000E+00 0. -1.
         11    1    1    2    0    0 -0.24423801675E+01  0.21057380017E+01 -0.16406177981E+03  0.16409347016E+03  0.00000000000E+00 0.  1.
        -15    1    1    2    0    0 -0.10443984187E+01  0.25097564367E+01 -0.42405975563E+00  0.32752406179E+01  0.17770000000E+01 0. -1.
         15    1    1    2    0    0  0.16464346367E+01 -0.26615851313E+01 -0.16367259684E+02  0.16758272613E+02  0.17770000000E+01 0. -1.
</event>
<event>
 6    1  0.1298204E-002  0.1825507E+03  0.7546771E-02  0.1068414E+00
        -11   -1    0    0    0    0  0.00000000000E+00  0.00000000000E+00  0.18250000000E+03  0.18250000000E+03  0.00000000000E+00 0.  1.
         11   -1    0    0    0    0 -0.00000000000E+00 -0.00000000000E+00 -0.18250000000E+03  0.18250000000E+03  0.00000000000E+00 0. -1.
        -11    1    1    2    0    0 -0.54486072446E-01 -0.63073316782E+00  0.46911249700E+02  0.46915521328E+02  0.00000000000E+00 0.  1.
         11    1    1    2    0    0 -0.49515943410E+00  0.31153413864E+01 -0.18242206610E+03  0.18244933744E+03  0.00000000000E+00 0. -1.
        -15    1    1    2    0    0 -0.11204676518E+01 -0.24587941890E+01  0.91132205277E+02  0.91189570041E+02  0.17770000000E+01 0.  1.
         15    1    1    2    0    0  0.16701131583E+01 -0.25814029509E-01  0.44378611118E+02  0.44445571187E+02  0.17770000000E+01 0.  1.
</event>
<event>
 6    1  0.1298204E-002  0.1857086E+03  0.7546771E-02  0.1065929E+00
        -11   -1    0    0    0    0  0.00000000000E+00  0.00000000000E+00  0.18250000000E+03  0.18250000000E+03  0.00000000000E+00 0.  1.
         11   -1    0    0    0    0 -0.00000000000E+00 -0.00000000000E+00 -0.18250000000E+03  0.18250000000E+03  0.00000000000E+00 0.  1.
        -11    1    1    2    0    0 -0.33539191420E+01 -0.12381920770E+00  0.17926002526E+03  0.17929144085E+03  0.00000000000E+00 0.  1.
         11    1    1    2    0    0  0.82548275388E+00 -0.22351681719E+01 -0.17558169870E+03  0.17559786535E+03  0.00000000000E+00 0.  1.
        -15    1    1    2    0    0 -0.27544693332E+01  0.19596899879E+01 -0.12569037973E+01  0.40205748733E+01  0.17770000000E+01 0. -1.
         15    1    1    2    0    0  0.52829057213E+01  0.39929739176E+00 -0.24214227664E+01  0.60901189217E+01  0.17770000000E+01 0.  1.
</event>
<event>
 6    1  0.1298204E-002  0.2075599E+03  0.7546771E-02  0.1050091E+00
        -11   -1    0    0    0    0  0.00000000000E+00  0.00000000000E+00  0.18250000000E+03  0.18250000000E+03  0.00000000000E+00 0.  1.
         11   -1    0    0    0    0 -0.00000000000E+00 -0.00000000000E+00 -0.18250000000E+03  0.18250000000E+03  0.00000000000E+00 0. -1.
        -11    1    1    2    0    0 -0.19803849300E+01 -0.49699662428E+00  0.14718400864E+03  0.14719817026E+03  0.00000000000E+00 0.  1.
         11    1    1    2    0    0  0.55036128496E+01  0.29373882661E+01 -0.15731642722E+03  0.15744007202E+03  0.00000000000E+00 0. -1.
        -15    1    1    2    0    0  0.56920431126E+01  0.22619478356E+02  0.21042056984E+02  0.31463725892E+02  0.17770000000E+01 0. -1.
         15    1    1    2    0    0 -0.92152710322E+01 -0.25059869998E+02 -0.10909638405E+02  0.28898031830E+02  0.17770000000E+01 0.  1.
</event>
<event>
 6    1  0.1298204E-002  0.1840776E+03  0.7546771E-02  0.1067206E+00
        -11   -1    0    0    0    0  0.00000000000E+00  0.00000000000E+00  0.18250000000E+03  0.18250000000E+03  0.00000000000E+00 0.  1.
         11   -1    0    0    0    0 -0.00000000000E+00 -0.00000000000E+00 -0.18250000000E+03  0.18250000000E+03  0.00000000000E+00 0. -1.
        -11    1    1    2    0    0 -0.24769249993E+01 -0.23390543040E+01  0.15961831601E+03  0.15965466839E+03  0.00000000000E+00 0.  1.
         11    1    1    2    0    0 -0.38811212381E+01  0.10848270680E+00 -0.18088073656E+03  0.18092240251E+03  0.00000000000E+00 0. -1.
        -15    1    1    2    0    0  0.38105391241E+01 -0.21615103725E+01  0.16741109253E+02  0.17395827187E+02  0.17770000000E+01 0. -1.
         15    1    1    2    0    0  0.25475071134E+01  0.43920819697E+01  0.45213112898E+01  0.70271019134E+01  0.17770000000E+01 0.  1.
</event>
<event>
 6    1  0.1298204E-002  0.1826329E+03  0.7546771E-02  0.1068349E+00
        -11   -1    0    0    0    0  0.00000000000E+00  0.00000000000E+00  0.18250000000E+03  0.18250000000E+03  0.00000000000E+00 0.  1.
         11   -1    0    0    0    0 -0.00000000000E+00 -0.00000000000E+00 -0.18250000000E+03  0.18250000000E+03  0.00000000000E+00 0.  1.
        -11    1    1    2    0    0 -0.81859060671E+00 -0.23162245895E+01  0.12741669606E+03  0.12744037595E+03  0.00000000000E+00 0.  1.
         11    1    1    2    0    0 -0.23555387993E+01  0.29522217427E+01 -0.18232795599E+03  0.18236706860E+03  0.00000000000E+00 0.  1.
        -15    1    1    2    0    0  0.26258409037E+01  0.71112898378E+00  0.34416181630E+02  0.34569235339E+02  0.17770000000E+01 0.  1.
         15    1    1    2    0    0  0.54828850228E+00 -0.13471261370E+01  0.20495078296E+02  0.20623320113E+02  0.17770000000E+01 0. -1.
</event>
<event>
 6    1  0.1298204E-002  0.1843605E+03  0.7546771E-02  0.1066983E+00
        -11   -1    0    0    0    0  0.00000000000E+00  0.00000000000E+00  0.18250000000E+03  0.18250000000E+03  0.00000000000E+00 0. -1.
         11   -1    0    0    0    0 -0.00000000000E+00 -0.00000000000E+00 -0.18250000000E+03  0.18250000000E+03  0.00000000000E+00 0. -1.
        -11    1    1    2    0    0 -0.51574980034E+00  0.26785953207E+01  0.17326701689E+03  0.17328848782E+03  0.00000000000E+00 0. -1.
         11    1    1    2    0    0 -0.10159496738E+01  0.22539414830E+01 -0.18062262519E+03  0.18063954477E+03  0.00000000000E+00 0. -1.
        -15    1    1    2    0    0  0.15011719218E+01 -0.58158195715E+01  0.51906176883E+01  0.81349563867E+01  0.17770000000E+01 0. -1.
         15    1    1    2    0    0  0.30527552325E-01  0.88328276780E+00  0.21649906112E+01  0.29370110190E+01  0.17770000000E+01 0.  1.
</event>
<event>
 6    1  0.1298204E-002  0.1828142E+03  0.7546771E-02  0.1068205E+00
        -11   -1    0    0    0    0  0.00000000000E+00  0.00000000000E+00  0.18250000000E+03  0.18250000000E+03  0.00000000000E+00 0. -1.
         11   -1    0    0    0    0 -0.00000000000E+00 -0.00000000000E+00 -0.18250000000E+03  0.18250000000E+03  0.00000000000E+00 0.  1.
        -11    1    1    2    0    0 -0.25654863752E+01  0.16469043087E+01  0.93782958509E+02  0.93832496081E+02  0.00000000000E+00 0. -1.
         11    1    1    2    0    0  0.39266110355E+01  0.29038441291E+01 -0.18212028382E+03  0.18218575236E+03  0.00000000000E+00 0.  1.
        -15    1    1    2    0    0  0.29404199030E+01 -0.41513625489E+01  0.61969735825E+02  0.62203583236E+02  0.17770000000E+01 0.  1.
         15    1    1    2    0    0 -0.43015445633E+01 -0.39938588886E+00  0.26367589483E+02  0.26778168325E+02  0.17770000000E+01 0. -1.
</event>
<event>
 6    1  0.1298204E-002  0.1828971E+03  0.7546771E-02  0.1068139E+00
        -11   -1    0    0    0    0  0.00000000000E+00  0.00000000000E+00  0.18250000000E+03  0.18250000000E+03  0.00000000000E+00 0. -1.
         11   -1    0    0    0    0 -0.00000000000E+00 -0.00000000000E+00 -0.18250000000E+03  0.18250000000E+03  0.00000000000E+00 0.  1.
        -11    1    1    2    0    0  0.89104593843E-01  0.26540996266E+01  0.14928650937E+03  0.14931012713E+03  0.00000000000E+00 0. -1.
         11    1    1    2    0    0 -0.41186530462E+01  0.23411353042E+00 -0.18205617479E+03  0.18210290742E+03  0.00000000000E+00 0.  1.
        -15    1    1    2    0    0  0.51211962792E+00 -0.28418122530E+00  0.17593765297E+02  0.17692974081E+02  0.17770000000E+01 0.  1.
         15    1    1    2    0    0  0.35174288244E+01 -0.26040319317E+01  0.15175900126E+02  0.15893991364E+02  0.17770000000E+01 0. -1.
</event>
<event>
 6    1  0.1298204E-002  0.1935181E+03  0.7546771E-02  0.1060008E+00
        -11   -1    0    0    0    0  0.00000000000E+00  0.00000000000E+00  0.18250000000E+03  0.18250000000E+03  0.00000000000E+00 0. -1.
         11   -1    0    0    0    0 -0.00000000000E+00 -0.00000000000E+00 -0.18250000000E+03  0.18250000000E+03  0.00000000000E+00 0. -1.
        -11    1    1    2    0    0 -0.34197297599E+01 -0.10858932740E+01  0.16938146726E+03  0.16941946513E+03  0.00000000000E+00 0. -1.
         11    1    1    2    0    0  0.20558150357E+01  0.35801634027E+01 -0.17143218243E+03  0.17148188569E+03  0.00000000000E+00 0. -1.
        -15    1    1    2    0    0 -0.10053115056E+01 -0.23934933933E+01 -0.10625103197E+02  0.11081065328E+02  0.17770000000E+01 0.  1.
         15    1    1    2    0    0  0.23692262297E+01 -0.10077673546E+00  0.12675818375E+02  0.13017583852E+02  0.17770000000E+01 0.  1.
</event>
<event>
 6    1  0.1298204E-002  0.1854382E+03  0.7546771E-02  0.1066140E+00
        -11   -1    0    0    0    0  0.00000000000E+00  0.00000000000E+00  0.18250000000E+03  0.18250000000E+03  0.00000000000E+00 0.  1.
         11   -1    0    0    0    0 -0.00000000000E+00 -0.00000000000E+00 -0.18250000000E+03  0.18250000000E+03  0.00000000000E+00 0.  1.
        -11    1    1    2    0    0 -0.24751300158E+01  0.13404791494E+01  0.17953972757E+03  0.17956179140E+03  0.00000000000E+00 0.  1.
         11    1    1    2    0    0 -0.20069362437E+01  0.79911690159E-01 -0.90208284011E+02  0.90230641598E+02  0.00000000000E+00 0.  1.
        -15    1    1    2    0    0 -0.12314570819E+02 -0.77358578765E+01 -0.45895593786E+02  0.48177332943E+02  0.17770000000E+01 0. -1.
         15    1    1    2    0    0  0.16796637078E+02  0.63154670369E+01 -0.43435849777E+02  0.47030234061E+02  0.17770000000E+01 0.  1.
</event>
<event>
 6    1  0.1298204E-002  0.1836655E+03  0.7546771E-02  0.1067531E+00
        -11   -1    0    0    0    0  0.00000000000E+00  0.00000000000E+00  0.18250000000E+03  0.18250000000E+03  0.00000000000E+00 0.  1.
         11   -1    0    0    0    0 -0.00000000000E+00 -0.00000000000E+00 -0.18250000000E+03  0.18250000000E+03  0.00000000000E+00 0.  1.
        -11    1    1    2    0    0 -0.34108642129E+01  0.75820972473E+00  0.15528046082E+03  0.15531976819E+03  0.00000000000E+00 0.  1.
         11    1    1    2    0    0  0.53473253411E+01  0.66951285159E+01 -0.18113190138E+03  0.18133445434E+03  0.00000000000E+00 0.  1.
        -15    1    1    2    0    0  0.27135102523E+00 -0.26943431876E+01  0.20105778239E+02  0.20364998507E+02  0.17770000000E+01 0. -1.
         15    1    1    2    0    0 -0.22078121534E+01 -0.47589950530E+01  0.57456623153E+01  0.79807789633E+01  0.17770000000E+01 0.  1.
</event>
<event>
 6    1  0.1298204E-002  0.1837753E+03  0.7546771E-02  0.1067444E+00
        -11   -1    0    0    0    0  0.00000000000E+00  0.00000000000E+00  0.18250000000E+03  0.18250000000E+03  0.00000000000E+00 0. -1.
         11   -1    0    0    0    0 -0.00000000000E+00 -0.00000000000E+00 -0.18250000000E+03  0.18250000000E+03  0.00000000000E+00 0.  1.
        -11    1    1    2    0    0 -0.16252093155E+01  0.21644020811E+01  0.18120453080E+03  0.18122474424E+03  0.00000000000E+00 0. -1.
         11    1    1    2    0    0 -0.31645887732E+01  0.84149596678E+00 -0.15520166302E+03  0.15523620371E+03  0.00000000000E+00 0.  1.
        -15    1    1    2    0    0  0.46410974627E+01 -0.23781240736E+01 -0.49652088043E+01  0.74166223605E+01  0.17770000000E+01 0.  1.
         15    1    1    2    0    0  0.14870062602E+00 -0.62777397423E+00 -0.21037658978E+02  0.21122429697E+02  0.17770000000E+01 0.  1.
</event>
<event>
 6    1  0.1298204E-002  0.1826191E+03  0.7546771E-02  0.1068360E+00
        -11   -1    0    0    0    0  0.00000000000E+00  0.00000000000E+00  0.18250000000E+03  0.18250000000E+03  0.00000000000E+00 0.  1.
         11   -1    0    0    0    0 -0.00000000000E+00 -0.00000000000E+00 -0.18250000000E+03  0.18250000000E+03  0.00000000000E+00 0. -1.
        -11    1    1    2    0    0  0.23256725271E+01  0.13637684884E+01  0.18236094927E+03  0.18238087739E+03  0.00000000000E+00 0.  1.
         11    1    1    2    0    0  0.15159580653E+01 -0.17573730789E+01 -0.80842286331E+02  0.80875594268E+02  0.00000000000E+00 0. -1.
        -15    1    1    2    0    0  0.58146971849E+00  0.62212778601E+00 -0.26405892677E+02  0.26479313569E+02  0.17770000000E+01 0. -1.
         15    1    1    2    0    0 -0.44231003109E+01 -0.22852319550E+00 -0.75112770267E+02  0.75264214773E+02  0.17770000000E+01 0. -1.
</event>
<event>
 6    1  0.1298204E-002  0.1828910E+03  0.7546771E-02  0.1068144E+00
        -11   -1    0    0    0    0  0.00000000000E+00  0.00000000000E+00  0.18250000000E+03  0.18250000000E+03  0.00000000000E+00 0.  1.
         11   -1    0    0    0    0 -0.00000000000E+00 -0.00000000000E+00 -0.18250000000E+03  0.18250000000E+03  0.00000000000E+00 0. -1.
        -11    1    1    2    0    0  0.68551937713E+00 -0.11031504540E+01  0.41824650133E+02  0.41844811345E+02  0.00000000000E+00 0.  1.
         11    1    1    2    0    0 -0.71390079551E+01  0.10265341423E+02 -0.18167927351E+03  0.18210903627E+03  0.00000000000E+00 0. -1.
        -15    1    1    2    0    0  0.47039045742E+01 -0.11616101098E+02  0.12948544983E+03  0.13010265166E+03  0.17770000000E+01 0.  1.
         15    1    1    2    0    0  0.17495840038E+01  0.24539101290E+01  0.10369173546E+02  0.10943500726E+02  0.17770000000E+01 0. -1.
</event>
<event>
 6    1  0.1298204E-002  0.1830585E+03  0.7546771E-02  0.1068011E+00
        -11   -1    0    0    0    0  0.00000000000E+00  0.00000000000E+00  0.18250000000E+03  0.18250000000E+03  0.00000000000E+00 0. -1.
         11   -1    0    0    0    0 -0.00000000000E+00 -0.00000000000E+00 -0.18250000000E+03  0.18250000000E+03  0.00000000000E+00 0.  1.
        -11    1    1    2    0    0  0.36395685158E+01 -0.90439581556E-01  0.18190503766E+03  0.18194146686E+03  0.00000000000E+00 0. -1.
         11    1    1    2    0    0  0.28285839204E+01 -0.37862719706E+01 -0.73632140507E+02  0.73783662542E+02  0.00000000000E+00 0.  1.
        -15    1    1    2    0    0 -0.83401427311E+00 -0.38368587326E+01 -0.19428772118E+02  0.19901054740E+02  0.17770000000E+01 0. -1.
         15    1    1    2    0    0 -0.56341381630E+01  0.77135702848E+01 -0.88844125032E+02  0.89373815859E+02  0.17770000000E+01 0.  1.
</event>
<event>
 6    1  0.1298204E-002  0.1825413E+03  0.7546771E-02  0.1068422E+00
        -11   -1    0    0    0    0  0.00000000000E+00  0.00000000000E+00  0.18250000000E+03  0.18250000000E+03  0.00000000000E+00 0.  1.
         11   -1    0    0    0    0 -0.00000000000E+00 -0.00000000000E+00 -0.18250000000E+03  0.18250000000E+03  0.00000000000E+00 0.  1.
        -11    1    1    2    0    0  0.25299000835E+01  0.98658943233E+00  0.18243851525E+03  0.18245872301E+03  0.00000000000E+00 0.  1.
         11    1    1    2    0    0 -0.15260348262E+01  0.72564756071E+00 -0.76299363021E+02  0.76318072199E+02  0.00000000000E+00 0.  1.
        -15    1    1    2    0    0  0.60656638401E-01 -0.68692316923E+00 -0.44851835811E+02  0.44892320583E+02  0.17770000000E+01 0.  1.
         15    1    1    2    0    0 -0.10645218957E+01 -0.10253138238E+01 -0.61287316420E+02  0.61330884213E+02  0.17770000000E+01 0.  1.
</event>
<event>
 6    1  0.1298204E-002  0.1831066E+03  0.7546771E-02  0.1067973E+00
        -11   -1    0    0    0    0  0.00000000000E+00  0.00000000000E+00  0.18250000000E+03  0.18250000000E+03  0.00000000000E+00 0. -1.
         11   -1    0    0    0    0 -0.00000000000E+00 -0.00000000000E+00 -0.18250000000E+03  0.18250000000E+03  0.00000000000E+00 0.  1.
        -11    1    1    2    0    0 -0.19824333525E+01  0.44484585401E+01  0.15158143894E+03  0.15165965666E+03  0.00000000000E+00 0. -1.
         11    1    1    2    0    0  0.18191187671E+01  0.20855077145E+01 -0.18187234471E+03  0.18189339819E+03  0.00000000000E+00 0.  1.
        -15    1    1    2    0    0  0.17871244630E+00 -0.15125729862E+01  0.41097696064E+01  0.47294556129E+01  0.17770000000E+01 0.  1.
         15    1    1    2    0    0 -0.15397860856E-01 -0.50213932684E+01  0.26181136161E+02  0.26717489536E+02  0.17770000000E+01 0. -1.
</event>
<event>
 6    1  0.1298204E-002  0.1837862E+03  0.7546771E-02  0.1067436E+00
        -11   -1    0    0    0    0  0.00000000000E+00  0.00000000000E+00  0.18250000000E+03  0.18250000000E+03  0.00000000000E+00 0.  1.
         11   -1    0    0    0    0 -0.00000000000E+00 -0.00000000000E+00 -0.18250000000E+03  0.18250000000E+03  0.00000000000E+00 0.  1.
        -11    1    1    2    0    0  0.32132943427E+01  0.84077180094E+00  0.18118337587E+03  0.18121381804E+03  0.00000000000E+00 0.  1.
         11    1    1    2    0    0  0.14068129735E+01  0.20607586733E+01 -0.17262268674E+03  0.17264071891E+03  0.00000000000E+00 0.  1.
        -15    1    1    2    0    0 -0.41712559696E+01 -0.21065514126E+01 -0.50499693110E+01  0.71061138648E+01  0.17770000000E+01 0. -1.
         15    1    1    2    0    0 -0.44885134662E+00 -0.79497906163E+00 -0.35107198189E+01  0.40393491910E+01  0.17770000000E+01 0.  1.
</event>
<event>
 6    1  0.1298204E-002  0.1783117E+03  0.7546771E-02  0.1071838E+00
        -11   -1    0    0    0    0  0.00000000000E+00  0.00000000000E+00  0.18250000000E+03  0.18250000000E+03  0.00000000000E+00 0.  1.
         11   -1    0    0    0    0 -0.00000000000E+00 -0.00000000000E+00 -0.18250000000E+03  0.18250000000E+03  0.00000000000E+00 0. -1.
        -11    1    1    2    0    0  0.25587885360E+01  0.29702759424E+01  0.17766617971E+03  0.17770942955E+03  0.00000000000E+00 0.  1.
         11    1    1    2    0    0  0.23649323069E+01 -0.16244752403E+01 -0.17892983420E+03  0.17895283566E+03  0.00000000000E+00 0. -1.
        -15    1    1    2    0    0  0.45958909932E+00  0.73635255497E+00  0.11697395730E+01  0.22977068773E+01  0.17770000000E+01 0. -1.
         15    1    1    2    0    0 -0.53833099422E+01 -0.20821532570E+01  0.93914911482E-01  0.60400279081E+01  0.17770000000E+01 0.  1.
</event>
<event>
 6    1  0.1298204E-002  0.1857078E+03  0.7546771E-02  0.1065930E+00
        -11   -1    0    0    0    0  0.00000000000E+00  0.00000000000E+00  0.18250000000E+03  0.18250000000E+03  0.00000000000E+00 0.  1.
         11   -1    0    0    0    0 -0.00000000000E+00 -0.00000000000E+00 -0.18250000000E+03  0.18250000000E+03  0.00000000000E+00 0. -1.
        -11    1    1    2    0    0 -0.65072126751E+00 -0.23973464148E+01  0.16811460899E+03  0.16813296067E+03  0.00000000000E+00 0.  1.
         11    1    1    2    0    0 -0.37822474091E+01 -0.40802467106E+01 -0.17920583349E+03  0.17929217653E+03  0.00000000000E+00 0. -1.
        -15    1    1    2    0    0  0.47119162783E+01  0.15020428419E+01 -0.34523074490E-01  0.52552077557E+01  0.17770000000E+01 0.  1.
         15    1    1    2    0    0 -0.27894760174E+00  0.49755502835E+01  0.11125747575E+02  0.12319655047E+02  0.17770000000E+01 0. -1.
</event>
<event>
 6    1  0.1298204E-002  0.1832228E+03  0.7546771E-02  0.1067881E+00
        -11   -1    0    0    0    0  0.00000000000E+00  0.00000000000E+00  0.18250000000E+03  0.18250000000E+03  0.00000000000E+00 0. -1.
         11   -1    0    0    0    0 -0.00000000000E+00 -0.00000000000E+00 -0.18250000000E+03  0.18250000000E+03  0.00000000000E+00 0.  1.
        -11    1    1    2    0    0 -0.19351249325E+01  0.24116829403E+01  0.16253024379E+03  0.16255965388E+03  0.00000000000E+00 0. -1.
         11    1    1    2    0    0 -0.24848711177E+01  0.90029043549E+00 -0.18175798764E+03  0.18177720203E+03  0.00000000000E+00 0.  1.
        -15    1    1    2    0    0  0.16502150261E+01  0.45211552229E+00  0.80188517023E+01  0.83897157104E+01  0.17770000000E+01 0.  1.
         15    1    1    2    0    0  0.27697810242E+01 -0.37640888980E+01  0.11208892147E+02  0.12273428385E+02  0.17770000000E+01 0. -1.
</event>
<event>
 6    1  0.1298204E-002  0.1832375E+03  0.7546771E-02  0.1067869E+00
        -11   -1    0    0    0    0  0.00000000000E+00  0.00000000000E+00  0.18250000000E+03  0.18250000000E+03  0.00000000000E+00 0.  1.
         11   -1    0    0    0    0 -0.00000000000E+00 -0.00000000000E+00 -0.18250000000E+03  0.18250000000E+03  0.00000000000E+00 0. -1.
        -11    1    1    2    0    0  0.86135132069E+01 -0.42029463244E+01  0.18150963252E+03  0.18176249356E+03  0.00000000000E+00 0.  1.
         11    1    1    2    0    0  0.32507369977E+00 -0.28732177831E+01 -0.69668371407E+02  0.69728351679E+02  0.00000000000E+00 0. -1.
        -15    1    1    2    0    0 -0.69981889239E+01  0.10043075409E+02 -0.10389145233E+03  0.10462518630E+03  0.17770000000E+01 0. -1.
         15    1    1    2    0    0 -0.19403979828E+01 -0.29669113010E+01 -0.79498087792E+01  0.88839684615E+01  0.17770000000E+01 0.  1.
</event>
<event>
 6    1  0.1298204E-002  0.1838114E+03  0.7546771E-02  0.1067416E+00
        -11   -1    0    0    0    0  0.00000000000E+00  0.00000000000E+00  0.18250000000E+03  0.18250000000E+03  0.00000000000E+00 0.  1.
         11   -1    0    0    0    0 -0.00000000000E+00 -0.00000000000E+00 -0.18250000000E+03  0.18250000000E+03  0.00000000000E+00 0. -1.
        -11    1    1    2    0    0 -0.21865283498E+01  0.38456271416E+01  0.13283825950E+03  0.13291189918E+03  0.00000000000E+00 0.  1.
         11    1    1    2    0    0  0.42036749921E+01 -0.65146362460E+01 -0.18102261722E+03  0.18118857391E+03  0.00000000000E+00 0. -1.
        -15    1    1    2    0    0  0.38380975386E+01  0.55614044329E+01  0.38223525233E+02  0.38856863258E+02  0.17770000000E+01 0.  1.
         15    1    1    2    0    0 -0.58552441808E+01 -0.28923953284E+01  0.99608324862E+01  0.12042663658E+02  0.17770000000E+01 0. -1.
</event>
<event>
 6    1  0.1298204E-002  0.2174889E+03  0.7546771E-02  0.1043580E+00
        -11   -1    0    0    0    0  0.00000000000E+00  0.00000000000E+00  0.18250000000E+03  0.18250000000E+03  0.00000000000E+00 0. -1.
         11   -1    0    0    0    0 -0.00000000000E+00 -0.00000000000E+00 -0.18250000000E+03  0.18250000000E+03  0.00000000000E+00 0. -1.
        -11    1    1    2    0    0  0.24114969526E+01  0.23936678480E-01  0.13027348243E+03  0.13029580237E+03  0.00000000000E+00 0. -1.
         11    1    1    2    0    0 -0.14909304343E+01 -0.56856213503E+01 -0.14739394181E+03  0.14751109533E+03  0.00000000000E+00 0. -1.
        -15    1    1    2    0    0  0.10956664906E+02 -0.32158955320E+02  0.30118361884E+02  0.45436993350E+02  0.17770000000E+01 0. -1.
         15    1    1    2    0    0 -0.11877231424E+02  0.37820639992E+02 -0.12997902504E+02  0.41756108945E+02  0.17770000000E+01 0.  1.
</event>
<event>
 6    1  0.1298204E-002  0.1827405E+03  0.7546771E-02  0.1068264E+00
        -11   -1    0    0    0    0  0.00000000000E+00  0.00000000000E+00  0.18250000000E+03  0.18250000000E+03  0.00000000000E+00 0.  1.
         11   -1    0    0    0    0 -0.00000000000E+00 -0.00000000000E+00 -0.18250000000E+03  0.18250000000E+03  0.00000000000E+00 0.  1.
        -11    1    1    2    0    0  0.34608064533E+01 -0.19159886809E+01  0.18221657198E+03  0.18225950537E+03  0.00000000000E+00 0.  1.
         11    1    1    2    0    0  0.32460957715E+00 -0.21246306253E+01 -0.61239861769E+02  0.61277566011E+02  0.00000000000E+00 0.  1.
        -15    1    1    2    0    0 -0.10065768392E+01 -0.26581543099E+01 -0.32930948591E+02  0.33101119096E+02  0.17770000000E+01 0.  1.
         15    1    1    2    0    0 -0.27788391912E+01  0.66987736162E+01 -0.88045761616E+02  0.88361809526E+02  0.17770000000E+01 0. -1.
</event>
<event>
 6    1  0.1298204E-002  0.1827090E+03  0.7546771E-02  0.1068289E+00
        -11   -1    0    0    0    0  0.00000000000E+00  0.00000000000E+00  0.18250000000E+03  0.18250000000E+03  0.00000000000E+00 0. -1.
         11   -1    0    0    0    0 -0.00000000000E+00 -0.00000000000E+00 -0.18250000000E+03  0.18250000000E+03  0.00000000000E+00 0. -1.
        -11    1    1    2    0    0  0.17825866293E+01  0.29302918230E+01  0.18225869669E+03  0.18229096726E+03  0.00000000000E+00 0. -1.
         11    1    1    2    0    0 -0.28149765108E+01  0.16635677320E+01 -0.10084772284E+03  0.10090071731E+03  0.00000000000E+00 0. -1.
        -15    1    1    2    0    0  0.90175212751E+00 -0.32622475349E+00 -0.51713674797E+02  0.51753081739E+02  0.17770000000E+01 0. -1.
         15    1    1    2    0    0  0.13063775404E+00 -0.42676348015E+01 -0.29697299047E+02  0.30055233699E+02  0.17770000000E+01 0. -1.
</event>
<event>
 6    1  0.1298204E-002  0.1784228E+03  0.7546771E-02  0.1071747E+00
        -11   -1    0    0    0    0  0.00000000000E+00  0.00000000000E+00  0.18250000000E+03  0.18250000000E+03  0.00000000000E+00 0. -1.
         11   -1    0    0    0    0 -0.00000000000E+00 -0.00000000000E+00 -0.18250000000E+03  0.18250000000E+03  0.00000000000E+00 0.  1.
        -11    1    1    2    0    0  0.19125996414E+01 -0.14935762754E+01  0.17720399633E+03  0.17722061145E+03  0.00000000000E+00 0. -1.
         11    1    1    2    0    0  0.21580722091E+01  0.32766868989E+01 -0.17961805574E+03  0.17966090254E+03  0.00000000000E+00 0.  1.
        -15    1    1    2    0    0 -0.11480270672E+01 -0.32847337312E+01  0.55630859119E+00  0.39464731192E+01  0.17770000000E+01 0.  1.
         15    1    1    2    0    0 -0.29226447833E+01  0.15016231076E+01  0.18577508239E+01  0.41720128967E+01  0.17770000000E+01 0. -1.
</event>
<event>
 6    1  0.1298204E-002  0.1923852E+03  0.7546771E-02  0.1060848E+00
        -11   -1    0    0    0    0  0.00000000000E+00  0.00000000000E+00  0.18250000000E+03  0.18250000000E+03  0.00000000000E+00 0.  1.
         11   -1    0    0    0    0 -0.00000000000E+00 -0.00000000000E+00 -0.18250000000E+03  0.18250000000E+03  0.00000000000E+00 0.  1.
        -11    1    1    2    0    0 -0.15784472964E+01 -0.27348187519E+01  0.13231133556E+03  0.13234900924E+03  0.00000000000E+00 0.  1.
         11    1    1    2    0    0  0.27779169108E+01 -0.13333773323E+01 -0.17258728168E+03  0.17261478649E+03  0.00000000000E+00 0.  1.
        -15    1    1    2    0    0 -0.45519804823E+01 -0.19461898248E+01 -0.89057626487E+01  0.10343042033E+02  0.17770000000E+01 0. -1.
         15    1    1    2    0    0  0.33525108679E+01  0.60143859091E+01  0.49181708766E+02  0.49693162237E+02  0.17770000000E+01 0. -1.
</event>
<event>
 6    1  0.1298204E-002  0.1863147E+03  0.7546771E-02  0.1065458E+00
        -11   -1    0    0    0    0  0.00000000000E+00  0.00000000000E+00  0.18250000000E+03  0.18250000000E+03  0.00000000000E+00 0.  1.
         11   -1    0    0    0    0 -0.00000000000E+00 -0.00000000000E+00 -0.18250000000E+03  0.18250000000E+03  0.00000000000E+00 0.  1.
        -11    1    1    2    0    0  0.16359813081E+00 -0.28183432052E+01  0.15842076597E+03  0.15844591795E+03  0.00000000000E+00 0.  1.
         11    1    1    2    0    0 -0.23924589633E+01  0.26244258788E+01 -0.17865001566E+03  0.17868530876E+03  0.00000000000E+00 0.  1.
        -15    1    1    2    0    0  0.27536797581E+01 -0.28764554975E+01 -0.23862032651E+01  0.49707588416E+01  0.17770000000E+01 0.  1.
         15    1    1    2    0    0 -0.52481892563E+00  0.30703728239E+01  0.22615452959E+02  0.22898014449E+02  0.17770000000E+01 0.  1.
</event>
<event>
 6    1  0.1298204E-002  0.1753950E+03  0.7546771E-02  0.1074255E+00
        -11   -1    0    0    0    0  0.00000000000E+00  0.00000000000E+00  0.18250000000E+03  0.18250000000E+03  0.00000000000E+00 0. -1.
         11   -1    0    0    0    0 -0.00000000000E+00 -0.00000000000E+00 -0.18250000000E+03  0.18250000000E+03  0.00000000000E+00 0. -1.
        -11    1    1    2    0    0 -0.10717250269E+01 -0.40150184002E+01  0.17650654737E+03  0.17655545937E+03  0.00000000000E+00 0. -1.
         11    1    1    2    0    0 -0.38605354295E+01  0.10108300555E+00 -0.17425552771E+03  0.17429831580E+03  0.00000000000E+00 0. -1.
        -15    1    1    2    0    0  0.28490085101E+01  0.25807776446E+01  0.48385950142E+01  0.64301627859E+01  0.17770000000E+01 0. -1.
         15    1    1    2    0    0  0.20832519463E+01  0.13331577501E+01 -0.70896146760E+01  0.77160620470E+01  0.17770000000E+01 0.  1.
</event>
<event>
 6    1  0.1298204E-002  0.1837131E+03  0.7546771E-02  0.1067493E+00
        -11   -1    0    0    0    0  0.00000000000E+00  0.00000000000E+00  0.18250000000E+03  0.18250000000E+03  0.00000000000E+00 0. -1.
         11   -1    0    0    0    0 -0.00000000000E+00 -0.00000000000E+00 -0.18250000000E+03  0.18250000000E+03  0.00000000000E+00 0. -1.
        -11    1    1    2    0    0 -0.21594156794E+01  0.16054279872E+01  0.12754966006E+03  0.12757803986E+03  0.00000000000E+00 0. -1.
         11    1    1    2    0    0 -0.26243063719E+01 -0.27296310076E+01 -0.18124734063E+03  0.18128688964E+03  0.00000000000E+00 0. -1.
        -15    1    1    2    0    0  0.62489164261E+01 -0.34875936614E+01  0.47522141362E+02  0.48090788252E+02  0.17770000000E+01 0.  1.
         15    1    1    2    0    0 -0.14651943747E+01  0.46117966818E+01  0.61755392152E+01  0.80442822420E+01  0.17770000000E+01 0. -1.
</event>
<event>
 6    1  0.1298204E-002  0.1828669E+03  0.7546771E-02  0.1068163E+00
        -11   -1    0    0    0    0  0.00000000000E+00  0.00000000000E+00  0.18250000000E+03  0.18250000000E+03  0.00000000000E+00 0.  1.
         11   -1    0    0    0    0 -0.00000000000E+00 -0.00000000000E+00 -0.18250000000E+03  0.18250000000E+03  0.00000000000E+00 0.  1.
        -11    1    1    2    0    0 -0.27036957430E+01  0.24367390131E+01  0.12932170133E+03  0.12937291100E+03  0.00000000000E+00 0.  1.
         11    1    1    2    0    0  0.25590012566E+01  0.24091045707E+01 -0.18209923591E+03  0.18213314907E+03  0.00000000000E+00 0.  1.
        -15    1    1    2    0    0  0.55682288031E-01  0.69874762444E+00  0.48288787884E+01  0.51929902863E+01  0.17770000000E+01 0. -1.
         15    1    1    2    0    0  0.89012198350E-01 -0.55445912083E+01  0.47948655792E+02  0.48300949640E+02  0.17770000000E+01 0. -1.
</event>
<event>
 6    1  0.1298204E-002  0.1866540E+03  0.7546771E-02  0.1065195E+00
        -11   -1    0    0    0    0  0.00000000000E+00  0.00000000000E+00  0.18250000000E+03  0.18250000000E+03  0.00000000000E+00 0. -1.
         11   -1    0    0    0    0 -0.00000000000E+00 -0.00000000000E+00 -0.18250000000E+03  0.18250000000E+03  0.00000000000E+00 0. -1.
        -11    1    1    2    0    0 -0.24108526681E+01 -0.45079257530E+00  0.15558238906E+03  0.15560171982E+03  0.00000000000E+00 0. -1.
         11    1    1    2    0    0  0.26176691993E+01 -0.34187728401E+01 -0.17829401117E+03  0.17834599692E+03  0.00000000000E+00 0. -1.
        -15    1    1    2    0    0  0.89067932995E+01  0.61983629813E+01  0.15780710610E+02  0.19233804275E+02  0.17770000000E+01 0. -1.
         15    1    1    2    0    0 -0.91136098307E+01 -0.23287975658E+01  0.69309115016E+01  0.11818478984E+02  0.17770000000E+01 0.  1.
</event>
<event>
 6    1  0.1298204E-002  0.1894504E+03  0.7546771E-02  0.1063053E+00
        -11   -1    0    0    0    0  0.00000000000E+00  0.00000000000E+00  0.18250000000E+03  0.18250000000E+03  0.00000000000E+00 0. -1.
         11   -1    0    0    0    0 -0.00000000000E+00 -0.00000000000E+00 -0.18250000000E+03  0.18250000000E+03  0.00000000000E+00 0.  1.
        -11    1    1    2    0    0  0.44465326057E+00  0.40021387801E+01  0.12537908027E+03  0.12544372683E+03  0.00000000000E+00 0. -1.
         11    1    1    2    0    0 -0.32439745950E+01  0.61875151483E+01 -0.17541050769E+03  0.17554957967E+03  0.00000000000E+00 0.  1.
        -15    1    1    2    0    0  0.11663477130E+02 -0.83858336295E+01  0.14373155189E+01  0.14545876025E+02  0.17770000000E+01 0.  1.
         15    1    1    2    0    0 -0.88641557955E+01 -0.18038202989E+01  0.48594111899E+02  0.49460817481E+02  0.17770000000E+01 0. -1.
</event>
<event>
 6    1  0.1298204E-002  0.1970354E+03  0.7546771E-02  0.1057439E+00
        -11   -1    0    0    0    0  0.00000000000E+00  0.00000000000E+00  0.18250000000E+03  0.18250000000E+03  0.00000000000E+00 0. -1.
         11   -1    0    0    0    0 -0.00000000000E+00 -0.00000000000E+00 -0.18250000000E+03  0.18250000000E+03  0.00000000000E+00 0.  1.
        -11    1    1    2    0    0  0.17185285752E+02 -0.32310397712E+02  0.56391863739E+02  0.67226022809E+02  0.00000000000E+00 0. -1.
         11    1    1    2    0    0  0.22444016518E+01 -0.56433033730E+00 -0.16794866141E+03  0.16796460542E+03  0.00000000000E+00 0.  1.
        -15    1    1    2    0    0 -0.87377967315E+01 -0.58801863454E+00 -0.34233679954E+01  0.95693278274E+01  0.17770000000E+01 0.  1.
         15    1    1    2    0    0 -0.10691890672E+02  0.33462746684E+02  0.11498016566E+03  0.12024004394E+03  0.17770000000E+01 0. -1.
</event>
<event>
 6    1  0.1298204E-002  0.1848480E+03  0.7546771E-02  0.1066601E+00
        -11   -1    0    0    0    0  0.00000000000E+00  0.00000000000E+00  0.18250000000E+03  0.18250000000E+03  0.00000000000E+00 0.  1.
         11   -1    0    0    0    0 -0.00000000000E+00 -0.00000000000E+00 -0.18250000000E+03  0.18250000000E+03  0.00000000000E+00 0.  1.
        -11    1    1    2    0    0 -0.57660514989E+01 -0.70813993743E+00  0.17508185879E+03  0.17517821237E+03  0.00000000000E+00 0.  1.
         11    1    1    2    0    0  0.19739694467E+01  0.19765821037E+01 -0.18013032147E+03  0.18015198068E+03  0.00000000000E+00 0.  1.
        -15    1    1    2    0    0 -0.91513342188E+00 -0.16908075793E+01  0.13033459502E+00  0.26212622068E+01  0.17770000000E+01 0. -1.
         15    1    1    2    0    0  0.47072154741E+01  0.42236541308E+00  0.49181280812E+01  0.70485447352E+01  0.17770000000E+01 0. -1.
</event>
<event>
 6    1  0.1298204E-002  0.1853285E+03  0.7546771E-02  0.1066225E+00
        -11   -1    0    0    0    0  0.00000000000E+00  0.00000000000E+00  0.18250000000E+03  0.18250000000E+03  0.00000000000E+00 0.  1.
         11   -1    0    0    0    0 -0.00000000000E+00 -0.00000000000E+00 -0.18250000000E+03  0.18250000000E+03  0.00000000000E+00 0. -1.
        -11    1    1    2    0    0 -0.25242993076E+01 -0.55538023684E+00  0.15515717085E+03  0.15517869764E+03  0.00000000000E+00 0.  1.
         11    1    1    2    0    0  0.38955001676E+01  0.50995765648E+01 -0.17955681646E+03  0.17967145276E+03  0.00000000000E+00 0. -1.
        -15    1    1    2    0    0  0.63193354575E+01 -0.34754064294E+01  0.19330510626E+02  0.20708423903E+02  0.17770000000E+01 0.  1.
         15    1    1    2    0    0 -0.76905363175E+01 -0.10687898986E+01  0.50691349748E+01  0.94414256916E+01  0.17770000000E+01 0. -1.
</event>
<event>
 6    1  0.1298204E-002  0.1868062E+03  0.7546771E-02  0.1065078E+00
        -11   -1    0    0    0    0  0.00000000000E+00  0.00000000000E+00  0.18250000000E+03  0.18250000000E+03  0.00000000000E+00 0. -1.
         11   -1    0    0    0    0 -0.00000000000E+00 -0.00000000000E+00 -0.18250000000E+03  0.18250000000E+03  0.00000000000E+00 0.  1.
        -11    1    1    2    0    0  0.13550853571E+01 -0.36518508980E+01  0.13441381001E+03  0.13447023683E+03  0.00000000000E+00 0. -1.
         11    1    1    2    0    0 -0.29873256110E+01 -0.81081994659E+00 -0.17816695381E+03  0.17819384100E+03  0.00000000000E+00 0.  1.
        -15    1    1    2    0    0  0.85441618365E+01 -0.94073169915E+01  0.16113886232E+02  0.20598916791E+02  0.17770000000E+01 0. -1.
         15    1    1    2    0    0 -0.69119215825E+01  0.13869987836E+02  0.27639257563E+02  0.31737005375E+02  0.17770000000E+01 0.  1.
</event>
<event>
 6    1  0.1298204E-002  0.1841297E+03  0.7546771E-02  0.1067165E+00
        -11   -1    0    0    0    0  0.00000000000E+00  0.00000000000E+00  0.18250000000E+03  0.18250000000E+03  0.00000000000E+00 0.  1.
         11   -1    0    0    0    0 -0.00000000000E+00 -0.00000000000E+00 -0.18250000000E+03  0.18250000000E+03  0.00000000000E+00 0.  1.
        -11    1    1    2    0    0 -0.15124031557E+01 -0.21761276834E+01  0.17379568139E+03  0.17381588467E+03  0.00000000000E+00 0.  1.
         11    1    1    2    0    0 -0.83853439368E+00  0.37227115506E+01 -0.18083008894E+03  0.18087034800E+03  0.00000000000E+00 0.  1.
        -15    1    1    2    0    0  0.45098484209E+00 -0.16771858562E+01 -0.32600377761E+00  0.25060620876E+01  0.17770000000E+01 0. -1.
         15    1    1    2    0    0  0.18999527073E+01  0.13060198899E+00  0.73604113258E+01  0.78077052361E+01  0.17770000000E+01 0.  1.
</event>
<event>
 6    1  0.1298204E-002  0.1850450E+03  0.7546771E-02  0.1066447E+00
        -11   -1    0    0    0    0  0.00000000000E+00  0.00000000000E+00  0.18250000000E+03  0.18250000000E+03  0.00000000000E+00 0. -1.
         11   -1    0    0    0    0 -0.00000000000E+00 -0.00000000000E+00 -0.18250000000E+03  0.18250000000E+03  0.00000000000E+00 0.  1.
        -11    1    1    2    0    0  0.61221828000E+01 -0.82842197558E-01  0.17985084794E+03  0.17995503741E+03  0.00000000000E+00 0. -1.
         11    1    1    2    0    0 -0.10160433786E+01 -0.32557409337E+01 -0.17068920551E+03  0.17072327630E+03  0.00000000000E+00 0.  1.
        -15    1    1    2    0    0 -0.45587514178E+01  0.81471837336E+00 -0.35404197003E+00  0.49728317118E+01  0.17770000000E+01 0. -1.
         15    1    1    2    0    0 -0.54738800366E+00  0.25238647579E+01 -0.88076004614E+01  0.93488545731E+01  0.17770000000E+01 0.  1.
</event>
<event>
 6    1  0.1298204E-002  0.1916345E+03  0.7546771E-02  0.1061408E+00
        -11   -1    0    0    0    0  0.00000000000E+00  0.00000000000E+00  0.18250000000E+03  0.18250000000E+03  0.00000000000E+00 0. -1.
         11   -1    0    0    0    0 -0.00000000000E+00 -0.00000000000E+00 -0.18250000000E+03  0.18250000000E+03  0.00000000000E+00 0. -1.
        -11    1    1    2    0    0  0.10732357657E+02 -0.48077306460E+01  0.17296613244E+03  0.17336545430E+03  0.00000000000E+00 0. -1.
         11    1    1    2    0    0  0.20846221631E+01  0.55362017847E+00 -0.15738836045E+03  0.15740313895E+03  0.00000000000E+00 0. -1.
        -15    1    1    2    0    0 -0.16201721961E+02 -0.28994579310E+01  0.12758976893E+00  0.16555260764E+02  0.17770000000E+01 0. -1.
         15    1    1    2    0    0  0.33847421406E+01  0.71535683985E+01 -0.15705361751E+02  0.17676145986E+02  0.17770000000E+01 0.  1.
</event>
<event>
 6    1  0.1298204E-002  0.1829957E+03  0.7546771E-02  0.1068061E+00
        -11   -1    0    0    0    0  0.00000000000E+00  0.00000000000E+00  0.18250000000E+03  0.18250000000E+03  0.00000000000E+00 0. -1.
         11   -1    0    0    0    0 -0.00000000000E+00 -0.00000000000E+00 -0.18250000000E+03  0.18250000000E+03  0.00000000000E+00 0.  1.
        -11    1    1    2    0    0 -0.14279267498E+01 -0.20319145357E+01  0.15685992055E+03  0.15687957906E+03  0.00000000000E+00 0. -1.
         11    1    1    2    0    0  0.39537655799E+01 -0.65331036377E+00 -0.18196015540E+03  0.18200427805E+03  0.00000000000E+00 0.  1.
        -15    1    1    2    0    0 -0.21923611683E+01  0.40275611094E+01  0.18491901235E+02  0.19134676278E+02  0.17770000000E+01 0. -1.
         15    1    1    2    0    0 -0.33347766186E+00 -0.13423362099E+01  0.66083336136E+01  0.69814666081E+01  0.17770000000E+01 0.  1.
</event>
<event>
 6    1  0.1298204E-002  0.1833754E+03  0.7546771E-02  0.1067760E+00
        -11   -1    0    0    0    0  0.00000000000E+00  0.00000000000E+00  0.18250000000E+03  0.18250000000E+03  0.00000000000E+00 0.  1.
         11   -1    0    0    0    0 -0.00000000000E+00 -0.00000000000E+00 -0.18250000000E+03  0.18250000000E+03  0.00000000000E+00 0. -1.
        -11    1    1    2    0    0  0.20194669447E+01  0.15078999322E+01  0.15454562107E+03  0.15456617030E+03  0.00000000000E+00 0.  1.
         11    1    1    2    0    0 -0.14809666181E+01  0.34577196651E+01 -0.18158560523E+03  0.18162456088E+03  0.00000000000E+00 0. -1.
        -15    1    1    2    0    0 -0.39559170478E+01 -0.14489777234E+01  0.10150692213E+02  0.11132973436E+02  0.17770000000E+01 0.  1.
         15    1    1    2    0    0  0.34174167212E+01 -0.35166418738E+01  0.16889291944E+02  0.17676295384E+02  0.17770000000E+01 0. -1.
</event>
<event>
 6    1  0.1298204E-002  0.1830259E+03  0.7546771E-02  0.1068037E+00
        -11   -1    0    0    0    0  0.00000000000E+00  0.00000000000E+00  0.18250000000E+03  0.18250000000E+03  0.00000000000E+00 0.  1.
         11   -1    0    0    0    0 -0.00000000000E+00 -0.00000000000E+00 -0.18250000000E+03  0.18250000000E+03  0.00000000000E+00 0. -1.
        -11    1    1    2    0    0  0.32842420810E+01  0.22803197805E+01  0.18193013926E+03  0.18197406869E+03  0.00000000000E+00 0.  1.
         11    1    1    2    0    0 -0.16967563084E+01  0.21058034925E+01 -0.14045122219E+03  0.14047725511E+03  0.00000000000E+00 0. -1.
        -15    1    1    2    0    0 -0.23552469450E+01 -0.17323139856E+00 -0.52536104753E+01  0.60278809972E+01  0.17770000000E+01 0.  1.
         15    1    1    2    0    0  0.76776117244E+00 -0.42128918744E+01 -0.36225306596E+02  0.36520795201E+02  0.17770000000E+01 0. -1.
</event>
<event>
 6    1  0.1298204E-002  0.1829899E+03  0.7546771E-02  0.1068066E+00
        -11   -1    0    0    0    0  0.00000000000E+00  0.00000000000E+00  0.18250000000E+03  0.18250000000E+03  0.00000000000E+00 0.  1.
         11   -1    0    0    0    0 -0.00000000000E+00 -0.00000000000E+00 -0.18250000000E+03  0.18250000000E+03  0.00000000000E+00 0. -1.
        -11    1    1    2    0    0 -0.22108556046E+00 -0.21897183336E+01  0.95369747391E+02  0.95395138570E+02  0.00000000000E+00 0.  1.
         11    1    1    2    0    0  0.33677094729E+01 -0.31633244398E+01 -0.18195149351E+03  0.18201014829E+03  0.00000000000E+00 0. -1.
        -15    1    1    2    0    0 -0.13835774659E+01 -0.24364370698E+01  0.91697247885E+01  0.97515175176E+01  0.17770000000E+01 0. -1.
         15    1    1    2    0    0 -0.17630464465E+01  0.77894798432E+01  0.77412021333E+02  0.77843195624E+02  0.17770000000E+01 0.  1.
</event>
<event>
 6    1  0.1298204E-002  0.1833775E+03  0.7546771E-02  0.1067758E+00
        -11   -1    0    0    0    0  0.00000000000E+00  0.00000000000E+00  0.18250000000E+03  0.18250000000E+03  0.00000000000E+00 0.  1.
         11   -1    0    0    0    0 -0.00000000000E+00 -0.00000000000E+00 -0.18250000000E+03  0.18250000000E+03  0.00000000000E+00 0. -1.
        -11    1    1    2    0    0 -0.58607417595E+01  0.44953407571E+01  0.18147225716E+03  0.18162251099E+03  0.00000000000E+00 0.  1.
         11    1    1    2    0    0  0.11747612853E+01 -0.69597209376E+00 -0.63469579332E+02  0.63484265308E+02  0.00000000000E+00 0. -1.
        -15    1    1    2    0    0  0.78211777657E+00  0.58291946760E-01 -0.11005732298E+03  0.11007446196E+03  0.17770000000E+01 0. -1.
         15    1    1    2    0    0  0.39038626976E+01 -0.38576606101E+01 -0.79453548468E+01  0.98187617339E+01  0.17770000000E+01 0.  1.
</event>
<event>
 6    1  0.1298204E-002  0.1827764E+03  0.7546771E-02  0.1068235E+00
        -11   -1    0    0    0    0  0.00000000000E+00  0.00000000000E+00  0.18250000000E+03  0.18250000000E+03  0.00000000000E+00 0.  1.
         11   -1    0    0    0    0 -0.00000000000E+00 -0.00000000000E+00 -0.18250000000E+03  0.18250000000E+03  0.00000000000E+00 0.  1.
        -11    1    1    2    0    0 -0.18678011131E+01  0.21044002653E+01  0.18220187540E+03  0.18222360050E+03  0.00000000000E+00 0.  1.
         11    1    1    2    0    0 -0.18476940539E+01 -0.14519379374E+01 -0.12351708672E+03  0.12353943828E+03  0.00000000000E+00 0.  1.
        -15    1    1    2    0    0  0.47789888182E+01 -0.83721119028E+00 -0.27384357304E+02  0.27867551213E+02  0.17770000000E+01 0.  1.
         15    1    1    2    0    0 -0.10634936513E+01  0.18474886238E+00 -0.31300431374E+02  0.31369410005E+02  0.17770000000E+01 0.  1.
</event>
<event>
 6    1  0.1298204E-002  0.1852289E+03  0.7546771E-02  0.1066303E+00
        -11   -1    0    0    0    0  0.00000000000E+00  0.00000000000E+00  0.18250000000E+03  0.18250000000E+03  0.00000000000E+00 0. -1.
         11   -1    0    0    0    0 -0.00000000000E+00 -0.00000000000E+00 -0.18250000000E+03  0.18250000000E+03  0.00000000000E+00 0.  1.
        -11    1    1    2    0    0 -0.22123366750E+01  0.15687580701E+01  0.17975063240E+03  0.17977109135E+03  0.00000000000E+00 0. -1.
         11    1    1    2    0    0  0.34863920505E+01 -0.47530354641E+01 -0.12728022993E+03  0.12741665199E+03  0.00000000000E+00 0.  1.
        -15    1    1    2    0    0  0.74946324989E+01 -0.22402492173E+01 -0.42864151294E+02  0.43608272472E+02  0.17770000000E+01 0.  1.
         15    1    1    2    0    0 -0.87686878744E+01  0.54245266114E+01 -0.96062511827E+01  0.14203984187E+02  0.17770000000E+01 0.  1.
</event>
<event>
 6    1  0.1298204E-002  0.1794201E+03  0.7546771E-02  0.1070933E+00
        -11   -1    0    0    0    0  0.00000000000E+00  0.00000000000E+00  0.18250000000E+03  0.18250000000E+03  0.00000000000E+00 0. -1.
         11   -1    0    0    0    0 -0.00000000000E+00 -0.00000000000E+00 -0.18250000000E+03  0.18250000000E+03  0.00000000000E+00 0.  1.
        -11    1    1    2    0    0 -0.87506656290E+00 -0.33514172059E+01  0.17949923691E+03  0.17953265383E+03  0.00000000000E+00 0. -1.
         11    1    1    2    0    0 -0.14836625421E+01  0.22882363431E+01 -0.17929625254E+03  0.17931699154E+03  0.00000000000E+00 0.  1.
        -15    1    1    2    0    0 -0.61357383774E+00 -0.45330041400E+00  0.10078537479E+01  0.21806999557E+01  0.17770000000E+01 0. -1.
         15    1    1    2    0    0  0.29723029428E+01  0.15164812768E+01 -0.12108381179E+01  0.39696546694E+01  0.17770000000E+01 0.  1.
</event>
<event>
 6    1  0.1298204E-002  0.1886799E+03  0.7546771E-02  0.1063639E+00
        -11   -1    0    0    0    0  0.00000000000E+00  0.00000000000E+00  0.18250000000E+03  0.18250000000E+03  0.00000000000E+00 0. -1.
         11   -1    0    0    0    0 -0.00000000000E+00 -0.00000000000E+00 -0.18250000000E+03  0.18250000000E+03  0.00000000000E+00 0.  1.
        -11    1    1    2    0    0 -0.10470645663E+02 -0.10445326320E+02  0.17569872169E+03  0.17632010681E+03  0.00000000000E+00 0. -1.
         11    1    1    2    0    0 -0.39616693050E+01 -0.35353772401E+01 -0.13105830048E+03  0.13116581811E+03  0.00000000000E+00 0.  1.
        -15    1    1    2    0    0  0.22282763138E+02  0.11835063380E+02 -0.22478480175E+02  0.33838292780E+02  0.17770000000E+01 0.  1.
         15    1    1    2    0    0 -0.78504481700E+01  0.21456401803E+01 -0.22161941033E+02  0.23675782302E+02  0.17770000000E+01 0. -1.
</event>
<event>
 6    1  0.1298204E-002  0.1717919E+03  0.7546771E-02  0.1077313E+00
        -11   -1    0    0    0    0  0.00000000000E+00  0.00000000000E+00  0.18250000000E+03  0.18250000000E+03  0.00000000000E+00 0. -1.
         11   -1    0    0    0    0 -0.00000000000E+00 -0.00000000000E+00 -0.18250000000E+03  0.18250000000E+03  0.00000000000E+00 0.  1.
        -11    1    1    2    0    0 -0.26866195763E+01  0.11904453105E+02  0.17069336798E+03  0.17112907351E+03  0.00000000000E+00 0. -1.
         11    1    1    2    0    0 -0.32820132009E+01 -0.39032731429E+01 -0.17252924363E+03  0.17260459745E+03  0.00000000000E+00 0.  1.
        -15    1    1    2    0    0  0.50704401448E+01 -0.10394228887E+02  0.81275978383E+01  0.14246576187E+02  0.17770000000E+01 0. -1.
         15    1    1    2    0    0  0.89819263238E+00  0.23930489255E+01 -0.62917221816E+01  0.70197528571E+01  0.17770000000E+01 0.  1.
</event>
<event>
 6    1  0.1298204E-002  0.1847879E+03  0.7546771E-02  0.1066648E+00
        -11   -1    0    0    0    0  0.00000000000E+00  0.00000000000E+00  0.18250000000E+03  0.18250000000E+03  0.00000000000E+00 0. -1.
         11   -1    0    0    0    0 -0.00000000000E+00 -0.00000000000E+00 -0.18250000000E+03  0.18250000000E+03  0.00000000000E+00 0.  1.
        -11    1    1    2    0    0  0.18160735681E+01  0.16293317748E+01  0.18019558499E+03  0.18021210197E+03  0.00000000000E+00 0. -1.
         11    1    1    2    0    0  0.43492776925E+00 -0.37397406367E+01 -0.16893097244E+03  0.16897292171E+03  0.00000000000E+00 0.  1.
        -15    1    1    2    0    0 -0.35223042333E+01 -0.59079051118E+00  0.39147627567E-01  0.39893510847E+01  0.17770000000E+01 0. -1.
         15    1    1    2    0    0  0.12713028959E+01  0.27011993730E+01 -0.11303760178E+02  0.11825625238E+02  0.17770000000E+01 0.  1.
</event>
<event>
 6    1  0.1298204E-002  0.1839374E+03  0.7546771E-02  0.1067316E+00
        -11   -1    0    0    0    0  0.00000000000E+00  0.00000000000E+00  0.18250000000E+03  0.18250000000E+03  0.00000000000E+00 0.  1.
         11   -1    0    0    0    0 -0.00000000000E+00 -0.00000000000E+00 -0.18250000000E+03  0.18250000000E+03  0.00000000000E+00 0. -1.
        -11    1    1    2    0    0  0.28176559142E+01 -0.18649690083E+01  0.18103108573E+03  0.18106261706E+03  0.00000000000E+00 0.  1.
         11    1    1    2    0    0  0.27018083746E+01 -0.71181002477E+00 -0.16854544001E+03  0.16856859669E+03  0.00000000000E+00 0. -1.
        -15    1    1    2    0    0 -0.33963674891E+01  0.35832892305E+01 -0.46996712769E+01  0.70441403266E+01  0.17770000000E+01 0. -1.
         15    1    1    2    0    0 -0.21230967998E+01 -0.10065101975E+01 -0.77859744446E+01  0.83246459294E+01  0.17770000000E+01 0.  1.
</event>
<event>
 6    1  0.1298204E-002  0.1848265E+03  0.7546771E-02  0.1066618E+00
        -11   -1    0    0    0    0  0.00000000000E+00  0.00000000000E+00  0.18250000000E+03  0.18250000000E+03  0.00000000000E+00 0.  1.
         11   -1    0    0    0    0 -0.00000000000E+00 -0.00000000000E+00 -0.18250000000E+03  0.18250000000E+03  0.00000000000E+00 0.  1.
        -11    1    1    2    0    0 -0.10615792446E+01  0.32534283090E+01  0.18014097242E+03  0.18017347665E+03  0.00000000000E+00 0.  1.
         11    1    1    2    0    0  0.11808575720E+01 -0.21395210708E+01 -0.17389827729E+03  0.17391544733E+03  0.00000000000E+00 0.  1.
        -15    1    1    2    0    0 -0.26543065743E+01  0.21382237263E+01 -0.48936125240E+01  0.62227418900E+01  0.17770000000E+01 0.  1.
         15    1    1    2    0    0  0.25350282470E+01 -0.32521309645E+01 -0.13490826045E+01  0.46883341281E+01  0.17770000000E+01 0.  1.
</event>
<event>
 6    1  0.1298204E-002  0.1834902E+03  0.7546771E-02  0.1067669E+00
        -11   -1    0    0    0    0  0.00000000000E+00  0.00000000000E+00  0.18250000000E+03  0.18250000000E+03  0.00000000000E+00 0. -1.
         11   -1    0    0    0    0 -0.00000000000E+00 -0.00000000000E+00 -0.18250000000E+03  0.18250000000E+03  0.00000000000E+00 0. -1.
        -11    1    1    2    0    0  0.13499186903E+02  0.89029663138E-01  0.18100708037E+03  0.18150977692E+03  0.00000000000E+00 0. -1.
         11    1    1    2    0    0  0.12358300477E+01 -0.15920295402E+01 -0.10624628227E+03  0.10626539574E+03  0.00000000000E+00 0. -1.
        -15    1    1    2    0    0 -0.12639848568E+02  0.36545945034E+01 -0.37127168492E+02  0.39429762896E+02  0.17770000000E+01 0. -1.
         15    1    1    2    0    0 -0.20951683826E+01 -0.21515946263E+01 -0.37633629608E+02  0.37795064445E+02  0.17770000000E+01 0.  1.
</event>
<event>
 6    1  0.1298204E-002  0.1867969E+03  0.7546771E-02  0.1065085E+00
        -11   -1    0    0    0    0  0.00000000000E+00  0.00000000000E+00  0.18250000000E+03  0.18250000000E+03  0.00000000000E+00 0. -1.
         11   -1    0    0    0    0 -0.00000000000E+00 -0.00000000000E+00 -0.18250000000E+03  0.18250000000E+03  0.00000000000E+00 0.  1.
        -11    1    1    2    0    0  0.27859568407E+01  0.19974729093E+01  0.14745949726E+03  0.14749933825E+03  0.00000000000E+00 0. -1.
         11    1    1    2    0    0 -0.38946470873E+01  0.15251427431E+01 -0.17815401287E+03  0.17820310501E+03  0.00000000000E+00 0.  1.
        -15    1    1    2    0    0 -0.52955235229E+01 -0.58945384921E+01  0.31183834071E+02  0.32223863670E+02  0.17770000000E+01 0.  1.
         15    1    1    2    0    0  0.64042137695E+01  0.23719228397E+01 -0.48931846470E+00  0.70736930611E+01  0.17770000000E+01 0. -1.
</event>
<event>
 6    1  0.1298204E-002  0.1938302E+03  0.7546771E-02  0.1059777E+00
        -11   -1    0    0    0    0  0.00000000000E+00  0.00000000000E+00  0.18250000000E+03  0.18250000000E+03  0.00000000000E+00 0. -1.
         11   -1    0    0    0    0 -0.00000000000E+00 -0.00000000000E+00 -0.18250000000E+03  0.18250000000E+03  0.00000000000E+00 0. -1.
        -11    1    1    2    0    0 -0.17575573656E+02  0.23932110950E+02  0.16857473838E+03  0.17116976702E+03  0.00000000000E+00 0. -1.
         11    1    1    2    0    0  0.39201276033E+01 -0.95073081364E+01 -0.14644330161E+03  0.14680394033E+03  0.00000000000E+00 0. -1.
        -15    1    1    2    0    0 -0.34181391484E+01  0.39694638102E+00 -0.23962289322E+02  0.24273242063E+02  0.17770000000E+01 0. -1.
         15    1    1    2    0    0  0.17073585201E+02 -0.14821749195E+02  0.18308525580E+01  0.22753050584E+02  0.17770000000E+01 0.  1.
</event>
<event>
 6    1  0.1298204E-002  0.1842289E+03  0.7546771E-02  0.1067087E+00
        -11   -1    0    0    0    0  0.00000000000E+00  0.00000000000E+00  0.18250000000E+03  0.18250000000E+03  0.00000000000E+00 0.  1.
         11   -1    0    0    0    0 -0.00000000000E+00 -0.00000000000E+00 -0.18250000000E+03  0.18250000000E+03  0.00000000000E+00 0.  1.
        -11    1    1    2    0    0  0.67039012885E+00 -0.22748932149E+01  0.16660529760E+03  0.16662217665E+03  0.00000000000E+00 0.  1.
         11    1    1    2    0    0  0.20104683000E+01  0.23476462174E+01 -0.18074470655E+03  0.18077113257E+03  0.00000000000E+00 0.  1.
        -15    1    1    2    0    0 -0.12200862741E+01  0.45672306142E+01  0.89413156470E+01  0.10269034059E+02  0.17770000000E+01 0.  1.
         15    1    1    2    0    0 -0.14607721547E+01 -0.46399836167E+01  0.51980932958E+01  0.73376567215E+01  0.17770000000E+01 0.  1.
</event>
<event>
 6    1  0.1298204E-002  0.8585622E+02  0.7546771E-02  0.1190822E+00
        -11   -1    0    0    0    0  0.00000000000E+00  0.00000000000E+00  0.18250000000E+03  0.18250000000E+03  0.00000000000E+00 0.  1.
         11   -1    0    0    0    0 -0.00000000000E+00 -0.00000000000E+00 -0.18250000000E+03  0.18250000000E+03  0.00000000000E+00 0. -1.
        -11    1    1    2    0    0 -0.29070229903E+01 -0.58992339249E+00  0.10979870362E+03  0.10983876414E+03  0.00000000000E+00 0.  1.
         11    1    1    2    0    0  0.38242786407E+01 -0.27163427227E+01 -0.11141712524E+03  0.11151582588E+03  0.00000000000E+00 0. -1.
        -15    1    1    2    0    0 -0.31558347049E+02  0.33905249740E+02  0.56905804713E+02  0.73395664500E+02  0.17770000000E+01 0.  1.
         15    1    1    2    0    0  0.30641091399E+02 -0.30598983625E+02 -0.55287383089E+02  0.70249745471E+02  0.17770000000E+01 0. -1.
</event>
<event>
 6    1  0.1298204E-002  0.1861695E+03  0.7546771E-02  0.1065571E+00
        -11   -1    0    0    0    0  0.00000000000E+00  0.00000000000E+00  0.18250000000E+03  0.18250000000E+03  0.00000000000E+00 0. -1.
         11   -1    0    0    0    0 -0.00000000000E+00 -0.00000000000E+00 -0.18250000000E+03  0.18250000000E+03  0.00000000000E+00 0.  1.
        -11    1    1    2    0    0  0.57486619413E+01 -0.26837646903E+00  0.17873784576E+03  0.17883046901E+03  0.00000000000E+00 0. -1.
         11    1    1    2    0    0 -0.24539142728E+01  0.19706600959E+01 -0.17219808112E+03  0.17222683977E+03  0.00000000000E+00 0.  1.
        -15    1    1    2    0    0 -0.57893437616E+01  0.14801553693E+01 -0.71474118461E+01  0.94842282873E+01  0.17770000000E+01 0.  1.
         15    1    1    2    0    0  0.24945960931E+01 -0.31824389961E+01  0.60764720670E+00  0.44584629369E+01  0.17770000000E+01 0. -1.
</event>
<event>
 6    1  0.1298204E-002  0.1837757E+03  0.7546771E-02  0.1067444E+00
        -11   -1    0    0    0    0  0.00000000000E+00  0.00000000000E+00  0.18250000000E+03  0.18250000000E+03  0.00000000000E+00 0. -1.
         11   -1    0    0    0    0 -0.00000000000E+00 -0.00000000000E+00 -0.18250000000E+03  0.18250000000E+03  0.00000000000E+00 0.  1.
        -11    1    1    2    0    0 -0.86385001691E+00  0.53262118813E+01  0.13755140678E+03  0.13765719842E+03  0.00000000000E+00 0. -1.
         11    1    1    2    0    0 -0.27754706369E+01 -0.23345635860E+01 -0.18118804759E+03  0.18122434168E+03  0.00000000000E+00 0.  1.
        -15    1    1    2    0    0  0.81211743811E+01 -0.11691912332E+01  0.16680457349E+02  0.18673935521E+02  0.17770000000E+01 0.  1.
         15    1    1    2    0    0 -0.44818537273E+01 -0.18224570621E+01  0.26956183466E+02  0.27444524383E+02  0.17770000000E+01 0. -1.
</event>
<event>
 6    1  0.1298204E-002  0.1838299E+03  0.7546771E-02  0.1067401E+00
        -11   -1    0    0    0    0  0.00000000000E+00  0.00000000000E+00  0.18250000000E+03  0.18250000000E+03  0.00000000000E+00 0. -1.
         11   -1    0    0    0    0 -0.00000000000E+00 -0.00000000000E+00 -0.18250000000E+03  0.18250000000E+03  0.00000000000E+00 0. -1.
        -11    1    1    2    0    0 -0.17440584849E+01  0.19766369191E+01  0.16993519881E+03  0.16995564312E+03  0.00000000000E+00 0. -1.
         11    1    1    2    0    0  0.44555956321E+01 -0.18002299890E+00 -0.18111520957E+03  0.18117009653E+03  0.00000000000E+00 0. -1.
        -15    1    1    2    0    0 -0.43135821168E+01 -0.22361183135E+00  0.40180079633E+01  0.61610964870E+01  0.17770000000E+01 0. -1.
         15    1    1    2    0    0  0.16020449697E+01 -0.15730020888E+01  0.71620027978E+01  0.77131638600E+01  0.17770000000E+01 0. -1.
</event>
<event>
 6    1  0.1298204E-002  0.1832956E+03  0.7546771E-02  0.1067823E+00
        -11   -1    0    0    0    0  0.00000000000E+00  0.00000000000E+00  0.18250000000E+03  0.18250000000E+03  0.00000000000E+00 0.  1.
         11   -1    0    0    0    0 -0.00000000000E+00 -0.00000000000E+00 -0.18250000000E+03  0.18250000000E+03  0.00000000000E+00 0. -1.
        -11    1    1    2    0    0 -0.41592590418E+01  0.23628578857E+01  0.18164140465E+03  0.18170438194E+03  0.00000000000E+00 0.  1.
         11    1    1    2    0    0  0.11085207376E+01 -0.38856536550E+01 -0.42102101068E+02  0.42295555758E+02  0.00000000000E+00 0. -1.
        -15    1    1    2    0    0  0.92895036611E+01 -0.49301329670E+01 -0.89261539461E+02  0.89896502964E+02  0.17770000000E+01 0. -1.
         15    1    1    2    0    0 -0.62387653569E+01  0.64529287363E+01 -0.50277764123E+02  0.51103559335E+02  0.17770000000E+01 0.  1.
</event>
<event>
 6    1  0.1298204E-002  0.1829269E+03  0.7546771E-02  0.1068115E+00
        -11   -1    0    0    0    0  0.00000000000E+00  0.00000000000E+00  0.18250000000E+03  0.18250000000E+03  0.00000000000E+00 0. -1.
         11   -1    0    0    0    0 -0.00000000000E+00 -0.00000000000E+00 -0.18250000000E+03  0.18250000000E+03  0.00000000000E+00 0.  1.
        -11    1    1    2    0    0 -0.26913050448E+01 -0.43308035939E+00  0.18205266910E+03  0.18207307601E+03  0.00000000000E+00 0. -1.
         11    1    1    2    0    0 -0.41964461939E+00  0.19949047679E+01 -0.13942083498E+03  0.13943573779E+03  0.00000000000E+00 0.  1.
        -15    1    1    2    0    0  0.55446497063E-01 -0.14716881848E+01 -0.34540424031E+01  0.41541639772E+01  0.17770000000E+01 0.  1.
         15    1    1    2    0    0  0.30555031672E+01 -0.90136223734E-01 -0.39177791718E+02  0.39337022219E+02  0.17770000000E+01 0.  1.
</event>
<event>
 6    1  0.1298204E-002  0.1829704E+03  0.7546771E-02  0.1068081E+00
        -11   -1    0    0    0    0  0.00000000000E+00  0.00000000000E+00  0.18250000000E+03  0.18250000000E+03  0.00000000000E+00 0.  1.
         11   -1    0    0    0    0 -0.00000000000E+00 -0.00000000000E+00 -0.18250000000E+03  0.18250000000E+03  0.00000000000E+00 0. -1.
        -11    1    1    2    0    0 -0.11042105725E+01 -0.62793113783E+01  0.13508043047E+03  0.13523080909E+03  0.00000000000E+00 0.  1.
         11    1    1    2    0    0  0.32653408295E+01  0.48468226020E+01 -0.18193574093E+03  0.18202957992E+03  0.00000000000E+00 0. -1.
        -15    1    1    2    0    0 -0.39604207088E+01 -0.14229788831E+01  0.15681257396E+02  0.16333075755E+02  0.17770000000E+01 0. -1.
         15    1    1    2    0    0  0.17992904518E+01  0.28554676595E+01  0.31174053065E+02  0.31406535231E+02  0.17770000000E+01 0.  1.
</event>
<event>
 6    1  0.1298204E-002  0.1826116E+03  0.7546771E-02  0.1068366E+00
        -11   -1    0    0    0    0  0.00000000000E+00  0.00000000000E+00  0.18250000000E+03  0.18250000000E+03  0.00000000000E+00 0. -1.
         11   -1    0    0    0    0 -0.00000000000E+00 -0.00000000000E+00 -0.18250000000E+03  0.18250000000E+03  0.00000000000E+00 0.  1.
        -11    1    1    2    0    0 -0.34495034252E+01  0.16095000434E+01  0.18234864156E+03  0.18238836762E+03  0.00000000000E+00 0. -1.
         11    1    1    2    0    0  0.20011538080E+00  0.92076222612E+00 -0.44809618876E+02  0.44819524685E+02  0.00000000000E+00 0.  1.
        -15    1    1    2    0    0 -0.26059188933E+00  0.17609784937E+01 -0.38381602828E+02  0.38463932691E+02  0.17770000000E+01 0.  1.
         15    1    1    2    0    0  0.35099799337E+01 -0.42912407632E+01 -0.99157419860E+02  0.99328175000E+02  0.17770000000E+01 0.  1.
</event>
<event>
 6    1  0.1298204E-002  0.1838954E+03  0.7546771E-02  0.1067350E+00
        -11   -1    0    0    0    0  0.00000000000E+00  0.00000000000E+00  0.18250000000E+03  0.18250000000E+03  0.00000000000E+00 0.  1.
         11   -1    0    0    0    0 -0.00000000000E+00 -0.00000000000E+00 -0.18250000000E+03  0.18250000000E+03  0.00000000000E+00 0. -1.
        -11    1    1    2    0    0 -0.43487803715E+01 -0.40095922075E+01  0.17360432415E+03  0.17370506637E+03  0.00000000000E+00 0.  1.
         11    1    1    2    0    0  0.29662262563E+01  0.17934969910E+01 -0.18107147431E+03  0.18110464914E+03  0.00000000000E+00 0. -1.
        -15    1    1    2    0    0 -0.15089696572E+01 -0.47860190113E+00  0.14913702188E+01  0.28085518218E+01  0.17770000000E+01 0. -1.
         15    1    1    2    0    0  0.28915237725E+01  0.26946971176E+01  0.59757799413E+01  0.73817326685E+01  0.17770000000E+01 0.  1.
</event>
<event>
 6    1  0.1298204E-002  0.1827036E+03  0.7546771E-02  0.1068293E+00
        -11   -1    0    0    0    0  0.00000000000E+00  0.00000000000E+00  0.18250000000E+03  0.18250000000E+03  0.00000000000E+00 0.  1.
         11   -1    0    0    0    0 -0.00000000000E+00 -0.00000000000E+00 -0.18250000000E+03  0.18250000000E+03  0.00000000000E+00 0. -1.
        -11    1    1    2    0    0 -0.20970794666E+01  0.36288221746E+01  0.12845025836E+03  0.12851861719E+03  0.00000000000E+00 0.  1.
         11    1    1    2    0    0  0.22062066907E+01 -0.13467612026E+01 -0.18227806206E+03  0.18229638785E+03  0.00000000000E+00 0. -1.
        -15    1    1    2    0    0 -0.94929052380E+00  0.90977273393E+00  0.13115430448E+02  0.13300416676E+02  0.17770000000E+01 0. -1.
         15    1    1    2    0    0  0.84016329965E+00 -0.31918337059E+01  0.40712373254E+02  0.40884578287E+02  0.17770000000E+01 0.  1.
</event>
<event>
 6    1  0.1298204E-002  0.1701310E+03  0.7546771E-02  0.1078750E+00
        -11   -1    0    0    0    0  0.00000000000E+00  0.00000000000E+00  0.18250000000E+03  0.18250000000E+03  0.00000000000E+00 0.  1.
         11   -1    0    0    0    0 -0.00000000000E+00 -0.00000000000E+00 -0.18250000000E+03  0.18250000000E+03  0.00000000000E+00 0. -1.
        -11    1    1    2    0    0  0.17472784350E+01  0.31497084827E+01  0.17206196130E+03  0.17209965768E+03  0.00000000000E+00 0.  1.
         11    1    1    2    0    0 -0.10561064259E+02 -0.20487957372E+01 -0.16795874966E+03  0.16830292698E+03  0.00000000000E+00 0. -1.
        -15    1    1    2    0    0  0.70037615913E+01 -0.82987510898E+00  0.88158918262E+01  0.11428869009E+02  0.17770000000E+01 0. -1.
         15    1    1    2    0    0  0.18100242331E+01 -0.27103763654E+00 -0.12919103470E+02  0.13168546336E+02  0.17770000000E+01 0.  1.
</event>
<event>
 6    1  0.1298204E-002  0.1828552E+03  0.7546771E-02  0.1068172E+00
        -11   -1    0    0    0    0  0.00000000000E+00  0.00000000000E+00  0.18250000000E+03  0.18250000000E+03  0.00000000000E+00 0. -1.
         11   -1    0    0    0    0 -0.00000000000E+00 -0.00000000000E+00 -0.18250000000E+03  0.18250000000E+03  0.00000000000E+00 0. -1.
        -11    1    1    2    0    0 -0.41479002813E+01 -0.60226731852E+00  0.18209655732E+03  0.18214478854E+03  0.00000000000E+00 0. -1.
         11    1    1    2    0    0  0.38911891657E+00 -0.44329188983E+01 -0.64578548037E+02  0.64731685055E+02  0.00000000000E+00 0. -1.
        -15    1    1    2    0    0 -0.28586095361E+00  0.75245513306E+00 -0.85353418147E+02  0.85375708627E+02  0.17770000000E+01 0. -1.
         15    1    1    2    0    0  0.40446423183E+01  0.42827310838E+01 -0.32164591140E+02  0.32747817778E+02  0.17770000000E+01 0. -1.
</event>
<event>
 6    1  0.1298204E-002  0.1829749E+03  0.7546771E-02  0.1068077E+00
        -11   -1    0    0    0    0  0.00000000000E+00  0.00000000000E+00  0.18250000000E+03  0.18250000000E+03  0.00000000000E+00 0.  1.
         11   -1    0    0    0    0 -0.00000000000E+00 -0.00000000000E+00 -0.18250000000E+03  0.18250000000E+03  0.00000000000E+00 0. -1.
        -11    1    1    2    0    0  0.51391844701E+01  0.10318199175E+01  0.18194958864E+03  0.18202507705E+03  0.00000000000E+00 0.  1.
         11    1    1    2    0    0  0.24888187622E+01  0.13740654226E+01 -0.10584214249E+03  0.10588031640E+03  0.00000000000E+00 0. -1.
        -15    1    1    2    0    0 -0.63513824546E+01 -0.23698122088E+01 -0.25662360631E+02  0.26602077948E+02  0.17770000000E+01 0.  1.
         15    1    1    2    0    0 -0.12766207777E+01 -0.36073131331E-01 -0.50445085522E+02  0.50492528598E+02  0.17770000000E+01 0.  1.
</event>
<event>
 6    1  0.1298204E-002  0.1851154E+03  0.7546771E-02  0.1066392E+00
        -11   -1    0    0    0    0  0.00000000000E+00  0.00000000000E+00  0.18250000000E+03  0.18250000000E+03  0.00000000000E+00 0.  1.
         11   -1    0    0    0    0 -0.00000000000E+00 -0.00000000000E+00 -0.18250000000E+03  0.18250000000E+03  0.00000000000E+00 0.  1.
        -11    1    1    2    0    0  0.80094203889E-01 -0.29259205246E+01  0.17986082082E+03  0.17988463606E+03  0.00000000000E+00 0.  1.
         11    1    1    2    0    0 -0.19252767768E+01 -0.22356372235E+01 -0.14725517260E+03  0.14728472637E+03  0.00000000000E+00 0.  1.
        -15    1    1    2    0    0 -0.23955166713E+01  0.98063072450E+01 -0.28049553729E+02  0.29863646048E+02  0.17770000000E+01 0. -1.
         15    1    1    2    0    0  0.42406992442E+01 -0.46447494968E+01 -0.45560944901E+01  0.79669915258E+01  0.17770000000E+01 0.  1.
</event>
<event>
 6    1  0.1298204E-002  0.1863259E+03  0.7546771E-02  0.1065450E+00
        -11   -1    0    0    0    0  0.00000000000E+00  0.00000000000E+00  0.18250000000E+03  0.18250000000E+03  0.00000000000E+00 0.  1.
         11   -1    0    0    0    0 -0.00000000000E+00 -0.00000000000E+00 -0.18250000000E+03  0.18250000000E+03  0.00000000000E+00 0.  1.
        -11    1    1    2    0    0 -0.65914661846E+00  0.63368203513E+01  0.17856047490E+03  0.17867409706E+03  0.00000000000E+00 0.  1.
         11    1    1    2    0    0 -0.25863782015E+01  0.11375866487E+01 -0.16983689982E+03  0.16986040150E+03  0.00000000000E+00 0.  1.
        -15    1    1    2    0    0  0.22921159863E+00  0.80240350861E+00 -0.70577107488E+01  0.73256671615E+01  0.17770000000E+01 0.  1.
         15    1    1    2    0    0  0.30163132214E+01 -0.82768105085E+01 -0.16658643253E+01  0.91398342761E+01  0.17770000000E+01 0.  1.
</event>
<event>
 6    1  0.1298204E-002  0.1829300E+03  0.7546771E-02  0.1068113E+00
        -11   -1    0    0    0    0  0.00000000000E+00  0.00000000000E+00  0.18250000000E+03  0.18250000000E+03  0.00000000000E+00 0. -1.
         11   -1    0    0    0    0 -0.00000000000E+00 -0.00000000000E+00 -0.18250000000E+03  0.18250000000E+03  0.00000000000E+00 0.  1.
        -11    1    1    2    0    0  0.86438944250E+00 -0.47454212723E+00  0.29874434789E+02  0.29890704463E+02  0.00000000000E+00 0. -1.
         11    1    1    2    0    0  0.63438820944E+01 -0.52393754087E+01 -0.18188398818E+03  0.18206998943E+03  0.00000000000E+00 0.  1.
        -15    1    1    2    0    0 -0.47234384271E+00  0.28465895641E+01  0.64597416456E+01  0.72946673659E+01  0.17770000000E+01 0. -1.
         15    1    1    2    0    0 -0.67359276942E+01  0.28673279718E+01  0.14554981175E+03  0.14574463874E+03  0.17770000000E+01 0. -1.
</event>
<event>
 6    1  0.1298204E-002  0.1831581E+03  0.7546771E-02  0.1067932E+00
        -11   -1    0    0    0    0  0.00000000000E+00  0.00000000000E+00  0.18250000000E+03  0.18250000000E+03  0.00000000000E+00 0.  1.
         11   -1    0    0    0    0 -0.00000000000E+00 -0.00000000000E+00 -0.18250000000E+03  0.18250000000E+03  0.00000000000E+00 0.  1.
        -11    1    1    2    0    0  0.74390285868E+01  0.12868115199E+01  0.18168514251E+03  0.18184192597E+03  0.00000000000E+00 0.  1.
         11    1    1    2    0    0 -0.17499052313E+01  0.54029633766E+00 -0.13490108474E+03  0.13491351582E+03  0.00000000000E+00 0.  1.
        -15    1    1    2    0    0  0.49207907553E-01 -0.92013669709E+00 -0.34323962892E+02  0.34382280765E+02  0.17770000000E+01 0. -1.
         15    1    1    2    0    0 -0.57383312630E+01 -0.90697116048E+00 -0.12460094884E+02  0.13862277442E+02  0.17770000000E+01 0. -1.
</event>
<event>
 6    1  0.1298204E-002  0.1826746E+03  0.7546771E-02  0.1068316E+00
        -11   -1    0    0    0    0  0.00000000000E+00  0.00000000000E+00  0.18250000000E+03  0.18250000000E+03  0.00000000000E+00 0. -1.
         11   -1    0    0    0    0 -0.00000000000E+00 -0.00000000000E+00 -0.18250000000E+03  0.18250000000E+03  0.00000000000E+00 0. -1.
        -11    1    1    2    0    0  0.45572429232E+01 -0.31600682725E+01  0.11762955798E+03  0.11776021147E+03  0.00000000000E+00 0. -1.
         11    1    1    2    0    0 -0.19831087829E+01  0.27123067684E+01 -0.18229444496E+03  0.18232540687E+03  0.00000000000E+00 0. -1.
        -15    1    1    2    0    0  0.24936150354E+00  0.12692024689E+01  0.29640612015E+02  0.29721989598E+02  0.17770000000E+01 0.  1.
         15    1    1    2    0    0 -0.28234956439E+01 -0.82144096479E+00  0.35024274963E+02  0.35192392055E+02  0.17770000000E+01 0. -1.
</event>
<event>
 6    1  0.1298204E-002  0.1836356E+03  0.7546771E-02  0.1067554E+00
        -11   -1    0    0    0    0  0.00000000000E+00  0.00000000000E+00  0.18250000000E+03  0.18250000000E+03  0.00000000000E+00 0.  1.
         11   -1    0    0    0    0 -0.00000000000E+00 -0.00000000000E+00 -0.18250000000E+03  0.18250000000E+03  0.00000000000E+00 0.  1.
        -11    1    1    2    0    0 -0.56111704309E+00 -0.18081780962E+01  0.13668081004E+03  0.13669392157E+03  0.00000000000E+00 0.  1.
         11    1    1    2    0    0 -0.53026546899E+01  0.72086375432E+00 -0.18128539375E+03  0.18136436193E+03  0.00000000000E+00 0.  1.
        -15    1    1    2    0    0  0.36002937225E+01 -0.79899391369E+00  0.27175215151E+01  0.49135687995E+01  0.17770000000E+01 0.  1.
         15    1    1    2    0    0  0.22634780105E+01  0.18863082556E+01  0.41887062187E+02  0.42028147701E+02  0.17770000000E+01 0. -1.
</event>
<event>
 6    1  0.1298204E-002  0.1827859E+03  0.7546771E-02  0.1068227E+00
        -11   -1    0    0    0    0  0.00000000000E+00  0.00000000000E+00  0.18250000000E+03  0.18250000000E+03  0.00000000000E+00 0.  1.
         11   -1    0    0    0    0 -0.00000000000E+00 -0.00000000000E+00 -0.18250000000E+03  0.18250000000E+03  0.00000000000E+00 0.  1.
        -11    1    1    2    0    0  0.30044800712E+01 -0.23147031196E+01  0.18217458167E+03  0.18221405807E+03  0.00000000000E+00 0.  1.
         11    1    1    2    0    0  0.21110870272E+01 -0.23464239971E+01 -0.47779260243E+02  0.47883401126E+02  0.00000000000E+00 0.  1.
        -15    1    1    2    0    0 -0.11534319588E+01  0.20748445777E+01 -0.10679991937E+02  0.11084012905E+02  0.17770000000E+01 0. -1.
         15    1    1    2    0    0 -0.39621351397E+01  0.25862825390E+01 -0.12371532949E+03  0.12381852790E+03  0.17770000000E+01 0.  1.
</event>
<event>
 6    1  0.1298204E-002  0.1844192E+03  0.7546771E-02  0.1066937E+00
        -11   -1    0    0    0    0  0.00000000000E+00  0.00000000000E+00  0.18250000000E+03  0.18250000000E+03  0.00000000000E+00 0. -1.
         11   -1    0    0    0    0 -0.00000000000E+00 -0.00000000000E+00 -0.18250000000E+03  0.18250000000E+03  0.00000000000E+00 0.  1.
        -11    1    1    2    0    0 -0.13370209256E+01 -0.78395829114E+01  0.16083908170E+03  0.16103557647E+03  0.00000000000E+00 0. -1.
         11    1    1    2    0    0  0.37832126976E+01  0.26397454971E+00 -0.18054094276E+03  0.18058076972E+03  0.00000000000E+00 0.  1.
        -15    1    1    2    0    0 -0.52619681891E+01  0.42770502451E+01  0.15799830911E+02  0.17285076044E+02  0.17770000000E+01 0.  1.
         15    1    1    2    0    0  0.28157764170E+01  0.32985581166E+01  0.39020301465E+01  0.60985777640E+01  0.17770000000E+01 0. -1.
</event>
<event>
 6    1  0.1298204E-002  0.1853203E+03  0.7546771E-02  0.1066232E+00
        -11   -1    0    0    0    0  0.00000000000E+00  0.00000000000E+00  0.18250000000E+03  0.18250000000E+03  0.00000000000E+00 0.  1.
         11   -1    0    0    0    0 -0.00000000000E+00 -0.00000000000E+00 -0.18250000000E+03  0.18250000000E+03  0.00000000000E+00 0.  1.
        -11    1    1    2    0    0 -0.27215346110E+00  0.45306610635E+01  0.99489110617E+02  0.99592590531E+02  0.00000000000E+00 0.  1.
         11    1    1    2    0    0  0.95185872635E-01 -0.25845367427E+01 -0.17966110479E+03  0.17967971913E+03  0.00000000000E+00 0.  1.
        -15    1    1    2    0    0 -0.46596133528E+01  0.12519965445E+01 -0.18222854066E+00  0.51449420003E+01  0.17770000000E+01 0.  1.
         15    1    1    2    0    0  0.48365809412E+01 -0.31981208653E+01  0.80354222718E+02  0.80582748339E+02  0.17770000000E+01 0.  1.
</event>
<event>
 6    1  0.1298204E-002  0.1837316E+03  0.7546771E-02  0.1067479E+00
        -11   -1    0    0    0    0  0.00000000000E+00  0.00000000000E+00  0.18250000000E+03  0.18250000000E+03  0.00000000000E+00 0. -1.
         11   -1    0    0    0    0 -0.00000000000E+00 -0.00000000000E+00 -0.18250000000E+03  0.18250000000E+03  0.00000000000E+00 0. -1.
        -11    1    1    2    0    0 -0.17639554521E+01  0.16168962385E+01  0.15830204334E+03  0.15832012765E+03  0.00000000000E+00 0. -1.
         11    1    1    2    0    0  0.23207431346E+01  0.36437194660E+01 -0.18121693240E+03  0.18126841735E+03  0.00000000000E+00 0. -1.
        -15    1    1    2    0    0 -0.21870628454E+01  0.12334132885E+01  0.28842426671E+01  0.42167685486E+01  0.17770000000E+01 0.  1.
         15    1    1    2    0    0  0.16302751629E+01 -0.64940289930E+01  0.20030646397E+02  0.21194686451E+02  0.17770000000E+01 0. -1.
</event>
<event>
 6    1  0.1298204E-002  0.2044105E+03  0.7546771E-02  0.1052239E+00
        -11   -1    0    0    0    0  0.00000000000E+00  0.00000000000E+00  0.18250000000E+03  0.18250000000E+03  0.00000000000E+00 0.  1.
         11   -1    0    0    0    0 -0.00000000000E+00 -0.00000000000E+00 -0.18250000000E+03  0.18250000000E+03  0.00000000000E+00 0. -1.
        -11    1    1    2    0    0 -0.70116035493E+01 -0.11160593936E+02  0.11221517916E+03  0.11298658273E+03  0.00000000000E+00 0.  1.
         11    1    1    2    0    0  0.12002893084E+02  0.13874230684E-01 -0.16014030051E+03  0.16058949369E+03  0.00000000000E+00 0. -1.
        -15    1    1    2    0    0  0.33623934311E+01  0.70709729345E+01  0.68399105634E+02  0.68868713712E+02  0.17770000000E+01 0.  1.
         15    1    1    2    0    0 -0.83536829659E+01  0.40757467706E+01 -0.20473984286E+02  0.22555209872E+02  0.17770000000E+01 0. -1.
</event>
<event>
 6    1  0.1298204E-002  0.1895745E+03  0.7546771E-02  0.1062959E+00
        -11   -1    0    0    0    0  0.00000000000E+00  0.00000000000E+00  0.18250000000E+03  0.18250000000E+03  0.00000000000E+00 0.  1.
         11   -1    0    0    0    0 -0.00000000000E+00 -0.00000000000E+00 -0.18250000000E+03  0.18250000000E+03  0.00000000000E+00 0. -1.
        -11    1    1    2    0    0  0.54343768112E+01 -0.11578739959E+01  0.17533745178E+03  0.17542546885E+03  0.00000000000E+00 0.  1.
         11    1    1    2    0    0  0.18343984785E+01  0.21514506403E+01 -0.13392046898E+03  0.13395031082E+03  0.00000000000E+00 0. -1.
        -15    1    1    2    0    0  0.37436007832E+01  0.10488363527E+02 -0.37478703536E+02  0.39138616020E+02  0.17770000000E+01 0. -1.
         15    1    1    2    0    0 -0.11012376073E+02 -0.11481940171E+02 -0.39382792685E+01  0.16485604310E+02  0.17770000000E+01 0.  1.
</event>
<event>
 6    1  0.1298204E-002  0.1742083E+03  0.7546771E-02  0.1075254E+00
        -11   -1    0    0    0    0  0.00000000000E+00  0.00000000000E+00  0.18250000000E+03  0.18250000000E+03  0.00000000000E+00 0. -1.
         11   -1    0    0    0    0 -0.00000000000E+00 -0.00000000000E+00 -0.18250000000E+03  0.18250000000E+03  0.00000000000E+00 0.  1.
        -11    1    1    2    0    0  0.43341736916E+01  0.57163456511E+01  0.17401121131E+03  0.17415901737E+03  0.00000000000E+00 0. -1.
         11    1    1    2    0    0  0.24671161274E+01 -0.11358606784E+01 -0.17433295314E+03  0.17435410919E+03  0.00000000000E+00 0.  1.
        -15    1    1    2    0    0 -0.64024878544E+00  0.89555943490E+00 -0.57354704995E+01  0.61045307813E+01  0.17770000000E+01 0.  1.
         15    1    1    2    0    0 -0.61610410336E+01 -0.54760444076E+01  0.60572123208E+01  0.10382342658E+02  0.17770000000E+01 0. -1.
</event>
<event>
 6    1  0.1298204E-002  0.1847932E+03  0.7546771E-02  0.1066644E+00
        -11   -1    0    0    0    0  0.00000000000E+00  0.00000000000E+00  0.18250000000E+03  0.18250000000E+03  0.00000000000E+00 0. -1.
         11   -1    0    0    0    0 -0.00000000000E+00 -0.00000000000E+00 -0.18250000000E+03  0.18250000000E+03  0.00000000000E+00 0.  1.
        -11    1    1    2    0    0  0.60728006829E+01 -0.22274953649E+01  0.18009070340E+03  0.18020683143E+03  0.00000000000E+00 0. -1.
         11    1    1    2    0    0 -0.42186190460E+01  0.63941339633E+01 -0.74968977944E+02  0.75359334855E+02  0.00000000000E+00 0.  1.
        -15    1    1    2    0    0  0.45852576942E+01 -0.31753845976E+00 -0.10014660105E+01  0.50285268186E+01  0.17770000000E+01 0. -1.
         15    1    1    2    0    0 -0.64394393311E+01 -0.38491001387E+01 -0.10412025945E+03  0.10440530689E+03  0.17770000000E+01 0.  1.
</event>
<event>
 6    1  0.1298204E-002  0.1859713E+03  0.7546771E-02  0.1065725E+00
        -11   -1    0    0    0    0  0.00000000000E+00  0.00000000000E+00  0.18250000000E+03  0.18250000000E+03  0.00000000000E+00 0.  1.
         11   -1    0    0    0    0 -0.00000000000E+00 -0.00000000000E+00 -0.18250000000E+03  0.18250000000E+03  0.00000000000E+00 0.  1.
        -11    1    1    2    0    0 -0.57329443095E+00  0.20631343888E+01  0.11660063187E+03  0.11662029215E+03  0.00000000000E+00 0.  1.
         11    1    1    2    0    0  0.14455159069E+01  0.38062328465E+01 -0.17898241786E+03  0.17902872068E+03  0.00000000000E+00 0.  1.
        -15    1    1    2    0    0  0.25170329827E+01 -0.18264448814E+01  0.63559969276E+02  0.63660810389E+02  0.17770000000E+01 0.  1.
         15    1    1    2    0    0 -0.33892544587E+01 -0.40429223539E+01 -0.11781832800E+01  0.56901767799E+01  0.17770000000E+01 0. -1.
</event>
<event>
 6    1  0.1298204E-002  0.1835610E+03  0.7546771E-02  0.1067613E+00
        -11   -1    0    0    0    0  0.00000000000E+00  0.00000000000E+00  0.18250000000E+03  0.18250000000E+03  0.00000000000E+00 0. -1.
         11   -1    0    0    0    0 -0.00000000000E+00 -0.00000000000E+00 -0.18250000000E+03  0.18250000000E+03  0.00000000000E+00 0.  1.
        -11    1    1    2    0    0  0.82730907315E+00  0.32072148805E+01  0.14897277983E+03  0.14900959633E+03  0.00000000000E+00 0. -1.
         11    1    1    2    0    0 -0.29571914425E+01  0.65754718520E-01 -0.18141493000E+03  0.18143904246E+03  0.00000000000E+00 0.  1.
        -15    1    1    2    0    0  0.23557791505E+01 -0.23977726703E+01  0.25168971122E+01  0.45597707462E+01  0.17770000000E+01 0.  1.
         15    1    1    2    0    0 -0.22589678114E+00 -0.87519692872E+00  0.29925253053E+02  0.29991590459E+02  0.17770000000E+01 0. -1.
</event>
<event>
 6    1  0.1298204E-002  0.1831699E+03  0.7546771E-02  0.1067923E+00
        -11   -1    0    0    0    0  0.00000000000E+00  0.00000000000E+00  0.18250000000E+03  0.18250000000E+03  0.00000000000E+00 0.  1.
         11   -1    0    0    0    0 -0.00000000000E+00 -0.00000000000E+00 -0.18250000000E+03  0.18250000000E+03  0.00000000000E+00 0.  1.
        -11    1    1    2    0    0 -0.17028485304E+01  0.42236408840E+00  0.12714784058E+03  0.12715994436E+03  0.00000000000E+00 0.  1.
         11    1    1    2    0    0  0.43986275135E+01 -0.28181703419E+01 -0.18175506345E+03  0.18183012153E+03  0.00000000000E+00 0.  1.
        -15    1    1    2    0    0  0.38869317414E+01 -0.15168760163E+01  0.17398459985E+02  0.17979802281E+02  0.17770000000E+01 0. -1.
         15    1    1    2    0    0 -0.65827107244E+01  0.39126822698E+01  0.37208762882E+02  0.38030131833E+02  0.17770000000E+01 0. -1.
</event>
<event>
 6    1  0.1298204E-002  0.1852144E+03  0.7546771E-02  0.1066314E+00
        -11   -1    0    0    0    0  0.00000000000E+00  0.00000000000E+00  0.18250000000E+03  0.18250000000E+03  0.00000000000E+00 0.  1.
         11   -1    0    0    0    0 -0.00000000000E+00 -0.00000000000E+00 -0.18250000000E+03  0.18250000000E+03  0.00000000000E+00 0.  1.
        -11    1    1    2    0    0  0.15491929039E+01 -0.26032598427E+01  0.17034471920E+03  0.17037165351E+03  0.00000000000E+00 0.  1.
         11    1    1    2    0    0  0.16893691334E+01 -0.29377729548E+01 -0.17975367431E+03  0.17978561651E+03  0.00000000000E+00 0.  1.
        -15    1    1    2    0    0  0.26007756078E+01  0.37890885355E+01  0.55067509442E+01  0.73894019145E+01  0.17770000000E+01 0.  1.
         15    1    1    2    0    0 -0.58393376450E+01  0.17519442620E+01  0.39022041642E+01  0.74533280599E+01  0.17770000000E+01 0. -1.
</event>
<event>
 6    1  0.4419602E-002  0.1827057E+03  0.7546771E-02  0.1068291E+00
        -11   -1    0    0    0    0  0.00000000000E+00  0.00000000000E+00  0.18250000000E+03  0.18250000000E+03  0.00000000000E+00 0.  1.
         11   -1    0    0    0    0 -0.00000000000E+00 -0.00000000000E+00 -0.18250000000E+03  0.18250000000E+03  0.00000000000E+00 0. -1.
        -11    1    1    2    0    0  0.10049810296E+01  0.24039933251E+01  0.18227569659E+03  0.18229431900E+03  0.00000000000E+00 0.  1.
         11    1    1    2    0    0  0.12955972548E+01 -0.74715940664E+00 -0.10092259067E+03  0.10093367191E+03  0.00000000000E+00 0. -1.
        -15    1    1    2    0    0 -0.73436224343E+00 -0.24341798785E+01 -0.72720704343E+02  0.72786833210E+02  0.17770000000E+01 0.  1.
         15    1    1    2    0    0 -0.15662160409E+01  0.77734596007E+00 -0.86324015844E+01  0.89851758771E+01  0.17770000000E+01 0. -1.
</event>
<event>
 6    1  0.1298204E-002  0.1941784E+03  0.7546771E-02  0.1059521E+00
        -11   -1    0    0    0    0  0.00000000000E+00  0.00000000000E+00  0.18250000000E+03  0.18250000000E+03  0.00000000000E+00 0.  1.
         11   -1    0    0    0    0 -0.00000000000E+00 -0.00000000000E+00 -0.18250000000E+03  0.18250000000E+03  0.00000000000E+00 0. -1.
        -11    1    1    2    0    0 -0.26688362021E+01  0.11769486454E+01  0.16218822995E+03  0.16221445628E+03  0.00000000000E+00 0.  1.
         11    1    1    2    0    0 -0.37703684965E+01  0.82776795702E+00 -0.17077796593E+03  0.17082158682E+03  0.00000000000E+00 0. -1.
        -15    1    1    2    0    0  0.29713599546E+01  0.40551453149E+01  0.18758524423E+02  0.19501619190E+02  0.17770000000E+01 0.  1.
         15    1    1    2    0    0  0.34678447440E+01 -0.60598619173E+01 -0.10168788441E+02  0.12462337701E+02  0.17770000000E+01 0. -1.
</event>
<event>
 6    1  0.1298204E-002  0.1685872E+03  0.7546771E-02  0.1080102E+00
        -11   -1    0    0    0    0  0.00000000000E+00  0.00000000000E+00  0.18250000000E+03  0.18250000000E+03  0.00000000000E+00 0. -1.
         11   -1    0    0    0    0 -0.00000000000E+00 -0.00000000000E+00 -0.18250000000E+03  0.18250000000E+03  0.00000000000E+00 0.  1.
        -11    1    1    2    0    0 -0.29071249872E+01 -0.18100031606E+01  0.16903402849E+03  0.16906871466E+03  0.00000000000E+00 0. -1.
         11    1    1    2    0    0 -0.31270336275E+01  0.23121576385E+01 -0.16811637800E+03  0.16816135396E+03  0.00000000000E+00 0.  1.
        -15    1    1    2    0    0  0.96133843728E+00 -0.58180276578E+01 -0.12502242780E+02  0.13936908586E+02  0.17770000000E+01 0.  1.
         15    1    1    2    0    0  0.50728201774E+01  0.53158731798E+01  0.11584592291E+02  0.13833022799E+02  0.17770000000E+01 0. -1.
</event>
<event>
 6    1  0.1298204E-002  0.1830152E+03  0.7546771E-02  0.1068045E+00
        -11   -1    0    0    0    0  0.00000000000E+00  0.00000000000E+00  0.18250000000E+03  0.18250000000E+03  0.00000000000E+00 0.  1.
         11   -1    0    0    0    0 -0.00000000000E+00 -0.00000000000E+00 -0.18250000000E+03  0.18250000000E+03  0.00000000000E+00 0.  1.
        -11    1    1    2    0    0 -0.16667541965E+01 -0.24929902471E+01  0.14098032716E+03  0.14101221832E+03  0.00000000000E+00 0.  1.
         11    1    1    2    0    0  0.35223109729E+01 -0.29623859664E+01 -0.18192655457E+03  0.18198476217E+03  0.00000000000E+00 0.  1.
        -15    1    1    2    0    0  0.21897383555E+01  0.80173293063E+00  0.11803619517E+02  0.12162273326E+02  0.17770000000E+01 0. -1.
         15    1    1    2    0    0 -0.40452951319E+01  0.46536432829E+01  0.29142607896E+02  0.29840746179E+02  0.17770000000E+01 0.  1.
</event>
<event>
 6    1  0.1298204E-002  0.1859905E+03  0.7546771E-02  0.1065710E+00
        -11   -1    0    0    0    0  0.00000000000E+00  0.00000000000E+00  0.18250000000E+03  0.18250000000E+03  0.00000000000E+00 0. -1.
         11   -1    0    0    0    0 -0.00000000000E+00 -0.00000000000E+00 -0.18250000000E+03  0.18250000000E+03  0.00000000000E+00 0.  1.
        -11    1    1    2    0    0 -0.27771142004E+01 -0.34523263971E+01  0.15159926458E+03  0.15166399686E+03  0.00000000000E+00 0. -1.
         11    1    1    2    0    0 -0.55108186338E+01 -0.47806917192E+01 -0.17886080926E+03  0.17900953389E+03  0.00000000000E+00 0.  1.
        -15    1    1    2    0    0  0.10278479881E+02  0.39881156438E+01  0.64008959003E+01  0.12871729191E+02  0.17770000000E+01 0. -1.
         15    1    1    2    0    0 -0.19905470465E+01  0.42449024725E+01  0.20860648779E+02  0.21454740059E+02  0.17770000000E+01 0.  1.
</event>
<event>
 6    1  0.1298204E-002  0.1860431E+03  0.7546771E-02  0.1065669E+00
        -11   -1    0    0    0    0  0.00000000000E+00  0.00000000000E+00  0.18250000000E+03  0.18250000000E+03  0.00000000000E+00 0. -1.
         11   -1    0    0    0    0 -0.00000000000E+00 -0.00000000000E+00 -0.18250000000E+03  0.18250000000E+03  0.00000000000E+00 0.  1.
        -11    1    1    2    0    0  0.38202026091E+01 -0.54852078370E+01  0.17883206438E+03  0.17895694651E+03  0.00000000000E+00 0. -1.
         11    1    1    2    0    0  0.13856349409E+01 -0.47850108454E+01 -0.17049517756E+03  0.17056793920E+03  0.00000000000E+00 0.  1.
        -15    1    1    2    0    0 -0.42018870438E+01  0.85798502172E+01 -0.83695051977E+01  0.12824820885E+02  0.17770000000E+01 0.  1.
         15    1    1    2    0    0 -0.10039505061E+01  0.16903684652E+01  0.32618380363E-01  0.26502934037E+01  0.17770000000E+01 0. -1.
</event>
<event>
 6    1  0.1298204E-002  0.1867745E+03  0.7546771E-02  0.1065102E+00
        -11   -1    0    0    0    0  0.00000000000E+00  0.00000000000E+00  0.18250000000E+03  0.18250000000E+03  0.00000000000E+00 0.  1.
         11   -1    0    0    0    0 -0.00000000000E+00 -0.00000000000E+00 -0.18250000000E+03  0.18250000000E+03  0.00000000000E+00 0. -1.
        -11    1    1    2    0    0  0.26210337237E+01 -0.66088213067E+00  0.17820495202E+03  0.17822545135E+03  0.00000000000E+00 0.  1.
         11    1    1    2    0    0 -0.14105371730E+01  0.35334457552E+01 -0.17488393386E+03  0.17492531314E+03  0.00000000000E+00 0. -1.
        -15    1    1    2    0    0  0.36310196005E+01 -0.52422883753E+00 -0.44886350921E+01  0.60633895804E+01  0.17770000000E+01 0.  1.
         15    1    1    2    0    0 -0.48415161512E+01 -0.23483347870E+01  0.11676169290E+01  0.57858459370E+01  0.17770000000E+01 0. -1.
</event>
<event>
 6    1  0.1298204E-002  0.1930790E+03  0.7546771E-02  0.1060333E+00
        -11   -1    0    0    0    0  0.00000000000E+00  0.00000000000E+00  0.18250000000E+03  0.18250000000E+03  0.00000000000E+00 0. -1.
         11   -1    0    0    0    0 -0.00000000000E+00 -0.00000000000E+00 -0.18250000000E+03  0.18250000000E+03  0.00000000000E+00 0. -1.
        -11    1    1    2    0    0 -0.37021337123E+01  0.13575228764E+00  0.13371411641E+03  0.13376542584E+03  0.00000000000E+00 0. -1.
         11    1    1    2    0    0 -0.13981280037E+02 -0.25669162001E+01 -0.17133234927E+03  0.17192102593E+03  0.00000000000E+00 0. -1.
        -15    1    1    2    0    0  0.30013055552E+01 -0.22722351163E+01  0.42762019647E+02  0.42964158792E+02  0.17770000000E+01 0. -1.
         15    1    1    2    0    0  0.14682108194E+02  0.47033990287E+01 -0.51437867853E+01  0.16349389437E+02  0.17770000000E+01 0.  1.
</event>
<event>
 6    1  0.1298204E-002  0.1872873E+03  0.7546771E-02  0.1064707E+00
        -11   -1    0    0    0    0  0.00000000000E+00  0.00000000000E+00  0.18250000000E+03  0.18250000000E+03  0.00000000000E+00 0. -1.
         11   -1    0    0    0    0 -0.00000000000E+00 -0.00000000000E+00 -0.18250000000E+03  0.18250000000E+03  0.00000000000E+00 0.  1.
        -11    1    1    2    0    0  0.37261372279E+01  0.10367138445E+02  0.17737096202E+03  0.17771274526E+03  0.00000000000E+00 0. -1.
         11    1    1    2    0    0  0.23945326249E+01 -0.55453940059E+00 -0.15753118294E+03  0.15755035671E+03  0.00000000000E+00 0.  1.
        -15    1    1    2    0    0 -0.10379699122E+02 -0.17721359119E+01 -0.40387446591E+01  0.11416996408E+02  0.17770000000E+01 0. -1.
         15    1    1    2    0    0  0.42590292693E+01 -0.80404631328E+01 -0.15801034426E+02  0.18319901627E+02  0.17770000000E+01 0.  1.
</event>
<event>
 6    1  0.1298204E-002  0.1825894E+03  0.7546771E-02  0.1068384E+00
        -11   -1    0    0    0    0  0.00000000000E+00  0.00000000000E+00  0.18250000000E+03  0.18250000000E+03  0.00000000000E+00 0. -1.
         11   -1    0    0    0    0 -0.00000000000E+00 -0.00000000000E+00 -0.18250000000E+03  0.18250000000E+03  0.00000000000E+00 0. -1.
        -11    1    1    2    0    0  0.38271027295E+01  0.65056778184E+00  0.18236926981E+03  0.18241058227E+03  0.00000000000E+00 0. -1.
         11    1    1    2    0    0 -0.63933745655E+00  0.14671316410E+01 -0.34833173177E+02  0.34869917998E+02  0.00000000000E+00 0. -1.
        -15    1    1    2    0    0 -0.55117803228E+00  0.87669139372E+00 -0.87742694578E+02  0.87766796489E+02  0.17770000000E+01 0. -1.
         15    1    1    2    0    0 -0.26365872407E+01 -0.29943908166E+01 -0.59793402051E+02  0.59952703246E+02  0.17770000000E+01 0. -1.
</event>
<event>
 6    1  0.1298204E-002  0.1829649E+03  0.7546771E-02  0.1068085E+00
        -11   -1    0    0    0    0  0.00000000000E+00  0.00000000000E+00  0.18250000000E+03  0.18250000000E+03  0.00000000000E+00 0.  1.
         11   -1    0    0    0    0 -0.00000000000E+00 -0.00000000000E+00 -0.18250000000E+03  0.18250000000E+03  0.00000000000E+00 0. -1.
        -11    1    1    2    0    0 -0.14684432027E+01 -0.14468618315E+01  0.69658809998E+02  0.69689307250E+02  0.00000000000E+00 0.  1.
         11    1    1    2    0    0 -0.59825900036E+01  0.64252663030E+00 -0.18193564107E+03  0.18203511122E+03  0.00000000000E+00 0. -1.
        -15    1    1    2    0    0  0.26597787841E+01  0.45642432202E+01  0.19467110893E+02  0.20249268503E+02  0.17770000000E+01 0. -1.
         15    1    1    2    0    0  0.47912544221E+01 -0.37599080190E+01  0.92809720180E+02  0.93026313031E+02  0.17770000000E+01 0.  1.
</event>
<event>
 6    1  0.1298204E-002  0.1847675E+03  0.7546771E-02  0.1066664E+00
        -11   -1    0    0    0    0  0.00000000000E+00  0.00000000000E+00  0.18250000000E+03  0.18250000000E+03  0.00000000000E+00 0. -1.
         11   -1    0    0    0    0 -0.00000000000E+00 -0.00000000000E+00 -0.18250000000E+03  0.18250000000E+03  0.00000000000E+00 0.  1.
        -11    1    1    2    0    0  0.54775175343E+01 -0.85529974963E+01  0.15237962406E+03  0.15271773569E+03  0.00000000000E+00 0. -1.
         11    1    1    2    0    0 -0.30251297853E+01  0.28965302855E+01 -0.18018383218E+03  0.18023250173E+03  0.00000000000E+00 0.  1.
        -15    1    1    2    0    0 -0.70100241314E+01  0.74666418545E+01  0.21394007800E+02  0.23785551868E+02  0.17770000000E+01 0.  1.
         15    1    1    2    0    0  0.45576363824E+01 -0.18101746438E+01  0.64102003213E+01  0.82642107182E+01  0.17770000000E+01 0. -1.
</event>
<event>
 6    1  0.1298204E-002  0.1830898E+03  0.7546771E-02  0.1067986E+00
        -11   -1    0    0    0    0  0.00000000000E+00  0.00000000000E+00  0.18250000000E+03  0.18250000000E+03  0.00000000000E+00 0. -1.
         11   -1    0    0    0    0 -0.00000000000E+00 -0.00000000000E+00 -0.18250000000E+03  0.18250000000E+03  0.00000000000E+00 0. -1.
        -11    1    1    2    0    0  0.57181886521E+01  0.12903332363E+01  0.18181576820E+03  0.18191024217E+03  0.00000000000E+00 0. -1.
         11    1    1    2    0    0 -0.11865488753E+01  0.15720826587E+01 -0.14356793938E+03  0.14358144922E+03  0.00000000000E+00 0. -1.
        -15    1    1    2    0    0 -0.35902923361E+01 -0.40308238200E+00 -0.33819562398E+02  0.34058379355E+02  0.17770000000E+01 0.  1.
         15    1    1    2    0    0 -0.94134744082E+00 -0.24593335130E+01 -0.44282664249E+01  0.54499292530E+01  0.17770000000E+01 0. -1.
</event>
<event>
 6    1  0.1298204E-002  0.1758340E+03  0.7546771E-02  0.1073888E+00
        -11   -1    0    0    0    0  0.00000000000E+00  0.00000000000E+00  0.18250000000E+03  0.18250000000E+03  0.00000000000E+00 0.  1.
         11   -1    0    0    0    0 -0.00000000000E+00 -0.00000000000E+00 -0.18250000000E+03  0.18250000000E+03  0.00000000000E+00 0.  1.
        -11    1    1    2    0    0 -0.31865967659E+01  0.60810340607E+01  0.17542862506E+03  0.17556291142E+03  0.00000000000E+00 0.  1.
         11    1    1    2    0    0 -0.49181163252E+01 -0.86153274112E+00 -0.17616728289E+03  0.17623802561E+03  0.00000000000E+00 0.  1.
        -15    1    1    2    0    0  0.67559906862E+00 -0.26208288070E+01 -0.29012443748E+01  0.43474274761E+01  0.17770000000E+01 0. -1.
         15    1    1    2    0    0  0.74291140225E+01 -0.25986725126E+01  0.36399022098E+01  0.88516355033E+01  0.17770000000E+01 0.  1.
</event>
<event>
 6    1  0.1298204E-002  0.1832175E+03  0.7546771E-02  0.1067885E+00
        -11   -1    0    0    0    0  0.00000000000E+00  0.00000000000E+00  0.18250000000E+03  0.18250000000E+03  0.00000000000E+00 0. -1.
         11   -1    0    0    0    0 -0.00000000000E+00 -0.00000000000E+00 -0.18250000000E+03  0.18250000000E+03  0.00000000000E+00 0. -1.
        -11    1    1    2    0    0 -0.27769748404E+01 -0.10253726015E+01  0.14110242293E+03  0.14113347135E+03  0.00000000000E+00 0. -1.
         11    1    1    2    0    0  0.28589825817E+01 -0.27046501770E-01 -0.18176002504E+03  0.18178251075E+03  0.00000000000E+00 0. -1.
        -15    1    1    2    0    0 -0.49250277608E+01  0.18888430757E+01  0.18548654331E+02  0.19365792860E+02  0.17770000000E+01 0. -1.
         15    1    1    2    0    0  0.48430200195E+01 -0.83642397246E+00  0.22108947778E+02  0.22718225037E+02  0.17770000000E+01 0. -1.
</event>
<event>
 6    1  0.1298204E-002  0.1832069E+03  0.7546771E-02  0.1067893E+00
        -11   -1    0    0    0    0  0.00000000000E+00  0.00000000000E+00  0.18250000000E+03  0.18250000000E+03  0.00000000000E+00 0.  1.
         11   -1    0    0    0    0 -0.00000000000E+00 -0.00000000000E+00 -0.18250000000E+03  0.18250000000E+03  0.00000000000E+00 0. -1.
        -11    1    1    2    0    0  0.14658291238E+01  0.31683405913E+01  0.11383673116E+03  0.11389024716E+03  0.00000000000E+00 0.  1.
         11    1    1    2    0    0  0.51527318772E+01  0.10777397934E+00 -0.18172001065E+03  0.18179308164E+03  0.00000000000E+00 0. -1.
        -15    1    1    2    0    0 -0.26189735681E+01 -0.37043431167E+01  0.87093083789E+01  0.99795271389E+01  0.17770000000E+01 0. -1.
         15    1    1    2    0    0 -0.39995874328E+01  0.42822854604E+00  0.59173971111E+02  0.59337144061E+02  0.17770000000E+01 0.  1.
</event>
<event>
 6    1  0.1298204E-002  0.1827570E+03  0.7546771E-02  0.1068250E+00
        -11   -1    0    0    0    0  0.00000000000E+00  0.00000000000E+00  0.18250000000E+03  0.18250000000E+03  0.00000000000E+00 0. -1.
         11   -1    0    0    0    0 -0.00000000000E+00 -0.00000000000E+00 -0.18250000000E+03  0.18250000000E+03  0.00000000000E+00 0.  1.
        -11    1    1    2    0    0  0.94120051293E+00 -0.91246753936E+00  0.51981131323E+01  0.53608614561E+01  0.00000000000E+00 0. -1.
         11    1    1    2    0    0  0.30501100981E+01  0.19249761903E+01 -0.18220729109E+03  0.18224298514E+03  0.00000000000E+00 0.  1.
        -15    1    1    2    0    0 -0.38270188581E+01 -0.41014290390E+00  0.17187693695E+03  0.17192921065E+03  0.17770000000E+01 0. -1.
         15    1    1    2    0    0 -0.16429175290E+00 -0.60236574706E+00  0.51322410095E+01  0.54669427520E+01  0.17770000000E+01 0.  1.
</event>
<event>
 6    1  0.1298204E-002  0.1831419E+03  0.7546771E-02  0.1067945E+00
        -11   -1    0    0    0    0  0.00000000000E+00  0.00000000000E+00  0.18250000000E+03  0.18250000000E+03  0.00000000000E+00 0.  1.
         11   -1    0    0    0    0 -0.00000000000E+00 -0.00000000000E+00 -0.18250000000E+03  0.18250000000E+03  0.00000000000E+00 0. -1.
        -11    1    1    2    0    0  0.35479753842E+01  0.10064391656E+01  0.12358719292E+03  0.12364220681E+03  0.00000000000E+00 0.  1.
         11    1    1    2    0    0 -0.60474620083E-02  0.62800863973E+01 -0.18174965507E+03  0.18185812228E+03  0.00000000000E+00 0. -1.
        -15    1    1    2    0    0  0.18019913425E+01 -0.32465755275E+01  0.96031456044E+01  0.10448232384E+02  0.17770000000E+01 0. -1.
         15    1    1    2    0    0 -0.53439192647E+01 -0.40399500354E+01  0.48559316543E+02  0.49051438526E+02  0.17770000000E+01 0.  1.
</event>
<event>
 6    1  0.1298204E-002  0.1833610E+03  0.7546771E-02  0.1067772E+00
        -11   -1    0    0    0    0  0.00000000000E+00  0.00000000000E+00  0.18250000000E+03  0.18250000000E+03  0.00000000000E+00 0.  1.
         11   -1    0    0    0    0 -0.00000000000E+00 -0.00000000000E+00 -0.18250000000E+03  0.18250000000E+03  0.00000000000E+00 0. -1.
        -11    1    1    2    0    0 -0.35558410281E+01 -0.10339117937E+01  0.14601370176E+03  0.14606065206E+03  0.00000000000E+00 0.  1.
         11    1    1    2    0    0 -0.45002762551E+01 -0.32791148883E+01 -0.18155363103E+03  0.18163899918E+03  0.00000000000E+00 0. -1.
        -15    1    1    2    0    0  0.71043892645E+01  0.32351181831E+01  0.19215026658E+02  0.20816179163E+02  0.17770000000E+01 0.  1.
         15    1    1    2    0    0  0.95172801862E+00  0.10779084988E+01  0.16324902612E+02  0.16484169596E+02  0.17770000000E+01 0. -1.
</event>
<event>
 6    1  0.1298204E-002  0.1851830E+03  0.7546771E-02  0.1066339E+00
        -11   -1    0    0    0    0  0.00000000000E+00  0.00000000000E+00  0.18250000000E+03  0.18250000000E+03  0.00000000000E+00 0.  1.
         11   -1    0    0    0    0 -0.00000000000E+00 -0.00000000000E+00 -0.18250000000E+03  0.18250000000E+03  0.00000000000E+00 0. -1.
        -11    1    1    2    0    0  0.17021745716E+01  0.35436844198E+01  0.16880574265E+03  0.16885151421E+03  0.00000000000E+00 0.  1.
         11    1    1    2    0    0 -0.46115360150E+01 -0.14348345573E+00 -0.17975784786E+03  0.17981704791E+03  0.00000000000E+00 0. -1.
        -15    1    1    2    0    0 -0.31672963866E+01 -0.30384750038E+01  0.15341646414E+01  0.49774980559E+01  0.17770000000E+01 0. -1.
         15    1    1    2    0    0  0.60766578300E+01 -0.36172596030E+00  0.94179405654E+01  0.11353939825E+02  0.17770000000E+01 0. -1.
</event>
<event>
 6    1  0.1298204E-002  0.1755367E+03  0.7546771E-02  0.1074137E+00
        -11   -1    0    0    0    0  0.00000000000E+00  0.00000000000E+00  0.18250000000E+03  0.18250000000E+03  0.00000000000E+00 0. -1.
         11   -1    0    0    0    0 -0.00000000000E+00 -0.00000000000E+00 -0.18250000000E+03  0.18250000000E+03  0.00000000000E+00 0.  1.
        -11    1    1    2    0    0 -0.10226208574E+01 -0.60965830934E+01  0.17424641459E+03  0.17435603539E+03  0.00000000000E+00 0. -1.
         11    1    1    2    0    0  0.82278335504E+00 -0.40964098810E+01 -0.17682551411E+03  0.17687487099E+03  0.00000000000E+00 0.  1.
        -15    1    1    2    0    0  0.17669075503E+01  0.14398102111E+01 -0.20927293692E+01  0.35682293855E+01  0.17770000000E+01 0.  1.
         15    1    1    2    0    0 -0.15670700478E+01  0.87531827634E+01  0.46718288843E+01  0.10200864235E+02  0.17770000000E+01 0. -1.
</event>
<event>
 6    1  0.1298204E-002  0.1828735E+03  0.7546771E-02  0.1068158E+00
        -11   -1    0    0    0    0  0.00000000000E+00  0.00000000000E+00  0.18250000000E+03  0.18250000000E+03  0.00000000000E+00 0. -1.
         11   -1    0    0    0    0 -0.00000000000E+00 -0.00000000000E+00 -0.18250000000E+03  0.18250000000E+03  0.00000000000E+00 0. -1.
        -11    1    1    2    0    0 -0.23699683354E+00  0.30902856045E+01  0.13690566075E+03  0.13694073893E+03  0.00000000000E+00 0. -1.
         11    1    1    2    0    0 -0.16120895226E+01  0.19015902591E+01 -0.18210939488E+03  0.18212645766E+03  0.00000000000E+00 0. -1.
        -15    1    1    2    0    0  0.11129781830E+00 -0.29190853887E+01  0.97597088335E+01  0.10341329326E+02  0.17770000000E+01 0. -1.
         15    1    1    2    0    0  0.17377885378E+01 -0.20727904749E+01  0.35444025294E+02  0.35591474083E+02  0.17770000000E+01 0.  1.
</event>
<event>
 6    1  0.1298204E-002  0.1910395E+03  0.7546771E-02  0.1061854E+00
        -11   -1    0    0    0    0  0.00000000000E+00  0.00000000000E+00  0.18250000000E+03  0.18250000000E+03  0.00000000000E+00 0. -1.
         11   -1    0    0    0    0 -0.00000000000E+00 -0.00000000000E+00 -0.18250000000E+03  0.18250000000E+03  0.00000000000E+00 0. -1.
        -11    1    1    2    0    0 -0.78470359531E+01  0.29641016560E+01  0.17375818174E+03  0.17396053459E+03  0.00000000000E+00 0. -1.
         11    1    1    2    0    0 -0.74516224119E+01 -0.16276718363E+02 -0.15848243334E+03  0.15949025021E+03  0.00000000000E+00 0. -1.
        -15    1    1    2    0    0  0.60735068895E+01 -0.41649234187E+01 -0.26281975754E+01  0.80186797240E+01  0.17770000000E+01 0.  1.
         15    1    1    2    0    0  0.92251514755E+01  0.17477540126E+02 -0.12647550833E+02  0.23530535474E+02  0.17770000000E+01 0.  1.
</event>
<event>
 6    1  0.1298204E-002  0.2082079E+03  0.7546771E-02  0.1049654E+00
        -11   -1    0    0    0    0  0.00000000000E+00  0.00000000000E+00  0.18250000000E+03  0.18250000000E+03  0.00000000000E+00 0.  1.
         11   -1    0    0    0    0 -0.00000000000E+00 -0.00000000000E+00 -0.18250000000E+03  0.18250000000E+03  0.00000000000E+00 0.  1.
        -11    1    1    2    0    0  0.47907172024E+02 -0.48486063715E+01  0.14921508359E+03  0.15679205109E+03  0.00000000000E+00 0.  1.
         11    1    1    2    0    0 -0.32621782906E+01  0.18315287851E+01 -0.11254437683E+03  0.11260654094E+03  0.00000000000E+00 0.  1.
        -15    1    1    2    0    0 -0.64021664895E+02  0.28993181341E+01 -0.13812995939E+02  0.65583048171E+02  0.17770000000E+01 0.  1.
         15    1    1    2    0    0  0.19376671162E+02  0.11775945238E+00 -0.22857710813E+02  0.30018359802E+02  0.17770000000E+01 0. -1.
</event>
<event>
 6    1  0.1298204E-002  0.1840214E+03  0.7546771E-02  0.1067250E+00
        -11   -1    0    0    0    0  0.00000000000E+00  0.00000000000E+00  0.18250000000E+03  0.18250000000E+03  0.00000000000E+00 0. -1.
         11   -1    0    0    0    0 -0.00000000000E+00 -0.00000000000E+00 -0.18250000000E+03  0.18250000000E+03  0.00000000000E+00 0. -1.
        -11    1    1    2    0    0  0.35801088762E+01 -0.13927777798E+01  0.14651682271E+03  0.14656717349E+03  0.00000000000E+00 0. -1.
         11    1    1    2    0    0  0.13267849088E+01  0.57142217838E+01 -0.18088355045E+03  0.18097864933E+03  0.00000000000E+00 0. -1.
        -15    1    1    2    0    0 -0.19037398224E+01  0.45598904142E+01  0.14314374846E+02  0.15247159805E+02  0.17770000000E+01 0. -1.
         15    1    1    2    0    0 -0.30031539626E+01 -0.88813344181E+01  0.20052352900E+02  0.22207017373E+02  0.17770000000E+01 0.  1.
</event>
<event>
 6    1  0.1298204E-002  0.1826052E+03  0.7546771E-02  0.1068371E+00
        -11   -1    0    0    0    0  0.00000000000E+00  0.00000000000E+00  0.18250000000E+03  0.18250000000E+03  0.00000000000E+00 0.  1.
         11   -1    0    0    0    0 -0.00000000000E+00 -0.00000000000E+00 -0.18250000000E+03  0.18250000000E+03  0.00000000000E+00 0. -1.
        -11    1    1    2    0    0 -0.34389026726E+01 -0.63593920797E-01  0.18236240227E+03  0.18239483506E+03  0.00000000000E+00 0.  1.
         11    1    1    2    0    0 -0.90010288268E+00 -0.69760411619E+00 -0.73399126723E+02  0.73407960334E+02  0.00000000000E+00 0. -1.
        -15    1    1    2    0    0  0.36246870635E+01 -0.13420187990E+01 -0.71174019557E+02  0.71301038980E+02  0.17770000000E+01 0.  1.
         15    1    1    2    0    0  0.71431849176E+00  0.21032168360E+01 -0.37789255988E+02  0.37896165625E+02  0.17770000000E+01 0. -1.
</event>
<event>
 6    1  0.1298204E-002  0.1845575E+03  0.7546771E-02  0.1066829E+00
        -11   -1    0    0    0    0  0.00000000000E+00  0.00000000000E+00  0.18250000000E+03  0.18250000000E+03  0.00000000000E+00 0.  1.
         11   -1    0    0    0    0 -0.00000000000E+00 -0.00000000000E+00 -0.18250000000E+03  0.18250000000E+03  0.00000000000E+00 0.  1.
        -11    1    1    2    0    0 -0.22739229938E+01  0.27529761729E+00  0.14348840001E+03  0.14350668086E+03  0.00000000000E+00 0.  1.
         11    1    1    2    0    0  0.54741138855E+01 -0.26235917024E+01 -0.18034032125E+03  0.18044245793E+03  0.00000000000E+00 0.  1.
        -15    1    1    2    0    0 -0.55325116274E+01 -0.14757262733E+01  0.27252876050E+01  0.65856946840E+01  0.17770000000E+01 0. -1.
         15    1    1    2    0    0  0.23323207357E+01  0.38240203584E+01  0.34126633634E+02  0.34465166530E+02  0.17770000000E+01 0.  1.
</event>
<event>
 6    1  0.1298204E-002  0.1834276E+03  0.7546771E-02  0.1067719E+00
        -11   -1    0    0    0    0  0.00000000000E+00  0.00000000000E+00  0.18250000000E+03  0.18250000000E+03  0.00000000000E+00 0.  1.
         11   -1    0    0    0    0 -0.00000000000E+00 -0.00000000000E+00 -0.18250000000E+03  0.18250000000E+03  0.00000000000E+00 0.  1.
        -11    1    1    2    0    0 -0.29216973151E+01  0.13894833683E+00  0.18154887829E+03  0.18157243962E+03  0.00000000000E+00 0.  1.
         11    1    1    2    0    0 -0.11428442879E+01 -0.13993893164E+01 -0.74807604928E+02  0.74829420274E+02  0.00000000000E+00 0.  1.
        -15    1    1    2    0    0 -0.46158483806E-01  0.58219716452E+00 -0.10208543443E+03  0.10210256969E+03  0.17770000000E+01 0. -1.
         15    1    1    2    0    0  0.41107000868E+01  0.67824381505E+00 -0.46558389315E+01  0.64955704162E+01  0.17770000000E+01 0.  1.
</event>
<event>
 6    1  0.2524601E-002  0.1948083E+03  0.7546771E-02  0.1059059E+00
        -11   -1    0    0    0    0  0.00000000000E+00  0.00000000000E+00  0.18250000000E+03  0.18250000000E+03  0.00000000000E+00 0. -1.
         11   -1    0    0    0    0 -0.00000000000E+00 -0.00000000000E+00 -0.18250000000E+03  0.18250000000E+03  0.00000000000E+00 0. -1.
        -11    1    1    2    0    0 -0.31852746277E+01 -0.56659325159E+01  0.11821095977E+03  0.11838952562E+03  0.00000000000E+00 0. -1.
         11    1    1    2    0    0  0.24157476018E+01 -0.14722349930E+01 -0.17016823041E+03  0.17019174467E+03  0.00000000000E+00 0. -1.
        -15    1    1    2    0    0  0.14571917036E+01  0.60707874417E+01  0.63924810414E+02  0.64253536737E+02  0.17770000000E+01 0. -1.
         15    1    1    2    0    0 -0.68766467768E+00  0.10673800672E+01 -0.11967539773E+02  0.12165192976E+02  0.17770000000E+01 0.  1.
</event>
<event>
 6    1  0.1298204E-002  0.1834727E+03  0.7546771E-02  0.1067683E+00
        -11   -1    0    0    0    0  0.00000000000E+00  0.00000000000E+00  0.18250000000E+03  0.18250000000E+03  0.00000000000E+00 0. -1.
         11   -1    0    0    0    0 -0.00000000000E+00 -0.00000000000E+00 -0.18250000000E+03  0.18250000000E+03  0.00000000000E+00 0.  1.
        -11    1    1    2    0    0 -0.53052701900E+01  0.22011332296E+01  0.16008675340E+03  0.16018976089E+03  0.00000000000E+00 0. -1.
         11    1    1    2    0    0  0.28149482593E+01 -0.20401298046E+01 -0.18149397382E+03  0.18152726681E+03  0.00000000000E+00 0.  1.
        -15    1    1    2    0    0  0.32539834303E+01 -0.32404502123E+01  0.16198874620E+02  0.16930746991E+02  0.17770000000E+01 0. -1.
         15    1    1    2    0    0 -0.76366149962E+00  0.30794467873E+01  0.52083458005E+01  0.63522253093E+01  0.17770000000E+01 0. -1.
</event>
<event>
 6    1  0.1298204E-002  0.1832680E+03  0.7546771E-02  0.1067845E+00
        -11   -1    0    0    0    0  0.00000000000E+00  0.00000000000E+00  0.18250000000E+03  0.18250000000E+03  0.00000000000E+00 0.  1.
         11   -1    0    0    0    0 -0.00000000000E+00 -0.00000000000E+00 -0.18250000000E+03  0.18250000000E+03  0.00000000000E+00 0. -1.
        -11    1    1    2    0    0  0.91716341063E+00 -0.19383335397E+01  0.90672232405E+02  0.90697585717E+02  0.00000000000E+00 0.  1.
         11    1    1    2    0    0 -0.29815741194E+01 -0.39854741515E+01 -0.18166385924E+03  0.18173203224E+03  0.00000000000E+00 0. -1.
        -15    1    1    2    0    0 -0.57304715102E+00  0.39120250973E+01  0.86912635105E+02  0.87020665323E+02  0.17770000000E+01 0. -1.
         15    1    1    2    0    0  0.26374578598E+01  0.20117825940E+01  0.40789917285E+01  0.55497167215E+01  0.17770000000E+01 0. -1.
</event>
<event>
 6    1  0.1298204E-002  0.1895393E+03  0.7546771E-02  0.1062986E+00
        -11   -1    0    0    0    0  0.00000000000E+00  0.00000000000E+00  0.18250000000E+03  0.18250000000E+03  0.00000000000E+00 0.  1.
         11   -1    0    0    0    0 -0.00000000000E+00 -0.00000000000E+00 -0.18250000000E+03  0.18250000000E+03  0.00000000000E+00 0. -1.
        -11    1    1    2    0    0  0.11810842845E+01  0.31746857269E+01  0.17542803315E+03  0.17546073180E+03  0.00000000000E+00 0.  1.
         11    1    1    2    0    0 -0.81714936089E+01 -0.71197678716E+00 -0.16910245569E+03  0.16930127211E+03  0.00000000000E+00 0. -1.
        -15    1    1    2    0    0  0.10625758827E+02 -0.91563576413E+00  0.18654766814E+01  0.10971912857E+02  0.17770000000E+01 0.  1.
         15    1    1    2    0    0 -0.36353495024E+01 -0.15470731756E+01 -0.81910541411E+01  0.92660832263E+01  0.17770000000E+01 0. -1.
</event>
<event>
 6    1  0.1368521E-002  0.1845651E+03  0.7546771E-02  0.1066823E+00
        -11   -1    0    0    0    0  0.00000000000E+00  0.00000000000E+00  0.18250000000E+03  0.18250000000E+03  0.00000000000E+00 0.  1.
         11   -1    0    0    0    0 -0.00000000000E+00 -0.00000000000E+00 -0.18250000000E+03  0.18250000000E+03  0.00000000000E+00 0.  1.
        -11    1    1    2    0    0 -0.28559277719E+01 -0.32546516542E+00  0.18041197049E+03  0.18043486733E+03  0.00000000000E+00 0.  1.
         11    1    1    2    0    0 -0.25624628877E+01  0.60919299858E+01 -0.14567013073E+03  0.14581997399E+03  0.00000000000E+00 0.  1.
        -15    1    1    2    0    0  0.12874316918E+01 -0.10774147374E+01  0.83247402892E+00  0.25824493966E+01  0.17770000000E+01 0.  1.
         15    1    1    2    0    0  0.41309589678E+01 -0.46890500830E+01 -0.35574313787E+02  0.36162709288E+02  0.17770000000E+01 0. -1.
</event>
<event>
 6    1  0.1298204E-002  0.1830675E+03  0.7546771E-02  0.1068004E+00
        -11   -1    0    0    0    0  0.00000000000E+00  0.00000000000E+00  0.18250000000E+03  0.18250000000E+03  0.00000000000E+00 0. -1.
         11   -1    0    0    0    0 -0.00000000000E+00 -0.00000000000E+00 -0.18250000000E+03  0.18250000000E+03  0.00000000000E+00 0. -1.
        -11    1    1    2    0    0  0.36180845971E+00  0.12605572759E+01  0.81626063819E+02  0.81636598438E+02  0.00000000000E+00 0. -1.
         11    1    1    2    0    0 -0.44947359791E+01  0.22939757884E+01 -0.18186245610E+03  0.18193245427E+03  0.00000000000E+00 0. -1.
        -15    1    1    2    0    0 -0.52047178099E+01 -0.13743022688E+01  0.31468707093E+02  0.31975225555E+02  0.17770000000E+01 0.  1.
         15    1    1    2    0    0  0.93376453292E+01 -0.21802307956E+01  0.68767685191E+02  0.69455721738E+02  0.17770000000E+01 0. -1.
</event>
<event>
 6    1  0.1298204E-002  0.1831325E+03  0.7546771E-02  0.1067952E+00
        -11   -1    0    0    0    0  0.00000000000E+00  0.00000000000E+00  0.18250000000E+03  0.18250000000E+03  0.00000000000E+00 0. -1.
         11   -1    0    0    0    0 -0.00000000000E+00 -0.00000000000E+00 -0.18250000000E+03  0.18250000000E+03  0.00000000000E+00 0. -1.
        -11    1    1    2    0    0 -0.22789505679E+01 -0.10195637286E-01  0.15438751305E+03  0.15440433253E+03  0.00000000000E+00 0. -1.
         11    1    1    2    0    0  0.75415508283E+00  0.44479342531E+01 -0.18181151832E+03  0.18186748215E+03  0.00000000000E+00 0. -1.
        -15    1    1    2    0    0  0.22592662797E+01 -0.17262486530E+01  0.22732522862E+02  0.22978458242E+02  0.17770000000E+01 0. -1.
         15    1    1    2    0    0 -0.73447079469E+00 -0.27114899627E+01  0.46914824123E+01  0.57497270710E+01  0.17770000000E+01 0.  1.
</event>
<event>
 6    1  0.1298204E-002  0.1830168E+03  0.7546771E-02  0.1068044E+00
        -11   -1    0    0    0    0  0.00000000000E+00  0.00000000000E+00  0.18250000000E+03  0.18250000000E+03  0.00000000000E+00 0. -1.
         11   -1    0    0    0    0 -0.00000000000E+00 -0.00000000000E+00 -0.18250000000E+03  0.18250000000E+03  0.00000000000E+00 0.  1.
        -11    1    1    2    0    0 -0.26789210839E+01  0.10237478101E+01  0.18196056681E+03  0.18198316558E+03  0.00000000000E+00 0. -1.
         11    1    1    2    0    0  0.20903402938E+01  0.17895665673E+01 -0.15094463736E+03  0.15096971755E+03  0.00000000000E+00 0.  1.
        -15    1    1    2    0    0 -0.17506292034E+01 -0.10845780678E+01 -0.24878065147E+02  0.25026323475E+02  0.17770000000E+01 0.  1.
         15    1    1    2    0    0  0.23392099934E+01 -0.17287363096E+01 -0.61378643099E+01  0.70207933960E+01  0.17770000000E+01 0. -1.
</event>
<event>
 6    1  0.1298204E-002  0.1832984E+03  0.7546771E-02  0.1067821E+00
        -11   -1    0    0    0    0  0.00000000000E+00  0.00000000000E+00  0.18250000000E+03  0.18250000000E+03  0.00000000000E+00 0.  1.
         11   -1    0    0    0    0 -0.00000000000E+00 -0.00000000000E+00 -0.18250000000E+03  0.18250000000E+03  0.00000000000E+00 0. -1.
        -11    1    1    2    0    0  0.46557585364E+01 -0.13697050020E+01  0.12219384107E+03  0.12229017530E+03  0.00000000000E+00 0.  1.
         11    1    1    2    0    0 -0.10496625585E+02  0.56947927700E+00 -0.18139730852E+03  0.18170164280E+03  0.00000000000E+00 0. -1.
        -15    1    1    2    0    0 -0.21646671739E+01  0.35992169274E+01  0.92993658241E+01  0.10357416676E+02  0.17770000000E+01 0. -1.
         15    1    1    2    0    0  0.80055342222E+01 -0.27989912024E+01  0.49904101628E+02  0.50650765229E+02  0.17770000000E+01 0.  1.
</event>
<event>
 6    1  0.1298204E-002  0.1854735E+03  0.7546771E-02  0.1066112E+00
        -11   -1    0    0    0    0  0.00000000000E+00  0.00000000000E+00  0.18250000000E+03  0.18250000000E+03  0.00000000000E+00 0. -1.
         11   -1    0    0    0    0 -0.00000000000E+00 -0.00000000000E+00 -0.18250000000E+03  0.18250000000E+03  0.00000000000E+00 0. -1.
        -11    1    1    2    0    0  0.26276935244E+01  0.48652669022E+00  0.17950662386E+03  0.17952651473E+03  0.00000000000E+00 0. -1.
         11    1    1    2    0    0 -0.69302034102E+00 -0.34479759694E+01 -0.13221087675E+03  0.13225764532E+03  0.00000000000E+00 0. -1.
        -15    1    1    2    0    0 -0.98940622586E+01  0.70622040276E+00 -0.75826216160E+01  0.12611308211E+02  0.17770000000E+01 0. -1.
         15    1    1    2    0    0  0.79593890752E+01  0.22552288764E+01 -0.39713125494E+02  0.40604531733E+02  0.17770000000E+01 0.  1.
</event>
<event>
 6    1  0.1298204E-002  0.1862923E+03  0.7546771E-02  0.1065476E+00
        -11   -1    0    0    0    0  0.00000000000E+00  0.00000000000E+00  0.18250000000E+03  0.18250000000E+03  0.00000000000E+00 0.  1.
         11   -1    0    0    0    0 -0.00000000000E+00 -0.00000000000E+00 -0.18250000000E+03  0.18250000000E+03  0.00000000000E+00 0. -1.
        -11    1    1    2    0    0  0.70584692705E+01  0.28767498163E+01  0.17854512056E+03  0.17870774397E+03  0.00000000000E+00 0.  1.
         11    1    1    2    0    0  0.12028630724E+02 -0.11029416517E+02 -0.10755079553E+03  0.10878193602E+03  0.00000000000E+00 0. -1.
        -15    1    1    2    0    0 -0.23381068988E+02  0.45178583259E+01 -0.45998361544E+02  0.51827525743E+02  0.17770000000E+01 0.  1.
         15    1    1    2    0    0  0.42939689940E+01  0.36348083750E+01 -0.24995963491E+02  0.25682794269E+02  0.17770000000E+01 0. -1.
</event>
<event>
 6    1  0.1298204E-002  0.1828483E+03  0.7546771E-02  0.1068178E+00
        -11   -1    0    0    0    0  0.00000000000E+00  0.00000000000E+00  0.18250000000E+03  0.18250000000E+03  0.00000000000E+00 0. -1.
         11   -1    0    0    0    0 -0.00000000000E+00 -0.00000000000E+00 -0.18250000000E+03  0.18250000000E+03  0.00000000000E+00 0. -1.
        -11    1    1    2    0    0 -0.26911751753E+01 -0.62545086060E+00  0.16812548961E+02  0.17038057846E+02  0.00000000000E+00 0. -1.
         11    1    1    2    0    0  0.73063233641E+01 -0.80556821556E+00 -0.18200331116E+03  0.18215168562E+03  0.00000000000E+00 0. -1.
        -15    1    1    2    0    0 -0.32496712414E+01  0.19331897335E+01  0.16080763425E+03  0.16086189899E+03  0.17770000000E+01 0. -1.
         15    1    1    2    0    0 -0.13654769474E+01 -0.50217065730E+00  0.43831279578E+01  0.49483575414E+01  0.17770000000E+01 0. -1.
</event>
<event>
 6    1  0.1298204E-002  0.1826509E+03  0.7546771E-02  0.1068335E+00
        -11   -1    0    0    0    0  0.00000000000E+00  0.00000000000E+00  0.18250000000E+03  0.18250000000E+03  0.00000000000E+00 0.  1.
         11   -1    0    0    0    0 -0.00000000000E+00 -0.00000000000E+00 -0.18250000000E+03  0.18250000000E+03  0.00000000000E+00 0. -1.
        -11    1    1    2    0    0  0.22140935241E+01  0.20087657095E+01  0.18232456317E+03  0.18234907097E+03  0.00000000000E+00 0.  1.
         11    1    1    2    0    0 -0.13137183116E+00  0.11715493198E+01 -0.12745525206E+02  0.12799929653E+02  0.00000000000E+00 0. -1.
        -15    1    1    2    0    0  0.14942041812E+00 -0.49025727252E+01 -0.13758339487E+03  0.13768226399E+03  0.17770000000E+01 0. -1.
         15    1    1    2    0    0 -0.22321421110E+01  0.17222576959E+01 -0.31995643097E+02  0.32168735383E+02  0.17770000000E+01 0.  1.
</event>
<event>
 6    1  0.1298204E-002  0.1830336E+03  0.7546771E-02  0.1068031E+00
        -11   -1    0    0    0    0  0.00000000000E+00  0.00000000000E+00  0.18250000000E+03  0.18250000000E+03  0.00000000000E+00 0. -1.
         11   -1    0    0    0    0 -0.00000000000E+00 -0.00000000000E+00 -0.18250000000E+03  0.18250000000E+03  0.00000000000E+00 0.  1.
        -11    1    1    2    0    0 -0.77437037256E+00 -0.40863699720E+01  0.18191881876E+03  0.18196635592E+03  0.00000000000E+00 0. -1.
         11    1    1    2    0    0 -0.12720525021E+01  0.17208672231E+01 -0.95257707883E+02  0.95281742284E+02  0.00000000000E+00 0.  1.
        -15    1    1    2    0    0 -0.25713502998E+01 -0.19140562381E+01 -0.65504630067E+02  0.65607086072E+02  0.17770000000E+01 0. -1.
         15    1    1    2    0    0  0.46177731744E+01  0.42795589870E+01 -0.21156480808E+02  0.22144815723E+02  0.17770000000E+01 0. -1.
</event>
<event>
 6    1  0.1298204E-002  0.1605126E+03  0.7546771E-02  0.1087442E+00
        -11   -1    0    0    0    0  0.00000000000E+00  0.00000000000E+00  0.18250000000E+03  0.18250000000E+03  0.00000000000E+00 0. -1.
         11   -1    0    0    0    0 -0.00000000000E+00 -0.00000000000E+00 -0.18250000000E+03  0.18250000000E+03  0.00000000000E+00 0.  1.
        -11    1    1    2    0    0  0.50343324238E+01 -0.16522951892E+02  0.15739850130E+03  0.15834342631E+03  0.00000000000E+00 0. -1.
         11    1    1    2    0    0  0.10594910895E+02  0.21185071387E+01 -0.16307727491E+03  0.16343481209E+03  0.00000000000E+00 0.  1.
        -15    1    1    2    0    0 -0.14041379847E+02  0.62278552875E+01  0.20769516104E+02  0.25893571744E+02  0.17770000000E+01 0. -1.
         15    1    1    2    0    0 -0.15878634722E+01  0.81765894660E+01 -0.15090742496E+02  0.17328189859E+02  0.17770000000E+01 0.  1.
</event>
<event>
 6    1  0.1298204E-002  0.1827244E+03  0.7546771E-02  0.1068276E+00
        -11   -1    0    0    0    0  0.00000000000E+00  0.00000000000E+00  0.18250000000E+03  0.18250000000E+03  0.00000000000E+00 0. -1.
         11   -1    0    0    0    0 -0.00000000000E+00 -0.00000000000E+00 -0.18250000000E+03  0.18250000000E+03  0.00000000000E+00 0.  1.
        -11    1    1    2    0    0 -0.17683907616E+01 -0.12413498227E+01  0.13004507586E+03  0.13006302284E+03  0.00000000000E+00 0. -1.
         11    1    1    2    0    0 -0.30268916780E+01  0.53907424702E+00 -0.18224962075E+03  0.18227555222E+03  0.00000000000E+00 0.  1.
        -15    1    1    2    0    0  0.30126487648E+01 -0.82970961491E+00  0.19840797305E+02  0.20163815049E+02  0.17770000000E+01 0. -1.
         15    1    1    2    0    0  0.17826336749E+01  0.15319851906E+01  0.32363747589E+02  0.32497609888E+02  0.17770000000E+01 0.  1.
</event>
<event>
 6    1  0.1298204E-002  0.1841241E+03  0.7546771E-02  0.1067169E+00
        -11   -1    0    0    0    0  0.00000000000E+00  0.00000000000E+00  0.18250000000E+03  0.18250000000E+03  0.00000000000E+00 0. -1.
         11   -1    0    0    0    0 -0.00000000000E+00 -0.00000000000E+00 -0.18250000000E+03  0.18250000000E+03  0.00000000000E+00 0.  1.
        -11    1    1    2    0    0 -0.89009654710E+00 -0.13159187736E+01  0.65178976236E+02  0.65198334774E+02  0.00000000000E+00 0. -1.
         11    1    1    2    0    0  0.97659310984E+01  0.12628429778E+02 -0.18017003619E+03  0.18087590384E+03  0.00000000000E+00 0.  1.
        -15    1    1    2    0    0 -0.14272640508E+02 -0.43230357359E+01  0.10210488991E+03  0.10320350371E+03  0.17770000000E+01 0. -1.
         15    1    1    2    0    0  0.53968059564E+01 -0.69894752689E+01  0.12886170046E+02  0.15722257678E+02  0.17770000000E+01 0.  1.
</event>
<event>
 6    1  0.1298204E-002  0.1868248E+03  0.7546771E-02  0.1065063E+00
        -11   -1    0    0    0    0  0.00000000000E+00  0.00000000000E+00  0.18250000000E+03  0.18250000000E+03  0.00000000000E+00 0. -1.
         11   -1    0    0    0    0 -0.00000000000E+00 -0.00000000000E+00 -0.18250000000E+03  0.18250000000E+03  0.00000000000E+00 0. -1.
        -11    1    1    2    0    0  0.15215293046E+00 -0.53612319919E+01  0.17110140261E+03  0.17118544311E+03  0.00000000000E+00 0. -1.
         11    1    1    2    0    0 -0.45114283450E+01 -0.34372894078E+01 -0.17808490798E+03  0.17817520140E+03  0.00000000000E+00 0. -1.
        -15    1    1    2    0    0 -0.19603248727E+01  0.47153738325E+01  0.56024143983E+01  0.77860387924E+01  0.17770000000E+01 0.  1.
         15    1    1    2    0    0  0.63196002873E+01  0.40831475672E+01  0.13810909715E+01  0.78533166954E+01  0.17770000000E+01 0.  1.
</event>
<event>
 6    1  0.1298204E-002  0.1840750E+03  0.7546771E-02  0.1067208E+00
        -11   -1    0    0    0    0  0.00000000000E+00  0.00000000000E+00  0.18250000000E+03  0.18250000000E+03  0.00000000000E+00 0. -1.
         11   -1    0    0    0    0 -0.00000000000E+00 -0.00000000000E+00 -0.18250000000E+03  0.18250000000E+03  0.00000000000E+00 0.  1.
        -11    1    1    2    0    0 -0.18546504918E+01  0.36625170555E+01  0.18087845227E+03  0.18092503490E+03  0.00000000000E+00 0. -1.
         11    1    1    2    0    0 -0.27233857151E+00  0.25051144937E+01 -0.15755045709E+03  0.15757060734E+03  0.00000000000E+00 0.  1.
        -15    1    1    2    0    0  0.18933860269E+01 -0.29686814964E+01 -0.12697653838E+01  0.41434301736E+01  0.17770000000E+01 0.  1.
         15    1    1    2    0    0  0.23360303633E+00 -0.31989500529E+01 -0.22058229793E+02  0.22360927584E+02  0.17770000000E+01 0.  1.
</event>
<event>
 6    1  0.1298204E-002  0.1828895E+03  0.7546771E-02  0.1068145E+00
        -11   -1    0    0    0    0  0.00000000000E+00  0.00000000000E+00  0.18250000000E+03  0.18250000000E+03  0.00000000000E+00 0.  1.
         11   -1    0    0    0    0 -0.00000000000E+00 -0.00000000000E+00 -0.18250000000E+03  0.18250000000E+03  0.00000000000E+00 0. -1.
        -11    1    1    2    0    0  0.73115899128E+00 -0.18819579393E+01  0.14007559291E+03  0.14009014272E+03  0.00000000000E+00 0.  1.
         11    1    1    2    0    0  0.10683714209E+01 -0.41996222189E+01 -0.18205894628E+03  0.18211051086E+03  0.00000000000E+00 0. -1.
        -15    1    1    2    0    0 -0.16041678153E+01  0.52309605534E+01  0.22817677493E+02  0.23531690077E+02  0.17770000000E+01 0.  1.
         15    1    1    2    0    0 -0.19536259689E+00  0.85061960473E+00  0.19165675876E+02  0.19267656345E+02  0.17770000000E+01 0.  1.
</event>
<event>
 6    1  0.1298204E-002  0.1827052E+03  0.7546771E-02  0.1068292E+00
        -11   -1    0    0    0    0  0.00000000000E+00  0.00000000000E+00  0.18250000000E+03  0.18250000000E+03  0.00000000000E+00 0. -1.
         11   -1    0    0    0    0 -0.00000000000E+00 -0.00000000000E+00 -0.18250000000E+03  0.18250000000E+03  0.00000000000E+00 0.  1.
        -11    1    1    2    0    0 -0.72671773980E+00  0.22347452525E+01  0.11791783733E+03  0.11794125048E+03  0.00000000000E+00 0. -1.
         11    1    1    2    0    0  0.13606169962E+01 -0.49871395483E+01 -0.18222152587E+03  0.18229483627E+03  0.00000000000E+00 0.  1.
        -15    1    1    2    0    0 -0.12572871814E+01  0.21904464618E+00  0.52495978808E+02  0.52541548051E+02  0.17770000000E+01 0. -1.
         15    1    1    2    0    0  0.62338792497E+00  0.25333496497E+01  0.11807709735E+02  0.12222365202E+02  0.17770000000E+01 0.  1.
</event>
<event>
 6    1  0.1298204E-002  0.1836105E+03  0.7546771E-02  0.1067574E+00
        -11   -1    0    0    0    0  0.00000000000E+00  0.00000000000E+00  0.18250000000E+03  0.18250000000E+03  0.00000000000E+00 0. -1.
         11   -1    0    0    0    0 -0.00000000000E+00 -0.00000000000E+00 -0.18250000000E+03  0.18250000000E+03  0.00000000000E+00 0. -1.
        -11    1    1    2    0    0 -0.20924939527E+01  0.92931257606E+01  0.18113916615E+03  0.18138946560E+03  0.00000000000E+00 0. -1.
         11    1    1    2    0    0 -0.40606659605E+01 -0.55307207002E+01 -0.14536311284E+03  0.14552495475E+03  0.00000000000E+00 0. -1.
        -15    1    1    2    0    0  0.20096282408E+01 -0.48061878296E+01 -0.68294333313E+01  0.87713702319E+01  0.17770000000E+01 0.  1.
         15    1    1    2    0    0  0.41435316725E+01  0.10437827692E+01 -0.28946619976E+02  0.29314209425E+02  0.17770000000E+01 0. -1.
</event>
<event>
 6    1  0.1298204E-002  0.1884081E+03  0.7546771E-02  0.1063847E+00
        -11   -1    0    0    0    0  0.00000000000E+00  0.00000000000E+00  0.18250000000E+03  0.18250000000E+03  0.00000000000E+00 0. -1.
         11   -1    0    0    0    0 -0.00000000000E+00 -0.00000000000E+00 -0.18250000000E+03  0.18250000000E+03  0.00000000000E+00 0. -1.
        -11    1    1    2    0    0  0.28157534968E+01 -0.40534985957E+00  0.65307908616E+02  0.65369837877E+02  0.00000000000E+00 0. -1.
         11    1    1    2    0    0 -0.13672331722E+02  0.15297767148E+02 -0.17539592535E+03  0.17659185985E+03  0.00000000000E+00 0. -1.
        -15    1    1    2    0    0 -0.90767893990E+01 -0.14194161413E+02  0.98409221787E+02  0.99856872501E+02  0.17770000000E+01 0. -1.
         15    1    1    2    0    0  0.19933367624E+02 -0.69825587579E+00  0.11678794947E+02  0.23181429777E+02  0.17770000000E+01 0.  1.
</event>
<event>
 6    1  0.1298204E-002  0.2073696E+03  0.7546771E-02  0.1050219E+00
        -11   -1    0    0    0    0  0.00000000000E+00  0.00000000000E+00  0.18250000000E+03  0.18250000000E+03  0.00000000000E+00 0.  1.
         11   -1    0    0    0    0 -0.00000000000E+00 -0.00000000000E+00 -0.18250000000E+03  0.18250000000E+03  0.00000000000E+00 0. -1.
        -11    1    1    2    0    0 -0.16364001712E+02 -0.90826321917E+01  0.15651543394E+03  0.15763044066E+03  0.00000000000E+00 0.  1.
         11    1    1    2    0    0  0.57293241513E+01 -0.12377748785E+02 -0.80152326389E+02  0.81304546280E+02  0.00000000000E+00 0. -1.
        -15    1    1    2    0    0 -0.71087721633E+01  0.49427553711E+02 -0.78249762949E+02  0.92842882539E+02  0.17770000000E+01 0.  1.
         15    1    1    2    0    0  0.17743449724E+02 -0.27967172734E+02  0.18866553930E+01  0.33222130522E+02  0.17770000000E+01 0. -1.
</event>
<event>
 6    1  0.1298204E-002  0.1827683E+03  0.7546771E-02  0.1068241E+00
        -11   -1    0    0    0    0  0.00000000000E+00  0.00000000000E+00  0.18250000000E+03  0.18250000000E+03  0.00000000000E+00 0. -1.
         11   -1    0    0    0    0 -0.00000000000E+00 -0.00000000000E+00 -0.18250000000E+03  0.18250000000E+03  0.00000000000E+00 0. -1.
        -11    1    1    2    0    0  0.22966756513E+01 -0.12903423605E+00  0.15789008170E+03  0.15790683731E+03  0.00000000000E+00 0. -1.
         11    1    1    2    0    0 -0.17552645167E+01 -0.19468747074E+01 -0.18221280114E+03  0.18223165525E+03  0.00000000000E+00 0. -1.
        -15    1    1    2    0    0  0.95286208673E+00  0.32617354277E-01  0.11118908260E+02  0.11300303533E+02  0.17770000000E+01 0.  1.
         15    1    1    2    0    0 -0.14942732213E+01  0.20432915892E+01  0.13203811180E+02  0.13561203916E+02  0.17770000000E+01 0. -1.
</event>
<event>
 6    1  0.1298204E-002  0.1909859E+03  0.7546771E-02  0.1061894E+00
        -11   -1    0    0    0    0  0.00000000000E+00  0.00000000000E+00  0.18250000000E+03  0.18250000000E+03  0.00000000000E+00 0.  1.
         11   -1    0    0    0    0 -0.00000000000E+00 -0.00000000000E+00 -0.18250000000E+03  0.18250000000E+03  0.00000000000E+00 0.  1.
        -11    1    1    2    0    0 -0.18935142631E+01 -0.13927248442E+01  0.17399820924E+03  0.17401408534E+03  0.00000000000E+00 0.  1.
         11    1    1    2    0    0 -0.18408419288E+01  0.94262701977E+01 -0.16167891617E+03  0.16196393179E+03  0.00000000000E+00 0.  1.
        -15    1    1    2    0    0  0.12339305579E+02  0.23354571163E+01 -0.57295787429E+01  0.13917565293E+02  0.17770000000E+01 0.  1.
         15    1    1    2    0    0 -0.86049493870E+01 -0.10369002470E+02 -0.65897143288E+01  0.15104417569E+02  0.17770000000E+01 0. -1.
</event>
<event>
 6    1  0.1298204E-002  0.1900416E+03  0.7546771E-02  0.1062605E+00
        -11   -1    0    0    0    0  0.00000000000E+00  0.00000000000E+00  0.18250000000E+03  0.18250000000E+03  0.00000000000E+00 0.  1.
         11   -1    0    0    0    0 -0.00000000000E+00 -0.00000000000E+00 -0.18250000000E+03  0.18250000000E+03  0.00000000000E+00 0. -1.
        -11    1    1    2    0    0 -0.20368770555E+01  0.37718115939E+01  0.17490584664E+03  0.17495836825E+03  0.00000000000E+00 0.  1.
         11    1    1    2    0    0 -0.22086658992E+01 -0.14632263995E+01 -0.16494009403E+03  0.16496137080E+03  0.00000000000E+00 0. -1.
        -15    1    1    2    0    0  0.97771849764E+01 -0.93617034607E+01 -0.76648320219E+01  0.15657018128E+02  0.17770000000E+01 0. -1.
         15    1    1    2    0    0 -0.55316420217E+01  0.70531182663E+01 -0.23009205881E+01  0.94232428223E+01  0.17770000000E+01 0.  1.
</event>
<event>
 6    1  0.1298204E-002  0.1895007E+03  0.7546771E-02  0.1063015E+00
        -11   -1    0    0    0    0  0.00000000000E+00  0.00000000000E+00  0.18250000000E+03  0.18250000000E+03  0.00000000000E+00 0.  1.
         11   -1    0    0    0    0 -0.00000000000E+00 -0.00000000000E+00 -0.18250000000E+03  0.18250000000E+03  0.00000000000E+00 0. -1.
        -11    1    1    2    0    0 -0.14783291557E+01 -0.20150885430E+01  0.17548145790E+03  0.17549925386E+03  0.00000000000E+00 0.  1.
         11    1    1    2    0    0  0.38569872432E+01 -0.14333776042E+01 -0.17156798824E+03  0.17161732288E+03  0.00000000000E+00 0. -1.
        -15    1    1    2    0    0 -0.23589028649E+01  0.29238492593E+01 -0.10367101696E+02  0.11169057426E+02  0.17770000000E+01 0.  1.
         15    1    1    2    0    0 -0.19755222588E-01  0.52461688796E+00  0.64536320378E+01  0.67143658396E+01  0.17770000000E+01 0.  1.
</event>
<event>
 6    1  0.1298204E-002  0.1838071E+03  0.7546771E-02  0.1067419E+00
        -11   -1    0    0    0    0  0.00000000000E+00  0.00000000000E+00  0.18250000000E+03  0.18250000000E+03  0.00000000000E+00 0.  1.
         11   -1    0    0    0    0 -0.00000000000E+00 -0.00000000000E+00 -0.18250000000E+03  0.18250000000E+03  0.00000000000E+00 0. -1.
        -11    1    1    2    0    0 -0.25121290922E+01  0.31220694733E+01  0.18114858935E+03  0.18119290696E+03  0.00000000000E+00 0.  1.
         11    1    1    2    0    0 -0.31605684733E+01 -0.45229613283E+01 -0.15512061492E+03  0.15521872163E+03  0.00000000000E+00 0. -1.
        -15    1    1    2    0    0  0.33577907385E+01  0.37870725082E+01 -0.53734106803E+01  0.75926245900E+01  0.17770000000E+01 0. -1.
         15    1    1    2    0    0  0.23149068271E+01 -0.23861806533E+01 -0.20654563751E+02  0.20995746818E+02  0.17770000000E+01 0.  1.
</event>
<event>
 6    1  0.1298204E-002  0.1852694E+03  0.7546771E-02  0.1066272E+00
        -11   -1    0    0    0    0  0.00000000000E+00  0.00000000000E+00  0.18250000000E+03  0.18250000000E+03  0.00000000000E+00 0.  1.
         11   -1    0    0    0    0 -0.00000000000E+00 -0.00000000000E+00 -0.18250000000E+03  0.18250000000E+03  0.00000000000E+00 0.  1.
        -11    1    1    2    0    0 -0.32056169220E+01  0.13061705060E+01  0.17969729868E+03  0.17973063516E+03  0.00000000000E+00 0.  1.
         11    1    1    2    0    0 -0.29181234313E+01 -0.66724655155E+01 -0.12534269088E+03  0.12555408156E+03  0.00000000000E+00 0.  1.
        -15    1    1    2    0    0 -0.88125527265E-01 -0.11383837134E+01 -0.49105225406E+02  0.49150631479E+02  0.17770000000E+01 0. -1.
         15    1    1    2    0    0  0.62118658806E+01  0.65046787230E+01 -0.52493824018E+01  0.10564651798E+02  0.17770000000E+01 0.  1.
</event>
<event>
 6    1  0.1298204E-002  0.1892684E+03  0.7546771E-02  0.1063191E+00
        -11   -1    0    0    0    0  0.00000000000E+00  0.00000000000E+00  0.18250000000E+03  0.18250000000E+03  0.00000000000E+00 0.  1.
         11   -1    0    0    0    0 -0.00000000000E+00 -0.00000000000E+00 -0.18250000000E+03  0.18250000000E+03  0.00000000000E+00 0.  1.
        -11    1    1    2    0    0 -0.38606026085E+01  0.36943742962E+01  0.15612871241E+03  0.15622012512E+03  0.00000000000E+00 0.  1.
         11    1    1    2    0    0  0.13569861833E+01  0.26088186262E+01 -0.17570703813E+03  0.17573164369E+03  0.00000000000E+00 0.  1.
        -15    1    1    2    0    0 -0.87189861314E+01  0.39670929351E+01  0.24005204310E+01  0.10033881246E+02  0.17770000000E+01 0. -1.
         15    1    1    2    0    0  0.11222602557E+02 -0.10270285857E+02  0.17177805285E+02  0.23014349940E+02  0.17770000000E+01 0.  1.
</event>
<event>
 6    1  0.1298204E-002  0.1930101E+03  0.7546771E-02  0.1060384E+00
        -11   -1    0    0    0    0  0.00000000000E+00  0.00000000000E+00  0.18250000000E+03  0.18250000000E+03  0.00000000000E+00 0. -1.
         11   -1    0    0    0    0 -0.00000000000E+00 -0.00000000000E+00 -0.18250000000E+03  0.18250000000E+03  0.00000000000E+00 0. -1.
        -11    1    1    2    0    0 -0.65697290577E+00  0.48138954351E+01  0.13896330488E+03  0.13904821217E+03  0.00000000000E+00 0. -1.
         11    1    1    2    0    0  0.34811168031E+01 -0.62220717393E+00 -0.17195353814E+03  0.17198989678E+03  0.00000000000E+00 0. -1.
        -15    1    1    2    0    0  0.16952392585E+02  0.33570504758E+01  0.26614994415E+02  0.31783156844E+02  0.17770000000E+01 0. -1.
         15    1    1    2    0    0 -0.19776536482E+02 -0.75487387370E+01  0.63752388413E+01  0.22178734207E+02  0.17770000000E+01 0.  1.
</event>
<event>
 6    1  0.1298204E-002  0.1841994E+03  0.7546771E-02  0.1067110E+00
        -11   -1    0    0    0    0  0.00000000000E+00  0.00000000000E+00  0.18250000000E+03  0.18250000000E+03  0.00000000000E+00 0. -1.
         11   -1    0    0    0    0 -0.00000000000E+00 -0.00000000000E+00 -0.18250000000E+03  0.18250000000E+03  0.00000000000E+00 0.  1.
        -11    1    1    2    0    0  0.33740412812E+01 -0.30366534831E+01  0.17069323156E+03  0.17075357894E+03  0.00000000000E+00 0. -1.
         11    1    1    2    0    0 -0.41708984287E+01  0.22481218288E+01 -0.18073848180E+03  0.18080057867E+03  0.00000000000E+00 0.  1.
        -15    1    1    2    0    0 -0.15908905725E+01  0.14652431281E+01 -0.15023507919E+00  0.28032427324E+01  0.17770000000E+01 0. -1.
         15    1    1    2    0    0  0.23877477200E+01 -0.67671147379E+00  0.10195485315E+02  0.10642599655E+02  0.17770000000E+01 0. -1.
</event>
<event>
 6    1  0.1298204E-002  0.1920154E+03  0.7546771E-02  0.1061123E+00
        -11   -1    0    0    0    0  0.00000000000E+00  0.00000000000E+00  0.18250000000E+03  0.18250000000E+03  0.00000000000E+00 0.  1.
         11   -1    0    0    0    0 -0.00000000000E+00 -0.00000000000E+00 -0.18250000000E+03  0.18250000000E+03  0.00000000000E+00 0. -1.
        -11    1    1    2    0    0 -0.26458839740E+01 -0.19102671312E+01  0.83061330642E+02  0.83125414107E+02  0.00000000000E+00 0.  1.
         11    1    1    2    0    0  0.17121435130E+02 -0.68332491409E+01 -0.17199951651E+03  0.17298459617E+03  0.00000000000E+00 0. -1.
        -15    1    1    2    0    0 -0.11230727181E+02  0.25724789380E+01 -0.63875819370E+01  0.13293073870E+02  0.17770000000E+01 0. -1.
         15    1    1    2    0    0 -0.32448239753E+01  0.61710373342E+01  0.95325767801E+02  0.95596915851E+02  0.17770000000E+01 0.  1.
</event>
<event>
 6    1  0.1298204E-002  0.1865144E+03  0.7546771E-02  0.1065304E+00
        -11   -1    0    0    0    0  0.00000000000E+00  0.00000000000E+00  0.18250000000E+03  0.18250000000E+03  0.00000000000E+00 0.  1.
         11   -1    0    0    0    0 -0.00000000000E+00 -0.00000000000E+00 -0.18250000000E+03  0.18250000000E+03  0.00000000000E+00 0. -1.
        -11    1    1    2    0    0  0.38751050563E+00  0.41787380026E+01  0.17843627797E+03  0.17848562215E+03  0.00000000000E+00 0.  1.
         11    1    1    2    0    0 -0.29898674101E+01 -0.15382658001E+01 -0.15379355966E+03  0.15383031093E+03  0.00000000000E+00 0. -1.
        -15    1    1    2    0    0  0.73143883446E+01 -0.98252177711E+01 -0.11589324055E+02  0.16955982489E+02  0.17770000000E+01 0. -1.
         15    1    1    2    0    0 -0.47120314401E+01  0.71847455686E+01 -0.13053394260E+02  0.15728084431E+02  0.17770000000E+01 0.  1.
</event>
<event>
 6    1  0.1298204E-002  0.1835014E+03  0.7546771E-02  0.1067661E+00
        -11   -1    0    0    0    0  0.00000000000E+00  0.00000000000E+00  0.18250000000E+03  0.18250000000E+03  0.00000000000E+00 0.  1.
         11   -1    0    0    0    0 -0.00000000000E+00 -0.00000000000E+00 -0.18250000000E+03  0.18250000000E+03  0.00000000000E+00 0.  1.
        -11    1    1    2    0    0  0.15890534145E-01 -0.95862785783E+00  0.50471289840E+02  0.50480395383E+02  0.00000000000E+00 0.  1.
         11    1    1    2    0    0 -0.22373247450E+01  0.41728214329E+01 -0.18143687662E+03  0.18149864534E+03  0.00000000000E+00 0.  1.
        -15    1    1    2    0    0  0.27111385359E+01  0.44101601927E+01  0.11595788143E+03  0.11608698368E+03  0.17770000000E+01 0.  1.
         15    1    1    2    0    0 -0.48970432500E+00 -0.76243537678E+01  0.15007705347E+02  0.16933975596E+02  0.17770000000E+01 0. -1.
</event>
<event>
 6    1  0.1298204E-002  0.1959506E+03  0.7546771E-02  0.1058225E+00
        -11   -1    0    0    0    0  0.00000000000E+00  0.00000000000E+00  0.18250000000E+03  0.18250000000E+03  0.00000000000E+00 0. -1.
         11   -1    0    0    0    0 -0.00000000000E+00 -0.00000000000E+00 -0.18250000000E+03  0.18250000000E+03  0.00000000000E+00 0. -1.
        -11    1    1    2    0    0 -0.22851126815E+02  0.12958796862E+01  0.16749279583E+03  0.16904937136E+03  0.00000000000E+00 0. -1.
         11    1    1    2    0    0  0.49446679495E+01  0.37971127084E+01 -0.15331688048E+03  0.15344358458E+03  0.00000000000E+00 0. -1.
        -15    1    1    2    0    0  0.21018529896E+02 -0.91631450955E+01  0.41731539265E+01  0.23373377371E+02  0.17770000000E+01 0.  1.
         15    1    1    2    0    0 -0.31120710302E+01  0.40701527009E+01 -0.18349069273E+02  0.19133666698E+02  0.17770000000E+01 0. -1.
</event>
<event>
 6    1  0.1298204E-002  0.1853283E+03  0.7546771E-02  0.1066226E+00
        -11   -1    0    0    0    0  0.00000000000E+00  0.00000000000E+00  0.18250000000E+03  0.18250000000E+03  0.00000000000E+00 0.  1.
         11   -1    0    0    0    0 -0.00000000000E+00 -0.00000000000E+00 -0.18250000000E+03  0.18250000000E+03  0.00000000000E+00 0. -1.
        -11    1    1    2    0    0  0.10723754074E+02 -0.80830401905E+01  0.17916918500E+03  0.17967173204E+03  0.00000000000E+00 0.  1.
         11    1    1    2    0    0  0.28548996480E+01 -0.17469669403E+01 -0.14078148376E+03  0.14082126443E+03  0.00000000000E+00 0. -1.
        -15    1    1    2    0    0 -0.14866025925E+02  0.12118057060E+02 -0.34247854375E+02  0.39292738413E+02  0.17770000000E+01 0. -1.
         15    1    1    2    0    0  0.12873722032E+01 -0.22880499295E+01 -0.41398468661E+01  0.52142651203E+01  0.17770000000E+01 0.  1.
</event>
<event>
 6    1  0.1298204E-002  0.1836031E+03  0.7546771E-02  0.1067580E+00
        -11   -1    0    0    0    0  0.00000000000E+00  0.00000000000E+00  0.18250000000E+03  0.18250000000E+03  0.00000000000E+00 0.  1.
         11   -1    0    0    0    0 -0.00000000000E+00 -0.00000000000E+00 -0.18250000000E+03  0.18250000000E+03  0.00000000000E+00 0. -1.
        -11    1    1    2    0    0  0.32093018504E+01 -0.34492115405E+01  0.15451734010E+03  0.15458914926E+03  0.00000000000E+00 0.  1.
         11    1    1    2    0    0 -0.29910206750E+01 -0.20535419493E+01 -0.18136064966E+03  0.18139693626E+03  0.00000000000E+00 0. -1.
        -15    1    1    2    0    0  0.13707890673E+01  0.54237008471E+01  0.74986639080E+01  0.95227770609E+01  0.17770000000E+01 0. -1.
         15    1    1    2    0    0 -0.15890702427E+01  0.79052642784E-01  0.19344645654E+02  0.19491137423E+02  0.17770000000E+01 0.  1.
</event>
<event>
 6    1  0.1298204E-002  0.1971588E+03  0.7546771E-02  0.1057350E+00
        -11   -1    0    0    0    0  0.00000000000E+00  0.00000000000E+00  0.18250000000E+03  0.18250000000E+03  0.00000000000E+00 0.  1.
         11   -1    0    0    0    0 -0.00000000000E+00 -0.00000000000E+00 -0.18250000000E+03  0.18250000000E+03  0.00000000000E+00 0. -1.
        -11    1    1    2    0    0  0.10025299349E+02 -0.41817335667E+01  0.16748935424E+03  0.16784122648E+03  0.00000000000E+00 0.  1.
         11    1    1    2    0    0  0.21130775441E+01 -0.22213182021E+01 -0.31847756003E+02  0.31994982633E+02  0.00000000000E+00 0. -1.
        -15    1    1    2    0    0 -0.11041143459E+02  0.17911204777E+01  0.12539004815E+02  0.16896725488E+02  0.17770000000E+01 0.  1.
         15    1    1    2    0    0 -0.10972334345E+01  0.46119312911E+01 -0.14818060305E+03  0.14826706540E+03  0.17770000000E+01 0. -1.
</event>
<event>
 6    1  0.1298204E-002  0.1829604E+03  0.7546771E-02  0.1068089E+00
        -11   -1    0    0    0    0  0.00000000000E+00  0.00000000000E+00  0.18250000000E+03  0.18250000000E+03  0.00000000000E+00 0. -1.
         11   -1    0    0    0    0 -0.00000000000E+00 -0.00000000000E+00 -0.18250000000E+03  0.18250000000E+03  0.00000000000E+00 0. -1.
        -11    1    1    2    0    0 -0.38042945407E+01  0.20450185400E+01  0.11863523345E+03  0.11871382975E+03  0.00000000000E+00 0. -1.
         11    1    1    2    0    0  0.25425559743E+01  0.18393166817E+00 -0.18202178412E+03  0.18203963391E+03  0.00000000000E+00 0. -1.
        -15    1    1    2    0    0  0.35069732477E+01 -0.37231384635E+01  0.54896795689E+02  0.55163180903E+02  0.17770000000E+01 0. -1.
         15    1    1    2    0    0 -0.22452346814E+01  0.14941882553E+01  0.84897549784E+01  0.90833554323E+01  0.17770000000E+01 0.  1.
</event>
<event>
 6    1  0.1298204E-002  0.1836250E+03  0.7546771E-02  0.1067563E+00
        -11   -1    0    0    0    0  0.00000000000E+00  0.00000000000E+00  0.18250000000E+03  0.18250000000E+03  0.00000000000E+00 0.  1.
         11   -1    0    0    0    0 -0.00000000000E+00 -0.00000000000E+00 -0.18250000000E+03  0.18250000000E+03  0.00000000000E+00 0. -1.
        -11    1    1    2    0    0  0.27434548807E+01  0.13508819415E+01  0.18134926702E+03  0.18137504811E+03  0.00000000000E+00 0.  1.
         11    1    1    2    0    0 -0.15888781508E+01  0.31172239780E+01 -0.17274962060E+03  0.17278504865E+03  0.00000000000E+00 0. -1.
        -15    1    1    2    0    0  0.71616429010E+00 -0.26079359182E+01 -0.56000660324E+01  0.64678195407E+01  0.17770000000E+01 0.  1.
         15    1    1    2    0    0 -0.18707410200E+01 -0.18601700013E+01 -0.29995803905E+01  0.43720837042E+01  0.17770000000E+01 0. -1.
</event>
<event>
 6    1  0.1298204E-002  0.1829190E+03  0.7546771E-02  0.1068122E+00
        -11   -1    0    0    0    0  0.00000000000E+00  0.00000000000E+00  0.18250000000E+03  0.18250000000E+03  0.00000000000E+00 0. -1.
         11   -1    0    0    0    0 -0.00000000000E+00 -0.00000000000E+00 -0.18250000000E+03  0.18250000000E+03  0.00000000000E+00 0. -1.
        -11    1    1    2    0    0 -0.93020545354E+00 -0.26175698457E+01  0.18205977732E+03  0.18208096955E+03  0.00000000000E+00 0. -1.
         11    1    1    2    0    0 -0.41678915423E+01 -0.67007170075E+00 -0.79523987964E+02  0.79635952796E+02  0.00000000000E+00 0. -1.
        -15    1    1    2    0    0  0.22166524218E+01 -0.90402273138E+00 -0.71691837294E+01  0.77643885402E+01  0.17770000000E+01 0.  1.
         15    1    1    2    0    0  0.28814445740E+01  0.41916642779E+01 -0.95366605627E+02  0.95518689114E+02  0.17770000000E+01 0. -1.
</event>
<event>
 6    1  0.1298204E-002  0.1833668E+03  0.7546771E-02  0.1067767E+00
        -11   -1    0    0    0    0  0.00000000000E+00  0.00000000000E+00  0.18250000000E+03  0.18250000000E+03  0.00000000000E+00 0.  1.
         11   -1    0    0    0    0 -0.00000000000E+00 -0.00000000000E+00 -0.18250000000E+03  0.18250000000E+03  0.00000000000E+00 0.  1.
        -11    1    1    2    0    0 -0.24038879620E+01  0.19311436177E+01  0.96175916002E+02  0.96225333524E+02  0.00000000000E+00 0.  1.
         11    1    1    2    0    0  0.17668608652E+01  0.67595630375E+01 -0.18149878496E+03  0.18163320851E+03  0.00000000000E+00 0.  1.
        -15    1    1    2    0    0 -0.35693293570E+00 -0.55036006155E+01  0.88686707931E+01  0.10593775129E+02  0.17770000000E+01 0. -1.
         15    1    1    2    0    0  0.99396003252E+00 -0.31871060398E+01  0.76454198168E+02  0.76547682839E+02  0.17770000000E+01 0. -1.
</event>
<event>
 6    1  0.1298204E-002  0.1519399E+03  0.7546771E-02  0.1095773E+00
        -11   -1    0    0    0    0  0.00000000000E+00  0.00000000000E+00  0.18250000000E+03  0.18250000000E+03  0.00000000000E+00 0.  1.
         11   -1    0    0    0    0 -0.00000000000E+00 -0.00000000000E+00 -0.18250000000E+03  0.18250000000E+03  0.00000000000E+00 0.  1.
        -11    1    1    2    0    0 -0.14248507901E+02  0.51723074084E+01  0.15489032845E+03  0.15563028815E+03  0.00000000000E+00 0.  1.
         11    1    1    2    0    0  0.29659843073E+01  0.52019565510E+01 -0.14858057215E+03  0.14870118976E+03  0.00000000000E+00 0.  1.
        -15    1    1    2    0    0  0.61527336857E+01  0.96240035451E+01  0.22432066974E+02  0.25235549008E+02  0.17770000000E+01 0. -1.
         15    1    1    2    0    0  0.51297899081E+01 -0.19998267505E+02 -0.28741823271E+02  0.35432973085E+02  0.17770000000E+01 0.  1.
</event>
<event>
 6    1  0.1298204E-002  0.1846391E+03  0.7546771E-02  0.1066765E+00
        -11   -1    0    0    0    0  0.00000000000E+00  0.00000000000E+00  0.18250000000E+03  0.18250000000E+03  0.00000000000E+00 0. -1.
         11   -1    0    0    0    0 -0.00000000000E+00 -0.00000000000E+00 -0.18250000000E+03  0.18250000000E+03  0.00000000000E+00 0. -1.
        -11    1    1    2    0    0  0.51882150241E+01  0.84381453424E+01  0.18008872446E+03  0.18036093964E+03  0.00000000000E+00 0. -1.
         11    1    1    2    0    0 -0.14112561091E+01  0.10622742063E+01 -0.13074858357E+03  0.13076051459E+03  0.00000000000E+00 0. -1.
        -15    1    1    2    0    0 -0.83362929925E+01 -0.78746495835E+01 -0.14091023475E+02  0.18254275074E+02  0.17770000000E+01 0.  1.
         15    1    1    2    0    0  0.45593340775E+01 -0.16257699653E+01 -0.35249117415E+02  0.35624270697E+02  0.17770000000E+01 0.  1.
</event>
<event>
 6    1  0.1298204E-002  0.1830071E+03  0.7546771E-02  0.1068052E+00
        -11   -1    0    0    0    0  0.00000000000E+00  0.00000000000E+00  0.18250000000E+03  0.18250000000E+03  0.00000000000E+00 0. -1.
         11   -1    0    0    0    0 -0.00000000000E+00 -0.00000000000E+00 -0.18250000000E+03  0.18250000000E+03  0.00000000000E+00 0. -1.
        -11    1    1    2    0    0  0.44244310974E+00  0.17850631189E+01  0.11224701472E+03  0.11226207962E+03  0.00000000000E+00 0. -1.
         11    1    1    2    0    0  0.11960570422E+01  0.35790871553E+01 -0.18195378067E+03  0.18199290842E+03  0.00000000000E+00 0. -1.
        -15    1    1    2    0    0 -0.29156518701E+01  0.13344200416E+01  0.10525214658E+02  0.11145383585E+02  0.17770000000E+01 0.  1.
         15    1    1    2    0    0  0.12771517182E+01 -0.66985703159E+01  0.59181551285E+02  0.59599628374E+02  0.17770000000E+01 0. -1.
</event>
<event>
 6    1  0.1298204E-002  0.1826518E+03  0.7546771E-02  0.1068334E+00
        -11   -1    0    0    0    0  0.00000000000E+00  0.00000000000E+00  0.18250000000E+03  0.18250000000E+03  0.00000000000E+00 0. -1.
         11   -1    0    0    0    0 -0.00000000000E+00 -0.00000000000E+00 -0.18250000000E+03  0.18250000000E+03  0.00000000000E+00 0. -1.
        -11    1    1    2    0    0  0.18559469184E+01  0.12541471231E+01  0.42226647302E+02  0.42286016203E+02  0.00000000000E+00 0. -1.
         11    1    1    2    0    0  0.13530477692E+01  0.36219036120E+01 -0.18230720770E+03  0.18234820236E+03  0.00000000000E+00 0. -1.
        -15    1    1    2    0    0 -0.11297162955E+01 -0.11233673944E+01  0.14167091067E+02  0.14366711925E+02  0.17770000000E+01 0.  1.
         15    1    1    2    0    0 -0.20792783921E+01 -0.37526833407E+01  0.12591346933E+03  0.12599906951E+03  0.17770000000E+01 0. -1.
</event>
<event>
 6    1  0.1298204E-002  0.1856001E+03  0.7546771E-02  0.1066014E+00
        -11   -1    0    0    0    0  0.00000000000E+00  0.00000000000E+00  0.18250000000E+03  0.18250000000E+03  0.00000000000E+00 0.  1.
         11   -1    0    0    0    0 -0.00000000000E+00 -0.00000000000E+00 -0.18250000000E+03  0.18250000000E+03  0.00000000000E+00 0. -1.
        -11    1    1    2    0    0  0.20407184239E+01  0.10917583047E+02  0.17905577100E+03  0.17939990880E+03  0.00000000000E+00 0.  1.
         11    1    1    2    0    0  0.29674205347E+01  0.23876815535E+01 -0.12834001344E+03  0.12839651731E+03  0.00000000000E+00 0. -1.
        -15    1    1    2    0    0 -0.16609597107E+01 -0.40677335950E+01  0.73216429621E+00  0.47957311556E+01  0.17770000000E+01 0.  1.
         15    1    1    2    0    0 -0.33471792479E+01 -0.92375310055E+01 -0.51447921854E+02  0.52407842734E+02  0.17770000000E+01 0. -1.
</event>
<event>
 6    1  0.1298204E-002  0.1686030E+03  0.7546771E-02  0.1080088E+00
        -11   -1    0    0    0    0  0.00000000000E+00  0.00000000000E+00  0.18250000000E+03  0.18250000000E+03  0.00000000000E+00 0.  1.
         11   -1    0    0    0    0 -0.00000000000E+00 -0.00000000000E+00 -0.18250000000E+03  0.18250000000E+03  0.00000000000E+00 0. -1.
        -11    1    1    2    0    0  0.97200527018E+01 -0.24729497173E+02  0.16820310225E+03  0.17028890469E+03  0.00000000000E+00 0.  1.
         11    1    1    2    0    0 -0.44038036396E-01  0.27614147848E+01 -0.16774803319E+03  0.16777076620E+03  0.00000000000E+00 0. -1.
        -15    1    1    2    0    0 -0.59777441505E+00 -0.94643593094E+00 -0.74191627224E+00  0.22273850089E+01  0.17770000000E+01 0. -1.
         15    1    1    2    0    0 -0.90782402504E+01  0.22914518319E+02  0.28684722157E+00  0.24712944101E+02  0.17770000000E+01 0.  1.
</event>
<event>
 6    1  0.1298204E-002  0.1878767E+03  0.7546771E-02  0.1064254E+00
        -11   -1    0    0    0    0  0.00000000000E+00  0.00000000000E+00  0.18250000000E+03  0.18250000000E+03  0.00000000000E+00 0.  1.
         11   -1    0    0    0    0 -0.00000000000E+00 -0.00000000000E+00 -0.18250000000E+03  0.18250000000E+03  0.00000000000E+00 0.  1.
        -11    1    1    2    0    0 -0.24161996836E+01 -0.12804766596E+01  0.12349034985E+03  0.12352062236E+03  0.00000000000E+00 0.  1.
         11    1    1    2    0    0 -0.10888913883E+01 -0.38127704859E+01 -0.17707892070E+03  0.17712331033E+03  0.00000000000E+00 0.  1.
        -15    1    1    2    0    0  0.35961696176E+01 -0.74868834936E+01 -0.77361566234E+00  0.85288962098E+01  0.17770000000E+01 0.  1.
         15    1    1    2    0    0 -0.91078545570E-01  0.12580130639E+02  0.54362186511E+02  0.55827171104E+02  0.17770000000E+01 0. -1.
</event>
<event>
 6    1  0.1298204E-002  0.1827637E+03  0.7546771E-02  0.1068245E+00
        -11   -1    0    0    0    0  0.00000000000E+00  0.00000000000E+00  0.18250000000E+03  0.18250000000E+03  0.00000000000E+00 0. -1.
         11   -1    0    0    0    0 -0.00000000000E+00 -0.00000000000E+00 -0.18250000000E+03  0.18250000000E+03  0.00000000000E+00 0.  1.
        -11    1    1    2    0    0 -0.19904605180E+01 -0.16445062128E+01  0.15371852722E+03  0.15374020927E+03  0.00000000000E+00 0. -1.
         11    1    1    2    0    0  0.41243416149E+01 -0.15800546710E-01 -0.18218958170E+03  0.18223625907E+03  0.00000000000E+00 0.  1.
        -15    1    1    2    0    0  0.33273661043E-01  0.19031319964E+01  0.97251088313E+01  0.10067695333E+02  0.17770000000E+01 0. -1.
         15    1    1    2    0    0 -0.21671547579E+01 -0.24282523689E+00  0.18745945640E+02  0.18955836325E+02  0.17770000000E+01 0.  1.
</event>
<event>
 6    1  0.1298204E-002  0.1846506E+03  0.7546771E-02  0.1066756E+00
        -11   -1    0    0    0    0  0.00000000000E+00  0.00000000000E+00  0.18250000000E+03  0.18250000000E+03  0.00000000000E+00 0.  1.
         11   -1    0    0    0    0 -0.00000000000E+00 -0.00000000000E+00 -0.18250000000E+03  0.18250000000E+03  0.00000000000E+00 0.  1.
        -11    1    1    2    0    0 -0.45784483832E+01  0.30500768587E-02  0.18029127925E+03  0.18034940414E+03  0.00000000000E+00 0.  1.
         11    1    1    2    0    0 -0.30076971726E+01 -0.30135258064E+01 -0.15469015712E+03  0.15474873922E+03  0.00000000000E+00 0.  1.
        -15    1    1    2    0    0 -0.15653738387E+00  0.25854195148E+01 -0.50628682748E-01  0.31415267440E+01  0.17770000000E+01 0. -1.
         15    1    1    2    0    0  0.77426829397E+01  0.42505621477E+00 -0.25550493444E+02  0.26760329896E+02  0.17770000000E+01 0.  1.
</event>
<event>
 6    1  0.1298204E-002  0.1827172E+03  0.7546771E-02  0.1068282E+00
        -11   -1    0    0    0    0  0.00000000000E+00  0.00000000000E+00  0.18250000000E+03  0.18250000000E+03  0.00000000000E+00 0.  1.
         11   -1    0    0    0    0 -0.00000000000E+00 -0.00000000000E+00 -0.18250000000E+03  0.18250000000E+03  0.00000000000E+00 0. -1.
        -11    1    1    2    0    0 -0.38085226101E+01 -0.62374922399E+00  0.18224196691E+03  0.18228282533E+03  0.00000000000E+00 0.  1.
         11    1    1    2    0    0 -0.74033887558E+00 -0.20019618657E+01 -0.11851961469E+03  0.11853883339E+03  0.00000000000E+00 0. -1.
        -15    1    1    2    0    0 -0.27497588131E+00  0.94816930525E+00 -0.24632008559E+02  0.24715748247E+02  0.17770000000E+01 0. -1.
         15    1    1    2    0    0  0.48238373670E+01  0.16775417844E+01 -0.39090343654E+02  0.39462593039E+02  0.17770000000E+01 0. -1.
</event>
<event>
 6    1  0.1298204E-002  0.1825771E+03  0.7546771E-02  0.1068393E+00
        -11   -1    0    0    0    0  0.00000000000E+00  0.00000000000E+00  0.18250000000E+03  0.18250000000E+03  0.00000000000E+00 0. -1.
         11   -1    0    0    0    0 -0.00000000000E+00 -0.00000000000E+00 -0.18250000000E+03  0.18250000000E+03  0.00000000000E+00 0.  1.
        -11    1    1    2    0    0  0.31104276368E+01 -0.49483145651E+00  0.18239566887E+03  0.18242285942E+03  0.00000000000E+00 0. -1.
         11    1    1    2    0    0 -0.25414801845E+01  0.11359868329E+00 -0.51592463021E+02  0.51655147534E+02  0.00000000000E+00 0.  1.
        -15    1    1    2    0    0  0.28482500811E+00  0.11231138075E+01 -0.10821325741E+03  0.10823404880E+03  0.17770000000E+01 0.  1.
         15    1    1    2    0    0 -0.85377246039E+00 -0.74188103427E+00 -0.22589948434E+02  0.22687944246E+02  0.17770000000E+01 0. -1.
</event>
<event>
 6    1  0.1298204E-002  0.1848668E+03  0.7546771E-02  0.1066586E+00
        -11   -1    0    0    0    0  0.00000000000E+00  0.00000000000E+00  0.18250000000E+03  0.18250000000E+03  0.00000000000E+00 0.  1.
         11   -1    0    0    0    0 -0.00000000000E+00 -0.00000000000E+00 -0.18250000000E+03  0.18250000000E+03  0.00000000000E+00 0.  1.
        -11    1    1    2    0    0 -0.48969944028E+01 -0.23165732431E+01  0.18005169406E+03  0.18013317184E+03  0.00000000000E+00 0.  1.
         11    1    1    2    0    0 -0.13095695519E+01 -0.35462812124E+01 -0.15481468376E+03  0.15486083234E+03  0.00000000000E+00 0.  1.
        -15    1    1    2    0    0  0.39938725982E+01  0.34918628532E+01 -0.25679220173E+02  0.26281632411E+02  0.17770000000E+01 0. -1.
         15    1    1    2    0    0  0.22126913564E+01  0.23709916023E+01  0.44220988047E+00  0.37243634081E+01  0.17770000000E+01 0.  1.
</event>
<event>
 6    1  0.1298204E-002  0.1849071E+03  0.7546771E-02  0.1066555E+00
        -11   -1    0    0    0    0  0.00000000000E+00  0.00000000000E+00  0.18250000000E+03  0.18250000000E+03  0.00000000000E+00 0. -1.
         11   -1    0    0    0    0 -0.00000000000E+00 -0.00000000000E+00 -0.18250000000E+03  0.18250000000E+03  0.00000000000E+00 0. -1.
        -11    1    1    2    0    0 -0.70473875375E+01 -0.41563653284E+00  0.17995443292E+03  0.18009285481E+03  0.00000000000E+00 0. -1.
         11    1    1    2    0    0  0.97545582038E+00  0.29334572822E+01 -0.16774043168E+03  0.16776891580E+03  0.00000000000E+00 0. -1.
        -15    1    1    2    0    0  0.14214729545E+01 -0.48571924113E+01 -0.97131518232E+01  0.11095762742E+02  0.17770000000E+01 0.  1.
         15    1    1    2    0    0  0.46504587627E+01  0.23393716619E+01 -0.25008494134E+01  0.60424666540E+01  0.17770000000E+01 0. -1.
</event>
<event>
 6    1  0.1298204E-002  0.1912744E+03  0.7546771E-02  0.1061677E+00
        -11   -1    0    0    0    0  0.00000000000E+00  0.00000000000E+00  0.18250000000E+03  0.18250000000E+03  0.00000000000E+00 0.  1.
         11   -1    0    0    0    0 -0.00000000000E+00 -0.00000000000E+00 -0.18250000000E+03  0.18250000000E+03  0.00000000000E+00 0.  1.
        -11    1    1    2    0    0  0.16556235381E+01  0.22782309852E+01  0.17370278859E+03  0.17372561754E+03  0.00000000000E+00 0.  1.
         11    1    1    2    0    0  0.78294504773E+01 -0.26075759812E+01 -0.16541604841E+03  0.16562176433E+03  0.00000000000E+00 0.  1.
        -15    1    1    2    0    0 -0.10852963003E+02  0.54577500886E-02 -0.14981594789E+02  0.18584745011E+02  0.17770000000E+01 0.  1.
         15    1    1    2    0    0  0.13678889871E+01  0.32388724591E+00  0.66948546084E+01  0.70678731212E+01  0.17770000000E+01 0. -1.
</event>
<event>
 6    1  0.1298204E-002  0.1847423E+03  0.7546771E-02  0.1066684E+00
        -11   -1    0    0    0    0  0.00000000000E+00  0.00000000000E+00  0.18250000000E+03  0.18250000000E+03  0.00000000000E+00 0. -1.
         11   -1    0    0    0    0 -0.00000000000E+00 -0.00000000000E+00 -0.18250000000E+03  0.18250000000E+03  0.00000000000E+00 0.  1.
        -11    1    1    2    0    0  0.23667100526E+01 -0.76612737793E+00  0.18024057616E+03  0.18025774203E+03  0.00000000000E+00 0. -1.
         11    1    1    2    0    0 -0.38510102365E+01  0.68088727523E+00 -0.16265275639E+03  0.16269976352E+03  0.00000000000E+00 0.  1.
        -15    1    1    2    0    0  0.23651318043E+01 -0.72044379851E-01 -0.19233935000E+02  0.19460242122E+02  0.17770000000E+01 0.  1.
         15    1    1    2    0    0 -0.88083162046E+00  0.15728448256E+00  0.16461152350E+01  0.25822523345E+01  0.17770000000E+01 0.  1.
</event>
<event>
 6    1  0.1298204E-002  0.1916355E+03  0.7546771E-02  0.1061407E+00
        -11   -1    0    0    0    0  0.00000000000E+00  0.00000000000E+00  0.18250000000E+03  0.18250000000E+03  0.00000000000E+00 0.  1.
         11   -1    0    0    0    0 -0.00000000000E+00 -0.00000000000E+00 -0.18250000000E+03  0.18250000000E+03  0.00000000000E+00 0.  1.
        -11    1    1    2    0    0 -0.35563872403E+01 -0.50533859529E+00  0.16388804785E+03  0.16392740920E+03  0.00000000000E+00 0.  1.
         11    1    1    2    0    0  0.39035560189E+00 -0.34634515002E+01 -0.17332948663E+03  0.17336452580E+03  0.00000000000E+00 0.  1.
        -15    1    1    2    0    0 -0.56975768956E+01  0.43997540134E+01 -0.61812476499E+01  0.96532776490E+01  0.17770000000E+01 0.  1.
         15    1    1    2    0    0  0.88636085340E+01 -0.43096391788E+00  0.15622686423E+02  0.18054787349E+02  0.17770000000E+01 0.  1.
</event>
<event>
 6    1  0.1298204E-002  0.1847676E+03  0.7546771E-02  0.1066664E+00
        -11   -1    0    0    0    0  0.00000000000E+00  0.00000000000E+00  0.18250000000E+03  0.18250000000E+03  0.00000000000E+00 0.  1.
         11   -1    0    0    0    0 -0.00000000000E+00 -0.00000000000E+00 -0.18250000000E+03  0.18250000000E+03  0.00000000000E+00 0. -1.
        -11    1    1    2    0    0 -0.12532121925E+01  0.34496592698E+01  0.17203679371E+03  0.17207593987E+03  0.00000000000E+00 0.  1.
         11    1    1    2    0    0  0.24322332718E+01 -0.14338108211E+00 -0.18021591208E+03  0.18023238134E+03  0.00000000000E+00 0. -1.
        -15    1    1    2    0    0 -0.11417462525E+01  0.26396448991E+01  0.38577265169E+01  0.51294339432E+01  0.17770000000E+01 0.  1.
         15    1    1    2    0    0 -0.37274826745E-01 -0.59459230868E+01  0.43213918464E+01  0.75622448556E+01  0.17770000000E+01 0. -1.
</event>
<event>
 6    1  0.1298204E-002  0.1847151E+03  0.7546771E-02  0.1066705E+00
        -11   -1    0    0    0    0  0.00000000000E+00  0.00000000000E+00  0.18250000000E+03  0.18250000000E+03  0.00000000000E+00 0. -1.
         11   -1    0    0    0    0 -0.00000000000E+00 -0.00000000000E+00 -0.18250000000E+03  0.18250000000E+03  0.00000000000E+00 0. -1.
        -11    1    1    2    0    0  0.23191810962E+01  0.66805332361E+00  0.11824788056E+03  0.11827250802E+03  0.00000000000E+00 0. -1.
         11    1    1    2    0    0 -0.60122401602E+00  0.42281387240E+01 -0.18023434090E+03  0.18028493078E+03  0.00000000000E+00 0. -1.
        -15    1    1    2    0    0 -0.46068415087E+01 -0.14768538987E+01  0.61371260468E+02  0.61587282994E+02  0.17770000000E+01 0.  1.
         15    1    1    2    0    0  0.28888844285E+01 -0.34193381489E+01  0.61519987419E+00  0.48552782107E+01  0.17770000000E+01 0. -1.
</event>
<event>
 6    1  0.1298204E-002  0.1853746E+03  0.7546771E-02  0.1066189E+00
        -11   -1    0    0    0    0  0.00000000000E+00  0.00000000000E+00  0.18250000000E+03  0.18250000000E+03  0.00000000000E+00 0. -1.
         11   -1    0    0    0    0 -0.00000000000E+00 -0.00000000000E+00 -0.18250000000E+03  0.18250000000E+03  0.00000000000E+00 0. -1.
        -11    1    1    2    0    0  0.33911067888E+00 -0.16850007305E+01  0.19078225760E+02  0.19155493251E+02  0.00000000000E+00 0. -1.
         11    1    1    2    0    0  0.24756400620E+02 -0.31913391194E+02 -0.17502550651E+03  0.17962536524E+03  0.00000000000E+00 0. -1.
        -15    1    1    2    0    0 -0.29316309533E+02  0.24116419312E+02  0.14859197538E+03  0.15337464119E+03  0.17770000000E+01 0. -1.
         15    1    1    2    0    0  0.42207982336E+01  0.94819726125E+01  0.73553053659E+01  0.12844500316E+02  0.17770000000E+01 0.  1.
</event>
<event>
 6    1  0.1298204E-002  0.1740138E+03  0.7546771E-02  0.1075418E+00
        -11   -1    0    0    0    0  0.00000000000E+00  0.00000000000E+00  0.18250000000E+03  0.18250000000E+03  0.00000000000E+00 0. -1.
         11   -1    0    0    0    0 -0.00000000000E+00 -0.00000000000E+00 -0.18250000000E+03  0.18250000000E+03  0.00000000000E+00 0.  1.
        -11    1    1    2    0    0  0.26475416657E+01 -0.33224468661E+01  0.17472698468E+03  0.17477862371E+03  0.00000000000E+00 0. -1.
         11    1    1    2    0    0  0.27626915375E+01  0.36714642881E+01 -0.17323355222E+03  0.17329447692E+03  0.00000000000E+00 0.  1.
        -15    1    1    2    0    0 -0.85457899188E+01  0.32228704736E+01 -0.51851659490E+01  0.10651811787E+02  0.17770000000E+01 0.  1.
         15    1    1    2    0    0  0.31355567156E+01 -0.35718878955E+01  0.36917334944E+01  0.62750875889E+01  0.17770000000E+01 0.  1.
</event>
<event>
 6    1  0.1298204E-002  0.1862457E+03  0.7546771E-02  0.1065512E+00
        -11   -1    0    0    0    0  0.00000000000E+00  0.00000000000E+00  0.18250000000E+03  0.18250000000E+03  0.00000000000E+00 0. -1.
         11   -1    0    0    0    0 -0.00000000000E+00 -0.00000000000E+00 -0.18250000000E+03  0.18250000000E+03  0.00000000000E+00 0. -1.
        -11    1    1    2    0    0  0.85026795587E+00  0.36237987186E+01  0.17871549233E+03  0.17875425050E+03  0.00000000000E+00 0. -1.
         11    1    1    2    0    0  0.40650635817E+01  0.56316630779E+01 -0.13908959364E+03  0.13926290041E+03  0.00000000000E+00 0. -1.
        -15    1    1    2    0    0 -0.25596056321E+01 -0.69717466052E+01 -0.41915264162E+02  0.42605210133E+02  0.17770000000E+01 0. -1.
         15    1    1    2    0    0 -0.23557259055E+01 -0.22837151913E+01  0.22893654658E+01  0.43776389587E+01  0.17770000000E+01 0.  1.
</event>
<event>
 6    1  0.1298204E-002  0.1861769E+03  0.7546771E-02  0.1065565E+00
        -11   -1    0    0    0    0  0.00000000000E+00  0.00000000000E+00  0.18250000000E+03  0.18250000000E+03  0.00000000000E+00 0.  1.
         11   -1    0    0    0    0 -0.00000000000E+00 -0.00000000000E+00 -0.18250000000E+03  0.18250000000E+03  0.00000000000E+00 0. -1.
        -11    1    1    2    0    0 -0.11810434945E+01  0.23532538548E+01  0.17155499873E+03  0.17157520292E+03  0.00000000000E+00 0.  1.
         11    1    1    2    0    0 -0.54342179701E+01 -0.31479228130E+01 -0.17871283819E+03  0.17882314916E+03  0.00000000000E+00 0. -1.
        -15    1    1    2    0    0  0.26301320810E+01  0.27103536351E+01  0.86531246049E+01  0.96071799202E+01  0.17770000000E+01 0. -1.
         15    1    1    2    0    0  0.39851293836E+01 -0.19156846769E+01 -0.14952851462E+01  0.49944680051E+01  0.17770000000E+01 0.  1.
</event>
<event>
 6    1  0.1298204E-002  0.1835377E+03  0.7546771E-02  0.1067632E+00
        -11   -1    0    0    0    0  0.00000000000E+00  0.00000000000E+00  0.18250000000E+03  0.18250000000E+03  0.00000000000E+00 0.  1.
         11   -1    0    0    0    0 -0.00000000000E+00 -0.00000000000E+00 -0.18250000000E+03  0.18250000000E+03  0.00000000000E+00 0.  1.
        -11    1    1    2    0    0  0.21328966665E+01 -0.21648209826E+01  0.18143680904E+03  0.18146225881E+03  0.00000000000E+00 0.  1.
         11    1    1    2    0    0 -0.60698385972E+01 -0.83801489397E+01 -0.12364883778E+03  0.12408104175E+03  0.00000000000E+00 0.  1.
        -15    1    1    2    0    0  0.54750147006E+01  0.88523239426E+01 -0.37327725676E+02  0.38792476826E+02  0.17770000000E+01 0.  1.
         15    1    1    2    0    0 -0.15380727699E+01  0.16926459797E+01 -0.20460245577E+02  0.20664222616E+02  0.17770000000E+01 0. -1.
</event>
<event>
 6    1  0.1298204E-002  0.1671664E+03  0.7546771E-02  0.1081361E+00
        -11   -1    0    0    0    0  0.00000000000E+00  0.00000000000E+00  0.18250000000E+03  0.18250000000E+03  0.00000000000E+00 0. -1.
         11   -1    0    0    0    0 -0.00000000000E+00 -0.00000000000E+00 -0.18250000000E+03  0.18250000000E+03  0.00000000000E+00 0. -1.
        -11    1    1    2    0    0 -0.88724068580E+01  0.62610262911E+00  0.16230726329E+03  0.16255078998E+03  0.00000000000E+00 0. -1.
         11    1    1    2    0    0  0.23858356344E+01 -0.19507119741E+02 -0.17137715778E+03  0.17250029026E+03  0.00000000000E+00 0. -1.
        -15    1    1    2    0    0 -0.49302672558E+01  0.91743420831E+01 -0.25901860739E+01  0.10878551410E+02  0.17770000000E+01 0.  1.
         15    1    1    2    0    0  0.11416838479E+02  0.97066750293E+01  0.11660080567E+02  0.19070368345E+02  0.17770000000E+01 0. -1.
</event>
<event>
 6    1  0.1298204E-002  0.1836124E+03  0.7546771E-02  0.1067573E+00
        -11   -1    0    0    0    0  0.00000000000E+00  0.00000000000E+00  0.18250000000E+03  0.18250000000E+03  0.00000000000E+00 0.  1.
         11   -1    0    0    0    0 -0.00000000000E+00 -0.00000000000E+00 -0.18250000000E+03  0.18250000000E+03  0.00000000000E+00 0.  1.
        -11    1    1    2    0    0  0.12714022693E+01 -0.28005828739E+01  0.16537673229E+03  0.16540533036E+03  0.00000000000E+00 0.  1.
         11    1    1    2    0    0 -0.75327388077E+00  0.24405944332E+01 -0.18136959223E+03  0.18138757650E+03  0.00000000000E+00 0.  1.
        -15    1    1    2    0    0  0.13321770343E+01 -0.21797303493E+01  0.18707342183E+01  0.36308808245E+01  0.17770000000E+01 0. -1.
         15    1    1    2    0    0 -0.18503054228E+01  0.25397187900E+01  0.14122125718E+02  0.14576212316E+02  0.17770000000E+01 0. -1.
</event>
<event>
 6    1  0.1298204E-002  0.1963515E+03  0.7546771E-02  0.1057934E+00
        -11   -1    0    0    0    0  0.00000000000E+00  0.00000000000E+00  0.18250000000E+03  0.18250000000E+03  0.00000000000E+00 0. -1.
         11   -1    0    0    0    0 -0.00000000000E+00 -0.00000000000E+00 -0.18250000000E+03  0.18250000000E+03  0.00000000000E+00 0. -1.
        -11    1    1    2    0    0 -0.12682207718E+01  0.20210243115E+01  0.15648031558E+03  0.15649850506E+03  0.00000000000E+00 0. -1.
         11    1    1    2    0    0 -0.34596495417E+01  0.62704452405E+00 -0.16861183605E+03  0.16864849130E+03  0.00000000000E+00 0. -1.
        -15    1    1    2    0    0  0.22637217122E+01  0.34215507807E+01  0.24950526167E+02  0.25347937406E+02  0.17770000000E+01 0.  1.
         15    1    1    2    0    0  0.24641486013E+01 -0.60696196163E+01 -0.12819005690E+02  0.14505066235E+02  0.17770000000E+01 0. -1.
</event>
<event>
 6    1  0.1298204E-002  0.1834826E+03  0.7546771E-02  0.1067675E+00
        -11   -1    0    0    0    0  0.00000000000E+00  0.00000000000E+00  0.18250000000E+03  0.18250000000E+03  0.00000000000E+00 0.  1.
         11   -1    0    0    0    0 -0.00000000000E+00 -0.00000000000E+00 -0.18250000000E+03  0.18250000000E+03  0.00000000000E+00 0.  1.
        -11    1    1    2    0    0 -0.21568311787E+01  0.35105777572E+01  0.17164049209E+02  0.17651647577E+02  0.00000000000E+00 0.  1.
         11    1    1    2    0    0 -0.26387620444E+01  0.40139544343E+01 -0.18145379811E+03  0.18151737036E+03  0.00000000000E+00 0.  1.
        -15    1    1    2    0    0  0.80938990032E+01 -0.52431453289E+01  0.15712083547E+03  0.15742654301E+03  0.17770000000E+01 0.  1.
         15    1    1    2    0    0 -0.32983057802E+01 -0.22813868626E+01  0.71689134281E+01  0.84044390519E+01  0.17770000000E+01 0. -1.
</event>
<event>
 6    1  0.1298204E-002  0.1830121E+03  0.7546771E-02  0.1068048E+00
        -11   -1    0    0    0    0  0.00000000000E+00  0.00000000000E+00  0.18250000000E+03  0.18250000000E+03  0.00000000000E+00 0. -1.
         11   -1    0    0    0    0 -0.00000000000E+00 -0.00000000000E+00 -0.18250000000E+03  0.18250000000E+03  0.00000000000E+00 0. -1.
        -11    1    1    2    0    0  0.24654474941E+01 -0.87599250890E+00  0.28662167878E+02  0.28781342249E+02  0.00000000000E+00 0. -1.
         11    1    1    2    0    0 -0.25904974428E+01  0.48822327491E+00 -0.18196877460E+03  0.18198786764E+03  0.00000000000E+00 0. -1.
        -15    1    1    2    0    0 -0.41955574385E+01 -0.26486421333E+01  0.13481508629E+03  0.13491806117E+03  0.17770000000E+01 0. -1.
         15    1    1    2    0    0  0.43206073872E+01  0.30364113673E+01  0.18491520433E+02  0.19312728940E+02  0.17770000000E+01 0.  1.
</event>
<event>
 6    1  0.1386263E-002  0.1399571E+03  0.7546771E-02  0.1108486E+00
        -11   -1    0    0    0    0  0.00000000000E+00  0.00000000000E+00  0.18250000000E+03  0.18250000000E+03  0.00000000000E+00 0.  1.
         11   -1    0    0    0    0 -0.00000000000E+00 -0.00000000000E+00 -0.18250000000E+03  0.18250000000E+03  0.00000000000E+00 0.  1.
        -11    1    1    2    0    0 -0.35951734732E+02 -0.21156494378E+02  0.11110083173E+03  0.11867400430E+03  0.00000000000E+00 0.  1.
         11    1    1    2    0    0 -0.61376287244E+01  0.88505145174E+01 -0.12002551400E+03  0.12050778441E+03  0.00000000000E+00 0.  1.
        -15    1    1    2    0    0  0.22562028376E+02  0.11613194746E+02  0.63188373270E+02  0.68116368533E+02  0.17770000000E+01 0.  1.
         15    1    1    2    0    0  0.19527335080E+02  0.69278511505E+00 -0.54263691009E+02  0.57701842756E+02  0.17770000000E+01 0. -1.
</event>
<event>
 6    1  0.1298204E-002  0.1806737E+03  0.7546771E-02  0.1069918E+00
        -11   -1    0    0    0    0  0.00000000000E+00  0.00000000000E+00  0.18250000000E+03  0.18250000000E+03  0.00000000000E+00 0.  1.
         11   -1    0    0    0    0 -0.00000000000E+00 -0.00000000000E+00 -0.18250000000E+03  0.18250000000E+03  0.00000000000E+00 0.  1.
        -11    1    1    2    0    0 -0.82031153208E+00 -0.12786856985E+01  0.40360434634E+01  0.43124928943E+01  0.00000000000E+00 0.  1.
         11    1    1    2    0    0  0.72594154953E+00  0.11215281452E+02 -0.18170252020E+03  0.18204976071E+03  0.00000000000E+00 0.  1.
        -15    1    1    2    0    0  0.56511200833E+01 -0.37333467999E+01  0.13190284308E+03  0.13208857171E+03  0.17770000000E+01 0.  1.
         15    1    1    2    0    0 -0.55567501007E+01 -0.62032489537E+01  0.45763633655E+02  0.46549174682E+02  0.17770000000E+01 0. -1.
</event>
<event>
 6    1  0.1298204E-002  0.1860223E+03  0.7546771E-02  0.1065685E+00
        -11   -1    0    0    0    0  0.00000000000E+00  0.00000000000E+00  0.18250000000E+03  0.18250000000E+03  0.00000000000E+00 0.  1.
         11   -1    0    0    0    0 -0.00000000000E+00 -0.00000000000E+00 -0.18250000000E+03  0.18250000000E+03  0.00000000000E+00 0. -1.
        -11    1    1    2    0    0  0.24982545049E+01 -0.19800748815E+01  0.17894927848E+03  0.17897766967E+03  0.00000000000E+00 0.  1.
         11    1    1    2    0    0  0.37110287156E+01  0.42394736863E+01 -0.16193246839E+03  0.16203045761E+03  0.00000000000E+00 0. -1.
        -15    1    1    2    0    0 -0.51785012179E+01 -0.26918560396E+01  0.70921856944E+00  0.61419609068E+01  0.17770000000E+01 0.  1.
         15    1    1    2    0    0 -0.10307820026E+01  0.43245723482E+00 -0.17726028658E+02  0.17849911814E+02  0.17770000000E+01 0. -1.
</event>
<event>
 6    1  0.1298204E-002  0.1912560E+03  0.7546771E-02  0.1061691E+00
        -11   -1    0    0    0    0  0.00000000000E+00  0.00000000000E+00  0.18250000000E+03  0.18250000000E+03  0.00000000000E+00 0. -1.
         11   -1    0    0    0    0 -0.00000000000E+00 -0.00000000000E+00 -0.18250000000E+03  0.18250000000E+03  0.00000000000E+00 0.  1.
        -11    1    1    2    0    0  0.92373471631E+01 -0.12647728617E+02  0.14127248361E+03  0.14213799017E+03  0.00000000000E+00 0. -1.
         11    1    1    2    0    0 -0.15289372094E+01 -0.37867481550E+01 -0.17369602188E+03  0.17374402185E+03  0.00000000000E+00 0.  1.
        -15    1    1    2    0    0  0.14292151686E+01 -0.19951172033E+00  0.29787128132E+02  0.29874959285E+02  0.17770000000E+01 0.  1.
         15    1    1    2    0    0 -0.91376251223E+01  0.16633988493E+02  0.26364101388E+01  0.19243028698E+02  0.17770000000E+01 0. -1.
</event>
<event>
 6    1  0.1298204E-002  0.1831588E+03  0.7546771E-02  0.1067932E+00
        -11   -1    0    0    0    0  0.00000000000E+00  0.00000000000E+00  0.18250000000E+03  0.18250000000E+03  0.00000000000E+00 0. -1.
         11   -1    0    0    0    0 -0.00000000000E+00 -0.00000000000E+00 -0.18250000000E+03  0.18250000000E+03  0.00000000000E+00 0.  1.
        -11    1    1    2    0    0  0.29797999706E+01 -0.11632861185E+01  0.18181307711E+03  0.18184121494E+03  0.00000000000E+00 0. -1.
         11    1    1    2    0    0 -0.70944779408E+01 -0.26031689951E+01 -0.11197398478E+03  0.11222870120E+03  0.00000000000E+00 0.  1.
        -15    1    1    2    0    0 -0.23322118211E+01 -0.15347122464E+01 -0.11380598462E+02  0.11852016875E+02  0.17770000000E+01 0. -1.
         15    1    1    2    0    0  0.64468897913E+01  0.53011673600E+01 -0.58458493870E+02  0.59078066978E+02  0.17770000000E+01 0.  1.
</event>
<event>
 6    1  0.1298204E-002  0.1851297E+03  0.7546771E-02  0.1066381E+00
        -11   -1    0    0    0    0  0.00000000000E+00  0.00000000000E+00  0.18250000000E+03  0.18250000000E+03  0.00000000000E+00 0. -1.
         11   -1    0    0    0    0 -0.00000000000E+00 -0.00000000000E+00 -0.18250000000E+03  0.18250000000E+03  0.00000000000E+00 0. -1.
        -11    1    1    2    0    0  0.51215619741E+01 -0.58466122188E+00  0.17979637917E+03  0.17987025933E+03  0.00000000000E+00 0. -1.
         11    1    1    2    0    0  0.18386360309E+00 -0.40368517995E+01 -0.16788725778E+03  0.16793588450E+03  0.00000000000E+00 0. -1.
        -15    1    1    2    0    0 -0.63445928502E+01  0.49635508248E+01 -0.42976585375E+01  0.93015210116E+01  0.17770000000E+01 0. -1.
         15    1    1    2    0    0  0.10391672730E+01 -0.34203780347E+00 -0.76114628544E+01  0.78923351591E+01  0.17770000000E+01 0. -1.
</event>
<event>
 6    1  0.1298204E-002  0.1835133E+03  0.7546771E-02  0.1067651E+00
        -11   -1    0    0    0    0  0.00000000000E+00  0.00000000000E+00  0.18250000000E+03  0.18250000000E+03  0.00000000000E+00 0.  1.
         11   -1    0    0    0    0 -0.00000000000E+00 -0.00000000000E+00 -0.18250000000E+03  0.18250000000E+03  0.00000000000E+00 0. -1.
        -11    1    1    2    0    0  0.21853593487E+01  0.19095272041E+01  0.18146352620E+03  0.18148673072E+03  0.00000000000E+00 0.  1.
         11    1    1    2    0    0  0.25912243233E+01 -0.18301207697E+01 -0.17218956592E+03  0.17221878642E+03  0.00000000000E+00 0. -1.
        -15    1    1    2    0    0 -0.40638154598E+01 -0.54534582185E+00 -0.66808827982E+01  0.80376565067E+01  0.17770000000E+01 0.  1.
         15    1    1    2    0    0 -0.71276821220E+00  0.46593938745E+00 -0.25930774795E+01  0.32568263466E+01  0.17770000000E+01 0.  1.
</event>
<event>
 6    1  0.1298204E-002  0.1835655E+03  0.7546771E-02  0.1067610E+00
        -11   -1    0    0    0    0  0.00000000000E+00  0.00000000000E+00  0.18250000000E+03  0.18250000000E+03  0.00000000000E+00 0. -1.
         11   -1    0    0    0    0 -0.00000000000E+00 -0.00000000000E+00 -0.18250000000E+03  0.18250000000E+03  0.00000000000E+00 0.  1.
        -11    1    1    2    0    0 -0.15496459299E+01 -0.13375637174E+01  0.15022156662E+03  0.15023551363E+03  0.00000000000E+00 0. -1.
         11    1    1    2    0    0  0.41438526963E+01 -0.58051070003E+00 -0.18138620924E+03  0.18143446589E+03  0.00000000000E+00 0.  1.
        -15    1    1    2    0    0 -0.36426221113E+01 -0.59918551354E+00  0.32587702948E+01  0.52349815625E+01  0.17770000000E+01 0. -1.
         15    1    1    2    0    0  0.10484153449E+01  0.25172599310E+01  0.27905872332E+02  0.28095038920E+02  0.17770000000E+01 0. -1.
</event>
<event>
 6    1  0.1298204E-002  0.1917885E+03  0.7546771E-02  0.1061292E+00
        -11   -1    0    0    0    0  0.00000000000E+00  0.00000000000E+00  0.18250000000E+03  0.18250000000E+03  0.00000000000E+00 0.  1.
         11   -1    0    0    0    0 -0.00000000000E+00 -0.00000000000E+00 -0.18250000000E+03  0.18250000000E+03  0.00000000000E+00 0. -1.
        -11    1    1    2    0    0  0.13459700613E+02 -0.25923162369E+01  0.17266825278E+03  0.17321145794E+03  0.00000000000E+00 0.  1.
         11    1    1    2    0    0  0.26435883171E+01 -0.20258260571E+01 -0.15225936238E+03  0.15229578446E+03  0.00000000000E+00 0. -1.
        -15    1    1    2    0    0 -0.21116166161E+02 -0.25671611618E+01 -0.53916774484E+01  0.22016146449E+02  0.17770000000E+01 0. -1.
         15    1    1    2    0    0  0.50128772312E+01  0.71853034559E+01 -0.15017212947E+02  0.17476611158E+02  0.17770000000E+01 0.  1.
</event>
<event>
 6    1  0.1298204E-002  0.1831920E+03  0.7546771E-02  0.1067905E+00
        -11   -1    0    0    0    0  0.00000000000E+00  0.00000000000E+00  0.18250000000E+03  0.18250000000E+03  0.00000000000E+00 0.  1.
         11   -1    0    0    0    0 -0.00000000000E+00 -0.00000000000E+00 -0.18250000000E+03  0.18250000000E+03  0.00000000000E+00 0. -1.
        -11    1    1    2    0    0 -0.17714652816E+01  0.28441236285E+01  0.16329666012E+03  0.16333103298E+03  0.00000000000E+00 0.  1.
         11    1    1    2    0    0 -0.23536514939E+01 -0.86687675625E+00 -0.18179072465E+03  0.18180802710E+03  0.00000000000E+00 0. -1.
        -15    1    1    2    0    0  0.35261012483E+01 -0.45349944611E+00  0.64448907253E+01  0.75718820133E+01  0.17770000000E+01 0.  1.
         15    1    1    2    0    0  0.59901552712E+00 -0.15237474261E+01  0.12049173803E+02  0.12289057903E+02  0.17770000000E+01 0.  1.
</event>
<event>
 6    1  0.1298204E-002  0.1885251E+03  0.7546771E-02  0.1063758E+00
        -11   -1    0    0    0    0  0.00000000000E+00  0.00000000000E+00  0.18250000000E+03  0.18250000000E+03  0.00000000000E+00 0.  1.
         11   -1    0    0    0    0 -0.00000000000E+00 -0.00000000000E+00 -0.18250000000E+03  0.18250000000E+03  0.00000000000E+00 0.  1.
        -11    1    1    2    0    0  0.14584303398E+01 -0.17565457597E+01  0.14176683707E+03  0.14178521984E+03  0.00000000000E+00 0.  1.
         11    1    1    2    0    0 -0.15615182913E+01 -0.25015446825E+01 -0.17645030487E+03  0.17647494483E+03  0.00000000000E+00 0.  1.
        -15    1    1    2    0    0 -0.22095768087E+01  0.30111180713E+01  0.40180764065E+02  0.40393076035E+02  0.17770000000E+01 0.  1.
         15    1    1    2    0    0  0.23126647603E+01  0.12469723709E+01 -0.54972962647E+01  0.63467592998E+01  0.17770000000E+01 0. -1.
</event>
<event>
 6    1  0.1298204E-002  0.1887887E+03  0.7546771E-02  0.1063556E+00
        -11   -1    0    0    0    0  0.00000000000E+00  0.00000000000E+00  0.18250000000E+03  0.18250000000E+03  0.00000000000E+00 0.  1.
         11   -1    0    0    0    0 -0.00000000000E+00 -0.00000000000E+00 -0.18250000000E+03  0.18250000000E+03  0.00000000000E+00 0. -1.
        -11    1    1    2    0    0  0.24080595390E+02  0.20431221316E+01  0.17454621224E+03  0.17621132095E+03  0.00000000000E+00 0.  1.
         11    1    1    2    0    0  0.11019894469E+02 -0.15191557254E+02 -0.79034309573E+02  0.81232035403E+02  0.00000000000E+00 0. -1.
        -15    1    1    2    0    0 -0.24871637729E+02  0.13905063299E+02 -0.92372503400E+02  0.96683950385E+02  0.17770000000E+01 0.  1.
         15    1    1    2    0    0 -0.10228852131E+02 -0.75662817587E+00 -0.31393992661E+01  0.10872693266E+02  0.17770000000E+01 0. -1.
</event>
<event>
 6    1  0.1298204E-002  0.1940601E+03  0.7546771E-02  0.1059608E+00
        -11   -1    0    0    0    0  0.00000000000E+00  0.00000000000E+00  0.18250000000E+03  0.18250000000E+03  0.00000000000E+00 0. -1.
         11   -1    0    0    0    0 -0.00000000000E+00 -0.00000000000E+00 -0.18250000000E+03  0.18250000000E+03  0.00000000000E+00 0. -1.
        -11    1    1    2    0    0  0.50500774161E+01 -0.42470958046E+01  0.17081251740E+03  0.17093992280E+03  0.00000000000E+00 0. -1.
         11    1    1    2    0    0 -0.36810811079E+01 -0.37920970369E+01 -0.26191401879E+02  0.26719279377E+02  0.00000000000E+00 0. -1.
        -15    1    1    2    0    0 -0.24942595744E+01  0.38159156986E+01  0.10795514868E+02  0.11852569920E+02  0.17770000000E+01 0. -1.
         15    1    1    2    0    0  0.11252632662E+01  0.42232771429E+01 -0.15541663039E+03  0.15548822791E+03  0.17770000000E+01 0. -1.
</event>
<event>
 6    1  0.1298204E-002  0.1843004E+03  0.7546771E-02  0.1067031E+00
        -11   -1    0    0    0    0  0.00000000000E+00  0.00000000000E+00  0.18250000000E+03  0.18250000000E+03  0.00000000000E+00 0.  1.
         11   -1    0    0    0    0 -0.00000000000E+00 -0.00000000000E+00 -0.18250000000E+03  0.18250000000E+03  0.00000000000E+00 0. -1.
        -11    1    1    2    0    0 -0.41877046831E+00 -0.24625230191E+01  0.18068231322E+03  0.18069957858E+03  0.00000000000E+00 0.  1.
         11    1    1    2    0    0  0.56733618960E+00 -0.39521701317E+01 -0.15141539121E+03  0.15146802374E+03  0.00000000000E+00 0. -1.
        -15    1    1    2    0    0  0.48778633310E+01 -0.23259353261E+00 -0.54199301881E+01  0.75087297642E+01  0.17770000000E+01 0.  1.
         15    1    1    2    0    0 -0.50264290523E+01  0.66472866833E+01 -0.23846991819E+02  0.25323667923E+02  0.17770000000E+01 0. -1.
</event>
<event>
 6    1  0.1298204E-002  0.1843825E+03  0.7546771E-02  0.1066966E+00
        -11   -1    0    0    0    0  0.00000000000E+00  0.00000000000E+00  0.18250000000E+03  0.18250000000E+03  0.00000000000E+00 0.  1.
         11   -1    0    0    0    0 -0.00000000000E+00 -0.00000000000E+00 -0.18250000000E+03  0.18250000000E+03  0.00000000000E+00 0. -1.
        -11    1    1    2    0    0 -0.47257164489E+00  0.30079701486E+01  0.15873605842E+03  0.15876525896E+03  0.00000000000E+00 0.  1.
         11    1    1    2    0    0 -0.28713601166E+01  0.75603486619E-01 -0.18059467657E+03  0.18061751750E+03  0.00000000000E+00 0. -1.
        -15    1    1    2    0    0 -0.27695654653E+01 -0.11331105359E+01  0.17055747865E+02  0.17407202435E+02  0.17770000000E+01 0.  1.
         15    1    1    2    0    0  0.61134972268E+01 -0.19504630993E+01  0.48028702793E+01  0.82100211061E+01  0.17770000000E+01 0.  1.
</event>
<event>
 6    1  0.1298204E-002  0.1877536E+03  0.7546771E-02  0.1064348E+00
        -11   -1    0    0    0    0  0.00000000000E+00  0.00000000000E+00  0.18250000000E+03  0.18250000000E+03  0.00000000000E+00 0.  1.
         11   -1    0    0    0    0 -0.00000000000E+00 -0.00000000000E+00 -0.18250000000E+03  0.18250000000E+03  0.00000000000E+00 0.  1.
        -11    1    1    2    0    0  0.85438846154E+01  0.11251335147E+02  0.15950120031E+03  0.16012564881E+03  0.00000000000E+00 0.  1.
         11    1    1    2    0    0  0.49548747085E+01 -0.35793563694E+00 -0.17717672701E+03  0.17724635820E+03  0.00000000000E+00 0.  1.
        -15    1    1    2    0    0 -0.13716985940E+02 -0.10435784495E+02  0.18717833487E+02  0.25506397644E+02  0.17770000000E+01 0. -1.
         15    1    1    2    0    0  0.21822661590E+00 -0.45761501524E+00 -0.10423067881E+01  0.21215953428E+01  0.17770000000E+01 0.  1.
</event>
<event>
 6    1  0.1298204E-002  0.1839161E+03  0.7546771E-02  0.1067333E+00
        -11   -1    0    0    0    0  0.00000000000E+00  0.00000000000E+00  0.18250000000E+03  0.18250000000E+03  0.00000000000E+00 0. -1.
         11   -1    0    0    0    0 -0.00000000000E+00 -0.00000000000E+00 -0.18250000000E+03  0.18250000000E+03  0.00000000000E+00 0. -1.
        -11    1    1    2    0    0 -0.72930766282E+01 -0.22304796954E+01  0.18092319787E+03  0.18108386878E+03  0.00000000000E+00 0. -1.
         11    1    1    2    0    0  0.15256720518E+01  0.21217678980E+01 -0.12956842249E+03  0.12959477490E+03  0.00000000000E+00 0. -1.
        -15    1    1    2    0    0  0.64724090246E+01  0.63117484192E+01 -0.41574091185E+02  0.42582778603E+02  0.17770000000E+01 0. -1.
         15    1    1    2    0    0 -0.70500444825E+00 -0.62030366217E+01 -0.97806841912E+01  0.11738577718E+02  0.17770000000E+01 0.  1.
</event>
<event>
 6    1  0.1298204E-002  0.1826162E+03  0.7546771E-02  0.1068362E+00
        -11   -1    0    0    0    0  0.00000000000E+00  0.00000000000E+00  0.18250000000E+03  0.18250000000E+03  0.00000000000E+00 0. -1.
         11   -1    0    0    0    0 -0.00000000000E+00 -0.00000000000E+00 -0.18250000000E+03  0.18250000000E+03  0.00000000000E+00 0.  1.
        -11    1    1    2    0    0  0.96603420628E+00  0.15736891590E+01  0.76547663946E+02  0.76569932579E+02  0.00000000000E+00 0. -1.
         11    1    1    2    0    0 -0.17090517363E+01 -0.25598636537E+01 -0.18235779700E+03  0.18238377090E+03  0.00000000000E+00 0.  1.
        -15    1    1    2    0    0 -0.12289480638E+01  0.61231962070E+00  0.12661918164E+02  0.12859515903E+02  0.17770000000E+01 0.  1.
         15    1    1    2    0    0  0.19719655938E+01  0.37385487398E+00  0.93148214892E+02  0.93186780620E+02  0.17770000000E+01 0. -1.
</event>
<event>
 6    1  0.1298204E-002  0.1828087E+03  0.7546771E-02  0.1068209E+00
        -11   -1    0    0    0    0  0.00000000000E+00  0.00000000000E+00  0.18250000000E+03  0.18250000000E+03  0.00000000000E+00 0. -1.
         11   -1    0    0    0    0 -0.00000000000E+00 -0.00000000000E+00 -0.18250000000E+03  0.18250000000E+03  0.00000000000E+00 0.  1.
        -11    1    1    2    0    0  0.29273494490E+01  0.58978479937E+00  0.18216679970E+03  0.18219127348E+03  0.00000000000E+00 0. -1.
         11    1    1    2    0    0 -0.78373077426E-01 -0.27681310594E+01 -0.12985220161E+03  0.12988172679E+03  0.00000000000E+00 0.  1.
        -15    1    1    2    0    0 -0.10724677636E+01  0.65419687393E+00 -0.44878496234E+02  0.44931228715E+02  0.17770000000E+01 0. -1.
         15    1    1    2    0    0 -0.17765086080E+01  0.15241493861E+01 -0.74361018594E+01  0.79957710103E+01  0.17770000000E+01 0.  1.
</event>
<event>
 6    1  0.1298204E-002  0.1834120E+03  0.7546771E-02  0.1067731E+00
        -11   -1    0    0    0    0  0.00000000000E+00  0.00000000000E+00  0.18250000000E+03  0.18250000000E+03  0.00000000000E+00 0.  1.
         11   -1    0    0    0    0 -0.00000000000E+00 -0.00000000000E+00 -0.18250000000E+03  0.18250000000E+03  0.00000000000E+00 0. -1.
        -11    1    1    2    0    0 -0.35284165550E+00 -0.26361646463E+01  0.18156852282E+03  0.18158800164E+03  0.00000000000E+00 0.  1.
         11    1    1    2    0    0 -0.39384580099E+01  0.21678506653E+01 -0.15551572735E+03  0.15558069443E+03  0.00000000000E+00 0. -1.
        -15    1    1    2    0    0  0.20431948511E+00  0.34550366547E+01 -0.66901809950E+01  0.77392038017E+01  0.17770000000E+01 0. -1.
         15    1    1    2    0    0  0.40869801803E+01 -0.29867226737E+01 -0.19362614472E+02  0.20092100127E+02  0.17770000000E+01 0.  1.
</event>
<event>
 6    1  0.1298204E-002  0.1870760E+03  0.7546771E-02  0.1064870E+00
        -11   -1    0    0    0    0  0.00000000000E+00  0.00000000000E+00  0.18250000000E+03  0.18250000000E+03  0.00000000000E+00 0.  1.
         11   -1    0    0    0    0 -0.00000000000E+00 -0.00000000000E+00 -0.18250000000E+03  0.18250000000E+03  0.00000000000E+00 0.  1.
        -11    1    1    2    0    0 -0.35774619317E+01  0.65150442566E+01  0.16975320132E+03  0.16991584209E+03  0.00000000000E+00 0.  1.
         11    1    1    2    0    0  0.21617189943E+01  0.37453573726E+01 -0.17787147735E+03  0.17792403768E+03  0.00000000000E+00 0.  1.
        -15    1    1    2    0    0  0.24372258471E+01 -0.11469926263E+02  0.42113875600E+01  0.12585419838E+02  0.17770000000E+01 0.  1.
         15    1    1    2    0    0 -0.10214829097E+01  0.12095246338E+01  0.39068884666E+01  0.45747003907E+01  0.17770000000E+01 0. -1.
</event>
<event>
 6    1  0.1298204E-002  0.1769174E+03  0.7546771E-02  0.1072987E+00
        -11   -1    0    0    0    0  0.00000000000E+00  0.00000000000E+00  0.18250000000E+03  0.18250000000E+03  0.00000000000E+00 0.  1.
         11   -1    0    0    0    0 -0.00000000000E+00 -0.00000000000E+00 -0.18250000000E+03  0.18250000000E+03  0.00000000000E+00 0.  1.
        -11    1    1    2    0    0 -0.40511067852E+01  0.27386259850E+01  0.17789464019E+03  0.17796183453E+03  0.00000000000E+00 0.  1.
         11    1    1    2    0    0 -0.36604194498E+00 -0.27046068854E+01 -0.17588514232E+03  0.17590631647E+03  0.00000000000E+00 0.  1.
        -15    1    1    2    0    0  0.57032749914E+01 -0.18781366594E+01 -0.41868617028E+01  0.75327473645E+01  0.17770000000E+01 0. -1.
         15    1    1    2    0    0 -0.12861262612E+01  0.18441175598E+01  0.21773638336E+01  0.35991016376E+01  0.17770000000E+01 0.  1.
</event>
<event>
 6    1  0.1298204E-002  0.1788946E+03  0.7546771E-02  0.1071362E+00
        -11   -1    0    0    0    0  0.00000000000E+00  0.00000000000E+00  0.18250000000E+03  0.18250000000E+03  0.00000000000E+00 0. -1.
         11   -1    0    0    0    0 -0.00000000000E+00 -0.00000000000E+00 -0.18250000000E+03  0.18250000000E+03  0.00000000000E+00 0.  1.
        -11    1    1    2    0    0  0.26548526856E+01  0.18730394873E+01  0.17823046281E+03  0.17826007515E+03  0.00000000000E+00 0. -1.
         11    1    1    2    0    0 -0.32662986084E+01  0.29479191646E+01 -0.17951040967E+03  0.17956432306E+03  0.00000000000E+00 0.  1.
        -15    1    1    2    0    0 -0.14705981925E+01 -0.28785833517E+01  0.90661537543E+00  0.37984972812E+01  0.17770000000E+01 0. -1.
         15    1    1    2    0    0  0.20820441153E+01 -0.19423753002E+01  0.37333149056E+00  0.33771045152E+01  0.17770000000E+01 0.  1.
</event>
<event>
 6    1  0.1298204E-002  0.1837275E+03  0.7546771E-02  0.1067482E+00
        -11   -1    0    0    0    0  0.00000000000E+00  0.00000000000E+00  0.18250000000E+03  0.18250000000E+03  0.00000000000E+00 0.  1.
         11   -1    0    0    0    0 -0.00000000000E+00 -0.00000000000E+00 -0.18250000000E+03  0.18250000000E+03  0.00000000000E+00 0.  1.
        -11    1    1    2    0    0  0.27067594481E+01 -0.37529377990E+01  0.15515024954E+03  0.15521923534E+03  0.00000000000E+00 0.  1.
         11    1    1    2    0    0  0.25760805689E+01 -0.21672370339E+01 -0.18124119236E+03  0.18127245493E+03  0.00000000000E+00 0.  1.
        -15    1    1    2    0    0 -0.47483629690E+01  0.74313633943E+01  0.22008815902E+02  0.23776413085E+02  0.17770000000E+01 0.  1.
         15    1    1    2    0    0 -0.53447704797E+00 -0.15111885615E+01  0.40821269220E+01  0.47318966377E+01  0.17770000000E+01 0. -1.
</event>
<event>
 6    1  0.1298204E-002  0.1878451E+03  0.7546771E-02  0.1064278E+00
        -11   -1    0    0    0    0  0.00000000000E+00  0.00000000000E+00  0.18250000000E+03  0.18250000000E+03  0.00000000000E+00 0. -1.
         11   -1    0    0    0    0 -0.00000000000E+00 -0.00000000000E+00 -0.18250000000E+03  0.18250000000E+03  0.00000000000E+00 0.  1.
        -11    1    1    2    0    0 -0.17522636076E+01 -0.56758085280E+01  0.17705529426E+03  0.17715491090E+03  0.00000000000E+00 0. -1.
         11    1    1    2    0    0 -0.20833366340E+02  0.53034962412E+01 -0.13364533017E+03  0.13536332776E+03  0.00000000000E+00 0.  1.
        -15    1    1    2    0    0  0.83755824963E+01  0.80879798941E+01 -0.26593481663E+02  0.29084992640E+02  0.17770000000E+01 0. -1.
         15    1    1    2    0    0  0.14210047451E+02 -0.77156676073E+01 -0.16816482430E+02  0.23396768698E+02  0.17770000000E+01 0.  1.
</event>
<event>
 6    1  0.1298204E-002  0.1849878E+03  0.7546771E-02  0.1066492E+00
        -11   -1    0    0    0    0  0.00000000000E+00  0.00000000000E+00  0.18250000000E+03  0.18250000000E+03  0.00000000000E+00 0.  1.
         11   -1    0    0    0    0 -0.00000000000E+00 -0.00000000000E+00 -0.18250000000E+03  0.18250000000E+03  0.00000000000E+00 0. -1.
        -11    1    1    2    0    0  0.17020767280E+01 -0.34482206498E+01  0.17997111329E+03  0.18001219101E+03  0.00000000000E+00 0.  1.
         11    1    1    2    0    0 -0.55899543513E+00 -0.48504743264E+00 -0.12418922590E+02  0.12440955961E+02  0.00000000000E+00 0. -1.
        -15    1    1    2    0    0 -0.35045993752E+00  0.53472082865E+01 -0.71317597942E+00  0.56905015249E+01  0.17770000000E+01 0. -1.
         15    1    1    2    0    0 -0.79262135531E+00 -0.14139402041E+01 -0.16683901472E+03  0.16685635151E+03  0.17770000000E+01 0. -1.
</event>
<event>
 6    1  0.1298204E-002  0.1862915E+03  0.7546771E-02  0.1065476E+00
        -11   -1    0    0    0    0  0.00000000000E+00  0.00000000000E+00  0.18250000000E+03  0.18250000000E+03  0.00000000000E+00 0. -1.
         11   -1    0    0    0    0 -0.00000000000E+00 -0.00000000000E+00 -0.18250000000E+03  0.18250000000E+03  0.00000000000E+00 0. -1.
        -11    1    1    2    0    0 -0.50088433992E+00  0.47902673468E+01  0.17864358639E+03  0.17870850149E+03  0.00000000000E+00 0. -1.
         11    1    1    2    0    0 -0.82232948853E+00 -0.23589763153E+01 -0.17291815051E+03  0.17293619566E+03  0.00000000000E+00 0. -1.
        -15    1    1    2    0    0  0.33880745915E+00 -0.67464049802E+01 -0.48570959554E+01  0.85075190727E+01  0.17770000000E+01 0. -1.
         15    1    1    2    0    0  0.98440636930E+00  0.43151139488E+01 -0.86833992444E+00  0.48477837736E+01  0.17770000000E+01 0. -1.
</event>
<event>
 6    1  0.1298204E-002  0.1837348E+03  0.7546771E-02  0.1067476E+00
        -11   -1    0    0    0    0  0.00000000000E+00  0.00000000000E+00  0.18250000000E+03  0.18250000000E+03  0.00000000000E+00 0.  1.
         11   -1    0    0    0    0 -0.00000000000E+00 -0.00000000000E+00 -0.18250000000E+03  0.18250000000E+03  0.00000000000E+00 0.  1.
        -11    1    1    2    0    0  0.10757586324E+02  0.28548175892E+01  0.99987469649E+02  0.10060501843E+03  0.00000000000E+00 0.  1.
         11    1    1    2    0    0 -0.23786659221E+01  0.11482768928E+01 -0.18124591344E+03  0.18126515863E+03  0.00000000000E+00 0.  1.
        -15    1    1    2    0    0 -0.11036792691E+02 -0.16877650017E+01  0.36825459946E+02  0.38521832418E+02  0.17770000000E+01 0. -1.
         15    1    1    2    0    0  0.26578722891E+01 -0.23153294803E+01  0.44432983850E+02  0.44607990523E+02  0.17770000000E+01 0.  1.
</event>
<event>
 6    1  0.1298204E-002  0.1877910E+03  0.7546771E-02  0.1064319E+00
        -11   -1    0    0    0    0  0.00000000000E+00  0.00000000000E+00  0.18250000000E+03  0.18250000000E+03  0.00000000000E+00 0. -1.
         11   -1    0    0    0    0 -0.00000000000E+00 -0.00000000000E+00 -0.18250000000E+03  0.18250000000E+03  0.00000000000E+00 0.  1.
        -11    1    1    2    0    0  0.41401489473E+01 -0.24941309999E+01  0.17714307577E+03  0.17720900320E+03  0.00000000000E+00 0. -1.
         11    1    1    2    0    0  0.12686836580E+01  0.77115378328E+01 -0.16136786763E+03  0.16155700566E+03  0.00000000000E+00 0.  1.
        -15    1    1    2    0    0 -0.96616027763E+01  0.10743639093E+01 -0.15390539453E+01  0.10001362010E+02  0.17770000000E+01 0. -1.
         15    1    1    2    0    0  0.42527701711E+01 -0.62917707422E+01 -0.14236154191E+02  0.16232629126E+02  0.17770000000E+01 0.  1.
</event>
<event>
 6    1  0.1298204E-002  0.1926420E+03  0.7546771E-02  0.1060657E+00
        -11   -1    0    0    0    0  0.00000000000E+00  0.00000000000E+00  0.18250000000E+03  0.18250000000E+03  0.00000000000E+00 0.  1.
         11   -1    0    0    0    0 -0.00000000000E+00 -0.00000000000E+00 -0.18250000000E+03  0.18250000000E+03  0.00000000000E+00 0. -1.
        -11    1    1    2    0    0 -0.23590483082E+02 -0.10747147664E+02  0.17039737811E+03  0.17235799530E+03  0.00000000000E+00 0.  1.
         11    1    1    2    0    0  0.32995060199E+01 -0.26753717995E+01 -0.13871880379E+03  0.13878382787E+03  0.00000000000E+00 0. -1.
        -15    1    1    2    0    0 -0.35342445997E+01 -0.94556480192E+01 -0.99240310993E+01  0.14266894778E+02  0.17770000000E+01 0.  1.
         15    1    1    2    0    0  0.23825221662E+02  0.22878167482E+02 -0.21754543229E+02  0.39591282054E+02  0.17770000000E+01 0. -1.
</event>
<event>
 6    1  0.1298204E-002  0.1637764E+03  0.7546771E-02  0.1084420E+00
        -11   -1    0    0    0    0  0.00000000000E+00  0.00000000000E+00  0.18250000000E+03  0.18250000000E+03  0.00000000000E+00 0.  1.
         11   -1    0    0    0    0 -0.00000000000E+00 -0.00000000000E+00 -0.18250000000E+03  0.18250000000E+03  0.00000000000E+00 0.  1.
        -11    1    1    2    0    0 -0.25666816220E+01  0.10617691606E+02  0.15727368259E+03  0.15765257519E+03  0.00000000000E+00 0.  1.
         11    1    1    2    0    0 -0.65024641994E+01  0.13710229404E+02 -0.17052079524E+03  0.17119460868E+03  0.00000000000E+00 0.  1.
        -15    1    1    2    0    0 -0.39931626693E+01 -0.16504366574E+01  0.82050394845E+01  0.94419114170E+01  0.17770000000E+01 0. -1.
         15    1    1    2    0    0  0.13062308491E+02 -0.22677484353E+02  0.50420731683E+01  0.26710904712E+02  0.17770000000E+01 0.  1.
</event>
<event>
 6    1  0.1298204E-002  0.1873260E+03  0.7546771E-02  0.1064677E+00
        -11   -1    0    0    0    0  0.00000000000E+00  0.00000000000E+00  0.18250000000E+03  0.18250000000E+03  0.00000000000E+00 0. -1.
         11   -1    0    0    0    0 -0.00000000000E+00 -0.00000000000E+00 -0.18250000000E+03  0.18250000000E+03  0.00000000000E+00 0.  1.
        -11    1    1    2    0    0 -0.13567690700E+01 -0.24977813985E+01  0.17765123284E+03  0.17767397183E+03  0.00000000000E+00 0. -1.
         11    1    1    2    0    0  0.38960868714E+00 -0.24919745008E+01 -0.16847615654E+03  0.16849503569E+03  0.00000000000E+00 0.  1.
        -15    1    1    2    0    0  0.49578128824E+01 -0.12650638324E+01  0.15823099653E+01  0.56428475881E+01  0.17770000000E+01 0. -1.
         15    1    1    2    0    0 -0.39906524995E+01  0.62548197317E+01 -0.10757386271E+02  0.13188144890E+02  0.17770000000E+01 0.  1.
</event>
<event>
 6    1  0.1298204E-002  0.1836119E+03  0.7546771E-02  0.1067573E+00
        -11   -1    0    0    0    0  0.00000000000E+00  0.00000000000E+00  0.18250000000E+03  0.18250000000E+03  0.00000000000E+00 0. -1.
         11   -1    0    0    0    0 -0.00000000000E+00 -0.00000000000E+00 -0.18250000000E+03  0.18250000000E+03  0.00000000000E+00 0. -1.
        -11    1    1    2    0    0  0.51515643048E+01  0.86407518887E+01  0.18110892792E+03  0.18138810595E+03  0.00000000000E+00 0. -1.
         11    1    1    2    0    0 -0.21145909407E+01  0.19519580521E+01 -0.12638160678E+03  0.12641436694E+03  0.00000000000E+00 0. -1.
        -15    1    1    2    0    0 -0.64452957987E+01 -0.62343063129E+01 -0.44547767177E+02  0.45476034376E+02  0.17770000000E+01 0.  1.
         15    1    1    2    0    0  0.34083224346E+01 -0.43584036278E+01 -0.10179553965E+02  0.11721492735E+02  0.17770000000E+01 0. -1.
</event>
<event>
 6    1  0.1298204E-002  0.1844946E+03  0.7546771E-02  0.1066878E+00
        -11   -1    0    0    0    0  0.00000000000E+00  0.00000000000E+00  0.18250000000E+03  0.18250000000E+03  0.00000000000E+00 0. -1.
         11   -1    0    0    0    0 -0.00000000000E+00 -0.00000000000E+00 -0.18250000000E+03  0.18250000000E+03  0.00000000000E+00 0. -1.
        -11    1    1    2    0    0 -0.28401834176E+01 -0.45815781614E+01  0.18042489971E+03  0.18050540694E+03  0.00000000000E+00 0. -1.
         11    1    1    2    0    0  0.41381481223E+01 -0.18959017395E+01 -0.16428226379E+03  0.16434530997E+03  0.00000000000E+00 0. -1.
        -15    1    1    2    0    0  0.17305937020E+01  0.12876172845E+01  0.40837311944E-01  0.27950508974E+01  0.17770000000E+01 0. -1.
         15    1    1    2    0    0 -0.30285584067E+01  0.51898626164E+01 -0.16183473229E+02  0.17354232186E+02  0.17770000000E+01 0.  1.
</event>
<event>
 6    1  0.1298204E-002  0.1790151E+03  0.7546771E-02  0.1071263E+00
        -11   -1    0    0    0    0  0.00000000000E+00  0.00000000000E+00  0.18250000000E+03  0.18250000000E+03  0.00000000000E+00 0.  1.
         11   -1    0    0    0    0 -0.00000000000E+00 -0.00000000000E+00 -0.18250000000E+03  0.18250000000E+03  0.00000000000E+00 0. -1.
        -11    1    1    2    0    0 -0.16875656253E+01 -0.17998067389E+01  0.17820789137E+03  0.17822496943E+03  0.00000000000E+00 0.  1.
         11    1    1    2    0    0 -0.25549221152E+01  0.15440322024E+01 -0.17980927181E+03  0.17983405098E+03  0.00000000000E+00 0. -1.
        -15    1    1    2    0    0  0.10603529275E+01  0.48253464968E+00  0.23973914620E+01  0.32034985315E+01  0.17770000000E+01 0.  1.
         15    1    1    2    0    0  0.31821348130E+01 -0.22676011312E+00 -0.79601101593E+00  0.37374810574E+01  0.17770000000E+01 0. -1.
</event>
<event>
 6    1  0.1298204E-002  0.1851573E+03  0.7546771E-02  0.1066359E+00
        -11   -1    0    0    0    0  0.00000000000E+00  0.00000000000E+00  0.18250000000E+03  0.18250000000E+03  0.00000000000E+00 0.  1.
         11   -1    0    0    0    0 -0.00000000000E+00 -0.00000000000E+00 -0.18250000000E+03  0.18250000000E+03  0.00000000000E+00 0. -1.
        -11    1    1    2    0    0  0.13669276391E+01 -0.16342943365E+01  0.14645166479E+03  0.14646716195E+03  0.00000000000E+00 0.  1.
         11    1    1    2    0    0 -0.49091622074E+01  0.61425591401E+01 -0.17967068342E+03  0.17984266842E+03  0.00000000000E+00 0. -1.
        -15    1    1    2    0    0  0.76037088207E+01 -0.45389640159E+01  0.54063656717E+01  0.10526400189E+02  0.17770000000E+01 0. -1.
         15    1    1    2    0    0 -0.40614742524E+01  0.30699212337E-01  0.27812652954E+02  0.28163769436E+02  0.17770000000E+01 0. -1.
</event>
<event>
 6    1  0.1298204E-002  0.2011753E+03  0.7546771E-02  0.1054490E+00
        -11   -1    0    0    0    0  0.00000000000E+00  0.00000000000E+00  0.18250000000E+03  0.18250000000E+03  0.00000000000E+00 0.  1.
         11   -1    0    0    0    0 -0.00000000000E+00 -0.00000000000E+00 -0.18250000000E+03  0.18250000000E+03  0.00000000000E+00 0. -1.
        -11    1    1    2    0    0  0.74710041365E+01 -0.23948782378E+02  0.16189244425E+03  0.16382467331E+03  0.00000000000E+00 0.  1.
         11    1    1    2    0    0 -0.14781597857E+01  0.34252805919E+01 -0.11044039559E+03  0.11050338674E+03  0.00000000000E+00 0. -1.
        -15    1    1    2    0    0 -0.96541720471E+01  0.20058346296E+02  0.13166279788E+02  0.25923906853E+02  0.17770000000E+01 0.  1.
         15    1    1    2    0    0  0.36613276963E+01  0.46515549031E+00 -0.64618328444E+02  0.64748033097E+02  0.17770000000E+01 0. -1.
</event>
<event>
 6    1  0.1298204E-002  0.1840751E+03  0.7546771E-02  0.1067208E+00
        -11   -1    0    0    0    0  0.00000000000E+00  0.00000000000E+00  0.18250000000E+03  0.18250000000E+03  0.00000000000E+00 0.  1.
         11   -1    0    0    0    0 -0.00000000000E+00 -0.00000000000E+00 -0.18250000000E+03  0.18250000000E+03  0.00000000000E+00 0.  1.
        -11    1    1    2    0    0  0.59945499918E+01  0.38844312342E+01  0.14678566808E+03  0.14695936782E+03  0.00000000000E+00 0.  1.
         11    1    1    2    0    0  0.28099031195E+01 -0.98378902115E+00 -0.18090040355E+03  0.18092489989E+03  0.00000000000E+00 0.  1.
        -15    1    1    2    0    0 -0.98971691780E+00  0.33472111629E+01  0.55151880754E+01  0.67644948558E+01  0.17770000000E+01 0.  1.
         15    1    1    2    0    0 -0.78147361934E+01 -0.62478533759E+01  0.28599547397E+02  0.30351237436E+02  0.17770000000E+01 0. -1.
</event>
<event>
 6    1  0.1298204E-002  0.1833776E+03  0.7546771E-02  0.1067758E+00
        -11   -1    0    0    0    0  0.00000000000E+00  0.00000000000E+00  0.18250000000E+03  0.18250000000E+03  0.00000000000E+00 0. -1.
         11   -1    0    0    0    0 -0.00000000000E+00 -0.00000000000E+00 -0.18250000000E+03  0.18250000000E+03  0.00000000000E+00 0. -1.
        -11    1    1    2    0    0  0.10012150938E+01  0.73236653824E+00  0.82452445816E+02  0.82461776682E+02  0.00000000000E+00 0. -1.
         11    1    1    2    0    0 -0.60373446958E+01 -0.14527086090E+02 -0.18093982188E+03  0.18162242401E+03  0.00000000000E+00 0. -1.
        -15    1    1    2    0    0 -0.37044341170E+00 -0.12167363680E+01  0.45436467110E+02  0.45488987108E+02  0.17770000000E+01 0.  1.
         15    1    1    2    0    0  0.54065730137E+01  0.15011455920E+02  0.53050908955E+02  0.55426812199E+02  0.17770000000E+01 0.  1.
</event>
<event>
 6    1  0.1298204E-002  0.1832089E+03  0.7546771E-02  0.1067892E+00
        -11   -1    0    0    0    0  0.00000000000E+00  0.00000000000E+00  0.18250000000E+03  0.18250000000E+03  0.00000000000E+00 0.  1.
         11   -1    0    0    0    0 -0.00000000000E+00 -0.00000000000E+00 -0.18250000000E+03  0.18250000000E+03  0.00000000000E+00 0.  1.
        -11    1    1    2    0    0  0.37752179850E+01 -0.11737396765E+01  0.12922079389E+03  0.12928125738E+03  0.00000000000E+00 0.  1.
         11    1    1    2    0    0 -0.19042684775E+01 -0.17544358991E+01 -0.18177269055E+03  0.18179113100E+03  0.00000000000E+00 0.  1.
        -15    1    1    2    0    0  0.16958254807E+01  0.19463826876E+01  0.34752950870E+01  0.46797045387E+01  0.17770000000E+01 0.  1.
         15    1    1    2    0    0 -0.35667749882E+01  0.98179288793E+00  0.49076601566E+02  0.49247907076E+02  0.17770000000E+01 0. -1.
</event>
<event>
 6    1  0.1298204E-002  0.1885969E+03  0.7546771E-02  0.1063703E+00
        -11   -1    0    0    0    0  0.00000000000E+00  0.00000000000E+00  0.18250000000E+03  0.18250000000E+03  0.00000000000E+00 0.  1.
         11   -1    0    0    0    0 -0.00000000000E+00 -0.00000000000E+00 -0.18250000000E+03  0.18250000000E+03  0.00000000000E+00 0. -1.
        -11    1    1    2    0    0  0.36675550189E+01 -0.96518301419E+00  0.17636231869E+03  0.17640308952E+03  0.00000000000E+00 0.  1.
         11    1    1    2    0    0  0.28468927383E+01  0.28993631421E+01 -0.13475921535E+03  0.13482046294E+03  0.00000000000E+00 0. -1.
        -15    1    1    2    0    0 -0.73655913398E+01  0.27364130827E+01  0.32141452275E+01  0.86734278626E+01  0.17770000000E+01 0.  1.
         15    1    1    2    0    0  0.85114358260E+00 -0.46705932106E+01 -0.44817248565E+02  0.45103019680E+02  0.17770000000E+01 0. -1.
</event>
<event>
 6    1  0.1298204E-002  0.1840607E+03  0.7546771E-02  0.1067219E+00
        -11   -1    0    0    0    0  0.00000000000E+00  0.00000000000E+00  0.18250000000E+03  0.18250000000E+03  0.00000000000E+00 0.  1.
         11   -1    0    0    0    0 -0.00000000000E+00 -0.00000000000E+00 -0.18250000000E+03  0.18250000000E+03  0.00000000000E+00 0. -1.
        -11    1    1    2    0    0 -0.32284071093E+01 -0.86645090151E+00  0.18090838822E+03  0.18093926682E+03  0.00000000000E+00 0.  1.
         11    1    1    2    0    0 -0.31377228493E+00  0.16628409821E+01 -0.81086314148E+02  0.81103969295E+02  0.00000000000E+00 0. -1.
        -15    1    1    2    0    0 -0.42782147258E+01  0.59899405209E+01 -0.81385471098E+02  0.81736987610E+02  0.17770000000E+01 0. -1.
         15    1    1    2    0    0  0.78203941200E+01 -0.67863306016E+01 -0.18436602969E+02  0.21219776278E+02  0.17770000000E+01 0.  1.
</event>
<event>
 6    1  0.1298204E-002  0.1837797E+03  0.7546771E-02  0.1067441E+00
        -11   -1    0    0    0    0  0.00000000000E+00  0.00000000000E+00  0.18250000000E+03  0.18250000000E+03  0.00000000000E+00 0.  1.
         11   -1    0    0    0    0 -0.00000000000E+00 -0.00000000000E+00 -0.18250000000E+03  0.18250000000E+03  0.00000000000E+00 0. -1.
        -11    1    1    2    0    0  0.23518604616E+01 -0.15928888087E+01  0.18119805770E+03  0.18122032076E+03  0.00000000000E+00 0.  1.
         11    1    1    2    0    0 -0.42474938743E+01 -0.20180328194E+01 -0.91981606361E+02  0.92101734888E+02  0.00000000000E+00 0. -1.
        -15    1    1    2    0    0 -0.40133931456E+01 -0.39332395453E+01 -0.68826857116E+02  0.69078735421E+02  0.17770000000E+01 0. -1.
         15    1    1    2    0    0  0.59090265584E+01  0.75441611735E+01 -0.20389594224E+02  0.22599208930E+02  0.17770000000E+01 0.  1.
</event>
<event>
 6    1  0.1298204E-002  0.1839681E+03  0.7546771E-02  0.1067292E+00
        -11   -1    0    0    0    0  0.00000000000E+00  0.00000000000E+00  0.18250000000E+03  0.18250000000E+03  0.00000000000E+00 0.  1.
         11   -1    0    0    0    0 -0.00000000000E+00 -0.00000000000E+00 -0.18250000000E+03  0.18250000000E+03  0.00000000000E+00 0.  1.
        -11    1    1    2    0    0 -0.72527979494E+00 -0.23956472125E+01  0.11681896396E+03  0.11684577655E+03  0.00000000000E+00 0.  1.
         11    1    1    2    0    0 -0.81362242023E+01  0.37125849799E+01 -0.18081088520E+03  0.18103192436E+03  0.00000000000E+00 0.  1.
        -15    1    1    2    0    0  0.74521011368E+01  0.58283803438E+01  0.16999979342E+02  0.19536142286E+02  0.17770000000E+01 0. -1.
         15    1    1    2    0    0  0.14094028605E+01 -0.71453181112E+01  0.46991941895E+02  0.47586156804E+02  0.17770000000E+01 0.  1.
</event>
<event>
 6    1  0.1298204E-002  0.1835722E+03  0.7546771E-02  0.1067605E+00
        -11   -1    0    0    0    0  0.00000000000E+00  0.00000000000E+00  0.18250000000E+03  0.18250000000E+03  0.00000000000E+00 0.  1.
         11   -1    0    0    0    0 -0.00000000000E+00 -0.00000000000E+00 -0.18250000000E+03  0.18250000000E+03  0.00000000000E+00 0.  1.
        -11    1    1    2    0    0 -0.38532940206E+01 -0.20819605303E+01  0.17511199765E+03  0.17516676099E+03  0.00000000000E+00 0.  1.
         11    1    1    2    0    0 -0.41168654661E+01 -0.54647493950E+01 -0.51376361765E+01  0.85561307083E+01  0.00000000000E+00 0.  1.
        -15    1    1    2    0    0 -0.83613363159E+01  0.27327223850E+02 -0.42567017397E+02  0.51301050744E+02  0.17770000000E+01 0. -1.
         15    1    1    2    0    0  0.16331495803E+02 -0.19780513925E+02 -0.12740734407E+03  0.12997605756E+03  0.17770000000E+01 0.  1.
</event>
<event>
 6    1  0.1298204E-002  0.1884838E+03  0.7546771E-02  0.1063789E+00
        -11   -1    0    0    0    0  0.00000000000E+00  0.00000000000E+00  0.18250000000E+03  0.18250000000E+03  0.00000000000E+00 0.  1.
         11   -1    0    0    0    0 -0.00000000000E+00 -0.00000000000E+00 -0.18250000000E+03  0.18250000000E+03  0.00000000000E+00 0. -1.
        -11    1    1    2    0    0 -0.28584091579E+01 -0.50336539399E+01  0.17642121037E+03  0.17651615122E+03  0.00000000000E+00 0.  1.
         11    1    1    2    0    0 -0.12185111883E+00  0.25212076964E+01 -0.12834785795E+03  0.12837267613E+03  0.00000000000E+00 0. -1.
        -15    1    1    2    0    0 -0.67806361134E-01 -0.35481524819E+01 -0.51947851406E+02  0.52099241630E+02  0.17770000000E+01 0. -1.
         15    1    1    2    0    0  0.30480666379E+01  0.60605987254E+01  0.38744989921E+01  0.80119310143E+01  0.17770000000E+01 0. -1.
</event>
<event>
 6    1  0.1298204E-002  0.1898984E+03  0.7546771E-02  0.1062714E+00
        -11   -1    0    0    0    0  0.00000000000E+00  0.00000000000E+00  0.18250000000E+03  0.18250000000E+03  0.00000000000E+00 0.  1.
         11   -1    0    0    0    0 -0.00000000000E+00 -0.00000000000E+00 -0.18250000000E+03  0.18250000000E+03  0.00000000000E+00 0.  1.
        -11    1    1    2    0    0 -0.37870660772E+01  0.26479331813E+01  0.17504063957E+03  0.17510162455E+03  0.00000000000E+00 0.  1.
         11    1    1    2    0    0 -0.97543649324E+00 -0.10444101982E+02 -0.13499439928E+03  0.13540132415E+03  0.00000000000E+00 0.  1.
        -15    1    1    2    0    0 -0.11341921312E+02  0.76925115181E+01 -0.31121816407E+01  0.14165356193E+02  0.17770000000E+01 0. -1.
         15    1    1    2    0    0  0.16104423882E+02  0.10365728241E+00 -0.36934058646E+02  0.40331695111E+02  0.17770000000E+01 0.  1.
</event>
<event>
 6    1  0.1298204E-002  0.1869582E+03  0.7546771E-02  0.1064960E+00
        -11   -1    0    0    0    0  0.00000000000E+00  0.00000000000E+00  0.18250000000E+03  0.18250000000E+03  0.00000000000E+00 0. -1.
         11   -1    0    0    0    0 -0.00000000000E+00 -0.00000000000E+00 -0.18250000000E+03  0.18250000000E+03  0.00000000000E+00 0. -1.
        -11    1    1    2    0    0  0.27917251020E+01 -0.70786198752E+01  0.15872153853E+03  0.15890383060E+03  0.00000000000E+00 0. -1.
         11    1    1    2    0    0  0.73242625794E+00  0.26994274833E+01 -0.17801982666E+03  0.17804179858E+03  0.00000000000E+00 0. -1.
        -15    1    1    2    0    0 -0.34471627800E+01  0.24358800767E+01 -0.30815747039E+01  0.55199886445E+01  0.17770000000E+01 0.  1.
         15    1    1    2    0    0 -0.76988579942E-01  0.19433123153E+01  0.22379862841E+02  0.22534382170E+02  0.17770000000E+01 0. -1.
</event>
<event>
 6    1  0.1298204E-002  0.1882180E+03  0.7546771E-02  0.1063992E+00
        -11   -1    0    0    0    0  0.00000000000E+00  0.00000000000E+00  0.18250000000E+03  0.18250000000E+03  0.00000000000E+00 0.  1.
         11   -1    0    0    0    0 -0.00000000000E+00 -0.00000000000E+00 -0.18250000000E+03  0.18250000000E+03  0.00000000000E+00 0.  1.
        -11    1    1    2    0    0 -0.33234378959E+01 -0.88660665628E+00  0.17674854295E+03  0.17678200912E+03  0.00000000000E+00 0.  1.
         11    1    1    2    0    0 -0.14795911922E+01 -0.50487333370E+00 -0.79977767793E+02  0.79993046125E+02  0.00000000000E+00 0.  1.
        -15    1    1    2    0    0 -0.73900131127E+01  0.66770782206E+01 -0.93988762929E+02  0.94531692851E+02  0.17770000000E+01 0.  1.
         15    1    1    2    0    0  0.12193042201E+02 -0.52855982307E+01 -0.27820122307E+01  0.13693251908E+02  0.17770000000E+01 0. -1.
</event>
<event>
 6    1  0.1298204E-002  0.1831498E+03  0.7546771E-02  0.1067939E+00
        -11   -1    0    0    0    0  0.00000000000E+00  0.00000000000E+00  0.18250000000E+03  0.18250000000E+03  0.00000000000E+00 0. -1.
         11   -1    0    0    0    0 -0.00000000000E+00 -0.00000000000E+00 -0.18250000000E+03  0.18250000000E+03  0.00000000000E+00 0.  1.
        -11    1    1    2    0    0 -0.52091413003E+01 -0.28024180112E+01  0.13504363135E+03  0.13517311518E+03  0.00000000000E+00 0. -1.
         11    1    1    2    0    0  0.36215641990E+01 -0.57088231647E+01 -0.18172444626E+03  0.18185016018E+03  0.00000000000E+00 0.  1.
        -15    1    1    2    0    0 -0.74025486439E+00  0.12628694958E+01  0.42672592892E+01  0.48487160640E+01  0.17770000000E+01 0.  1.
         15    1    1    2    0    0  0.23278319657E+01  0.72483716801E+01  0.42413555625E+02  0.43128008572E+02  0.17770000000E+01 0. -1.
</event>
<event>
 6    1  0.1298204E-002  0.1832472E+03  0.7546771E-02  0.1067862E+00
        -11   -1    0    0    0    0  0.00000000000E+00  0.00000000000E+00  0.18250000000E+03  0.18250000000E+03  0.00000000000E+00 0. -1.
         11   -1    0    0    0    0 -0.00000000000E+00 -0.00000000000E+00 -0.18250000000E+03  0.18250000000E+03  0.00000000000E+00 0. -1.
        -11    1    1    2    0    0 -0.45065090087E+00 -0.31254885336E+00  0.32578909434E+02  0.32583525177E+02  0.00000000000E+00 0. -1.
         11    1    1    2    0    0  0.82272561239E+00  0.81954350134E+01 -0.18156607795E+03  0.18175280657E+03  0.00000000000E+00 0. -1.
        -15    1    1    2    0    0  0.28049266009E+00 -0.16704954179E+01  0.13706829257E+03  0.13709027605E+03  0.17770000000E+01 0. -1.
         15    1    1    2    0    0 -0.65256737161E+00 -0.62123907421E+01  0.11918875951E+02  0.13573392201E+02  0.17770000000E+01 0.  1.
</event>
<event>
 6    1  0.1298204E-002  0.2035374E+03  0.7546771E-02  0.1052842E+00
        -11   -1    0    0    0    0  0.00000000000E+00  0.00000000000E+00  0.18250000000E+03  0.18250000000E+03  0.00000000000E+00 0.  1.
         11   -1    0    0    0    0 -0.00000000000E+00 -0.00000000000E+00 -0.18250000000E+03  0.18250000000E+03  0.00000000000E+00 0.  1.
        -11    1    1    2    0    0 -0.69346876264E+01  0.79377296497E+01  0.13361339928E+03  0.13402849664E+03  0.00000000000E+00 0.  1.
         11    1    1    2    0    0 -0.19444674833E+01 -0.68984218060E+01 -0.16130347666E+03  0.16146262961E+03  0.00000000000E+00 0.  1.
        -15    1    1    2    0    0  0.69662702623E+01 -0.97570499968E+01  0.46799415500E+02  0.48343272191E+02  0.17770000000E+01 0. -1.
         15    1    1    2    0    0  0.19128848474E+01  0.87177421531E+01 -0.19109338122E+02  0.21165601554E+02  0.17770000000E+01 0. -1.
</event>
<event>
 6    1  0.1298204E-002  0.1921116E+03  0.7546771E-02  0.1061051E+00
        -11   -1    0    0    0    0  0.00000000000E+00  0.00000000000E+00  0.18250000000E+03  0.18250000000E+03  0.00000000000E+00 0. -1.
         11   -1    0    0    0    0 -0.00000000000E+00 -0.00000000000E+00 -0.18250000000E+03  0.18250000000E+03  0.00000000000E+00 0.  1.
        -11    1    1    2    0    0 -0.32551247216E+01  0.43779003522E+01  0.12823937794E+03  0.12835536570E+03  0.00000000000E+00 0. -1.
         11    1    1    2    0    0 -0.28230214666E+00 -0.23962742177E+01 -0.17287152867E+03  0.17288836643E+03  0.00000000000E+00 0.  1.
        -15    1    1    2    0    0  0.25731888702E+01 -0.33834884739E+01  0.53936108362E+02  0.54132530048E+02  0.17770000000E+01 0. -1.
         15    1    1    2    0    0  0.96423799809E+00  0.14018623394E+01 -0.93039576362E+01  0.96237378202E+01  0.17770000000E+01 0.  1.
</event>
<event>
 6    1  0.1298204E-002  0.1828679E+03  0.7546771E-02  0.1068162E+00
        -11   -1    0    0    0    0  0.00000000000E+00  0.00000000000E+00  0.18250000000E+03  0.18250000000E+03  0.00000000000E+00 0.  1.
         11   -1    0    0    0    0 -0.00000000000E+00 -0.00000000000E+00 -0.18250000000E+03  0.18250000000E+03  0.00000000000E+00 0.  1.
        -11    1    1    2    0    0  0.57535180763E+00 -0.33433254962E+01  0.18210048223E+03  0.18213207977E+03  0.00000000000E+00 0.  1.
         11    1    1    2    0    0  0.14072125115E+01  0.18624398629E+00 -0.43633893897E+02  0.43656976882E+02  0.00000000000E+00 0.  1.
        -15    1    1    2    0    0 -0.11960065663E+01  0.19160498123E+01 -0.53387562828E+01  0.60631449131E+01  0.17770000000E+01 0. -1.
         15    1    1    2    0    0 -0.78655775286E+00  0.12410316976E+01 -0.13312783205E+03  0.13314779843E+03  0.17770000000E+01 0.  1.
</event>
<event>
 6    1  0.1298204E-002  0.1828544E+03  0.7546771E-02  0.1068173E+00
        -11   -1    0    0    0    0  0.00000000000E+00  0.00000000000E+00  0.18250000000E+03  0.18250000000E+03  0.00000000000E+00 0.  1.
         11   -1    0    0    0    0 -0.00000000000E+00 -0.00000000000E+00 -0.18250000000E+03  0.18250000000E+03  0.00000000000E+00 0. -1.
        -11    1    1    2    0    0 -0.40411348791E+01  0.50514871960E+01  0.18203069401E+03  0.18214560619E+03  0.00000000000E+00 0.  1.
         11    1    1    2    0    0 -0.44046126034E+00  0.28227884282E+01 -0.85286312837E+02  0.85334150831E+02  0.00000000000E+00 0. -1.
        -15    1    1    2    0    0  0.38423297060E+01 -0.89087925318E+01 -0.70336906286E+02  0.71025123702E+02  0.17770000000E+01 0. -1.
         15    1    1    2    0    0  0.63926643347E+00  0.10345169076E+01 -0.26407474883E+02  0.26495119277E+02  0.17770000000E+01 0.  1.
</event>
<event>
 6    1  0.1298204E-002  0.1827798E+03  0.7546771E-02  0.1068232E+00
        -11   -1    0    0    0    0  0.00000000000E+00  0.00000000000E+00  0.18250000000E+03  0.18250000000E+03  0.00000000000E+00 0.  1.
         11   -1    0    0    0    0 -0.00000000000E+00 -0.00000000000E+00 -0.18250000000E+03  0.18250000000E+03  0.00000000000E+00 0. -1.
        -11    1    1    2    0    0 -0.25803667265E+01  0.55888533023E+01  0.18211614680E+03  0.18222015394E+03  0.00000000000E+00 0.  1.
         11    1    1    2    0    0  0.12748895773E+01 -0.14163036992E+01 -0.80638540737E+02  0.80661053252E+02  0.00000000000E+00 0. -1.
        -15    1    1    2    0    0 -0.42720286130E+00  0.17021489715E+01 -0.71091830450E+01  0.75351195062E+01  0.17770000000E+01 0. -1.
         15    1    1    2    0    0  0.17326800105E+01 -0.58746985746E+01 -0.94368423022E+02  0.94583673306E+02  0.17770000000E+01 0. -1.
</event>
<event>
 6    1  0.1298204E-002  0.1853011E+03  0.7546771E-02  0.1066247E+00
        -11   -1    0    0    0    0  0.00000000000E+00  0.00000000000E+00  0.18250000000E+03  0.18250000000E+03  0.00000000000E+00 0. -1.
         11   -1    0    0    0    0 -0.00000000000E+00 -0.00000000000E+00 -0.18250000000E+03  0.18250000000E+03  0.00000000000E+00 0. -1.
        -11    1    1    2    0    0  0.52175179260E+01 -0.12295869212E+01  0.17511055353E+03  0.17519258070E+03  0.00000000000E+00 0. -1.
         11    1    1    2    0    0 -0.18587217204E+01 -0.32937389136E+01 -0.17965907771E+03  0.17969888082E+03  0.00000000000E+00 0. -1.
        -15    1    1    2    0    0 -0.32677345220E+01  0.39987579899E+01  0.57248198429E+01  0.79119811426E+01  0.17770000000E+01 0.  1.
         15    1    1    2    0    0 -0.91061683598E-01  0.52456784493E+00 -0.11762956575E+01  0.21965573355E+01  0.17770000000E+01 0.  1.
</event>
<event>
 6    1  0.1298204E-002  0.1829835E+03  0.7546771E-02  0.1068071E+00
        -11   -1    0    0    0    0  0.00000000000E+00  0.00000000000E+00  0.18250000000E+03  0.18250000000E+03  0.00000000000E+00 0. -1.
         11   -1    0    0    0    0 -0.00000000000E+00 -0.00000000000E+00 -0.18250000000E+03  0.18250000000E+03  0.00000000000E+00 0. -1.
        -11    1    1    2    0    0 -0.14138693222E+01  0.66140929740E+01  0.18189074933E+03  0.18201645515E+03  0.00000000000E+00 0. -1.
         11    1    1    2    0    0 -0.13560752670E+01 -0.21427191927E+00 -0.86002594301E+02  0.86013551718E+02  0.00000000000E+00 0. -1.
        -15    1    1    2    0    0 -0.28116958703E+01 -0.17071512972E+01 -0.88297793828E+01  0.95886772898E+01  0.17770000000E+01 0.  1.
         15    1    1    2    0    0  0.55816404595E+01 -0.46926697576E+01 -0.87058375646E+02  0.87381315845E+02  0.17770000000E+01 0. -1.
</event>
<event>
 6    1  0.1298204E-002  0.1834072E+03  0.7546771E-02  0.1067735E+00
        -11   -1    0    0    0    0  0.00000000000E+00  0.00000000000E+00  0.18250000000E+03  0.18250000000E+03  0.00000000000E+00 0. -1.
         11   -1    0    0    0    0 -0.00000000000E+00 -0.00000000000E+00 -0.18250000000E+03  0.18250000000E+03  0.00000000000E+00 0. -1.
        -11    1    1    2    0    0  0.18110969962E+01 -0.26123877526E+01  0.18156494200E+03  0.18159276639E+03  0.00000000000E+00 0. -1.
         11    1    1    2    0    0 -0.27228246732E+01  0.45682829642E+00 -0.17029105071E+03  0.17031342994E+03  0.00000000000E+00 0. -1.
        -15    1    1    2    0    0 -0.16086241161E+01  0.25456315924E+01 -0.67969227022E+01  0.76435462301E+01  0.17770000000E+01 0.  1.
         15    1    1    2    0    0  0.25203517931E+01 -0.39007213621E+00 -0.44769685912E+01  0.54502574433E+01  0.17770000000E+01 0. -1.
</event>
<event>
 6    1  0.1298204E-002  0.1921970E+03  0.7546771E-02  0.1060988E+00
        -11   -1    0    0    0    0  0.00000000000E+00  0.00000000000E+00  0.18250000000E+03  0.18250000000E+03  0.00000000000E+00 0.  1.
         11   -1    0    0    0    0 -0.00000000000E+00 -0.00000000000E+00 -0.18250000000E+03  0.18250000000E+03  0.00000000000E+00 0.  1.
        -11    1    1    2    0    0 -0.77138910732E+00  0.40620675844E-01  0.44662760866E+02  0.44669440329E+02  0.00000000000E+00 0.  1.
         11    1    1    2    0    0  0.13290228396E+00 -0.87561319528E+01 -0.17258097794E+03  0.17280301345E+03  0.00000000000E+00 0.  1.
        -15    1    1    2    0    0  0.15755621323E+02  0.41701335788E+01 -0.21123353022E+01  0.16530254286E+02  0.17770000000E+01 0.  1.
         15    1    1    2    0    0 -0.15117134500E+02  0.45453776982E+01  0.13003055238E+03  0.13099729194E+03  0.17770000000E+01 0. -1.
</event>
<event>
 6    1  0.1298204E-002  0.1832804E+03  0.7546771E-02  0.1067835E+00
        -11   -1    0    0    0    0  0.00000000000E+00  0.00000000000E+00  0.18250000000E+03  0.18250000000E+03  0.00000000000E+00 0.  1.
         11   -1    0    0    0    0 -0.00000000000E+00 -0.00000000000E+00 -0.18250000000E+03  0.18250000000E+03  0.00000000000E+00 0.  1.
        -11    1    1    2    0    0 -0.53766389839E+01  0.27673293209E+00  0.18163985369E+03  0.18171962270E+03  0.00000000000E+00 0.  1.
         11    1    1    2    0    0  0.53115298146E+01 -0.64221549349E+00 -0.15755314769E+03  0.15764396321E+03  0.00000000000E+00 0.  1.
        -15    1    1    2    0    0 -0.28545071965E+00 -0.34301937139E+01 -0.66158621204E+01  0.76664901764E+01  0.17770000000E+01 0. -1.
         15    1    1    2    0    0  0.35055988895E+00  0.37956762753E+01 -0.17470843879E+02  0.17969923914E+02  0.17770000000E+01 0.  1.
</event>
<event>
 6    1  0.1298204E-002  0.1831050E+03  0.7546771E-02  0.1067974E+00
        -11   -1    0    0    0    0  0.00000000000E+00  0.00000000000E+00  0.18250000000E+03  0.18250000000E+03  0.00000000000E+00 0. -1.
         11   -1    0    0    0    0 -0.00000000000E+00 -0.00000000000E+00 -0.18250000000E+03  0.18250000000E+03  0.00000000000E+00 0. -1.
        -11    1    1    2    0    0 -0.13374290794E+01 -0.27611815552E+01  0.14140117113E+03  0.14143445137E+03  0.00000000000E+00 0. -1.
         11    1    1    2    0    0  0.26617514408E+01 -0.12698293844E+00 -0.18187545763E+03  0.18189497830E+03  0.00000000000E+00 0. -1.
        -15    1    1    2    0    0 -0.34980914588E+01  0.24386231130E+01  0.94755144644E+01  0.10541661629E+02  0.17770000000E+01 0. -1.
         15    1    1    2    0    0  0.21737690975E+01  0.44954138072E+00  0.30998772037E+02  0.31128908692E+02  0.17770000000E+01 0.  1.
</event>
<event>
 6    1  0.1298204E-002  0.1849327E+03  0.7546771E-02  0.1066535E+00
        -11   -1    0    0    0    0  0.00000000000E+00  0.00000000000E+00  0.18250000000E+03  0.18250000000E+03  0.00000000000E+00 0. -1.
         11   -1    0    0    0    0 -0.00000000000E+00 -0.00000000000E+00 -0.18250000000E+03  0.18250000000E+03  0.00000000000E+00 0.  1.
        -11    1    1    2    0    0 -0.19786944693E+01  0.34845103857E+01  0.18002275001E+03  0.18006734175E+03  0.00000000000E+00 0. -1.
         11    1    1    2    0    0  0.22866026134E+01  0.38253463006E+01 -0.17380047648E+03  0.17385760682E+03  0.00000000000E+00 0.  1.
        -15    1    1    2    0    0 -0.70737609618E+00 -0.25703346013E+01 -0.21732494930E+00  0.32112240716E+01  0.17770000000E+01 0. -1.
         15    1    1    2    0    0  0.39946795200E+00 -0.47395220850E+01 -0.60049485835E+01  0.78638273588E+01  0.17770000000E+01 0.  1.
</event>
<event>
 6    1  0.1298204E-002  0.1829565E+03  0.7546771E-02  0.1068092E+00
        -11   -1    0    0    0    0  0.00000000000E+00  0.00000000000E+00  0.18250000000E+03  0.18250000000E+03  0.00000000000E+00 0.  1.
         11   -1    0    0    0    0 -0.00000000000E+00 -0.00000000000E+00 -0.18250000000E+03  0.18250000000E+03  0.00000000000E+00 0. -1.
        -11    1    1    2    0    0  0.16781537756E+01 -0.22609711390E+01  0.57064882893E+02  0.57134307121E+02  0.00000000000E+00 0.  1.
         11    1    1    2    0    0  0.97748069307E+00 -0.62405243183E+01 -0.18193387609E+03  0.18204349723E+03  0.00000000000E+00 0. -1.
        -15    1    1    2    0    0 -0.37609822783E+01  0.59832540432E+01  0.29143949067E+02  0.30041168634E+02  0.17770000000E+01 0.  1.
         15    1    1    2    0    0  0.11053478096E+01  0.25182414140E+01  0.95725044133E+02  0.95781027019E+02  0.17770000000E+01 0. -1.
</event>
<event>
 6    1  0.1298204E-002  0.1869320E+03  0.7546771E-02  0.1064981E+00
        -11   -1    0    0    0    0  0.00000000000E+00  0.00000000000E+00  0.18250000000E+03  0.18250000000E+03  0.00000000000E+00 0.  1.
         11   -1    0    0    0    0 -0.00000000000E+00 -0.00000000000E+00 -0.18250000000E+03  0.18250000000E+03  0.00000000000E+00 0.  1.
        -11    1    1    2    0    0  0.15709630312E+01  0.10788338785E+00  0.11284138983E+03  0.11285237623E+03  0.00000000000E+00 0.  1.
         11    1    1    2    0    0 -0.62691351656E+00 -0.67578770172E+01 -0.17793863258E+03  0.17806801759E+03  0.00000000000E+00 0.  1.
        -15    1    1    2    0    0  0.91521827438E+01  0.10456573537E+02  0.60696033508E+02  0.62291801962E+02  0.17770000000E+01 0.  1.
         15    1    1    2    0    0 -0.10096232258E+02 -0.38065799081E+01  0.44012092476E+01  0.11787804217E+02  0.17770000000E+01 0. -1.
</event>
<event>
 6    1  0.1298204E-002  0.1848883E+03  0.7546771E-02  0.1066569E+00
        -11   -1    0    0    0    0  0.00000000000E+00  0.00000000000E+00  0.18250000000E+03  0.18250000000E+03  0.00000000000E+00 0.  1.
         11   -1    0    0    0    0 -0.00000000000E+00 -0.00000000000E+00 -0.18250000000E+03  0.18250000000E+03  0.00000000000E+00 0.  1.
        -11    1    1    2    0    0  0.18150400057E+01 -0.38022701840E+01  0.16902336047E+03  0.16907586467E+03  0.00000000000E+00 0.  1.
         11    1    1    2    0    0 -0.34793093606E+01 -0.21242593497E+01 -0.18006556110E+03  0.18011169969E+03  0.00000000000E+00 0.  1.
        -15    1    1    2    0    0 -0.99748297919E+00 -0.39706223871E+00  0.77029449142E+01  0.79778267759E+01  0.17770000000E+01 0. -1.
         15    1    1    2    0    0  0.26617523342E+01  0.63235917724E+01  0.33392557121E+01  0.78346088673E+01  0.17770000000E+01 0.  1.
</event>
<event>
 6    1  0.1298204E-002  0.1851832E+03  0.7546771E-02  0.1066339E+00
        -11   -1    0    0    0    0  0.00000000000E+00  0.00000000000E+00  0.18250000000E+03  0.18250000000E+03  0.00000000000E+00 0. -1.
         11   -1    0    0    0    0 -0.00000000000E+00 -0.00000000000E+00 -0.18250000000E+03  0.18250000000E+03  0.00000000000E+00 0.  1.
        -11    1    1    2    0    0 -0.54658059161E+01  0.48140838378E+01  0.17966927263E+03  0.17981684561E+03  0.00000000000E+00 0. -1.
         11    1    1    2    0    0  0.23050215994E+01 -0.59455594556E+00 -0.12301499341E+03  0.12303802350E+03  0.00000000000E+00 0.  1.
        -15    1    1    2    0    0  0.46542534038E+01 -0.14221423134E+01 -0.58028256832E+02  0.58259084128E+02  0.17770000000E+01 0. -1.
         15    1    1    2    0    0 -0.14934690871E+01 -0.27973855788E+01  0.13739776161E+01  0.38860467677E+01  0.17770000000E+01 0.  1.
</event>
<event>
 6    1  0.1298204E-002  0.1872177E+03  0.7546771E-02  0.1064760E+00
        -11   -1    0    0    0    0  0.00000000000E+00  0.00000000000E+00  0.18250000000E+03  0.18250000000E+03  0.00000000000E+00 0. -1.
         11   -1    0    0    0    0 -0.00000000000E+00 -0.00000000000E+00 -0.18250000000E+03  0.18250000000E+03  0.00000000000E+00 0.  1.
        -11    1    1    2    0    0  0.55399205090E+00  0.36989915141E+01  0.17774291136E+03  0.17778226003E+03  0.00000000000E+00 0. -1.
         11    1    1    2    0    0 -0.10446837872E+01  0.24815874661E+01 -0.16510873021E+03  0.16513068289E+03  0.00000000000E+00 0.  1.
        -15    1    1    2    0    0 -0.49631464876E+01 -0.79932943526E+01 -0.12900302885E+02  0.16065525861E+02  0.17770000000E+01 0.  1.
         15    1    1    2    0    0  0.54538382239E+01  0.18127153723E+01  0.26612173796E+00  0.60215312149E+01  0.17770000000E+01 0. -1.
</event>
<event>
 6    1  0.1298204E-002  0.1839419E+03  0.7546771E-02  0.1067313E+00
        -11   -1    0    0    0    0  0.00000000000E+00  0.00000000000E+00  0.18250000000E+03  0.18250000000E+03  0.00000000000E+00 0. -1.
         11   -1    0    0    0    0 -0.00000000000E+00 -0.00000000000E+00 -0.18250000000E+03  0.18250000000E+03  0.00000000000E+00 0.  1.
        -11    1    1    2    0    0 -0.21839444454E+01  0.94523844765E+00  0.16711982179E+03  0.16713676413E+03  0.00000000000E+00 0. -1.
         11    1    1    2    0    0 -0.56855975665E+00 -0.32069946365E+01 -0.18102879102E+03  0.18105808807E+03  0.00000000000E+00 0.  1.
        -15    1    1    2    0    0  0.36327170285E+01 -0.10050677971E+01  0.11633749402E+02  0.12357534075E+02  0.17770000000E+01 0.  1.
         15    1    1    2    0    0 -0.88021282648E+00  0.32668239860E+01  0.22752198344E+01  0.44476137277E+01  0.17770000000E+01 0. -1.
</event>
<event>
 6    1  0.1298204E-002  0.1703469E+03  0.7546771E-02  0.1078562E+00
        -11   -1    0    0    0    0  0.00000000000E+00  0.00000000000E+00  0.18250000000E+03  0.18250000000E+03  0.00000000000E+00 0.  1.
         11   -1    0    0    0    0 -0.00000000000E+00 -0.00000000000E+00 -0.18250000000E+03  0.18250000000E+03  0.00000000000E+00 0.  1.
        -11    1    1    2    0    0  0.21730700051E+01  0.12802294517E+01  0.17559361452E+03  0.17561172706E+03  0.00000000000E+00 0.  1.
         11    1    1    2    0    0 -0.13546819750E+02  0.92680172483E+01 -0.16479068329E+03  0.16560610426E+03  0.00000000000E+00 0.  1.
        -15    1    1    2    0    0  0.14219084906E+02 -0.79215100281E+01 -0.10623084288E+02  0.19517693139E+02  0.17770000000E+01 0.  1.
         15    1    1    2    0    0 -0.28453351609E+01 -0.26267366720E+01 -0.17984693713E+00  0.42644755413E+01  0.17770000000E+01 0.  1.
</event>
<event>
 6    1  0.1298204E-002  0.1831152E+03  0.7546771E-02  0.1067966E+00
        -11   -1    0    0    0    0  0.00000000000E+00  0.00000000000E+00  0.18250000000E+03  0.18250000000E+03  0.00000000000E+00 0.  1.
         11   -1    0    0    0    0 -0.00000000000E+00 -0.00000000000E+00 -0.18250000000E+03  0.18250000000E+03  0.00000000000E+00 0.  1.
        -11    1    1    2    0    0  0.11187970586E+01 -0.34040140292E+01  0.18184947288E+03  0.18188477068E+03  0.00000000000E+00 0.  1.
         11    1    1    2    0    0 -0.24110301932E+00  0.46334887969E+01 -0.11187271272E+03  0.11196888496E+03  0.00000000000E+00 0.  1.
        -15    1    1    2    0    0  0.14412563503E+01 -0.17661896245E+01 -0.32335784488E+01  0.43370962915E+01  0.17770000000E+01 0. -1.
         15    1    1    2    0    0 -0.23189503896E+01  0.53671485678E+00 -0.66743181713E+02  0.66809248072E+02  0.17770000000E+01 0. -1.
</event>
<event>
 6    1  0.1298204E-002  0.1830388E+03  0.7546771E-02  0.1068027E+00
        -11   -1    0    0    0    0  0.00000000000E+00  0.00000000000E+00  0.18250000000E+03  0.18250000000E+03  0.00000000000E+00 0.  1.
         11   -1    0    0    0    0 -0.00000000000E+00 -0.00000000000E+00 -0.18250000000E+03  0.18250000000E+03  0.00000000000E+00 0. -1.
        -11    1    1    2    0    0 -0.19429281686E+01 -0.22670288254E+01  0.85387366176E+02  0.85439549929E+02  0.00000000000E+00 0.  1.
         11    1    1    2    0    0 -0.27377483017E+01  0.14851451391E+01 -0.18193455713E+03  0.18196121564E+03  0.00000000000E+00 0. -1.
        -15    1    1    2    0    0  0.89335905871E+01 -0.36687257224E+00  0.73833986086E+02  0.74394615844E+02  0.17770000000E+01 0.  1.
         15    1    1    2    0    0 -0.42529141168E+01  0.11487562585E+01  0.22713204864E+02  0.23204618584E+02  0.17770000000E+01 0.  1.
</event>
<event>
 6    1  0.1298204E-002  0.1863583E+03  0.7546771E-02  0.1065424E+00
        -11   -1    0    0    0    0  0.00000000000E+00  0.00000000000E+00  0.18250000000E+03  0.18250000000E+03  0.00000000000E+00 0.  1.
         11   -1    0    0    0    0 -0.00000000000E+00 -0.00000000000E+00 -0.18250000000E+03  0.18250000000E+03  0.00000000000E+00 0.  1.
        -11    1    1    2    0    0  0.10151789470E+02 -0.39573655056E+01  0.87563534753E+02  0.88238836062E+02  0.00000000000E+00 0.  1.
         11    1    1    2    0    0 -0.14475253738E+02  0.12330566858E+02 -0.17762681709E+03  0.17864171405E+03  0.00000000000E+00 0.  1.
        -15    1    1    2    0    0  0.16251280035E+02  0.83187826909E+01  0.42125381197E+02  0.45945747553E+02  0.17770000000E+01 0. -1.
         15    1    1    2    0    0 -0.11927815768E+02 -0.16691984043E+02  0.47937901141E+02  0.52173702333E+02  0.17770000000E+01 0.  1.
</event>
<event>
 6    1  0.1298204E-002  0.1850473E+03  0.7546771E-02  0.1066445E+00
        -11   -1    0    0    0    0  0.00000000000E+00  0.00000000000E+00  0.18250000000E+03  0.18250000000E+03  0.00000000000E+00 0.  1.
         11   -1    0    0    0    0 -0.00000000000E+00 -0.00000000000E+00 -0.18250000000E+03  0.18250000000E+03  0.00000000000E+00 0.  1.
        -11    1    1    2    0    0  0.55728808710E+01  0.61818411392E+01  0.14485578871E+03  0.14509469902E+03  0.00000000000E+00 0.  1.
         11    1    1    2    0    0  0.75253090514E+00 -0.30308179272E+01 -0.17992562757E+03  0.17995272606E+03  0.00000000000E+00 0.  1.
        -15    1    1    2    0    0 -0.65025049944E+01  0.53907498520E+01  0.90398628602E+01  0.12498784129E+02  0.17770000000E+01 0. -1.
         15    1    1    2    0    0  0.17709321827E+00 -0.85417730640E+01  0.26029976001E+02  0.27453790789E+02  0.17770000000E+01 0.  1.
</event>
<event>
 6    1  0.1298204E-002  0.1832336E+03  0.7546771E-02  0.1067872E+00
        -11   -1    0    0    0    0  0.00000000000E+00  0.00000000000E+00  0.18250000000E+03  0.18250000000E+03  0.00000000000E+00 0. -1.
         11   -1    0    0    0    0 -0.00000000000E+00 -0.00000000000E+00 -0.18250000000E+03  0.18250000000E+03  0.00000000000E+00 0.  1.
        -11    1    1    2    0    0  0.91640428810E+00  0.78632268837E+01  0.18159391518E+03  0.18176638898E+03  0.00000000000E+00 0. -1.
         11    1    1    2    0    0  0.28473166723E+01  0.17128334166E+01 -0.97281254799E+02  0.97337986140E+02  0.00000000000E+00 0.  1.
        -15    1    1    2    0    0 -0.30329575654E+01 -0.56281592235E+01 -0.14513667409E+02  0.15958674083E+02  0.17770000000E+01 0. -1.
         15    1    1    2    0    0 -0.73076339503E+00 -0.39479010768E+01 -0.69798992970E+02  0.69936950796E+02  0.17770000000E+01 0.  1.
</event>
<event>
 6    1  0.1298204E-002  0.1828851E+03  0.7546771E-02  0.1068149E+00
        -11   -1    0    0    0    0  0.00000000000E+00  0.00000000000E+00  0.18250000000E+03  0.18250000000E+03  0.00000000000E+00 0. -1.
         11   -1    0    0    0    0 -0.00000000000E+00 -0.00000000000E+00 -0.18250000000E+03  0.18250000000E+03  0.00000000000E+00 0.  1.
        -11    1    1    2    0    0 -0.13344903473E+01 -0.15267996423E+01  0.65053386913E+02  0.65084983909E+02  0.00000000000E+00 0. -1.
         11    1    1    2    0    0 -0.33922205339E+01  0.63266645416E+01 -0.18197335728E+03  0.18211489946E+03  0.00000000000E+00 0.  1.
        -15    1    1    2    0    0  0.52204122503E+00 -0.58193249246E+01  0.24077380956E+02  0.24839788090E+02  0.17770000000E+01 0.  1.
         15    1    1    2    0    0  0.42046696561E+01  0.10194600253E+01  0.92842589411E+02  0.92960328545E+02  0.17770000000E+01 0. -1.
</event>
<event>
 6    1  0.1298204E-002  0.1971410E+03  0.7546771E-02  0.1057363E+00
        -11   -1    0    0    0    0  0.00000000000E+00  0.00000000000E+00  0.18250000000E+03  0.18250000000E+03  0.00000000000E+00 0. -1.
         11   -1    0    0    0    0 -0.00000000000E+00 -0.00000000000E+00 -0.18250000000E+03  0.18250000000E+03  0.00000000000E+00 0. -1.
        -11    1    1    2    0    0 -0.33322234663E+01 -0.20741811150E+02  0.16653921305E+03  0.16785897631E+03  0.00000000000E+00 0. -1.
         11    1    1    2    0    0  0.90399605092E+00 -0.19008760452E+01 -0.12844272346E+03  0.12845996944E+03  0.00000000000E+00 0. -1.
        -15    1    1    2    0    0 -0.19521095983E+01  0.30277647589E+02 -0.47042030265E+02  0.56005865906E+02  0.17770000000E+01 0. -1.
         15    1    1    2    0    0  0.43803370137E+01 -0.76349603935E+01  0.89455406791E+01  0.12675188346E+02  0.17770000000E+01 0.  1.
</event>
<event>
 6    1  0.1298204E-002  0.1834496E+03  0.7546771E-02  0.1067701E+00
        -11   -1    0    0    0    0  0.00000000000E+00  0.00000000000E+00  0.18250000000E+03  0.18250000000E+03  0.00000000000E+00 0.  1.
         11   -1    0    0    0    0 -0.00000000000E+00 -0.00000000000E+00 -0.18250000000E+03  0.18250000000E+03  0.00000000000E+00 0.  1.
        -11    1    1    2    0    0 -0.13235672284E+01  0.20534726100E+01  0.14142040028E+03  0.14144150097E+03  0.00000000000E+00 0.  1.
         11    1    1    2    0    0 -0.33045465384E+01 -0.20650046673E+00 -0.18152021533E+03  0.18155040965E+03  0.00000000000E+00 0.  1.
        -15    1    1    2    0    0  0.19715487274E+01  0.10787982428E+01  0.16325217773E+01  0.32975242814E+01  0.17770000000E+01 0.  1.
         15    1    1    2    0    0  0.26565650394E+01 -0.29257703861E+01  0.38467293267E+02  0.38710565101E+02  0.17770000000E+01 0. -1.
</event>
<event>
 6    1  0.1298204E-002  0.1853810E+03  0.7546771E-02  0.1066184E+00
        -11   -1    0    0    0    0  0.00000000000E+00  0.00000000000E+00  0.18250000000E+03  0.18250000000E+03  0.00000000000E+00 0. -1.
         11   -1    0    0    0    0 -0.00000000000E+00 -0.00000000000E+00 -0.18250000000E+03  0.18250000000E+03  0.00000000000E+00 0.  1.
        -11    1    1    2    0    0  0.30371229951E+01  0.31571912347E+01  0.17956554891E+03  0.17961898098E+03  0.00000000000E+00 0. -1.
         11    1    1    2    0    0  0.23292795129E+01  0.21443239591E+01 -0.16931122334E+03  0.16934082206E+03  0.00000000000E+00 0.  1.
        -15    1    1    2    0    0 -0.27937141761E+01 -0.19766867491E+01 -0.10777149173E+02  0.11446257148E+02  0.17770000000E+01 0.  1.
         15    1    1    2    0    0 -0.25726883319E+01 -0.33248284447E+01  0.52282359759E+00  0.45939398074E+01  0.17770000000E+01 0.  1.
</event>
<event>
 6    1  0.1298204E-002  0.1825755E+03  0.7546771E-02  0.1068395E+00
        -11   -1    0    0    0    0  0.00000000000E+00  0.00000000000E+00  0.18250000000E+03  0.18250000000E+03  0.00000000000E+00 0.  1.
         11   -1    0    0    0    0 -0.00000000000E+00 -0.00000000000E+00 -0.18250000000E+03  0.18250000000E+03  0.00000000000E+00 0.  1.
        -11    1    1    2    0    0  0.80250738138E+00 -0.10249168951E+00  0.12088253607E+02  0.12115296030E+02  0.00000000000E+00 0.  1.
         11    1    1    2    0    0  0.11441533658E+01 -0.24038495687E+01 -0.18240504240E+03  0.18242446950E+03  0.00000000000E+00 0.  1.
        -15    1    1    2    0    0 -0.11603106666E+01  0.10104845170E+01  0.22375963071E+02  0.22499085585E+02  0.17770000000E+01 0. -1.
         15    1    1    2    0    0 -0.78635008054E+00  0.14958567413E+01  0.14794082572E+03  0.14796114888E+03  0.17770000000E+01 0.  1.
</event>
<event>
 6    1  0.1298204E-002  0.1785383E+03  0.7546771E-02  0.1071653E+00
        -11   -1    0    0    0    0  0.00000000000E+00  0.00000000000E+00  0.18250000000E+03  0.18250000000E+03  0.00000000000E+00 0. -1.
         11   -1    0    0    0    0 -0.00000000000E+00 -0.00000000000E+00 -0.18250000000E+03  0.18250000000E+03  0.00000000000E+00 0. -1.
        -11    1    1    2    0    0 -0.55050680701E+01  0.35294192001E+01  0.17979264022E+03  0.17991152284E+03  0.00000000000E+00 0. -1.
         11    1    1    2    0    0 -0.26541951376E+00 -0.45673565977E+01 -0.17716380980E+03  0.17722287295E+03  0.00000000000E+00 0. -1.
        -15    1    1    2    0    0  0.20592237023E+01  0.97991842945E-01  0.28523334965E+00  0.27366204927E+01  0.17770000000E+01 0.  1.
         15    1    1    2    0    0  0.37112638815E+01  0.93994555461E+00 -0.29140637667E+01  0.51289837083E+01  0.17770000000E+01 0. -1.
</event>
<event>
 6    1  0.1298204E-002  0.1827098E+03  0.7546771E-02  0.1068288E+00
        -11   -1    0    0    0    0  0.00000000000E+00  0.00000000000E+00  0.18250000000E+03  0.18250000000E+03  0.00000000000E+00 0.  1.
         11   -1    0    0    0    0 -0.00000000000E+00 -0.00000000000E+00 -0.18250000000E+03  0.18250000000E+03  0.00000000000E+00 0.  1.
        -11    1    1    2    0    0 -0.43019495334E+01  0.37427714106E+01  0.18220104049E+03  0.18229024731E+03  0.00000000000E+00 0.  1.
         11    1    1    2    0    0  0.34594715072E+00 -0.10248401684E+01 -0.70248736495E+02  0.70257063389E+02  0.00000000000E+00 0.  1.
        -15    1    1    2    0    0  0.27392391177E+01  0.19200654373E+01 -0.80358611524E+02  0.80447835628E+02  0.17770000000E+01 0.  1.
         15    1    1    2    0    0  0.12167632650E+01 -0.46379966795E+01 -0.31593692470E+02  0.32004853677E+02  0.17770000000E+01 0. -1.
</event>
<event>
 6    1  0.1298204E-002  0.1852806E+03  0.7546771E-02  0.1066263E+00
        -11   -1    0    0    0    0  0.00000000000E+00  0.00000000000E+00  0.18250000000E+03  0.18250000000E+03  0.00000000000E+00 0.  1.
         11   -1    0    0    0    0 -0.00000000000E+00 -0.00000000000E+00 -0.18250000000E+03  0.18250000000E+03  0.00000000000E+00 0. -1.
        -11    1    1    2    0    0  0.68562280835E+00 -0.21351812208E+01  0.69775448425E+02  0.69811476710E+02  0.00000000000E+00 0.  1.
         11    1    1    2    0    0 -0.41839846551E+01 -0.38690911472E+01 -0.17962904117E+03  0.17971941472E+03  0.00000000000E+00 0. -1.
        -15    1    1    2    0    0 -0.63040249429E+01  0.55066788265E+01  0.10302795155E+03  0.10338269087E+03  0.17770000000E+01 0.  1.
         15    1    1    2    0    0  0.98023867897E+01  0.49759354156E+00  0.68256412018E+01  0.12086417704E+02  0.17770000000E+01 0. -1.
</event>
<event>
 6    1  0.1298204E-002  0.1911590E+03  0.7546771E-02  0.1061764E+00
        -11   -1    0    0    0    0  0.00000000000E+00  0.00000000000E+00  0.18250000000E+03  0.18250000000E+03  0.00000000000E+00 0. -1.
         11   -1    0    0    0    0 -0.00000000000E+00 -0.00000000000E+00 -0.18250000000E+03  0.18250000000E+03  0.00000000000E+00 0.  1.
        -11    1    1    2    0    0  0.71823939515E+00 -0.68754969245E+01  0.14327257482E+03  0.14343925203E+03  0.00000000000E+00 0. -1.
         11    1    1    2    0    0 -0.88095087248E+01  0.47439387225E+00 -0.17361702015E+03  0.17384102560E+03  0.00000000000E+00 0.  1.
        -15    1    1    2    0    0  0.81029218803E+01  0.34244380266E+00 -0.63710396256E+01  0.10465299120E+02  0.17770000000E+01 0. -1.
         15    1    1    2    0    0 -0.11652550641E-01  0.60586592496E+01  0.36715484955E+02  0.37254423256E+02  0.17770000000E+01 0. -1.
</event>
<event>
 6    1  0.1298204E-002  0.1867704E+03  0.7546771E-02  0.1065105E+00
        -11   -1    0    0    0    0  0.00000000000E+00  0.00000000000E+00  0.18250000000E+03  0.18250000000E+03  0.00000000000E+00 0. -1.
         11   -1    0    0    0    0 -0.00000000000E+00 -0.00000000000E+00 -0.18250000000E+03  0.18250000000E+03  0.00000000000E+00 0.  1.
        -11    1    1    2    0    0  0.10955902331E+01 -0.99897629413E+01  0.68127637593E+02  0.68864872654E+02  0.00000000000E+00 0. -1.
         11    1    1    2    0    0  0.10203951953E+02 -0.13001591169E+02 -0.17746160220E+03  0.17822957741E+03  0.00000000000E+00 0.  1.
        -15    1    1    2    0    0  0.55978843173E+01  0.90795720336E+01  0.82618970187E+02  0.83323627507E+02  0.17770000000E+01 0.  1.
         15    1    1    2    0    0 -0.16897426503E+02  0.13911782077E+02  0.26714994420E+02  0.34581922429E+02  0.17770000000E+01 0. -1.
</event>
<event>
 6    1  0.1298204E-002  0.1935096E+03  0.7546771E-02  0.1060014E+00
        -11   -1    0    0    0    0  0.00000000000E+00  0.00000000000E+00  0.18250000000E+03  0.18250000000E+03  0.00000000000E+00 0.  1.
         11   -1    0    0    0    0 -0.00000000000E+00 -0.00000000000E+00 -0.18250000000E+03  0.18250000000E+03  0.00000000000E+00 0.  1.
        -11    1    1    2    0    0  0.47576129716E+01 -0.14483814371E+00  0.16357308997E+03  0.16364232833E+03  0.00000000000E+00 0.  1.
         11    1    1    2    0    0 -0.29597858665E+01  0.28988036167E+01 -0.17144038349E+03  0.17149043264E+03  0.00000000000E+00 0.  1.
        -15    1    1    2    0    0  0.75848965455E+01 -0.12514320895E+02  0.15515065483E+01  0.14822408193E+02  0.17770000000E+01 0.  1.
         15    1    1    2    0    0 -0.93827236507E+01  0.97603554218E+01  0.63157869744E+01  0.15044830846E+02  0.17770000000E+01 0. -1.
</event>
<event>
 6    1  0.1298204E-002  0.1845986E+03  0.7546771E-02  0.1066797E+00
        -11   -1    0    0    0    0  0.00000000000E+00  0.00000000000E+00  0.18250000000E+03  0.18250000000E+03  0.00000000000E+00 0.  1.
         11   -1    0    0    0    0 -0.00000000000E+00 -0.00000000000E+00 -0.18250000000E+03  0.18250000000E+03  0.00000000000E+00 0. -1.
        -11    1    1    2    0    0  0.26901658254E+01  0.18150453354E+01  0.18037225224E+03  0.18040144334E+03  0.00000000000E+00 0.  1.
         11    1    1    2    0    0 -0.14085756628E+01  0.51582378627E+01 -0.16059886451E+03  0.16068785512E+03  0.00000000000E+00 0. -1.
        -15    1    1    2    0    0  0.46004259688E+00 -0.47369629997E+01 -0.19924373986E+02  0.20561830302E+02  0.17770000000E+01 0.  1.
         15    1    1    2    0    0 -0.17416327595E+01 -0.22363201984E+01  0.15098625459E+00  0.33488712349E+01  0.17770000000E+01 0. -1.
</event>
<event>
 6    1  0.1298204E-002  0.1962381E+03  0.7546771E-02  0.1058017E+00
        -11   -1    0    0    0    0  0.00000000000E+00  0.00000000000E+00  0.18250000000E+03  0.18250000000E+03  0.00000000000E+00 0.  1.
         11   -1    0    0    0    0 -0.00000000000E+00 -0.00000000000E+00 -0.18250000000E+03  0.18250000000E+03  0.00000000000E+00 0. -1.
        -11    1    1    2    0    0  0.19534153515E+01  0.29720111870E+01  0.16872446984E+03  0.16876194892E+03  0.00000000000E+00 0.  1.
         11    1    1    2    0    0  0.35953075990E+01  0.31421602078E+00 -0.11546993992E+03  0.11552632598E+03  0.00000000000E+00 0. -1.
        -15    1    1    2    0    0 -0.15215335383E+01 -0.20457077259E+01 -0.66565003904E+02  0.66637507892E+02  0.17770000000E+01 0.  1.
         15    1    1    2    0    0 -0.40271894122E+01 -0.12405194818E+01  0.13310473988E+02  0.14074217205E+02  0.17770000000E+01 0. -1.
</event>
<event>
 6    1  0.1298204E-002  0.1886942E+03  0.7546771E-02  0.1063628E+00
        -11   -1    0    0    0    0  0.00000000000E+00  0.00000000000E+00  0.18250000000E+03  0.18250000000E+03  0.00000000000E+00 0.  1.
         11   -1    0    0    0    0 -0.00000000000E+00 -0.00000000000E+00 -0.18250000000E+03  0.18250000000E+03  0.00000000000E+00 0. -1.
        -11    1    1    2    0    0 -0.52525348982E+01 -0.61638464950E+01  0.15946098840E+03  0.15966649288E+03  0.00000000000E+00 0.  1.
         11    1    1    2    0    0 -0.17592824260E+01 -0.82422741245E+01 -0.17610424360E+03  0.17630579903E+03  0.00000000000E+00 0. -1.
        -15    1    1    2    0    0  0.59031370101E+01 -0.16542107794E+01  0.90949031294E+00  0.64473515099E+01  0.17770000000E+01 0. -1.
         15    1    1    2    0    0  0.11086803140E+01  0.16060331399E+02  0.15733764890E+02  0.22580356580E+02  0.17770000000E+01 0.  1.
</event>
<event>
 6    1  0.1298204E-002  0.1830738E+03  0.7546771E-02  0.1067999E+00
        -11   -1    0    0    0    0  0.00000000000E+00  0.00000000000E+00  0.18250000000E+03  0.18250000000E+03  0.00000000000E+00 0. -1.
         11   -1    0    0    0    0 -0.00000000000E+00 -0.00000000000E+00 -0.18250000000E+03  0.18250000000E+03  0.00000000000E+00 0. -1.
        -11    1    1    2    0    0  0.78947977816E+00 -0.21408892363E+01  0.51284592690E+02  0.51335330256E+02  0.00000000000E+00 0. -1.
         11    1    1    2    0    0 -0.69862437140E+01 -0.64140368203E+01 -0.18167885057E+03  0.18192622740E+03  0.00000000000E+00 0. -1.
        -15    1    1    2    0    0 -0.91581794747E+00  0.10423611268E+01  0.89178574376E+02  0.89207068643E+02  0.17770000000E+01 0. -1.
         15    1    1    2    0    0  0.71125818833E+01  0.75125649299E+01  0.41215683509E+02  0.42531373702E+02  0.17770000000E+01 0.  1.
</event>
<event>
 6    1  0.1298204E-002  0.1827527E+03  0.7546771E-02  0.1068254E+00
        -11   -1    0    0    0    0  0.00000000000E+00  0.00000000000E+00  0.18250000000E+03  0.18250000000E+03  0.00000000000E+00 0. -1.
         11   -1    0    0    0    0 -0.00000000000E+00 -0.00000000000E+00 -0.18250000000E+03  0.18250000000E+03  0.00000000000E+00 0. -1.
        -11    1    1    2    0    0 -0.17943651850E+01 -0.50465309279E+00  0.12801614610E+03  0.12802971563E+03  0.00000000000E+00 0. -1.
         11    1    1    2    0    0 -0.31938046991E+01  0.67448584695E+00 -0.18221810632E+03  0.18224734179E+03  0.00000000000E+00 0. -1.
        -15    1    1    2    0    0  0.22110891706E+01 -0.13404989582E+01  0.13021961548E+02  0.13394590861E+02  0.17770000000E+01 0.  1.
         15    1    1    2    0    0  0.27770807136E+01  0.11706662040E+01  0.41179998668E+02  0.41328351720E+02  0.17770000000E+01 0. -1.
</event>
<event>
 6    1  0.1480021E-002  0.1889546E+03  0.7546771E-02  0.1063430E+00
        -11   -1    0    0    0    0  0.00000000000E+00  0.00000000000E+00  0.18250000000E+03  0.18250000000E+03  0.00000000000E+00 0. -1.
         11   -1    0    0    0    0 -0.00000000000E+00 -0.00000000000E+00 -0.18250000000E+03  0.18250000000E+03  0.00000000000E+00 0.  1.
        -11    1    1    2    0    0 -0.43132879487E+00  0.53744906460E+00  0.18208809269E+02  0.18221844886E+02  0.00000000000E+00 0. -1.
         11    1    1    2    0    0 -0.16763760476E+01 -0.78801804672E+01 -0.17586091496E+03  0.17604536033E+03  0.00000000000E+00 0.  1.
        -15    1    1    2    0    0  0.12838055762E+01  0.21305300274E+01  0.16299042528E+03  0.16301909022E+03  0.17770000000E+01 0. -1.
         15    1    1    2    0    0  0.82389926633E+00  0.52122013752E+01 -0.53383195836E+01  0.77137045674E+01  0.17770000000E+01 0.  1.
</event>
<event>
 6    1  0.1298204E-002  0.1834203E+03  0.7546771E-02  0.1067725E+00
        -11   -1    0    0    0    0  0.00000000000E+00  0.00000000000E+00  0.18250000000E+03  0.18250000000E+03  0.00000000000E+00 0.  1.
         11   -1    0    0    0    0 -0.00000000000E+00 -0.00000000000E+00 -0.18250000000E+03  0.18250000000E+03  0.00000000000E+00 0. -1.
        -11    1    1    2    0    0 -0.22585089306E+01  0.35679458369E+01  0.10315859503E+03  0.10324498452E+03  0.00000000000E+00 0.  1.
         11    1    1    2    0    0 -0.26699541255E+00 -0.25808129465E+01 -0.18156114992E+03  0.18157968786E+03  0.00000000000E+00 0. -1.
        -15    1    1    2    0    0  0.20732724287E+01 -0.25526578015E+01  0.77516589627E+02  0.77606661549E+02  0.17770000000E+01 0. -1.
         15    1    1    2    0    0  0.45223191442E+00  0.15655249111E+01  0.88596526406E+00  0.25686660742E+01  0.17770000000E+01 0.  1.
</event>
<event>
 6    1  0.1298204E-002  0.1846803E+03  0.7546771E-02  0.1066732E+00
        -11   -1    0    0    0    0  0.00000000000E+00  0.00000000000E+00  0.18250000000E+03  0.18250000000E+03  0.00000000000E+00 0. -1.
         11   -1    0    0    0    0 -0.00000000000E+00 -0.00000000000E+00 -0.18250000000E+03  0.18250000000E+03  0.00000000000E+00 0.  1.
        -11    1    1    2    0    0  0.19962480637E+01  0.72876795687E+01  0.18016130294E+03  0.18031968932E+03  0.00000000000E+00 0. -1.
         11    1    1    2    0    0 -0.17768984257E+01 -0.26995636636E+01 -0.16914659452E+03  0.16917746732E+03  0.00000000000E+00 0.  1.
        -15    1    1    2    0    0 -0.32884692658E+01  0.12161927581E+01 -0.54214703246E+01  0.66965083750E+01  0.17770000000E+01 0.  1.
         15    1    1    2    0    0  0.30691196278E+01 -0.58043086632E+01 -0.55932380993E+01  0.88063349802E+01  0.17770000000E+01 0. -1.
</event>
<event>
 6    1  0.1298204E-002  0.1889321E+03  0.7546771E-02  0.1063447E+00
        -11   -1    0    0    0    0  0.00000000000E+00  0.00000000000E+00  0.18250000000E+03  0.18250000000E+03  0.00000000000E+00 0. -1.
         11   -1    0    0    0    0 -0.00000000000E+00 -0.00000000000E+00 -0.18250000000E+03  0.18250000000E+03  0.00000000000E+00 0.  1.
        -11    1    1    2    0    0 -0.12519374784E+01  0.22517376469E+01  0.17604906297E+03  0.17606791372E+03  0.00000000000E+00 0. -1.
         11    1    1    2    0    0  0.13289628843E+02 -0.10382260636E+02 -0.10688972775E+03  0.10821191926E+03  0.00000000000E+00 0.  1.
        -15    1    1    2    0    0 -0.29041688908E+01 -0.75892051847E+01 -0.59457469263E+02  0.60036477349E+02  0.17770000000E+01 0.  1.
         15    1    1    2    0    0 -0.91335224742E+01  0.15719728174E+02 -0.97018659536E+01  0.20683689676E+02  0.17770000000E+01 0. -1.
</event>
<event>
 6    1  0.1298204E-002  0.1849455E+03  0.7546771E-02  0.1066525E+00
        -11   -1    0    0    0    0  0.00000000000E+00  0.00000000000E+00  0.18250000000E+03  0.18250000000E+03  0.00000000000E+00 0.  1.
         11   -1    0    0    0    0 -0.00000000000E+00 -0.00000000000E+00 -0.18250000000E+03  0.18250000000E+03  0.00000000000E+00 0.  1.
        -11    1    1    2    0    0 -0.28907345667E+01  0.44329389108E+01  0.17997668533E+03  0.18005447663E+03  0.00000000000E+00 0.  1.
         11    1    1    2    0    0  0.99428737174E-01 -0.32380395048E+01 -0.17144955084E+03  0.17148015416E+03  0.00000000000E+00 0.  1.
        -15    1    1    2    0    0  0.12916557796E+01  0.30571595226E+01 -0.76696864018E+01  0.85437940929E+01  0.17770000000E+01 0. -1.
         15    1    1    2    0    0  0.14996500500E+01 -0.42520589286E+01 -0.85744808433E+00  0.49215751160E+01  0.17770000000E+01 0.  1.
</event>
<event>
 6    1  0.1298204E-002  0.1829158E+03  0.7546771E-02  0.1068124E+00
        -11   -1    0    0    0    0  0.00000000000E+00  0.00000000000E+00  0.18250000000E+03  0.18250000000E+03  0.00000000000E+00 0. -1.
         11   -1    0    0    0    0 -0.00000000000E+00 -0.00000000000E+00 -0.18250000000E+03  0.18250000000E+03  0.00000000000E+00 0. -1.
        -11    1    1    2    0    0 -0.13072373946E+01  0.31886855217E+01  0.16371304583E+03  0.16374931438E+03  0.00000000000E+00 0. -1.
         11    1    1    2    0    0 -0.12568803167E+01 -0.31605419752E+01 -0.18205242917E+03  0.18208419959E+03  0.00000000000E+00 0. -1.
        -15    1    1    2    0    0  0.17972996220E+01  0.15572613694E+01  0.81308565596E+01  0.86558596509E+01  0.17770000000E+01 0. -1.
         15    1    1    2    0    0  0.76681808935E+00 -0.15854049160E+01  0.10208526782E+02  0.10510626374E+02  0.17770000000E+01 0. -1.
</event>
<event>
 6    1  0.1298204E-002  0.1684738E+03  0.7546771E-02  0.1080202E+00
        -11   -1    0    0    0    0  0.00000000000E+00  0.00000000000E+00  0.18250000000E+03  0.18250000000E+03  0.00000000000E+00 0.  1.
         11   -1    0    0    0    0 -0.00000000000E+00 -0.00000000000E+00 -0.18250000000E+03  0.18250000000E+03  0.00000000000E+00 0. -1.
        -11    1    1    2    0    0  0.21392286793E+01  0.18194049759E+01  0.16934548208E+03  0.16936876582E+03  0.00000000000E+00 0.  1.
         11    1    1    2    0    0  0.46971606175E+01 -0.25090891663E-01 -0.16759177183E+03  0.16765758537E+03  0.00000000000E+00 0. -1.
        -15    1    1    2    0    0 -0.95183879637E+01 -0.10758385026E+01 -0.13004953269E+02  0.16249420803E+02  0.17770000000E+01 0. -1.
         15    1    1    2    0    0  0.26819986669E+01 -0.71847558162E+00  0.11251243012E+02  0.11724228005E+02  0.17770000000E+01 0.  1.
</event>
<event>
 6    1  0.1298204E-002  0.1858716E+03  0.7546771E-02  0.1065802E+00
        -11   -1    0    0    0    0  0.00000000000E+00  0.00000000000E+00  0.18250000000E+03  0.18250000000E+03  0.00000000000E+00 0. -1.
         11   -1    0    0    0    0 -0.00000000000E+00 -0.00000000000E+00 -0.18250000000E+03  0.18250000000E+03  0.00000000000E+00 0. -1.
        -11    1    1    2    0    0 -0.14021304341E+02  0.24005046841E+01  0.15129911137E+03  0.15196637950E+03  0.00000000000E+00 0. -1.
         11    1    1    2    0    0  0.66502947181E+01 -0.28695063988E+01 -0.17898191403E+03  0.17912840656E+03  0.00000000000E+00 0. -1.
        -15    1    1    2    0    0  0.11308758510E+02 -0.36247648803E+01  0.24184915891E+02  0.27001755964E+02  0.17770000000E+01 0. -1.
         15    1    1    2    0    0 -0.39377488877E+01  0.40937665950E+01  0.34978867678E+01  0.69034579797E+01  0.17770000000E+01 0.  1.
</event>
<event>
 6    1  0.1298204E-002  0.1827629E+03  0.7546771E-02  0.1068246E+00
        -11   -1    0    0    0    0  0.00000000000E+00  0.00000000000E+00  0.18250000000E+03  0.18250000000E+03  0.00000000000E+00 0.  1.
         11   -1    0    0    0    0 -0.00000000000E+00 -0.00000000000E+00 -0.18250000000E+03  0.18250000000E+03  0.00000000000E+00 0. -1.
        -11    1    1    2    0    0  0.31599688493E+01 -0.18159588674E+01  0.18220060301E+03  0.18223705124E+03  0.00000000000E+00 0.  1.
         11    1    1    2    0    0 -0.20716893455E+01  0.16942009788E+01 -0.70808300823E+02  0.70858857450E+02  0.00000000000E+00 0. -1.
        -15    1    1    2    0    0 -0.28974274010E+00  0.29028050654E+01 -0.12639606815E+02  0.13093036987E+02  0.17770000000E+01 0.  1.
         15    1    1    2    0    0 -0.79853676370E+00 -0.27810471768E+01 -0.98752695369E+02  0.98811054321E+02  0.17770000000E+01 0. -1.
</event>
<event>
 6    1  0.1298204E-002  0.1721864E+03  0.7546771E-02  0.1076974E+00
        -11   -1    0    0    0    0  0.00000000000E+00  0.00000000000E+00  0.18250000000E+03  0.18250000000E+03  0.00000000000E+00 0.  1.
         11   -1    0    0    0    0 -0.00000000000E+00 -0.00000000000E+00 -0.18250000000E+03  0.18250000000E+03  0.00000000000E+00 0.  1.
        -11    1    1    2    0    0  0.71933691721E+00  0.11682175618E+02  0.17339065719E+03  0.17378524297E+03  0.00000000000E+00 0.  1.
         11    1    1    2    0    0 -0.23263318235E+01  0.51490814931E+00 -0.17080032077E+03  0.17081693864E+03  0.00000000000E+00 0.  1.
        -15    1    1    2    0    0  0.81091745759E+00 -0.33652335856E+01 -0.86681089529E+01  0.95013802170E+01  0.17770000000E+01 0. -1.
         15    1    1    2    0    0  0.79607744870E+00 -0.88318501813E+01  0.60777725332E+01  0.10896438175E+02  0.17770000000E+01 0.  1.
</event>
<event>
 6    1  0.1298204E-002  0.1828465E+03  0.7546771E-02  0.1068179E+00
        -11   -1    0    0    0    0  0.00000000000E+00  0.00000000000E+00  0.18250000000E+03  0.18250000000E+03  0.00000000000E+00 0.  1.
         11   -1    0    0    0    0 -0.00000000000E+00 -0.00000000000E+00 -0.18250000000E+03  0.18250000000E+03  0.00000000000E+00 0. -1.
        -11    1    1    2    0    0  0.10531233053E+01 -0.29774816614E+01  0.10224217606E+03  0.10229094305E+03  0.00000000000E+00 0.  1.
         11    1    1    2    0    0  0.36982171253E+01  0.47331297195E+01 -0.18205441685E+03  0.18215347930E+03  0.00000000000E+00 0. -1.
        -15    1    1    2    0    0 -0.33241954869E+01  0.33335970471E+01  0.47490267890E+02  0.47756113935E+02  0.17770000000E+01 0. -1.
         15    1    1    2    0    0 -0.14271449437E+01 -0.50892451051E+01  0.32321972901E+02  0.32799463710E+02  0.17770000000E+01 0.  1.
</event>
<event>
 6    1  0.1298204E-002  0.1858148E+03  0.7546771E-02  0.1065846E+00
        -11   -1    0    0    0    0  0.00000000000E+00  0.00000000000E+00  0.18250000000E+03  0.18250000000E+03  0.00000000000E+00 0. -1.
         11   -1    0    0    0    0 -0.00000000000E+00 -0.00000000000E+00 -0.18250000000E+03  0.18250000000E+03  0.00000000000E+00 0.  1.
        -11    1    1    2    0    0 -0.30337279246E+01 -0.50327556879E+01  0.17908881887E+03  0.17918520357E+03  0.00000000000E+00 0. -1.
         11    1    1    2    0    0  0.56092375645E+00  0.58679133213E-01 -0.33333328513E+02  0.33338099353E+02  0.00000000000E+00 0.  1.
        -15    1    1    2    0    0  0.23651239037E+01  0.63586137447E+01 -0.14864550259E+03  0.14881084957E+03  0.17770000000E+01 0.  1.
         15    1    1    2    0    0  0.10768026437E+00 -0.13845371900E+01  0.28900122335E+01  0.36658475117E+01  0.17770000000E+01 0. -1.
</event>
<event>
 6    1  0.1298204E-002  0.1843595E+03  0.7546771E-02  0.1066984E+00
        -11   -1    0    0    0    0  0.00000000000E+00  0.00000000000E+00  0.18250000000E+03  0.18250000000E+03  0.00000000000E+00 0.  1.
         11   -1    0    0    0    0 -0.00000000000E+00 -0.00000000000E+00 -0.18250000000E+03  0.18250000000E+03  0.00000000000E+00 0. -1.
        -11    1    1    2    0    0 -0.23320050598E+01 -0.55900119740E+01  0.16760846589E+03  0.16771787120E+03  0.00000000000E+00 0.  1.
         11    1    1    2    0    0 -0.50166590179E+01  0.29707687731E+01 -0.18054640373E+03  0.18064051659E+03  0.00000000000E+00 0. -1.
        -15    1    1    2    0    0  0.39709830828E+01  0.39299076813E+01  0.48729946390E+01  0.76234301190E+01  0.17770000000E+01 0.  1.
         15    1    1    2    0    0  0.33776809948E+01 -0.13106644804E+01  0.80649432064E+01  0.90181820899E+01  0.17770000000E+01 0. -1.
</event>
<event>
 6    1  0.1298204E-002  0.1832825E+03  0.7546771E-02  0.1067834E+00
        -11   -1    0    0    0    0  0.00000000000E+00  0.00000000000E+00  0.18250000000E+03  0.18250000000E+03  0.00000000000E+00 0.  1.
         11   -1    0    0    0    0 -0.00000000000E+00 -0.00000000000E+00 -0.18250000000E+03  0.18250000000E+03  0.00000000000E+00 0. -1.
        -11    1    1    2    0    0  0.41919702339E+01  0.29618784385E+01  0.15922794436E+03  0.15931065126E+03  0.00000000000E+00 0.  1.
         11    1    1    2    0    0 -0.36273473498E+00  0.25572707929E+01 -0.18169916574E+03  0.18171752266E+03  0.00000000000E+00 0. -1.
        -15    1    1    2    0    0 -0.30522690141E+01 -0.36664430648E+01  0.18440183079E+02  0.19130008674E+02  0.17770000000E+01 0.  1.
         15    1    1    2    0    0 -0.77696648483E+00 -0.18527061666E+01  0.40310383007E+01  0.48418174109E+01  0.17770000000E+01 0. -1.
</event>
<event>
 6    1  0.1298204E-002  0.1970429E+03  0.7546771E-02  0.1057434E+00
        -11   -1    0    0    0    0  0.00000000000E+00  0.00000000000E+00  0.18250000000E+03  0.18250000000E+03  0.00000000000E+00 0.  1.
         11   -1    0    0    0    0 -0.00000000000E+00 -0.00000000000E+00 -0.18250000000E+03  0.18250000000E+03  0.00000000000E+00 0. -1.
        -11    1    1    2    0    0 -0.12784429801E+01  0.73624716329E+01  0.15439928808E+03  0.15458001347E+03  0.00000000000E+00 0.  1.
         11    1    1    2    0    0  0.21156740519E+01  0.24327595514E+01 -0.16792618893E+03  0.16795713537E+03  0.00000000000E+00 0. -1.
        -15    1    1    2    0    0 -0.26559571400E+00 -0.18871548476E+02  0.22597524261E+02  0.29495960990E+02  0.17770000000E+01 0.  1.
         15    1    1    2    0    0 -0.57163535780E+00  0.90763172917E+01 -0.90706234112E+01  0.12966890168E+02  0.17770000000E+01 0. -1.
</event>
<event>
 6    1  0.1298204E-002  0.1858291E+03  0.7546771E-02  0.1065835E+00
        -11   -1    0    0    0    0  0.00000000000E+00  0.00000000000E+00  0.18250000000E+03  0.18250000000E+03  0.00000000000E+00 0. -1.
         11   -1    0    0    0    0 -0.00000000000E+00 -0.00000000000E+00 -0.18250000000E+03  0.18250000000E+03  0.00000000000E+00 0. -1.
        -11    1    1    2    0    0 -0.62080482372E+00  0.35810041090E+01  0.17913404205E+03  0.17917090726E+03  0.00000000000E+00 0. -1.
         11    1    1    2    0    0  0.23636382798E+01  0.64072551841E+00 -0.17195906821E+03  0.17197650553E+03  0.00000000000E+00 0. -1.
        -15    1    1    2    0    0 -0.49836407746E+01 -0.68856185333E+00 -0.69132541894E+01  0.87327890896E+01  0.17770000000E+01 0. -1.
         15    1    1    2    0    0  0.32408073185E+01 -0.35331677741E+01 -0.26171965372E+00  0.51197981183E+01  0.17770000000E+01 0. -1.
</event>
<event>
 6    1  0.1298204E-002  0.1832229E+03  0.7546771E-02  0.1067881E+00
        -11   -1    0    0    0    0  0.00000000000E+00  0.00000000000E+00  0.18250000000E+03  0.18250000000E+03  0.00000000000E+00 0. -1.
         11   -1    0    0    0    0 -0.00000000000E+00 -0.00000000000E+00 -0.18250000000E+03  0.18250000000E+03  0.00000000000E+00 0. -1.
        -11    1    1    2    0    0  0.23137899014E+01  0.22470307359E+01  0.18174844991E+03  0.18177706626E+03  0.00000000000E+00 0. -1.
         11    1    1    2    0    0 -0.16794638358E+00 -0.27589002212E+01 -0.13349999100E+03  0.13352860118E+03  0.00000000000E+00 0. -1.
        -15    1    1    2    0    0 -0.66019736594E+01 -0.82577513047E+00 -0.29806398556E+02  0.30591617882E+02  0.17770000000E+01 0.  1.
         15    1    1    2    0    0  0.44561301416E+01  0.13376446158E+01 -0.18442060358E+02  0.19102714681E+02  0.17770000000E+01 0. -1.
</event>
<event>
 6    1  0.1298204E-002  0.1348427E+03  0.7546771E-02  0.1114348E+00
        -11   -1    0    0    0    0  0.00000000000E+00  0.00000000000E+00  0.18250000000E+03  0.18250000000E+03  0.00000000000E+00 0. -1.
         11   -1    0    0    0    0 -0.00000000000E+00 -0.00000000000E+00 -0.18250000000E+03  0.18250000000E+03  0.00000000000E+00 0. -1.
        -11    1    1    2    0    0  0.19994251687E-01  0.80852020889E+00  0.49900902580E+02  0.49907456186E+02  0.00000000000E+00 0. -1.
         11    1    1    2    0    0  0.28854705215E+01  0.54302266823E+01 -0.14165733910E+03  0.14179074379E+03  0.00000000000E+00 0. -1.
        -15    1    1    2    0    0  0.16018003546E+02 -0.25000778871E+02  0.12623345850E+03  0.12969062863E+03  0.17770000000E+01 0. -1.
         15    1    1    2    0    0 -0.18923468319E+02  0.18762031980E+02 -0.34477021976E+02  0.43611171397E+02  0.17770000000E+01 0.  1.
</event>
<event>
 6    1  0.1298204E-002  0.1863783E+03  0.7546771E-02  0.1065409E+00
        -11   -1    0    0    0    0  0.00000000000E+00  0.00000000000E+00  0.18250000000E+03  0.18250000000E+03  0.00000000000E+00 0.  1.
         11   -1    0    0    0    0 -0.00000000000E+00 -0.00000000000E+00 -0.18250000000E+03  0.18250000000E+03  0.00000000000E+00 0. -1.
        -11    1    1    2    0    0 -0.32152576926E+01 -0.19305567142E+01  0.17858231328E+03  0.17862168835E+03  0.00000000000E+00 0.  1.
         11    1    1    2    0    0  0.18222876221E+01  0.67753163852E+01 -0.17390630518E+03  0.17404777685E+03  0.00000000000E+00 0. -1.
        -15    1    1    2    0    0  0.19811868343E+01  0.77912057081E-02  0.23762331185E+01  0.35678249409E+01  0.17770000000E+01 0.  1.
         15    1    1    2    0    0 -0.58821676377E+00 -0.48525508767E+01 -0.70522412142E+01  0.87627098614E+01  0.17770000000E+01 0.  1.
</event>
<event>
 6    1  0.1298204E-002  0.1839009E+03  0.7546771E-02  0.1067345E+00
        -11   -1    0    0    0    0  0.00000000000E+00  0.00000000000E+00  0.18250000000E+03  0.18250000000E+03  0.00000000000E+00 0. -1.
         11   -1    0    0    0    0 -0.00000000000E+00 -0.00000000000E+00 -0.18250000000E+03  0.18250000000E+03  0.00000000000E+00 0. -1.
        -11    1    1    2    0    0  0.26757313291E+01  0.11761196662E+01  0.18107556093E+03  0.18109914843E+03  0.00000000000E+00 0. -1.
         11    1    1    2    0    0  0.56194717825E+01  0.72704275523E+00 -0.14210055982E+03  0.14221348795E+03  0.00000000000E+00 0. -1.
        -15    1    1    2    0    0 -0.37635419520E+01 -0.48564551437E+01 -0.82476653712E+01  0.10437007122E+02  0.17770000000E+01 0. -1.
         15    1    1    2    0    0 -0.45316611596E+01  0.29532927222E+01 -0.30727335734E+02  0.31250356496E+02  0.17770000000E+01 0. -1.
</event>
<event>
 6    1  0.1298204E-002  0.1849791E+03  0.7546771E-02  0.1066498E+00
        -11   -1    0    0    0    0  0.00000000000E+00  0.00000000000E+00  0.18250000000E+03  0.18250000000E+03  0.00000000000E+00 0. -1.
         11   -1    0    0    0    0 -0.00000000000E+00 -0.00000000000E+00 -0.18250000000E+03  0.18250000000E+03  0.00000000000E+00 0.  1.
        -11    1    1    2    0    0 -0.30716001514E+01 -0.20490956543E+01  0.17998307826E+03  0.18002094873E+03  0.00000000000E+00 0. -1.
         11    1    1    2    0    0  0.10224541813E+01 -0.22019848333E+01 -0.17696552364E+03  0.17698217624E+03  0.00000000000E+00 0.  1.
        -15    1    1    2    0    0  0.25396835884E+00  0.24447350254E+01 -0.37333546955E+01  0.48100826972E+01  0.17770000000E+01 0.  1.
         15    1    1    2    0    0  0.17951776113E+01  0.18063454622E+01  0.71580007448E+00  0.31867923264E+01  0.17770000000E+01 0. -1.
</event>
<event>
 6    1  0.1298204E-002  0.1767047E+03  0.7546771E-02  0.1073164E+00
        -11   -1    0    0    0    0  0.00000000000E+00  0.00000000000E+00  0.18250000000E+03  0.18250000000E+03  0.00000000000E+00 0.  1.
         11   -1    0    0    0    0 -0.00000000000E+00 -0.00000000000E+00 -0.18250000000E+03  0.18250000000E+03  0.00000000000E+00 0. -1.
        -11    1    1    2    0    0  0.31023531353E-01  0.45065947694E+01  0.17666346144E+03  0.17672093528E+03  0.00000000000E+00 0.  1.
         11    1    1    2    0    0 -0.43059932306E+01  0.10442004424E+01 -0.17670230791E+03  0.17675785005E+03  0.00000000000E+00 0. -1.
        -15    1    1    2    0    0  0.62280257498E+01 -0.45782535633E+01 -0.18345213010E+01  0.81407559743E+01  0.17770000000E+01 0. -1.
         15    1    1    2    0    0 -0.19530560506E+01 -0.97254164849E+00  0.18733677733E+01  0.33804586980E+01  0.17770000000E+01 0.  1.
</event>
<event>
 6    1  0.1298204E-002  0.1890969E+03  0.7546771E-02  0.1063322E+00
        -11   -1    0    0    0    0  0.00000000000E+00  0.00000000000E+00  0.18250000000E+03  0.18250000000E+03  0.00000000000E+00 0. -1.
         11   -1    0    0    0    0 -0.00000000000E+00 -0.00000000000E+00 -0.18250000000E+03  0.18250000000E+03  0.00000000000E+00 0.  1.
        -11    1    1    2    0    0  0.68356891248E+01  0.14750684551E+01  0.10971443805E+03  0.10993707468E+03  0.00000000000E+00 0. -1.
         11    1    1    2    0    0 -0.25628053792E+02 -0.95908147738E+01 -0.17376171022E+03  0.17590313473E+03  0.00000000000E+00 0.  1.
        -15    1    1    2    0    0  0.14356863239E+02  0.37347581114E+01  0.69252603364E+02  0.70845950780E+02  0.17770000000E+01 0. -1.
         15    1    1    2    0    0  0.44355014284E+01  0.43809882073E+01 -0.52053311930E+01  0.83138398122E+01  0.17770000000E+01 0.  1.
</event>
<event>
 6    1  0.1298204E-002  0.1843726E+03  0.7546771E-02  0.1066974E+00
        -11   -1    0    0    0    0  0.00000000000E+00  0.00000000000E+00  0.18250000000E+03  0.18250000000E+03  0.00000000000E+00 0. -1.
         11   -1    0    0    0    0 -0.00000000000E+00 -0.00000000000E+00 -0.18250000000E+03  0.18250000000E+03  0.00000000000E+00 0.  1.
        -11    1    1    2    0    0 -0.20129578415E+01 -0.28899717281E+01  0.18059303459E+03  0.18062737356E+03  0.00000000000E+00 0. -1.
         11    1    1    2    0    0  0.34208838918E+01 -0.16780828616E+00 -0.14750814842E+03  0.14754790563E+03  0.00000000000E+00 0.  1.
        -15    1    1    2    0    0 -0.56225347988E+01  0.41008092461E+01 -0.30762828125E+02  0.31590170264E+02  0.17770000000E+01 0.  1.
         15    1    1    2    0    0  0.42146087486E+01 -0.10430292318E+01 -0.23220580412E+01  0.52345505470E+01  0.17770000000E+01 0. -1.
</event>
<event>
 6    1  0.1298204E-002  0.1825767E+03  0.7546771E-02  0.1068394E+00
        -11   -1    0    0    0    0  0.00000000000E+00  0.00000000000E+00  0.18250000000E+03  0.18250000000E+03  0.00000000000E+00 0. -1.
         11   -1    0    0    0    0 -0.00000000000E+00 -0.00000000000E+00 -0.18250000000E+03  0.18250000000E+03  0.00000000000E+00 0. -1.
        -11    1    1    2    0    0 -0.48652971829E+00  0.78857575342E+00  0.48362072151E+02  0.48370947744E+02  0.00000000000E+00 0. -1.
         11    1    1    2    0    0  0.42563387797E+01  0.12263904814E+01 -0.18236954513E+03  0.18242333032E+03  0.00000000000E+00 0. -1.
        -15    1    1    2    0    0  0.25741046265E-01  0.91399798096E+00  0.52511153608E+02  0.52549167806E+02  0.17770000000E+01 0. -1.
         15    1    1    2    0    0 -0.37955501077E+01 -0.29289642158E+01  0.81496319374E+02  0.81656554130E+02  0.17770000000E+01 0. -1.
</event>
<event>
 6    1  0.1298204E-002  0.1447841E+03  0.7546771E-02  0.1103202E+00
        -11   -1    0    0    0    0  0.00000000000E+00  0.00000000000E+00  0.18250000000E+03  0.18250000000E+03  0.00000000000E+00 0.  1.
         11   -1    0    0    0    0 -0.00000000000E+00 -0.00000000000E+00 -0.18250000000E+03  0.18250000000E+03  0.00000000000E+00 0.  1.
        -11    1    1    2    0    0 -0.16532537099E+02  0.38891606835E+02  0.13454517368E+03  0.14102583319E+03  0.00000000000E+00 0.  1.
         11    1    1    2    0    0  0.36341258552E+01  0.21197478252E+01 -0.15218946929E+03  0.15224761005E+03  0.00000000000E+00 0.  1.
        -15    1    1    2    0    0 -0.14720520428E+02 -0.21304122700E+02 -0.10110344504E+02  0.27855630682E+02  0.17770000000E+01 0. -1.
         15    1    1    2    0    0  0.27618931672E+02 -0.19707231960E+02  0.27754640118E+02  0.43870926082E+02  0.17770000000E+01 0.  1.
</event>
<event>
 6    1  0.1298204E-002  0.1831327E+03  0.7546771E-02  0.1067952E+00
        -11   -1    0    0    0    0  0.00000000000E+00  0.00000000000E+00  0.18250000000E+03  0.18250000000E+03  0.00000000000E+00 0. -1.
         11   -1    0    0    0    0 -0.00000000000E+00 -0.00000000000E+00 -0.18250000000E+03  0.18250000000E+03  0.00000000000E+00 0. -1.
        -11    1    1    2    0    0  0.77455831870E+00 -0.23358716026E+01  0.18185061792E+03  0.18186726884E+03  0.00000000000E+00 0. -1.
         11    1    1    2    0    0 -0.26553126110E+01 -0.22153397840E+01 -0.16149020439E+03  0.16152722535E+03  0.00000000000E+00 0. -1.
        -15    1    1    2    0    0  0.11162200365E+01  0.36311066435E+01 -0.17698924430E+02  0.18189022448E+02  0.17770000000E+01 0.  1.
         15    1    1    2    0    0  0.76453425582E+00  0.92010474307E+00 -0.26614890957E+01  0.34164833635E+01  0.17770000000E+01 0.  1.
</event>
<event>
 6    1  0.1298204E-002  0.1826833E+03  0.7546771E-02  0.1068309E+00
        -11   -1    0    0    0    0  0.00000000000E+00  0.00000000000E+00  0.18250000000E+03  0.18250000000E+03  0.00000000000E+00 0.  1.
         11   -1    0    0    0    0 -0.00000000000E+00 -0.00000000000E+00 -0.18250000000E+03  0.18250000000E+03  0.00000000000E+00 0.  1.
        -11    1    1    2    0    0 -0.90060578594E+00 -0.97493309634E+00  0.78458850689E+02  0.78470076059E+02  0.00000000000E+00 0.  1.
         11    1    1    2    0    0 -0.30308062122E+01 -0.75147502428E+00 -0.18228994074E+03  0.18231668326E+03  0.00000000000E+00 0.  1.
        -15    1    1    2    0    0  0.22246290777E+01  0.28238574068E+01  0.91623861590E+02  0.91711574443E+02  0.17770000000E+01 0.  1.
         15    1    1    2    0    0  0.17067829204E+01 -0.10974492862E+01  0.12207228463E+02  0.12501666234E+02  0.17770000000E+01 0. -1.
</event>
<event>
 6    1  0.1298204E-002  0.1864546E+03  0.7546771E-02  0.1065350E+00
        -11   -1    0    0    0    0  0.00000000000E+00  0.00000000000E+00  0.18250000000E+03  0.18250000000E+03  0.00000000000E+00 0. -1.
         11   -1    0    0    0    0 -0.00000000000E+00 -0.00000000000E+00 -0.18250000000E+03  0.18250000000E+03  0.00000000000E+00 0. -1.
        -11    1    1    2    0    0  0.12001302429E+01 -0.43407557566E+01  0.16910063328E+03  0.16916059425E+03  0.00000000000E+00 0. -1.
         11    1    1    2    0    0 -0.28418616886E+01 -0.92880125538E+00 -0.17852035808E+03  0.17854539226E+03  0.00000000000E+00 0. -1.
        -15    1    1    2    0    0 -0.42788091427E+01  0.12378535923E+00  0.78247817318E+01  0.90944196431E+01  0.17770000000E+01 0.  1.
         15    1    1    2    0    0  0.59205405884E+01  0.51457716528E+01  0.15949430668E+01  0.81995938404E+01  0.17770000000E+01 0. -1.
</event>
<event>
 6    1  0.1298204E-002  0.1968529E+03  0.7546771E-02  0.1057571E+00
        -11   -1    0    0    0    0  0.00000000000E+00  0.00000000000E+00  0.18250000000E+03  0.18250000000E+03  0.00000000000E+00 0.  1.
         11   -1    0    0    0    0 -0.00000000000E+00 -0.00000000000E+00 -0.18250000000E+03  0.18250000000E+03  0.00000000000E+00 0. -1.
        -11    1    1    2    0    0 -0.13049685012E+01  0.36145306201E+01  0.16810322006E+03  0.16814713905E+03  0.00000000000E+00 0.  1.
         11    1    1    2    0    0  0.20555157802E+00 -0.19155419543E+01 -0.11262504392E+03  0.11264152019E+03  0.00000000000E+00 0. -1.
        -15    1    1    2    0    0  0.15206668119E+02  0.12601201956E+02  0.50083304302E+01  0.20451751727E+02  0.17770000000E+01 0.  1.
         15    1    1    2    0    0 -0.14107251196E+02 -0.14300190622E+02 -0.60486506570E+02  0.63759589037E+02  0.17770000000E+01 0. -1.
</event>
<event>
 6    1  0.1408655E-002  0.1831654E+03  0.7546771E-02  0.1067926E+00
        -11   -1    0    0    0    0  0.00000000000E+00  0.00000000000E+00  0.18250000000E+03  0.18250000000E+03  0.00000000000E+00 0. -1.
         11   -1    0    0    0    0 -0.00000000000E+00 -0.00000000000E+00 -0.18250000000E+03  0.18250000000E+03  0.00000000000E+00 0.  1.
        -11    1    1    2    0    0  0.48239163885E+00  0.51491438779E+00  0.50931066863E+02  0.50935954004E+02  0.00000000000E+00 0. -1.
         11    1    1    2    0    0  0.60700559198E+01 -0.12489692626E+01 -0.18172894537E+03  0.18183458167E+03  0.00000000000E+00 0.  1.
        -15    1    1    2    0    0  0.11563509678E+01 -0.83999390800E-01  0.10908854213E+03  0.10910917449E+03  0.17770000000E+01 0. -1.
         15    1    1    2    0    0 -0.77087985264E+01  0.81805426558E+00  0.21709336379E+02  0.23120289845E+02  0.17770000000E+01 0.  1.
</event>
<event>
 6    1  0.1298204E-002  0.1838329E+03  0.7546771E-02  0.1067399E+00
        -11   -1    0    0    0    0  0.00000000000E+00  0.00000000000E+00  0.18250000000E+03  0.18250000000E+03  0.00000000000E+00 0.  1.
         11   -1    0    0    0    0 -0.00000000000E+00 -0.00000000000E+00 -0.18250000000E+03  0.18250000000E+03  0.00000000000E+00 0.  1.
        -11    1    1    2    0    0 -0.68890466113E+01 -0.20657656456E+01  0.18102425631E+03  0.18116707130E+03  0.00000000000E+00 0.  1.
         11    1    1    2    0    0  0.17324000364E+01 -0.66056876298E+01 -0.11692920809E+03  0.11712845949E+03  0.00000000000E+00 0.  1.
        -15    1    1    2    0    0  0.29986431611E+01  0.44238147335E+01 -0.54428732554E+01  0.78322790986E+01  0.17770000000E+01 0.  1.
         15    1    1    2    0    0  0.21580034138E+01  0.42476385420E+01 -0.58652174960E+02  0.58872190111E+02  0.17770000000E+01 0. -1.
</event>
<event>
 6    1  0.1298204E-002  0.1830775E+03  0.7546771E-02  0.1067996E+00
        -11   -1    0    0    0    0  0.00000000000E+00  0.00000000000E+00  0.18250000000E+03  0.18250000000E+03  0.00000000000E+00 0. -1.
         11   -1    0    0    0    0 -0.00000000000E+00 -0.00000000000E+00 -0.18250000000E+03  0.18250000000E+03  0.00000000000E+00 0.  1.
        -11    1    1    2    0    0 -0.29636043486E+01  0.14447329699E+01  0.14376184470E+03  0.14379964602E+03  0.00000000000E+00 0. -1.
         11    1    1    2    0    0  0.45323771953E+00  0.52406231948E+01 -0.18184646611E+03  0.18192252965E+03  0.00000000000E+00 0.  1.
        -15    1    1    2    0    0 -0.11947094416E+01 -0.96328563223E+00  0.63369288774E+01  0.67579321139E+01  0.17770000000E+01 0.  1.
         15    1    1    2    0    0  0.37050760706E+01 -0.57220705325E+01  0.31747692537E+02  0.32519892225E+02  0.17770000000E+01 0. -1.
</event>
<event>
 6    1  0.1298204E-002  0.1863122E+03  0.7546771E-02  0.1065460E+00
        -11   -1    0    0    0    0  0.00000000000E+00  0.00000000000E+00  0.18250000000E+03  0.18250000000E+03  0.00000000000E+00 0. -1.
         11   -1    0    0    0    0 -0.00000000000E+00 -0.00000000000E+00 -0.18250000000E+03  0.18250000000E+03  0.00000000000E+00 0.  1.
        -11    1    1    2    0    0  0.11324547753E+02  0.59135842757E+01  0.17823054188E+03  0.17868783372E+03  0.00000000000E+00 0. -1.
         11    1    1    2    0    0 -0.18129624238E+01 -0.23013567277E+01 -0.15954319992E+03  0.15957009656E+03  0.00000000000E+00 0.  1.
        -15    1    1    2    0    0 -0.10668399181E+02 -0.75228853074E+01 -0.17898176631E+02  0.22224108535E+02  0.17770000000E+01 0. -1.
         15    1    1    2    0    0  0.11568138524E+01  0.39106577595E+01 -0.78916533214E+00  0.45179611909E+01  0.17770000000E+01 0.  1.
</event>
<event>
 6    1  0.1298204E-002  0.1827184E+03  0.7546771E-02  0.1068281E+00
        -11   -1    0    0    0    0  0.00000000000E+00  0.00000000000E+00  0.18250000000E+03  0.18250000000E+03  0.00000000000E+00 0. -1.
         11   -1    0    0    0    0 -0.00000000000E+00 -0.00000000000E+00 -0.18250000000E+03  0.18250000000E+03  0.00000000000E+00 0.  1.
        -11    1    1    2    0    0 -0.11278892699E+01  0.42507584139E+01  0.18222856932E+03  0.18228162979E+03  0.00000000000E+00 0. -1.
         11    1    1    2    0    0 -0.19535588162E+01 -0.50559371558E+00 -0.59955142152E+02  0.59989091404E+02  0.00000000000E+00 0.  1.
        -15    1    1    2    0    0  0.51090547712E+01 -0.43144118031E+01 -0.10588357452E+03  0.10610940426E+03  0.17770000000E+01 0.  1.
         15    1    1    2    0    0 -0.20276066851E+01  0.56924710476E+00 -0.16389852650E+02  0.16619874549E+02  0.17770000000E+01 0. -1.
</event>
<event>
 6    1  0.1298204E-002  0.1673007E+03  0.7546771E-02  0.1081241E+00
        -11   -1    0    0    0    0  0.00000000000E+00  0.00000000000E+00  0.18250000000E+03  0.18250000000E+03  0.00000000000E+00 0. -1.
         11   -1    0    0    0    0 -0.00000000000E+00 -0.00000000000E+00 -0.18250000000E+03  0.18250000000E+03  0.00000000000E+00 0. -1.
        -11    1    1    2    0    0  0.23061315120E+01  0.17552894028E+01  0.16463737849E+03  0.16466288494E+03  0.00000000000E+00 0. -1.
         11    1    1    2    0    0  0.64527438787E+01  0.11225198007E+02 -0.16985261186E+03  0.17034539245E+03  0.00000000000E+00 0. -1.
        -15    1    1    2    0    0 -0.44608107039E+01 -0.57162087147E+01 -0.10013376590E+02  0.12489968533E+02  0.17770000000E+01 0.  1.
         15    1    1    2    0    0 -0.42980646868E+01 -0.72642786951E+01  0.15228609967E+02  0.17501754070E+02  0.17770000000E+01 0. -1.
</event>
<event>
 6    1  0.1298204E-002  0.1990370E+03  0.7546771E-02  0.1056004E+00
        -11   -1    0    0    0    0  0.00000000000E+00  0.00000000000E+00  0.18250000000E+03  0.18250000000E+03  0.00000000000E+00 0. -1.
         11   -1    0    0    0    0 -0.00000000000E+00 -0.00000000000E+00 -0.18250000000E+03  0.18250000000E+03  0.00000000000E+00 0. -1.
        -11    1    1    2    0    0  0.68556797673E+01 -0.84425347465E+00  0.15886328676E+03  0.15901338619E+03  0.00000000000E+00 0. -1.
         11    1    1    2    0    0 -0.53276514918E+01  0.22561735646E+01 -0.16586208088E+03  0.16596295992E+03  0.00000000000E+00 0. -1.
        -15    1    1    2    0    0 -0.95830983192E+01  0.36880153805E+01  0.20736508347E+02  0.23207708595E+02  0.17770000000E+01 0.  1.
         15    1    1    2    0    0  0.80550700438E+01 -0.50999354705E+01 -0.13737714221E+02  0.16815945297E+02  0.17770000000E+01 0. -1.
</event>
<event>
 6    1  0.1298204E-002  0.1872657E+03  0.7546771E-02  0.1064723E+00
        -11   -1    0    0    0    0  0.00000000000E+00  0.00000000000E+00  0.18250000000E+03  0.18250000000E+03  0.00000000000E+00 0. -1.
         11   -1    0    0    0    0 -0.00000000000E+00 -0.00000000000E+00 -0.18250000000E+03  0.18250000000E+03  0.00000000000E+00 0.  1.
        -11    1    1    2    0    0  0.65539244691E+01 -0.48681093100E+01  0.16840511538E+03  0.16860289233E+03  0.00000000000E+00 0. -1.
         11    1    1    2    0    0 -0.56863343340E+01  0.46924044604E+00 -0.17764270587E+03  0.17773431164E+03  0.00000000000E+00 0.  1.
        -15    1    1    2    0    0 -0.51911891548E+01 -0.32995378448E+00  0.10539917364E+02  0.11887173818E+02  0.17770000000E+01 0. -1.
         15    1    1    2    0    0  0.43235990196E+01  0.47288226484E+01 -0.13023268753E+01  0.67756222159E+01  0.17770000000E+01 0.  1.
</event>
<event>
 6    1  0.1298204E-002  0.1839492E+03  0.7546771E-02  0.1067307E+00
        -11   -1    0    0    0    0  0.00000000000E+00  0.00000000000E+00  0.18250000000E+03  0.18250000000E+03  0.00000000000E+00 0.  1.
         11   -1    0    0    0    0 -0.00000000000E+00 -0.00000000000E+00 -0.18250000000E+03  0.18250000000E+03  0.00000000000E+00 0. -1.
        -11    1    1    2    0    0 -0.10507285259E+01 -0.29009961238E+01  0.18102451491E+03  0.18105080725E+03  0.00000000000E+00 0.  1.
         11    1    1    2    0    0 -0.86893387402E+01 -0.18203753724E+01 -0.13425490203E+03  0.13454812185E+03  0.00000000000E+00 0. -1.
        -15    1    1    2    0    0  0.47520422634E+01  0.56375539766E+01 -0.40221050962E+02  0.40929874053E+02  0.17770000000E+01 0.  1.
         15    1    1    2    0    0  0.49880250027E+01 -0.91618248038E+00 -0.65485619168E+01  0.84711968425E+01  0.17770000000E+01 0. -1.
</event>
<event>
 6    1  0.1298204E-002  0.1916505E+03  0.7546771E-02  0.1061396E+00
        -11   -1    0    0    0    0  0.00000000000E+00  0.00000000000E+00  0.18250000000E+03  0.18250000000E+03  0.00000000000E+00 0. -1.
         11   -1    0    0    0    0 -0.00000000000E+00 -0.00000000000E+00 -0.18250000000E+03  0.18250000000E+03  0.00000000000E+00 0. -1.
        -11    1    1    2    0    0  0.48348477193E+01 -0.53459398619E+01  0.16624435022E+03  0.16640053728E+03  0.00000000000E+00 0. -1.
         11    1    1    2    0    0  0.26690828544E+01 -0.11010010037E+01 -0.17332540392E+03  0.17334945010E+03  0.00000000000E+00 0. -1.
        -15    1    1    2    0    0  0.17160241460E+01  0.73066267829E+01 -0.55395920548E+01  0.94961225218E+01  0.17770000000E+01 0. -1.
         15    1    1    2    0    0 -0.92199547196E+01 -0.85968591728E+00  0.12620645753E+02  0.15753890095E+02  0.17770000000E+01 0.  1.
</event>
<event>
 6    1  0.1298204E-002  0.1865149E+03  0.7546771E-02  0.1065303E+00
        -11   -1    0    0    0    0  0.00000000000E+00  0.00000000000E+00  0.18250000000E+03  0.18250000000E+03  0.00000000000E+00 0. -1.
         11   -1    0    0    0    0 -0.00000000000E+00 -0.00000000000E+00 -0.18250000000E+03  0.18250000000E+03  0.00000000000E+00 0. -1.
        -11    1    1    2    0    0  0.29805752540E+01  0.61312612662E+01  0.16871676395E+03  0.16885444214E+03  0.00000000000E+00 0. -1.
         11    1    1    2    0    0 -0.31551765310E+01  0.67002018946E+01 -0.17833143031E+03  0.17848514471E+03  0.00000000000E+00 0. -1.
        -15    1    1    2    0    0 -0.24391193270E+01 -0.10131798582E+02  0.77310116533E+01  0.13096904817E+02  0.17770000000E+01 0. -1.
         15    1    1    2    0    0  0.26137206041E+01 -0.26996645789E+01  0.18836547057E+01  0.45635083308E+01  0.17770000000E+01 0.  1.
</event>
<event>
 6    1  0.1298204E-002  0.1762052E+03  0.7546771E-02  0.1073579E+00
        -11   -1    0    0    0    0  0.00000000000E+00  0.00000000000E+00  0.18250000000E+03  0.18250000000E+03  0.00000000000E+00 0. -1.
         11   -1    0    0    0    0 -0.00000000000E+00 -0.00000000000E+00 -0.18250000000E+03  0.18250000000E+03  0.00000000000E+00 0. -1.
        -11    1    1    2    0    0 -0.33222128067E+01  0.34147631899E+01  0.17813237886E+03  0.17819607769E+03  0.00000000000E+00 0. -1.
         11    1    1    2    0    0 -0.26920641269E+01  0.37104576720E+01 -0.17429828207E+03  0.17435855539E+03  0.00000000000E+00 0. -1.
        -15    1    1    2    0    0  0.51908914178E+01 -0.78873158145E+01 -0.38316887709E+01  0.10343822906E+02  0.17770000000E+01 0. -1.
         15    1    1    2    0    0  0.82338551583E+00  0.76209495256E+00 -0.24080227945E-02  0.21015440093E+01  0.17770000000E+01 0.  1.
</event>
<event>
 6    1  0.1298204E-002  0.1844730E+03  0.7546771E-02  0.1066895E+00
        -11   -1    0    0    0    0  0.00000000000E+00  0.00000000000E+00  0.18250000000E+03  0.18250000000E+03  0.00000000000E+00 0. -1.
         11   -1    0    0    0    0 -0.00000000000E+00 -0.00000000000E+00 -0.18250000000E+03  0.18250000000E+03  0.00000000000E+00 0.  1.
        -11    1    1    2    0    0  0.11235127827E+02 -0.48271055521E-01  0.18017700843E+03  0.18052696417E+03  0.00000000000E+00 0. -1.
         11    1    1    2    0    0 -0.17020338206E+01 -0.19017467682E+00 -0.11801184593E+03  0.11802427235E+03  0.00000000000E+00 0.  1.
        -15    1    1    2    0    0 -0.25436538991E+00 -0.29644592761E+01 -0.52314796131E+02  0.52429460647E+02  0.17770000000E+01 0.  1.
         15    1    1    2    0    0 -0.92787286169E+01  0.32029050085E+01 -0.98503663696E+01  0.14019302831E+02  0.17770000000E+01 0. -1.
</event>
<event>
 6    1  0.1298204E-002  0.1961161E+03  0.7546771E-02  0.1058105E+00
        -11   -1    0    0    0    0  0.00000000000E+00  0.00000000000E+00  0.18250000000E+03  0.18250000000E+03  0.00000000000E+00 0.  1.
         11   -1    0    0    0    0 -0.00000000000E+00 -0.00000000000E+00 -0.18250000000E+03  0.18250000000E+03  0.00000000000E+00 0.  1.
        -11    1    1    2    0    0 -0.12742202015E+00  0.35419206250E+01  0.16282462015E+03  0.16286318910E+03  0.00000000000E+00 0.  1.
         11    1    1    2    0    0 -0.30369396304E+01  0.21448870566E+01 -0.16884298292E+03  0.16888391405E+03  0.00000000000E+00 0.  1.
        -15    1    1    2    0    0  0.54433120366E+00 -0.36670241159E+01 -0.13120298714E+02  0.13749302880E+02  0.17770000000E+01 0. -1.
         15    1    1    2    0    0  0.26200304469E+01 -0.20197835657E+01  0.19138661490E+02  0.19503593972E+02  0.17770000000E+01 0.  1.
</event>
<event>
 6    1  0.1298204E-002  0.1827592E+03  0.7546771E-02  0.1068249E+00
        -11   -1    0    0    0    0  0.00000000000E+00  0.00000000000E+00  0.18250000000E+03  0.18250000000E+03  0.00000000000E+00 0. -1.
         11   -1    0    0    0    0 -0.00000000000E+00 -0.00000000000E+00 -0.18250000000E+03  0.18250000000E+03  0.00000000000E+00 0.  1.
        -11    1    1    2    0    0 -0.11124927097E+01  0.49237251128E+01  0.18217086234E+03  0.18224078521E+03  0.00000000000E+00 0. -1.
         11    1    1    2    0    0  0.16701740284E+01  0.15348973206E+01 -0.35860867524E+02  0.35932536936E+02  0.00000000000E+00 0.  1.
        -15    1    1    2    0    0 -0.35695751731E+01  0.90864893421E+00 -0.56062498749E+02  0.56211466844E+02  0.17770000000E+01 0. -1.
         15    1    1    2    0    0  0.30118938544E+01 -0.73672713676E+01 -0.90247496063E+02  0.90615211012E+02  0.17770000000E+01 0.  1.
</event>
<event>
 6    1  0.1298204E-002  0.1853049E+03  0.7546771E-02  0.1066244E+00
        -11   -1    0    0    0    0  0.00000000000E+00  0.00000000000E+00  0.18250000000E+03  0.18250000000E+03  0.00000000000E+00 0.  1.
         11   -1    0    0    0    0 -0.00000000000E+00 -0.00000000000E+00 -0.18250000000E+03  0.18250000000E+03  0.00000000000E+00 0.  1.
        -11    1    1    2    0    0 -0.97460272448E+00 -0.26067095361E+01  0.16786077155E+03  0.16788383904E+03  0.00000000000E+00 0.  1.
         11    1    1    2    0    0 -0.27924580300E+01  0.22042307513E+01 -0.17965984872E+03  0.17969506865E+03  0.00000000000E+00 0.  1.
        -15    1    1    2    0    0  0.59155857408E+01 -0.27643995577E+01  0.25081631121E+01  0.72169710245E+01  0.17770000000E+01 0.  1.
         15    1    1    2    0    0 -0.21485249864E+01  0.31668783425E+01  0.92909140644E+01  0.10204121285E+02  0.17770000000E+01 0.  1.
</event>
<event>
 6    1  0.1298204E-002  0.1860719E+03  0.7546771E-02  0.1065647E+00
        -11   -1    0    0    0    0  0.00000000000E+00  0.00000000000E+00  0.18250000000E+03  0.18250000000E+03  0.00000000000E+00 0. -1.
         11   -1    0    0    0    0 -0.00000000000E+00 -0.00000000000E+00 -0.18250000000E+03  0.18250000000E+03  0.00000000000E+00 0.  1.
        -11    1    1    2    0    0 -0.21464521797E+02  0.41677746821E+01  0.17758703848E+03  0.17892806454E+03  0.00000000000E+00 0. -1.
         11    1    1    2    0    0  0.49464693570E+01 -0.30773617215E+01 -0.13870074105E+03  0.13882302864E+03  0.00000000000E+00 0.  1.
        -15    1    1    2    0    0  0.20040542808E+02 -0.67374979474E+00 -0.38259784707E+02  0.43232466384E+02  0.17770000000E+01 0.  1.
         15    1    1    2    0    0 -0.35224903688E+01 -0.41666316595E+00 -0.62651273091E+00  0.40164404383E+01  0.17770000000E+01 0. -1.
</event>
<event>
 6    1  0.1298204E-002  0.1827568E+03  0.7546771E-02  0.1068251E+00
        -11   -1    0    0    0    0  0.00000000000E+00  0.00000000000E+00  0.18250000000E+03  0.18250000000E+03  0.00000000000E+00 0.  1.
         11   -1    0    0    0    0 -0.00000000000E+00 -0.00000000000E+00 -0.18250000000E+03  0.18250000000E+03  0.00000000000E+00 0.  1.
        -11    1    1    2    0    0 -0.38932502954E+01 -0.40525378569E+00  0.18220116513E+03  0.18224320620E+03  0.00000000000E+00 0.  1.
         11    1    1    2    0    0 -0.94530839777E+00 -0.69841347755E-01 -0.65302460564E+02  0.65309339619E+02  0.00000000000E+00 0.  1.
        -15    1    1    2    0    0  0.57668114898E+01 -0.19735785732E+01 -0.10289134500E+03  0.10308703959E+03  0.17770000000E+01 0.  1.
         15    1    1    2    0    0 -0.92825279665E+00  0.24486737066E+01 -0.14007359570E+02  0.14360414594E+02  0.17770000000E+01 0. -1.
</event>
<event>
 6    1  0.1298204E-002  0.1837694E+03  0.7546771E-02  0.1067449E+00
        -11   -1    0    0    0    0  0.00000000000E+00  0.00000000000E+00  0.18250000000E+03  0.18250000000E+03  0.00000000000E+00 0. -1.
         11   -1    0    0    0    0 -0.00000000000E+00 -0.00000000000E+00 -0.18250000000E+03  0.18250000000E+03  0.00000000000E+00 0.  1.
        -11    1    1    2    0    0  0.18417743363E+01  0.94621962528E+00  0.14647002745E+03  0.14648466269E+03  0.00000000000E+00 0. -1.
         11    1    1    2    0    0  0.17779452869E+01 -0.38265428133E+01 -0.18118147115E+03  0.18123059623E+03  0.00000000000E+00 0.  1.
        -15    1    1    2    0    0 -0.58190000921E+01  0.24655764924E+00  0.31975431057E+02  0.32550076391E+02  0.17770000000E+01 0.  1.
         15    1    1    2    0    0  0.21992804690E+01  0.26337655388E+01  0.27360126502E+01  0.47346646890E+01  0.17770000000E+01 0. -1.
</event>
<event>
 6    1  0.1298204E-002  0.1601829E+03  0.7546771E-02  0.1087752E+00
        -11   -1    0    0    0    0  0.00000000000E+00  0.00000000000E+00  0.18250000000E+03  0.18250000000E+03  0.00000000000E+00 0.  1.
         11   -1    0    0    0    0 -0.00000000000E+00 -0.00000000000E+00 -0.18250000000E+03  0.18250000000E+03  0.00000000000E+00 0.  1.
        -11    1    1    2    0    0 -0.38868493357E+01 -0.29851837236E+00  0.16592128113E+03  0.16596706975E+03  0.00000000000E+00 0.  1.
         11    1    1    2    0    0 -0.81545840330E+01 -0.15751609279E+02 -0.15422283611E+03  0.15523947183E+03  0.00000000000E+00 0.  1.
        -15    1    1    2    0    0  0.43582966060E+01  0.14806211992E+02 -0.24320006961E+02  0.28858952345E+02  0.17770000000E+01 0.  1.
         15    1    1    2    0    0  0.76831367627E+01  0.12439156595E+01  0.12621561949E+02  0.14934506075E+02  0.17770000000E+01 0. -1.
</event>
<event>
 6    1  0.1298204E-002  0.1838067E+03  0.7546771E-02  0.1067419E+00
        -11   -1    0    0    0    0  0.00000000000E+00  0.00000000000E+00  0.18250000000E+03  0.18250000000E+03  0.00000000000E+00 0.  1.
         11   -1    0    0    0    0 -0.00000000000E+00 -0.00000000000E+00 -0.18250000000E+03  0.18250000000E+03  0.00000000000E+00 0. -1.
        -11    1    1    2    0    0 -0.52194039595E+01  0.67590201743E+01  0.18099193479E+03  0.18119328627E+03  0.00000000000E+00 0.  1.
         11    1    1    2    0    0  0.23946630913E+01 -0.41359009469E+00 -0.13603407595E+03  0.13605578006E+03  0.00000000000E+00 0. -1.
        -15    1    1    2    0    0 -0.33808860035E+01 -0.25341340717E+01 -0.34937506065E+02  0.35236902314E+02  0.17770000000E+01 0.  1.
         15    1    1    2    0    0  0.62056268716E+01 -0.38112960079E+01 -0.10020352769E+02  0.12514031355E+02  0.17770000000E+01 0. -1.
</event>
<event>
 6    1  0.1298204E-002  0.2077068E+03  0.7546771E-02  0.1049992E+00
        -11   -1    0    0    0    0  0.00000000000E+00  0.00000000000E+00  0.18250000000E+03  0.18250000000E+03  0.00000000000E+00 0.  1.
         11   -1    0    0    0    0 -0.00000000000E+00 -0.00000000000E+00 -0.18250000000E+03  0.18250000000E+03  0.00000000000E+00 0.  1.
        -11    1    1    2    0    0 -0.31917247468E+01 -0.32365242275E+01  0.15722745986E+03  0.15729315411E+03  0.00000000000E+00 0.  1.
         11    1    1    2    0    0  0.12515885149E-01  0.18183937528E+01 -0.13181435252E+03  0.13182689499E+03  0.00000000000E+00 0.  1.
        -15    1    1    2    0    0  0.23458403713E+01  0.53107961529E+01  0.24772310173E+02  0.25505540636E+02  0.17770000000E+01 0. -1.
         15    1    1    2    0    0  0.83336849031E+00 -0.38926656781E+01 -0.50185417515E+02  0.50374410262E+02  0.17770000000E+01 0.  1.
</event>
<event>
 6    1  0.1298204E-002  0.1846661E+03  0.7546771E-02  0.1066744E+00
        -11   -1    0    0    0    0  0.00000000000E+00  0.00000000000E+00  0.18250000000E+03  0.18250000000E+03  0.00000000000E+00 0.  1.
         11   -1    0    0    0    0 -0.00000000000E+00 -0.00000000000E+00 -0.18250000000E+03  0.18250000000E+03  0.00000000000E+00 0. -1.
        -11    1    1    2    0    0  0.32498640294E+00  0.19691780006E+01  0.11985572868E+03  0.11987234450E+03  0.00000000000E+00 0.  1.
         11    1    1    2    0    0  0.48007447595E+01 -0.33778949635E+00 -0.18026965648E+03  0.18033388561E+03  0.00000000000E+00 0. -1.
        -15    1    1    2    0    0 -0.60310201567E+01  0.89109671213E+00  0.25539956883E+01  0.68445511508E+01  0.17770000000E+01 0.  1.
         15    1    1    2    0    0  0.90528899427E+00 -0.25224852164E+01  0.57859932111E+02  0.57949218741E+02  0.17770000000E+01 0.  1.
</event>
<event>
 6    1  0.1298204E-002  0.1845992E+03  0.7546771E-02  0.1066796E+00
        -11   -1    0    0    0    0  0.00000000000E+00  0.00000000000E+00  0.18250000000E+03  0.18250000000E+03  0.00000000000E+00 0.  1.
         11   -1    0    0    0    0 -0.00000000000E+00 -0.00000000000E+00 -0.18250000000E+03  0.18250000000E+03  0.00000000000E+00 0. -1.
        -11    1    1    2    0    0 -0.45801902906E+01  0.44172722102E+01  0.16851834452E+03  0.16863843831E+03  0.00000000000E+00 0.  1.
         11    1    1    2    0    0  0.17151349052E+01  0.31226980195E+01 -0.18036556749E+03  0.18040075073E+03  0.00000000000E+00 0. -1.
        -15    1    1    2    0    0 -0.85722554424E+00 -0.58112308556E+01  0.58403483027E+01  0.84718732868E+01  0.17770000000E+01 0. -1.
         15    1    1    2    0    0  0.37222809297E+01 -0.17287393740E+01  0.60068746689E+01  0.74889376704E+01  0.17770000000E+01 0.  1.
</event>
<event>
 6    1  0.1298204E-002  0.1886899E+03  0.7546771E-02  0.1063632E+00
        -11   -1    0    0    0    0  0.00000000000E+00  0.00000000000E+00  0.18250000000E+03  0.18250000000E+03  0.00000000000E+00 0.  1.
         11   -1    0    0    0    0 -0.00000000000E+00 -0.00000000000E+00 -0.18250000000E+03  0.18250000000E+03  0.00000000000E+00 0.  1.
        -11    1    1    2    0    0 -0.12066891097E+01 -0.65295660215E+00  0.43837944140E+02  0.43859409450E+02  0.00000000000E+00 0.  1.
         11    1    1    2    0    0  0.12373750924E+02 -0.40754641090E+02 -0.17108833190E+03  0.17631014660E+03  0.00000000000E+00 0.  1.
        -15    1    1    2    0    0  0.13096200387E+02  0.29169339830E+02  0.30150022985E+02  0.43983433992E+02  0.17770000000E+01 0. -1.
         15    1    1    2    0    0 -0.24263262201E+02  0.12238257862E+02  0.97100364777E+02  0.10084700996E+03  0.17770000000E+01 0.  1.
</event>
<event>
 6    1  0.1298204E-002  0.1838568E+03  0.7546771E-02  0.1067380E+00
        -11   -1    0    0    0    0  0.00000000000E+00  0.00000000000E+00  0.18250000000E+03  0.18250000000E+03  0.00000000000E+00 0. -1.
         11   -1    0    0    0    0 -0.00000000000E+00 -0.00000000000E+00 -0.18250000000E+03  0.18250000000E+03  0.00000000000E+00 0. -1.
        -11    1    1    2    0    0 -0.23986440942E+01  0.42769875705E+01  0.10968076881E+03  0.10979033274E+03  0.00000000000E+00 0. -1.
         11    1    1    2    0    0 -0.61005080496E+01 -0.60867301691E+01 -0.18093808621E+03  0.18114319066E+03  0.00000000000E+00 0. -1.
        -15    1    1    2    0    0  0.34128221442E+01 -0.35615811540E+01  0.45956470221E+01  0.69720811711E+01  0.17770000000E+01 0. -1.
         15    1    1    2    0    0  0.50863299997E+01  0.53713237526E+01  0.66661670375E+02  0.67094395428E+02  0.17770000000E+01 0.  1.
</event>
<event>
 6    1  0.1298204E-002  0.1861565E+03  0.7546771E-02  0.1065581E+00
        -11   -1    0    0    0    0  0.00000000000E+00  0.00000000000E+00  0.18250000000E+03  0.18250000000E+03  0.00000000000E+00 0.  1.
         11   -1    0    0    0    0 -0.00000000000E+00 -0.00000000000E+00 -0.18250000000E+03  0.18250000000E+03  0.00000000000E+00 0.  1.
        -11    1    1    2    0    0  0.58695539103E+01  0.80824409916E+01  0.16898537083E+03  0.16928033870E+03  0.00000000000E+00 0.  1.
         11    1    1    2    0    0 -0.20738347879E+01 -0.26006214019E+01 -0.17881256907E+03  0.17884350388E+03  0.00000000000E+00 0.  1.
        -15    1    1    2    0    0  0.52813192791E+00 -0.78618489227E+01  0.78690450818E+01  0.11276843145E+02  0.17770000000E+01 0.  1.
         15    1    1    2    0    0 -0.43238510503E+01  0.23800293330E+01  0.19581531662E+01  0.55993142753E+01  0.17770000000E+01 0. -1.
</event>
<event>
 6    1  0.1298204E-002  0.1831132E+03  0.7546771E-02  0.1067968E+00
        -11   -1    0    0    0    0  0.00000000000E+00  0.00000000000E+00  0.18250000000E+03  0.18250000000E+03  0.00000000000E+00 0.  1.
         11   -1    0    0    0    0 -0.00000000000E+00 -0.00000000000E+00 -0.18250000000E+03  0.18250000000E+03  0.00000000000E+00 0. -1.
        -11    1    1    2    0    0 -0.10826987738E+01 -0.31624877843E+01  0.18185612075E+03  0.18188683905E+03  0.00000000000E+00 0.  1.
         11    1    1    2    0    0  0.10134775675E+01  0.15281603477E+01 -0.10127270781E+03  0.10128930723E+03  0.00000000000E+00 0. -1.
        -15    1    1    2    0    0  0.39938993821E+01 -0.35573059213E+01 -0.17604686418E+02  0.18484814594E+02  0.17770000000E+01 0.  1.
         15    1    1    2    0    0 -0.39246781758E+01  0.51916333579E+01 -0.62978726514E+02  0.63339039131E+02  0.17770000000E+01 0. -1.
</event>
<event>
 6    1  0.1298204E-002  0.2007262E+03  0.7546771E-02  0.1054807E+00
        -11   -1    0    0    0    0  0.00000000000E+00  0.00000000000E+00  0.18250000000E+03  0.18250000000E+03  0.00000000000E+00 0.  1.
         11   -1    0    0    0    0 -0.00000000000E+00 -0.00000000000E+00 -0.18250000000E+03  0.18250000000E+03  0.00000000000E+00 0. -1.
        -11    1    1    2    0    0  0.55511734400E+01 -0.29728450090E+01  0.16415302129E+03  0.16427375850E+03  0.00000000000E+00 0.  1.
         11    1    1    2    0    0 -0.97960901689E+01  0.63604686669E+01 -0.14754765755E+03  0.14800922333E+03  0.00000000000E+00 0. -1.
        -15    1    1    2    0    0 -0.13420423235E+02  0.10311590399E+02 -0.23717516224E+02  0.29191008225E+02  0.17770000000E+01 0. -1.
         15    1    1    2    0    0  0.17665339964E+02 -0.13699214057E+02  0.71121524817E+01  0.23526009941E+02  0.17770000000E+01 0.  1.
</event>
<event>
 6    1  0.1298204E-002  0.1178362E+03  0.7546771E-02  0.1136114E+00
        -11   -1    0    0    0    0  0.00000000000E+00  0.00000000000E+00  0.18250000000E+03  0.18250000000E+03  0.00000000000E+00 0.  1.
         11   -1    0    0    0    0 -0.00000000000E+00 -0.00000000000E+00 -0.18250000000E+03  0.18250000000E+03  0.00000000000E+00 0.  1.
        -11    1    1    2    0    0 -0.10090388695E+01 -0.40966184247E+01  0.11415360908E+03  0.11423154953E+03  0.00000000000E+00 0.  1.
         11    1    1    2    0    0  0.15173649605E+02 -0.44450607724E+01 -0.59759330525E+02  0.61815659766E+02  0.00000000000E+00 0.  1.
        -15    1    1    2    0    0  0.87278730798E+00  0.47633379091E+01  0.66678798521E+02  0.66878031123E+02  0.17770000000E+01 0.  1.
         15    1    1    2    0    0 -0.15037398043E+02  0.37783412879E+01 -0.12107307708E+03  0.12207475958E+03  0.17770000000E+01 0.  1.
</event>
<event>
 6    1  0.1298204E-002  0.1843980E+03  0.7546771E-02  0.1066954E+00
        -11   -1    0    0    0    0  0.00000000000E+00  0.00000000000E+00  0.18250000000E+03  0.18250000000E+03  0.00000000000E+00 0. -1.
         11   -1    0    0    0    0 -0.00000000000E+00 -0.00000000000E+00 -0.18250000000E+03  0.18250000000E+03  0.00000000000E+00 0.  1.
        -11    1    1    2    0    0 -0.64654107796E+01 -0.48262694951E+01  0.18042168366E+03  0.18060198877E+03  0.00000000000E+00 0. -1.
         11    1    1    2    0    0 -0.97232201232E+00  0.91658285115E+00 -0.57218259654E+02  0.57233860363E+02  0.00000000000E+00 0.  1.
        -15    1    1    2    0    0  0.40405714815E+01 -0.59887353830E+01 -0.62120042283E+01  0.96921563605E+01  0.17770000000E+01 0. -1.
         15    1    1    2    0    0  0.33971613104E+01  0.98984220269E+01 -0.11699141977E+03  0.11747199451E+03  0.17770000000E+01 0.  1.
</event>
<event>
 6    1  0.1298204E-002  0.1972556E+03  0.7546771E-02  0.1057281E+00
        -11   -1    0    0    0    0  0.00000000000E+00  0.00000000000E+00  0.18250000000E+03  0.18250000000E+03  0.00000000000E+00 0. -1.
         11   -1    0    0    0    0 -0.00000000000E+00 -0.00000000000E+00 -0.18250000000E+03  0.18250000000E+03  0.00000000000E+00 0. -1.
        -11    1    1    2    0    0 -0.28208176539E+01 -0.22528352529E+01  0.16578637283E+03  0.16582567261E+03  0.00000000000E+00 0. -1.
         11    1    1    2    0    0  0.24349128961E+01  0.59857500598E+00 -0.16772561275E+03  0.16774435390E+03  0.00000000000E+00 0. -1.
        -15    1    1    2    0    0 -0.24812202065E+01 -0.49749429419E+01  0.15168760826E+02  0.16252862671E+02  0.17770000000E+01 0. -1.
         15    1    1    2    0    0  0.28671249643E+01  0.66292031888E+01 -0.13229520908E+02  0.15177110823E+02  0.17770000000E+01 0.  1.
</event>
<event>
 6    1  0.1298204E-002  0.1858899E+03  0.7546771E-02  0.1065788E+00
        -11   -1    0    0    0    0  0.00000000000E+00  0.00000000000E+00  0.18250000000E+03  0.18250000000E+03  0.00000000000E+00 0.  1.
         11   -1    0    0    0    0 -0.00000000000E+00 -0.00000000000E+00 -0.18250000000E+03  0.18250000000E+03  0.00000000000E+00 0.  1.
        -11    1    1    2    0    0 -0.83943713492E+01  0.58175878545E+01  0.17881866002E+03  0.17911008618E+03  0.00000000000E+00 0.  1.
         11    1    1    2    0    0 -0.26800886628E+01 -0.49405091494E+00 -0.15327788309E+03  0.15330210829E+03  0.00000000000E+00 0.  1.
        -15    1    1    2    0    0  0.94522786304E+01 -0.53062675995E+01 -0.27417663137E+02  0.29536215533E+02  0.17770000000E+01 0.  1.
         15    1    1    2    0    0  0.16221813816E+01 -0.17269340047E-01  0.18768862116E+01  0.30515899981E+01  0.17770000000E+01 0. -1.
</event>
<event>
 6    1  0.1298204E-002  0.1901958E+03  0.7546771E-02  0.1062489E+00
        -11   -1    0    0    0    0  0.00000000000E+00  0.00000000000E+00  0.18250000000E+03  0.18250000000E+03  0.00000000000E+00 0. -1.
         11   -1    0    0    0    0 -0.00000000000E+00 -0.00000000000E+00 -0.18250000000E+03  0.18250000000E+03  0.00000000000E+00 0. -1.
        -11    1    1    2    0    0  0.24191992267E+02 -0.17830623153E+01  0.17311291718E+03  0.17480421590E+03  0.00000000000E+00 0. -1.
         11    1    1    2    0    0  0.15536674016E+01 -0.60712023596E+01 -0.15510478994E+03  0.15523134105E+03  0.00000000000E+00 0. -1.
        -15    1    1    2    0    0 -0.14249438258E+02  0.49665630481E+01 -0.17201810683E+02  0.22951541538E+02  0.17770000000E+01 0. -1.
         15    1    1    2    0    0 -0.11496221411E+02  0.28877016267E+01 -0.80631655534E+00  0.12012901515E+02  0.17770000000E+01 0.  1.
</event>
<event>
 6    1  0.1298204E-002  0.1830015E+03  0.7546771E-02  0.1068056E+00
        -11   -1    0    0    0    0  0.00000000000E+00  0.00000000000E+00  0.18250000000E+03  0.18250000000E+03  0.00000000000E+00 0.  1.
         11   -1    0    0    0    0 -0.00000000000E+00 -0.00000000000E+00 -0.18250000000E+03  0.18250000000E+03  0.00000000000E+00 0. -1.
        -11    1    1    2    0    0 -0.24998000427E+01  0.45661396331E+01  0.10445021376E+03  0.10457985364E+03  0.00000000000E+00 0.  1.
         11    1    1    2    0    0 -0.25918570997E+01  0.31306790392E+01 -0.18195313552E+03  0.18199852307E+03  0.00000000000E+00 0. -1.
        -15    1    1    2    0    0 -0.13142963660E+01 -0.70419407116E+00  0.15328910621E+02  0.15503434912E+02  0.17770000000E+01 0.  1.
         15    1    1    2    0    0  0.64059535084E+01 -0.69926246011E+01  0.62174011137E+02  0.62918188380E+02  0.17770000000E+01 0. -1.
</event>
<event>
 6    1  0.1298204E-002  0.1837985E+03  0.7546771E-02  0.1067426E+00
        -11   -1    0    0    0    0  0.00000000000E+00  0.00000000000E+00  0.18250000000E+03  0.18250000000E+03  0.00000000000E+00 0.  1.
         11   -1    0    0    0    0 -0.00000000000E+00 -0.00000000000E+00 -0.18250000000E+03  0.18250000000E+03  0.00000000000E+00 0. -1.
        -11    1    1    2    0    0 -0.19160590307E+01  0.29575765180E+01  0.18116726977E+03  0.18120154022E+03  0.00000000000E+00 0.  1.
         11    1    1    2    0    0 -0.33365695149E+01  0.12108195141E+01 -0.92590369558E+02  0.92658379626E+02  0.00000000000E+00 0. -1.
        -15    1    1    2    0    0  0.10442714421E+02 -0.20558995044E+01 -0.80104517308E+02  0.80828017602E+02  0.17770000000E+01 0. -1.
         15    1    1    2    0    0 -0.51900858759E+01 -0.21124965277E+01 -0.84723829061E+01  0.10312062552E+02  0.17770000000E+01 0. -1.
</event>
<event>
 6    1  0.1298204E-002  0.1893236E+03  0.7546771E-02  0.1063149E+00
        -11   -1    0    0    0    0  0.00000000000E+00  0.00000000000E+00  0.18250000000E+03  0.18250000000E+03  0.00000000000E+00 0.  1.
         11   -1    0    0    0    0 -0.00000000000E+00 -0.00000000000E+00 -0.18250000000E+03  0.18250000000E+03  0.00000000000E+00 0. -1.
        -11    1    1    2    0    0 -0.36074786751E+01  0.10427668897E+02  0.17532956579E+03  0.17567642648E+03  0.00000000000E+00 0.  1.
         11    1    1    2    0    0 -0.27395413311E+01 -0.13094056039E+02 -0.14757635785E+03  0.14818144548E+03  0.00000000000E+00 0. -1.
        -15    1    1    2    0    0  0.52147671312E+01 -0.11282640117E+02 -0.34167232928E+01  0.13012436025E+02  0.17770000000E+01 0.  1.
         15    1    1    2    0    0  0.11322528750E+01  0.13949027259E+02 -0.24336484654E+02  0.28129692006E+02  0.17770000000E+01 0. -1.
</event>
<event>
 6    1  0.1298204E-002  0.1835856E+03  0.7546771E-02  0.1067594E+00
        -11   -1    0    0    0    0  0.00000000000E+00  0.00000000000E+00  0.18250000000E+03  0.18250000000E+03  0.00000000000E+00 0. -1.
         11   -1    0    0    0    0 -0.00000000000E+00 -0.00000000000E+00 -0.18250000000E+03  0.18250000000E+03  0.00000000000E+00 0. -1.
        -11    1    1    2    0    0 -0.40053590091E+01 -0.25271076684E+01  0.18135261926E+03  0.18141444729E+03  0.00000000000E+00 0. -1.
         11    1    1    2    0    0 -0.12949149161E+01 -0.25943467247E+01 -0.96993423835E+02  0.97036754412E+02  0.00000000000E+00 0. -1.
        -15    1    1    2    0    0  0.18006493852E+01  0.60178954616E+01 -0.91939421294E+01  0.11275801740E+02  0.17770000000E+01 0.  1.
         15    1    1    2    0    0  0.34996245400E+01 -0.89644106854E+00 -0.75165253295E+02  0.75272996556E+02  0.17770000000E+01 0. -1.
</event>
<event>
 6    1  0.1298204E-002  0.1854448E+03  0.7546771E-02  0.1066135E+00
        -11   -1    0    0    0    0  0.00000000000E+00  0.00000000000E+00  0.18250000000E+03  0.18250000000E+03  0.00000000000E+00 0. -1.
         11   -1    0    0    0    0 -0.00000000000E+00 -0.00000000000E+00 -0.18250000000E+03  0.18250000000E+03  0.00000000000E+00 0. -1.
        -11    1    1    2    0    0 -0.21725393030E+01 -0.17632501624E+01  0.17953337756E+03  0.17955517992E+03  0.00000000000E+00 0. -1.
         11    1    1    2    0    0  0.68582634455E+01  0.53287371182E+01 -0.17309717535E+03  0.17331492529E+03  0.00000000000E+00 0. -1.
        -15    1    1    2    0    0 -0.48860310855E+01  0.53551807077E+00 -0.14359637427E+01  0.54203136665E+01  0.17770000000E+01 0.  1.
         15    1    1    2    0    0  0.20030694298E+00 -0.41010050266E+01 -0.50002384689E+01  0.67095811229E+01  0.17770000000E+01 0. -1.
</event>
<event>
 6    1  0.1298204E-002  0.1830119E+03  0.7546771E-02  0.1068048E+00
        -11   -1    0    0    0    0  0.00000000000E+00  0.00000000000E+00  0.18250000000E+03  0.18250000000E+03  0.00000000000E+00 0. -1.
         11   -1    0    0    0    0 -0.00000000000E+00 -0.00000000000E+00 -0.18250000000E+03  0.18250000000E+03  0.00000000000E+00 0.  1.
        -11    1    1    2    0    0  0.10797476990E+02  0.26652066923E+01  0.18164798834E+03  0.18198813287E+03  0.00000000000E+00 0. -1.
         11    1    1    2    0    0 -0.19925170560E+01 -0.56754625220E+00 -0.80432873581E+02  0.80459551238E+02  0.00000000000E+00 0.  1.
        -15    1    1    2    0    0 -0.43948409311E+01  0.48168316520E+01 -0.25751089794E+02  0.26623163759E+02  0.17770000000E+01 0. -1.
         15    1    1    2    0    0 -0.44101190025E+01 -0.69144920921E+01 -0.75464024968E+02  0.75929152135E+02  0.17770000000E+01 0.  1.
</event>
<event>
 6    1  0.1298204E-002  0.1830533E+03  0.7546771E-02  0.1068015E+00
        -11   -1    0    0    0    0  0.00000000000E+00  0.00000000000E+00  0.18250000000E+03  0.18250000000E+03  0.00000000000E+00 0.  1.
         11   -1    0    0    0    0 -0.00000000000E+00 -0.00000000000E+00 -0.18250000000E+03  0.18250000000E+03  0.00000000000E+00 0.  1.
        -11    1    1    2    0    0 -0.25230365365E+01 -0.45548719160E+01  0.18187216242E+03  0.18194668460E+03  0.00000000000E+00 0.  1.
         11    1    1    2    0    0  0.78822724530E+00  0.68384373598E+01 -0.10721159866E+03  0.10743236204E+03  0.00000000000E+00 0.  1.
        -15    1    1    2    0    0  0.15642140899E+00 -0.67264228851E+01 -0.41358068897E+02  0.41939442347E+02  0.17770000000E+01 0. -1.
         15    1    1    2    0    0  0.15783878823E+01  0.44428574413E+01 -0.33302494870E+02  0.33681511013E+02  0.17770000000E+01 0.  1.
</event>
<event>
 6    1  0.1298204E-002  0.1835402E+03  0.7546771E-02  0.1067630E+00
        -11   -1    0    0    0    0  0.00000000000E+00  0.00000000000E+00  0.18250000000E+03  0.18250000000E+03  0.00000000000E+00 0.  1.
         11   -1    0    0    0    0 -0.00000000000E+00 -0.00000000000E+00 -0.18250000000E+03  0.18250000000E+03  0.00000000000E+00 0.  1.
        -11    1    1    2    0    0 -0.14812374549E+01  0.26508675861E+01  0.18143441770E+03  0.18145982775E+03  0.00000000000E+00 0.  1.
         11    1    1    2    0    0 -0.34460388312E+01 -0.83609025618E+00 -0.15706709103E+03  0.15710711414E+03  0.00000000000E+00 0.  1.
        -15    1    1    2    0    0  0.62625337766E+01 -0.22506819761E+01 -0.11799577020E+02  0.13662819823E+02  0.17770000000E+01 0. -1.
         15    1    1    2    0    0 -0.13352574905E+01  0.43590464622E+00 -0.12567749649E+02  0.12770238278E+02  0.17770000000E+01 0. -1.
</event>
<event>
 6    1  0.1298204E-002  0.1826094E+03  0.7546771E-02  0.1068368E+00
        -11   -1    0    0    0    0  0.00000000000E+00  0.00000000000E+00  0.18250000000E+03  0.18250000000E+03  0.00000000000E+00 0. -1.
         11   -1    0    0    0    0 -0.00000000000E+00 -0.00000000000E+00 -0.18250000000E+03  0.18250000000E+03  0.00000000000E+00 0. -1.
        -11    1    1    2    0    0 -0.39116451891E+01  0.50978036603E+01  0.18227741825E+03  0.18239064059E+03  0.00000000000E+00 0. -1.
         11    1    1    2    0    0  0.82101951373E+00 -0.13436628373E+00 -0.24303645796E+01  0.25688128250E+01  0.00000000000E+00 0. -1.
        -15    1    1    2    0    0  0.19497609205E+01 -0.20486821623E+01 -0.37628310566E+02  0.37776264391E+02  0.17770000000E+01 0.  1.
         15    1    1    2    0    0  0.11408647549E+01 -0.29147552143E+01 -0.14221874310E+03  0.14226428220E+03  0.17770000000E+01 0. -1.
</event>
<event>
 6    1  0.1298204E-002  0.1826425E+03  0.7546771E-02  0.1068341E+00
        -11   -1    0    0    0    0  0.00000000000E+00  0.00000000000E+00  0.18250000000E+03  0.18250000000E+03  0.00000000000E+00 0. -1.
         11   -1    0    0    0    0 -0.00000000000E+00 -0.00000000000E+00 -0.18250000000E+03  0.18250000000E+03  0.00000000000E+00 0. -1.
        -11    1    1    2    0    0 -0.11056347858E+01  0.39241302249E+01  0.18231196424E+03  0.18235754312E+03  0.00000000000E+00 0. -1.
         11    1    1    2    0    0  0.51870626950E-01 -0.14576350669E+01 -0.29758050969E+02  0.29793774316E+02  0.00000000000E+00 0. -1.
        -15    1    1    2    0    0 -0.24352012176E+01  0.11172577612E+01 -0.93918983378E+02  0.93973994475E+02  0.17770000000E+01 0. -1.
         15    1    1    2    0    0  0.34889653765E+01 -0.35837529193E+01 -0.58634929898E+02  0.58874688088E+02  0.17770000000E+01 0.  1.
</event>
<event>
 6    1  0.1298204E-002  0.1848790E+03  0.7546771E-02  0.1066577E+00
        -11   -1    0    0    0    0  0.00000000000E+00  0.00000000000E+00  0.18250000000E+03  0.18250000000E+03  0.00000000000E+00 0. -1.
         11   -1    0    0    0    0 -0.00000000000E+00 -0.00000000000E+00 -0.18250000000E+03  0.18250000000E+03  0.00000000000E+00 0.  1.
        -11    1    1    2    0    0  0.38734175042E+01  0.19945898839E+01  0.17341324588E+03  0.17346796707E+03  0.00000000000E+00 0. -1.
         11    1    1    2    0    0 -0.55176059561E+00 -0.26314232293E+01 -0.18010095891E+03  0.18012102661E+03  0.00000000000E+00 0.  1.
        -15    1    1    2    0    0 -0.18404339849E+01  0.31324475678E+01  0.69038113077E+01  0.80012351915E+01  0.17770000000E+01 0. -1.
         15    1    1    2    0    0 -0.14812229237E+01 -0.24956142224E+01 -0.21609828300E+00  0.34097711308E+01  0.17770000000E+01 0.  1.
</event>
<event>
 6    1  0.1298204E-002  0.1863517E+03  0.7546771E-02  0.1065430E+00
        -11   -1    0    0    0    0  0.00000000000E+00  0.00000000000E+00  0.18250000000E+03  0.18250000000E+03  0.00000000000E+00 0.  1.
         11   -1    0    0    0    0 -0.00000000000E+00 -0.00000000000E+00 -0.18250000000E+03  0.18250000000E+03  0.00000000000E+00 0.  1.
        -11    1    1    2    0    0  0.24100968462E+01 -0.33310389249E+01  0.17860095024E+03  0.17864826843E+03  0.00000000000E+00 0.  1.
         11    1    1    2    0    0  0.22574009356E+01 -0.22621412578E+01 -0.16264701721E+03  0.16267841083E+03  0.00000000000E+00 0.  1.
        -15    1    1    2    0    0 -0.23389378684E+01  0.51671876136E+01  0.13689588305E+01  0.60993635296E+01  0.17770000000E+01 0.  1.
         15    1    1    2    0    0 -0.23285599134E+01  0.42599256913E+00 -0.17322891855E+02  0.17573957214E+02  0.17770000000E+01 0.  1.
</event>
<event>
 6    1  0.1298204E-002  0.1718891E+03  0.7546771E-02  0.1077229E+00
        -11   -1    0    0    0    0  0.00000000000E+00  0.00000000000E+00  0.18250000000E+03  0.18250000000E+03  0.00000000000E+00 0.  1.
         11   -1    0    0    0    0 -0.00000000000E+00 -0.00000000000E+00 -0.18250000000E+03  0.18250000000E+03  0.00000000000E+00 0.  1.
        -11    1    1    2    0    0  0.20382895370E+01  0.47827287456E+01  0.17529324108E+03  0.17537032100E+03  0.00000000000E+00 0.  1.
         11    1    1    2    0    0 -0.13527936044E+02  0.52839023087E+01 -0.16819442905E+03  0.16882029096E+03  0.00000000000E+00 0.  1.
        -15    1    1    2    0    0  0.25306090222E+01 -0.45134406266E+01  0.28829712991E+01  0.61842041384E+01  0.17770000000E+01 0.  1.
         15    1    1    2    0    0  0.89590374846E+01 -0.55531904276E+01 -0.99817833360E+01  0.14625183901E+02  0.17770000000E+01 0.  1.
</event>
<event>
 6    1  0.1298204E-002  0.1874918E+03  0.7546771E-02  0.1064549E+00
        -11   -1    0    0    0    0  0.00000000000E+00  0.00000000000E+00  0.18250000000E+03  0.18250000000E+03  0.00000000000E+00 0.  1.
         11   -1    0    0    0    0 -0.00000000000E+00 -0.00000000000E+00 -0.18250000000E+03  0.18250000000E+03  0.00000000000E+00 0. -1.
        -11    1    1    2    0    0 -0.23145606411E+01  0.58210704059E+01  0.17292781397E+03  0.17304124045E+03  0.00000000000E+00 0.  1.
         11    1    1    2    0    0  0.36274977607E+01 -0.21963012891E+01 -0.17745755567E+03  0.17750821542E+03  0.00000000000E+00 0. -1.
        -15    1    1    2    0    0  0.42313483458E+01 -0.58597228627E+01  0.18948073251E+01  0.76804091461E+01  0.17770000000E+01 0. -1.
         15    1    1    2    0    0 -0.55442854655E+01  0.22349537458E+01  0.26349343747E+01  0.67701349859E+01  0.17770000000E+01 0. -1.
</event>
<event>
 6    1  0.1298204E-002  0.1872752E+03  0.7546771E-02  0.1064716E+00
        -11   -1    0    0    0    0  0.00000000000E+00  0.00000000000E+00  0.18250000000E+03  0.18250000000E+03  0.00000000000E+00 0. -1.
         11   -1    0    0    0    0 -0.00000000000E+00 -0.00000000000E+00 -0.18250000000E+03  0.18250000000E+03  0.00000000000E+00 0.  1.
        -11    1    1    2    0    0  0.82570872949E+01  0.74007225378E+01  0.17737856040E+03  0.17772479814E+03  0.00000000000E+00 0. -1.
         11    1    1    2    0    0  0.30330915791E+01 -0.41237054852E+01 -0.14249290057E+03  0.14258482144E+03  0.00000000000E+00 0.  1.
        -15    1    1    2    0    0 -0.13252444322E+01 -0.97569319036E+01 -0.27437832535E+01  0.10374973182E+02  0.17770000000E+01 0. -1.
         15    1    1    2    0    0 -0.99649344418E+01  0.64799148509E+01 -0.32141876577E+02  0.34315407237E+02  0.17770000000E+01 0.  1.
</event>
<event>
 6    1  0.1298204E-002  0.1827560E+03  0.7546771E-02  0.1068251E+00
        -11   -1    0    0    0    0  0.00000000000E+00  0.00000000000E+00  0.18250000000E+03  0.18250000000E+03  0.00000000000E+00 0. -1.
         11   -1    0    0    0    0 -0.00000000000E+00 -0.00000000000E+00 -0.18250000000E+03  0.18250000000E+03  0.00000000000E+00 0. -1.
        -11    1    1    2    0    0 -0.13968244783E-01 -0.42560213027E+01  0.94380577006E+02  0.94476490348E+02  0.00000000000E+00 0. -1.
         11    1    1    2    0    0 -0.26492963256E+01 -0.28308012270E+01 -0.18220278715E+03  0.18224403379E+03  0.00000000000E+00 0. -1.
        -15    1    1    2    0    0  0.29979682900E+01  0.42826108589E+01  0.61310495253E+02  0.61558615375E+02  0.17770000000E+01 0. -1.
         15    1    1    2    0    0 -0.33470371967E+00  0.28042116708E+01  0.26511714892E+02  0.26720860487E+02  0.17770000000E+01 0.  1.
</event>
<event>
 6    1  0.1298204E-002  0.1849311E+03  0.7546771E-02  0.1066536E+00
        -11   -1    0    0    0    0  0.00000000000E+00  0.00000000000E+00  0.18250000000E+03  0.18250000000E+03  0.00000000000E+00 0.  1.
         11   -1    0    0    0    0 -0.00000000000E+00 -0.00000000000E+00 -0.18250000000E+03  0.18250000000E+03  0.00000000000E+00 0.  1.
        -11    1    1    2    0    0 -0.87376884126E+00  0.22977644467E+01  0.17492547497E+03  0.17494274774E+03  0.00000000000E+00 0.  1.
         11    1    1    2    0    0  0.12927638772E+01  0.23890396679E+01 -0.18004839827E+03  0.18006888812E+03  0.00000000000E+00 0.  1.
        -15    1    1    2    0    0 -0.48006317089E+00  0.12303046063E+01  0.23100212206E+01  0.31996932841E+01  0.17770000000E+01 0. -1.
         15    1    1    2    0    0  0.61068134933E-01 -0.59171087209E+01  0.28129020792E+01  0.67886708596E+01  0.17770000000E+01 0.  1.
</event>
<event>
 6    1  0.1298204E-002  0.1829338E+03  0.7546771E-02  0.1068110E+00
        -11   -1    0    0    0    0  0.00000000000E+00  0.00000000000E+00  0.18250000000E+03  0.18250000000E+03  0.00000000000E+00 0.  1.
         11   -1    0    0    0    0 -0.00000000000E+00 -0.00000000000E+00 -0.18250000000E+03  0.18250000000E+03  0.00000000000E+00 0.  1.
        -11    1    1    2    0    0 -0.93714934263E+00 -0.47169273398E+01  0.18200270838E+03  0.18206623385E+03  0.00000000000E+00 0.  1.
         11    1    1    2    0    0 -0.23933356207E+01 -0.36146646748E+00 -0.13262896833E+03  0.13265105335E+03  0.00000000000E+00 0.  1.
        -15    1    1    2    0    0 -0.77006344883E+00  0.43490010978E+01 -0.30752606927E+02  0.31118923022E+02  0.17770000000E+01 0.  1.
         15    1    1    2    0    0  0.41005484122E+01  0.72939270943E+00 -0.18621133117E+02  0.19163789776E+02  0.17770000000E+01 0. -1.
</event>
<event>
 6    1  0.1298204E-002  0.1842961E+03  0.7546771E-02  0.1067034E+00
        -11   -1    0    0    0    0  0.00000000000E+00  0.00000000000E+00  0.18250000000E+03  0.18250000000E+03  0.00000000000E+00 0.  1.
         11   -1    0    0    0    0 -0.00000000000E+00 -0.00000000000E+00 -0.18250000000E+03  0.18250000000E+03  0.00000000000E+00 0.  1.
        -11    1    1    2    0    0 -0.50208578678E+01 -0.30604588542E+00  0.18063387037E+03  0.18070389537E+03  0.00000000000E+00 0.  1.
         11    1    1    2    0    0  0.29312787152E+01 -0.28980955262E+00 -0.14239827058E+03  0.14242873252E+03  0.00000000000E+00 0.  1.
        -15    1    1    2    0    0  0.17736117434E+01  0.17451379653E+01 -0.39340550463E+02  0.39459192147E+02  0.17770000000E+01 0. -1.
         15    1    1    2    0    0  0.31596740921E+00 -0.11492825273E+01  0.11049506700E+01  0.24081799589E+01  0.17770000000E+01 0.  1.
</event>
<event>
 6    1  0.1298204E-002  0.1877645E+03  0.7546771E-02  0.1064340E+00
        -11   -1    0    0    0    0  0.00000000000E+00  0.00000000000E+00  0.18250000000E+03  0.18250000000E+03  0.00000000000E+00 0. -1.
         11   -1    0    0    0    0 -0.00000000000E+00 -0.00000000000E+00 -0.18250000000E+03  0.18250000000E+03  0.00000000000E+00 0.  1.
        -11    1    1    2    0    0 -0.49480087490E+01  0.48254384656E+01  0.16945079048E+03  0.16959168034E+03  0.00000000000E+00 0. -1.
         11    1    1    2    0    0 -0.31208428938E+01  0.38406389773E+01 -0.17716638503E+03  0.17723548785E+03  0.00000000000E+00 0.  1.
        -15    1    1    2    0    0 -0.44121687503E-01  0.18197394620E+01 -0.32688918010E+00  0.25647580722E+01  0.17770000000E+01 0.  1.
         15    1    1    2    0    0  0.81129733303E+01 -0.10485816905E+02  0.80424837315E+01  0.15608073744E+02  0.17770000000E+01 0.  1.
</event>
<event>
 6    1  0.1298204E-002  0.1832126E+03  0.7546771E-02  0.1067889E+00
        -11   -1    0    0    0    0  0.00000000000E+00  0.00000000000E+00  0.18250000000E+03  0.18250000000E+03  0.00000000000E+00 0.  1.
         11   -1    0    0    0    0 -0.00000000000E+00 -0.00000000000E+00 -0.18250000000E+03  0.18250000000E+03  0.00000000000E+00 0. -1.
        -11    1    1    2    0    0 -0.51530216883E+01 -0.13585501344E+01  0.13829132674E+03  0.13839396787E+03  0.00000000000E+00 0.  1.
         11    1    1    2    0    0 -0.29396995331E+01  0.93509546148E+00 -0.18176124477E+03  0.18178742073E+03  0.00000000000E+00 0. -1.
        -15    1    1    2    0    0  0.34948643441E+01 -0.10589308975E+01  0.31872669533E+02  0.32130362643E+02  0.17770000000E+01 0. -1.
         15    1    1    2    0    0  0.45978568773E+01  0.14823855704E+01  0.11597248492E+02  0.12688248753E+02  0.17770000000E+01 0.  1.
</event>
<event>
 6    1  0.1298204E-002  0.1832326E+03  0.7546771E-02  0.1067873E+00
        -11   -1    0    0    0    0  0.00000000000E+00  0.00000000000E+00  0.18250000000E+03  0.18250000000E+03  0.00000000000E+00 0. -1.
         11   -1    0    0    0    0 -0.00000000000E+00 -0.00000000000E+00 -0.18250000000E+03  0.18250000000E+03  0.00000000000E+00 0.  1.
        -11    1    1    2    0    0  0.25337442052E+01  0.21598360464E+00  0.14789242091E+03  0.14791428150E+03  0.00000000000E+00 0. -1.
         11    1    1    2    0    0 -0.22654353822E+01 -0.34626262045E+01 -0.18172029138E+03  0.18176739608E+03  0.00000000000E+00 0.  1.
        -15    1    1    2    0    0  0.34239074502E+01 -0.68027786922E+00  0.19838601661E+02  0.20221616282E+02  0.17770000000E+01 0.  1.
         15    1    1    2    0    0 -0.36922162732E+01  0.39269204691E+01  0.13989268808E+02  0.15096706136E+02  0.17770000000E+01 0. -1.
</event>
<event>
 6    1  0.1298204E-002  0.1827514E+03  0.7546771E-02  0.1068255E+00
        -11   -1    0    0    0    0  0.00000000000E+00  0.00000000000E+00  0.18250000000E+03  0.18250000000E+03  0.00000000000E+00 0.  1.
         11   -1    0    0    0    0 -0.00000000000E+00 -0.00000000000E+00 -0.18250000000E+03  0.18250000000E+03  0.00000000000E+00 0. -1.
        -11    1    1    2    0    0 -0.11131650361E+01  0.29696016304E+01  0.18222096632E+03  0.18224856169E+03  0.00000000000E+00 0.  1.
         11    1    1    2    0    0 -0.58379418997E+00  0.14028727473E+01 -0.38608032855E+01  0.41490564723E+01  0.00000000000E+00 0. -1.
        -15    1    1    2    0    0  0.31737582276E+00 -0.34232143343E+01 -0.16327700393E+03  0.16332286082E+03  0.17770000000E+01 0. -1.
         15    1    1    2    0    0  0.13795834033E+01 -0.94926004332E+00 -0.15083159105E+02  0.15279521019E+02  0.17770000000E+01 0.  1.
</event>
<event>
 6    1  0.1298204E-002  0.1870938E+03  0.7546771E-02  0.1064856E+00
        -11   -1    0    0    0    0  0.00000000000E+00  0.00000000000E+00  0.18250000000E+03  0.18250000000E+03  0.00000000000E+00 0.  1.
         11   -1    0    0    0    0 -0.00000000000E+00 -0.00000000000E+00 -0.18250000000E+03  0.18250000000E+03  0.00000000000E+00 0. -1.
        -11    1    1    2    0    0 -0.70141474180E+00  0.22083966980E+01  0.15563648506E+03  0.15565373263E+03  0.00000000000E+00 0.  1.
         11    1    1    2    0    0 -0.10446523192E+02  0.47429072890E+01 -0.17753590498E+03  0.17790621848E+03  0.00000000000E+00 0. -1.
        -15    1    1    2    0    0  0.97569470549E+01 -0.75940714476E+01  0.24764729378E+02  0.27736573097E+02  0.17770000000E+01 0.  1.
         15    1    1    2    0    0  0.13909908790E+01  0.64276746054E+00 -0.28653094576E+01  0.37034757892E+01  0.17770000000E+01 0. -1.
</event>
<event>
 6    1  0.1298204E-002  0.1875317E+03  0.7546771E-02  0.1064519E+00
        -11   -1    0    0    0    0  0.00000000000E+00  0.00000000000E+00  0.18250000000E+03  0.18250000000E+03  0.00000000000E+00 0.  1.
         11   -1    0    0    0    0 -0.00000000000E+00 -0.00000000000E+00 -0.18250000000E+03  0.18250000000E+03  0.00000000000E+00 0. -1.
        -11    1    1    2    0    0  0.12917044704E+01  0.80903479672E+01  0.17727907994E+03  0.17746829130E+03  0.00000000000E+00 0.  1.
         11    1    1    2    0    0 -0.16198221065E+01 -0.58871126523E+01 -0.15415750728E+03  0.15427838141E+03  0.00000000000E+00 0. -1.
        -15    1    1    2    0    0  0.38604765873E+01 -0.28384384880E+00 -0.27034864012E+02  0.27368329287E+02  0.17770000000E+01 0. -1.
         15    1    1    2    0    0 -0.35323589512E+01 -0.19193914661E+01  0.39132913507E+01  0.58849980081E+01  0.17770000000E+01 0.  1.
</event>
<event>
 6    1  0.1298204E-002  0.1792292E+03  0.7546771E-02  0.1071089E+00
        -11   -1    0    0    0    0  0.00000000000E+00  0.00000000000E+00  0.18250000000E+03  0.18250000000E+03  0.00000000000E+00 0.  1.
         11   -1    0    0    0    0 -0.00000000000E+00 -0.00000000000E+00 -0.18250000000E+03  0.18250000000E+03  0.00000000000E+00 0.  1.
        -11    1    1    2    0    0  0.34427107922E+01 -0.24369466210E+00  0.17935514557E+03  0.17938834936E+03  0.00000000000E+00 0.  1.
         11    1    1    2    0    0  0.42173226735E+00  0.28694922822E+01 -0.17907709310E+03  0.17910057822E+03  0.00000000000E+00 0.  1.
        -15    1    1    2    0    0 -0.30362815197E+01 -0.17059891480E+01 -0.12948199797E+01  0.41187003071E+01  0.17770000000E+01 0.  1.
         15    1    1    2    0    0 -0.82816153988E+00 -0.91980847204E+00  0.10167675097E+01  0.23923721136E+01  0.17770000000E+01 0. -1.
</event>
<event>
 6    1  0.1298204E-002  0.1839429E+03  0.7546771E-02  0.1067312E+00
        -11   -1    0    0    0    0  0.00000000000E+00  0.00000000000E+00  0.18250000000E+03  0.18250000000E+03  0.00000000000E+00 0.  1.
         11   -1    0    0    0    0 -0.00000000000E+00 -0.00000000000E+00 -0.18250000000E+03  0.18250000000E+03  0.00000000000E+00 0.  1.
        -11    1    1    2    0    0  0.20412584845E+01 -0.27846386334E+01  0.18102413943E+03  0.18105706284E+03  0.00000000000E+00 0.  1.
         11    1    1    2    0    0  0.20981599293E+01  0.26601494194E+00 -0.14330140725E+03  0.14331701350E+03  0.00000000000E+00 0.  1.
        -15    1    1    2    0    0 -0.28061701418E+01  0.51406250823E+01 -0.36451508955E+02  0.36961748487E+02  0.17770000000E+01 0.  1.
         15    1    1    2    0    0 -0.13332482720E+01 -0.26220013909E+01 -0.12712232219E+01  0.36641751771E+01  0.17770000000E+01 0. -1.
</event>
<event>
 6    1  0.1298204E-002  0.1872152E+03  0.7546771E-02  0.1064762E+00
        -11   -1    0    0    0    0  0.00000000000E+00  0.00000000000E+00  0.18250000000E+03  0.18250000000E+03  0.00000000000E+00 0.  1.
         11   -1    0    0    0    0 -0.00000000000E+00 -0.00000000000E+00 -0.18250000000E+03  0.18250000000E+03  0.00000000000E+00 0. -1.
        -11    1    1    2    0    0  0.10364290470E+01 -0.24918447192E+01  0.17776431199E+03  0.17778479713E+03  0.00000000000E+00 0.  1.
         11    1    1    2    0    0  0.29346968311E+00  0.26447216853E+01 -0.14755521351E+03  0.14757920488E+03  0.00000000000E+00 0. -1.
        -15    1    1    2    0    0  0.23009303343E+01  0.74067079879E+01  0.28290750753E+00  0.79618697100E+01  0.17770000000E+01 0. -1.
         15    1    1    2    0    0 -0.36308290644E+01 -0.75595849540E+01 -0.30492005983E+02  0.31674128279E+02  0.17770000000E+01 0.  1.
</event>
<event>
 6    1  0.1298204E-002  0.1826779E+03  0.7546771E-02  0.1068313E+00
        -11   -1    0    0    0    0  0.00000000000E+00  0.00000000000E+00  0.18250000000E+03  0.18250000000E+03  0.00000000000E+00 0.  1.
         11   -1    0    0    0    0 -0.00000000000E+00 -0.00000000000E+00 -0.18250000000E+03  0.18250000000E+03  0.00000000000E+00 0. -1.
        -11    1    1    2    0    0 -0.69447176274E+01  0.38422658719E+01  0.18214929648E+03  0.18232212789E+03  0.00000000000E+00 0.  1.
         11    1    1    2    0    0  0.83740668257E+00  0.46856447310E-01 -0.52567744073E+02  0.52574434494E+02  0.00000000000E+00 0. -1.
        -15    1    1    2    0    0  0.47185181277E+01 -0.37766838520E+01 -0.12268456180E+03  0.12284619321E+03  0.17770000000E+01 0. -1.
         15    1    1    2    0    0  0.13887928171E+01 -0.11243846717E+00 -0.68969906069E+01  0.72572444033E+01  0.17770000000E+01 0. -1.
</event>
<event>
 6    1  0.1298204E-002  0.1881783E+03  0.7546771E-02  0.1064023E+00
        -11   -1    0    0    0    0  0.00000000000E+00  0.00000000000E+00  0.18250000000E+03  0.18250000000E+03  0.00000000000E+00 0. -1.
         11   -1    0    0    0    0 -0.00000000000E+00 -0.00000000000E+00 -0.18250000000E+03  0.18250000000E+03  0.00000000000E+00 0. -1.
        -11    1    1    2    0    0 -0.13528863174E+02  0.89755861219E+01  0.17607481222E+03  0.17682174861E+03  0.00000000000E+00 0. -1.
         11    1    1    2    0    0 -0.18858996043E+01 -0.70060713508E+00 -0.13880299298E+03  0.13881757212E+03  0.00000000000E+00 0. -1.
        -15    1    1    2    0    0  0.17573768817E+02 -0.11935721252E+01 -0.37788190323E+02  0.41729689931E+02  0.17770000000E+01 0.  1.
         15    1    1    2    0    0 -0.21590060388E+01 -0.70814068616E+01  0.51637108551E+00  0.76309893403E+01  0.17770000000E+01 0. -1.
</event>
<event>
 6    1  0.1298204E-002  0.1826048E+03  0.7546771E-02  0.1068371E+00
        -11   -1    0    0    0    0  0.00000000000E+00  0.00000000000E+00  0.18250000000E+03  0.18250000000E+03  0.00000000000E+00 0. -1.
         11   -1    0    0    0    0 -0.00000000000E+00 -0.00000000000E+00 -0.18250000000E+03  0.18250000000E+03  0.00000000000E+00 0. -1.
        -11    1    1    2    0    0  0.23522297106E-01 -0.15929892650E+01  0.66125702471E+02  0.66144891680E+02  0.00000000000E+00 0. -1.
         11    1    1    2    0    0  0.11131623965E+01 -0.24161062719E+01 -0.18237584431E+03  0.18239524470E+03  0.00000000000E+00 0. -1.
        -15    1    1    2    0    0  0.80421206274E+00  0.31000257629E+01  0.87126600334E+02  0.87203549994E+02  0.17770000000E+01 0. -1.
         15    1    1    2    0    0 -0.19408967564E+01  0.90906977401E+00  0.29123541507E+02  0.29256313626E+02  0.17770000000E+01 0.  1.
</event>
<event>
 6    1  0.1298204E-002  0.1829946E+03  0.7546771E-02  0.1068062E+00
        -11   -1    0    0    0    0  0.00000000000E+00  0.00000000000E+00  0.18250000000E+03  0.18250000000E+03  0.00000000000E+00 0. -1.
         11   -1    0    0    0    0 -0.00000000000E+00 -0.00000000000E+00 -0.18250000000E+03  0.18250000000E+03  0.00000000000E+00 0. -1.
        -11    1    1    2    0    0 -0.23839007932E+01  0.59488645548E+00  0.18198877747E+03  0.18200536255E+03  0.00000000000E+00 0. -1.
         11    1    1    2    0    0 -0.42287782021E+00 -0.23215552469E+01 -0.11934208847E+03  0.11936541595E+03  0.00000000000E+00 0. -1.
        -15    1    1    2    0    0  0.54127488908E+01 -0.76935026290E+00 -0.20492406225E+02  0.21283472279E+02  0.17770000000E+01 0.  1.
         15    1    1    2    0    0 -0.26059702774E+01  0.24960190544E+01 -0.42154282771E+02  0.42345749222E+02  0.17770000000E+01 0. -1.
</event>
<event>
 6    1  0.1298204E-002  0.1831775E+03  0.7546771E-02  0.1067917E+00
        -11   -1    0    0    0    0  0.00000000000E+00  0.00000000000E+00  0.18250000000E+03  0.18250000000E+03  0.00000000000E+00 0. -1.
         11   -1    0    0    0    0 -0.00000000000E+00 -0.00000000000E+00 -0.18250000000E+03  0.18250000000E+03  0.00000000000E+00 0.  1.
        -11    1    1    2    0    0 -0.10732791815E+01  0.91494364959E+00  0.44548843477E+02  0.44571162261E+02  0.00000000000E+00 0. -1.
         11    1    1    2    0    0  0.41708358549E+01 -0.16223725169E+01 -0.18176742808E+03  0.18182251201E+03  0.00000000000E+00 0.  1.
        -15    1    1    2    0    0 -0.30407582976E+01  0.15176105325E+01  0.46678137753E+01  0.60411561140E+01  0.17770000000E+01 0. -1.
         15    1    1    2    0    0 -0.56798375801E-01 -0.81018166517E+00  0.13255077082E+03  0.13256516962E+03  0.17770000000E+01 0. -1.
</event>
<event>
 6    1  0.1298204E-002  0.1866917E+03  0.7546771E-02  0.1065166E+00
        -11   -1    0    0    0    0  0.00000000000E+00  0.00000000000E+00  0.18250000000E+03  0.18250000000E+03  0.00000000000E+00 0. -1.
         11   -1    0    0    0    0 -0.00000000000E+00 -0.00000000000E+00 -0.18250000000E+03  0.18250000000E+03  0.00000000000E+00 0. -1.
        -11    1    1    2    0    0  0.63461014945E+01 -0.22003158873E+01  0.15454778305E+03  0.15469367033E+03  0.00000000000E+00 0. -1.
         11    1    1    2    0    0 -0.26320178964E+01 -0.27396814632E+01 -0.17826780680E+03  0.17830828448E+03  0.00000000000E+00 0. -1.
        -15    1    1    2    0    0  0.79824205558E+01 -0.65686731519E+00  0.71488927888E+01  0.10881861500E+02  0.17770000000E+01 0. -1.
         15    1    1    2    0    0 -0.11696504154E+02  0.55968646657E+01  0.16571130960E+02  0.21116183694E+02  0.17770000000E+01 0.  1.
</event>
<event>
 6    1  0.1298204E-002  0.1716976E+03  0.7546771E-02  0.1077394E+00
        -11   -1    0    0    0    0  0.00000000000E+00  0.00000000000E+00  0.18250000000E+03  0.18250000000E+03  0.00000000000E+00 0.  1.
         11   -1    0    0    0    0 -0.00000000000E+00 -0.00000000000E+00 -0.18250000000E+03  0.18250000000E+03  0.00000000000E+00 0.  1.
        -11    1    1    2    0    0 -0.57371512800E+01  0.24629118722E+00  0.17599242010E+03  0.17608607980E+03  0.00000000000E+00 0.  1.
         11    1    1    2    0    0 -0.96427512043E+01  0.28920058370E+01 -0.16747106056E+03  0.16777336640E+03  0.00000000000E+00 0.  1.
        -15    1    1    2    0    0  0.25266094177E+01 -0.15566513555E+01  0.23142968609E+01  0.41618046029E+01  0.17770000000E+01 0. -1.
         15    1    1    2    0    0  0.12853293067E+02 -0.15816456687E+01 -0.10835656401E+02  0.16978749197E+02  0.17770000000E+01 0.  1.
</event>
<event>
 6    1  0.1298204E-002  0.1828120E+03  0.7546771E-02  0.1068207E+00
        -11   -1    0    0    0    0  0.00000000000E+00  0.00000000000E+00  0.18250000000E+03  0.18250000000E+03  0.00000000000E+00 0.  1.
         11   -1    0    0    0    0 -0.00000000000E+00 -0.00000000000E+00 -0.18250000000E+03  0.18250000000E+03  0.00000000000E+00 0. -1.
        -11    1    1    2    0    0 -0.23678390348E+01 -0.69254243665E+00  0.78480976104E+02  0.78519742020E+02  0.00000000000E+00 0.  1.
         11    1    1    2    0    0  0.30783005124E+01  0.89815340254E-01 -0.18216196371E+03  0.18218799363E+03  0.00000000000E+00 0. -1.
        -15    1    1    2    0    0 -0.49020857843E+01 -0.23215026033E+01  0.61841296487E+02  0.62104134320E+02  0.17770000000E+01 0.  1.
         15    1    1    2    0    0  0.41916243067E+01  0.29242296997E+01  0.41839691117E+02  0.42188130030E+02  0.17770000000E+01 0.  1.
</event>
<event>
 6    1  0.1298204E-002  0.1837954E+03  0.7546771E-02  0.1067428E+00
        -11   -1    0    0    0    0  0.00000000000E+00  0.00000000000E+00  0.18250000000E+03  0.18250000000E+03  0.00000000000E+00 0. -1.
         11   -1    0    0    0    0 -0.00000000000E+00 -0.00000000000E+00 -0.18250000000E+03  0.18250000000E+03  0.00000000000E+00 0.  1.
        -11    1    1    2    0    0  0.13795976841E+01  0.20864971901E+01  0.18118729989E+03  0.18120456507E+03  0.00000000000E+00 0. -1.
         11    1    1    2    0    0 -0.87177986123E+01 -0.61454883306E+01 -0.13113167051E+03  0.13156474471E+03  0.00000000000E+00 0.  1.
        -15    1    1    2    0    0 -0.18505909705E+01 -0.79755227402E+00 -0.30841289713E+01  0.40902759175E+01  0.17770000000E+01 0. -1.
         15    1    1    2    0    0  0.91887918988E+01  0.48565434145E+01 -0.46971500401E+02  0.48140414305E+02  0.17770000000E+01 0.  1.
</event>
<event>
 6    1  0.1298204E-002  0.1757164E+03  0.7546771E-02  0.1073987E+00
        -11   -1    0    0    0    0  0.00000000000E+00  0.00000000000E+00  0.18250000000E+03  0.18250000000E+03  0.00000000000E+00 0. -1.
         11   -1    0    0    0    0 -0.00000000000E+00 -0.00000000000E+00 -0.18250000000E+03  0.18250000000E+03  0.00000000000E+00 0.  1.
        -11    1    1    2    0    0  0.23871755584E+01  0.10824883854E+00  0.17547513825E+03  0.17549140854E+03  0.00000000000E+00 0. -1.
         11    1    1    2    0    0 -0.18046901728E+01  0.23272256721E+01 -0.17592594163E+03  0.17595058916E+03  0.00000000000E+00 0.  1.
        -15    1    1    2    0    0 -0.13784856775E+01  0.35074527500E+01  0.44804582184E+01  0.61183888732E+01  0.17770000000E+01 0.  1.
         15    1    1    2    0    0  0.79600029189E+00 -0.59429272606E+01 -0.40296548406E+01  0.74396134324E+01  0.17770000000E+01 0. -1.
</event>
<event>
 6    1  0.1298204E-002  0.1829069E+03  0.7546771E-02  0.1068131E+00
        -11   -1    0    0    0    0  0.00000000000E+00  0.00000000000E+00  0.18250000000E+03  0.18250000000E+03  0.00000000000E+00 0.  1.
         11   -1    0    0    0    0 -0.00000000000E+00 -0.00000000000E+00 -0.18250000000E+03  0.18250000000E+03  0.00000000000E+00 0. -1.
        -11    1    1    2    0    0  0.43932651101E+01 -0.21943661060E+01  0.18202686263E+03  0.18209309361E+03  0.00000000000E+00 0.  1.
         11    1    1    2    0    0  0.75444558878E+00  0.23209301854E+01 -0.13974460082E+03  0.13976590916E+03  0.00000000000E+00 0. -1.
        -15    1    1    2    0    0 -0.14173500498E+01 -0.28251351442E+01 -0.17288519125E+02  0.17664679230E+02  0.17770000000E+01 0.  1.
         15    1    1    2    0    0 -0.37303606491E+01  0.26985710648E+01 -0.24993742688E+02  0.25476318002E+02  0.17770000000E+01 0. -1.
</event>
<event>
 6    1  0.1298204E-002  0.1827958E+03  0.7546771E-02  0.1068220E+00
        -11   -1    0    0    0    0  0.00000000000E+00  0.00000000000E+00  0.18250000000E+03  0.18250000000E+03  0.00000000000E+00 0.  1.
         11   -1    0    0    0    0 -0.00000000000E+00 -0.00000000000E+00 -0.18250000000E+03  0.18250000000E+03  0.00000000000E+00 0.  1.
        -11    1    1    2    0    0  0.46978943291E+01  0.19752826687E+01  0.18213295953E+03  0.18220424501E+03  0.00000000000E+00 0.  1.
         11    1    1    2    0    0  0.79527427644E+00  0.51878652163E+00 -0.35108007370E+02  0.35120845407E+02  0.00000000000E+00 0.  1.
        -15    1    1    2    0    0 -0.88979616241E+01 -0.18019284724E+01 -0.79329165784E+02  0.79866732375E+02  0.17770000000E+01 0.  1.
         15    1    1    2    0    0  0.34047930185E+01 -0.69214071795E+00 -0.67695786375E+02  0.67808177208E+02  0.17770000000E+01 0. -1.
</event>
<event>
 6    1  0.1298204E-002  0.1830557E+03  0.7546771E-02  0.1068013E+00
        -11   -1    0    0    0    0  0.00000000000E+00  0.00000000000E+00  0.18250000000E+03  0.18250000000E+03  0.00000000000E+00 0. -1.
         11   -1    0    0    0    0 -0.00000000000E+00 -0.00000000000E+00 -0.18250000000E+03  0.18250000000E+03  0.00000000000E+00 0. -1.
        -11    1    1    2    0    0 -0.33808352391E+01  0.21808357716E+01  0.18189978095E+03  0.18194426729E+03  0.00000000000E+00 0. -1.
         11    1    1    2    0    0  0.29248248621E+00 -0.26632033675E+01 -0.38089733180E+02  0.38183844383E+02  0.00000000000E+00 0. -1.
        -15    1    1    2    0    0  0.69278676030E+01  0.68028751197E+01 -0.76881711416E+02  0.77512771456E+02  0.17770000000E+01 0.  1.
         15    1    1    2    0    0 -0.38395148501E+01 -0.63205075238E+01 -0.66928336352E+02  0.67359116870E+02  0.17770000000E+01 0. -1.
</event>
<event>
 6    1  0.1298204E-002  0.1941822E+03  0.7546771E-02  0.1059518E+00
        -11   -1    0    0    0    0  0.00000000000E+00  0.00000000000E+00  0.18250000000E+03  0.18250000000E+03  0.00000000000E+00 0.  1.
         11   -1    0    0    0    0 -0.00000000000E+00 -0.00000000000E+00 -0.18250000000E+03  0.18250000000E+03  0.00000000000E+00 0. -1.
        -11    1    1    2    0    0  0.26235932915E+01  0.24720863960E+01  0.16797960565E+03  0.16801827986E+03  0.00000000000E+00 0.  1.
         11    1    1    2    0    0 -0.18756581636E+00 -0.26375074704E+01 -0.17079728552E+03  0.17081775191E+03  0.00000000000E+00 0. -1.
        -15    1    1    2    0    0 -0.33678919904E+01 -0.25090875855E+01  0.13878673832E+02  0.14608680068E+02  0.17770000000E+01 0.  1.
         15    1    1    2    0    0  0.93186451524E+00  0.26745086599E+01 -0.11060993965E+02  0.11555288163E+02  0.17770000000E+01 0. -1.
</event>
<event>
 6    1  0.1298204E-002  0.1868034E+03  0.7546771E-02  0.1065080E+00
        -11   -1    0    0    0    0  0.00000000000E+00  0.00000000000E+00  0.18250000000E+03  0.18250000000E+03  0.00000000000E+00 0. -1.
         11   -1    0    0    0    0 -0.00000000000E+00 -0.00000000000E+00 -0.18250000000E+03  0.18250000000E+03  0.00000000000E+00 0. -1.
        -11    1    1    2    0    0 -0.26710435763E+01  0.82849892410E+00  0.17817460522E+03  0.17819655112E+03  0.00000000000E+00 0. -1.
         11    1    1    2    0    0 -0.77106547955E+00 -0.31727043554E+01 -0.15558362523E+03  0.15561788148E+03  0.00000000000E+00 0. -1.
        -15    1    1    2    0    0 -0.18479536363E+01 -0.44931139008E+01  0.16162378286E+01  0.54196825448E+01  0.17770000000E+01 0.  1.
         15    1    1    2    0    0  0.52900626921E+01  0.68373193321E+01 -0.24207217819E+02  0.25765884857E+02  0.17770000000E+01 0. -1.
</event>
<event>
 6    1  0.1298204E-002  0.1839339E+03  0.7546771E-02  0.1067319E+00
        -11   -1    0    0    0    0  0.00000000000E+00  0.00000000000E+00  0.18250000000E+03  0.18250000000E+03  0.00000000000E+00 0. -1.
         11   -1    0    0    0    0 -0.00000000000E+00 -0.00000000000E+00 -0.18250000000E+03  0.18250000000E+03  0.00000000000E+00 0.  1.
        -11    1    1    2    0    0 -0.32431988544E+01 -0.19975321384E+01  0.18102605049E+03  0.18106611895E+03  0.00000000000E+00 0. -1.
         11    1    1    2    0    0 -0.15779741548E+01 -0.12491161225E+01 -0.13909060810E+03  0.13910516725E+03  0.00000000000E+00 0.  1.
        -15    1    1    2    0    0  0.58736094275E+01  0.45414578991E+01 -0.89939682662E+01  0.11797174311E+02  0.17770000000E+01 0. -1.
         15    1    1    2    0    0 -0.10524364183E+01 -0.12948096382E+01 -0.32941474131E+02  0.33031539494E+02  0.17770000000E+01 0.  1.
</event>
<event>
 6    1  0.1298204E-002  0.1840047E+03  0.7546771E-02  0.1067263E+00
        -11   -1    0    0    0    0  0.00000000000E+00  0.00000000000E+00  0.18250000000E+03  0.18250000000E+03  0.00000000000E+00 0.  1.
         11   -1    0    0    0    0 -0.00000000000E+00 -0.00000000000E+00 -0.18250000000E+03  0.18250000000E+03  0.00000000000E+00 0.  1.
        -11    1    1    2    0    0 -0.76994605874E+00  0.31101853380E+01  0.18096691143E+03  0.18099527370E+03  0.00000000000E+00 0.  1.
         11    1    1    2    0    0 -0.10549770033E+01  0.25629905776E+01 -0.13743346924E+03  0.13746141410E+03  0.00000000000E+00 0.  1.
        -15    1    1    2    0    0  0.42454431549E+00 -0.21880068195E+01 -0.42026943705E+02  0.42123501017E+02  0.17770000000E+01 0. -1.
         15    1    1    2    0    0  0.14003787466E+01 -0.34851690961E+01 -0.15064984817E+01  0.44198111880E+01  0.17770000000E+01 0. -1.
</event>
<event>
 6    1  0.1298204E-002  0.1855660E+03  0.7546771E-02  0.1066040E+00
        -11   -1    0    0    0    0  0.00000000000E+00  0.00000000000E+00  0.18250000000E+03  0.18250000000E+03  0.00000000000E+00 0. -1.
         11   -1    0    0    0    0 -0.00000000000E+00 -0.00000000000E+00 -0.18250000000E+03  0.18250000000E+03  0.00000000000E+00 0. -1.
        -11    1    1    2    0    0 -0.80905354958E+01 -0.42954979815E+01  0.17919999616E+03  0.17943396192E+03  0.00000000000E+00 0. -1.
         11    1    1    2    0    0 -0.37254899422E+01 -0.16944232663E+01 -0.15798438255E+03  0.15803738633E+03  0.00000000000E+00 0. -1.
        -15    1    1    2    0    0 -0.17170513222E+01  0.68564106869E+00 -0.15039918734E+01  0.29728924423E+01  0.17770000000E+01 0. -1.
         15    1    1    2    0    0  0.13533076760E+02  0.53042801791E+01 -0.19711621733E+02  0.24555759308E+02  0.17770000000E+01 0. -1.
</event>
<event>
 6    1  0.1298204E-002  0.1840474E+03  0.7546771E-02  0.1067230E+00
        -11   -1    0    0    0    0  0.00000000000E+00  0.00000000000E+00  0.18250000000E+03  0.18250000000E+03  0.00000000000E+00 0. -1.
         11   -1    0    0    0    0 -0.00000000000E+00 -0.00000000000E+00 -0.18250000000E+03  0.18250000000E+03  0.00000000000E+00 0.  1.
        -11    1    1    2    0    0 -0.50727019221E-02 -0.42733792008E+01  0.18090218103E+03  0.18095264822E+03  0.00000000000E+00 0. -1.
         11    1    1    2    0    0  0.94859410724E+00 -0.20671243609E+01 -0.11995318744E+03  0.11997474739E+03  0.00000000000E+00 0.  1.
        -15    1    1    2    0    0 -0.40579550111E+00  0.46646760971E+01 -0.61337446553E+02  0.61541562799E+02  0.17770000000E+01 0. -1.
         15    1    1    2    0    0 -0.53772590421E+00  0.16758274647E+01  0.38845296330E+00  0.25310415927E+01  0.17770000000E+01 0.  1.
</event>
<event>
 6    1  0.1298204E-002  0.1851977E+03  0.7546771E-02  0.1066327E+00
        -11   -1    0    0    0    0  0.00000000000E+00  0.00000000000E+00  0.18250000000E+03  0.18250000000E+03  0.00000000000E+00 0.  1.
         11   -1    0    0    0    0 -0.00000000000E+00 -0.00000000000E+00 -0.18250000000E+03  0.18250000000E+03  0.00000000000E+00 0.  1.
        -11    1    1    2    0    0 -0.69858206201E+01  0.28572524497E+01  0.14710372543E+03  0.14729722202E+03  0.00000000000E+00 0.  1.
         11    1    1    2    0    0 -0.26392304594E+01 -0.21283905998E+01 -0.17977032821E+03  0.17980229834E+03  0.00000000000E+00 0.  1.
        -15    1    1    2    0    0  0.78769935348E+01 -0.24139031888E+01  0.33685516132E+02  0.34723848891E+02  0.17770000000E+01 0. -1.
         15    1    1    2    0    0  0.17480575447E+01  0.16850413389E+01 -0.10189133505E+01  0.31766307480E+01  0.17770000000E+01 0.  1.
</event>
<event>
 6    1  0.1298204E-002  0.1677265E+03  0.7546771E-02  0.1080863E+00
        -11   -1    0    0    0    0  0.00000000000E+00  0.00000000000E+00  0.18250000000E+03  0.18250000000E+03  0.00000000000E+00 0.  1.
         11   -1    0    0    0    0 -0.00000000000E+00 -0.00000000000E+00 -0.18250000000E+03  0.18250000000E+03  0.00000000000E+00 0. -1.
        -11    1    1    2    0    0  0.85252879830E+01  0.11508155381E+02  0.17204555588E+03  0.17264064258E+03  0.00000000000E+00 0.  1.
         11    1    1    2    0    0  0.28638338543E+01  0.71938618739E+01 -0.16345274442E+03  0.16363603775E+03  0.00000000000E+00 0. -1.
        -15    1    1    2    0    0  0.30843307027E+01  0.12282317751E+00 -0.16087701832E+01  0.39082031573E+01  0.17770000000E+01 0.  1.
         15    1    1    2    0    0 -0.14473452540E+02 -0.18824840432E+02 -0.69840412726E+01  0.24815116506E+02  0.17770000000E+01 0. -1.
</event>
<event>
 6    1  0.1298204E-002  0.2217626E+03  0.7546771E-02  0.1040893E+00
        -11   -1    0    0    0    0  0.00000000000E+00  0.00000000000E+00  0.18250000000E+03  0.18250000000E+03  0.00000000000E+00 0.  1.
         11   -1    0    0    0    0 -0.00000000000E+00 -0.00000000000E+00 -0.18250000000E+03  0.18250000000E+03  0.00000000000E+00 0. -1.
        -11    1    1    2    0    0 -0.74351359314E+01  0.86879527048E+01  0.14278022524E+03  0.14323740604E+03  0.00000000000E+00 0.  1.
         11    1    1    2    0    0  0.26220401883E+02  0.49068975208E+01 -0.11458768236E+03  0.11765170660E+03  0.00000000000E+00 0. -1.
        -15    1    1    2    0    0 -0.42936869340E+02 -0.50800194255E+01  0.21394880693E+02  0.48272973753E+02  0.17770000000E+01 0.  1.
         15    1    1    2    0    0  0.24151603389E+02 -0.85148308000E+01 -0.49587423576E+02  0.55837913605E+02  0.17770000000E+01 0. -1.
</event>
<event>
 6    1  0.1298204E-002  0.1884755E+03  0.7546771E-02  0.1063795E+00
        -11   -1    0    0    0    0  0.00000000000E+00  0.00000000000E+00  0.18250000000E+03  0.18250000000E+03  0.00000000000E+00 0.  1.
         11   -1    0    0    0    0 -0.00000000000E+00 -0.00000000000E+00 -0.18250000000E+03  0.18250000000E+03  0.00000000000E+00 0.  1.
        -11    1    1    2    0    0  0.87083642175E+01  0.18046083066E+02  0.17538358880E+03  0.17652450239E+03  0.00000000000E+00 0.  1.
         11    1    1    2    0    0 -0.10757298825E+02 -0.47298975034E+01 -0.15241477175E+03  0.15286711240E+03  0.00000000000E+00 0.  1.
        -15    1    1    2    0    0  0.12523589346E+02 -0.80918581972E+01 -0.99609359919E+01  0.18019335005E+02  0.17770000000E+01 0. -1.
         15    1    1    2    0    0 -0.10474654739E+02 -0.52243273658E+01 -0.13007881065E+02  0.17589050205E+02  0.17770000000E+01 0.  1.
</event>
<event>
 6    1  0.1298204E-002  0.1657627E+03  0.7546771E-02  0.1082618E+00
        -11   -1    0    0    0    0  0.00000000000E+00  0.00000000000E+00  0.18250000000E+03  0.18250000000E+03  0.00000000000E+00 0.  1.
         11   -1    0    0    0    0 -0.00000000000E+00 -0.00000000000E+00 -0.18250000000E+03  0.18250000000E+03  0.00000000000E+00 0.  1.
        -11    1    1    2    0    0 -0.55015404555E+00 -0.21270685277E+02  0.16923610249E+03  0.17056847043E+03  0.00000000000E+00 0.  1.
         11    1    1    2    0    0  0.62274421581E+01 -0.33422129478E+01 -0.16184563037E+03  0.16199987498E+03  0.00000000000E+00 0.  1.
        -15    1    1    2    0    0  0.36115044153E+01  0.13126765274E+02  0.32874032050E+01  0.14118062173E+02  0.17770000000E+01 0. -1.
         15    1    1    2    0    0 -0.92887925278E+01  0.11486132951E+02 -0.10677875321E+02  0.18313592416E+02  0.17770000000E+01 0.  1.
</event>
<event>
 6    1  0.1298204E-002  0.1961548E+03  0.7546771E-02  0.1058077E+00
        -11   -1    0    0    0    0  0.00000000000E+00  0.00000000000E+00  0.18250000000E+03  0.18250000000E+03  0.00000000000E+00 0.  1.
         11   -1    0    0    0    0 -0.00000000000E+00 -0.00000000000E+00 -0.18250000000E+03  0.18250000000E+03  0.00000000000E+00 0.  1.
        -11    1    1    2    0    0 -0.19227562403E+02  0.17056993741E+02  0.16687741732E+03  0.16884523269E+03  0.00000000000E+00 0.  1.
         11    1    1    2    0    0 -0.36156414967E+00  0.19564791582E+01 -0.11709422571E+03  0.11711112771E+03  0.00000000000E+00 0.  1.
        -15    1    1    2    0    0 -0.85675722026E+01  0.29677555920E+01 -0.41253626664E+02  0.42275646756E+02  0.17770000000E+01 0. -1.
         15    1    1    2    0    0  0.28156698755E+02 -0.21981228491E+02 -0.85295649430E+01  0.36767992846E+02  0.17770000000E+01 0.  1.
</event>
<event>
 6    1  0.1298204E-002  0.1875152E+03  0.7546771E-02  0.1064531E+00
        -11   -1    0    0    0    0  0.00000000000E+00  0.00000000000E+00  0.18250000000E+03  0.18250000000E+03  0.00000000000E+00 0.  1.
         11   -1    0    0    0    0 -0.00000000000E+00 -0.00000000000E+00 -0.18250000000E+03  0.18250000000E+03  0.00000000000E+00 0. -1.
        -11    1    1    2    0    0  0.33994049957E+01 -0.54688851027E+01  0.13038536993E+03  0.13054428118E+03  0.00000000000E+00 0.  1.
         11    1    1    2    0    0  0.14788264282E+02  0.35969191820E+00 -0.17686730804E+03  0.17748483539E+03  0.00000000000E+00 0. -1.
        -15    1    1    2    0    0 -0.86776108872E+01  0.57019791682E+01  0.46081043974E+02  0.47269798391E+02  0.17770000000E+01 0.  1.
         15    1    1    2    0    0 -0.95100583902E+01 -0.59278598373E+00  0.40089414256E+00  0.97010850384E+01  0.17770000000E+01 0. -1.
</event>
<event>
 6    1  0.1298204E-002  0.1834374E+03  0.7546771E-02  0.1067711E+00
        -11   -1    0    0    0    0  0.00000000000E+00  0.00000000000E+00  0.18250000000E+03  0.18250000000E+03  0.00000000000E+00 0.  1.
         11   -1    0    0    0    0 -0.00000000000E+00 -0.00000000000E+00 -0.18250000000E+03  0.18250000000E+03  0.00000000000E+00 0. -1.
        -11    1    1    2    0    0  0.22019885765E+01 -0.46721706940E+00  0.16109988142E+03  0.16111560706E+03  0.00000000000E+00 0.  1.
         11    1    1    2    0    0  0.22702720603E+01  0.11182326281E+01 -0.18154493009E+03  0.18156256834E+03  0.00000000000E+00 0. -1.
        -15    1    1    2    0    0 -0.56452974118E+00  0.16992747218E+01  0.19451662152E+01  0.31855343372E+01  0.17770000000E+01 0.  1.
         15    1    1    2    0    0 -0.39077308955E+01 -0.23502902805E+01  0.18499882454E+02  0.19136290261E+02  0.17770000000E+01 0. -1.
</event>
<event>
 6    1  0.1298204E-002  0.1900912E+03  0.7546771E-02  0.1062568E+00
        -11   -1    0    0    0    0  0.00000000000E+00  0.00000000000E+00  0.18250000000E+03  0.18250000000E+03  0.00000000000E+00 0. -1.
         11   -1    0    0    0    0 -0.00000000000E+00 -0.00000000000E+00 -0.18250000000E+03  0.18250000000E+03  0.00000000000E+00 0. -1.
        -11    1    1    2    0    0  0.21393977140E+01 -0.14888424108E+01  0.17488941141E+03  0.17490883311E+03  0.00000000000E+00 0. -1.
         11    1    1    2    0    0  0.37534166474E+01  0.89164722016E+01 -0.14008515585E+03  0.14041881107E+03  0.00000000000E+00 0. -1.
        -15    1    1    2    0    0 -0.91785695732E+01 -0.84805370774E+01 -0.40700838015E+02  0.42613162200E+02  0.17770000000E+01 0. -1.
         15    1    1    2    0    0  0.32857552118E+01  0.10529072866E+01  0.58965824501E+01  0.70591936265E+01  0.17770000000E+01 0.  1.
</event>
<event>
 6    1  0.1298204E-002  0.1885495E+03  0.7546771E-02  0.1063739E+00
        -11   -1    0    0    0    0  0.00000000000E+00  0.00000000000E+00  0.18250000000E+03  0.18250000000E+03  0.00000000000E+00 0. -1.
         11   -1    0    0    0    0 -0.00000000000E+00 -0.00000000000E+00 -0.18250000000E+03  0.18250000000E+03  0.00000000000E+00 0. -1.
        -11    1    1    2    0    0 -0.13041599257E+01 -0.97060754346E+01  0.15836448520E+03  0.15866700636E+03  0.00000000000E+00 0. -1.
         11    1    1    2    0    0  0.19992744776E+01 -0.41693372464E+01 -0.17638986433E+03  0.17645045965E+03  0.00000000000E+00 0. -1.
        -15    1    1    2    0    0 -0.14090536326E+01  0.15191406883E+02  0.42838787541E+01  0.15945959406E+02  0.17770000000E+01 0.  1.
         15    1    1    2    0    0  0.71393908076E+00 -0.13159942016E+01  0.13741500372E+02  0.13936574587E+02  0.17770000000E+01 0. -1.
</event>
<event>
 6    1  0.1298204E-002  0.1834856E+03  0.7546771E-02  0.1067673E+00
        -11   -1    0    0    0    0  0.00000000000E+00  0.00000000000E+00  0.18250000000E+03  0.18250000000E+03  0.00000000000E+00 0.  1.
         11   -1    0    0    0    0 -0.00000000000E+00 -0.00000000000E+00 -0.18250000000E+03  0.18250000000E+03  0.00000000000E+00 0.  1.
        -11    1    1    2    0    0 -0.31391978920E+01 -0.74645481198E+01  0.18133365952E+03  0.18151437992E+03  0.00000000000E+00 0.  1.
         11    1    1    2    0    0 -0.63472441078E+00  0.29616779108E+01 -0.11023377628E+03  0.11027538185E+03  0.00000000000E+00 0.  1.
        -15    1    1    2    0    0  0.62117257244E+00 -0.19400166200E+01 -0.58793479575E+02  0.58855590129E+02  0.17770000000E+01 0. -1.
         15    1    1    2    0    0  0.31527497303E+01  0.64428868291E+01 -0.12306403673E+02  0.14354648095E+02  0.17770000000E+01 0.  1.
</event>
<event>
 6    1  0.1298204E-002  0.1851860E+03  0.7546771E-02  0.1066337E+00
        -11   -1    0    0    0    0  0.00000000000E+00  0.00000000000E+00  0.18250000000E+03  0.18250000000E+03  0.00000000000E+00 0.  1.
         11   -1    0    0    0    0 -0.00000000000E+00 -0.00000000000E+00 -0.18250000000E+03  0.18250000000E+03  0.00000000000E+00 0. -1.
        -11    1    1    2    0    0  0.33542416681E+01  0.29622452343E+01  0.16179062271E+03  0.16185249899E+03  0.00000000000E+00 0.  1.
         11    1    1    2    0    0 -0.33635406131E+01 -0.48546426630E+00 -0.17978189564E+03  0.17981401247E+03  0.00000000000E+00 0. -1.
        -15    1    1    2    0    0  0.34174975186E+01 -0.30764769875E+01  0.33045813070E-02  0.49296794890E+01  0.17770000000E+01 0. -1.
         15    1    1    2    0    0 -0.34081985736E+01  0.59969601953E+00  0.17987968352E+02  0.18403809042E+02  0.17770000000E+01 0.  1.
</event>
<event>
 6    1  0.1298204E-002  0.1844171E+03  0.7546771E-02  0.1066939E+00
        -11   -1    0    0    0    0  0.00000000000E+00  0.00000000000E+00  0.18250000000E+03  0.18250000000E+03  0.00000000000E+00 0.  1.
         11   -1    0    0    0    0 -0.00000000000E+00 -0.00000000000E+00 -0.18250000000E+03  0.18250000000E+03  0.00000000000E+00 0. -1.
        -11    1    1    2    0    0  0.15603672431E+01 -0.21337965180E+01  0.15811838697E+03  0.15814048227E+03  0.00000000000E+00 0.  1.
         11    1    1    2    0    0 -0.11190219499E+01 -0.44948621471E+01 -0.18052344394E+03  0.18058286133E+03  0.00000000000E+00 0. -1.
        -15    1    1    2    0    0  0.15093674694E+01 -0.23716683805E+01  0.11099526208E+02  0.11587070903E+02  0.17770000000E+01 0. -1.
         15    1    1    2    0    0 -0.19507127627E+01  0.90003270456E+01  0.11305530758E+02  0.14689585492E+02  0.17770000000E+01 0.  1.
</event>
<event>
 6    1  0.1298204E-002  0.1985396E+03  0.7546771E-02  0.1056359E+00
        -11   -1    0    0    0    0  0.00000000000E+00  0.00000000000E+00  0.18250000000E+03  0.18250000000E+03  0.00000000000E+00 0. -1.
         11   -1    0    0    0    0 -0.00000000000E+00 -0.00000000000E+00 -0.18250000000E+03  0.18250000000E+03  0.00000000000E+00 0.  1.
        -11    1    1    2    0    0 -0.21643091398E+01  0.68630639326E+00  0.73752948884E+02  0.73787890061E+02  0.00000000000E+00 0. -1.
         11    1    1    2    0    0 -0.27250855903E+00  0.23260957589E+01 -0.16644388951E+03  0.16646036567E+03  0.00000000000E+00 0.  1.
        -15    1    1    2    0    0  0.20212070152E+02 -0.71891598808E+01  0.10195295685E+03  0.10420064750E+03  0.17770000000E+01 0.  1.
         15    1    1    2    0    0 -0.17775252453E+02  0.41767577286E+01 -0.92620162221E+01  0.20551096768E+02  0.17770000000E+01 0. -1.
</event>
<event>
 6    1  0.1298204E-002  0.1893109E+03  0.7546771E-02  0.1063159E+00
        -11   -1    0    0    0    0  0.00000000000E+00  0.00000000000E+00  0.18250000000E+03  0.18250000000E+03  0.00000000000E+00 0. -1.
         11   -1    0    0    0    0 -0.00000000000E+00 -0.00000000000E+00 -0.18250000000E+03  0.18250000000E+03  0.00000000000E+00 0. -1.
        -11    1    1    2    0    0  0.10080125879E+01 -0.11280496047E+02  0.16738883554E+03  0.16777153496E+03  0.00000000000E+00 0. -1.
         11    1    1    2    0    0 -0.12309418246E+01  0.59557282488E+01 -0.17558383306E+03  0.17568912416E+03  0.00000000000E+00 0. -1.
        -15    1    1    2    0    0 -0.94809863196E+00 -0.20525644149E+01 -0.52903010800E+01  0.60213724524E+01  0.17770000000E+01 0. -1.
         15    1    1    2    0    0  0.11710278686E+01  0.73773322128E+01  0.13485298596E+02  0.15517968426E+02  0.17770000000E+01 0. -1.
</event>
<event>
 6    1  0.1298204E-002  0.1889257E+03  0.7546771E-02  0.1063452E+00
        -11   -1    0    0    0    0  0.00000000000E+00  0.00000000000E+00  0.18250000000E+03  0.18250000000E+03  0.00000000000E+00 0.  1.
         11   -1    0    0    0    0 -0.00000000000E+00 -0.00000000000E+00 -0.18250000000E+03  0.18250000000E+03  0.00000000000E+00 0.  1.
        -11    1    1    2    0    0 -0.14604416162E+01 -0.38451030040E+01  0.17092299405E+03  0.17097247616E+03  0.00000000000E+00 0.  1.
         11    1    1    2    0    0  0.76182828916E+01  0.49220776364E+01 -0.17584055160E+03  0.17607431575E+03  0.00000000000E+00 0.  1.
        -15    1    1    2    0    0 -0.75132677056E+01 -0.50265238838E+01 -0.22374252263E+01  0.94804501272E+01  0.17770000000E+01 0. -1.
         15    1    1    2    0    0  0.13554264303E+01  0.39495492514E+01  0.71549827682E+01  0.84727579636E+01  0.17770000000E+01 0. -1.
</event>
<event>
 6    1  0.1298204E-002  0.1869475E+03  0.7546771E-02  0.1064969E+00
        -11   -1    0    0    0    0  0.00000000000E+00  0.00000000000E+00  0.18250000000E+03  0.18250000000E+03  0.00000000000E+00 0. -1.
         11   -1    0    0    0    0 -0.00000000000E+00 -0.00000000000E+00 -0.18250000000E+03  0.18250000000E+03  0.00000000000E+00 0.  1.
        -11    1    1    2    0    0  0.74815594783E+01 -0.23318566742E+01  0.94835070578E+02  0.95158299161E+02  0.00000000000E+00 0. -1.
         11    1    1    2    0    0  0.18469253811E+01  0.15884164791E+01 -0.17803581068E+03  0.17805247565E+03  0.00000000000E+00 0.  1.
        -15    1    1    2    0    0  0.35315520560E+01 -0.41001886268E+01  0.75925888589E+02  0.76139225724E+02  0.17770000000E+01 0. -1.
         15    1    1    2    0    0 -0.12860036915E+02  0.48436288219E+01  0.72748515154E+01  0.15649999463E+02  0.17770000000E+01 0.  1.
</event>
<event>
 6    1  0.1298204E-002  0.1829462E+03  0.7546771E-02  0.1068100E+00
        -11   -1    0    0    0    0  0.00000000000E+00  0.00000000000E+00  0.18250000000E+03  0.18250000000E+03  0.00000000000E+00 0. -1.
         11   -1    0    0    0    0 -0.00000000000E+00 -0.00000000000E+00 -0.18250000000E+03  0.18250000000E+03  0.00000000000E+00 0.  1.
        -11    1    1    2    0    0 -0.53115966034E+00 -0.23799539424E+01  0.12224403739E+03  0.12226835645E+03  0.00000000000E+00 0. -1.
         11    1    1    2    0    0 -0.16658598392E+01  0.76917954283E+01 -0.18188357578E+03  0.18205376663E+03  0.00000000000E+00 0.  1.
        -15    1    1    2    0    0  0.35848994083E+00 -0.38142272424E+01  0.55069717098E+02  0.55231406960E+02  0.17770000000E+01 0. -1.
         15    1    1    2    0    0  0.18385295587E+01 -0.14976142434E+01  0.45698212931E+01  0.54464699587E+01  0.17770000000E+01 0.  1.
</event>
<event>
 6    1  0.1298204E-002  0.1714305E+03  0.7546771E-02  0.1077624E+00
        -11   -1    0    0    0    0  0.00000000000E+00  0.00000000000E+00  0.18250000000E+03  0.18250000000E+03  0.00000000000E+00 0.  1.
         11   -1    0    0    0    0 -0.00000000000E+00 -0.00000000000E+00 -0.18250000000E+03  0.18250000000E+03  0.00000000000E+00 0.  1.
        -11    1    1    2    0    0 -0.59256705589E+01  0.35979300743E+01  0.17250886599E+03  0.17264810313E+03  0.00000000000E+00 0.  1.
         11    1    1    2    0    0  0.35634481424E+01  0.37966708066E+00 -0.17021408202E+03  0.17025180183E+03  0.00000000000E+00 0.  1.
        -15    1    1    2    0    0  0.62885393510E+01 -0.51104786147E+01  0.75983565227E+01  0.11249687537E+02  0.17770000000E+01 0.  1.
         15    1    1    2    0    0 -0.39263169345E+01  0.11328814597E+01 -0.98931404883E+01  0.10850407494E+02  0.17770000000E+01 0.  1.
</event>
<event>
 6    1  0.1298204E-002  0.1631460E+03  0.7546771E-02  0.1084998E+00
        -11   -1    0    0    0    0  0.00000000000E+00  0.00000000000E+00  0.18250000000E+03  0.18250000000E+03  0.00000000000E+00 0. -1.
         11   -1    0    0    0    0 -0.00000000000E+00 -0.00000000000E+00 -0.18250000000E+03  0.18250000000E+03  0.00000000000E+00 0. -1.
        -11    1    1    2    0    0  0.62105558255E+01  0.16051748010E+02  0.16137357150E+03  0.16228881414E+03  0.00000000000E+00 0. -1.
         11    1    1    2    0    0  0.32608996353E+01 -0.36480339274E+01 -0.16431660147E+03  0.16438943743E+03  0.00000000000E+00 0. -1.
        -15    1    1    2    0    0 -0.64712307744E+01  0.28651754225E+01 -0.13666511431E+02  0.15492492428E+02  0.17770000000E+01 0.  1.
         15    1    1    2    0    0 -0.30002246865E+01 -0.15268889505E+02  0.16609541408E+02  0.22829256003E+02  0.17770000000E+01 0. -1.
</event>
<event>
 6    1  0.1298204E-002  0.1830795E+03  0.7546771E-02  0.1067994E+00
        -11   -1    0    0    0    0  0.00000000000E+00  0.00000000000E+00  0.18250000000E+03  0.18250000000E+03  0.00000000000E+00 0. -1.
         11   -1    0    0    0    0 -0.00000000000E+00 -0.00000000000E+00 -0.18250000000E+03  0.18250000000E+03  0.00000000000E+00 0. -1.
        -11    1    1    2    0    0 -0.56284818756E+01 -0.70820406173E+00  0.18183205086E+03  0.18192052133E+03  0.00000000000E+00 0. -1.
         11    1    1    2    0    0  0.24993413950E+01 -0.47259343898E+00 -0.16252981586E+03  0.16254971884E+03  0.00000000000E+00 0. -1.
        -15    1    1    2    0    0  0.41621471744E+01  0.10887629585E+01 -0.10421124229E+02  0.11413432134E+02  0.17770000000E+01 0.  1.
         15    1    1    2    0    0 -0.10330066937E+01  0.92034542205E-01 -0.88811107713E+01  0.91163276992E+01  0.17770000000E+01 0. -1.
</event>
<event>
 6    1  0.1298204E-002  0.1825546E+03  0.7546771E-02  0.1068411E+00
        -11   -1    0    0    0    0  0.00000000000E+00  0.00000000000E+00  0.18250000000E+03  0.18250000000E+03  0.00000000000E+00 0.  1.
         11   -1    0    0    0    0 -0.00000000000E+00 -0.00000000000E+00 -0.18250000000E+03  0.18250000000E+03  0.00000000000E+00 0. -1.
        -11    1    1    2    0    0 -0.51765424598E-01  0.53155095656E+00  0.97912490579E+01  0.98058035974E+01  0.00000000000E+00 0.  1.
         11    1    1    2    0    0  0.31329218254E+01 -0.78002232236E+00 -0.18241678314E+03  0.18244535183E+03  0.00000000000E+00 0. -1.
        -15    1    1    2    0    0 -0.28701283526E+01 -0.53233301118E+00  0.54424857703E+02  0.54532044526E+02  0.17770000000E+01 0. -1.
         15    1    1    2    0    0 -0.21102804819E+00  0.78080437698E+00  0.11820067638E+03  0.11821680005E+03  0.17770000000E+01 0.  1.
</event>
<event>
 6    1  0.1298204E-002  0.1657072E+03  0.7546771E-02  0.1082668E+00
        -11   -1    0    0    0    0  0.00000000000E+00  0.00000000000E+00  0.18250000000E+03  0.18250000000E+03  0.00000000000E+00 0. -1.
         11   -1    0    0    0    0 -0.00000000000E+00 -0.00000000000E+00 -0.18250000000E+03  0.18250000000E+03  0.00000000000E+00 0. -1.
        -11    1    1    2    0    0 -0.18693303320E+02 -0.15636581204E+01  0.16484137770E+03  0.16590528749E+03  0.00000000000E+00 0. -1.
         11    1    1    2    0    0 -0.48661790652E+01  0.19225054372E+01 -0.16626643155E+03  0.16634873605E+03  0.00000000000E+00 0. -1.
        -15    1    1    2    0    0  0.19943737058E+02 -0.15147972916E+01  0.10565786798E+02  0.22690104414E+02  0.17770000000E+01 0. -1.
         15    1    1    2    0    0  0.36157453273E+01  0.11559499749E+01 -0.91407329487E+01  0.10055872039E+02  0.17770000000E+01 0.  1.
</event>
<event>
 6    1  0.1298204E-002  0.1343783E+03  0.7546771E-02  0.1114894E+00
        -11   -1    0    0    0    0  0.00000000000E+00  0.00000000000E+00  0.18250000000E+03  0.18250000000E+03  0.00000000000E+00 0.  1.
         11   -1    0    0    0    0 -0.00000000000E+00 -0.00000000000E+00 -0.18250000000E+03  0.18250000000E+03  0.00000000000E+00 0. -1.
        -11    1    1    2    0    0  0.17159541600E+01  0.40280588387E+01  0.14751123969E+03  0.14757620267E+03  0.00000000000E+00 0.  1.
         11    1    1    2    0    0 -0.14083788533E+02  0.23273724230E+02 -0.12111435875E+03  0.12413181395E+03  0.00000000000E+00 0. -1.
        -15    1    1    2    0    0 -0.26383411543E+02 -0.28837237539E+02  0.96682659143E+01  0.40302652126E+02  0.17770000000E+01 0.  1.
         15    1    1    2    0    0  0.38751245916E+02  0.15354544706E+01 -0.36065146863E+02  0.52989331264E+02  0.17770000000E+01 0. -1.
</event>
<event>
 6    1  0.1298204E-002  0.1874913E+03  0.7546771E-02  0.1064550E+00
        -11   -1    0    0    0    0  0.00000000000E+00  0.00000000000E+00  0.18250000000E+03  0.18250000000E+03  0.00000000000E+00 0. -1.
         11   -1    0    0    0    0 -0.00000000000E+00 -0.00000000000E+00 -0.18250000000E+03  0.18250000000E+03  0.00000000000E+00 0. -1.
        -11    1    1    2    0    0 -0.28862149909E+01 -0.45688433798E+01  0.17742644312E+03  0.17750872454E+03  0.00000000000E+00 0. -1.
         11    1    1    2    0    0 -0.25032878328E+01  0.31375291959E+01 -0.16782357570E+03  0.16787156728E+03  0.00000000000E+00 0. -1.
        -15    1    1    2    0    0  0.15191461128E+01 -0.47218480856E+01 -0.10823252462E+02  0.12037615092E+02  0.17770000000E+01 0. -1.
         15    1    1    2    0    0  0.38703567109E+01  0.61531622696E+01  0.12203850402E+01  0.75820930904E+01  0.17770000000E+01 0.  1.
</event>
<event>
 6    1  0.1298204E-002  0.1828430E+03  0.7546771E-02  0.1068182E+00
        -11   -1    0    0    0    0  0.00000000000E+00  0.00000000000E+00  0.18250000000E+03  0.18250000000E+03  0.00000000000E+00 0. -1.
         11   -1    0    0    0    0 -0.00000000000E+00 -0.00000000000E+00 -0.18250000000E+03  0.18250000000E+03  0.00000000000E+00 0.  1.
        -11    1    1    2    0    0  0.11429689819E+01  0.65893603758E+00  0.65478420774E+02  0.65491710635E+02  0.00000000000E+00 0. -1.
         11    1    1    2    0    0  0.16410977184E-01 -0.29102525958E+01 -0.18213371399E+03  0.18215696421E+03  0.00000000000E+00 0.  1.
        -15    1    1    2    0    0 -0.34727732408E+01 -0.39016235417E+01  0.67744286107E+02  0.67968587226E+02  0.17770000000E+01 0.  1.
         15    1    1    2    0    0  0.23133932817E+01  0.61529400999E+01  0.48911007105E+02  0.49382737929E+02  0.17770000000E+01 0. -1.
</event>
<event>
 6    1  0.1298204E-002  0.1843572E+03  0.7546771E-02  0.1066986E+00
        -11   -1    0    0    0    0  0.00000000000E+00  0.00000000000E+00  0.18250000000E+03  0.18250000000E+03  0.00000000000E+00 0. -1.
         11   -1    0    0    0    0 -0.00000000000E+00 -0.00000000000E+00 -0.18250000000E+03  0.18250000000E+03  0.00000000000E+00 0.  1.
        -11    1    1    2    0    0  0.49615095164E+01 -0.10612066135E+01  0.13733787971E+03  0.13743156820E+03  0.00000000000E+00 0. -1.
         11    1    1    2    0    0 -0.11797162558E+02  0.55747117269E+01 -0.18017094723E+03  0.18064279859E+03  0.00000000000E+00 0.  1.
        -15    1    1    2    0    0  0.12384400280E+02 -0.15476062018E+01  0.29251508285E+02  0.31852424102E+02  0.17770000000E+01 0. -1.
         15    1    1    2    0    0 -0.55487472389E+01 -0.29658989116E+01  0.13581559241E+02  0.15073209104E+02  0.17770000000E+01 0.  1.
</event>
<event>
 6    1  0.1298204E-002  0.1828025E+03  0.7546771E-02  0.1068214E+00
        -11   -1    0    0    0    0  0.00000000000E+00  0.00000000000E+00  0.18250000000E+03  0.18250000000E+03  0.00000000000E+00 0. -1.
         11   -1    0    0    0    0 -0.00000000000E+00 -0.00000000000E+00 -0.18250000000E+03  0.18250000000E+03  0.00000000000E+00 0. -1.
        -11    1    1    2    0    0 -0.11527774807E+01 -0.20457047306E+01  0.91713439057E+02  0.91743494088E+02  0.00000000000E+00 0. -1.
         11    1    1    2    0    0  0.63110426328E+00 -0.32007539398E+01 -0.18216825458E+03  0.18219746457E+03  0.00000000000E+00 0. -1.
        -15    1    1    2    0    0 -0.11224734008E+01  0.32522300865E+00  0.50668984801E+01  0.54951711301E+01  0.17770000000E+01 0.  1.
         15    1    1    2    0    0  0.16441466182E+01  0.49212356618E+01  0.85387917047E+02  0.85563870209E+02  0.17770000000E+01 0. -1.
</event>
<event>
 6    1  0.1298204E-002  0.1739201E+03  0.7546771E-02  0.1075497E+00
        -11   -1    0    0    0    0  0.00000000000E+00  0.00000000000E+00  0.18250000000E+03  0.18250000000E+03  0.00000000000E+00 0.  1.
         11   -1    0    0    0    0 -0.00000000000E+00 -0.00000000000E+00 -0.18250000000E+03  0.18250000000E+03  0.00000000000E+00 0.  1.
        -11    1    1    2    0    0  0.21944777710E+00  0.31243869676E+01  0.17494659453E+03  0.17497462928E+03  0.00000000000E+00 0.  1.
         11    1    1    2    0    0 -0.63721858565E+01  0.10853915313E+01 -0.17283104910E+03  0.17295188452E+03  0.00000000000E+00 0.  1.
        -15    1    1    2    0    0  0.13934588699E+01 -0.19201594529E+01  0.63102387696E+01  0.69717703832E+01  0.17770000000E+01 0.  1.
         15    1    1    2    0    0  0.47592792095E+01 -0.22896190460E+01 -0.84257842042E+01  0.10101715816E+02  0.17770000000E+01 0. -1.
</event>
<event>
 6    1  0.1298204E-002  0.1825883E+03  0.7546771E-02  0.1068385E+00
        -11   -1    0    0    0    0  0.00000000000E+00  0.00000000000E+00  0.18250000000E+03  0.18250000000E+03  0.00000000000E+00 0.  1.
         11   -1    0    0    0    0 -0.00000000000E+00 -0.00000000000E+00 -0.18250000000E+03  0.18250000000E+03  0.00000000000E+00 0. -1.
        -11    1    1    2    0    0 -0.33779132146E+01  0.11721632598E+01  0.18237667126E+03  0.18241171696E+03  0.00000000000E+00 0.  1.
         11    1    1    2    0    0  0.17998546675E+01 -0.71748491722E+00 -0.35180714295E+02  0.35234030705E+02  0.00000000000E+00 0. -1.
        -15    1    1    2    0    0 -0.57578171355E+00  0.12011021263E+01 -0.10839028723E+03  0.10841303550E+03  0.17770000000E+01 0. -1.
         15    1    1    2    0    0  0.21538402606E+01 -0.16557804689E+01 -0.38805669726E+02  0.38941216837E+02  0.17770000000E+01 0. -1.
</event>
<event>
 6    1  0.1298204E-002  0.1913345E+03  0.7546771E-02  0.1061632E+00
        -11   -1    0    0    0    0  0.00000000000E+00  0.00000000000E+00  0.18250000000E+03  0.18250000000E+03  0.00000000000E+00 0. -1.
         11   -1    0    0    0    0 -0.00000000000E+00 -0.00000000000E+00 -0.18250000000E+03  0.18250000000E+03  0.00000000000E+00 0.  1.
        -11    1    1    2    0    0 -0.56825733043E-01  0.26803725200E+01  0.17364481890E+03  0.17366551401E+03  0.00000000000E+00 0. -1.
         11    1    1    2    0    0 -0.33230918922E+01  0.55474815254E+01 -0.15907348680E+03  0.15920487334E+03  0.00000000000E+00 0.  1.
        -15    1    1    2    0    0  0.85169290988E+00  0.59290755176E+00 -0.20797634768E+02  0.20899192834E+02  0.17770000000E+01 0. -1.
         15    1    1    2    0    0  0.25282247154E+01 -0.88207615972E+01  0.62263026714E+01  0.11230419819E+02  0.17770000000E+01 0.  1.
</event>
<event>
 6    1  0.1298204E-002  0.1837045E+03  0.7546771E-02  0.1067500E+00
        -11   -1    0    0    0    0  0.00000000000E+00  0.00000000000E+00  0.18250000000E+03  0.18250000000E+03  0.00000000000E+00 0. -1.
         11   -1    0    0    0    0 -0.00000000000E+00 -0.00000000000E+00 -0.18250000000E+03  0.18250000000E+03  0.00000000000E+00 0. -1.
        -11    1    1    2    0    0 -0.28979606694E+01 -0.31274864970E+01  0.17199959286E+03  0.17205243181E+03  0.00000000000E+00 0. -1.
         11    1    1    2    0    0  0.12112678619E+01  0.46340773857E+01 -0.18123221559E+03  0.18129549860E+03  0.00000000000E+00 0. -1.
        -15    1    1    2    0    0 -0.13830849030E+00  0.10752962951E+01  0.71990383999E+01  0.74939491754E+01  0.17770000000E+01 0. -1.
         15    1    1    2    0    0  0.18250012977E+01 -0.25818871838E+01  0.20335843296E+01  0.41581204158E+01  0.17770000000E+01 0.  1.
</event>
<event>
 6    1  0.1298204E-002  0.1852386E+03  0.7546771E-02  0.1066296E+00
        -11   -1    0    0    0    0  0.00000000000E+00  0.00000000000E+00  0.18250000000E+03  0.18250000000E+03  0.00000000000E+00 0. -1.
         11   -1    0    0    0    0 -0.00000000000E+00 -0.00000000000E+00 -0.18250000000E+03  0.18250000000E+03  0.00000000000E+00 0.  1.
        -11    1    1    2    0    0 -0.70603097966E+01 -0.20410289475E+01  0.17961106744E+03  0.17976136771E+03  0.00000000000E+00 0. -1.
         11    1    1    2    0    0 -0.60071621094E+00 -0.50442341954E+01 -0.10738432636E+03  0.10750441250E+03  0.00000000000E+00 0.  1.
        -15    1    1    2    0    0  0.79933155551E+01 -0.78533625568E+01 -0.16590894180E+02  0.20099350629E+02  0.17770000000E+01 0. -1.
         15    1    1    2    0    0 -0.33228954756E+00  0.14938625700E+02 -0.55635846900E+02  0.57634869163E+02  0.17770000000E+01 0.  1.
</event>
<event>
 6    1  0.1298204E-002  0.1856954E+03  0.7546771E-02  0.1065939E+00
        -11   -1    0    0    0    0  0.00000000000E+00  0.00000000000E+00  0.18250000000E+03  0.18250000000E+03  0.00000000000E+00 0.  1.
         11   -1    0    0    0    0 -0.00000000000E+00 -0.00000000000E+00 -0.18250000000E+03  0.18250000000E+03  0.00000000000E+00 0. -1.
        -11    1    1    2    0    0 -0.64059275821E+01  0.15338642711E+01  0.16631131551E+03  0.16644170846E+03  0.00000000000E+00 0.  1.
         11    1    1    2    0    0  0.40563601820E+01 -0.15961870527E+01 -0.17925157461E+03  0.17930457013E+03  0.00000000000E+00 0. -1.
        -15    1    1    2    0    0 -0.19330919114E+01  0.24640406827E+01 -0.14981474228E+01  0.39000660924E+01  0.17770000000E+01 0. -1.
         15    1    1    2    0    0  0.42826593116E+01 -0.24017179011E+01  0.14438406524E+02  0.15353655317E+02  0.17770000000E+01 0.  1.
</event>
<event>
 6    1  0.1298204E-002  0.1832465E+03  0.7546771E-02  0.1067862E+00
        -11   -1    0    0    0    0  0.00000000000E+00  0.00000000000E+00  0.18250000000E+03  0.18250000000E+03  0.00000000000E+00 0.  1.
         11   -1    0    0    0    0 -0.00000000000E+00 -0.00000000000E+00 -0.18250000000E+03  0.18250000000E+03  0.00000000000E+00 0.  1.
        -11    1    1    2    0    0 -0.78109310294E+00  0.26810386661E+01  0.18173207135E+03  0.18175352495E+03  0.00000000000E+00 0.  1.
         11    1    1    2    0    0  0.45037445987E+01  0.24292453635E+01 -0.57798763387E+02  0.58024839487E+02  0.00000000000E+00 0.  1.
        -15    1    1    2    0    0  0.60217881136E+01  0.20350731345E+00 -0.32645069717E+02  0.33243971681E+02  0.17770000000E+01 0. -1.
         15    1    1    2    0    0 -0.97444396093E+01 -0.53137913430E+01 -0.91288238247E+02  0.91977663881E+02  0.17770000000E+01 0.  1.
</event>
<event>
 6    1  0.1298204E-002  0.1865730E+03  0.7546771E-02  0.1065258E+00
        -11   -1    0    0    0    0  0.00000000000E+00  0.00000000000E+00  0.18250000000E+03  0.18250000000E+03  0.00000000000E+00 0.  1.
         11   -1    0    0    0    0 -0.00000000000E+00 -0.00000000000E+00 -0.18250000000E+03  0.18250000000E+03  0.00000000000E+00 0.  1.
        -11    1    1    2    0    0  0.30186468026E+01  0.18414577497E+01  0.17195577019E+03  0.17199212219E+03  0.00000000000E+00 0.  1.
         11    1    1    2    0    0 -0.89719304016E+01  0.44010638252E+01 -0.17814691737E+03  0.17842698525E+03  0.00000000000E+00 0.  1.
        -15    1    1    2    0    0  0.69388018768E+01 -0.49004234063E+01  0.86155148293E+00  0.87213027125E+01  0.17770000000E+01 0.  1.
         15    1    1    2    0    0 -0.98551827774E+00 -0.13420981686E+01  0.53295956980E+01  0.58595898384E+01  0.17770000000E+01 0.  1.
</event>
<event>
 6    1  0.1298204E-002  0.1961379E+03  0.7546771E-02  0.1058089E+00
        -11   -1    0    0    0    0  0.00000000000E+00  0.00000000000E+00  0.18250000000E+03  0.18250000000E+03  0.00000000000E+00 0. -1.
         11   -1    0    0    0    0 -0.00000000000E+00 -0.00000000000E+00 -0.18250000000E+03  0.18250000000E+03  0.00000000000E+00 0. -1.
        -11    1    1    2    0    0  0.18324403162E+00 -0.23441469750E+01  0.16180048149E+03  0.16181756522E+03  0.00000000000E+00 0. -1.
         11    1    1    2    0    0 -0.81631039321E-01  0.27154496334E+01 -0.16884023911E+03  0.16886209366E+03  0.00000000000E+00 0. -1.
        -15    1    1    2    0    0  0.13954133082E+01  0.54069322074E+01  0.19515590239E+02  0.20376410027E+02  0.17770000000E+01 0.  1.
         15    1    1    2    0    0 -0.14970263005E+01 -0.57782348658E+01 -0.12475832615E+02  0.13943931094E+02  0.17770000000E+01 0.  1.
</event>
<event>
 6    1  0.1298204E-002  0.1765064E+03  0.7546771E-02  0.1073328E+00
        -11   -1    0    0    0    0  0.00000000000E+00  0.00000000000E+00  0.18250000000E+03  0.18250000000E+03  0.00000000000E+00 0.  1.
         11   -1    0    0    0    0 -0.00000000000E+00 -0.00000000000E+00 -0.18250000000E+03  0.18250000000E+03  0.00000000000E+00 0. -1.
        -11    1    1    2    0    0 -0.20912933094E+01  0.24949346114E+01  0.17845964777E+03  0.17848933886E+03  0.00000000000E+00 0.  1.
         11    1    1    2    0    0  0.40579030205E+01  0.65889888920E+01 -0.17449660270E+03  0.17466810156E+03  0.00000000000E+00 0. -1.
        -15    1    1    2    0    0 -0.85380401788E+00 -0.47536657131E+01 -0.47069946445E+01  0.69742273118E+01  0.17770000000E+01 0. -1.
         15    1    1    2    0    0 -0.11128056933E+01 -0.43302577903E+01  0.74394957426E+00  0.48683322617E+01  0.17770000000E+01 0.  1.
</event>
<event>
 6    1  0.1298204E-002  0.1833672E+03  0.7546771E-02  0.1067767E+00
        -11   -1    0    0    0    0  0.00000000000E+00  0.00000000000E+00  0.18250000000E+03  0.18250000000E+03  0.00000000000E+00 0.  1.
         11   -1    0    0    0    0 -0.00000000000E+00 -0.00000000000E+00 -0.18250000000E+03  0.18250000000E+03  0.00000000000E+00 0.  1.
        -11    1    1    2    0    0 -0.24113042975E+01 -0.45721157860E+00  0.16778695455E+03  0.16780490323E+03  0.00000000000E+00 0.  1.
         11    1    1    2    0    0  0.40700933773E+01  0.52540066761E+01 -0.18151119537E+03  0.18163282823E+03  0.00000000000E+00 0.  1.
        -15    1    1    2    0    0 -0.23635440325E+01 -0.39822179118E+01  0.74265138465E+01  0.89305787496E+01  0.17770000000E+01 0.  1.
         15    1    1    2    0    0  0.70475495263E+00 -0.81457718568E+00  0.62977269656E+01  0.66316897898E+01  0.17770000000E+01 0. -1.
</event>
<event>
 6    1  0.1298204E-002  0.1833983E+03  0.7546771E-02  0.1067742E+00
        -11   -1    0    0    0    0  0.00000000000E+00  0.00000000000E+00  0.18250000000E+03  0.18250000000E+03  0.00000000000E+00 0. -1.
         11   -1    0    0    0    0 -0.00000000000E+00 -0.00000000000E+00 -0.18250000000E+03  0.18250000000E+03  0.00000000000E+00 0. -1.
        -11    1    1    2    0    0 -0.11748626094E+01 -0.79936885733E+00  0.89131868130E+02  0.89143194968E+02  0.00000000000E+00 0. -1.
         11    1    1    2    0    0  0.35736267913E+01 -0.64236710365E+00 -0.18156535821E+03  0.18160165954E+03  0.00000000000E+00 0. -1.
        -15    1    1    2    0    0 -0.78687494414E+01  0.57050310021E+01  0.34693066435E+02  0.36072582166E+02  0.17770000000E+01 0. -1.
         15    1    1    2    0    0  0.54699852594E+01 -0.42632950411E+01  0.57740423648E+02  0.58182563328E+02  0.17770000000E+01 0. -1.
</event>
<event>
 6    1  0.1298204E-002  0.1826679E+03  0.7546771E-02  0.1068321E+00
        -11   -1    0    0    0    0  0.00000000000E+00  0.00000000000E+00  0.18250000000E+03  0.18250000000E+03  0.00000000000E+00 0. -1.
         11   -1    0    0    0    0 -0.00000000000E+00 -0.00000000000E+00 -0.18250000000E+03  0.18250000000E+03  0.00000000000E+00 0. -1.
        -11    1    1    2    0    0  0.31194373702E+01 -0.33497662437E+01  0.18227465606E+03  0.18233212022E+03  0.00000000000E+00 0. -1.
         11    1    1    2    0    0  0.16575726034E+01 -0.18489221198E+00 -0.87681057361E+02  0.87696918715E+02  0.00000000000E+00 0. -1.
        -15    1    1    2    0    0 -0.16914170385E+01  0.16057634459E-01 -0.13368434458E+02  0.13591685632E+02  0.17770000000E+01 0.  1.
         15    1    1    2    0    0 -0.30855929352E+01  0.35186008212E+01 -0.81225164238E+02  0.81379275433E+02  0.17770000000E+01 0. -1.
</event>
<event>
 6    1  0.1298204E-002  0.1835266E+03  0.7546771E-02  0.1067641E+00
        -11   -1    0    0    0    0  0.00000000000E+00  0.00000000000E+00  0.18250000000E+03  0.18250000000E+03  0.00000000000E+00 0. -1.
         11   -1    0    0    0    0 -0.00000000000E+00 -0.00000000000E+00 -0.18250000000E+03  0.18250000000E+03  0.00000000000E+00 0. -1.
        -11    1    1    2    0    0 -0.19386498136E+01  0.39856419380E+00  0.11572157554E+03  0.11573849949E+03  0.00000000000E+00 0. -1.
         11    1    1    2    0    0  0.33089124590E+01  0.14551250697E+01 -0.18143736161E+03  0.18147336576E+03  0.00000000000E+00 0. -1.
        -15    1    1    2    0    0 -0.26417771277E+01  0.10979865939E+01  0.63306285619E+02  0.63395804979E+02  0.17770000000E+01 0.  1.
         15    1    1    2    0    0  0.12715144823E+01 -0.29516758574E+01  0.24095004502E+01  0.43923297765E+01  0.17770000000E+01 0. -1.
</event>
<event>
 6    1  0.1298204E-002  0.1731002E+03  0.7546771E-02  0.1076193E+00
        -11   -1    0    0    0    0  0.00000000000E+00  0.00000000000E+00  0.18250000000E+03  0.18250000000E+03  0.00000000000E+00 0.  1.
         11   -1    0    0    0    0 -0.00000000000E+00 -0.00000000000E+00 -0.18250000000E+03  0.18250000000E+03  0.00000000000E+00 0.  1.
        -11    1    1    2    0    0  0.24140422600E+01 -0.20117700349E+01  0.17392040117E+03  0.17394878775E+03  0.00000000000E+00 0.  1.
         11    1    1    2    0    0  0.30718086195E+01  0.80193272498E+00 -0.17227191721E+03  0.17230116820E+03  0.00000000000E+00 0.  1.
        -15    1    1    2    0    0 -0.80261936476E+01  0.12224479669E+01  0.61624330967E+01  0.10346374929E+02  0.17770000000E+01 0. -1.
         15    1    1    2    0    0  0.25403427681E+01 -0.12610656921E-01 -0.78109170568E+01  0.84036691199E+01  0.17770000000E+01 0.  1.
</event>
<event>
 6    1  0.1298204E-002  0.1935362E+03  0.7546771E-02  0.1059994E+00
        -11   -1    0    0    0    0  0.00000000000E+00  0.00000000000E+00  0.18250000000E+03  0.18250000000E+03  0.00000000000E+00 0.  1.
         11   -1    0    0    0    0 -0.00000000000E+00 -0.00000000000E+00 -0.18250000000E+03  0.18250000000E+03  0.00000000000E+00 0.  1.
        -11    1    1    2    0    0  0.14307267514E+01  0.76487357321E+01  0.12801113105E+03  0.12824741639E+03  0.00000000000E+00 0.  1.
         11    1    1    2    0    0 -0.25659188062E+01  0.66880663958E+00 -0.17144325910E+03  0.17146376390E+03  0.00000000000E+00 0.  1.
        -15    1    1    2    0    0 -0.66664056599E+01 -0.61842138316E+01 -0.85763265845E+01  0.12625235515E+02  0.17770000000E+01 0. -1.
         15    1    1    2    0    0  0.78015977147E+01 -0.21333285401E+01  0.52008454635E+02  0.52663584193E+02  0.17770000000E+01 0.  1.
</event>
<event>
 6    1  0.1298204E-002  0.1827459E+03  0.7546771E-02  0.1068259E+00
        -11   -1    0    0    0    0  0.00000000000E+00  0.00000000000E+00  0.18250000000E+03  0.18250000000E+03  0.00000000000E+00 0.  1.
         11   -1    0    0    0    0 -0.00000000000E+00 -0.00000000000E+00 -0.18250000000E+03  0.18250000000E+03  0.00000000000E+00 0. -1.
        -11    1    1    2    0    0 -0.33417846848E+01 -0.15445605169E+01  0.18221694645E+03  0.18225413237E+03  0.00000000000E+00 0.  1.
         11    1    1    2    0    0 -0.17643244285E+01  0.10723825527E+01 -0.53162981869E+02  0.53203058993E+02  0.00000000000E+00 0. -1.
        -15    1    1    2    0    0  0.61919289608E+01  0.22249727176E+01 -0.52506157411E+02  0.52946622016E+02  0.17770000000E+01 0.  1.
         15    1    1    2    0    0 -0.10858198475E+01 -0.17527947535E+01 -0.76547807168E+02  0.76596186624E+02  0.17770000000E+01 0. -1.
</event>
<event>
 6    1  0.1729299E-002  0.2003143E+03  0.7546771E-02  0.1055097E+00
        -11   -1    0    0    0    0  0.00000000000E+00  0.00000000000E+00  0.18250000000E+03  0.18250000000E+03  0.00000000000E+00 0. -1.
         11   -1    0    0    0    0 -0.00000000000E+00 -0.00000000000E+00 -0.18250000000E+03  0.18250000000E+03  0.00000000000E+00 0.  1.
        -11    1    1    2    0    0 -0.47017899738E+01  0.11594597627E+02  0.16420970211E+03  0.16468566358E+03  0.00000000000E+00 0. -1.
         11    1    1    2    0    0 -0.20650285995E+02 -0.11569114455E+02 -0.10786717489E+03  0.11043371831E+03  0.00000000000E+00 0.  1.
        -15    1    1    2    0    0  0.76318414604E+01  0.41174957762E+00  0.14686705576E+02  0.16651474153E+02  0.17770000000E+01 0. -1.
         15    1    1    2    0    0  0.17720234508E+02 -0.43723274925E+00 -0.71029232794E+02  0.73229143951E+02  0.17770000000E+01 0.  1.
</event>
<event>
 6    1  0.1298204E-002  0.1902693E+03  0.7546771E-02  0.1062433E+00
        -11   -1    0    0    0    0  0.00000000000E+00  0.00000000000E+00  0.18250000000E+03  0.18250000000E+03  0.00000000000E+00 0.  1.
         11   -1    0    0    0    0 -0.00000000000E+00 -0.00000000000E+00 -0.18250000000E+03  0.18250000000E+03  0.00000000000E+00 0. -1.
        -11    1    1    2    0    0  0.91436555880E+01 -0.12372385051E+00  0.17449129228E+03  0.17473074379E+03  0.00000000000E+00 0.  1.
         11    1    1    2    0    0 -0.17823386166E+01 -0.30264900763E+01 -0.10401285657E+03  0.10407214183E+03  0.00000000000E+00 0. -1.
        -15    1    1    2    0    0 -0.27191837415E+01  0.53802402785E+01 -0.77250471920E+02  0.77505703574E+02  0.17770000000E+01 0. -1.
         15    1    1    2    0    0 -0.46421332299E+01 -0.22300263517E+01  0.67720362107E+01  0.86914108114E+01  0.17770000000E+01 0.  1.
</event>
<event>
 6    1  0.1298204E-002  0.1897099E+03  0.7546771E-02  0.1062856E+00
        -11   -1    0    0    0    0  0.00000000000E+00  0.00000000000E+00  0.18250000000E+03  0.18250000000E+03  0.00000000000E+00 0. -1.
         11   -1    0    0    0    0 -0.00000000000E+00 -0.00000000000E+00 -0.18250000000E+03  0.18250000000E+03  0.00000000000E+00 0. -1.
        -11    1    1    2    0    0 -0.34404932896E+01  0.30020151191E+01  0.17523057997E+03  0.17529006031E+03  0.00000000000E+00 0. -1.
         11    1    1    2    0    0  0.56189897377E+01 -0.71057561537E+01 -0.14715208466E+03  0.14743066451E+03  0.00000000000E+00 0. -1.
        -15    1    1    2    0    0  0.21581587964E+01  0.79482434566E+01 -0.33256405622E+02  0.34307119776E+02  0.17770000000E+01 0.  1.
         15    1    1    2    0    0 -0.43366552446E+01 -0.38445024219E+01  0.51779103185E+01  0.79721554079E+01  0.17770000000E+01 0. -1.
</event>
<event>
 6    1  0.1298204E-002  0.1839374E+03  0.7546771E-02  0.1067316E+00
        -11   -1    0    0    0    0  0.00000000000E+00  0.00000000000E+00  0.18250000000E+03  0.18250000000E+03  0.00000000000E+00 0. -1.
         11   -1    0    0    0    0 -0.00000000000E+00 -0.00000000000E+00 -0.18250000000E+03  0.18250000000E+03  0.00000000000E+00 0.  1.
        -11    1    1    2    0    0  0.56020314843E-01  0.58681994518E+00  0.42587480365E+02  0.42591559960E+02  0.00000000000E+00 0. -1.
         11    1    1    2    0    0  0.94887762939E+00  0.54382249241E+01 -0.18097843479E+03  0.18106260939E+03  0.00000000000E+00 0.  1.
        -15    1    1    2    0    0  0.46273137073E+01  0.18778067477E+01  0.12267731286E+03  0.12279177094E+03  0.17770000000E+01 0. -1.
         15    1    1    2    0    0 -0.56322116516E+01 -0.79028516170E+01  0.15713641565E+02  0.18554059717E+02  0.17770000000E+01 0.  1.
</event>
<event>
 6    1  0.1298204E-002  0.1842046E+03  0.7546771E-02  0.1067106E+00
        -11   -1    0    0    0    0  0.00000000000E+00  0.00000000000E+00  0.18250000000E+03  0.18250000000E+03  0.00000000000E+00 0. -1.
         11   -1    0    0    0    0 -0.00000000000E+00 -0.00000000000E+00 -0.18250000000E+03  0.18250000000E+03  0.00000000000E+00 0. -1.
        -11    1    1    2    0    0 -0.30975325668E+01  0.45800988523E+01  0.16167464707E+03  0.16176916739E+03  0.00000000000E+00 0. -1.
         11    1    1    2    0    0  0.40220875994E+01  0.26698425430E+01 -0.18073092731E+03  0.18079539079E+03  0.00000000000E+00 0. -1.
        -15    1    1    2    0    0  0.54815877500E+00 -0.59035264183E+01  0.18750939727E+02  0.19746077379E+02  0.17770000000E+01 0. -1.
         15    1    1    2    0    0 -0.14727138076E+01 -0.13464149770E+01  0.30534051238E+00  0.26893644376E+01  0.17770000000E+01 0.  1.
</event>
<event>
 6    1  0.1298204E-002  0.1844138E+03  0.7546771E-02  0.1066942E+00
        -11   -1    0    0    0    0  0.00000000000E+00  0.00000000000E+00  0.18250000000E+03  0.18250000000E+03  0.00000000000E+00 0.  1.
         11   -1    0    0    0    0 -0.00000000000E+00 -0.00000000000E+00 -0.18250000000E+03  0.18250000000E+03  0.00000000000E+00 0. -1.
        -11    1    1    2    0    0  0.37884757177E+01  0.39679012155E+01  0.18050289467E+03  0.18058624469E+03  0.00000000000E+00 0.  1.
         11    1    1    2    0    0 -0.14179212929E+01 -0.20072350196E+01 -0.14158591857E+03  0.14160724498E+03  0.00000000000E+00 0. -1.
        -15    1    1    2    0    0  0.63241664112E+01  0.17130543962E+01 -0.24940324963E+02  0.25847769235E+02  0.17770000000E+01 0.  1.
         15    1    1    2    0    0 -0.86947208360E+01 -0.36737205920E+01 -0.13976651133E+02  0.16958741089E+02  0.17770000000E+01 0. -1.
</event>
<event>
 6    1  0.1298204E-002  0.1692653E+03  0.7546771E-02  0.1079507E+00
        -11   -1    0    0    0    0  0.00000000000E+00  0.00000000000E+00  0.18250000000E+03  0.18250000000E+03  0.00000000000E+00 0. -1.
         11   -1    0    0    0    0 -0.00000000000E+00 -0.00000000000E+00 -0.18250000000E+03  0.18250000000E+03  0.00000000000E+00 0.  1.
        -11    1    1    2    0    0  0.73344863649E+01 -0.47259642114E+00  0.16722590888E+03  0.16738734312E+03  0.00000000000E+00 0. -1.
         11    1    1    2    0    0  0.15431293460E+01 -0.22431503672E+01 -0.17127308776E+03  0.17129472719E+03  0.00000000000E+00 0.  1.
        -15    1    1    2    0    0 -0.10093938528E+02  0.89370094379E+01 -0.55436903460E+01  0.14684957077E+02  0.17770000000E+01 0.  1.
         15    1    1    2    0    0  0.12163228167E+01 -0.62212626496E+01  0.95908692297E+01  0.11632972609E+02  0.17770000000E+01 0. -1.
</event>
<event>
 6    1  0.1298204E-002  0.1834834E+03  0.7546771E-02  0.1067675E+00
        -11   -1    0    0    0    0  0.00000000000E+00  0.00000000000E+00  0.18250000000E+03  0.18250000000E+03  0.00000000000E+00 0. -1.
         11   -1    0    0    0    0 -0.00000000000E+00 -0.00000000000E+00 -0.18250000000E+03  0.18250000000E+03  0.00000000000E+00 0. -1.
        -11    1    1    2    0    0  0.80974873606E+01 -0.40875827314E+01  0.18128984207E+03  0.18151662312E+03  0.00000000000E+00 0. -1.
         11    1    1    2    0    0  0.23142749388E+01  0.15015380251E+01 -0.36779726936E+02  0.36883042153E+02  0.00000000000E+00 0. -1.
        -15    1    1    2    0    0 -0.34816110445E+01  0.48957280378E+01 -0.94916358286E+01  0.11372715075E+02  0.17770000000E+01 0.  1.
         15    1    1    2    0    0 -0.69301512549E+01 -0.23096833315E+01 -0.13501847930E+03  0.13522761965E+03  0.17770000000E+01 0. -1.
</event>
<event>
 6    1  0.1298204E-002  0.1840119E+03  0.7546771E-02  0.1067258E+00
        -11   -1    0    0    0    0  0.00000000000E+00  0.00000000000E+00  0.18250000000E+03  0.18250000000E+03  0.00000000000E+00 0.  1.
         11   -1    0    0    0    0 -0.00000000000E+00 -0.00000000000E+00 -0.18250000000E+03  0.18250000000E+03  0.00000000000E+00 0.  1.
        -11    1    1    2    0    0 -0.30591837282E+01  0.23272837029E+01  0.18094722992E+03  0.18098805174E+03  0.00000000000E+00 0.  1.
         11    1    1    2    0    0  0.24319426833E+01 -0.51002681517E+01 -0.14181574072E+03  0.14192826144E+03  0.00000000000E+00 0.  1.
        -15    1    1    2    0    0  0.14732623459E+01 -0.59011084067E+00 -0.37931781177E+02  0.38006532136E+02  0.17770000000E+01 0. -1.
         15    1    1    2    0    0 -0.84602130096E+00  0.33630952895E+01 -0.11997080283E+01  0.40771546845E+01  0.17770000000E+01 0.  1.
</event>
<event>
 6    1  0.1298204E-002  0.1839638E+03  0.7546771E-02  0.1067296E+00
        -11   -1    0    0    0    0  0.00000000000E+00  0.00000000000E+00  0.18250000000E+03  0.18250000000E+03  0.00000000000E+00 0.  1.
         11   -1    0    0    0    0 -0.00000000000E+00 -0.00000000000E+00 -0.18250000000E+03  0.18250000000E+03  0.00000000000E+00 0. -1.
        -11    1    1    2    0    0 -0.45997882454E+01  0.17533518750E+01  0.68978767681E+02  0.69154194996E+02  0.00000000000E+00 0.  1.
         11    1    1    2    0    0  0.10412564417E+02 -0.70298198713E+01 -0.18059969180E+03  0.18103615259E+03  0.00000000000E+00 0. -1.
        -15    1    1    2    0    0 -0.11262892008E+02  0.33803385704E+01  0.22197839874E+02  0.25182955531E+02  0.17770000000E+01 0. -1.
         15    1    1    2    0    0  0.54501158361E+01  0.18961294258E+01  0.89423084246E+02  0.89626696885E+02  0.17770000000E+01 0.  1.
</event>
<event>
 6    1  0.1298204E-002  0.1847897E+03  0.7546771E-02  0.1066647E+00
        -11   -1    0    0    0    0  0.00000000000E+00  0.00000000000E+00  0.18250000000E+03  0.18250000000E+03  0.00000000000E+00 0. -1.
         11   -1    0    0    0    0 -0.00000000000E+00 -0.00000000000E+00 -0.18250000000E+03  0.18250000000E+03  0.00000000000E+00 0.  1.
        -11    1    1    2    0    0  0.12928210897E+02 -0.93062352295E+01  0.13002612238E+03  0.13099823339E+03  0.00000000000E+00 0. -1.
         11    1    1    2    0    0 -0.43947445535E+01 -0.64727015274E+00 -0.18015550639E+03  0.18021026391E+03  0.00000000000E+00 0.  1.
        -15    1    1    2    0    0 -0.30576773363E+00  0.71749208204E+01  0.38308490268E+02  0.39016293242E+02  0.17770000000E+01 0.  1.
         15    1    1    2    0    0 -0.82276986103E+01  0.27785845619E+01  0.11820893738E+02  0.14775209453E+02  0.17770000000E+01 0. -1.
</event>
<event>
 6    1  0.1364361E-002  0.1908067E+03  0.7546771E-02  0.1062028E+00
        -11   -1    0    0    0    0  0.00000000000E+00  0.00000000000E+00  0.18250000000E+03  0.18250000000E+03  0.00000000000E+00 0. -1.
         11   -1    0    0    0    0 -0.00000000000E+00 -0.00000000000E+00 -0.18250000000E+03  0.18250000000E+03  0.00000000000E+00 0. -1.
        -11    1    1    2    0    0 -0.43795655163E+01 -0.65252857913E+01  0.16974427968E+03  0.16992610286E+03  0.00000000000E+00 0. -1.
         11    1    1    2    0    0 -0.23462350292E+01  0.52602638777E+01 -0.17409801687E+03  0.17419326816E+03  0.00000000000E+00 0. -1.
        -15    1    1    2    0    0  0.38471706526E+01  0.54204078557E+01  0.10608605954E+02  0.12644437221E+02  0.17770000000E+01 0.  1.
         15    1    1    2    0    0  0.28786298929E+01 -0.41553859421E+01 -0.62548687677E+01  0.82361917589E+01  0.17770000000E+01 0. -1.
</event>
<event>
 6    1  0.1298204E-002  0.1831569E+03  0.7546771E-02  0.1067933E+00
        -11   -1    0    0    0    0  0.00000000000E+00  0.00000000000E+00  0.18250000000E+03  0.18250000000E+03  0.00000000000E+00 0. -1.
         11   -1    0    0    0    0 -0.00000000000E+00 -0.00000000000E+00 -0.18250000000E+03  0.18250000000E+03  0.00000000000E+00 0. -1.
        -11    1    1    2    0    0 -0.24362108378E+01  0.88328134007E+00  0.18182465603E+03  0.18184312154E+03  0.00000000000E+00 0. -1.
         11    1    1    2    0    0 -0.16994708349E+01  0.50042330320E+01 -0.15288166036E+03  0.15297298004E+03  0.00000000000E+00 0. -1.
        -15    1    1    2    0    0  0.98928408605E+00 -0.32938519973E+01 -0.17111506342E+02  0.17543931209E+02  0.17770000000E+01 0.  1.
         15    1    1    2    0    0  0.31463975866E+01 -0.25936623748E+01 -0.11831489332E+02  0.12639967211E+02  0.17770000000E+01 0. -1.
</event>
<event>
 6    1  0.1298204E-002  0.1827232E+03  0.7546771E-02  0.1068277E+00
        -11   -1    0    0    0    0  0.00000000000E+00  0.00000000000E+00  0.18250000000E+03  0.18250000000E+03  0.00000000000E+00 0. -1.
         11   -1    0    0    0    0 -0.00000000000E+00 -0.00000000000E+00 -0.18250000000E+03  0.18250000000E+03  0.00000000000E+00 0. -1.
        -11    1    1    2    0    0  0.15625136587E+01  0.32798738389E+01  0.18224061106E+03  0.18227682064E+03  0.00000000000E+00 0. -1.
         11    1    1    2    0    0 -0.63718282692E+00 -0.18355071221E+01 -0.14174312341E+03  0.14175643944E+03  0.00000000000E+00 0. -1.
        -15    1    1    2    0    0  0.50286057625E+00  0.96250418944E+00 -0.26513246136E+02  0.26594909903E+02  0.17770000000E+01 0. -1.
         15    1    1    2    0    0 -0.14281914081E+01 -0.24068709062E+01 -0.13984241521E+02  0.14371830021E+02  0.17770000000E+01 0.  1.
</event>
<event>
 6    1  0.1298204E-002  0.1831300E+03  0.7546771E-02  0.1067954E+00
        -11   -1    0    0    0    0  0.00000000000E+00  0.00000000000E+00  0.18250000000E+03  0.18250000000E+03  0.00000000000E+00 0.  1.
         11   -1    0    0    0    0 -0.00000000000E+00 -0.00000000000E+00 -0.18250000000E+03  0.18250000000E+03  0.00000000000E+00 0. -1.
        -11    1    1    2    0    0  0.50138828910E+00 -0.10687726351E+01  0.75754757092E+02  0.75763955066E+02  0.00000000000E+00 0.  1.
         11    1    1    2    0    0 -0.13056679848E+02  0.71304396888E+01 -0.18126053937E+03  0.18187001730E+03  0.00000000000E+00 0. -1.
        -15    1    1    2    0    0  0.11916026912E+02 -0.94041124751E+01  0.69755028319E+02  0.71409738366E+02  0.17770000000E+01 0.  1.
         15    1    1    2    0    0  0.63926464707E+00  0.33424454214E+01  0.35750753958E+02  0.35956289272E+02  0.17770000000E+01 0. -1.
</event>
<event>
 6    1  0.1298204E-002  0.1831790E+03  0.7546771E-02  0.1067916E+00
        -11   -1    0    0    0    0  0.00000000000E+00  0.00000000000E+00  0.18250000000E+03  0.18250000000E+03  0.00000000000E+00 0.  1.
         11   -1    0    0    0    0 -0.00000000000E+00 -0.00000000000E+00 -0.18250000000E+03  0.18250000000E+03  0.00000000000E+00 0.  1.
        -11    1    1    2    0    0  0.26141716229E+01 -0.84326263452E+00  0.18180028199E+03  0.18182103156E+03  0.00000000000E+00 0.  1.
         11    1    1    2    0    0  0.19877986386E+01  0.24617441400E+01 -0.16132551793E+03  0.16135654391E+03  0.00000000000E+00 0.  1.
        -15    1    1    2    0    0 -0.45676399340E+01 -0.25149973331E+01 -0.13859953001E+02  0.14914575835E+02  0.17770000000E+01 0. -1.
         15    1    1    2    0    0 -0.34330327432E-01  0.89651582757E+00 -0.66148110659E+01  0.69078486983E+01  0.17770000000E+01 0.  1.
</event>
<event>
 6    1  0.1298204E-002  0.1767544E+03  0.7546771E-02  0.1073123E+00
        -11   -1    0    0    0    0  0.00000000000E+00  0.00000000000E+00  0.18250000000E+03  0.18250000000E+03  0.00000000000E+00 0. -1.
         11   -1    0    0    0    0 -0.00000000000E+00 -0.00000000000E+00 -0.18250000000E+03  0.18250000000E+03  0.00000000000E+00 0. -1.
        -11    1    1    2    0    0  0.60419036991E+00 -0.28539657926E+01  0.17795767593E+03  0.17798158498E+03  0.00000000000E+00 0. -1.
         11    1    1    2    0    0  0.61368477395E+00 -0.51561101386E+01 -0.17555150300E+03  0.17562827872E+03  0.00000000000E+00 0. -1.
        -15    1    1    2    0    0 -0.14543444928E+01  0.69320813628E+01  0.10224858862E+01  0.73737423546E+01  0.17770000000E+01 0. -1.
         15    1    1    2    0    0  0.23646934889E+00  0.10779945684E+01 -0.34286588199E+01  0.40163939481E+01  0.17770000000E+01 0.  1.
</event>
<event>
 6    1  0.1298204E-002  0.1888291E+03  0.7546771E-02  0.1063526E+00
        -11   -1    0    0    0    0  0.00000000000E+00  0.00000000000E+00  0.18250000000E+03  0.18250000000E+03  0.00000000000E+00 0.  1.
         11   -1    0    0    0    0 -0.00000000000E+00 -0.00000000000E+00 -0.18250000000E+03  0.18250000000E+03  0.00000000000E+00 0. -1.
        -11    1    1    2    0    0  0.23589392982E+01  0.64416185058E+01  0.17104626394E+03  0.17118377100E+03  0.00000000000E+00 0.  1.
         11    1    1    2    0    0  0.26400337754E+01 -0.20574131171E+01 -0.17613911627E+03  0.17617091419E+03  0.00000000000E+00 0. -1.
        -15    1    1    2    0    0 -0.29808274735E+01 -0.64924244246E+00 -0.52488841498E+01  0.63257696760E+01  0.17770000000E+01 0. -1.
         15    1    1    2    0    0 -0.20181456001E+01 -0.37349629463E+01  0.10341736473E+02  0.11319545139E+02  0.17770000000E+01 0.  1.
</event>
<event>
 6    1  0.1298204E-002  0.1864211E+03  0.7546771E-02  0.1065376E+00
        -11   -1    0    0    0    0  0.00000000000E+00  0.00000000000E+00  0.18250000000E+03  0.18250000000E+03  0.00000000000E+00 0. -1.
         11   -1    0    0    0    0 -0.00000000000E+00 -0.00000000000E+00 -0.18250000000E+03  0.18250000000E+03  0.00000000000E+00 0.  1.
        -11    1    1    2    0    0 -0.13804650684E+01  0.25661548263E+01  0.17855508511E+03  0.17857886004E+03  0.00000000000E+00 0. -1.
         11    1    1    2    0    0 -0.52475976690E+01 -0.77587759308E+00 -0.16926415199E+03  0.16934725394E+03  0.00000000000E+00 0.  1.
        -15    1    1    2    0    0 -0.31095251645E+01 -0.25157791713E+01 -0.24036695665E+01  0.49933603888E+01  0.17770000000E+01 0. -1.
         15    1    1    2    0    0  0.97375879019E+01  0.72550193806E+00 -0.68872635545E+01  0.12080525629E+02  0.17770000000E+01 0.  1.
</event>
<event>
 6    1  0.1298204E-002  0.1827380E+03  0.7546771E-02  0.1068266E+00
        -11   -1    0    0    0    0  0.00000000000E+00  0.00000000000E+00  0.18250000000E+03  0.18250000000E+03  0.00000000000E+00 0. -1.
         11   -1    0    0    0    0 -0.00000000000E+00 -0.00000000000E+00 -0.18250000000E+03  0.18250000000E+03  0.00000000000E+00 0. -1.
        -11    1    1    2    0    0  0.26680082820E+01  0.16010119184E+01  0.18223547525E+03  0.18226203650E+03  0.00000000000E+00 0. -1.
         11    1    1    2    0    0  0.22505300057E+00  0.20755425078E+01 -0.60909693355E+02  0.60945461440E+02  0.00000000000E+00 0. -1.
        -15    1    1    2    0    0 -0.17560265544E+01 -0.28782502026E+01 -0.11522618818E+03  0.11528920212E+03  0.17770000000E+01 0. -1.
         15    1    1    2    0    0 -0.11370347282E+01 -0.79830422355E+00 -0.60995937191E+01  0.65032999427E+01  0.17770000000E+01 0.  1.
</event>
<event>
 6    1  0.1298204E-002  0.1865345E+03  0.7546771E-02  0.1065288E+00
        -11   -1    0    0    0    0  0.00000000000E+00  0.00000000000E+00  0.18250000000E+03  0.18250000000E+03  0.00000000000E+00 0.  1.
         11   -1    0    0    0    0 -0.00000000000E+00 -0.00000000000E+00 -0.18250000000E+03  0.18250000000E+03  0.00000000000E+00 0.  1.
        -11    1    1    2    0    0  0.26308722192E+01 -0.94040947314E-01  0.16624792418E+03  0.16626876624E+03  0.00000000000E+00 0.  1.
         11    1    1    2    0    0 -0.77726199929E+01  0.66791378357E+01 -0.17817105104E+03  0.17846553710E+03  0.00000000000E+00 0.  1.
        -15    1    1    2    0    0 -0.94722213322E+00  0.36785051507E+01  0.42291125050E+01  0.59558166101E+01  0.17770000000E+01 0.  1.
         15    1    1    2    0    0  0.60889699069E+01 -0.10263602039E+02  0.76940143549E+01  0.14309880057E+02  0.17770000000E+01 0. -1.
</event>
<event>
 6    1  0.1298204E-002  0.1779838E+03  0.7546771E-02  0.1072108E+00
        -11   -1    0    0    0    0  0.00000000000E+00  0.00000000000E+00  0.18250000000E+03  0.18250000000E+03  0.00000000000E+00 0. -1.
         11   -1    0    0    0    0 -0.00000000000E+00 -0.00000000000E+00 -0.18250000000E+03  0.18250000000E+03  0.00000000000E+00 0. -1.
        -11    1    1    2    0    0 -0.23566408133E+00  0.29683276501E+01  0.17725421879E+03  0.17727922773E+03  0.00000000000E+00 0. -1.
         11    1    1    2    0    0  0.49608513171E+01 -0.28709890157E+01 -0.17863051593E+03  0.17872244919E+03  0.00000000000E+00 0. -1.
        -15    1    1    2    0    0 -0.90830787936E+00 -0.26971893835E+01  0.21570963348E+01  0.39888152842E+01  0.17770000000E+01 0.  1.
         15    1    1    2    0    0 -0.38168793564E+01  0.25998507491E+01 -0.78079919937E+00  0.50095077931E+01  0.17770000000E+01 0.  1.
</event>
<event>
 6    1  0.1298204E-002  0.1942936E+03  0.7546771E-02  0.1059436E+00
        -11   -1    0    0    0    0  0.00000000000E+00  0.00000000000E+00  0.18250000000E+03  0.18250000000E+03  0.00000000000E+00 0.  1.
         11   -1    0    0    0    0 -0.00000000000E+00 -0.00000000000E+00 -0.18250000000E+03  0.18250000000E+03  0.00000000000E+00 0. -1.
        -11    1    1    2    0    0  0.31553260470E+01 -0.39442159411E+01  0.13788417961E+03  0.13797666436E+03  0.00000000000E+00 0.  1.
         11    1    1    2    0    0  0.10691215952E+01  0.10193708660E+02 -0.17039842825E+03  0.17070641191E+03  0.00000000000E+00 0. -1.
        -15    1    1    2    0    0  0.13097283581E+00  0.78427988744E+01 -0.90914143054E+01  0.12138294408E+02  0.17770000000E+01 0. -1.
         15    1    1    2    0    0 -0.43554204781E+01 -0.14092291594E+02  0.41605662947E+02  0.44178629315E+02  0.17770000000E+01 0.  1.
</event>
<event>
 6    1  0.1298204E-002  0.1862884E+03  0.7546771E-02  0.1065479E+00
        -11   -1    0    0    0    0  0.00000000000E+00  0.00000000000E+00  0.18250000000E+03  0.18250000000E+03  0.00000000000E+00 0. -1.
         11   -1    0    0    0    0 -0.00000000000E+00 -0.00000000000E+00 -0.18250000000E+03  0.18250000000E+03  0.00000000000E+00 0. -1.
        -11    1    1    2    0    0 -0.47979138834E+01 -0.34658375951E+01  0.17861359937E+03  0.17871163892E+03  0.00000000000E+00 0. -1.
         11    1    1    2    0    0  0.50621178687E+01  0.37998806063E+01 -0.17593008949E+03  0.17604391645E+03  0.00000000000E+00 0. -1.
        -15    1    1    2    0    0  0.20263942377E+01  0.33470073010E+01 -0.34318729463E+01  0.54994738293E+01  0.17770000000E+01 0.  1.
         15    1    1    2    0    0 -0.22905982229E+01 -0.36810503122E+01  0.74836306876E+00  0.47449708010E+01  0.17770000000E+01 0. -1.
</event>
<event>
 6    1  0.1298204E-002  0.1952895E+03  0.7546771E-02  0.1058707E+00
        -11   -1    0    0    0    0  0.00000000000E+00  0.00000000000E+00  0.18250000000E+03  0.18250000000E+03  0.00000000000E+00 0. -1.
         11   -1    0    0    0    0 -0.00000000000E+00 -0.00000000000E+00 -0.18250000000E+03  0.18250000000E+03  0.00000000000E+00 0. -1.
        -11    1    1    2    0    0  0.61290377887E+01  0.91611404546E+00  0.16959732703E+03  0.16971051148E+03  0.00000000000E+00 0. -1.
         11    1    1    2    0    0 -0.35014917694E+00 -0.14688435088E+01 -0.65628327789E+02  0.65645696844E+02  0.00000000000E+00 0. -1.
        -15    1    1    2    0    0 -0.28762978098E+01  0.28377479638E+01 -0.11643625927E+03  0.11651989575E+03  0.17770000000E+01 0. -1.
         15    1    1    2    0    0 -0.29025908020E+01 -0.22850185005E+01  0.12467260026E+02  0.13123895933E+02  0.17770000000E+01 0.  1.
</event>
<event>
 6    1  0.1298204E-002  0.1877264E+03  0.7546771E-02  0.1064369E+00
        -11   -1    0    0    0    0  0.00000000000E+00  0.00000000000E+00  0.18250000000E+03  0.18250000000E+03  0.00000000000E+00 0.  1.
         11   -1    0    0    0    0 -0.00000000000E+00 -0.00000000000E+00 -0.18250000000E+03  0.18250000000E+03  0.00000000000E+00 0. -1.
        -11    1    1    2    0    0  0.15085249483E+00 -0.28411266847E+01  0.17050723161E+03  0.17053096724E+03  0.00000000000E+00 0.  1.
         11    1    1    2    0    0  0.20299863974E+01 -0.46313458544E+01 -0.17720150457E+03  0.17727363998E+03  0.00000000000E+00 0. -1.
        -15    1    1    2    0    0 -0.69039594184E+00  0.72328152662E+01 -0.23618918345E+01  0.78438845777E+01  0.17770000000E+01 0. -1.
         15    1    1    2    0    0 -0.14904429504E+01  0.23965727287E+00  0.90561647978E+01  0.93515082014E+01  0.17770000000E+01 0.  1.
</event>
<event>
 6    1  0.1298204E-002  0.1845539E+03  0.7546771E-02  0.1066832E+00
        -11   -1    0    0    0    0  0.00000000000E+00  0.00000000000E+00  0.18250000000E+03  0.18250000000E+03  0.00000000000E+00 0. -1.
         11   -1    0    0    0    0 -0.00000000000E+00 -0.00000000000E+00 -0.18250000000E+03  0.18250000000E+03  0.00000000000E+00 0. -1.
        -11    1    1    2    0    0  0.25920668363E+01 -0.40901953900E+01  0.18038114545E+03  0.18044613086E+03  0.00000000000E+00 0. -1.
         11    1    1    2    0    0  0.24833127132E+01 -0.19237786097E+01 -0.17139586370E+03  0.17142464776E+03  0.00000000000E+00 0. -1.
        -15    1    1    2    0    0  0.13141600979E+00  0.23696365726E+01 -0.25267576120E+01  0.38954692508E+01  0.17770000000E+01 0.  1.
         15    1    1    2    0    0 -0.52067955593E+01  0.36443374271E+01 -0.64585241362E+01  0.92337521245E+01  0.17770000000E+01 0.  1.
</event>
<event>
 6    1  0.1298204E-002  0.1837461E+03  0.7546771E-02  0.1067467E+00
        -11   -1    0    0    0    0  0.00000000000E+00  0.00000000000E+00  0.18250000000E+03  0.18250000000E+03  0.00000000000E+00 0.  1.
         11   -1    0    0    0    0 -0.00000000000E+00 -0.00000000000E+00 -0.18250000000E+03  0.18250000000E+03  0.00000000000E+00 0.  1.
        -11    1    1    2    0    0 -0.55252099348E+01  0.23869094942E+01  0.18115391249E+03  0.18125386973E+03  0.00000000000E+00 0.  1.
         11    1    1    2    0    0 -0.97373193796E+00 -0.13764783521E+01 -0.10419149815E+03  0.10420513967E+03  0.00000000000E+00 0.  1.
        -15    1    1    2    0    0 -0.26393197191E+01 -0.93106455741E+00 -0.17389190481E+01  0.37435889525E+01  0.17770000000E+01 0.  1.
         15    1    1    2    0    0  0.91382615919E+01 -0.79366584695E-01 -0.75223495291E+02  0.75797401649E+02  0.17770000000E+01 0.  1.
</event>
<event>
 6    1  0.1298204E-002  0.1837282E+03  0.7546771E-02  0.1067481E+00
        -11   -1    0    0    0    0  0.00000000000E+00  0.00000000000E+00  0.18250000000E+03  0.18250000000E+03  0.00000000000E+00 0.  1.
         11   -1    0    0    0    0 -0.00000000000E+00 -0.00000000000E+00 -0.18250000000E+03  0.18250000000E+03  0.00000000000E+00 0.  1.
        -11    1    1    2    0    0 -0.19910029933E+01  0.85112307657E+00  0.15920532923E+03  0.15922005326E+03  0.00000000000E+00 0.  1.
         11    1    1    2    0    0  0.23870008488E+01  0.14317156181E+01 -0.18125042726E+03  0.18127179859E+03  0.00000000000E+00 0.  1.
        -15    1    1    2    0    0 -0.30490530606E+01 -0.23436514455E+01  0.29852104952E+01  0.51825319454E+01  0.17770000000E+01 0.  1.
         15    1    1    2    0    0  0.26530552051E+01  0.60812750826E-01  0.19059887528E+02  0.19325616205E+02  0.17770000000E+01 0.  1.
</event>
<event>
 6    1  0.1298204E-002  0.1844840E+03  0.7546771E-02  0.1066886E+00
        -11   -1    0    0    0    0  0.00000000000E+00  0.00000000000E+00  0.18250000000E+03  0.18250000000E+03  0.00000000000E+00 0.  1.
         11   -1    0    0    0    0 -0.00000000000E+00 -0.00000000000E+00 -0.18250000000E+03  0.18250000000E+03  0.00000000000E+00 0. -1.
        -11    1    1    2    0    0  0.71886810619E-01  0.35274164074E+01  0.18048151204E+03  0.18051599381E+03  0.00000000000E+00 0.  1.
         11    1    1    2    0    0 -0.23130966733E+00  0.38075844168E+01 -0.14921094372E+03  0.14925969626E+03  0.00000000000E+00 0. -1.
        -15    1    1    2    0    0 -0.28546600537E+01 -0.39517001216E+01 -0.29640830045E+02  0.30091552845E+02  0.17770000000E+01 0.  1.
         15    1    1    2    0    0  0.30140829105E+01 -0.33833007026E+01 -0.16297382716E+01  0.51327570826E+01  0.17770000000E+01 0. -1.
</event>
<event>
 6    1  0.1298204E-002  0.1884367E+03  0.7546771E-02  0.1063825E+00
        -11   -1    0    0    0    0  0.00000000000E+00  0.00000000000E+00  0.18250000000E+03  0.18250000000E+03  0.00000000000E+00 0. -1.
         11   -1    0    0    0    0 -0.00000000000E+00 -0.00000000000E+00 -0.18250000000E+03  0.18250000000E+03  0.00000000000E+00 0.  1.
        -11    1    1    2    0    0 -0.61830834129E+00 -0.26020027617E+01  0.16506917623E+03  0.16509084064E+03  0.00000000000E+00 0. -1.
         11    1    1    2    0    0  0.44700370482E+01  0.16129260478E+01 -0.17649937901E+03  0.17656334148E+03  0.00000000000E+00 0.  1.
        -15    1    1    2    0    0 -0.40691003677E+01  0.72045884218E+01  0.14021762363E+02  0.16377766053E+02  0.17770000000E+01 0. -1.
         15    1    1    2    0    0  0.21737166075E+00 -0.62155117080E+01 -0.25915595757E+01  0.69680518271E+01  0.17770000000E+01 0.  1.
</event>
<event>
 6    1  0.1298204E-002  0.2170010E+03  0.7546771E-02  0.1043891E+00
        -11   -1    0    0    0    0  0.00000000000E+00  0.00000000000E+00  0.18250000000E+03  0.18250000000E+03  0.00000000000E+00 0.  1.
         11   -1    0    0    0    0 -0.00000000000E+00 -0.00000000000E+00 -0.18250000000E+03  0.18250000000E+03  0.00000000000E+00 0.  1.
        -11    1    1    2    0    0 -0.15851182333E+02 -0.10455554206E+02  0.85266972469E+02  0.87355796540E+02  0.00000000000E+00 0.  1.
         11    1    1    2    0    0 -0.52447077909E+00  0.28499021845E+01 -0.14797064812E+03  0.14799901931E+03  0.00000000000E+00 0.  1.
        -15    1    1    2    0    0  0.21333272391E+01 -0.26346204809E+01 -0.32549601019E+02  0.32773870166E+02  0.17770000000E+01 0. -1.
         15    1    1    2    0    0  0.14242325873E+02  0.10240272502E+02  0.95253276671E+02  0.96871313982E+02  0.17770000000E+01 0. -1.
</event>
<event>
 6    1  0.1298204E-002  0.1847700E+03  0.7546771E-02  0.1066662E+00
        -11   -1    0    0    0    0  0.00000000000E+00  0.00000000000E+00  0.18250000000E+03  0.18250000000E+03  0.00000000000E+00 0. -1.
         11   -1    0    0    0    0 -0.00000000000E+00 -0.00000000000E+00 -0.18250000000E+03  0.18250000000E+03  0.00000000000E+00 0.  1.
        -11    1    1    2    0    0 -0.41005779465E+01  0.19604417345E+01  0.18017269037E+03  0.18023000978E+03  0.00000000000E+00 0. -1.
         11    1    1    2    0    0 -0.35118210332E+00  0.38909667863E+01 -0.16803650413E+03  0.16808191357E+03  0.00000000000E+00 0.  1.
        -15    1    1    2    0    0  0.54892068871E+01 -0.60763760055E+01 -0.11970138152E+02  0.14611491162E+02  0.17770000000E+01 0.  1.
         15    1    1    2    0    0 -0.10374468372E+01  0.22496748464E+00 -0.16604808579E+00  0.20765854849E+01  0.17770000000E+01 0.  1.
</event>
<event>
 6    1  0.1298204E-002  0.1829891E+03  0.7546771E-02  0.1068066E+00
        -11   -1    0    0    0    0  0.00000000000E+00  0.00000000000E+00  0.18250000000E+03  0.18250000000E+03  0.00000000000E+00 0.  1.
         11   -1    0    0    0    0 -0.00000000000E+00 -0.00000000000E+00 -0.18250000000E+03  0.18250000000E+03  0.00000000000E+00 0. -1.
        -11    1    1    2    0    0  0.27595702010E+01  0.91839945884E+00  0.18198766865E+03  0.18201090689E+03  0.00000000000E+00 0.  1.
         11    1    1    2    0    0  0.23681970995E+01  0.40337062281E+01 -0.14199831334E+03  0.14207533261E+03  0.00000000000E+00 0. -1.
        -15    1    1    2    0    0 -0.26953048848E+01 -0.43302106116E+01 -0.29161526428E+02  0.29657507397E+02  0.17770000000E+01 0.  1.
         15    1    1    2    0    0 -0.24324624157E+01 -0.62189507541E+00 -0.10827828875E+02  0.11256253108E+02  0.17770000000E+01 0. -1.
</event>
<event>
 6    1  0.1298204E-002  0.1975392E+03  0.7546771E-02  0.1057076E+00
        -11   -1    0    0    0    0  0.00000000000E+00  0.00000000000E+00  0.18250000000E+03  0.18250000000E+03  0.00000000000E+00 0.  1.
         11   -1    0    0    0    0 -0.00000000000E+00 -0.00000000000E+00 -0.18250000000E+03  0.18250000000E+03  0.00000000000E+00 0. -1.
        -11    1    1    2    0    0  0.89689398802E+01 -0.10969176407E+02  0.16686028357E+03  0.16746079824E+03  0.00000000000E+00 0.  1.
         11    1    1    2    0    0  0.30502510733E+01  0.48293618944E+01 -0.14993538306E+03  0.15004414637E+03  0.00000000000E+00 0. -1.
        -15    1    1    2    0    0 -0.22886016071E+02  0.16525090518E+02 -0.15599915568E+02  0.32301136868E+02  0.17770000000E+01 0. -1.
         15    1    1    2    0    0  0.10866825118E+02 -0.10385276005E+02 -0.13249849513E+01  0.15193918519E+02  0.17770000000E+01 0.  1.
</event>
<event>
 6    1  0.1298204E-002  0.1690988E+03  0.7546771E-02  0.1079653E+00
        -11   -1    0    0    0    0  0.00000000000E+00  0.00000000000E+00  0.18250000000E+03  0.18250000000E+03  0.00000000000E+00 0.  1.
         11   -1    0    0    0    0 -0.00000000000E+00 -0.00000000000E+00 -0.18250000000E+03  0.18250000000E+03  0.00000000000E+00 0. -1.
        -11    1    1    2    0    0 -0.79183359159E+01  0.51425396706E+01  0.17688170495E+03  0.17713351829E+03  0.00000000000E+00 0.  1.
         11    1    1    2    0    0 -0.49560537357E+00  0.10785717499E+00 -0.14891360933E+02  0.14899996251E+02  0.00000000000E+00 0. -1.
        -15    1    1    2    0    0  0.17485034519E+01 -0.11079049217E+02 -0.65113941218E+00  0.11374722300E+02  0.17770000000E+01 0.  1.
         15    1    1    2    0    0  0.66654378376E+01  0.58286523714E+01 -0.16133920460E+03  0.16159176316E+03  0.17770000000E+01 0. -1.
</event>
<event>
 6    1  0.1298204E-002  0.1836445E+03  0.7546771E-02  0.1067547E+00
        -11   -1    0    0    0    0  0.00000000000E+00  0.00000000000E+00  0.18250000000E+03  0.18250000000E+03  0.00000000000E+00 0.  1.
         11   -1    0    0    0    0 -0.00000000000E+00 -0.00000000000E+00 -0.18250000000E+03  0.18250000000E+03  0.00000000000E+00 0.  1.
        -11    1    1    2    0    0  0.10207218108E+00  0.43836214102E+01  0.11071589004E+03  0.11080268436E+03  0.00000000000E+00 0.  1.
         11    1    1    2    0    0  0.26351040288E+01 -0.10436060460E+01 -0.18133339641E+03  0.18135554455E+03  0.00000000000E+00 0.  1.
        -15    1    1    2    0    0 -0.25532459207E+01 -0.24308542999E+01  0.70724298576E+02  0.70834400226E+02  0.17770000000E+01 0.  1.
         15    1    1    2    0    0 -0.18393028911E+00 -0.90916106435E+00 -0.10679220503E+00  0.20073708594E+01  0.17770000000E+01 0.  1.
</event>
<event>
 6    1  0.1298204E-002  0.1830262E+03  0.7546771E-02  0.1068037E+00
        -11   -1    0    0    0    0  0.00000000000E+00  0.00000000000E+00  0.18250000000E+03  0.18250000000E+03  0.00000000000E+00 0. -1.
         11   -1    0    0    0    0 -0.00000000000E+00 -0.00000000000E+00 -0.18250000000E+03  0.18250000000E+03  0.00000000000E+00 0. -1.
        -11    1    1    2    0    0 -0.19739463387E+01  0.25611526751E+01  0.58304153845E+02  0.58393752429E+02  0.00000000000E+00 0. -1.
         11    1    1    2    0    0  0.69344933552E+00 -0.25718441846E+01 -0.18195425420E+03  0.18197375051E+03  0.00000000000E+00 0. -1.
        -15    1    1    2    0    0  0.37732951671E+01 -0.22811676182E+01  0.11582908838E+03  0.11592660146E+03  0.17770000000E+01 0. -1.
         15    1    1    2    0    0 -0.24927981638E+01  0.22918591278E+01  0.78210119772E+01  0.87058956055E+01  0.17770000000E+01 0.  1.
</event>
<event>
 6    1  0.1298204E-002  0.1942656E+03  0.7546771E-02  0.1059457E+00
        -11   -1    0    0    0    0  0.00000000000E+00  0.00000000000E+00  0.18250000000E+03  0.18250000000E+03  0.00000000000E+00 0. -1.
         11   -1    0    0    0    0 -0.00000000000E+00 -0.00000000000E+00 -0.18250000000E+03  0.18250000000E+03  0.00000000000E+00 0.  1.
        -11    1    1    2    0    0  0.22323659782E+01 -0.66838470004E+00  0.17071850884E+03  0.17073441205E+03  0.00000000000E+00 0. -1.
         11    1    1    2    0    0 -0.24957816671E+01  0.16500210879E+02 -0.87841424279E+02  0.89412536619E+02  0.00000000000E+00 0.  1.
        -15    1    1    2    0    0 -0.81860384871E+01  0.45555993634E+01 -0.82149121522E+02  0.82700668725E+02  0.17770000000E+01 0. -1.
         15    1    1    2    0    0  0.84494541759E+01 -0.20387425542E+02 -0.72796303944E+00  0.22152382610E+02  0.17770000000E+01 0.  1.
</event>
<event>
 6    1  0.1298204E-002  0.1870021E+03  0.7546771E-02  0.1064927E+00
        -11   -1    0    0    0    0  0.00000000000E+00  0.00000000000E+00  0.18250000000E+03  0.18250000000E+03  0.00000000000E+00 0.  1.
         11   -1    0    0    0    0 -0.00000000000E+00 -0.00000000000E+00 -0.18250000000E+03  0.18250000000E+03  0.00000000000E+00 0.  1.
        -11    1    1    2    0    0 -0.18008092397E+00  0.23799989321E+01  0.16688277217E+03  0.16689983964E+03  0.00000000000E+00 0.  1.
         11    1    1    2    0    0 -0.37054269080E+01 -0.22666741613E+01 -0.17794491958E+03  0.17799792809E+03  0.00000000000E+00 0.  1.
        -15    1    1    2    0    0  0.80861214879E+01  0.50924916287E+01  0.77391912638E+01  0.12424638511E+02  0.17770000000E+01 0.  1.
         15    1    1    2    0    0 -0.42006136559E+01 -0.52058163996E+01  0.33229561447E+01  0.76775937645E+01  0.17770000000E+01 0. -1.
</event>
<event>
 6    1  0.1298204E-002  0.2093132E+03  0.7546771E-02  0.1048913E+00
        -11   -1    0    0    0    0  0.00000000000E+00  0.00000000000E+00  0.18250000000E+03  0.18250000000E+03  0.00000000000E+00 0. -1.
         11   -1    0    0    0    0 -0.00000000000E+00 -0.00000000000E+00 -0.18250000000E+03  0.18250000000E+03  0.00000000000E+00 0. -1.
        -11    1    1    2    0    0  0.95039253418E+01 -0.84905386358E+01  0.15516430108E+03  0.15568678227E+03  0.00000000000E+00 0. -1.
         11    1    1    2    0    0  0.16096522079E+01 -0.25524616237E+01 -0.14134391408E+03  0.14137612277E+03  0.00000000000E+00 0. -1.
        -15    1    1    2    0    0 -0.12357067687E+02  0.33578327750E+02 -0.23993842423E+02  0.43116857719E+02  0.17770000000E+01 0. -1.
         15    1    1    2    0    0  0.12434901377E+01 -0.22535327490E+02  0.10173455424E+02  0.24820237249E+02  0.17770000000E+01 0.  1.
</event>
<event>
 6    1  0.1298204E-002  0.1981858E+03  0.7546771E-02  0.1056612E+00
        -11   -1    0    0    0    0  0.00000000000E+00  0.00000000000E+00  0.18250000000E+03  0.18250000000E+03  0.00000000000E+00 0. -1.
         11   -1    0    0    0    0 -0.00000000000E+00 -0.00000000000E+00 -0.18250000000E+03  0.18250000000E+03  0.00000000000E+00 0. -1.
        -11    1    1    2    0    0 -0.16975074312E+01  0.23276094780E+01  0.14293016253E+03  0.14295919228E+03  0.00000000000E+00 0. -1.
         11    1    1    2    0    0  0.10085100928E+02  0.83770776966E+01 -0.16629820630E+03  0.16681420236E+03  0.00000000000E+00 0. -1.
        -15    1    1    2    0    0  0.72614953022E+01 -0.45060211553E+01  0.34090656519E+02  0.35190398287E+02  0.17770000000E+01 0. -1.
         15    1    1    2    0    0 -0.15649088799E+02 -0.61986660193E+01 -0.10722612749E+02  0.20036207072E+02  0.17770000000E+01 0. -1.
</event>
<event>
 6    1  0.1298204E-002  0.1939674E+03  0.7546771E-02  0.1059676E+00
        -11   -1    0    0    0    0  0.00000000000E+00  0.00000000000E+00  0.18250000000E+03  0.18250000000E+03  0.00000000000E+00 0.  1.
         11   -1    0    0    0    0 -0.00000000000E+00 -0.00000000000E+00 -0.18250000000E+03  0.18250000000E+03  0.00000000000E+00 0.  1.
        -11    1    1    2    0    0  0.35148673869E+01 -0.19858991433E+01  0.17098492123E+03  0.17103257402E+03  0.00000000000E+00 0.  1.
         11    1    1    2    0    0  0.42481922137E+01 -0.10477735896E+02 -0.10259705398E+03  0.10321814556E+03  0.00000000000E+00 0.  1.
        -15    1    1    2    0    0  0.24806624138E+01  0.15972725033E+02 -0.75788803836E+02  0.77513754566E+02  0.17770000000E+01 0.  1.
         15    1    1    2    0    0 -0.10243722014E+02 -0.35090899937E+01  0.74009365880E+01  0.13235525856E+02  0.17770000000E+01 0. -1.
</event>
<event>
 6    1  0.1298204E-002  0.1851785E+03  0.7546771E-02  0.1066342E+00
        -11   -1    0    0    0    0  0.00000000000E+00  0.00000000000E+00  0.18250000000E+03  0.18250000000E+03  0.00000000000E+00 0.  1.
         11   -1    0    0    0    0 -0.00000000000E+00 -0.00000000000E+00 -0.18250000000E+03  0.18250000000E+03  0.00000000000E+00 0.  1.
        -11    1    1    2    0    0  0.30212584935E+00  0.26079359980E+01  0.17980232915E+03  0.17982149532E+03  0.00000000000E+00 0.  1.
         11    1    1    2    0    0 -0.82719390560E+00  0.21983306065E+01 -0.17263037816E+03  0.17264635638E+03  0.00000000000E+00 0.  1.
        -15    1    1    2    0    0  0.61315229381E+00 -0.86519531931E+00 -0.78829322996E+01  0.81500226574E+01  0.17770000000E+01 0.  1.
         15    1    1    2    0    0 -0.88084237558E-01 -0.39410712851E+01  0.71098131200E+00  0.43821256410E+01  0.17770000000E+01 0.  1.
</event>
<event>
 6    1  0.1298204E-002  0.1836053E+03  0.7546771E-02  0.1067578E+00
        -11   -1    0    0    0    0  0.00000000000E+00  0.00000000000E+00  0.18250000000E+03  0.18250000000E+03  0.00000000000E+00 0.  1.
         11   -1    0    0    0    0 -0.00000000000E+00 -0.00000000000E+00 -0.18250000000E+03  0.18250000000E+03  0.00000000000E+00 0.  1.
        -11    1    1    2    0    0 -0.14813399812E+01  0.22926424960E+01  0.13682203278E+03  0.13684925733E+03  0.00000000000E+00 0.  1.
         11    1    1    2    0    0  0.29399191364E+01  0.25337536724E+01 -0.18135312834E+03  0.18139465315E+03  0.00000000000E+00 0.  1.
        -15    1    1    2    0    0  0.19594294902E+01 -0.45041017741E+01  0.41542956790E+02  0.41870052359E+02  0.17770000000E+01 0. -1.
         15    1    1    2    0    0 -0.34180086454E+01 -0.32229439422E+00  0.29881387767E+01  0.48860371597E+01  0.17770000000E+01 0.  1.
</event>
<event>
 6    1  0.1298204E-002  0.1752414E+03  0.7546771E-02  0.1074384E+00
        -11   -1    0    0    0    0  0.00000000000E+00  0.00000000000E+00  0.18250000000E+03  0.18250000000E+03  0.00000000000E+00 0.  1.
         11   -1    0    0    0    0 -0.00000000000E+00 -0.00000000000E+00 -0.18250000000E+03  0.18250000000E+03  0.00000000000E+00 0.  1.
        -11    1    1    2    0    0  0.15056000527E+01  0.57405965818E+01  0.17553428840E+03  0.17563458567E+03  0.00000000000E+00 0.  1.
         11    1    1    2    0    0 -0.43473197079E+01 -0.13707729250E+01 -0.17482825764E+03  0.17488767217E+03  0.00000000000E+00 0.  1.
        -15    1    1    2    0    0  0.27121170356E+01 -0.28181598527E+00 -0.64388751193E+01  0.72146961728E+01  0.17770000000E+01 0. -1.
         15    1    1    2    0    0  0.12960261958E+00 -0.40880076715E+01  0.57328443603E+01  0.72630459877E+01  0.17770000000E+01 0.  1.
</event>
<event>
 6    1  0.1298204E-002  0.1851129E+03  0.7546771E-02  0.1066394E+00
        -11   -1    0    0    0    0  0.00000000000E+00  0.00000000000E+00  0.18250000000E+03  0.18250000000E+03  0.00000000000E+00 0.  1.
         11   -1    0    0    0    0 -0.00000000000E+00 -0.00000000000E+00 -0.18250000000E+03  0.18250000000E+03  0.00000000000E+00 0.  1.
        -11    1    1    2    0    0 -0.15005454061E+02  0.11030188514E+02  0.17892049648E+03  0.17988711118E+03  0.00000000000E+00 0.  1.
         11    1    1    2    0    0 -0.33141654532E+01 -0.29520369829E+00 -0.33866103766E+02  0.34029161349E+02  0.00000000000E+00 0.  1.
        -15    1    1    2    0    0  0.15291836715E+02 -0.84306540541E+01 -0.22878749322E+02  0.28835934135E+02  0.17770000000E+01 0.  1.
         15    1    1    2    0    0  0.30277827986E+01 -0.23043307619E+01 -0.12217564339E+03  0.12224779333E+03  0.17770000000E+01 0. -1.
</event>
<event>
 6    1  0.1298204E-002  0.1904642E+03  0.7546771E-02  0.1062286E+00
        -11   -1    0    0    0    0  0.00000000000E+00  0.00000000000E+00  0.18250000000E+03  0.18250000000E+03  0.00000000000E+00 0.  1.
         11   -1    0    0    0    0 -0.00000000000E+00 -0.00000000000E+00 -0.18250000000E+03  0.18250000000E+03  0.00000000000E+00 0. -1.
        -11    1    1    2    0    0 -0.59433303347E+01 -0.69240514263E+01  0.15956319698E+03  0.15982390151E+03  0.00000000000E+00 0.  1.
         11    1    1    2    0    0  0.25014652819E+01  0.26973089325E+01 -0.17449697862E+03  0.17453575093E+03  0.00000000000E+00 0. -1.
        -15    1    1    2    0    0 -0.26056596913E+01 -0.10376290588E+02  0.57836728499E+01  0.12290869352E+02  0.17770000000E+01 0. -1.
         15    1    1    2    0    0  0.60475247441E+01  0.14603033082E+02  0.91501087847E+01  0.18349478208E+02  0.17770000000E+01 0.  1.
</event>
<event>
 6    1  0.1298204E-002  0.1837049E+03  0.7546771E-02  0.1067500E+00
        -11   -1    0    0    0    0  0.00000000000E+00  0.00000000000E+00  0.18250000000E+03  0.18250000000E+03  0.00000000000E+00 0. -1.
         11   -1    0    0    0    0 -0.00000000000E+00 -0.00000000000E+00 -0.18250000000E+03  0.18250000000E+03  0.00000000000E+00 0. -1.
        -11    1    1    2    0    0 -0.34882937212E+01 -0.17210321474E+01  0.18125333407E+03  0.18129506682E+03  0.00000000000E+00 0. -1.
         11    1    1    2    0    0  0.69736574476E+00 -0.22167441973E+01 -0.15129238183E+03  0.15131022792E+03  0.00000000000E+00 0. -1.
        -15    1    1    2    0    0 -0.39719097571E+00  0.24001191110E+01 -0.27640958674E+02  0.27804651730E+02  0.17770000000E+01 0.  1.
         15    1    1    2    0    0  0.31881189521E+01  0.15376572336E+01 -0.23199935624E+01  0.45900535237E+01  0.17770000000E+01 0.  1.
</event>
<event>
 6    1  0.1493677E-002  0.1870454E+03  0.7546771E-02  0.1064893E+00
        -11   -1    0    0    0    0  0.00000000000E+00  0.00000000000E+00  0.18250000000E+03  0.18250000000E+03  0.00000000000E+00 0.  1.
         11   -1    0    0    0    0 -0.00000000000E+00 -0.00000000000E+00 -0.18250000000E+03  0.18250000000E+03  0.00000000000E+00 0.  1.
        -11    1    1    2    0    0 -0.35326710484E+01  0.53166275625E+01  0.17784010388E+03  0.17795462580E+03  0.00000000000E+00 0.  1.
         11    1    1    2    0    0  0.82586091187E+01 -0.70160818424E+01 -0.12406403238E+03  0.12453639693E+03  0.00000000000E+00 0.  1.
        -15    1    1    2    0    0  0.14727466975E+01 -0.44508593973E+01  0.24506115624E+01  0.55805338669E+01  0.17770000000E+01 0. -1.
         15    1    1    2    0    0 -0.61986847678E+01  0.61503136773E+01 -0.56226683062E+02  0.56928443404E+02  0.17770000000E+01 0.  1.
</event>
<event>
 6    1  0.1298204E-002  0.1826590E+03  0.7546771E-02  0.1068328E+00
        -11   -1    0    0    0    0  0.00000000000E+00  0.00000000000E+00  0.18250000000E+03  0.18250000000E+03  0.00000000000E+00 0. -1.
         11   -1    0    0    0    0 -0.00000000000E+00 -0.00000000000E+00 -0.18250000000E+03  0.18250000000E+03  0.00000000000E+00 0. -1.
        -11    1    1    2    0    0  0.14284366493E+01  0.11572635613E+01  0.95471809007E+02  0.95489507304E+02  0.00000000000E+00 0. -1.
         11    1    1    2    0    0 -0.23335140958E+00 -0.36830252188E+01 -0.18230369316E+03  0.18234104219E+03  0.00000000000E+00 0. -1.
        -15    1    1    2    0    0  0.11013996293E+01  0.39188028960E+01  0.51270154745E+02  0.51462186057E+02  0.17770000000E+01 0.  1.
         15    1    1    2    0    0 -0.22964848690E+01 -0.13930412384E+01  0.35561729410E+02  0.35707264446E+02  0.17770000000E+01 0. -1.
</event>
<event>
 6    1  0.1298204E-002  0.1834723E+03  0.7546771E-02  0.1067684E+00
        -11   -1    0    0    0    0  0.00000000000E+00  0.00000000000E+00  0.18250000000E+03  0.18250000000E+03  0.00000000000E+00 0.  1.
         11   -1    0    0    0    0 -0.00000000000E+00 -0.00000000000E+00 -0.18250000000E+03  0.18250000000E+03  0.00000000000E+00 0.  1.
        -11    1    1    2    0    0 -0.36102513738E+01 -0.27561707128E+00  0.18149161484E+03  0.18152772829E+03  0.00000000000E+00 0.  1.
         11    1    1    2    0    0 -0.13288368491E+01 -0.39556044682E+01 -0.98041095290E+02  0.98129857738E+02  0.00000000000E+00 0.  1.
        -15    1    1    2    0    0  0.30692466996E+01  0.58060299766E+01 -0.81414589566E+02  0.81698368299E+02  0.17770000000E+01 0.  1.
         15    1    1    2    0    0  0.18698415233E+01 -0.15748084371E+01 -0.20359299884E+01  0.36440456712E+01  0.17770000000E+01 0. -1.
</event>
<event>
 6    1  0.1298204E-002  0.1566388E+03  0.7546771E-02  0.1091134E+00
        -11   -1    0    0    0    0  0.00000000000E+00  0.00000000000E+00  0.18250000000E+03  0.18250000000E+03  0.00000000000E+00 0.  1.
         11   -1    0    0    0    0 -0.00000000000E+00 -0.00000000000E+00 -0.18250000000E+03  0.18250000000E+03  0.00000000000E+00 0. -1.
        -11    1    1    2    0    0 -0.36397388652E+02  0.71442822600E+01  0.15435851523E+03  0.15875251775E+03  0.00000000000E+00 0.  1.
         11    1    1    2    0    0 -0.98514074724E+00 -0.62179073794E+01 -0.15663064832E+03  0.15675711425E+03  0.00000000000E+00 0. -1.
        -15    1    1    2    0    0  0.27853904712E+02  0.13667049748E+02  0.58153227758E+01  0.31616514111E+02  0.17770000000E+01 0. -1.
         15    1    1    2    0    0  0.95286246876E+01 -0.14593424629E+02 -0.35431896842E+01  0.17873853892E+02  0.17770000000E+01 0.  1.
</event>
<event>
 6    1  0.1298204E-002  0.1840651E+03  0.7546771E-02  0.1067216E+00
        -11   -1    0    0    0    0  0.00000000000E+00  0.00000000000E+00  0.18250000000E+03  0.18250000000E+03  0.00000000000E+00 0. -1.
         11   -1    0    0    0    0 -0.00000000000E+00 -0.00000000000E+00 -0.18250000000E+03  0.18250000000E+03  0.00000000000E+00 0. -1.
        -11    1    1    2    0    0 -0.12066904420E+02  0.24306102720E+01  0.18051567810E+03  0.18093487250E+03  0.00000000000E+00 0. -1.
         11    1    1    2    0    0  0.66586434887E+00 -0.10815487691E+01 -0.43687905608E+02  0.43706363604E+02  0.00000000000E+00 0. -1.
        -15    1    1    2    0    0 -0.21498465239E+01  0.44897864841E+01 -0.38157416368E+01  0.65190210912E+01  0.17770000000E+01 0.  1.
         15    1    1    2    0    0  0.13550886595E+02 -0.58388479870E+01 -0.13301203085E+03  0.13383974280E+03  0.17770000000E+01 0. -1.
</event>
<event>
 6    1  0.1298204E-002  0.1834530E+03  0.7546771E-02  0.1067699E+00
        -11   -1    0    0    0    0  0.00000000000E+00  0.00000000000E+00  0.18250000000E+03  0.18250000000E+03  0.00000000000E+00 0. -1.
         11   -1    0    0    0    0 -0.00000000000E+00 -0.00000000000E+00 -0.18250000000E+03  0.18250000000E+03  0.00000000000E+00 0. -1.
        -11    1    1    2    0    0  0.12916577594E+01 -0.23274989001E+01  0.18152753031E+03  0.18154704595E+03  0.00000000000E+00 0. -1.
         11    1    1    2    0    0 -0.40763996437E+01  0.10357386071E+01 -0.15907026209E+03  0.15912585607E+03  0.00000000000E+00 0. -1.
        -15    1    1    2    0    0  0.51526427679E-01  0.44321263884E+01 -0.10257048974E+02  0.11314202665E+02  0.17770000000E+01 0.  1.
         15    1    1    2    0    0  0.27332154566E+01 -0.31403660954E+01 -0.12200219249E+02  0.13012895322E+02  0.17770000000E+01 0. -1.
</event>
<event>
 6    1  0.1298204E-002  0.1920220E+03  0.7546771E-02  0.1061118E+00
        -11   -1    0    0    0    0  0.00000000000E+00  0.00000000000E+00  0.18250000000E+03  0.18250000000E+03  0.00000000000E+00 0. -1.
         11   -1    0    0    0    0 -0.00000000000E+00 -0.00000000000E+00 -0.18250000000E+03  0.18250000000E+03  0.00000000000E+00 0.  1.
        -11    1    1    2    0    0 -0.14174473799E+01  0.39512014294E+01  0.16822765711E+03  0.16828002188E+03  0.00000000000E+00 0. -1.
         11    1    1    2    0    0 -0.24480573881E+01 -0.20064682162E+01 -0.17294907251E+03  0.17297803497E+03  0.00000000000E+00 0.  1.
        -15    1    1    2    0    0  0.40635506044E+00  0.25157527494E+01 -0.86114932083E+01  0.91547627281E+01  0.17770000000E+01 0.  1.
         15    1    1    2    0    0  0.34591497075E+01 -0.44604859627E+01  0.13332908607E+02  0.14587180422E+02  0.17770000000E+01 0. -1.
</event>
<event>
 6    1  0.1298204E-002  0.1842725E+03  0.7546771E-02  0.1067053E+00
        -11   -1    0    0    0    0  0.00000000000E+00  0.00000000000E+00  0.18250000000E+03  0.18250000000E+03  0.00000000000E+00 0. -1.
         11   -1    0    0    0    0 -0.00000000000E+00 -0.00000000000E+00 -0.18250000000E+03  0.18250000000E+03  0.00000000000E+00 0.  1.
        -11    1    1    2    0    0  0.71775193989E+00  0.45920465461E+01  0.18066771660E+03  0.18072749066E+03  0.00000000000E+00 0. -1.
         11    1    1    2    0    0 -0.50769154166E+00  0.27046305521E+01 -0.15588439494E+03  0.15590868277E+03  0.00000000000E+00 0.  1.
        -15    1    1    2    0    0  0.93925319611E-02 -0.33014507127E+01 -0.61167388908E+00  0.37988865440E+01  0.17770000000E+01 0.  1.
         15    1    1    2    0    0 -0.21945293019E+00 -0.39952263855E+01 -0.24171647767E+02  0.24564940020E+02  0.17770000000E+01 0. -1.
</event>
<event>
 6    1  0.1298204E-002  0.1853592E+03  0.7546771E-02  0.1066201E+00
        -11   -1    0    0    0    0  0.00000000000E+00  0.00000000000E+00  0.18250000000E+03  0.18250000000E+03  0.00000000000E+00 0.  1.
         11   -1    0    0    0    0 -0.00000000000E+00 -0.00000000000E+00 -0.18250000000E+03  0.18250000000E+03  0.00000000000E+00 0.  1.
        -11    1    1    2    0    0  0.33569225435E+00 -0.29561689576E+01  0.15793476726E+03  0.15796278782E+03  0.00000000000E+00 0.  1.
         11    1    1    2    0    0  0.37808919524E+01  0.18486389682E+00 -0.17960087513E+03  0.17964076282E+03  0.00000000000E+00 0.  1.
        -15    1    1    2    0    0  0.29917503990E+01  0.11209598427E+01  0.19119411662E+02  0.19465784154E+02  0.17770000000E+01 0.  1.
         15    1    1    2    0    0 -0.71083346058E+01  0.16503452181E+01  0.25466962019E+01  0.79306652149E+01  0.17770000000E+01 0. -1.
</event>
<event>
 6    1  0.1298204E-002  0.1828061E+03  0.7546771E-02  0.1068211E+00
        -11   -1    0    0    0    0  0.00000000000E+00  0.00000000000E+00  0.18250000000E+03  0.18250000000E+03  0.00000000000E+00 0.  1.
         11   -1    0    0    0    0 -0.00000000000E+00 -0.00000000000E+00 -0.18250000000E+03  0.18250000000E+03  0.00000000000E+00 0.  1.
        -11    1    1    2    0    0  0.24316403756E+01  0.20583340714E+01  0.18216603224E+03  0.18219388825E+03  0.00000000000E+00 0.  1.
         11    1    1    2    0    0 -0.26932785834E+01  0.24460550532E+00 -0.15266439972E+03  0.15268835098E+03  0.00000000000E+00 0.  1.
        -15    1    1    2    0    0 -0.20259907760E+01 -0.10005498381E+01 -0.13149152593E+02  0.13459705848E+02  0.17770000000E+01 0.  1.
         15    1    1    2    0    0  0.22876289838E+01 -0.13023897387E+01 -0.16352479921E+02  0.16658054927E+02  0.17770000000E+01 0. -1.
</event>
<event>
 6    1  0.1298204E-002  0.1830095E+03  0.7546771E-02  0.1068050E+00
        -11   -1    0    0    0    0  0.00000000000E+00  0.00000000000E+00  0.18250000000E+03  0.18250000000E+03  0.00000000000E+00 0. -1.
         11   -1    0    0    0    0 -0.00000000000E+00 -0.00000000000E+00 -0.18250000000E+03  0.18250000000E+03  0.00000000000E+00 0.  1.
        -11    1    1    2    0    0  0.28164445423E+01 -0.10029755639E+01  0.18196595059E+03  0.18199050935E+03  0.00000000000E+00 0. -1.
         11    1    1    2    0    0  0.88164361610E+00  0.32512492644E+01 -0.16561792192E+03  0.16565217770E+03  0.00000000000E+00 0.  1.
        -15    1    1    2    0    0 -0.19837124372E+01 -0.19754197870E+01 -0.10237629433E+02  0.10761235234E+02  0.17770000000E+01 0.  1.
         15    1    1    2    0    0 -0.17143757212E+01 -0.27285391350E+00 -0.61103992363E+01  0.65960777132E+01  0.17770000000E+01 0. -1.
</event>
<event>
 6    1  0.1298204E-002  0.1742659E+03  0.7546771E-02  0.1075205E+00
        -11   -1    0    0    0    0  0.00000000000E+00  0.00000000000E+00  0.18250000000E+03  0.18250000000E+03  0.00000000000E+00 0.  1.
         11   -1    0    0    0    0 -0.00000000000E+00 -0.00000000000E+00 -0.18250000000E+03  0.18250000000E+03  0.00000000000E+00 0. -1.
        -11    1    1    2    0    0 -0.56506438850E+01 -0.66447386436E+01  0.17672390655E+03  0.17693903322E+03  0.00000000000E+00 0.  1.
         11    1    1    2    0    0  0.28467631686E+01 -0.49962103137E+01 -0.17173775136E+03  0.17183399379E+03  0.00000000000E+00 0. -1.
        -15    1    1    2    0    0  0.55094370476E+00  0.11913134668E+02 -0.55768657042E+01  0.13284783651E+02  0.17770000000E+01 0.  1.
         15    1    1    2    0    0  0.22529370117E+01 -0.27218571049E+00  0.59071051260E+00  0.29421893463E+01  0.17770000000E+01 0. -1.
</event>
<event>
 6    1  0.1298204E-002  0.1835481E+03  0.7546771E-02  0.1067624E+00
        -11   -1    0    0    0    0  0.00000000000E+00  0.00000000000E+00  0.18250000000E+03  0.18250000000E+03  0.00000000000E+00 0.  1.
         11   -1    0    0    0    0 -0.00000000000E+00 -0.00000000000E+00 -0.18250000000E+03  0.18250000000E+03  0.00000000000E+00 0.  1.
        -11    1    1    2    0    0  0.24267998428E+01  0.60761894081E+01  0.14239368767E+03  0.14254392910E+03  0.00000000000E+00 0.  1.
         11    1    1    2    0    0  0.30041254435E+01 -0.26427215043E+01 -0.18140780343E+03  0.18145192171E+03  0.00000000000E+00 0.  1.
        -15    1    1    2    0    0  0.13049891846E+01  0.22360361293E+01  0.15882262856E+02  0.16189714536E+02  0.17770000000E+01 0. -1.
         15    1    1    2    0    0 -0.67359144710E+01 -0.56695040331E+01  0.23131852898E+02  0.24814434655E+02  0.17770000000E+01 0.  1.
</event>
<event>
 6    1  0.1298204E-002  0.1902149E+03  0.7546771E-02  0.1062474E+00
        -11   -1    0    0    0    0  0.00000000000E+00  0.00000000000E+00  0.18250000000E+03  0.18250000000E+03  0.00000000000E+00 0.  1.
         11   -1    0    0    0    0 -0.00000000000E+00 -0.00000000000E+00 -0.18250000000E+03  0.18250000000E+03  0.00000000000E+00 0. -1.
        -11    1    1    2    0    0 -0.18665355925E+01 -0.10918634222E+01  0.12831872596E+03  0.12833694539E+03  0.00000000000E+00 0.  1.
         11    1    1    2    0    0 -0.48928977310E+01  0.48652009972E+01 -0.17464888871E+03  0.17478513940E+03  0.00000000000E+00 0. -1.
        -15    1    1    2    0    0  0.16372163545E+02  0.17095079564E+01  0.47788366014E+02  0.50575249005E+02  0.17770000000E+01 0.  1.
         15    1    1    2    0    0 -0.96127302218E+01 -0.54828455314E+01 -0.14582032651E+01  0.11302666199E+02  0.17770000000E+01 0. -1.
</event>
<event>
 6    1  0.1298204E-002  0.1918337E+03  0.7546771E-02  0.1061259E+00
        -11   -1    0    0    0    0  0.00000000000E+00  0.00000000000E+00  0.18250000000E+03  0.18250000000E+03  0.00000000000E+00 0.  1.
         11   -1    0    0    0    0 -0.00000000000E+00 -0.00000000000E+00 -0.18250000000E+03  0.18250000000E+03  0.00000000000E+00 0. -1.
        -11    1    1    2    0    0 -0.92929090795E+00 -0.55872730955E+01  0.17307359570E+03  0.17316625171E+03  0.00000000000E+00 0.  1.
         11    1    1    2    0    0 -0.24992514439E+01  0.98419882017E+00 -0.16954387847E+03  0.16956515453E+03  0.00000000000E+00 0. -1.
        -15    1    1    2    0    0 -0.25263452114E+01  0.58158365554E+01  0.72329709220E+01  0.97816139938E+01  0.17770000000E+01 0.  1.
         15    1    1    2    0    0  0.59548875633E+01 -0.12127622801E+01 -0.10762688158E+02  0.12486979764E+02  0.17770000000E+01 0. -1.
</event>
<event>
 6    1  0.1298204E-002  0.1830909E+03  0.7546771E-02  0.1067985E+00
        -11   -1    0    0    0    0  0.00000000000E+00  0.00000000000E+00  0.18250000000E+03  0.18250000000E+03  0.00000000000E+00 0.  1.
         11   -1    0    0    0    0 -0.00000000000E+00 -0.00000000000E+00 -0.18250000000E+03  0.18250000000E+03  0.00000000000E+00 0. -1.
        -11    1    1    2    0    0 -0.26682850935E+01  0.30339364288E+00  0.98261740118E+02  0.98298430120E+02  0.00000000000E+00 0.  1.
         11    1    1    2    0    0  0.14402004287E+01  0.49554070746E+01 -0.18183587123E+03  0.18190908252E+03  0.00000000000E+00 0. -1.
        -15    1    1    2    0    0  0.10510471642E+01 -0.26093403330E+01  0.79705922330E+02  0.79775341683E+02  0.17770000000E+01 0.  1.
         15    1    1    2    0    0  0.17703750064E+00 -0.26494603845E+01  0.38682087801E+01  0.50171456798E+01  0.17770000000E+01 0. -1.
</event>
<event>
 6    1  0.1298204E-002  0.1931940E+03  0.7546771E-02  0.1060247E+00
        -11   -1    0    0    0    0  0.00000000000E+00  0.00000000000E+00  0.18250000000E+03  0.18250000000E+03  0.00000000000E+00 0.  1.
         11   -1    0    0    0    0 -0.00000000000E+00 -0.00000000000E+00 -0.18250000000E+03  0.18250000000E+03  0.00000000000E+00 0. -1.
        -11    1    1    2    0    0  0.90867437879E+01  0.20669326651E+01  0.15654949467E+03  0.15682660937E+03  0.00000000000E+00 0.  1.
         11    1    1    2    0    0 -0.81446599866E+00 -0.26051535589E+01 -0.17178428533E+03  0.17180596866E+03  0.00000000000E+00 0. -1.
        -15    1    1    2    0    0 -0.83549715230E+01 -0.33642729331E+01  0.24496832404E+02  0.26160588838E+02  0.17770000000E+01 0. -1.
         15    1    1    2    0    0  0.82693733811E-01  0.39024938270E+01 -0.92620417449E+01  0.10206833133E+02  0.17770000000E+01 0. -1.
</event>
<event>
 6    1  0.1298204E-002  0.1826230E+03  0.7546771E-02  0.1068357E+00
        -11   -1    0    0    0    0  0.00000000000E+00  0.00000000000E+00  0.18250000000E+03  0.18250000000E+03  0.00000000000E+00 0. -1.
         11   -1    0    0    0    0 -0.00000000000E+00 -0.00000000000E+00 -0.18250000000E+03  0.18250000000E+03  0.00000000000E+00 0. -1.
        -11    1    1    2    0    0  0.88754981935E+00  0.23224150748E+01  0.18236001879E+03  0.18237696623E+03  0.00000000000E+00 0. -1.
         11    1    1    2    0    0 -0.84602958678E-01 -0.35383414838E+01 -0.43206138162E+02  0.43350863809E+02  0.00000000000E+00 0. -1.
        -15    1    1    2    0    0  0.57697507797E+00  0.25208579568E+01 -0.75448672398E+02  0.75513889588E+02  0.17770000000E+01 0.  1.
         15    1    1    2    0    0 -0.13799219386E+01 -0.13049315478E+01 -0.63705208235E+02  0.63758280374E+02  0.17770000000E+01 0. -1.
</event>
<event>
 6    1  0.1298204E-002  0.1843918E+03  0.7546771E-02  0.1066959E+00
        -11   -1    0    0    0    0  0.00000000000E+00  0.00000000000E+00  0.18250000000E+03  0.18250000000E+03  0.00000000000E+00 0.  1.
         11   -1    0    0    0    0 -0.00000000000E+00 -0.00000000000E+00 -0.18250000000E+03  0.18250000000E+03  0.00000000000E+00 0.  1.
        -11    1    1    2    0    0 -0.32955262023E+01  0.65830826171E+00  0.18057689134E+03  0.18060816025E+03  0.00000000000E+00 0.  1.
         11    1    1    2    0    0  0.96007475702E+00  0.25834542047E+01 -0.17676663456E+03  0.17678811915E+03  0.00000000000E+00 0.  1.
        -15    1    1    2    0    0 -0.32440953882E+00 -0.18276568703E+01 -0.31144507698E+01  0.40377102152E+01  0.17770000000E+01 0. -1.
         15    1    1    2    0    0  0.26598609841E+01 -0.14141055961E+01 -0.69580600587E+00  0.35660103883E+01  0.17770000000E+01 0. -1.
</event>
<event>
 6    1  0.1298204E-002  0.1828391E+03  0.7546771E-02  0.1068185E+00
        -11   -1    0    0    0    0  0.00000000000E+00  0.00000000000E+00  0.18250000000E+03  0.18250000000E+03  0.00000000000E+00 0. -1.
         11   -1    0    0    0    0 -0.00000000000E+00 -0.00000000000E+00 -0.18250000000E+03  0.18250000000E+03  0.00000000000E+00 0. -1.
        -11    1    1    2    0    0 -0.19735450511E+01  0.14927640290E+01  0.23947330546E+02  0.24074838832E+02  0.00000000000E+00 0. -1.
         11    1    1    2    0    0 -0.21078763107E+01  0.36488196037E+01 -0.18211212969E+03  0.18216087617E+03  0.00000000000E+00 0. -1.
        -15    1    1    2    0    0  0.41318109201E+01  0.14444014546E+01  0.26143978861E+02  0.26567339286E+02  0.17770000000E+01 0.  1.
         15    1    1    2    0    0 -0.50389558261E-01 -0.65859850873E+01  0.13202082028E+03  0.13219694571E+03  0.17770000000E+01 0. -1.
</event>
<event>
 6    1  0.1298204E-002  0.1833488E+03  0.7546771E-02  0.1067781E+00
        -11   -1    0    0    0    0  0.00000000000E+00  0.00000000000E+00  0.18250000000E+03  0.18250000000E+03  0.00000000000E+00 0. -1.
         11   -1    0    0    0    0 -0.00000000000E+00 -0.00000000000E+00 -0.18250000000E+03  0.18250000000E+03  0.00000000000E+00 0.  1.
        -11    1    1    2    0    0 -0.41831811616E+00 -0.24666330241E+01  0.18163399236E+03  0.18165122198E+03  0.00000000000E+00 0. -1.
         11    1    1    2    0    0  0.98973704632E+00 -0.23990955510E+01 -0.15839730622E+03  0.15841856538E+03  0.00000000000E+00 0.  1.
        -15    1    1    2    0    0 -0.26314367158E+01  0.48356626844E+01 -0.19273891703E+02  0.20123337774E+02  0.17770000000E+01 0. -1.
         15    1    1    2    0    0  0.20600177856E+01  0.30065890731E-01 -0.39627944330E+01  0.48068748635E+01  0.17770000000E+01 0.  1.
</event>
<event>
 6    1  0.1298204E-002  0.1830793E+03  0.7546771E-02  0.1067995E+00
        -11   -1    0    0    0    0  0.00000000000E+00  0.00000000000E+00  0.18250000000E+03  0.18250000000E+03  0.00000000000E+00 0. -1.
         11   -1    0    0    0    0 -0.00000000000E+00 -0.00000000000E+00 -0.18250000000E+03  0.18250000000E+03  0.00000000000E+00 0.  1.
        -11    1    1    2    0    0 -0.31944564823E+01  0.27336474860E+01  0.18187211865E+03  0.18192071054E+03  0.00000000000E+00 0. -1.
         11    1    1    2    0    0 -0.23118498739E+01 -0.96622679622E+00 -0.14939601428E+03  0.14941702489E+03  0.00000000000E+00 0.  1.
        -15    1    1    2    0    0  0.50112283831E+01 -0.34588330292E+01 -0.22496705889E+02  0.23373819557E+02  0.17770000000E+01 0. -1.
         15    1    1    2    0    0  0.49507797311E+00  0.16914123394E+01 -0.99793984766E+01  0.10288445016E+02  0.17770000000E+01 0. -1.
</event>
<event>
 6    1  0.1298204E-002  0.1831965E+03  0.7546771E-02  0.1067902E+00
        -11   -1    0    0    0    0  0.00000000000E+00  0.00000000000E+00  0.18250000000E+03  0.18250000000E+03  0.00000000000E+00 0.  1.
         11   -1    0    0    0    0 -0.00000000000E+00 -0.00000000000E+00 -0.18250000000E+03  0.18250000000E+03  0.00000000000E+00 0. -1.
        -11    1    1    2    0    0 -0.12539693216E+02 -0.24664122463E+01  0.18135378931E+03  0.18180353130E+03  0.00000000000E+00 0.  1.
         11    1    1    2    0    0  0.74189731590E+01  0.11406072750E+01 -0.95738676818E+02  0.96032475687E+02  0.00000000000E+00 0. -1.
        -15    1    1    2    0    0  0.24275565882E+01  0.64637988152E+01 -0.19349532169E+02  0.20621247544E+02  0.17770000000E+01 0.  1.
         15    1    1    2    0    0  0.26931634690E+01 -0.51379938440E+01 -0.66265580323E+02  0.66542745471E+02  0.17770000000E+01 0. -1.
</event>
<event>
 6    1  0.1298204E-002  0.1836936E+03  0.7546771E-02  0.1067509E+00
        -11   -1    0    0    0    0  0.00000000000E+00  0.00000000000E+00  0.18250000000E+03  0.18250000000E+03  0.00000000000E+00 0. -1.
         11   -1    0    0    0    0 -0.00000000000E+00 -0.00000000000E+00 -0.18250000000E+03  0.18250000000E+03  0.00000000000E+00 0.  1.
        -11    1    1    2    0    0  0.32761134294E+01 -0.31177808365E+01  0.12799567899E+03  0.12807555316E+03  0.00000000000E+00 0. -1.
         11    1    1    2    0    0 -0.31958251466E+01  0.34431485004E+01 -0.18124551027E+03  0.18130638037E+03  0.00000000000E+00 0.  1.
        -15    1    1    2    0    0 -0.13508447985E+01 -0.31631321387E+01  0.22200834339E+01  0.44628114513E+01  0.17770000000E+01 0.  1.
         15    1    1    2    0    0  0.12705565157E+01  0.28377644748E+01  0.51029747849E+02  0.51155255014E+02  0.17770000000E+01 0. -1.
</event>
<event>
 6    1  0.1298204E-002  0.1827385E+03  0.7546771E-02  0.1068265E+00
        -11   -1    0    0    0    0  0.00000000000E+00  0.00000000000E+00  0.18250000000E+03  0.18250000000E+03  0.00000000000E+00 0.  1.
         11   -1    0    0    0    0 -0.00000000000E+00 -0.00000000000E+00 -0.18250000000E+03  0.18250000000E+03  0.00000000000E+00 0. -1.
        -11    1    1    2    0    0 -0.33516951112E+01  0.11237210966E+00  0.18223062763E+03  0.18226148286E+03  0.00000000000E+00 0.  1.
         11    1    1    2    0    0 -0.17543261345E+01  0.36671087488E+00 -0.11521234142E+03  0.11522628065E+03  0.00000000000E+00 0. -1.
        -15    1    1    2    0    0  0.21386157108E+01  0.12568475611E+01 -0.48395055551E+02  0.48491158717E+02  0.17770000000E+01 0. -1.
         15    1    1    2    0    0  0.29674055349E+01 -0.17359305456E+01 -0.18623230661E+02  0.19021077774E+02  0.17770000000E+01 0.  1.
</event>
<event>
 6    1  0.1298204E-002  0.1724022E+03  0.7546771E-02  0.1076789E+00
        -11   -1    0    0    0    0  0.00000000000E+00  0.00000000000E+00  0.18250000000E+03  0.18250000000E+03  0.00000000000E+00 0. -1.
         11   -1    0    0    0    0 -0.00000000000E+00 -0.00000000000E+00 -0.18250000000E+03  0.18250000000E+03  0.00000000000E+00 0.  1.
        -11    1    1    2    0    0  0.45816324714E+01  0.24882278382E+01  0.17329678772E+03  0.17337519796E+03  0.00000000000E+00 0. -1.
         11    1    1    2    0    0  0.51824196092E+01 -0.52558775336E+01 -0.17142468154E+03  0.17158351658E+03  0.00000000000E+00 0.  1.
        -15    1    1    2    0    0 -0.12135948843E+02  0.27762153629E+01 -0.67958315878E+01  0.14294393377E+02  0.17770000000E+01 0. -1.
         15    1    1    2    0    0  0.23718967623E+01 -0.85656674766E-02  0.49237254085E+01  0.57468920749E+01  0.17770000000E+01 0. -1.
</event>
<event>
 6    1  0.1298204E-002  0.1888917E+03  0.7546771E-02  0.1063478E+00
        -11   -1    0    0    0    0  0.00000000000E+00  0.00000000000E+00  0.18250000000E+03  0.18250000000E+03  0.00000000000E+00 0. -1.
         11   -1    0    0    0    0 -0.00000000000E+00 -0.00000000000E+00 -0.18250000000E+03  0.18250000000E+03  0.00000000000E+00 0. -1.
        -11    1    1    2    0    0  0.73313301318E+01  0.43415109197E+01  0.40572393532E+02  0.41457402662E+02  0.00000000000E+00 0. -1.
         11    1    1    2    0    0 -0.26258172651E+02 -0.60967079358E+01 -0.17403294753E+03  0.17610828573E+03  0.00000000000E+00 0. -1.
        -15    1    1    2    0    0 -0.27402739982E+01  0.55151566642E+00  0.12340820496E+03  0.12345264700E+03  0.17770000000E+01 0. -1.
         15    1    1    2    0    0  0.21667116517E+02  0.12036813497E+01  0.10052349037E+02  0.23981664602E+02  0.17770000000E+01 0.  1.
</event>
<event>
 6    1  0.1298204E-002  0.1873185E+03  0.7546771E-02  0.1064683E+00
        -11   -1    0    0    0    0  0.00000000000E+00  0.00000000000E+00  0.18250000000E+03  0.18250000000E+03  0.00000000000E+00 0.  1.
         11   -1    0    0    0    0 -0.00000000000E+00 -0.00000000000E+00 -0.18250000000E+03  0.18250000000E+03  0.00000000000E+00 0. -1.
        -11    1    1    2    0    0  0.23623715312E+01  0.25329107204E+00  0.14240215580E+03  0.14242197489E+03  0.00000000000E+00 0.  1.
         11    1    1    2    0    0 -0.52066820177E+01  0.34554136357E+01 -0.17757160799E+03  0.17768152798E+03  0.00000000000E+00 0. -1.
        -15    1    1    2    0    0 -0.11785034449E+01 -0.48855902197E+01  0.38743571453E+02  0.39108565815E+02  0.17770000000E+01 0.  1.
         15    1    1    2    0    0  0.40228139314E+01  0.11768855120E+01 -0.35741192591E+01  0.57879313156E+01  0.17770000000E+01 0. -1.
</event>
<event>
 6    1  0.1298204E-002  0.1877160E+03  0.7546771E-02  0.1064377E+00
        -11   -1    0    0    0    0  0.00000000000E+00  0.00000000000E+00  0.18250000000E+03  0.18250000000E+03  0.00000000000E+00 0. -1.
         11   -1    0    0    0    0 -0.00000000000E+00 -0.00000000000E+00 -0.18250000000E+03  0.18250000000E+03  0.00000000000E+00 0.  1.
        -11    1    1    2    0    0  0.27477591282E+01 -0.50589100208E+00  0.12040034018E+03  0.12043275311E+03  0.00000000000E+00 0. -1.
         11    1    1    2    0    0 -0.84822186345E+01 -0.54782363754E+01 -0.17699625387E+03  0.17728404607E+03  0.00000000000E+00 0.  1.
        -15    1    1    2    0    0  0.10356658375E+02  0.68928705976E+01  0.23262542366E+01  0.12780501772E+02  0.17770000000E+01 0.  1.
         15    1    1    2    0    0 -0.46221988690E+01 -0.90874322006E+00  0.54269659458E+02  0.54502699046E+02  0.17770000000E+01 0. -1.
</event>
<event>
 6    1  0.1298204E-002  0.1856111E+03  0.7546771E-02  0.1066005E+00
        -11   -1    0    0    0    0  0.00000000000E+00  0.00000000000E+00  0.18250000000E+03  0.18250000000E+03  0.00000000000E+00 0. -1.
         11   -1    0    0    0    0 -0.00000000000E+00 -0.00000000000E+00 -0.18250000000E+03  0.18250000000E+03  0.00000000000E+00 0.  1.
        -11    1    1    2    0    0  0.86719905780E+00  0.25474516455E+01  0.17362709758E+03  0.17364795005E+03  0.00000000000E+00 0. -1.
         11    1    1    2    0    0  0.28754515204E+01  0.27086582042E+01 -0.17934544295E+03  0.17938894324E+03  0.00000000000E+00 0.  1.
        -15    1    1    2    0    0 -0.41793570198E+01 -0.43376304912E+01  0.43297127697E+00  0.62950183879E+01  0.17770000000E+01 0.  1.
         15    1    1    2    0    0  0.43670644157E+00 -0.91847935850E+00  0.52853740932E+01  0.56680883156E+01  0.17770000000E+01 0.  1.
</event>
<event>
 6    1  0.1298204E-002  0.1827991E+03  0.7546771E-02  0.1068217E+00
        -11   -1    0    0    0    0  0.00000000000E+00  0.00000000000E+00  0.18250000000E+03  0.18250000000E+03  0.00000000000E+00 0. -1.
         11   -1    0    0    0    0 -0.00000000000E+00 -0.00000000000E+00 -0.18250000000E+03  0.18250000000E+03  0.00000000000E+00 0. -1.
        -11    1    1    2    0    0 -0.41644130133E+00 -0.19397141298E+01  0.11842682947E+03  0.11844344580E+03  0.00000000000E+00 0. -1.
         11    1    1    2    0    0  0.49974682427E+01 -0.19607512684E+01 -0.18212184541E+03  0.18220094898E+03  0.00000000000E+00 0. -1.
        -15    1    1    2    0    0 -0.13334993715E+01  0.17225949158E+01  0.77181037624E+01  0.82141590260E+01  0.17770000000E+01 0. -1.
         15    1    1    2    0    0 -0.32475275699E+01  0.21778704825E+01  0.55976912175E+02  0.56141446195E+02  0.17770000000E+01 0.  1.
</event>
<event>
 6    1  0.1298204E-002  0.1845783E+03  0.7546771E-02  0.1066812E+00
        -11   -1    0    0    0    0  0.00000000000E+00  0.00000000000E+00  0.18250000000E+03  0.18250000000E+03  0.00000000000E+00 0.  1.
         11   -1    0    0    0    0 -0.00000000000E+00 -0.00000000000E+00 -0.18250000000E+03  0.18250000000E+03  0.00000000000E+00 0. -1.
        -11    1    1    2    0    0 -0.69275565039E+01  0.52244890551E+00  0.18028794711E+03  0.18042174998E+03  0.00000000000E+00 0.  1.
         11    1    1    2    0    0 -0.21261322109E+01  0.19688111737E-01 -0.14739919290E+03  0.14741452741E+03  0.00000000000E+00 0. -1.
        -15    1    1    2    0    0  0.10696025288E+02 -0.41555911039E+01 -0.16290997540E+02  0.20005704792E+02  0.17770000000E+01 0. -1.
         15    1    1    2    0    0 -0.16423365736E+01  0.36134540866E+01 -0.16597756674E+02  0.17158017819E+02  0.17770000000E+01 0.  1.
</event>
<event>
 6    1  0.1298204E-002  0.1835811E+03  0.7546771E-02  0.1067597E+00
        -11   -1    0    0    0    0  0.00000000000E+00  0.00000000000E+00  0.18250000000E+03  0.18250000000E+03  0.00000000000E+00 0. -1.
         11   -1    0    0    0    0 -0.00000000000E+00 -0.00000000000E+00 -0.18250000000E+03  0.18250000000E+03  0.00000000000E+00 0.  1.
        -11    1    1    2    0    0  0.26796468084E+01 -0.31334736427E+01  0.14811622135E+03  0.14817359479E+03  0.00000000000E+00 0. -1.
         11    1    1    2    0    0 -0.14388935554E+01  0.46680555665E+01 -0.18135308961E+03  0.18141886415E+03  0.00000000000E+00 0.  1.
        -15    1    1    2    0    0 -0.42592489223E+01  0.47959929077E+00  0.29630689737E+02  0.29991777542E+02  0.17770000000E+01 0. -1.
         15    1    1    2    0    0  0.30184956694E+01 -0.20141812146E+01  0.36061785192E+01  0.54157635273E+01  0.17770000000E+01 0.  1.
</event>
<event>
 6    1  0.1298204E-002  0.1864553E+03  0.7546771E-02  0.1065349E+00
        -11   -1    0    0    0    0  0.00000000000E+00  0.00000000000E+00  0.18250000000E+03  0.18250000000E+03  0.00000000000E+00 0.  1.
         11   -1    0    0    0    0 -0.00000000000E+00 -0.00000000000E+00 -0.18250000000E+03  0.18250000000E+03  0.00000000000E+00 0.  1.
        -11    1    1    2    0    0  0.12565717232E+01  0.39928837507E+01  0.16626724534E+03  0.16631992956E+03  0.00000000000E+00 0.  1.
         11    1    1    2    0    0 -0.45448034037E+01  0.32440956624E+01 -0.17845734476E+03  0.17854468150E+03  0.00000000000E+00 0.  1.
        -15    1    1    2    0    0 -0.18351633380E+01 -0.60291237799E+01 -0.20603419524E+00  0.65512088289E+01  0.17770000000E+01 0.  1.
         15    1    1    2    0    0  0.51233950185E+01 -0.12078556332E+01  0.12396133611E+02  0.13584180110E+02  0.17770000000E+01 0. -1.
</event>
<event>
 6    1  0.1298204E-002  0.1829775E+03  0.7546771E-02  0.1068075E+00
        -11   -1    0    0    0    0  0.00000000000E+00  0.00000000000E+00  0.18250000000E+03  0.18250000000E+03  0.00000000000E+00 0. -1.
         11   -1    0    0    0    0 -0.00000000000E+00 -0.00000000000E+00 -0.18250000000E+03  0.18250000000E+03  0.00000000000E+00 0. -1.
        -11    1    1    2    0    0 -0.36537521842E+01 -0.24974836908E+01  0.18196871757E+03  0.18202253021E+03  0.00000000000E+00 0. -1.
         11    1    1    2    0    0  0.21035443875E+01 -0.15366347425E+01 -0.14547176822E+03  0.14549509097E+03  0.00000000000E+00 0. -1.
        -15    1    1    2    0    0  0.32137948261E+01  0.30293980877E+01 -0.13109336795E+02  0.13946977097E+02  0.17770000000E+01 0. -1.
         15    1    1    2    0    0 -0.16635870295E+01  0.10047203456E+01 -0.23387612549E+02  0.23535401728E+02  0.17770000000E+01 0.  1.
</event>
<event>
 6    1  0.1298204E-002  0.1863686E+03  0.7546771E-02  0.1065416E+00
        -11   -1    0    0    0    0  0.00000000000E+00  0.00000000000E+00  0.18250000000E+03  0.18250000000E+03  0.00000000000E+00 0.  1.
         11   -1    0    0    0    0 -0.00000000000E+00 -0.00000000000E+00 -0.18250000000E+03  0.18250000000E+03  0.00000000000E+00 0.  1.
        -11    1    1    2    0    0  0.25363302460E+01  0.39921459106E+00  0.17861292684E+03  0.17863138016E+03  0.00000000000E+00 0.  1.
         11    1    1    2    0    0 -0.48716498867E+01 -0.30177687370E+01 -0.17621811330E+03  0.17631126838E+03  0.00000000000E+00 0.  1.
        -15    1    1    2    0    0 -0.27143283821E+01  0.44788534256E+00  0.91410291337E+00  0.34002195492E+01  0.17770000000E+01 0. -1.
         15    1    1    2    0    0  0.50496480228E+01  0.21706688034E+01 -0.33089164514E+01  0.66571319117E+01  0.17770000000E+01 0.  1.
</event>
<event>
 6    1  0.1539719E-002  0.1910072E+03  0.7546771E-02  0.1061878E+00
        -11   -1    0    0    0    0  0.00000000000E+00  0.00000000000E+00  0.18250000000E+03  0.18250000000E+03  0.00000000000E+00 0. -1.
         11   -1    0    0    0    0 -0.00000000000E+00 -0.00000000000E+00 -0.18250000000E+03  0.18250000000E+03  0.00000000000E+00 0.  1.
        -11    1    1    2    0    0 -0.57479709544E+01  0.16794004014E+01  0.17388972490E+03  0.17399280440E+03  0.00000000000E+00 0. -1.
         11    1    1    2    0    0  0.10778255817E+01 -0.21359869128E+01 -0.13372867883E+03  0.13375007922E+03  0.00000000000E+00 0.  1.
        -15    1    1    2    0    0  0.59983637380E+01  0.16918493660E+01  0.72808180694E+01  0.97473464374E+01  0.17770000000E+01 0. -1.
         15    1    1    2    0    0 -0.13282183654E+01 -0.12352628545E+01 -0.47441864141E+02  0.47509769948E+02  0.17770000000E+01 0.  1.
</event>
<event>
 6    1  0.1298204E-002  0.1861939E+03  0.7546771E-02  0.1065552E+00
        -11   -1    0    0    0    0  0.00000000000E+00  0.00000000000E+00  0.18250000000E+03  0.18250000000E+03  0.00000000000E+00 0. -1.
         11   -1    0    0    0    0 -0.00000000000E+00 -0.00000000000E+00 -0.18250000000E+03  0.18250000000E+03  0.00000000000E+00 0.  1.
        -11    1    1    2    0    0  0.65020342460E+01 -0.13875819718E+02  0.13877790810E+03  0.13962135438E+03  0.00000000000E+00 0. -1.
         11    1    1    2    0    0  0.55863760720E+01  0.79934886899E+00 -0.17871702800E+03  0.17880610352E+03  0.00000000000E+00 0.  1.
        -15    1    1    2    0    0 -0.31151921379E+01  0.44555162334E+01  0.30021293445E+02  0.30561280014E+02  0.17770000000E+01 0.  1.
         15    1    1    2    0    0 -0.89732181802E+01  0.86209546160E+01  0.99178264558E+01  0.16011262087E+02  0.17770000000E+01 0. -1.
</event>
<event>
 6    1  0.1298204E-002  0.1827022E+03  0.7546771E-02  0.1068294E+00
        -11   -1    0    0    0    0  0.00000000000E+00  0.00000000000E+00  0.18250000000E+03  0.18250000000E+03  0.00000000000E+00 0.  1.
         11   -1    0    0    0    0 -0.00000000000E+00 -0.00000000000E+00 -0.18250000000E+03  0.18250000000E+03  0.00000000000E+00 0.  1.
        -11    1    1    2    0    0  0.10913182689E+01 -0.21503176146E+01  0.13267944891E+03  0.13270136022E+03  0.00000000000E+00 0.  1.
         11    1    1    2    0    0  0.12243894315E+01  0.23708047988E+01 -0.18227829589E+03  0.18229782499E+03  0.00000000000E+00 0.  1.
        -15    1    1    2    0    0 -0.27845342484E+01 -0.12326423935E+01  0.18610849167E+02  0.18941870920E+02  0.17770000000E+01 0.  1.
         15    1    1    2    0    0  0.46882654800E+00  0.10121552094E+01  0.30987997814E+02  0.31058943865E+02  0.17770000000E+01 0.  1.
</event>
<event>
 6    1  0.1298204E-002  0.1868704E+03  0.7546771E-02  0.1065028E+00
        -11   -1    0    0    0    0  0.00000000000E+00  0.00000000000E+00  0.18250000000E+03  0.18250000000E+03  0.00000000000E+00 0.  1.
         11   -1    0    0    0    0 -0.00000000000E+00 -0.00000000000E+00 -0.18250000000E+03  0.18250000000E+03  0.00000000000E+00 0.  1.
        -11    1    1    2    0    0 -0.10634286674E+02  0.78744493779E+00  0.12216631365E+03  0.12263081306E+03  0.00000000000E+00 0.  1.
         11    1    1    2    0    0 -0.52584435984E+01 -0.34038406338E+01 -0.17801944533E+03  0.17812961650E+03  0.00000000000E+00 0.  1.
        -15    1    1    2    0    0  0.50425554811E+01 -0.67987650467E+00  0.51780536164E+02  0.52060265580E+02  0.17770000000E+01 0. -1.
         15    1    1    2    0    0  0.10850174791E+02  0.32962722007E+01  0.40725955195E+01  0.12179304852E+02  0.17770000000E+01 0.  1.
</event>
<event>
 6    1  0.1298204E-002  0.1905541E+03  0.7546771E-02  0.1062219E+00
        -11   -1    0    0    0    0  0.00000000000E+00  0.00000000000E+00  0.18250000000E+03  0.18250000000E+03  0.00000000000E+00 0. -1.
         11   -1    0    0    0    0 -0.00000000000E+00 -0.00000000000E+00 -0.18250000000E+03  0.18250000000E+03  0.00000000000E+00 0. -1.
        -11    1    1    2    0    0 -0.50873940185E+01 -0.18159792275E+01  0.16730785017E+03  0.16739503005E+03  0.00000000000E+00 0. -1.
         11    1    1    2    0    0  0.14963615179E+01 -0.25022116893E+01 -0.17442154624E+03  0.17444591125E+03  0.00000000000E+00 0. -1.
        -15    1    1    2    0    0  0.19789104578E+01  0.16946582160E+01  0.14565290536E+02  0.14902797404E+02  0.17770000000E+01 0.  1.
         15    1    1    2    0    0  0.16121220428E+01  0.26235327008E+01 -0.74515944676E+01  0.82562612860E+01  0.17770000000E+01 0. -1.
</event>
<event>
 6    1  0.1298204E-002  0.1829058E+03  0.7546771E-02  0.1068132E+00
        -11   -1    0    0    0    0  0.00000000000E+00  0.00000000000E+00  0.18250000000E+03  0.18250000000E+03  0.00000000000E+00 0.  1.
         11   -1    0    0    0    0 -0.00000000000E+00 -0.00000000000E+00 -0.18250000000E+03  0.18250000000E+03  0.00000000000E+00 0. -1.
        -11    1    1    2    0    0 -0.17868456475E+00  0.52181318108E+00  0.27322289181E+02  0.27327855812E+02  0.00000000000E+00 0.  1.
         11    1    1    2    0    0  0.32473727132E+01  0.91428034347E+00 -0.18206298797E+03  0.18209424189E+03  0.00000000000E+00 0. -1.
        -15    1    1    2    0    0  0.30085034842E+01  0.66532208625E+00  0.88963075029E+01  0.95810105354E+01  0.17770000000E+01 0. -1.
         15    1    1    2    0    0 -0.60771916326E+01 -0.21014156108E+01  0.14584439129E+03  0.14599689177E+03  0.17770000000E+01 0.  1.
</event>
<event>
 6    1  0.1298204E-002  0.1836073E+03  0.7546771E-02  0.1067577E+00
        -11   -1    0    0    0    0  0.00000000000E+00  0.00000000000E+00  0.18250000000E+03  0.18250000000E+03  0.00000000000E+00 0. -1.
         11   -1    0    0    0    0 -0.00000000000E+00 -0.00000000000E+00 -0.18250000000E+03  0.18250000000E+03  0.00000000000E+00 0.  1.
        -11    1    1    2    0    0 -0.85490158896E+00 -0.17858340654E+01  0.14513338231E+03  0.14514688671E+03  0.00000000000E+00 0. -1.
         11    1    1    2    0    0 -0.37275205684E+01 -0.47399959120E+01 -0.18129249028E+03  0.18139274793E+03  0.00000000000E+00 0.  1.
        -15    1    1    2    0    0 -0.44332866118E+00 -0.30464170314E+00  0.74294857327E+00  0.19997620988E+01  0.17770000000E+01 0.  1.
         15    1    1    2    0    0  0.50257508185E+01  0.68304716805E+01  0.35416159398E+02  0.36460603261E+02  0.17770000000E+01 0.  1.
</event>
<event>
 6    1  0.1298204E-002  0.1826892E+03  0.7546771E-02  0.1068304E+00
        -11   -1    0    0    0    0  0.00000000000E+00  0.00000000000E+00  0.18250000000E+03  0.18250000000E+03  0.00000000000E+00 0.  1.
         11   -1    0    0    0    0 -0.00000000000E+00 -0.00000000000E+00 -0.18250000000E+03  0.18250000000E+03  0.00000000000E+00 0. -1.
        -11    1    1    2    0    0 -0.24600407100E+01 -0.10880550577E+01  0.13408848775E+03  0.13411546596E+03  0.00000000000E+00 0.  1.
         11    1    1    2    0    0  0.40646586953E+00 -0.27904494410E+01 -0.18228895200E+03  0.18231076173E+03  0.00000000000E+00 0. -1.
        -15    1    1    2    0    0  0.11617221789E+01  0.30219099331E+01  0.35329615422E+02  0.35522119770E+02  0.17770000000E+01 0. -1.
         15    1    1    2    0    0  0.89185266159E+00  0.85659456558E+00  0.12870848828E+02  0.13051652538E+02  0.17770000000E+01 0.  1.
</event>
<event>
 6    1  0.1298204E-002  0.1840106E+03  0.7546771E-02  0.1067259E+00
        -11   -1    0    0    0    0  0.00000000000E+00  0.00000000000E+00  0.18250000000E+03  0.18250000000E+03  0.00000000000E+00 0.  1.
         11   -1    0    0    0    0 -0.00000000000E+00 -0.00000000000E+00 -0.18250000000E+03  0.18250000000E+03  0.00000000000E+00 0.  1.
        -11    1    1    2    0    0 -0.12097982212E+01  0.35693324897E+01  0.18095011366E+03  0.18098935709E+03  0.00000000000E+00 0.  1.
         11    1    1    2    0    0 -0.26579470709E+01 -0.32500637247E+00 -0.17304129604E+03  0.17306201330E+03  0.00000000000E+00 0.  1.
        -15    1    1    2    0    0  0.16490210777E+01  0.76600050213E+00 -0.18378397710E+01  0.31371023745E+01  0.17770000000E+01 0.  1.
         15    1    1    2    0    0  0.22187242144E+01 -0.40103266194E+01 -0.60709778472E+01  0.78115272357E+01  0.17770000000E+01 0.  1.
</event>
<event>
 6    1  0.1298204E-002  0.1888759E+03  0.7546771E-02  0.1063490E+00
        -11   -1    0    0    0    0  0.00000000000E+00  0.00000000000E+00  0.18250000000E+03  0.18250000000E+03  0.00000000000E+00 0. -1.
         11   -1    0    0    0    0 -0.00000000000E+00 -0.00000000000E+00 -0.18250000000E+03  0.18250000000E+03  0.00000000000E+00 0. -1.
        -11    1    1    2    0    0 -0.44452185481E+01  0.73009595918E+01  0.17591656300E+03  0.17612410714E+03  0.00000000000E+00 0. -1.
         11    1    1    2    0    0 -0.45279495764E+00 -0.89810693669E+01 -0.15596329566E+03  0.15622232306E+03  0.00000000000E+00 0. -1.
        -15    1    1    2    0    0  0.82983405269E+01  0.12007940371E+02 -0.12989544688E+02  0.19619864618E+02  0.17770000000E+01 0. -1.
         15    1    1    2    0    0 -0.34003270211E+01 -0.10327830596E+02 -0.69637226519E+01  0.13033705185E+02  0.17770000000E+01 0.  1.
</event>
<event>
 6    1  0.1298204E-002  0.1825588E+03  0.7546771E-02  0.1068408E+00
        -11   -1    0    0    0    0  0.00000000000E+00  0.00000000000E+00  0.18250000000E+03  0.18250000000E+03  0.00000000000E+00 0. -1.
         11   -1    0    0    0    0 -0.00000000000E+00 -0.00000000000E+00 -0.18250000000E+03  0.18250000000E+03  0.00000000000E+00 0. -1.
        -11    1    1    2    0    0  0.12126186774E+01 -0.31786527082E+00  0.32069518823E+02  0.32094010655E+02  0.00000000000E+00 0. -1.
         11    1    1    2    0    0 -0.25240818976E+01 -0.23791810563E+00 -0.18242360820E+03  0.18244122457E+03  0.00000000000E+00 0. -1.
        -15    1    1    2    0    0 -0.82960838078E+00  0.83490805787E+00  0.10665363550E+03  0.10667493153E+03  0.17770000000E+01 0. -1.
         15    1    1    2    0    0  0.21410716010E+01 -0.27912468142E+00  0.43700453871E+02  0.43789833246E+02  0.17770000000E+01 0.  1.
</event>
<event>
 6    1  0.1298204E-002  0.1879484E+03  0.7546771E-02  0.1064199E+00
        -11   -1    0    0    0    0  0.00000000000E+00  0.00000000000E+00  0.18250000000E+03  0.18250000000E+03  0.00000000000E+00 0.  1.
         11   -1    0    0    0    0 -0.00000000000E+00 -0.00000000000E+00 -0.18250000000E+03  0.18250000000E+03  0.00000000000E+00 0.  1.
        -11    1    1    2    0    0  0.40867455441E+01  0.13755737322E+02  0.10861488691E+03  0.10955873063E+03  0.00000000000E+00 0.  1.
         11    1    1    2    0    0 -0.26846038521E+02  0.73204700278E+01 -0.17485129335E+03  0.17705161352E+03  0.00000000000E+00 0.  1.
        -15    1    1    2    0    0  0.11336051719E+02  0.56506740636E+01  0.21164908635E+02  0.24729481848E+02  0.17770000000E+01 0. -1.
         15    1    1    2    0    0  0.11423241258E+02 -0.26726881413E+02  0.45071497800E+02  0.53660174002E+02  0.17770000000E+01 0.  1.
</event>
<event>
 6    1  0.1298204E-002  0.1846459E+03  0.7546771E-02  0.1066759E+00
        -11   -1    0    0    0    0  0.00000000000E+00  0.00000000000E+00  0.18250000000E+03  0.18250000000E+03  0.00000000000E+00 0.  1.
         11   -1    0    0    0    0 -0.00000000000E+00 -0.00000000000E+00 -0.18250000000E+03  0.18250000000E+03  0.00000000000E+00 0. -1.
        -11    1    1    2    0    0  0.35484514333E-01  0.52708325484E+01  0.18027705088E+03  0.18035409063E+03  0.00000000000E+00 0.  1.
         11    1    1    2    0    0  0.24563732088E+01 -0.32348038326E+00 -0.15839262900E+03  0.15841200501E+03  0.00000000000E+00 0. -1.
        -15    1    1    2    0    0  0.34933418353E+01 -0.40009337184E+01 -0.30677467226E+01  0.63858990558E+01  0.17770000000E+01 0.  1.
         15    1    1    2    0    0 -0.59851995584E+01 -0.94641844677E+00 -0.18816675152E+02  0.19848005301E+02  0.17770000000E+01 0. -1.
</event>
<event>
 6    1  0.1298204E-002  0.1710834E+03  0.7546771E-02  0.1077924E+00
        -11   -1    0    0    0    0  0.00000000000E+00  0.00000000000E+00  0.18250000000E+03  0.18250000000E+03  0.00000000000E+00 0. -1.
         11   -1    0    0    0    0 -0.00000000000E+00 -0.00000000000E+00 -0.18250000000E+03  0.18250000000E+03  0.00000000000E+00 0. -1.
        -11    1    1    2    0    0  0.44833083025E+01 -0.59962604407E+01  0.17024457535E+03  0.17040912719E+03  0.00000000000E+00 0. -1.
         11    1    1    2    0    0 -0.12045833159E+02 -0.48243569491E+01 -0.17152459072E+03  0.17201471372E+03  0.00000000000E+00 0. -1.
        -15    1    1    2    0    0  0.23083924717E+01  0.33098304817E+01  0.92842426116E+01  0.10278061271E+02  0.17770000000E+01 0. -1.
         15    1    1    2    0    0  0.52541323848E+01  0.75107869081E+01 -0.80042272491E+01  0.12298097818E+02  0.17770000000E+01 0.  1.
</event>
<event>
 6    1  0.1298204E-002  0.1831051E+03  0.7546771E-02  0.1067974E+00
        -11   -1    0    0    0    0  0.00000000000E+00  0.00000000000E+00  0.18250000000E+03  0.18250000000E+03  0.00000000000E+00 0.  1.
         11   -1    0    0    0    0 -0.00000000000E+00 -0.00000000000E+00 -0.18250000000E+03  0.18250000000E+03  0.00000000000E+00 0.  1.
        -11    1    1    2    0    0 -0.23523302352E+01  0.26655754645E+01  0.14458992341E+03  0.14463362231E+03  0.00000000000E+00 0.  1.
         11    1    1    2    0    0  0.36033178853E+01  0.10999990920E+01 -0.18185584659E+03  0.18189486754E+03  0.00000000000E+00 0.  1.
        -15    1    1    2    0    0  0.29165838382E+01  0.17662019501E-01  0.18020674427E+02  0.18341461475E+02  0.17770000000E+01 0. -1.
         15    1    1    2    0    0 -0.41675714883E+01 -0.37832365759E+01  0.19245248756E+02  0.20130048678E+02  0.17770000000E+01 0.  1.
</event>
<event>
 6    1  0.1298204E-002  0.1917437E+03  0.7546771E-02  0.1061326E+00
        -11   -1    0    0    0    0  0.00000000000E+00  0.00000000000E+00  0.18250000000E+03  0.18250000000E+03  0.00000000000E+00 0.  1.
         11   -1    0    0    0    0 -0.00000000000E+00 -0.00000000000E+00 -0.18250000000E+03  0.18250000000E+03  0.00000000000E+00 0. -1.
        -11    1    1    2    0    0 -0.57029959493E+01  0.11092100079E+01  0.17315884424E+03  0.17325628372E+03  0.00000000000E+00 0.  1.
         11    1    1    2    0    0 -0.33112234668E+01  0.24881739717E+01 -0.15570499743E+03  0.15576007652E+03  0.00000000000E+00 0. -1.
        -15    1    1    2    0    0  0.15911887786E+01 -0.15805616955E+01 -0.24940158719E+02  0.25103770692E+02  0.17770000000E+01 0. -1.
         15    1    1    2    0    0  0.74230306375E+01 -0.20168222842E+01  0.74863119179E+01  0.10879869076E+02  0.17770000000E+01 0.  1.
</event>
<event>
 6    1  0.1298204E-002  0.1830940E+03  0.7546771E-02  0.1067983E+00
        -11   -1    0    0    0    0  0.00000000000E+00  0.00000000000E+00  0.18250000000E+03  0.18250000000E+03  0.00000000000E+00 0.  1.
         11   -1    0    0    0    0 -0.00000000000E+00 -0.00000000000E+00 -0.18250000000E+03  0.18250000000E+03  0.00000000000E+00 0. -1.
        -11    1    1    2    0    0 -0.48249417734E+01 -0.64108484126E+00  0.40714418150E+02  0.41004327798E+02  0.00000000000E+00 0.  1.
         11    1    1    2    0    0 -0.27949185782E+01  0.24837504613E+01 -0.18186755051E+03  0.18190598263E+03  0.00000000000E+00 0. -1.
        -15    1    1    2    0    0  0.20036309916E+01 -0.44307035237E+01  0.11636577037E+03  0.11648088219E+03  0.17770000000E+01 0.  1.
         15    1    1    2    0    0  0.56162293600E+01  0.25880379037E+01  0.24787361990E+02  0.25608807388E+02  0.17770000000E+01 0. -1.
</event>
<event>
 6    1  0.1298204E-002  0.1827981E+03  0.7546771E-02  0.1068218E+00
        -11   -1    0    0    0    0  0.00000000000E+00  0.00000000000E+00  0.18250000000E+03  0.18250000000E+03  0.00000000000E+00 0.  1.
         11   -1    0    0    0    0 -0.00000000000E+00 -0.00000000000E+00 -0.18250000000E+03  0.18250000000E+03  0.00000000000E+00 0. -1.
        -11    1    1    2    0    0 -0.15367070249E+01  0.39884132763E+01  0.18215178337E+03  0.18220192396E+03  0.00000000000E+00 0.  1.
         11    1    1    2    0    0 -0.10439159580E+01 -0.13732289059E+01 -0.70888834805E+02  0.70909818913E+02  0.00000000000E+00 0. -1.
        -15    1    1    2    0    0  0.60324731813E+01 -0.49123740285E+00 -0.86750942181E+02  0.86979973242E+02  0.17770000000E+01 0. -1.
         15    1    1    2    0    0 -0.34518501984E+01 -0.21239469676E+01 -0.24512006381E+02  0.24908283890E+02  0.17770000000E+01 0.  1.
</event>
<event>
 6    1  0.1298204E-002  0.1564836E+03  0.7546771E-02  0.1091284E+00
        -11   -1    0    0    0    0  0.00000000000E+00  0.00000000000E+00  0.18250000000E+03  0.18250000000E+03  0.00000000000E+00 0. -1.
         11   -1    0    0    0    0 -0.00000000000E+00 -0.00000000000E+00 -0.18250000000E+03  0.18250000000E+03  0.00000000000E+00 0. -1.
        -11    1    1    2    0    0 -0.13056579490E+02 -0.31237243761E+01  0.16328621772E+03  0.16383717777E+03  0.00000000000E+00 0. -1.
         11    1    1    2    0    0 -0.46729027124E+01 -0.23052325607E+02 -0.14919544386E+03  0.15103816141E+03  0.00000000000E+00 0. -1.
        -15    1    1    2    0    0 -0.59104754339E+01  0.11679006920E+02  0.72676745761E+01  0.15076794926E+02  0.17770000000E+01 0. -1.
         15    1    1    2    0    0  0.23639957636E+02  0.14497043063E+02 -0.21358448443E+02  0.35047865891E+02  0.17770000000E+01 0.  1.
</event>
<event>
 6    1  0.1298204E-002  0.1827094E+03  0.7546771E-02  0.1068288E+00
        -11   -1    0    0    0    0  0.00000000000E+00  0.00000000000E+00  0.18250000000E+03  0.18250000000E+03  0.00000000000E+00 0.  1.
         11   -1    0    0    0    0 -0.00000000000E+00 -0.00000000000E+00 -0.18250000000E+03  0.18250000000E+03  0.00000000000E+00 0. -1.
        -11    1    1    2    0    0 -0.59164300423E+01 -0.10294419219E+02  0.18190353852E+03  0.18229063755E+03  0.00000000000E+00 0.  1.
         11    1    1    2    0    0  0.78406949900E+00  0.20037750340E+01 -0.21285273564E+02  0.21393754932E+02  0.00000000000E+00 0. -1.
        -15    1    1    2    0    0 -0.21547345140E+01  0.61118309799E+00 -0.70868945843E+02  0.70926593317E+02  0.17770000000E+01 0.  1.
         15    1    1    2    0    0  0.72870950573E+01  0.76794610875E+01 -0.89749319117E+02  0.90389014199E+02  0.17770000000E+01 0. -1.
</event>
<event>
 6    1  0.1298204E-002  0.1826202E+03  0.7546771E-02  0.1068359E+00
        -11   -1    0    0    0    0  0.00000000000E+00  0.00000000000E+00  0.18250000000E+03  0.18250000000E+03  0.00000000000E+00 0.  1.
         11   -1    0    0    0    0 -0.00000000000E+00 -0.00000000000E+00 -0.18250000000E+03  0.18250000000E+03  0.00000000000E+00 0.  1.
        -11    1    1    2    0    0  0.29019503442E+00 -0.63888678238E+00  0.36407340117E+02  0.36414101717E+02  0.00000000000E+00 0.  1.
         11    1    1    2    0    0 -0.24626740118E+01 -0.17090994980E+01 -0.18235511369E+03  0.18237975018E+03  0.00000000000E+00 0.  1.
        -15    1    1    2    0    0  0.14454673057E+01 -0.81617687207E+00  0.14222264179E+02  0.14428653707E+02  0.17770000000E+01 0. -1.
         15    1    1    2    0    0  0.72701167162E+00  0.31641631525E+01  0.13172550940E+03  0.13177749440E+03  0.17770000000E+01 0.  1.
</event>
<event>
 6    1  0.1298204E-002  0.1830170E+03  0.7546771E-02  0.1068044E+00
        -11   -1    0    0    0    0  0.00000000000E+00  0.00000000000E+00  0.18250000000E+03  0.18250000000E+03  0.00000000000E+00 0. -1.
         11   -1    0    0    0    0 -0.00000000000E+00 -0.00000000000E+00 -0.18250000000E+03  0.18250000000E+03  0.00000000000E+00 0. -1.
        -11    1    1    2    0    0  0.21636799774E+01  0.76626904929E+00  0.42575249788E+02  0.42637079799E+02  0.00000000000E+00 0. -1.
         11    1    1    2    0    0 -0.17309494408E+01 -0.21334176068E+01 -0.18196229691E+03  0.18198303535E+03  0.00000000000E+00 0. -1.
        -15    1    1    2    0    0 -0.28192198986E+01  0.10751540490E+01  0.13514389556E+03  0.13518925325E+03  0.17770000000E+01 0. -1.
         15    1    1    2    0    0  0.23864893620E+01  0.29199450855E+00  0.42431515632E+01  0.51906316048E+01  0.17770000000E+01 0.  1.
</event>
<event>
 6    1  0.1298204E-002  0.1856203E+03  0.7546771E-02  0.1065998E+00
        -11   -1    0    0    0    0  0.00000000000E+00  0.00000000000E+00  0.18250000000E+03  0.18250000000E+03  0.00000000000E+00 0. -1.
         11   -1    0    0    0    0 -0.00000000000E+00 -0.00000000000E+00 -0.18250000000E+03  0.18250000000E+03  0.00000000000E+00 0. -1.
        -11    1    1    2    0    0  0.23141942426E+01  0.29504843671E+01  0.17934050140E+03  0.17937969867E+03  0.00000000000E+00 0. -1.
         11    1    1    2    0    0 -0.32931425688E+01 -0.12410331666E+01 -0.16432993618E+03  0.16436761505E+03  0.00000000000E+00 0. -1.
        -15    1    1    2    0    0 -0.37612823095E+01  0.28646530064E+01 -0.32701697418E+00  0.50614375982E+01  0.17770000000E+01 0.  1.
         15    1    1    2    0    0  0.47402306356E+01 -0.45741042068E+01 -0.14683548248E+02  0.16191248683E+02  0.17770000000E+01 0. -1.
</event>
<event>
 6    1  0.1298204E-002  0.1827172E+03  0.7546771E-02  0.1068282E+00
        -11   -1    0    0    0    0  0.00000000000E+00  0.00000000000E+00  0.18250000000E+03  0.18250000000E+03  0.00000000000E+00 0.  1.
         11   -1    0    0    0    0 -0.00000000000E+00 -0.00000000000E+00 -0.18250000000E+03  0.18250000000E+03  0.00000000000E+00 0.  1.
        -11    1    1    2    0    0 -0.93264476057E+00  0.26708192567E+01  0.18226079717E+03  0.18228275093E+03  0.00000000000E+00 0.  1.
         11    1    1    2    0    0  0.13606471282E+01 -0.18998611423E+01 -0.85411380373E+02  0.85443342223E+02  0.00000000000E+00 0.  1.
        -15    1    1    2    0    0 -0.15717946969E+01 -0.16193671323E+00 -0.69119094770E+01  0.73095132319E+01  0.17770000000E+01 0. -1.
         15    1    1    2    0    0  0.11437923292E+01 -0.60902140110E+00 -0.89937507316E+02  0.89964393619E+02  0.17770000000E+01 0.  1.
</event>
<event>
 6    1  0.1298204E-002  0.1478840E+03  0.7546771E-02  0.1099927E+00
        -11   -1    0    0    0    0  0.00000000000E+00  0.00000000000E+00  0.18250000000E+03  0.18250000000E+03  0.00000000000E+00 0.  1.
         11   -1    0    0    0    0 -0.00000000000E+00 -0.00000000000E+00 -0.18250000000E+03  0.18250000000E+03  0.00000000000E+00 0. -1.
        -11    1    1    2    0    0  0.43081799358E+00  0.36228206334E+00  0.34979852209E+02  0.34984380987E+02  0.00000000000E+00 0.  1.
         11    1    1    2    0    0 -0.18854308883E+01  0.77848886067E+01 -0.15777221850E+03  0.15797541667E+03  0.00000000000E+00 0. -1.
        -15    1    1    2    0    0  0.22343956285E+01 -0.28201049730E+02 -0.15487459080E+02  0.32300322715E+02  0.17770000000E+01 0.  1.
         15    1    1    2    0    0 -0.77978273382E+00  0.20053879060E+02  0.13827982537E+03  0.13973987963E+03  0.17770000000E+01 0.  1.
</event>
<event>
 6    1  0.1298204E-002  0.1828026E+03  0.7546771E-02  0.1068214E+00
        -11   -1    0    0    0    0  0.00000000000E+00  0.00000000000E+00  0.18250000000E+03  0.18250000000E+03  0.00000000000E+00 0. -1.
         11   -1    0    0    0    0 -0.00000000000E+00 -0.00000000000E+00 -0.18250000000E+03  0.18250000000E+03  0.00000000000E+00 0. -1.
        -11    1    1    2    0    0  0.58552408514E+00 -0.27310539166E+01  0.43705500572E+02  0.43794660339E+02  0.00000000000E+00 0. -1.
         11    1    1    2    0    0 -0.42908132648E+01  0.47282157182E+01 -0.18208546267E+03  0.18219737325E+03  0.00000000000E+00 0. -1.
        -15    1    1    2    0    0 -0.12714790093E+01 -0.51092681834E+01  0.98755562923E+02  0.98911779973E+02  0.17770000000E+01 0. -1.
         15    1    1    2    0    0  0.49767681890E+01  0.31121063818E+01  0.39624399178E+02  0.40096186439E+02  0.17770000000E+01 0.  1.
</event>
<event>
 6    1  0.1298204E-002  0.1782310E+03  0.7546771E-02  0.1071905E+00
        -11   -1    0    0    0    0  0.00000000000E+00  0.00000000000E+00  0.18250000000E+03  0.18250000000E+03  0.00000000000E+00 0. -1.
         11   -1    0    0    0    0 -0.00000000000E+00 -0.00000000000E+00 -0.18250000000E+03  0.18250000000E+03  0.00000000000E+00 0.  1.
        -11    1    1    2    0    0 -0.21375180886E+01 -0.28201185046E+01  0.17796670658E+03  0.17800188399E+03  0.00000000000E+00 0. -1.
         11    1    1    2    0    0  0.23921294141E+01 -0.83594485372E+00 -0.17846121152E+03  0.17847920076E+03  0.00000000000E+00 0.  1.
        -15    1    1    2    0    0 -0.18940891205E+01  0.26753311351E+01 -0.25440723707E+01  0.45138679097E+01  0.17770000000E+01 0. -1.
         15    1    1    2    0    0  0.16394777950E+01  0.98073222324E+00  0.30385773082E+01  0.40050473396E+01  0.17770000000E+01 0.  1.
</event>
<event>
 6    1  0.1298204E-002  0.1893538E+03  0.7546771E-02  0.1063126E+00
        -11   -1    0    0    0    0  0.00000000000E+00  0.00000000000E+00  0.18250000000E+03  0.18250000000E+03  0.00000000000E+00 0.  1.
         11   -1    0    0    0    0 -0.00000000000E+00 -0.00000000000E+00 -0.18250000000E+03  0.18250000000E+03  0.00000000000E+00 0.  1.
        -11    1    1    2    0    0  0.23514453181E+01  0.44942954544E+01  0.17557293978E+03  0.17564619316E+03  0.00000000000E+00 0.  1.
         11    1    1    2    0    0  0.25400791565E+01 -0.47319152562E-01 -0.11956306406E+03  0.11959005197E+03  0.00000000000E+00 0.  1.
        -15    1    1    2    0    0  0.23699095263E+01 -0.32328076653E-01 -0.60095571724E+02  0.60168538175E+02  0.17770000000E+01 0.  1.
         15    1    1    2    0    0 -0.72614340009E+01 -0.44146482252E+01  0.40856960031E+01  0.95952167006E+01  0.17770000000E+01 0. -1.
</event>
<event>
 6    1  0.1298204E-002  0.1928218E+03  0.7546771E-02  0.1060523E+00
        -11   -1    0    0    0    0  0.00000000000E+00  0.00000000000E+00  0.18250000000E+03  0.18250000000E+03  0.00000000000E+00 0. -1.
         11   -1    0    0    0    0 -0.00000000000E+00 -0.00000000000E+00 -0.18250000000E+03  0.18250000000E+03  0.00000000000E+00 0.  1.
        -11    1    1    2    0    0  0.66177957985E+01 -0.37832996200E+01  0.16287907366E+03  0.16305735559E+03  0.00000000000E+00 0. -1.
         11    1    1    2    0    0 -0.26625347826E+01 -0.47440347054E+00 -0.17215693064E+03  0.17217817201E+03  0.00000000000E+00 0.  1.
        -15    1    1    2    0    0 -0.50865590962E+01  0.88434300770E+01  0.17373005077E+02  0.20225191553E+02  0.17770000000E+01 0. -1.
         15    1    1    2    0    0  0.11312980803E+01 -0.45857269865E+01 -0.80951480950E+01  0.95392808440E+01  0.17770000000E+01 0.  1.
</event>
<event>
 6    1  0.1298204E-002  0.1851416E+03  0.7546771E-02  0.1066371E+00
        -11   -1    0    0    0    0  0.00000000000E+00  0.00000000000E+00  0.18250000000E+03  0.18250000000E+03  0.00000000000E+00 0.  1.
         11   -1    0    0    0    0 -0.00000000000E+00 -0.00000000000E+00 -0.18250000000E+03  0.18250000000E+03  0.00000000000E+00 0. -1.
        -11    1    1    2    0    0  0.26562265453E+01 -0.68982249583E+01  0.17970647610E+03  0.17985844045E+03  0.00000000000E+00 0.  1.
         11    1    1    2    0    0 -0.41177860480E+01  0.41930204723E+00 -0.15193365393E+03  0.15199002327E+03  0.00000000000E+00 0. -1.
        -15    1    1    2    0    0  0.49155286375E+01  0.91112354660E+01 -0.90982670038E+01  0.13896518448E+02  0.17770000000E+01 0. -1.
         15    1    1    2    0    0 -0.34539691349E+01 -0.26323125549E+01 -0.18674555164E+02  0.19255017833E+02  0.17770000000E+01 0.  1.
</event>
<event>
 6    1  0.1298204E-002  0.1828383E+03  0.7546771E-02  0.1068186E+00
        -11   -1    0    0    0    0  0.00000000000E+00  0.00000000000E+00  0.18250000000E+03  0.18250000000E+03  0.00000000000E+00 0.  1.
         11   -1    0    0    0    0 -0.00000000000E+00 -0.00000000000E+00 -0.18250000000E+03  0.18250000000E+03  0.00000000000E+00 0.  1.
        -11    1    1    2    0    0 -0.17181043442E+01 -0.12095302574E+01  0.71580085493E+02  0.71610917360E+02  0.00000000000E+00 0.  1.
         11    1    1    2    0    0  0.33220537056E+01 -0.19162705956E+01 -0.18212129356E+03  0.18216166914E+03  0.00000000000E+00 0.  1.
        -15    1    1    2    0    0  0.23079778677E+01 -0.17929357597E+01  0.75831416142E+02  0.75908515883E+02  0.17770000000E+01 0.  1.
         15    1    1    2    0    0 -0.39119272291E+01  0.49187366127E+01  0.34709791928E+02  0.35318897621E+02  0.17770000000E+01 0.  1.
</event>
<event>
 6    1  0.1298204E-002  0.1706438E+03  0.7546771E-02  0.1078305E+00
        -11   -1    0    0    0    0  0.00000000000E+00  0.00000000000E+00  0.18250000000E+03  0.18250000000E+03  0.00000000000E+00 0. -1.
         11   -1    0    0    0    0 -0.00000000000E+00 -0.00000000000E+00 -0.18250000000E+03  0.18250000000E+03  0.00000000000E+00 0. -1.
        -11    1    1    2    0    0 -0.27794387362E+01  0.15033668626E+01  0.93454188592E+01  0.98652037620E+01  0.00000000000E+00 0. -1.
         11    1    1    2    0    0  0.52972421897E+01  0.45605758035E+01 -0.16853201245E+03  0.16867690668E+03  0.00000000000E+00 0. -1.
        -15    1    1    2    0    0  0.35391102756E+01 -0.63288100617E+00 -0.13238099405E+02  0.13832239326E+02  0.17770000000E+01 0.  1.
         15    1    1    2    0    0 -0.60569137292E+01 -0.54310616600E+01  0.17242469300E+03  0.17262565023E+03  0.17770000000E+01 0. -1.
</event>
<event>
 6    1  0.1298204E-002  0.1801456E+03  0.7546771E-02  0.1070345E+00
        -11   -1    0    0    0    0  0.00000000000E+00  0.00000000000E+00  0.18250000000E+03  0.18250000000E+03  0.00000000000E+00 0. -1.
         11   -1    0    0    0    0 -0.00000000000E+00 -0.00000000000E+00 -0.18250000000E+03  0.18250000000E+03  0.00000000000E+00 0. -1.
        -11    1    1    2    0    0 -0.14996308801E-02 -0.28077784004E+01  0.18217314685E+03  0.18219478329E+03  0.00000000000E+00 0. -1.
         11    1    1    2    0    0 -0.67310402246E+00  0.11884037120E+01 -0.49178058607E+01  0.51039383706E+01  0.00000000000E+00 0. -1.
        -15    1    1    2    0    0 -0.44802643823E+01  0.38156236962E+01 -0.64330626019E+02  0.64623671562E+02  0.17770000000E+01 0. -1.
         15    1    1    2    0    0  0.51548680356E+01 -0.21962490077E+01 -0.11292471497E+03  0.11307760678E+03  0.17770000000E+01 0. -1.
</event>
<event>
 6    1  0.1298204E-002  0.1881677E+03  0.7546771E-02  0.1064031E+00
        -11   -1    0    0    0    0  0.00000000000E+00  0.00000000000E+00  0.18250000000E+03  0.18250000000E+03  0.00000000000E+00 0. -1.
         11   -1    0    0    0    0 -0.00000000000E+00 -0.00000000000E+00 -0.18250000000E+03  0.18250000000E+03  0.00000000000E+00 0.  1.
        -11    1    1    2    0    0 -0.21944632749E+00  0.82537172808E+01  0.17663948528E+03  0.17683234932E+03  0.00000000000E+00 0. -1.
         11    1    1    2    0    0  0.50671188345E+01 -0.10248134162E+02 -0.17272329999E+03  0.17310123716E+03  0.00000000000E+00 0.  1.
        -15    1    1    2    0    0  0.27201308539E+01  0.35054255997E+01 -0.51787320410E+01  0.70472771373E+01  0.17770000000E+01 0.  1.
         15    1    1    2    0    0 -0.75678033609E+01 -0.15110087182E+01  0.12625467415E+01  0.80191363831E+01  0.17770000000E+01 0. -1.
</event>
<event>
 6    1  0.1298204E-002  0.1852750E+03  0.7546771E-02  0.1066267E+00
        -11   -1    0    0    0    0  0.00000000000E+00  0.00000000000E+00  0.18250000000E+03  0.18250000000E+03  0.00000000000E+00 0.  1.
         11   -1    0    0    0    0 -0.00000000000E+00 -0.00000000000E+00 -0.18250000000E+03  0.18250000000E+03  0.00000000000E+00 0.  1.
        -11    1    1    2    0    0  0.76447235061E+01 -0.60983889073E+00  0.17956133925E+03  0.17972503513E+03  0.00000000000E+00 0.  1.
         11    1    1    2    0    0 -0.23857412968E+01  0.96652221047E+00 -0.16989047469E+03  0.16990997415E+03  0.00000000000E+00 0.  1.
        -15    1    1    2    0    0 -0.78477061898E+01 -0.20526619258E+01 -0.74883576584E+01  0.11181821982E+02  0.17770000000E+01 0.  1.
         15    1    1    2    0    0  0.25887239806E+01  0.16959786060E+01 -0.21825069034E+01  0.41831687347E+01  0.17770000000E+01 0.  1.
</event>
<event>
 6    1  0.1298204E-002  0.1903345E+03  0.7546771E-02  0.1062384E+00
        -11   -1    0    0    0    0  0.00000000000E+00  0.00000000000E+00  0.18250000000E+03  0.18250000000E+03  0.00000000000E+00 0.  1.
         11   -1    0    0    0    0 -0.00000000000E+00 -0.00000000000E+00 -0.18250000000E+03  0.18250000000E+03  0.00000000000E+00 0.  1.
        -11    1    1    2    0    0 -0.33950936976E+01 -0.28397290996E+00  0.17463230564E+03  0.17466553602E+03  0.00000000000E+00 0.  1.
         11    1    1    2    0    0  0.35003274452E+01  0.88042877653E+00 -0.17086663373E+03  0.17090475116E+03  0.00000000000E+00 0.  1.
        -15    1    1    2    0    0 -0.23894386650E+01 -0.44089743666E+01 -0.10144348934E+02  0.11454868676E+02  0.17770000000E+01 0. -1.
         15    1    1    2    0    0  0.22842049174E+01  0.38125185001E+01  0.63786770278E+01  0.79748441391E+01  0.17770000000E+01 0.  1.
</event>
<event>
 6    1  0.1298204E-002  0.1833501E+03  0.7546771E-02  0.1067780E+00
        -11   -1    0    0    0    0  0.00000000000E+00  0.00000000000E+00  0.18250000000E+03  0.18250000000E+03  0.00000000000E+00 0.  1.
         11   -1    0    0    0    0 -0.00000000000E+00 -0.00000000000E+00 -0.18250000000E+03  0.18250000000E+03  0.00000000000E+00 0.  1.
        -11    1    1    2    0    0  0.55552090028E+01 -0.61719235169E+01  0.18146003769E+03  0.18164993330E+03  0.00000000000E+00 0.  1.
         11    1    1    2    0    0  0.15795673179E+01  0.20755430177E+01 -0.13986696982E+02  0.14227810942E+02  0.00000000000E+00 0.  1.
        -15    1    1    2    0    0 -0.32935787900E+01  0.45583134551E+01 -0.10133476605E+02  0.11724801060E+02  0.17770000000E+01 0.  1.
         15    1    1    2    0    0 -0.38411975307E+01 -0.46193295584E+00 -0.15733986411E+03  0.15739745470E+03  0.17770000000E+01 0.  1.
</event>
<event>
 6    1  0.1298204E-002  0.1825917E+03  0.7546771E-02  0.1068382E+00
        -11   -1    0    0    0    0  0.00000000000E+00  0.00000000000E+00  0.18250000000E+03  0.18250000000E+03  0.00000000000E+00 0. -1.
         11   -1    0    0    0    0 -0.00000000000E+00 -0.00000000000E+00 -0.18250000000E+03  0.18250000000E+03  0.00000000000E+00 0. -1.
        -11    1    1    2    0    0  0.50163841943E+01  0.66965152585E+01  0.18221632360E+03  0.18240832222E+03  0.00000000000E+00 0. -1.
         11    1    1    2    0    0  0.90839361318E+00 -0.72274632398E+00 -0.35474943843E+02  0.35493931621E+02  0.00000000000E+00 0. -1.
        -15    1    1    2    0    0 -0.13649997194E+01 -0.27254208054E+01 -0.86178319876E+02  0.86250517033E+02  0.17770000000E+01 0. -1.
         15    1    1    2    0    0 -0.45597780880E+01 -0.32483481291E+01 -0.60563059881E+02  0.60847229131E+02  0.17770000000E+01 0.  1.
</event>
<event>
 6    1  0.1298204E-002  0.1861981E+03  0.7546771E-02  0.1065549E+00
        -11   -1    0    0    0    0  0.00000000000E+00  0.00000000000E+00  0.18250000000E+03  0.18250000000E+03  0.00000000000E+00 0. -1.
         11   -1    0    0    0    0 -0.00000000000E+00 -0.00000000000E+00 -0.18250000000E+03  0.18250000000E+03  0.00000000000E+00 0.  1.
        -11    1    1    2    0    0 -0.31257511205E-02 -0.29431612640E+01  0.17138992968E+03  0.17141519829E+03  0.00000000000E+00 0. -1.
         11    1    1    2    0    0  0.32960768138E+01 -0.27447695993E+01 -0.17875040473E+03  0.17880185982E+03  0.00000000000E+00 0.  1.
        -15    1    1    2    0    0  0.12424551422E+01  0.21039928302E+01  0.81426215477E+01  0.86850731303E+01  0.17770000000E+01 0.  1.
         15    1    1    2    0    0 -0.45354062049E+01  0.35839380331E+01 -0.78214649796E+00  0.60978687599E+01  0.17770000000E+01 0.  1.
</event>
<event>
 6    1  0.1298204E-002  0.1861932E+03  0.7546771E-02  0.1065552E+00
        -11   -1    0    0    0    0  0.00000000000E+00  0.00000000000E+00  0.18250000000E+03  0.18250000000E+03  0.00000000000E+00 0. -1.
         11   -1    0    0    0    0 -0.00000000000E+00 -0.00000000000E+00 -0.18250000000E+03  0.18250000000E+03  0.00000000000E+00 0. -1.
        -11    1    1    2    0    0  0.75242888032E+01 -0.79923178234E+01  0.17846955131E+03  0.17880680303E+03  0.00000000000E+00 0. -1.
         11    1    1    2    0    0 -0.16126877425E+01  0.24879192875E+01 -0.17106766081E+03  0.17109335195E+03  0.00000000000E+00 0. -1.
        -15    1    1    2    0    0 -0.37443711380E+01  0.81391100271E+01 -0.63098628766E+01  0.11101239830E+02  0.17770000000E+01 0. -1.
         15    1    1    2    0    0 -0.21672299227E+01 -0.26347114912E+01 -0.10920276153E+01  0.39986051933E+01  0.17770000000E+01 0.  1.
</event>
<event>
 6    1  0.1298204E-002  0.1840095E+03  0.7546771E-02  0.1067260E+00
        -11   -1    0    0    0    0  0.00000000000E+00  0.00000000000E+00  0.18250000000E+03  0.18250000000E+03  0.00000000000E+00 0.  1.
         11   -1    0    0    0    0 -0.00000000000E+00 -0.00000000000E+00 -0.18250000000E+03  0.18250000000E+03  0.00000000000E+00 0. -1.
        -11    1    1    2    0    0 -0.42714843250E+00 -0.30577862421E+01  0.18096417339E+03  0.18099050960E+03  0.00000000000E+00 0.  1.
         11    1    1    2    0    0  0.36225841310E+00  0.12382545408E+01 -0.49390904558E+02  0.49407752008E+02  0.00000000000E+00 0. -1.
        -15    1    1    2    0    0  0.10122730690E+01  0.19507324632E+01  0.18096161517E+00  0.28320540276E+01  0.17770000000E+01 0. -1.
         15    1    1    2    0    0 -0.94738304955E+00 -0.13120076197E+00 -0.13175423045E+03  0.13176968437E+03  0.17770000000E+01 0. -1.
</event>
<event>
 6    1  0.1298204E-002  0.1827016E+03  0.7546771E-02  0.1068294E+00
        -11   -1    0    0    0    0  0.00000000000E+00  0.00000000000E+00  0.18250000000E+03  0.18250000000E+03  0.00000000000E+00 0. -1.
         11   -1    0    0    0    0 -0.00000000000E+00 -0.00000000000E+00 -0.18250000000E+03  0.18250000000E+03  0.00000000000E+00 0. -1.
        -11    1    1    2    0    0  0.16949754782E+01  0.15782254710E+01  0.14564634413E+03  0.14566475653E+03  0.00000000000E+00 0. -1.
         11    1    1    2    0    0 -0.27088935386E+01  0.17942407247E+01 -0.18226939825E+03  0.18229835694E+03  0.00000000000E+00 0. -1.
        -15    1    1    2    0    0 -0.69998399075E-01 -0.27101301256E+01  0.25119492027E+02  0.25327777513E+02  0.17770000000E+01 0. -1.
         15    1    1    2    0    0  0.10839164594E+01 -0.66233607016E+00  0.11503562098E+02  0.11709109015E+02  0.17770000000E+01 0.  1.
</event>
<event>
 6    1  0.1298204E-002  0.1720933E+03  0.7546771E-02  0.1077054E+00
        -11   -1    0    0    0    0  0.00000000000E+00  0.00000000000E+00  0.18250000000E+03  0.18250000000E+03  0.00000000000E+00 0.  1.
         11   -1    0    0    0    0 -0.00000000000E+00 -0.00000000000E+00 -0.18250000000E+03  0.18250000000E+03  0.00000000000E+00 0.  1.
        -11    1    1    2    0    0 -0.59961479563E+01 -0.70532118672E+01  0.17341717357E+03  0.17366409438E+03  0.00000000000E+00 0.  1.
         11    1    1    2    0    0  0.21511175632E+00 -0.33485533410E+01 -0.17070596790E+03  0.17073894271E+03  0.00000000000E+00 0.  1.
        -15    1    1    2    0    0  0.39033679074E+01  0.11685432209E+01  0.61182582267E+01  0.75625780662E+01  0.17770000000E+01 0. -1.
         15    1    1    2    0    0  0.18776682926E+01  0.92332219873E+01 -0.88294638991E+01  0.13034384843E+02  0.17770000000E+01 0.  1.
</event>
<event>
 6    1  0.1298204E-002  0.1834327E+03  0.7546771E-02  0.1067715E+00
        -11   -1    0    0    0    0  0.00000000000E+00  0.00000000000E+00  0.18250000000E+03  0.18250000000E+03  0.00000000000E+00 0.  1.
         11   -1    0    0    0    0 -0.00000000000E+00 -0.00000000000E+00 -0.18250000000E+03  0.18250000000E+03  0.00000000000E+00 0.  1.
        -11    1    1    2    0    0 -0.19601641073E+01 -0.76037040390E+00  0.11452310192E+03  0.11454239948E+03  0.00000000000E+00 0.  1.
         11    1    1    2    0    0 -0.64670087545E+00 -0.32388753007E+01 -0.18153723008E+03  0.18156727250E+03  0.00000000000E+00 0.  1.
        -15    1    1    2    0    0 -0.24990779157E+01  0.11619821441E+01  0.25930907029E+01  0.41806029859E+01  0.17770000000E+01 0. -1.
         15    1    1    2    0    0  0.51059428984E+01  0.28372635604E+01  0.64421037461E+02  0.64709725034E+02  0.17770000000E+01 0.  1.
</event>
<event>
 6    1  0.1298204E-002  0.1835435E+03  0.7546771E-02  0.1067627E+00
        -11   -1    0    0    0    0  0.00000000000E+00  0.00000000000E+00  0.18250000000E+03  0.18250000000E+03  0.00000000000E+00 0.  1.
         11   -1    0    0    0    0 -0.00000000000E+00 -0.00000000000E+00 -0.18250000000E+03  0.18250000000E+03  0.00000000000E+00 0.  1.
        -11    1    1    2    0    0  0.23559221324E+01  0.22637669440E+01  0.11405476642E+03  0.11410155456E+03  0.00000000000E+00 0.  1.
         11    1    1    2    0    0  0.37970446735E+01  0.40393234577E+00 -0.18141627356E+03  0.18145645489E+03  0.00000000000E+00 0.  1.
        -15    1    1    2    0    0 -0.19383418746E+01 -0.62483764259E+01  0.12047939525E+02  0.13824252348E+02  0.17770000000E+01 0.  1.
         15    1    1    2    0    0 -0.42146249313E+01  0.35806771361E+01  0.55313567613E+02  0.55617738206E+02  0.17770000000E+01 0. -1.
</event>
<event>
 6    1  0.1298204E-002  0.1831018E+03  0.7546771E-02  0.1067977E+00
        -11   -1    0    0    0    0  0.00000000000E+00  0.00000000000E+00  0.18250000000E+03  0.18250000000E+03  0.00000000000E+00 0. -1.
         11   -1    0    0    0    0 -0.00000000000E+00 -0.00000000000E+00 -0.18250000000E+03  0.18250000000E+03  0.00000000000E+00 0.  1.
        -11    1    1    2    0    0  0.22291197670E+01 -0.40709586980E+00  0.84331770232E+02  0.84362208200E+02  0.00000000000E+00 0. -1.
         11    1    1    2    0    0 -0.27897189527E+01  0.18272106653E+01 -0.18186763419E+03  0.18189820669E+03  0.00000000000E+00 0.  1.
        -15    1    1    2    0    0  0.25015293255E+01 -0.38502977403E+01  0.10157427680E+02  0.11287759199E+02  0.17770000000E+01 0. -1.
         15    1    1    2    0    0 -0.19409301397E+01  0.24301829449E+01  0.87378436282E+02  0.87451825910E+02  0.17770000000E+01 0. -1.
</event>
<event>
 6    1  0.1298204E-002  0.1830954E+03  0.7546771E-02  0.1067982E+00
        -11   -1    0    0    0    0  0.00000000000E+00  0.00000000000E+00  0.18250000000E+03  0.18250000000E+03  0.00000000000E+00 0. -1.
         11   -1    0    0    0    0 -0.00000000000E+00 -0.00000000000E+00 -0.18250000000E+03  0.18250000000E+03  0.00000000000E+00 0. -1.
        -11    1    1    2    0    0  0.22188756215E+01 -0.63368915417E+00  0.14904366218E+03  0.14906152490E+03  0.00000000000E+00 0. -1.
         11    1    1    2    0    0 -0.10800404856E+01 -0.24108781015E+01 -0.18188543970E+03  0.18190462334E+03  0.00000000000E+00 0. -1.
        -15    1    1    2    0    0  0.11098379401E+01  0.12643082405E+00  0.19259806480E+01  0.28486585375E+01  0.17770000000E+01 0.  1.
         15    1    1    2    0    0 -0.22486730760E+01  0.29181364316E+01  0.30915796870E+02  0.31185193216E+02  0.17770000000E+01 0. -1.
</event>
<event>
 6    1  0.1298204E-002  0.1826843E+03  0.7546771E-02  0.1068308E+00
        -11   -1    0    0    0    0  0.00000000000E+00  0.00000000000E+00  0.18250000000E+03  0.18250000000E+03  0.00000000000E+00 0. -1.
         11   -1    0    0    0    0 -0.00000000000E+00 -0.00000000000E+00 -0.18250000000E+03  0.18250000000E+03  0.00000000000E+00 0.  1.
        -11    1    1    2    0    0  0.36393529310E+01 -0.24845766194E+01  0.18226239768E+03  0.18231565928E+03  0.00000000000E+00 0. -1.
         11    1    1    2    0    0 -0.20017827112E+01 -0.30318909003E+00 -0.10692857120E+03  0.10694773676E+03  0.00000000000E+00 0.  1.
        -15    1    1    2    0    0 -0.68180441509E+00 -0.11225979620E+01 -0.48002375061E+02  0.48053208259E+02  0.17770000000E+01 0.  1.
         15    1    1    2    0    0 -0.95576580463E+00  0.39103636714E+01 -0.27331451415E+02  0.27683395706E+02  0.17770000000E+01 0. -1.
</event>
<event>
 6    1  0.1298204E-002  0.1989307E+03  0.7546771E-02  0.1056080E+00
        -11   -1    0    0    0    0  0.00000000000E+00  0.00000000000E+00  0.18250000000E+03  0.18250000000E+03  0.00000000000E+00 0.  1.
         11   -1    0    0    0    0 -0.00000000000E+00 -0.00000000000E+00 -0.18250000000E+03  0.18250000000E+03  0.00000000000E+00 0.  1.
        -11    1    1    2    0    0 -0.14236392575E+02 -0.85710566575E+01  0.76556808955E+02  0.78339535888E+02  0.00000000000E+00 0.  1.
         11    1    1    2    0    0  0.13714263146E+02  0.18149155142E+02 -0.16450390605E+03  0.16606928660E+03  0.00000000000E+00 0.  1.
        -15    1    1    2    0    0  0.69997240284E+01 -0.23524959222E+02 -0.60391114308E+01  0.25338674763E+02  0.17770000000E+01 0.  1.
         15    1    1    2    0    0 -0.64775945991E+01  0.13946860738E+02  0.93986208531E+02  0.95252502745E+02  0.17770000000E+01 0. -1.
</event>
<event>
 6    1  0.1298204E-002  0.2113185E+03  0.7546771E-02  0.1047580E+00
        -11   -1    0    0    0    0  0.00000000000E+00  0.00000000000E+00  0.18250000000E+03  0.18250000000E+03  0.00000000000E+00 0. -1.
         11   -1    0    0    0    0 -0.00000000000E+00 -0.00000000000E+00 -0.18250000000E+03  0.18250000000E+03  0.00000000000E+00 0. -1.
        -11    1    1    2    0    0 -0.13806097874E+01  0.37284831252E+02  0.14908362533E+03  0.15368146299E+03  0.00000000000E+00 0. -1.
         11    1    1    2    0    0  0.86784032486E+01 -0.34194318275E+02 -0.13443542898E+03  0.13898723197E+03  0.00000000000E+00 0. -1.
        -15    1    1    2    0    0 -0.24397228751E+02  0.83123229729E+01 -0.34900320547E+02  0.43422454873E+02  0.17770000000E+01 0.  1.
         15    1    1    2    0    0  0.17099435289E+02 -0.11402835950E+02  0.20252124197E+02  0.28908850174E+02  0.17770000000E+01 0. -1.
</event>
<event>
 6    1  0.1298204E-002  0.1831110E+03  0.7546771E-02  0.1067969E+00
        -11   -1    0    0    0    0  0.00000000000E+00  0.00000000000E+00  0.18250000000E+03  0.18250000000E+03  0.00000000000E+00 0.  1.
         11   -1    0    0    0    0 -0.00000000000E+00 -0.00000000000E+00 -0.18250000000E+03  0.18250000000E+03  0.00000000000E+00 0.  1.
        -11    1    1    2    0    0 -0.38054599844E+01 -0.16707860052E+01  0.15395749032E+03  0.15401357692E+03  0.00000000000E+00 0.  1.
         11    1    1    2    0    0 -0.30898508695E+01  0.22160218376E+01 -0.18184922830E+03  0.18188897648E+03  0.00000000000E+00 0.  1.
        -15    1    1    2    0    0  0.44326206281E+01  0.42554959804E-01  0.12154181402E+02  0.13058782145E+02  0.17770000000E+01 0. -1.
         15    1    1    2    0    0  0.24626902258E+01 -0.58779079220E+00  0.15737556582E+02  0.16038664450E+02  0.17770000000E+01 0.  1.
</event>
<event>
 6    1  0.1298204E-002  0.1832295E+03  0.7546771E-02  0.1067876E+00
        -11   -1    0    0    0    0  0.00000000000E+00  0.00000000000E+00  0.18250000000E+03  0.18250000000E+03  0.00000000000E+00 0. -1.
         11   -1    0    0    0    0 -0.00000000000E+00 -0.00000000000E+00 -0.18250000000E+03  0.18250000000E+03  0.00000000000E+00 0. -1.
        -11    1    1    2    0    0 -0.15995680905E+01 -0.13703987811E+01  0.14592421410E+03  0.14593941507E+03  0.00000000000E+00 0. -1.
         11    1    1    2    0    0 -0.34373279499E+01  0.13883561441E+01 -0.18173268092E+03  0.18177048735E+03  0.00000000000E+00 0. -1.
        -15    1    1    2    0    0 -0.16178946823E+01  0.20742681917E+01  0.12386046120E+02  0.12786400558E+02  0.17770000000E+01 0.  1.
         15    1    1    2    0    0  0.66547907226E+01 -0.20922255547E+01  0.23422420705E+02  0.24503697027E+02  0.17770000000E+01 0. -1.
</event>
<event>
 6    1  0.1298204E-002  0.2148018E+03  0.7546771E-02  0.1045304E+00
        -11   -1    0    0    0    0  0.00000000000E+00  0.00000000000E+00  0.18250000000E+03  0.18250000000E+03  0.00000000000E+00 0. -1.
         11   -1    0    0    0    0 -0.00000000000E+00 -0.00000000000E+00 -0.18250000000E+03  0.18250000000E+03  0.00000000000E+00 0.  1.
        -11    1    1    2    0    0 -0.14423837090E+02 -0.48721013168E+00  0.14950323254E+03  0.15019820569E+03  0.00000000000E+00 0. -1.
         11    1    1    2    0    0  0.19740374038E+01  0.71297576322E+00 -0.14098085349E+03  0.14099647587E+03  0.00000000000E+00 0.  1.
        -15    1    1    2    0    0  0.16993099791E+02 -0.66259071094E+01  0.29615981091E+02  0.34827175460E+02  0.17770000000E+01 0.  1.
         15    1    1    2    0    0 -0.45433001051E+01  0.64001414778E+01 -0.38138360145E+02  0.38978142982E+02  0.17770000000E+01 0. -1.
</event>
<event>
 6    1  0.1298204E-002  0.1884130E+03  0.7546771E-02  0.1063843E+00
        -11   -1    0    0    0    0  0.00000000000E+00  0.00000000000E+00  0.18250000000E+03  0.18250000000E+03  0.00000000000E+00 0. -1.
         11   -1    0    0    0    0 -0.00000000000E+00 -0.00000000000E+00 -0.18250000000E+03  0.18250000000E+03  0.00000000000E+00 0.  1.
        -11    1    1    2    0    0 -0.68908095687E+00  0.31427589075E+01  0.15661676258E+03  0.15664980717E+03  0.00000000000E+00 0. -1.
         11    1    1    2    0    0  0.10222095205E+01  0.27892553389E+01 -0.17656200259E+03  0.17658699164E+03  0.00000000000E+00 0.  1.
        -15    1    1    2    0    0 -0.57002349731E+01 -0.18119765443E+01 -0.35979230652E+01  0.72026881877E+01  0.17770000000E+01 0.  1.
         15    1    1    2    0    0  0.53671064095E+01 -0.41200377021E+01  0.23543163081E+02  0.24560512998E+02  0.17770000000E+01 0. -1.
</event>
<event>
 6    1  0.1298204E-002  0.1826664E+03  0.7546771E-02  0.1068322E+00
        -11   -1    0    0    0    0  0.00000000000E+00  0.00000000000E+00  0.18250000000E+03  0.18250000000E+03  0.00000000000E+00 0. -1.
         11   -1    0    0    0    0 -0.00000000000E+00 -0.00000000000E+00 -0.18250000000E+03  0.18250000000E+03  0.00000000000E+00 0.  1.
        -11    1    1    2    0    0 -0.76834898492E+00 -0.98457593928E+00  0.70582736860E+02  0.70593785085E+02  0.00000000000E+00 0. -1.
         11    1    1    2    0    0 -0.25034686467E+01 -0.29600254368E+01 -0.18229235197E+03  0.18233356985E+03  0.00000000000E+00 0.  1.
        -15    1    1    2    0    0  0.11566077776E+00  0.13749903376E+01  0.93549335474E+01  0.96216675540E+01  0.17770000000E+01 0.  1.
         15    1    1    2    0    0  0.31561568539E+01  0.25696110385E+01  0.10235468156E+03  0.10245097752E+03  0.17770000000E+01 0. -1.
</event>
<event>
 6    1  0.1298204E-002  0.1827171E+03  0.7546771E-02  0.1068282E+00
        -11   -1    0    0    0    0  0.00000000000E+00  0.00000000000E+00  0.18250000000E+03  0.18250000000E+03  0.00000000000E+00 0. -1.
         11   -1    0    0    0    0 -0.00000000000E+00 -0.00000000000E+00 -0.18250000000E+03  0.18250000000E+03  0.00000000000E+00 0. -1.
        -11    1    1    2    0    0  0.47826167030E-01 -0.72629374468E+01  0.18213810901E+03  0.18228286618E+03  0.00000000000E+00 0. -1.
         11    1    1    2    0    0  0.27684646725E+01  0.74751417817E+00 -0.87154934197E+02  0.87202097045E+02  0.00000000000E+00 0. -1.
        -15    1    1    2    0    0  0.65095246356E+00 -0.40684254761E+00 -0.27016679834E+02  0.27085936909E+02  0.17770000000E+01 0. -1.
         15    1    1    2    0    0 -0.34672433031E+01  0.69222658163E+01 -0.67966494979E+02  0.68429099869E+02  0.17770000000E+01 0. -1.
</event>
<event>
 6    1  0.1298204E-002  0.1904952E+03  0.7546771E-02  0.1062263E+00
        -11   -1    0    0    0    0  0.00000000000E+00  0.00000000000E+00  0.18250000000E+03  0.18250000000E+03  0.00000000000E+00 0. -1.
         11   -1    0    0    0    0 -0.00000000000E+00 -0.00000000000E+00 -0.18250000000E+03  0.18250000000E+03  0.00000000000E+00 0. -1.
        -11    1    1    2    0    0 -0.19554135277E+01  0.25020823287E+01  0.16781314534E+03  0.16784318815E+03  0.00000000000E+00 0. -1.
         11    1    1    2    0    0  0.22388138201E+00 -0.39497022770E+01 -0.17445998464E+03  0.17450483235E+03  0.00000000000E+00 0. -1.
        -15    1    1    2    0    0  0.47639462418E+01 -0.28750272361E+01  0.12969986232E+02  0.14224599722E+02  0.17770000000E+01 0.  1.
         15    1    1    2    0    0 -0.30324140961E+01  0.43226471843E+01 -0.63231469288E+01  0.84273797834E+01  0.17770000000E+01 0. -1.
</event>
<event>
 6    1  0.1298204E-002  0.1865616E+03  0.7546771E-02  0.1065267E+00
        -11   -1    0    0    0    0  0.00000000000E+00  0.00000000000E+00  0.18250000000E+03  0.18250000000E+03  0.00000000000E+00 0.  1.
         11   -1    0    0    0    0 -0.00000000000E+00 -0.00000000000E+00 -0.18250000000E+03  0.18250000000E+03  0.00000000000E+00 0. -1.
        -11    1    1    2    0    0  0.35396715464E+01  0.11986692662E+01  0.17839928247E+03  0.17843842095E+03  0.00000000000E+00 0.  1.
         11    1    1    2    0    0  0.64919964146E+01  0.31119931837E+01 -0.14510068496E+03  0.14527917708E+03  0.00000000000E+00 0. -1.
        -15    1    1    2    0    0  0.21687424837E+01  0.70707681114E+01 -0.11086652065E+02  0.13445102776E+02  0.17770000000E+01 0.  1.
         15    1    1    2    0    0 -0.12200410445E+02 -0.11381430561E+02 -0.22211945454E+02  0.27837299196E+02  0.17770000000E+01 0. -1.
</event>
<event>
 6    1  0.1298204E-002  0.1512164E+03  0.7546771E-02  0.1096503E+00
        -11   -1    0    0    0    0  0.00000000000E+00  0.00000000000E+00  0.18250000000E+03  0.18250000000E+03  0.00000000000E+00 0. -1.
         11   -1    0    0    0    0 -0.00000000000E+00 -0.00000000000E+00 -0.18250000000E+03  0.18250000000E+03  0.00000000000E+00 0.  1.
        -11    1    1    2    0    0  0.97272702366E+00  0.15499762746E+02  0.24428212264E+02  0.28946958346E+02  0.00000000000E+00 0. -1.
         11    1    1    2    0    0  0.15492916902E+02  0.91710241616E+01 -0.16063143984E+03  0.16163724083E+03  0.00000000000E+00 0.  1.
        -15    1    1    2    0    0  0.91333808323E+01 -0.63577351528E+01  0.14192831396E+03  0.14237501001E+03  0.17770000000E+01 0. -1.
         15    1    1    2    0    0 -0.25599024758E+02 -0.18313051755E+02 -0.57250863852E+01  0.32040790818E+02  0.17770000000E+01 0.  1.
</event>
<event>
 6    1  0.1298204E-002  0.1841964E+03  0.7546771E-02  0.1067112E+00
        -11   -1    0    0    0    0  0.00000000000E+00  0.00000000000E+00  0.18250000000E+03  0.18250000000E+03  0.00000000000E+00 0.  1.
         11   -1    0    0    0    0 -0.00000000000E+00 -0.00000000000E+00 -0.18250000000E+03  0.18250000000E+03  0.00000000000E+00 0.  1.
        -11    1    1    2    0    0 -0.18338162052E+01  0.51734430225E+01  0.18072031107E+03  0.18080364550E+03  0.00000000000E+00 0.  1.
         11    1    1    2    0    0 -0.24951810536E+01 -0.48642778714E-01 -0.14966872828E+03  0.14968953377E+03  0.00000000000E+00 0.  1.
        -15    1    1    2    0    0  0.32509952282E+01 -0.38178885002E+01 -0.31555208546E+02  0.32000533714E+02  0.17770000000E+01 0.  1.
         15    1    1    2    0    0  0.10780020306E+01 -0.13069117436E+01  0.50362576475E+00  0.25062870136E+01  0.17770000000E+01 0. -1.
</event>
<event>
 6    1  0.1298204E-002  0.1826951E+03  0.7546771E-02  0.1068300E+00
        -11   -1    0    0    0    0  0.00000000000E+00  0.00000000000E+00  0.18250000000E+03  0.18250000000E+03  0.00000000000E+00 0.  1.
         11   -1    0    0    0    0 -0.00000000000E+00 -0.00000000000E+00 -0.18250000000E+03  0.18250000000E+03  0.00000000000E+00 0.  1.
        -11    1    1    2    0    0 -0.14898567421E+00  0.60579014019E+01  0.18220411128E+03  0.18230485055E+03  0.00000000000E+00 0.  1.
         11    1    1    2    0    0 -0.31627210092E+01  0.55266181684E+00 -0.31161160121E+02  0.31326125508E+02  0.00000000000E+00 0.  1.
        -15    1    1    2    0    0  0.19484437161E+01 -0.41066076427E+01 -0.43379436689E+02  0.43653108889E+02  0.17770000000E+01 0.  1.
         15    1    1    2    0    0  0.13632629673E+01 -0.25039555761E+01 -0.10766351447E+03  0.10771591506E+03  0.17770000000E+01 0. -1.
</event>
<event>
 6    1  0.1298204E-002  0.1731297E+03  0.7546771E-02  0.1076168E+00
        -11   -1    0    0    0    0  0.00000000000E+00  0.00000000000E+00  0.18250000000E+03  0.18250000000E+03  0.00000000000E+00 0. -1.
         11   -1    0    0    0    0 -0.00000000000E+00 -0.00000000000E+00 -0.18250000000E+03  0.18250000000E+03  0.00000000000E+00 0. -1.
        -11    1    1    2    0    0  0.16367604766E+01  0.23276327553E+01  0.17626803664E+03  0.17629100261E+03  0.00000000000E+00 0. -1.
         11    1    1    2    0    0  0.71047698965E+01 -0.91485586368E+01 -0.16981134917E+03  0.17020595814E+03  0.00000000000E+00 0. -1.
        -15    1    1    2    0    0 -0.43533368962E+01  0.35700949314E+01 -0.10102120745E+02  0.11700756065E+02  0.17770000000E+01 0. -1.
         15    1    1    2    0    0 -0.43881934769E+01  0.32508309500E+01  0.36454332718E+01  0.68022831899E+01  0.17770000000E+01 0.  1.
</event>
<event>
 6    1  0.1298204E-002  0.1996745E+03  0.7546771E-02  0.1055550E+00
        -11   -1    0    0    0    0  0.00000000000E+00  0.00000000000E+00  0.18250000000E+03  0.18250000000E+03  0.00000000000E+00 0. -1.
         11   -1    0    0    0    0 -0.00000000000E+00 -0.00000000000E+00 -0.18250000000E+03  0.18250000000E+03  0.00000000000E+00 0. -1.
        -11    1    1    2    0    0 -0.41547881548E+01  0.57857346822E+01  0.16517194563E+03  0.16532546269E+03  0.00000000000E+00 0. -1.
         11    1    1    2    0    0  0.58115317777E+01 -0.25770213251E+00 -0.15582496482E+03  0.15593351139E+03  0.00000000000E+00 0. -1.
        -15    1    1    2    0    0  0.95221716866E+00 -0.11217950124E+02 -0.24625152185E+02  0.27134940053E+02  0.17770000000E+01 0.  1.
         15    1    1    2    0    0 -0.26089607916E+01  0.56899175739E+01  0.15278171373E+02  0.16606085870E+02  0.17770000000E+01 0. -1.
</event>
<event>
 6    1  0.1298204E-002  0.1831872E+03  0.7546771E-02  0.1067909E+00
        -11   -1    0    0    0    0  0.00000000000E+00  0.00000000000E+00  0.18250000000E+03  0.18250000000E+03  0.00000000000E+00 0.  1.
         11   -1    0    0    0    0 -0.00000000000E+00 -0.00000000000E+00 -0.18250000000E+03  0.18250000000E+03  0.00000000000E+00 0.  1.
        -11    1    1    2    0    0  0.31205133733E+01  0.56689193082E+00  0.18178515612E+03  0.18181282121E+03  0.00000000000E+00 0.  1.
         11    1    1    2    0    0  0.14954021473E+01 -0.17304321941E+01 -0.16292236010E+03  0.16293841181E+03  0.00000000000E+00 0.  1.
        -15    1    1    2    0    0  0.20660050487E-01  0.97054100477E+00 -0.87475669111E+01  0.89788658829E+01  0.17770000000E+01 0. -1.
         15    1    1    2    0    0 -0.46365755711E+01  0.19299925850E+00 -0.10115229109E+02  0.11269901094E+02  0.17770000000E+01 0. -1.
</event>
<event>
 6    1  0.1298204E-002  0.1840111E+03  0.7546771E-02  0.1067258E+00
        -11   -1    0    0    0    0  0.00000000000E+00  0.00000000000E+00  0.18250000000E+03  0.18250000000E+03  0.00000000000E+00 0.  1.
         11   -1    0    0    0    0 -0.00000000000E+00 -0.00000000000E+00 -0.18250000000E+03  0.18250000000E+03  0.00000000000E+00 0. -1.
        -11    1    1    2    0    0 -0.29762696070E+01  0.30668933729E+00  0.18096419869E+03  0.18098893183E+03  0.00000000000E+00 0.  1.
         11    1    1    2    0    0  0.40504195340E+01 -0.43643725125E+01 -0.14666324561E+03  0.14678406336E+03  0.00000000000E+00 0. -1.
        -15    1    1    2    0    0 -0.47066023806E+01  0.45611329084E+01 -0.31639066466E+02  0.32359609009E+02  0.17770000000E+01 0.  1.
         15    1    1    2    0    0  0.36324524535E+01 -0.50344973321E+00 -0.26618866170E+01  0.48673957947E+01  0.17770000000E+01 0.  1.
</event>
<event>
 6    1  0.1298204E-002  0.1872448E+03  0.7546771E-02  0.1064739E+00
        -11   -1    0    0    0    0  0.00000000000E+00  0.00000000000E+00  0.18250000000E+03  0.18250000000E+03  0.00000000000E+00 0.  1.
         11   -1    0    0    0    0 -0.00000000000E+00 -0.00000000000E+00 -0.18250000000E+03  0.18250000000E+03  0.00000000000E+00 0.  1.
        -11    1    1    2    0    0  0.26837855295E+01  0.35058154760E+01  0.17770037606E+03  0.17775521680E+03  0.00000000000E+00 0.  1.
         11    1    1    2    0    0 -0.47710676120E+01 -0.34512687598E+00 -0.17264332705E+03  0.17270958448E+03  0.00000000000E+00 0.  1.
        -15    1    1    2    0    0  0.68360892944E+00 -0.78919064402E+01 -0.16608647888E+01  0.82864774950E+01  0.17770000000E+01 0.  1.
         15    1    1    2    0    0  0.14036731530E+01  0.47312178402E+01 -0.33961842306E+01  0.62487212211E+01  0.17770000000E+01 0. -1.
</event>
<event>
 6    1  0.1298204E-002  0.1952744E+03  0.7546771E-02  0.1058718E+00
        -11   -1    0    0    0    0  0.00000000000E+00  0.00000000000E+00  0.18250000000E+03  0.18250000000E+03  0.00000000000E+00 0. -1.
         11   -1    0    0    0    0 -0.00000000000E+00 -0.00000000000E+00 -0.18250000000E+03  0.18250000000E+03  0.00000000000E+00 0.  1.
        -11    1    1    2    0    0  0.78811026477E+00  0.10702467668E+02  0.16938596911E+03  0.16972557398E+03  0.00000000000E+00 0. -1.
         11    1    1    2    0    0 -0.19999898377E+01  0.24858574183E+01 -0.10368498520E+03  0.10373406192E+03  0.00000000000E+00 0.  1.
        -15    1    1    2    0    0  0.46588083644E+01 -0.61452257386E+01 -0.77147465931E+02  0.77552288962E+02  0.17770000000E+01 0.  1.
         15    1    1    2    0    0 -0.34469287915E+01 -0.70430993476E+01  0.11446482021E+02  0.13988075141E+02  0.17770000000E+01 0. -1.
</event>
<event>
 6    1  0.1298204E-002  0.1847688E+03  0.7546771E-02  0.1066663E+00
        -11   -1    0    0    0    0  0.00000000000E+00  0.00000000000E+00  0.18250000000E+03  0.18250000000E+03  0.00000000000E+00 0. -1.
         11   -1    0    0    0    0 -0.00000000000E+00 -0.00000000000E+00 -0.18250000000E+03  0.18250000000E+03  0.00000000000E+00 0.  1.
        -11    1    1    2    0    0  0.78419066185E+00  0.35405409388E+01  0.17875567737E+03  0.17879245671E+03  0.00000000000E+00 0. -1.
         11    1    1    2    0    0 -0.16578047094E+01 -0.46726967887E+01 -0.18016295706E+03  0.18023116686E+03  0.00000000000E+00 0.  1.
        -15    1    1    2    0    0 -0.94405854062E+00  0.19795973636E+01  0.16770151042E+01  0.32833155362E+01  0.17770000000E+01 0.  1.
         15    1    1    2    0    0  0.18176725882E+01 -0.84744151373E+00 -0.26973541275E+00  0.26930608886E+01  0.17770000000E+01 0. -1.
</event>
<event>
 6    1  0.1298204E-002  0.1826329E+03  0.7546771E-02  0.1068349E+00
        -11   -1    0    0    0    0  0.00000000000E+00  0.00000000000E+00  0.18250000000E+03  0.18250000000E+03  0.00000000000E+00 0.  1.
         11   -1    0    0    0    0 -0.00000000000E+00 -0.00000000000E+00 -0.18250000000E+03  0.18250000000E+03  0.00000000000E+00 0. -1.
        -11    1    1    2    0    0 -0.26079586284E+01 -0.10680681800E+00  0.18234841553E+03  0.18236709545E+03  0.00000000000E+00 0.  1.
         11    1    1    2    0    0  0.99873818984E+00  0.22752347364E+01 -0.10662148496E+03  0.10665043472E+03  0.00000000000E+00 0. -1.
        -15    1    1    2    0    0  0.10105334104E+01 -0.22913510436E+01 -0.21003131639E+02  0.21226415973E+02  0.17770000000E+01 0.  1.
         15    1    1    2    0    0  0.59868702817E+00  0.12292312527E+00 -0.54723798927E+02  0.54756053859E+02  0.17770000000E+01 0. -1.
</event>
<event>
 6    1  0.1298204E-002  0.1841538E+03  0.7546771E-02  0.1067146E+00
        -11   -1    0    0    0    0  0.00000000000E+00  0.00000000000E+00  0.18250000000E+03  0.18250000000E+03  0.00000000000E+00 0. -1.
         11   -1    0    0    0    0 -0.00000000000E+00 -0.00000000000E+00 -0.18250000000E+03  0.18250000000E+03  0.00000000000E+00 0.  1.
        -11    1    1    2    0    0  0.44230993710E+01  0.67342669744E+01  0.14418471262E+03  0.14440964481E+03  0.00000000000E+00 0. -1.
         11    1    1    2    0    0  0.95248621352E+00 -0.45961741158E+01 -0.18078532030E+03  0.18084624431E+03  0.00000000000E+00 0.  1.
        -15    1    1    2    0    0  0.59352691795E+00 -0.64679888355E+01  0.97983167694E+01  0.11889150276E+02  0.17770000000E+01 0.  1.
         15    1    1    2    0    0 -0.59691125024E+01  0.43298959769E+01  0.26802290906E+02  0.27854960601E+02  0.17770000000E+01 0.  1.
</event>
<event>
 6    1  0.1298204E-002  0.1840818E+03  0.7546771E-02  0.1067203E+00
        -11   -1    0    0    0    0  0.00000000000E+00  0.00000000000E+00  0.18250000000E+03  0.18250000000E+03  0.00000000000E+00 0.  1.
         11   -1    0    0    0    0 -0.00000000000E+00 -0.00000000000E+00 -0.18250000000E+03  0.18250000000E+03  0.00000000000E+00 0. -1.
        -11    1    1    2    0    0  0.39698715207E+01 -0.33678959750E+01  0.15847384010E+03  0.15855932832E+03  0.00000000000E+00 0.  1.
         11    1    1    2    0    0  0.89020857030E+00 -0.24677412141E+01 -0.18089914939E+03  0.18091817064E+03  0.00000000000E+00 0. -1.
        -15    1    1    2    0    0 -0.57065007642E+01  0.28107194985E+01  0.67756310897E+01  0.94620928307E+01  0.17770000000E+01 0.  1.
         15    1    1    2    0    0  0.84642067324E+00  0.30249176906E+01  0.15649678203E+02  0.16060408209E+02  0.17770000000E+01 0. -1.
</event>
<event>
 6    1  0.1298204E-002  0.1839674E+03  0.7546771E-02  0.1067293E+00
        -11   -1    0    0    0    0  0.00000000000E+00  0.00000000000E+00  0.18250000000E+03  0.18250000000E+03  0.00000000000E+00 0.  1.
         11   -1    0    0    0    0 -0.00000000000E+00 -0.00000000000E+00 -0.18250000000E+03  0.18250000000E+03  0.00000000000E+00 0. -1.
        -11    1    1    2    0    0 -0.40143279147E+01  0.25568299402E+01  0.13795401465E+03  0.13803609081E+03  0.00000000000E+00 0.  1.
         11    1    1    2    0    0  0.67016332437E+00 -0.25782635959E+01 -0.18101299181E+03  0.18103259311E+03  0.00000000000E+00 0. -1.
        -15    1    1    2    0    0  0.26701924280E+01  0.22166647368E+01  0.42842603256E+02  0.43019645663E+02  0.17770000000E+01 0.  1.
         15    1    1    2    0    0  0.67397216236E+00 -0.21952310811E+01  0.21637390375E+00  0.29116704212E+01  0.17770000000E+01 0.  1.
</event>
<event>
 6    1  0.1298204E-002  0.1826687E+03  0.7546771E-02  0.1068321E+00
        -11   -1    0    0    0    0  0.00000000000E+00  0.00000000000E+00  0.18250000000E+03  0.18250000000E+03  0.00000000000E+00 0. -1.
         11   -1    0    0    0    0 -0.00000000000E+00 -0.00000000000E+00 -0.18250000000E+03  0.18250000000E+03  0.00000000000E+00 0.  1.
        -11    1    1    2    0    0  0.88389462925E+00  0.11997546841E+01  0.10063014451E+03  0.10064117778E+03  0.00000000000E+00 0. -1.
         11    1    1    2    0    0  0.33006136682E+01  0.16729454348E+00 -0.18230131306E+03  0.18233126660E+03  0.00000000000E+00 0.  1.
        -15    1    1    2    0    0 -0.40015849207E+01 -0.26775781191E+01  0.66187233018E+02  0.66385914546E+02  0.17770000000E+01 0. -1.
         15    1    1    2    0    0 -0.18292337674E+00  0.13105288915E+01  0.15483935533E+02  0.15641641075E+02  0.17770000000E+01 0.  1.
</event>
<event>
 6    1  0.1298204E-002  0.1599771E+03  0.7546771E-02  0.1087946E+00
        -11   -1    0    0    0    0  0.00000000000E+00  0.00000000000E+00  0.18250000000E+03  0.18250000000E+03  0.00000000000E+00 0.  1.
         11   -1    0    0    0    0 -0.00000000000E+00 -0.00000000000E+00 -0.18250000000E+03  0.18250000000E+03  0.00000000000E+00 0.  1.
        -11    1    1    2    0    0 -0.22012937778E+01 -0.62297597432E+01  0.16227179749E+03  0.16240625561E+03  0.00000000000E+00 0.  1.
         11    1    1    2    0    0 -0.12970841844E+02  0.16638293531E+01 -0.15743430991E+03  0.15797649509E+03  0.00000000000E+00 0.  1.
        -15    1    1    2    0    0  0.19154967471E+02  0.18024610770E+02  0.57065405489E+01  0.26972610297E+02  0.17770000000E+01 0. -1.
         15    1    1    2    0    0 -0.39828318493E+01 -0.13458680379E+02 -0.10544028134E+02  0.17644638999E+02  0.17770000000E+01 0.  1.
</event>
<event>
 6    1  0.1298204E-002  0.1825984E+03  0.7546771E-02  0.1068377E+00
        -11   -1    0    0    0    0  0.00000000000E+00  0.00000000000E+00  0.18250000000E+03  0.18250000000E+03  0.00000000000E+00 0. -1.
         11   -1    0    0    0    0 -0.00000000000E+00 -0.00000000000E+00 -0.18250000000E+03  0.18250000000E+03  0.00000000000E+00 0.  1.
        -11    1    1    2    0    0 -0.27024426290E+01  0.53365788238E+01  0.18230348798E+03  0.18240160087E+03  0.00000000000E+00 0. -1.
         11    1    1    2    0    0  0.15924142629E+01 -0.45227297686E+00 -0.68974332764E+02  0.68994194787E+02  0.00000000000E+00 0.  1.
        -15    1    1    2    0    0  0.31197519377E+00  0.48990221035E+00 -0.16310751023E+02  0.16417541248E+02  0.17770000000E+01 0.  1.
         15    1    1    2    0    0  0.79805317228E+00 -0.53742080572E+01 -0.97018404196E+02  0.97186663092E+02  0.17770000000E+01 0.  1.
</event>
<event>
 6    1  0.1298204E-002  0.1826756E+03  0.7546771E-02  0.1068315E+00
        -11   -1    0    0    0    0  0.00000000000E+00  0.00000000000E+00  0.18250000000E+03  0.18250000000E+03  0.00000000000E+00 0. -1.
         11   -1    0    0    0    0 -0.00000000000E+00 -0.00000000000E+00 -0.18250000000E+03  0.18250000000E+03  0.00000000000E+00 0. -1.
        -11    1    1    2    0    0  0.13189613864E-01  0.89834588125E+00  0.44497112950E+02  0.44506182269E+02  0.00000000000E+00 0. -1.
         11    1    1    2    0    0  0.17086979494E+01  0.43674391690E+01 -0.18226403263E+03  0.18232435867E+03  0.00000000000E+00 0. -1.
        -15    1    1    2    0    0  0.16806575693E+01  0.99010744365E+00  0.59694402780E+02  0.59752693453E+02  0.17770000000E+01 0. -1.
         15    1    1    2    0    0 -0.34025451325E+01 -0.62558924939E+01  0.78072516901E+02  0.78416765609E+02  0.17770000000E+01 0. -1.
</event>
<event>
 6    1  0.1298204E-002  0.1934381E+03  0.7546771E-02  0.1060067E+00
        -11   -1    0    0    0    0  0.00000000000E+00  0.00000000000E+00  0.18250000000E+03  0.18250000000E+03  0.00000000000E+00 0.  1.
         11   -1    0    0    0    0 -0.00000000000E+00 -0.00000000000E+00 -0.18250000000E+03  0.18250000000E+03  0.00000000000E+00 0.  1.
        -11    1    1    2    0    0  0.49129291534E+01 -0.27284843321E+01  0.15923544181E+03  0.15933457700E+03  0.00000000000E+00 0.  1.
         11    1    1    2    0    0  0.19037301721E+01  0.15160980727E+01 -0.17154461906E+03  0.17156188117E+03  0.00000000000E+00 0.  1.
        -15    1    1    2    0    0 -0.12184888084E+02 -0.10544698221E+02  0.65489641243E-01  0.16211852950E+02  0.17770000000E+01 0.  1.
         15    1    1    2    0    0  0.53682287583E+01  0.11757084481E+02  0.12243687613E+02  0.17891688876E+02  0.17770000000E+01 0. -1.
</event>
<event>
 6    1  0.1298204E-002  0.1997708E+03  0.7546771E-02  0.1055482E+00
        -11   -1    0    0    0    0  0.00000000000E+00  0.00000000000E+00  0.18250000000E+03  0.18250000000E+03  0.00000000000E+00 0.  1.
         11   -1    0    0    0    0 -0.00000000000E+00 -0.00000000000E+00 -0.18250000000E+03  0.18250000000E+03  0.00000000000E+00 0.  1.
        -11    1    1    2    0    0 -0.27667055687E+01 -0.56901980923E+00  0.16520506482E+03  0.16522921014E+03  0.00000000000E+00 0.  1.
         11    1    1    2    0    0  0.45999200281E+01  0.72028712507E+00 -0.15577786682E+03  0.15584743138E+03  0.00000000000E+00 0.  1.
        -15    1    1    2    0    0 -0.59389802562E+01 -0.74296258632E+01  0.15109253857E+02  0.17942076470E+02  0.17770000000E+01 0.  1.
         15    1    1    2    0    0  0.41057657968E+01  0.72783585474E+01 -0.24536451859E+02  0.25981282007E+02  0.17770000000E+01 0. -1.
</event>
<event>
 6    1  0.1298204E-002  0.1900711E+03  0.7546771E-02  0.1062583E+00
        -11   -1    0    0    0    0  0.00000000000E+00  0.00000000000E+00  0.18250000000E+03  0.18250000000E+03  0.00000000000E+00 0.  1.
         11   -1    0    0    0    0 -0.00000000000E+00 -0.00000000000E+00 -0.18250000000E+03  0.18250000000E+03  0.00000000000E+00 0.  1.
        -11    1    1    2    0    0  0.24555398019E+01  0.16442365839E+01  0.17490394351E+03  0.17492890740E+03  0.00000000000E+00 0.  1.
         11    1    1    2    0    0 -0.25249194341E+01  0.96279810829E+00 -0.17328795785E+03  0.17330902612E+03  0.00000000000E+00 0.  1.
        -15    1    1    2    0    0 -0.34843235249E+01 -0.30430830634E+01  0.62275996221E+01  0.79587430547E+01  0.17770000000E+01 0.  1.
         15    1    1    2    0    0  0.35537031571E+01  0.43604837126E+00 -0.78435852832E+01  0.88033234296E+01  0.17770000000E+01 0.  1.
</event>
<event>
 6    1  0.1298204E-002  0.1844266E+03  0.7546771E-02  0.1066932E+00
        -11   -1    0    0    0    0  0.00000000000E+00  0.00000000000E+00  0.18250000000E+03  0.18250000000E+03  0.00000000000E+00 0.  1.
         11   -1    0    0    0    0 -0.00000000000E+00 -0.00000000000E+00 -0.18250000000E+03  0.18250000000E+03  0.00000000000E+00 0. -1.
        -11    1    1    2    0    0  0.48869837553E+01  0.38725340188E+01  0.14894386758E+03  0.14907432650E+03  0.00000000000E+00 0.  1.
         11    1    1    2    0    0 -0.43976707218E+01  0.40215104836E+01 -0.18047507217E+03  0.18057343030E+03  0.00000000000E+00 0. -1.
        -15    1    1    2    0    0 -0.31754264538E+01 -0.19433672617E+01  0.26752168020E+02  0.27068362201E+02  0.17770000000E+01 0. -1.
         15    1    1    2    0    0  0.26861134203E+01 -0.59506772407E+01  0.47790365696E+01  0.82838810025E+01  0.17770000000E+01 0.  1.
</event>
<event>
 6    1  0.1298204E-002  0.1836380E+03  0.7546771E-02  0.1067553E+00
        -11   -1    0    0    0    0  0.00000000000E+00  0.00000000000E+00  0.18250000000E+03  0.18250000000E+03  0.00000000000E+00 0.  1.
         11   -1    0    0    0    0 -0.00000000000E+00 -0.00000000000E+00 -0.18250000000E+03  0.18250000000E+03  0.00000000000E+00 0. -1.
        -11    1    1    2    0    0  0.34519580361E+01  0.44646754879E+01  0.15065067691E+03  0.15075634578E+03  0.00000000000E+00 0.  1.
         11    1    1    2    0    0  0.14808334984E+00  0.25854782698E+01 -0.18134348015E+03  0.18136197071E+03  0.00000000000E+00 0. -1.
        -15    1    1    2    0    0 -0.56649890009E+01 -0.65575409017E+01  0.25596764241E+02  0.27082199166E+02  0.17770000000E+01 0.  1.
         15    1    1    2    0    0  0.20649476149E+01 -0.49261285598E+00  0.50960390036E+01  0.57994843395E+01  0.17770000000E+01 0. -1.
</event>
<event>
 6    1  0.1298204E-002  0.1834856E+03  0.7546771E-02  0.1067673E+00
        -11   -1    0    0    0    0  0.00000000000E+00  0.00000000000E+00  0.18250000000E+03  0.18250000000E+03  0.00000000000E+00 0.  1.
         11   -1    0    0    0    0 -0.00000000000E+00 -0.00000000000E+00 -0.18250000000E+03  0.18250000000E+03  0.00000000000E+00 0.  1.
        -11    1    1    2    0    0 -0.23295381455E+01  0.11505535759E+01  0.14929089375E+03  0.14931350066E+03  0.00000000000E+00 0.  1.
         11    1    1    2    0    0 -0.18900417543E+01 -0.62867923864E+01 -0.18139568962E+03  0.18151444083E+03  0.00000000000E+00 0.  1.
        -15    1    1    2    0    0  0.32935262090E+01 -0.13826380743E+01  0.18828550092E+02  0.19246584905E+02  0.17770000000E+01 0. -1.
         15    1    1    2    0    0  0.92605369076E+00  0.65188768848E+01  0.13276245780E+02  0.14925473603E+02  0.17770000000E+01 0. -1.
</event>
<event>
 6    1  0.1298204E-002  0.1783038E+03  0.7546771E-02  0.1071845E+00
        -11   -1    0    0    0    0  0.00000000000E+00  0.00000000000E+00  0.18250000000E+03  0.18250000000E+03  0.00000000000E+00 0.  1.
         11   -1    0    0    0    0 -0.00000000000E+00 -0.00000000000E+00 -0.18250000000E+03  0.18250000000E+03  0.00000000000E+00 0. -1.
        -11    1    1    2    0    0 -0.31342620175E+01  0.33348428711E+01  0.17916130125E+03  0.17921974400E+03  0.00000000000E+00 0.  1.
         11    1    1    2    0    0 -0.54684229284E+00  0.25177054974E+01 -0.17744032806E+03  0.17745903161E+03  0.00000000000E+00 0. -1.
        -15    1    1    2    0    0  0.14568985383E+01 -0.30531650854E+01 -0.20108390186E+01  0.43180519853E+01  0.17770000000E+01 0. -1.
         15    1    1    2    0    0  0.22242057721E+01 -0.27993832831E+01  0.28986583227E+00  0.40031724023E+01  0.17770000000E+01 0.  1.
</event>
<event>
 6    1  0.1298204E-002  0.1825632E+03  0.7546771E-02  0.1068405E+00
        -11   -1    0    0    0    0  0.00000000000E+00  0.00000000000E+00  0.18250000000E+03  0.18250000000E+03  0.00000000000E+00 0. -1.
         11   -1    0    0    0    0 -0.00000000000E+00 -0.00000000000E+00 -0.18250000000E+03  0.18250000000E+03  0.00000000000E+00 0. -1.
        -11    1    1    2    0    0 -0.21384521079E+01  0.24882148818E+01  0.18240728845E+03  0.18243679199E+03  0.00000000000E+00 0. -1.
         11    1    1    2    0    0 -0.70845749050E+00 -0.10025208575E+01 -0.60057680546E+02  0.60070225176E+02  0.00000000000E+00 0. -1.
        -15    1    1    2    0    0  0.32570411424E+01 -0.24847711679E+00 -0.75076613278E+02  0.75168648040E+02  0.17770000000E+01 0. -1.
         15    1    1    2    0    0 -0.41013154400E+00 -0.12372169076E+01 -0.47272994629E+02  0.47324334795E+02  0.17770000000E+01 0. -1.
</event>
<event>
 6    1  0.1298204E-002  0.1852495E+03  0.7546771E-02  0.1066287E+00
        -11   -1    0    0    0    0  0.00000000000E+00  0.00000000000E+00  0.18250000000E+03  0.18250000000E+03  0.00000000000E+00 0. -1.
         11   -1    0    0    0    0 -0.00000000000E+00 -0.00000000000E+00 -0.18250000000E+03  0.18250000000E+03  0.00000000000E+00 0.  1.
        -11    1    1    2    0    0  0.24581321028E+01 -0.14860853114E+01  0.17972758581E+03  0.17975053815E+03  0.00000000000E+00 0. -1.
         11    1    1    2    0    0  0.56488279524E+00  0.25940332121E+01 -0.15541465417E+03  0.15543732766E+03  0.00000000000E+00 0.  1.
        -15    1    1    2    0    0 -0.10436899094E+01 -0.21080391982E+01 -0.26222942881E+02  0.26388133322E+02  0.17770000000E+01 0.  1.
         15    1    1    2    0    0 -0.19793249887E+01  0.10000912976E+01  0.19100112404E+01  0.34240008693E+01  0.17770000000E+01 0. -1.
</event>
<event>
 6    1  0.1298204E-002  0.1830346E+03  0.7546771E-02  0.1068030E+00
        -11   -1    0    0    0    0  0.00000000000E+00  0.00000000000E+00  0.18250000000E+03  0.18250000000E+03  0.00000000000E+00 0. -1.
         11   -1    0    0    0    0 -0.00000000000E+00 -0.00000000000E+00 -0.18250000000E+03  0.18250000000E+03  0.00000000000E+00 0.  1.
        -11    1    1    2    0    0  0.13402830558E+01  0.23421254904E+01  0.15340995783E+03  0.15343368950E+03  0.00000000000E+00 0. -1.
         11    1    1    2    0    0  0.30399578301E+01 -0.53307760862E+00 -0.18193923087E+03  0.18196540673E+03  0.00000000000E+00 0.  1.
        -15    1    1    2    0    0 -0.28027939482E+01 -0.61909054118E-01  0.58123654297E+01  0.66933405364E+01  0.17770000000E+01 0. -1.
         15    1    1    2    0    0 -0.15774469377E+01 -0.17471388276E+01  0.22716907614E+02  0.22907563237E+02  0.17770000000E+01 0.  1.
</event>
<event>
 6    1  0.1298204E-002  0.1458023E+03  0.7546771E-02  0.1102117E+00
        -11   -1    0    0    0    0  0.00000000000E+00  0.00000000000E+00  0.18250000000E+03  0.18250000000E+03  0.00000000000E+00 0. -1.
         11   -1    0    0    0    0 -0.00000000000E+00 -0.00000000000E+00 -0.18250000000E+03  0.18250000000E+03  0.00000000000E+00 0. -1.
        -11    1    1    2    0    0  0.49252219191E+02 -0.13120002982E+02  0.12273233986E+03  0.13289523250E+03  0.00000000000E+00 0. -1.
         11    1    1    2    0    0 -0.21046424851E+02 -0.11854467853E+02 -0.10538788035E+03  0.10812069983E+03  0.00000000000E+00 0. -1.
        -15    1    1    2    0    0 -0.67952792007E+02  0.40757527332E+02 -0.49046911400E+01  0.79410148595E+02  0.17770000000E+01 0.  1.
         15    1    1    2    0    0  0.39746997667E+02 -0.15783056497E+02 -0.12439768373E+02  0.44573919080E+02  0.17770000000E+01 0. -1.
</event>
<event>
 6    1  0.1298204E-002  0.1827579E+03  0.7546771E-02  0.1068250E+00
        -11   -1    0    0    0    0  0.00000000000E+00  0.00000000000E+00  0.18250000000E+03  0.18250000000E+03  0.00000000000E+00 0.  1.
         11   -1    0    0    0    0 -0.00000000000E+00 -0.00000000000E+00 -0.18250000000E+03  0.18250000000E+03  0.00000000000E+00 0. -1.
        -11    1    1    2    0    0 -0.29871209950E+01  0.40151174278E+00  0.18221716747E+03  0.18224209235E+03  0.00000000000E+00 0.  1.
         11    1    1    2    0    0 -0.32273714588E+01  0.25155379610E+00 -0.11546298575E+03  0.11550835591E+03  0.00000000000E+00 0. -1.
        -15    1    1    2    0    0  0.48680699089E+01 -0.14742305059E+01 -0.35659919636E+02  0.36064651082E+02  0.17770000000E+01 0. -1.
         15    1    1    2    0    0  0.13464225449E+01  0.82116496707E+00 -0.31094262086E+02  0.31184900661E+02  0.17770000000E+01 0.  1.
</event>
<event>
 6    1  0.1298204E-002  0.1936505E+03  0.7546771E-02  0.1059910E+00
        -11   -1    0    0    0    0  0.00000000000E+00  0.00000000000E+00  0.18250000000E+03  0.18250000000E+03  0.00000000000E+00 0. -1.
         11   -1    0    0    0    0 -0.00000000000E+00 -0.00000000000E+00 -0.18250000000E+03  0.18250000000E+03  0.00000000000E+00 0. -1.
        -11    1    1    2    0    0  0.36340889251E+01 -0.62467012987E+00  0.15659319419E+03  0.15663660262E+03  0.00000000000E+00 0. -1.
         11    1    1    2    0    0  0.12978712061E+02  0.39533117652E+01 -0.17081148719E+03  0.17134946687E+03  0.00000000000E+00 0. -1.
        -15    1    1    2    0    0 -0.12670516544E+02 -0.51866133180E+01  0.23129324081E+02  0.26936338070E+02  0.17770000000E+01 0. -1.
         15    1    1    2    0    0 -0.39422844425E+01  0.18579716826E+01 -0.89110310752E+01  0.10077592432E+02  0.17770000000E+01 0.  1.
</event>
<event>
 6    1  0.1298204E-002  0.1860972E+03  0.7546771E-02  0.1065627E+00
        -11   -1    0    0    0    0  0.00000000000E+00  0.00000000000E+00  0.18250000000E+03  0.18250000000E+03  0.00000000000E+00 0. -1.
         11   -1    0    0    0    0 -0.00000000000E+00 -0.00000000000E+00 -0.18250000000E+03  0.18250000000E+03  0.00000000000E+00 0.  1.
        -11    1    1    2    0    0 -0.22712320607E+00  0.68769630917E+01  0.17877044382E+03  0.17890281101E+03  0.00000000000E+00 0. -1.
         11    1    1    2    0    0  0.27115700266E+01  0.60765846987E+00 -0.14264720290E+03  0.14267426662E+03  0.00000000000E+00 0.  1.
        -15    1    1    2    0    0  0.11159629951E+01 -0.85168084842E+01 -0.19326046123E+01  0.89818756254E+01  0.17770000000E+01 0.  1.
         15    1    1    2    0    0 -0.36004098156E+01  0.10321869227E+01 -0.34190636300E+02  0.34441046737E+02  0.17770000000E+01 0.  1.
</event>
<event>
 6    1  0.1298204E-002  0.1633018E+03  0.7546771E-02  0.1084854E+00
        -11   -1    0    0    0    0  0.00000000000E+00  0.00000000000E+00  0.18250000000E+03  0.18250000000E+03  0.00000000000E+00 0. -1.
         11   -1    0    0    0    0 -0.00000000000E+00 -0.00000000000E+00 -0.18250000000E+03  0.18250000000E+03  0.00000000000E+00 0. -1.
        -11    1    1    2    0    0  0.21936320261E+01  0.90382612285E+00  0.16445614372E+03  0.16447325659E+03  0.00000000000E+00 0. -1.
         11    1    1    2    0    0  0.58403389569E+01  0.54647356037E+01 -0.16210256370E+03  0.16229976603E+03  0.00000000000E+00 0. -1.
        -15    1    1    2    0    0  0.64009902862E+00 -0.28981196145E+00  0.16456301852E+02  0.16566874099E+02  0.17770000000E+01 0.  1.
         15    1    1    2    0    0 -0.86740700116E+01 -0.60787497651E+01 -0.18809881872E+02  0.21660103284E+02  0.17770000000E+01 0. -1.
</event>
<event>
 6    1  0.1298204E-002  0.1871087E+03  0.7546771E-02  0.1064844E+00
        -11   -1    0    0    0    0  0.00000000000E+00  0.00000000000E+00  0.18250000000E+03  0.18250000000E+03  0.00000000000E+00 0. -1.
         11   -1    0    0    0    0 -0.00000000000E+00 -0.00000000000E+00 -0.18250000000E+03  0.18250000000E+03  0.00000000000E+00 0.  1.
        -11    1    1    2    0    0 -0.24671692315E+00 -0.47614940540E+01  0.17782739366E+03  0.17789130004E+03  0.00000000000E+00 0. -1.
         11    1    1    2    0    0  0.24026216235E+01  0.49461667372E+00 -0.15550719102E+03  0.15552653695E+03  0.00000000000E+00 0.  1.
        -15    1    1    2    0    0 -0.38073673950E+01 -0.81243339141E+01 -0.12969462682E+02  0.15870272187E+02  0.17770000000E+01 0. -1.
         15    1    1    2    0    0  0.16514626947E+01  0.12391211294E+02 -0.93507399567E+01  0.15711890819E+02  0.17770000000E+01 0.  1.
</event>
<event>
 6    1  0.1298204E-002  0.9543398E+02  0.7546771E-02  0.1171958E+00
        -11   -1    0    0    0    0  0.00000000000E+00  0.00000000000E+00  0.18250000000E+03  0.18250000000E+03  0.00000000000E+00 0.  1.
         11   -1    0    0    0    0 -0.00000000000E+00 -0.00000000000E+00 -0.18250000000E+03  0.18250000000E+03  0.00000000000E+00 0.  1.
        -11    1    1    2    0    0 -0.58765726302E+02 -0.55132997084E+02  0.12704320141E+03  0.15044278973E+03  0.00000000000E+00 0.  1.
         11    1    1    2    0    0  0.81966429362E+01  0.78418464605E+01 -0.80627332990E+02  0.81421412027E+02  0.00000000000E+00 0.  1.
        -15    1    1    2    0    0  0.43733198519E+02 -0.25497243278E+02 -0.27326211175E+02  0.57555031176E+02  0.17770000000E+01 0. -1.
         15    1    1    2    0    0  0.68358848468E+01  0.72788393901E+02 -0.19089657247E+02  0.75580767072E+02  0.17770000000E+01 0.  1.
</event>
<event>
 6    1  0.1298204E-002  0.1844394E+03  0.7546771E-02  0.1066921E+00
        -11   -1    0    0    0    0  0.00000000000E+00  0.00000000000E+00  0.18250000000E+03  0.18250000000E+03  0.00000000000E+00 0. -1.
         11   -1    0    0    0    0 -0.00000000000E+00 -0.00000000000E+00 -0.18250000000E+03  0.18250000000E+03  0.00000000000E+00 0. -1.
        -11    1    1    2    0    0  0.23222015214E+01 -0.55150104369E+00  0.14321402663E+03  0.14323391427E+03  0.00000000000E+00 0. -1.
         11    1    1    2    0    0 -0.18015843583E+01 -0.21604450329E+01 -0.18053866337E+03  0.18056057764E+03  0.00000000000E+00 0. -1.
        -15    1    1    2    0    0  0.19391345978E+01  0.82759808495E+01  0.31222507324E+02  0.32407634820E+02  0.17770000000E+01 0. -1.
         15    1    1    2    0    0 -0.24597517608E+01 -0.55640347729E+01  0.61021294153E+01  0.87978732703E+01  0.17770000000E+01 0.  1.
</event>
<event>
 6    1  0.1298204E-002  0.1774633E+03  0.7546771E-02  0.1072536E+00
        -11   -1    0    0    0    0  0.00000000000E+00  0.00000000000E+00  0.18250000000E+03  0.18250000000E+03  0.00000000000E+00 0. -1.
         11   -1    0    0    0    0 -0.00000000000E+00 -0.00000000000E+00 -0.18250000000E+03  0.18250000000E+03  0.00000000000E+00 0.  1.
        -11    1    1    2    0    0 -0.22488080901E+01 -0.33297262486E+01  0.17928413979E+03  0.17932915824E+03  0.00000000000E+00 0. -1.
         11    1    1    2    0    0 -0.52018644095E+01 -0.23376965772E+00 -0.17563517471E+03  0.17571234628E+03  0.00000000000E+00 0.  1.
        -15    1    1    2    0    0  0.31749801935E+01  0.14998887805E+01 -0.27724606957E+01  0.48139830590E+01  0.17770000000E+01 0. -1.
         15    1    1    2    0    0  0.42756923061E+01  0.20636071258E+01 -0.87650438506E+00  0.51445124165E+01  0.17770000000E+01 0.  1.
</event>
<event>
 6    1  0.1298204E-002  0.1835145E+03  0.7546771E-02  0.1067650E+00
        -11   -1    0    0    0    0  0.00000000000E+00  0.00000000000E+00  0.18250000000E+03  0.18250000000E+03  0.00000000000E+00 0. -1.
         11   -1    0    0    0    0 -0.00000000000E+00 -0.00000000000E+00 -0.18250000000E+03  0.18250000000E+03  0.00000000000E+00 0. -1.
        -11    1    1    2    0    0  0.22709134310E+01  0.47559576867E+00  0.91736984239E+02  0.91766320164E+02  0.00000000000E+00 0. -1.
         11    1    1    2    0    0  0.85050759132E+00  0.46533939547E+01 -0.18142387166E+03  0.18148553289E+03  0.00000000000E+00 0. -1.
        -15    1    1    2    0    0 -0.22172994964E+01 -0.48749016376E+01  0.67970783508E+01  0.88339734061E+01  0.17770000000E+01 0. -1.
         15    1    1    2    0    0 -0.90412152591E+00 -0.25408808581E+00  0.82889809075E+02  0.82914173541E+02  0.17770000000E+01 0. -1.
</event>
<event>
 6    1  0.1298204E-002  0.1843522E+03  0.7546771E-02  0.1066990E+00
        -11   -1    0    0    0    0  0.00000000000E+00  0.00000000000E+00  0.18250000000E+03  0.18250000000E+03  0.00000000000E+00 0. -1.
         11   -1    0    0    0    0 -0.00000000000E+00 -0.00000000000E+00 -0.18250000000E+03  0.18250000000E+03  0.00000000000E+00 0.  1.
        -11    1    1    2    0    0  0.64398094147E+01  0.24212003669E+01  0.18051670194E+03  0.18064775956E+03  0.00000000000E+00 0. -1.
         11    1    1    2    0    0  0.80925615917E+00  0.21035369654E+01 -0.14354907576E+03  0.14356676815E+03  0.00000000000E+00 0.  1.
        -15    1    1    2    0    0 -0.30464317776E+01  0.33374581476E+01 -0.31989649191E+01  0.58146778945E+01  0.17770000000E+01 0.  1.
         15    1    1    2    0    0 -0.42026337963E+01 -0.78621954800E+01 -0.33768661257E+02  0.34970794396E+02  0.17770000000E+01 0.  1.
</event>
<event>
 6    1  0.1298204E-002  0.1035665E+03  0.7546771E-02  0.1157785E+00
        -11   -1    0    0    0    0  0.00000000000E+00  0.00000000000E+00  0.18250000000E+03  0.18250000000E+03  0.00000000000E+00 0. -1.
         11   -1    0    0    0    0 -0.00000000000E+00 -0.00000000000E+00 -0.18250000000E+03  0.18250000000E+03  0.00000000000E+00 0.  1.
        -11    1    1    2    0    0 -0.19707871579E+01  0.41061518954E+01  0.11417400534E+03  0.11426481515E+03  0.00000000000E+00 0. -1.
         11    1    1    2    0    0  0.29784953162E+01 -0.89368760876E+01 -0.88106406869E+02  0.88608566854E+02  0.00000000000E+00 0.  1.
        -15    1    1    2    0    0 -0.10004681085E+00 -0.34176855013E+01  0.67783339584E+02  0.67892778981E+02  0.17770000000E+01 0. -1.
         15    1    1    2    0    0 -0.90766134749E+00  0.82484096935E+01 -0.93850938059E+02  0.94233839014E+02  0.17770000000E+01 0.  1.
</event>
<event>
 6    1  0.1298204E-002  0.1899259E+03  0.7546771E-02  0.1062693E+00
        -11   -1    0    0    0    0  0.00000000000E+00  0.00000000000E+00  0.18250000000E+03  0.18250000000E+03  0.00000000000E+00 0.  1.
         11   -1    0    0    0    0 -0.00000000000E+00 -0.00000000000E+00 -0.18250000000E+03  0.18250000000E+03  0.00000000000E+00 0.  1.
        -11    1    1    2    0    0  0.22149520060E+02 -0.18688355171E+00  0.17366723716E+03  0.17507411410E+03  0.00000000000E+00 0.  1.
         11    1    1    2    0    0  0.35078867685E+01  0.61720935486E+00 -0.12256708654E+03  0.12261882776E+03  0.00000000000E+00 0.  1.
        -15    1    1    2    0    0 -0.23231280637E+02 -0.14464980846E+02 -0.23157902668E+02  0.35893930627E+02  0.17770000000E+01 0. -1.
         15    1    1    2    0    0 -0.24261261913E+01  0.14034655043E+02 -0.27942247954E+02  0.31413127514E+02  0.17770000000E+01 0.  1.
</event>
<event>
 6    1  0.1298204E-002  0.1949550E+03  0.7546771E-02  0.1058951E+00
        -11   -1    0    0    0    0  0.00000000000E+00  0.00000000000E+00  0.18250000000E+03  0.18250000000E+03  0.00000000000E+00 0. -1.
         11   -1    0    0    0    0 -0.00000000000E+00 -0.00000000000E+00 -0.18250000000E+03  0.18250000000E+03  0.00000000000E+00 0.  1.
        -11    1    1    2    0    0  0.54225074283E+01 -0.43141163617E+00  0.16995800014E+03  0.17004502790E+03  0.00000000000E+00 0. -1.
         11    1    1    2    0    0  0.38153857505E+00  0.52005858086E+01 -0.15465327157E+03  0.15474115830E+03  0.00000000000E+00 0.  1.
        -15    1    1    2    0    0 -0.36034622408E+01 -0.33781852989E+01 -0.27305766655E+02  0.27805749363E+02  0.17770000000E+01 0.  1.
         15    1    1    2    0    0 -0.22005837626E+01 -0.13909888736E+01  0.12001038086E+02  0.12408064438E+02  0.17770000000E+01 0. -1.
</event>
<event>
 6    1  0.1298204E-002  0.1852164E+03  0.7546771E-02  0.1066313E+00
        -11   -1    0    0    0    0  0.00000000000E+00  0.00000000000E+00  0.18250000000E+03  0.18250000000E+03  0.00000000000E+00 0.  1.
         11   -1    0    0    0    0 -0.00000000000E+00 -0.00000000000E+00 -0.18250000000E+03  0.18250000000E+03  0.00000000000E+00 0. -1.
        -11    1    1    2    0    0  0.38526524216E+01  0.27486826490E+01  0.17972127785E+03  0.17978358073E+03  0.00000000000E+00 0.  1.
         11    1    1    2    0    0  0.43606465364E+01 -0.64230899132E+01 -0.16897519303E+03  0.16915344271E+03  0.00000000000E+00 0. -1.
        -15    1    1    2    0    0 -0.38083641279E+01 -0.25819066631E+00 -0.85259432660E+01  0.95089293470E+01  0.17770000000E+01 0. -1.
         15    1    1    2    0    0 -0.44049348301E+01  0.39325979305E+01 -0.22201415576E+01  0.65540472135E+01  0.17770000000E+01 0.  1.
</event>
<event>
 6    1  0.1298204E-002  0.1865335E+03  0.7546771E-02  0.1065289E+00
        -11   -1    0    0    0    0  0.00000000000E+00  0.00000000000E+00  0.18250000000E+03  0.18250000000E+03  0.00000000000E+00 0. -1.
         11   -1    0    0    0    0 -0.00000000000E+00 -0.00000000000E+00 -0.18250000000E+03  0.18250000000E+03  0.00000000000E+00 0. -1.
        -11    1    1    2    0    0 -0.24192256399E+01  0.21664561358E-02  0.17035891240E+03  0.17037608896E+03  0.00000000000E+00 0. -1.
         11    1    1    2    0    0 -0.53908970126E+01  0.16578894809E+00 -0.17838494753E+03  0.17846646397E+03  0.00000000000E+00 0. -1.
        -15    1    1    2    0    0  0.45780426963E+01 -0.74617662115E+00 -0.20790516614E+01  0.53847413392E+01  0.17770000000E+01 0.  1.
         15    1    1    2    0    0  0.32320799561E+01  0.57822121693E+00  0.10105086792E+02  0.10772705728E+02  0.17770000000E+01 0.  1.
</event>
<event>
 6    1  0.1298204E-002  0.1846656E+03  0.7546771E-02  0.1066744E+00
        -11   -1    0    0    0    0  0.00000000000E+00  0.00000000000E+00  0.18250000000E+03  0.18250000000E+03  0.00000000000E+00 0. -1.
         11   -1    0    0    0    0 -0.00000000000E+00 -0.00000000000E+00 -0.18250000000E+03  0.18250000000E+03  0.00000000000E+00 0. -1.
        -11    1    1    2    0    0  0.19340201155E+01  0.20010821135E+01  0.18031288822E+03  0.18033436284E+03  0.00000000000E+00 0. -1.
         11    1    1    2    0    0  0.21563485518E+01  0.11838482197E+01 -0.16428591724E+03  0.16430433330E+03  0.00000000000E+00 0. -1.
        -15    1    1    2    0    0 -0.34128032187E+01 -0.32256268657E+01 -0.17338444202E+02  0.18050796958E+02  0.17770000000E+01 0.  1.
         15    1    1    2    0    0 -0.67756544857E+00  0.40696532487E-01  0.13114732279E+01  0.23105069081E+01  0.17770000000E+01 0.  1.
</event>
<event>
 6    1  0.1298204E-002  0.1830347E+03  0.7546771E-02  0.1068030E+00
        -11   -1    0    0    0    0  0.00000000000E+00  0.00000000000E+00  0.18250000000E+03  0.18250000000E+03  0.00000000000E+00 0.  1.
         11   -1    0    0    0    0 -0.00000000000E+00 -0.00000000000E+00 -0.18250000000E+03  0.18250000000E+03  0.00000000000E+00 0.  1.
        -11    1    1    2    0    0  0.31545305334E+01 -0.41259584487E+00  0.18193751819E+03  0.18196533137E+03  0.00000000000E+00 0.  1.
         11    1    1    2    0    0 -0.22910753306E+01  0.36554094333E+01 -0.12539359272E+03  0.12546778128E+03  0.00000000000E+00 0.  1.
        -15    1    1    2    0    0 -0.12546819089E+01 -0.16011090134E+01 -0.32904926610E+01  0.42570938113E+01  0.17770000000E+01 0.  1.
         15    1    1    2    0    0  0.39122670616E+00 -0.16417045750E+01 -0.53253432803E+02  0.53309793533E+02  0.17770000000E+01 0. -1.
</event>
<event>
 6    1  0.1298204E-002  0.1826497E+03  0.7546771E-02  0.1068336E+00
        -11   -1    0    0    0    0  0.00000000000E+00  0.00000000000E+00  0.18250000000E+03  0.18250000000E+03  0.00000000000E+00 0. -1.
         11   -1    0    0    0    0 -0.00000000000E+00 -0.00000000000E+00 -0.18250000000E+03  0.18250000000E+03  0.00000000000E+00 0.  1.
        -11    1    1    2    0    0  0.11373873720E+01  0.67072486438E+00  0.57234240543E+02  0.57249469975E+02  0.00000000000E+00 0. -1.
         11    1    1    2    0    0  0.65827507576E+01  0.31903378224E+01 -0.18220353046E+03  0.18235031498E+03  0.00000000000E+00 0.  1.
        -15    1    1    2    0    0 -0.83814614330E+00  0.63413497923E-01  0.38638337911E+02  0.38688310842E+02  0.17770000000E+01 0.  1.
         15    1    1    2    0    0 -0.68819919863E+01 -0.39244761847E+01  0.86330952005E+02  0.86711904201E+02  0.17770000000E+01 0. -1.
</event>
<event>
 6    1  0.1298204E-002  0.1886448E+03  0.7546771E-02  0.1063666E+00
        -11   -1    0    0    0    0  0.00000000000E+00  0.00000000000E+00  0.18250000000E+03  0.18250000000E+03  0.00000000000E+00 0.  1.
         11   -1    0    0    0    0 -0.00000000000E+00 -0.00000000000E+00 -0.18250000000E+03  0.18250000000E+03  0.00000000000E+00 0. -1.
        -11    1    1    2    0    0 -0.49207221548E+01  0.54051855389E+00  0.17628566531E+03  0.17635515717E+03  0.00000000000E+00 0.  1.
         11    1    1    2    0    0  0.74447476423E+01 -0.89497674610E+01 -0.16077076924E+03  0.16119169597E+03  0.00000000000E+00 0. -1.
        -15    1    1    2    0    0  0.89028110017E+01  0.58574676367E+01 -0.72083371621E+01  0.12987987700E+02  0.17770000000E+01 0.  1.
         15    1    1    2    0    0 -0.11426836489E+02  0.25517812704E+01 -0.83065589049E+01  0.14465159164E+02  0.17770000000E+01 0. -1.
</event>
<event>
 6    1  0.1298204E-002  0.1827220E+03  0.7546771E-02  0.1068278E+00
        -11   -1    0    0    0    0  0.00000000000E+00  0.00000000000E+00  0.18250000000E+03  0.18250000000E+03  0.00000000000E+00 0. -1.
         11   -1    0    0    0    0 -0.00000000000E+00 -0.00000000000E+00 -0.18250000000E+03  0.18250000000E+03  0.00000000000E+00 0. -1.
        -11    1    1    2    0    0  0.38465964041E+01 -0.81855280540E+00  0.18223553797E+03  0.18227796804E+03  0.00000000000E+00 0. -1.
         11    1    1    2    0    0  0.36224265304E+00  0.11034953813E+01 -0.72097503657E+02  0.72106857895E+02  0.00000000000E+00 0. -1.
        -15    1    1    2    0    0 -0.54847936482E+01 -0.21080151073E+01 -0.95835021818E+02  0.96031431443E+02  0.17770000000E+01 0. -1.
         15    1    1    2    0    0  0.12759545910E+01  0.18230725314E+01 -0.14303012494E+02  0.14583742625E+02  0.17770000000E+01 0.  1.
</event>
<event>
 6    1  0.1298204E-002  0.1829496E+03  0.7546771E-02  0.1068098E+00
        -11   -1    0    0    0    0  0.00000000000E+00  0.00000000000E+00  0.18250000000E+03  0.18250000000E+03  0.00000000000E+00 0. -1.
         11   -1    0    0    0    0 -0.00000000000E+00 -0.00000000000E+00 -0.18250000000E+03  0.18250000000E+03  0.00000000000E+00 0. -1.
        -11    1    1    2    0    0  0.32425319465E+01  0.11397656542E+01  0.96272753360E+02  0.96334085965E+02  0.00000000000E+00 0. -1.
         11    1    1    2    0    0  0.18288867507E+01  0.16952602921E+01 -0.18203336633E+03  0.18205044683E+03  0.00000000000E+00 0. -1.
        -15    1    1    2    0    0  0.26201578828E+01  0.85047106583E+00  0.17875873275E+02  0.18173967721E+02  0.17770000000E+01 0. -1.
         15    1    1    2    0    0 -0.76915765800E+01 -0.36854970121E+01  0.67884739696E+02  0.68441499481E+02  0.17770000000E+01 0. -1.
</event>
<event>
 6    1  0.1298204E-002  0.1846159E+03  0.7546771E-02  0.1066783E+00
        -11   -1    0    0    0    0  0.00000000000E+00  0.00000000000E+00  0.18250000000E+03  0.18250000000E+03  0.00000000000E+00 0.  1.
         11   -1    0    0    0    0 -0.00000000000E+00 -0.00000000000E+00 -0.18250000000E+03  0.18250000000E+03  0.00000000000E+00 0.  1.
        -11    1    1    2    0    0  0.22945181110E+01 -0.14727954740E+01  0.16730361227E+03  0.16732582770E+03  0.00000000000E+00 0.  1.
         11    1    1    2    0    0  0.19387613165E+01  0.27512138905E+01 -0.18035273945E+03  0.18038414177E+03  0.00000000000E+00 0.  1.
        -15    1    1    2    0    0 -0.17930567406E+01  0.86714533198E+00  0.13312239516E+02  0.13577203078E+02  0.17770000000E+01 0. -1.
         15    1    1    2    0    0 -0.24402226869E+01 -0.21455637485E+01 -0.26311232811E+00  0.37128274479E+01  0.17770000000E+01 0. -1.
</event>
<event>
 6    1  0.1298204E-002  0.1851686E+03  0.7546771E-02  0.1066350E+00
        -11   -1    0    0    0    0  0.00000000000E+00  0.00000000000E+00  0.18250000000E+03  0.18250000000E+03  0.00000000000E+00 0.  1.
         11   -1    0    0    0    0 -0.00000000000E+00 -0.00000000000E+00 -0.18250000000E+03  0.18250000000E+03  0.00000000000E+00 0. -1.
        -11    1    1    2    0    0  0.14675321661E+01 -0.61936728340E+01  0.17971873092E+03  0.17983141405E+03  0.00000000000E+00 0.  1.
         11    1    1    2    0    0  0.36883608505E+01  0.24094825052E+01 -0.15474248701E+03  0.15480519015E+03  0.00000000000E+00 0. -1.
        -15    1    1    2    0    0 -0.41647623697E+00 -0.20595422707E+01 -0.21852551731E+02  0.22025142746E+02  0.17770000000E+01 0.  1.
         15    1    1    2    0    0 -0.47394167796E+01  0.58437325995E+01 -0.31236921817E+01  0.83382530515E+01  0.17770000000E+01 0. -1.
</event>
<event>
 6    1  0.1298204E-002  0.1926757E+03  0.7546771E-02  0.1060632E+00
        -11   -1    0    0    0    0  0.00000000000E+00  0.00000000000E+00  0.18250000000E+03  0.18250000000E+03  0.00000000000E+00 0.  1.
         11   -1    0    0    0    0 -0.00000000000E+00 -0.00000000000E+00 -0.18250000000E+03  0.18250000000E+03  0.00000000000E+00 0.  1.
        -11    1    1    2    0    0  0.26426279161E+01 -0.58718849085E+01  0.16711497250E+03  0.16723898035E+03  0.00000000000E+00 0.  1.
         11    1    1    2    0    0 -0.35744839856E+01  0.64824951726E+00 -0.17228598215E+03  0.17232427806E+03  0.00000000000E+00 0.  1.
        -15    1    1    2    0    0 -0.40986490569E+01  0.68127493965E+01  0.13292582402E+02  0.15590476399E+02  0.17770000000E+01 0. -1.
         15    1    1    2    0    0  0.50305051265E+01 -0.15891140053E+01 -0.81215727573E+01  0.98462651905E+01  0.17770000000E+01 0. -1.
</event>
<event>
 6    1  0.1298204E-002  0.1979833E+03  0.7546771E-02  0.1056757E+00
        -11   -1    0    0    0    0  0.00000000000E+00  0.00000000000E+00  0.18250000000E+03  0.18250000000E+03  0.00000000000E+00 0. -1.
         11   -1    0    0    0    0 -0.00000000000E+00 -0.00000000000E+00 -0.18250000000E+03  0.18250000000E+03  0.00000000000E+00 0. -1.
        -11    1    1    2    0    0  0.14762692592E+01 -0.22461627542E+01  0.16699502311E+03  0.16701665295E+03  0.00000000000E+00 0. -1.
         11    1    1    2    0    0 -0.63369731821E+01 -0.46227475136E+01 -0.14277201670E+03  0.14298732733E+03  0.00000000000E+00 0. -1.
        -15    1    1    2    0    0 -0.34625536063E+01 -0.32949153528E+00  0.14335794772E+02  0.14858350612E+02  0.17770000000E+01 0.  1.
         15    1    1    2    0    0  0.83232575292E+01  0.71984018032E+01 -0.38558801179E+02  0.40137669112E+02  0.17770000000E+01 0. -1.
</event>
<event>
 6    1  0.1298204E-002  0.1826519E+03  0.7546771E-02  0.1068334E+00
        -11   -1    0    0    0    0  0.00000000000E+00  0.00000000000E+00  0.18250000000E+03  0.18250000000E+03  0.00000000000E+00 0.  1.
         11   -1    0    0    0    0 -0.00000000000E+00 -0.00000000000E+00 -0.18250000000E+03  0.18250000000E+03  0.00000000000E+00 0. -1.
        -11    1    1    2    0    0 -0.23903534625E+00  0.19217894259E+01  0.64140813342E+02  0.64170042455E+02  0.00000000000E+00 0.  1.
         11    1    1    2    0    0  0.13036933908E+01  0.31498514646E+01 -0.18231626827E+03  0.18234813642E+03  0.00000000000E+00 0. -1.
        -15    1    1    2    0    0  0.30775491235E+00 -0.80135090433E+00  0.96784631230E+01  0.98776137696E+01  0.17770000000E+01 0. -1.
         15    1    1    2    0    0 -0.13724129569E+01 -0.42702899862E+01  0.10849699181E+03  0.10860420735E+03  0.17770000000E+01 0.  1.
</event>
<event>
 6    1  0.1298204E-002  0.1829419E+03  0.7546771E-02  0.1068104E+00
        -11   -1    0    0    0    0  0.00000000000E+00  0.00000000000E+00  0.18250000000E+03  0.18250000000E+03  0.00000000000E+00 0.  1.
         11   -1    0    0    0    0 -0.00000000000E+00 -0.00000000000E+00 -0.18250000000E+03  0.18250000000E+03  0.00000000000E+00 0.  1.
        -11    1    1    2    0    0  0.21184507291E+01 -0.13057239573E+01  0.18204105440E+03  0.18205806281E+03  0.00000000000E+00 0.  1.
         11    1    1    2    0    0  0.15692013708E+01  0.26378375673E+01 -0.13012186301E+03  0.13015805705E+03  0.00000000000E+00 0.  1.
        -15    1    1    2    0    0 -0.67962919902E+00 -0.91244468146E+00 -0.44729838676E+02  0.44779578472E+02  0.17770000000E+01 0.  1.
         15    1    1    2    0    0 -0.30080229008E+01 -0.41966892847E+00 -0.71893527120E+01  0.80043016684E+01  0.17770000000E+01 0. -1.
</event>
<event>
 6    1  0.1298204E-002  0.1834075E+03  0.7546771E-02  0.1067735E+00
        -11   -1    0    0    0    0  0.00000000000E+00  0.00000000000E+00  0.18250000000E+03  0.18250000000E+03  0.00000000000E+00 0. -1.
         11   -1    0    0    0    0 -0.00000000000E+00 -0.00000000000E+00 -0.18250000000E+03  0.18250000000E+03  0.00000000000E+00 0.  1.
        -11    1    1    2    0    0  0.80020205793E+01  0.66362545229E+01  0.18129470056E+03  0.18159251268E+03  0.00000000000E+00 0. -1.
         11    1    1    2    0    0  0.17758919849E+01 -0.66488510065E+00 -0.11466053812E+03  0.11467621753E+03  0.00000000000E+00 0.  1.
        -15    1    1    2    0    0 -0.11431077480E+02 -0.35341020517E+01 -0.60510905255E+02  0.61708077214E+02  0.17770000000E+01 0.  1.
         15    1    1    2    0    0  0.16531649159E+01 -0.24372673706E+01 -0.61232571907E+01  0.70231925858E+01  0.17770000000E+01 0. -1.
</event>
<event>
 6    1  0.1298204E-002  0.1838118E+03  0.7546771E-02  0.1067415E+00
        -11   -1    0    0    0    0  0.00000000000E+00  0.00000000000E+00  0.18250000000E+03  0.18250000000E+03  0.00000000000E+00 0. -1.
         11   -1    0    0    0    0 -0.00000000000E+00 -0.00000000000E+00 -0.18250000000E+03  0.18250000000E+03  0.00000000000E+00 0. -1.
        -11    1    1    2    0    0 -0.17437443460E+00 -0.55524713933E+01  0.20144225477E+02  0.20896175849E+02  0.00000000000E+00 0. -1.
         11    1    1    2    0    0 -0.47081962575E+01  0.12165396045E+01 -0.18112290928E+03  0.18118817662E+03  0.00000000000E+00 0. -1.
        -15    1    1    2    0    0  0.87469651459E+01 -0.11039699852E+01  0.14747331193E+03  0.14774729646E+03  0.17770000000E+01 0. -1.
         15    1    1    2    0    0 -0.38643944539E+01  0.54399017740E+01  0.13505371871E+02  0.15168351070E+02  0.17770000000E+01 0.  1.
</event>
<event>
 6    1  0.1298204E-002  0.1855590E+03  0.7546771E-02  0.1066046E+00
        -11   -1    0    0    0    0  0.00000000000E+00  0.00000000000E+00  0.18250000000E+03  0.18250000000E+03  0.00000000000E+00 0. -1.
         11   -1    0    0    0    0 -0.00000000000E+00 -0.00000000000E+00 -0.18250000000E+03  0.18250000000E+03  0.00000000000E+00 0. -1.
        -11    1    1    2    0    0  0.52814965858E+01  0.25009131845E+01  0.16959835883E+03  0.16969900439E+03  0.00000000000E+00 0. -1.
         11    1    1    2    0    0 -0.22652544294E+01  0.88723441592E+00 -0.17942446501E+03  0.17944095744E+03  0.00000000000E+00 0. -1.
        -15    1    1    2    0    0  0.26813104699E+01 -0.45094936155E+01  0.18597755075E+01  0.58430687521E+01  0.17770000000E+01 0.  1.
         15    1    1    2    0    0 -0.56975526263E+01  0.11213460150E+01  0.79663306728E+01  0.10016969412E+02  0.17770000000E+01 0. -1.
</event>
<event>
 6    1  0.1298204E-002  0.1679768E+03  0.7546771E-02  0.1080641E+00
        -11   -1    0    0    0    0  0.00000000000E+00  0.00000000000E+00  0.18250000000E+03  0.18250000000E+03  0.00000000000E+00 0.  1.
         11   -1    0    0    0    0 -0.00000000000E+00 -0.00000000000E+00 -0.18250000000E+03  0.18250000000E+03  0.00000000000E+00 0.  1.
        -11    1    1    2    0    0  0.69261038471E+01 -0.12639729906E+02  0.16373617569E+03  0.16436930649E+03  0.00000000000E+00 0.  1.
         11    1    1    2    0    0 -0.31792282510E+01  0.44333629881E+00 -0.17189560731E+03  0.17192557649E+03  0.00000000000E+00 0.  1.
        -15    1    1    2    0    0  0.30313147308E+01 -0.59597292724E+00 -0.68838242074E+01  0.77516977138E+01  0.17770000000E+01 0. -1.
         15    1    1    2    0    0 -0.67781903270E+01  0.12792366534E+02  0.15043255829E+02  0.20953419305E+02  0.17770000000E+01 0. -1.
</event>
<event>
 6    1  0.1298204E-002  0.1896134E+03  0.7546771E-02  0.1062929E+00
        -11   -1    0    0    0    0  0.00000000000E+00  0.00000000000E+00  0.18250000000E+03  0.18250000000E+03  0.00000000000E+00 0.  1.
         11   -1    0    0    0    0 -0.00000000000E+00 -0.00000000000E+00 -0.18250000000E+03  0.18250000000E+03  0.00000000000E+00 0.  1.
        -11    1    1    2    0    0 -0.73691555921E+01 -0.52665454140E+01  0.11294825908E+03  0.11331085642E+03  0.00000000000E+00 0.  1.
         11    1    1    2    0    0 -0.10692894783E+01 -0.24920323614E+01 -0.17536565329E+03  0.17538661853E+03  0.00000000000E+00 0.  1.
        -15    1    1    2    0    0 -0.13970564622E+01  0.14674450093E+01 -0.61557568955E+01  0.67198388054E+01  0.17770000000E+01 0.  1.
         15    1    1    2    0    0  0.98355015326E+01  0.62911327661E+01  0.68573151112E+02  0.69582686240E+02  0.17770000000E+01 0. -1.
</event>
<event>
 6    1  0.1298204E-002  0.1832623E+03  0.7546771E-02  0.1067850E+00
        -11   -1    0    0    0    0  0.00000000000E+00  0.00000000000E+00  0.18250000000E+03  0.18250000000E+03  0.00000000000E+00 0.  1.
         11   -1    0    0    0    0 -0.00000000000E+00 -0.00000000000E+00 -0.18250000000E+03  0.18250000000E+03  0.00000000000E+00 0. -1.
        -11    1    1    2    0    0 -0.59669693525E+01 -0.38622330175E+01  0.18159868872E+03  0.18173773772E+03  0.00000000000E+00 0.  1.
         11    1    1    2    0    0  0.25038765224E+00 -0.37947693459E+01 -0.13104927235E+03  0.13110444215E+03  0.00000000000E+00 0. -1.
        -15    1    1    2    0    0  0.38581574164E+01 -0.51536124796E+00 -0.16056940035E+02  0.16617281010E+02  0.17770000000E+01 0.  1.
         15    1    1    2    0    0  0.18584242838E+01  0.81723636113E+01 -0.34492476340E+02  0.35540539119E+02  0.17770000000E+01 0. -1.
</event>
<event>
 6    1  0.1298204E-002  0.1859525E+03  0.7546771E-02  0.1065739E+00
        -11   -1    0    0    0    0  0.00000000000E+00  0.00000000000E+00  0.18250000000E+03  0.18250000000E+03  0.00000000000E+00 0. -1.
         11   -1    0    0    0    0 -0.00000000000E+00 -0.00000000000E+00 -0.18250000000E+03  0.18250000000E+03  0.00000000000E+00 0.  1.
        -11    1    1    2    0    0  0.22892500925E+01  0.31066660243E+01  0.17900593172E+03  0.17904752339E+03  0.00000000000E+00 0. -1.
         11    1    1    2    0    0  0.67686995038E+01 -0.17971104983E+01 -0.17202316150E+03  0.17216565567E+03  0.00000000000E+00 0.  1.
        -15    1    1    2    0    0 -0.33411423292E+01 -0.11448985829E+01  0.73141787732E+00  0.40207867315E+01  0.17770000000E+01 0.  1.
         15    1    1    2    0    0 -0.57168072671E+01 -0.16465694311E+00 -0.77141880940E+01  0.97660342098E+01  0.17770000000E+01 0. -1.
</event>
<event>
 6    1  0.1298204E-002  0.1860952E+03  0.7546771E-02  0.1065628E+00
        -11   -1    0    0    0    0  0.00000000000E+00  0.00000000000E+00  0.18250000000E+03  0.18250000000E+03  0.00000000000E+00 0.  1.
         11   -1    0    0    0    0 -0.00000000000E+00 -0.00000000000E+00 -0.18250000000E+03  0.18250000000E+03  0.00000000000E+00 0.  1.
        -11    1    1    2    0    0 -0.49426567706E+01  0.24077434434E+01  0.17882026044E+03  0.17890475854E+03  0.00000000000E+00 0.  1.
         11    1    1    2    0    0 -0.25634707276E+01  0.59730478595E+01 -0.14817834864E+03  0.14832084037E+03  0.00000000000E+00 0.  1.
        -15    1    1    2    0    0  0.27060681214E+01 -0.41130293888E+01 -0.30666622687E+02  0.31110115581E+02  0.17770000000E+01 0. -1.
         15    1    1    2    0    0  0.48000593768E+01 -0.42677619140E+01  0.24710886738E-01  0.66642855133E+01  0.17770000000E+01 0.  1.
</event>
<event>
 6    1  0.1298204E-002  0.1827215E+03  0.7546771E-02  0.1068279E+00
        -11   -1    0    0    0    0  0.00000000000E+00  0.00000000000E+00  0.18250000000E+03  0.18250000000E+03  0.00000000000E+00 0.  1.
         11   -1    0    0    0    0 -0.00000000000E+00 -0.00000000000E+00 -0.18250000000E+03  0.18250000000E+03  0.00000000000E+00 0. -1.
        -11    1    1    2    0    0  0.30685524324E+01 -0.43201475110E-01  0.18225270724E+03  0.18227854283E+03  0.00000000000E+00 0.  1.
         11    1    1    2    0    0 -0.32068459007E+00 -0.14621388957E+01 -0.80549586085E+02  0.80563493638E+02  0.00000000000E+00 0. -1.
        -15    1    1    2    0    0 -0.17634243882E+01  0.49870744772E+01 -0.55923233226E+02  0.56200945908E+02  0.17770000000E+01 0.  1.
         15    1    1    2    0    0 -0.98444345407E+00 -0.34817341064E+01 -0.45779887927E+02  0.45957017624E+02  0.17770000000E+01 0. -1.
</event>
<event>
 6    1  0.1298204E-002  0.1843110E+03  0.7546771E-02  0.1067022E+00
        -11   -1    0    0    0    0  0.00000000000E+00  0.00000000000E+00  0.18250000000E+03  0.18250000000E+03  0.00000000000E+00 0.  1.
         11   -1    0    0    0    0 -0.00000000000E+00 -0.00000000000E+00 -0.18250000000E+03  0.18250000000E+03  0.00000000000E+00 0. -1.
        -11    1    1    2    0    0  0.53276215999E+01  0.11708154325E+01  0.18060666938E+03  0.18068902398E+03  0.00000000000E+00 0.  1.
         11    1    1    2    0    0  0.36749978914E+01 -0.23592215417E+01 -0.16013293911E+03  0.16019247711E+03  0.00000000000E+00 0. -1.
        -15    1    1    2    0    0  0.18672959039E-01 -0.17287769055E+01 -0.78429224921E+01  0.82254592872E+01  0.17770000000E+01 0.  1.
         15    1    1    2    0    0 -0.90212924503E+01  0.29171830148E+01 -0.12630807779E+02  0.15893039620E+02  0.17770000000E+01 0.  1.
</event>
<event>
 6    1  0.1298204E-002  0.1844824E+03  0.7546771E-02  0.1066888E+00
        -11   -1    0    0    0    0  0.00000000000E+00  0.00000000000E+00  0.18250000000E+03  0.18250000000E+03  0.00000000000E+00 0.  1.
         11   -1    0    0    0    0 -0.00000000000E+00 -0.00000000000E+00 -0.18250000000E+03  0.18250000000E+03  0.00000000000E+00 0.  1.
        -11    1    1    2    0    0  0.43576272454E+01 -0.12166957276E+01  0.14465907991E+03  0.14472981263E+03  0.00000000000E+00 0.  1.
         11    1    1    2    0    0  0.89226073102E+00  0.34405973504E+01 -0.18048263491E+03  0.18051763167E+03  0.00000000000E+00 0.  1.
        -15    1    1    2    0    0  0.34939515813E+01 -0.54544583234E+01  0.85345688400E+01  0.10860727763E+02  0.17770000000E+01 0.  1.
         15    1    1    2    0    0 -0.87438395578E+01  0.32305567006E+01  0.27288986159E+02  0.28891827934E+02  0.17770000000E+01 0. -1.
</event>
<event>
 6    1  0.1298204E-002  0.1905980E+03  0.7546771E-02  0.1062185E+00
        -11   -1    0    0    0    0  0.00000000000E+00  0.00000000000E+00  0.18250000000E+03  0.18250000000E+03  0.00000000000E+00 0.  1.
         11   -1    0    0    0    0 -0.00000000000E+00 -0.00000000000E+00 -0.18250000000E+03  0.18250000000E+03  0.00000000000E+00 0. -1.
        -11    1    1    2    0    0 -0.70562968437E+01 -0.11935144899E+01  0.16681781563E+03  0.16697125326E+03  0.00000000000E+00 0.  1.
         11    1    1    2    0    0  0.14458594288E+01  0.65634650376E+01 -0.17427242479E+03  0.17440197139E+03  0.00000000000E+00 0. -1.
        -15    1    1    2    0    0 -0.43624976373E+01 -0.43676332886E+01 -0.45614003151E+01  0.78785600216E+01  0.17770000000E+01 0. -1.
         15    1    1    2    0    0  0.99729350522E+01 -0.10023172591E+01  0.12016009472E+02  0.15748215330E+02  0.17770000000E+01 0.  1.
</event>
<event>
 6    1  0.1298204E-002  0.1828205E+03  0.7546771E-02  0.1068200E+00
        -11   -1    0    0    0    0  0.00000000000E+00  0.00000000000E+00  0.18250000000E+03  0.18250000000E+03  0.00000000000E+00 0. -1.
         11   -1    0    0    0    0 -0.00000000000E+00 -0.00000000000E+00 -0.18250000000E+03  0.18250000000E+03  0.00000000000E+00 0. -1.
        -11    1    1    2    0    0  0.37736209319E+01  0.78489319164E+00  0.18213874714E+03  0.18217952542E+03  0.00000000000E+00 0. -1.
         11    1    1    2    0    0 -0.24016042712E+01  0.13812066043E+01 -0.71421552145E+02  0.71475265271E+02  0.00000000000E+00 0. -1.
        -15    1    1    2    0    0 -0.31265811942E+01 -0.38462329096E+01 -0.23783460624E+02  0.24359387221E+02  0.17770000000E+01 0.  1.
         15    1    1    2    0    0  0.17545645335E+01  0.16801331136E+01 -0.86933734370E+02  0.86985822089E+02  0.17770000000E+01 0. -1.
</event>
<event>
 6    1  0.1298204E-002  0.1969314E+03  0.7546771E-02  0.1057515E+00
        -11   -1    0    0    0    0  0.00000000000E+00  0.00000000000E+00  0.18250000000E+03  0.18250000000E+03  0.00000000000E+00 0.  1.
         11   -1    0    0    0    0 -0.00000000000E+00 -0.00000000000E+00 -0.18250000000E+03  0.18250000000E+03  0.00000000000E+00 0. -1.
        -11    1    1    2    0    0 -0.15763483197E+01  0.43863086351E+01  0.16800393078E+03  0.16806857331E+03  0.00000000000E+00 0.  1.
         11    1    1    2    0    0  0.25233371502E+01  0.12687795612E+01 -0.16187731366E+03  0.16190195091E+03  0.00000000000E+00 0. -1.
        -15    1    1    2    0    0 -0.14295338180E+02 -0.11924519548E+02  0.62968430213E+00  0.18711095410E+02  0.17770000000E+01 0.  1.
         15    1    1    2    0    0  0.13348349349E+02  0.62694313522E+01 -0.67563014266E+01  0.16318380367E+02  0.17770000000E+01 0. -1.
</event>
<event>
 6    1  0.1298204E-002  0.1840700E+03  0.7546771E-02  0.1067212E+00
        -11   -1    0    0    0    0  0.00000000000E+00  0.00000000000E+00  0.18250000000E+03  0.18250000000E+03  0.00000000000E+00 0.  1.
         11   -1    0    0    0    0 -0.00000000000E+00 -0.00000000000E+00 -0.18250000000E+03  0.18250000000E+03  0.00000000000E+00 0. -1.
        -11    1    1    2    0    0  0.18560381765E+01 -0.23142254469E+00  0.12654486507E+03  0.12655868721E+03  0.00000000000E+00 0.  1.
         11    1    1    2    0    0 -0.54708219491E+01 -0.21799708504E+01 -0.18083412316E+03  0.18092999272E+03  0.00000000000E+00 0. -1.
        -15    1    1    2    0    0  0.81197446238E+01  0.57549562160E+01  0.47328762400E+02  0.48396479760E+02  0.17770000000E+01 0.  1.
         15    1    1    2    0    0 -0.45049608513E+01 -0.33435628208E+01  0.69604956941E+01  0.91148403121E+01  0.17770000000E+01 0. -1.
</event>
<event>
 6    1  0.1298204E-002  0.1832187E+03  0.7546771E-02  0.1067884E+00
        -11   -1    0    0    0    0  0.00000000000E+00  0.00000000000E+00  0.18250000000E+03  0.18250000000E+03  0.00000000000E+00 0.  1.
         11   -1    0    0    0    0 -0.00000000000E+00 -0.00000000000E+00 -0.18250000000E+03  0.18250000000E+03  0.00000000000E+00 0.  1.
        -11    1    1    2    0    0 -0.28733420099E+01  0.76634813062E+00  0.18175695210E+03  0.18178127797E+03  0.00000000000E+00 0.  1.
         11    1    1    2    0    0  0.15044419403E+01  0.37716602588E+01 -0.14319093813E+03  0.14324850272E+03  0.00000000000E+00 0.  1.
        -15    1    1    2    0    0  0.42019824940E+01 -0.47097659763E+01 -0.31158118145E+02  0.31840612553E+02  0.17770000000E+01 0.  1.
         15    1    1    2    0    0 -0.28330824244E+01  0.17175758690E+00 -0.74078958164E+01  0.81296067629E+01  0.17770000000E+01 0.  1.
</event>
<event>
 6    1  0.1298204E-002  0.1863008E+03  0.7546771E-02  0.1065469E+00
        -11   -1    0    0    0    0  0.00000000000E+00  0.00000000000E+00  0.18250000000E+03  0.18250000000E+03  0.00000000000E+00 0.  1.
         11   -1    0    0    0    0 -0.00000000000E+00 -0.00000000000E+00 -0.18250000000E+03  0.18250000000E+03  0.00000000000E+00 0. -1.
        -11    1    1    2    0    0  0.14863177414E+01 -0.21030844098E+01  0.17868064706E+03  0.17869920464E+03  0.00000000000E+00 0.  1.
         11    1    1    2    0    0  0.87945762337E+00  0.23488139315E+01 -0.15960456300E+03  0.15962426790E+03  0.00000000000E+00 0. -1.
        -15    1    1    2    0    0 -0.14706509169E+01 -0.31837383126E+01 -0.21832301701E+02  0.22183465247E+02  0.17770000000E+01 0. -1.
         15    1    1    2    0    0 -0.89512444794E+00  0.29380087910E+01  0.27562176367E+01  0.44930622179E+01  0.17770000000E+01 0. -1.
</event>
<event>
 6    1  0.1298204E-002  0.1825718E+03  0.7546771E-02  0.1068398E+00
        -11   -1    0    0    0    0  0.00000000000E+00  0.00000000000E+00  0.18250000000E+03  0.18250000000E+03  0.00000000000E+00 0.  1.
         11   -1    0    0    0    0 -0.00000000000E+00 -0.00000000000E+00 -0.18250000000E+03  0.18250000000E+03  0.00000000000E+00 0.  1.
        -11    1    1    2    0    0 -0.25380748907E+01 -0.73785177583E+00  0.30685570831E+02  0.30799196526E+02  0.00000000000E+00 0.  1.
         11    1    1    2    0    0  0.25878636937E+01  0.33604828547E+01 -0.18237892418E+03  0.18242823758E+03  0.00000000000E+00 0.  1.
        -15    1    1    2    0    0 -0.52367298887E+00 -0.47567713963E+00  0.43093341630E+02  0.43135766181E+02  0.17770000000E+01 0.  1.
         15    1    1    2    0    0  0.47388418579E+00 -0.21469539392E+01  0.10860001172E+03  0.10863679971E+03  0.17770000000E+01 0.  1.
</event>
<event>
 6    1  0.1298204E-002  0.1913724E+03  0.7546771E-02  0.1061604E+00
        -11   -1    0    0    0    0  0.00000000000E+00  0.00000000000E+00  0.18250000000E+03  0.18250000000E+03  0.00000000000E+00 0. -1.
         11   -1    0    0    0    0 -0.00000000000E+00 -0.00000000000E+00 -0.18250000000E+03  0.18250000000E+03  0.00000000000E+00 0.  1.
        -11    1    1    2    0    0  0.40834980881E+01  0.18982169449E+02  0.17253850193E+03  0.17362756798E+03  0.00000000000E+00 0. -1.
         11    1    1    2    0    0 -0.23240437298E+01  0.28201076870E+01 -0.13156758477E+03  0.13161832528E+03  0.00000000000E+00 0.  1.
        -15    1    1    2    0    0  0.92356747703E+01 -0.25613945756E+02 -0.14763138447E+02  0.31023860035E+02  0.17770000000E+01 0. -1.
         15    1    1    2    0    0 -0.10995129129E+02  0.38116686202E+01 -0.26207778713E+02  0.28730246715E+02  0.17770000000E+01 0.  1.
</event>
<event>
 6    1  0.1298204E-002  0.1903981E+03  0.7546771E-02  0.1062336E+00
        -11   -1    0    0    0    0  0.00000000000E+00  0.00000000000E+00  0.18250000000E+03  0.18250000000E+03  0.00000000000E+00 0. -1.
         11   -1    0    0    0    0 -0.00000000000E+00 -0.00000000000E+00 -0.18250000000E+03  0.18250000000E+03  0.00000000000E+00 0.  1.
        -11    1    1    2    0    0 -0.45357398929E-01 -0.23373789157E+01  0.16002473295E+03  0.16004180876E+03  0.00000000000E+00 0. -1.
         11    1    1    2    0    0 -0.16232121491E+01  0.31744308014E+01 -0.17456554329E+03  0.17460194940E+03  0.00000000000E+00 0.  1.
        -15    1    1    2    0    0  0.69417113226E+00  0.20326738621E+01 -0.75186284526E+01  0.80187991244E+01  0.17770000000E+01 0. -1.
         15    1    1    2    0    0  0.97439841575E+00 -0.28697257478E+01  0.22059438796E+02  0.22337442717E+02  0.17770000000E+01 0.  1.
</event>
<event>
 6    1  0.1298204E-002  0.1829553E+03  0.7546771E-02  0.1068093E+00
        -11   -1    0    0    0    0  0.00000000000E+00  0.00000000000E+00  0.18250000000E+03  0.18250000000E+03  0.00000000000E+00 0.  1.
         11   -1    0    0    0    0 -0.00000000000E+00 -0.00000000000E+00 -0.18250000000E+03  0.18250000000E+03  0.00000000000E+00 0. -1.
        -11    1    1    2    0    0 -0.35799130126E+01 -0.48167375864E-01  0.12189492887E+03  0.12194749601E+03  0.00000000000E+00 0.  1.
         11    1    1    2    0    0 -0.16816413292E+01 -0.53286845249E+01 -0.18195889221E+03  0.18204466829E+03  0.00000000000E+00 0. -1.
        -15    1    1    2    0    0  0.34834237287E+01 -0.39587340649E-01  0.36095574022E+02  0.36306803784E+02  0.17770000000E+01 0. -1.
         15    1    1    2    0    0  0.17781306130E+01  0.54164392414E+01  0.23968389319E+02  0.24701031923E+02  0.17770000000E+01 0.  1.
</event>
<event>
 6    1  0.1298204E-002  0.1885832E+03  0.7546771E-02  0.1063713E+00
        -11   -1    0    0    0    0  0.00000000000E+00  0.00000000000E+00  0.18250000000E+03  0.18250000000E+03  0.00000000000E+00 0. -1.
         11   -1    0    0    0    0 -0.00000000000E+00 -0.00000000000E+00 -0.18250000000E+03  0.18250000000E+03  0.00000000000E+00 0. -1.
        -11    1    1    2    0    0  0.20344194428E+01  0.53944128737E+01  0.17632252754E+03  0.17641675734E+03  0.00000000000E+00 0. -1.
         11    1    1    2    0    0 -0.96401320418E+01  0.84403730073E+01 -0.97533139054E+02  0.98371160692E+02  0.00000000000E+00 0. -1.
        -15    1    1    2    0    0  0.22151655069E+02 -0.17925593970E+02 -0.55096383579E+02  0.62054749649E+02  0.17770000000E+01 0. -1.
         15    1    1    2    0    0 -0.14545942470E+02  0.40908080885E+01 -0.23693004903E+02  0.28157332322E+02  0.17770000000E+01 0.  1.
</event>
<event>
 6    1  0.1298204E-002  0.1854597E+03  0.7546771E-02  0.1066123E+00
        -11   -1    0    0    0    0  0.00000000000E+00  0.00000000000E+00  0.18250000000E+03  0.18250000000E+03  0.00000000000E+00 0. -1.
         11   -1    0    0    0    0 -0.00000000000E+00 -0.00000000000E+00 -0.18250000000E+03  0.18250000000E+03  0.00000000000E+00 0. -1.
        -11    1    1    2    0    0  0.58326131472E+01  0.52499119490E+01  0.11888682638E+03  0.11914553470E+03  0.00000000000E+00 0. -1.
         11    1    1    2    0    0  0.37366272904E+01 -0.89544591057E-01 -0.17950140052E+03  0.17954031077E+03  0.00000000000E+00 0. -1.
        -15    1    1    2    0    0 -0.76078023333E+00 -0.85341939727E+01  0.54238566407E+01  0.10295008654E+02  0.17770000000E+01 0.  1.
         15    1    1    2    0    0 -0.88084602042E+01  0.33738266148E+01  0.55190717504E+02  0.56019145877E+02  0.17770000000E+01 0. -1.
</event>
<event>
 6    1  0.1298204E-002  0.1840315E+03  0.7546771E-02  0.1067242E+00
        -11   -1    0    0    0    0  0.00000000000E+00  0.00000000000E+00  0.18250000000E+03  0.18250000000E+03  0.00000000000E+00 0.  1.
         11   -1    0    0    0    0 -0.00000000000E+00 -0.00000000000E+00 -0.18250000000E+03  0.18250000000E+03  0.00000000000E+00 0.  1.
        -11    1    1    2    0    0 -0.39028696924E+01  0.31421961457E+01  0.18089915349E+03  0.18096853185E+03  0.00000000000E+00 0.  1.
         11    1    1    2    0    0  0.99919258026E+00  0.16890859485E+01 -0.13683520135E+03  0.13684927375E+03  0.00000000000E+00 0.  1.
        -15    1    1    2    0    0  0.39183076646E+01  0.81388876784E+00 -0.39229993778E+02  0.39473607521E+02  0.17770000000E+01 0. -1.
         15    1    1    2    0    0 -0.10146305525E+01 -0.56451708621E+01 -0.48339583590E+01  0.77085868768E+01  0.17770000000E+01 0.  1.
</event>
<event>
 6    1  0.1298204E-002  0.1932124E+03  0.7546771E-02  0.1060234E+00
        -11   -1    0    0    0    0  0.00000000000E+00  0.00000000000E+00  0.18250000000E+03  0.18250000000E+03  0.00000000000E+00 0. -1.
         11   -1    0    0    0    0 -0.00000000000E+00 -0.00000000000E+00 -0.18250000000E+03  0.18250000000E+03  0.00000000000E+00 0.  1.
        -11    1    1    2    0    0 -0.18040166865E+01 -0.11852593407E+01  0.14207227854E+03  0.14208867529E+03  0.00000000000E+00 0. -1.
         11    1    1    2    0    0  0.31917053429E+01  0.20072829263E+01 -0.17174619707E+03  0.17178757923E+03  0.00000000000E+00 0.  1.
        -15    1    1    2    0    0  0.51833151346E+01  0.13658710457E+02  0.31744017079E+02  0.34989533813E+02  0.17770000000E+01 0.  1.
         15    1    1    2    0    0 -0.65710037910E+01 -0.14480734042E+02 -0.20700985487E+01  0.16134211671E+02  0.17770000000E+01 0. -1.
</event>
<event>
 6    1  0.1298204E-002  0.1852391E+03  0.7546771E-02  0.1066295E+00
        -11   -1    0    0    0    0  0.00000000000E+00  0.00000000000E+00  0.18250000000E+03  0.18250000000E+03  0.00000000000E+00 0. -1.
         11   -1    0    0    0    0 -0.00000000000E+00 -0.00000000000E+00 -0.18250000000E+03  0.18250000000E+03  0.00000000000E+00 0.  1.
        -11    1    1    2    0    0 -0.32731323222E+01 -0.38821192316E+00  0.15989842941E+03  0.15993239769E+03  0.00000000000E+00 0. -1.
         11    1    1    2    0    0  0.41935200873E+01  0.70996550515E+01 -0.17957166192E+03  0.17976087583E+03  0.00000000000E+00 0.  1.
        -15    1    1    2    0    0 -0.44968745268E+01 -0.73699407213E+01  0.51037627450E+01  0.10185481329E+02  0.17770000000E+01 0. -1.
         15    1    1    2    0    0  0.35764867617E+01  0.65849759290E+00  0.14569469770E+02  0.15121245154E+02  0.17770000000E+01 0.  1.
</event>
<event>
 6    1  0.1298204E-002  0.1841748E+03  0.7546771E-02  0.1067129E+00
        -11   -1    0    0    0    0  0.00000000000E+00  0.00000000000E+00  0.18250000000E+03  0.18250000000E+03  0.00000000000E+00 0. -1.
         11   -1    0    0    0    0 -0.00000000000E+00 -0.00000000000E+00 -0.18250000000E+03  0.18250000000E+03  0.00000000000E+00 0. -1.
        -11    1    1    2    0    0  0.11220489603E+02  0.38500622488E+01  0.10197857282E+03  0.10266621489E+03  0.00000000000E+00 0. -1.
         11    1    1    2    0    0  0.24988113587E+01 -0.31621796151E+01 -0.18078029119E+03  0.18082521152E+03  0.00000000000E+00 0. -1.
        -15    1    1    2    0    0 -0.16920918581E+00  0.55086077754E+01  0.24126292489E+02  0.24811471332E+02  0.17770000000E+01 0. -1.
         15    1    1    2    0    0 -0.13550091776E+02 -0.61964904091E+01  0.54675425879E+02  0.56697102259E+02  0.17770000000E+01 0.  1.
</event>
<event>
 6    1  0.1298204E-002  0.1846771E+03  0.7546771E-02  0.1066735E+00
        -11   -1    0    0    0    0  0.00000000000E+00  0.00000000000E+00  0.18250000000E+03  0.18250000000E+03  0.00000000000E+00 0.  1.
         11   -1    0    0    0    0 -0.00000000000E+00 -0.00000000000E+00 -0.18250000000E+03  0.18250000000E+03  0.00000000000E+00 0. -1.
        -11    1    1    2    0    0  0.61841008301E+00  0.23558506307E+01  0.16936345031E+03  0.16938096341E+03  0.00000000000E+00 0.  1.
         11    1    1    2    0    0 -0.43760448470E+01  0.10127478345E+01 -0.18026694578E+03  0.18032289696E+03  0.00000000000E+00 0. -1.
        -15    1    1    2    0    0  0.52713955969E+00 -0.26702744273E+01  0.11072537979E+02  0.11539803634E+02  0.17770000000E+01 0. -1.
         15    1    1    2    0    0  0.32304952043E+01 -0.69832403796E+00 -0.16904250815E+00  0.37563359936E+01  0.17770000000E+01 0. -1.
</event>
<event>
 6    1  0.1298204E-002  0.1873765E+03  0.7546771E-02  0.1064638E+00
        -11   -1    0    0    0    0  0.00000000000E+00  0.00000000000E+00  0.18250000000E+03  0.18250000000E+03  0.00000000000E+00 0.  1.
         11   -1    0    0    0    0 -0.00000000000E+00 -0.00000000000E+00 -0.18250000000E+03  0.18250000000E+03  0.00000000000E+00 0.  1.
        -11    1    1    2    0    0  0.74995984231E+00  0.37845675071E+01  0.16531272259E+03  0.16535773838E+03  0.00000000000E+00 0.  1.
         11    1    1    2    0    0  0.63408538725E+01 -0.30784916702E+01 -0.17748361120E+03  0.17762352261E+03  0.00000000000E+00 0.  1.
        -15    1    1    2    0    0 -0.41573369448E+01  0.65260937427E+01  0.61700330344E+00  0.79631508894E+01  0.17770000000E+01 0.  1.
         15    1    1    2    0    0 -0.29334767700E+01 -0.72321695796E+01  0.11553885309E+02  0.14055588124E+02  0.17770000000E+01 0. -1.
</event>
<event>
 6    1  0.1298204E-002  0.1852000E+03  0.7546771E-02  0.1066326E+00
        -11   -1    0    0    0    0  0.00000000000E+00  0.00000000000E+00  0.18250000000E+03  0.18250000000E+03  0.00000000000E+00 0.  1.
         11   -1    0    0    0    0 -0.00000000000E+00 -0.00000000000E+00 -0.18250000000E+03  0.18250000000E+03  0.00000000000E+00 0.  1.
        -11    1    1    2    0    0  0.69318771781E+01 -0.32099076251E+01  0.15917809211E+03  0.15936128588E+03  0.00000000000E+00 0.  1.
         11    1    1    2    0    0 -0.11510675339E+02 -0.44415165908E+01 -0.17937619059E+03  0.17980000130E+03  0.00000000000E+00 0.  1.
        -15    1    1    2    0    0  0.83783606796E+01  0.17458045325E+01  0.93995013456E+01  0.12835619022E+02  0.17770000000E+01 0.  1.
         15    1    1    2    0    0 -0.37995625187E+01  0.59056196834E+01  0.10798597134E+02  0.13003093795E+02  0.17770000000E+01 0. -1.
</event>
<event>
 6    1  0.1298204E-002  0.1846061E+03  0.7546771E-02  0.1066791E+00
        -11   -1    0    0    0    0  0.00000000000E+00  0.00000000000E+00  0.18250000000E+03  0.18250000000E+03  0.00000000000E+00 0.  1.
         11   -1    0    0    0    0 -0.00000000000E+00 -0.00000000000E+00 -0.18250000000E+03  0.18250000000E+03  0.00000000000E+00 0.  1.
        -11    1    1    2    0    0  0.21538119396E+01 -0.16684320908E+01  0.14250933692E+03  0.14253537694E+03  0.00000000000E+00 0.  1.
         11    1    1    2    0    0  0.51560774233E+01 -0.83085417058E+01 -0.18012869085E+03  0.18039390861E+03  0.00000000000E+00 0.  1.
        -15    1    1    2    0    0 -0.51832384891E+01  0.13319697534E+02  0.30540095726E+02  0.33765892252E+02  0.17770000000E+01 0.  1.
         15    1    1    2    0    0 -0.21266508738E+01 -0.33427237377E+01  0.70792581997E+01  0.83048221885E+01  0.17770000000E+01 0. -1.
</event>
<event>
 6    1  0.1298204E-002  0.1828406E+03  0.7546771E-02  0.1068184E+00
        -11   -1    0    0    0    0  0.00000000000E+00  0.00000000000E+00  0.18250000000E+03  0.18250000000E+03  0.00000000000E+00 0.  1.
         11   -1    0    0    0    0 -0.00000000000E+00 -0.00000000000E+00 -0.18250000000E+03  0.18250000000E+03  0.00000000000E+00 0. -1.
        -11    1    1    2    0    0  0.44018359829E+01  0.82178061984E+00  0.18210434239E+03  0.18215938900E+03  0.00000000000E+00 0.  1.
         11    1    1    2    0    0  0.18558006627E+01  0.16239306829E+01 -0.98879639338E+02  0.98910384806E+02  0.00000000000E+00 0. -1.
        -15    1    1    2    0    0 -0.71480788954E+01 -0.35025920657E+01 -0.73356438268E+02  0.73808454444E+02  0.17770000000E+01 0. -1.
         15    1    1    2    0    0  0.89044224985E+00  0.10568807630E+01 -0.98682647879E+01  0.10121771746E+02  0.17770000000E+01 0.  1.
</event>
<event>
 6    1  0.1298204E-002  0.1826211E+03  0.7546771E-02  0.1068358E+00
        -11   -1    0    0    0    0  0.00000000000E+00  0.00000000000E+00  0.18250000000E+03  0.18250000000E+03  0.00000000000E+00 0.  1.
         11   -1    0    0    0    0 -0.00000000000E+00 -0.00000000000E+00 -0.18250000000E+03  0.18250000000E+03  0.00000000000E+00 0.  1.
        -11    1    1    2    0    0  0.33801140443E+01  0.87827020474E+00  0.18234545953E+03  0.18237889993E+03  0.00000000000E+00 0.  1.
         11    1    1    2    0    0 -0.20451118446E+01 -0.13075334362E+00 -0.38336088191E+02  0.38390822298E+02  0.00000000000E+00 0.  1.
        -15    1    1    2    0    0  0.19462098478E+01  0.11458660818E+01 -0.28359144676E+02  0.28504377867E+02  0.17770000000E+01 0. -1.
         15    1    1    2    0    0 -0.32812120475E+01 -0.18933829429E+01 -0.11565022666E+03  0.11572589990E+03  0.17770000000E+01 0.  1.
</event>
<event>
 6    1  0.1298204E-002  0.1829390E+03  0.7546771E-02  0.1068106E+00
        -11   -1    0    0    0    0  0.00000000000E+00  0.00000000000E+00  0.18250000000E+03  0.18250000000E+03  0.00000000000E+00 0.  1.
         11   -1    0    0    0    0 -0.00000000000E+00 -0.00000000000E+00 -0.18250000000E+03  0.18250000000E+03  0.00000000000E+00 0. -1.
        -11    1    1    2    0    0  0.41116524680E+01 -0.10566835206E+02  0.18170757720E+03  0.18206099885E+03  0.00000000000E+00 0.  1.
         11    1    1    2    0    0 -0.36849447006E+01 -0.10858853084E+01 -0.42651469479E+02  0.42824126530E+02  0.00000000000E+00 0. -1.
        -15    1    1    2    0    0  0.32900426146E+01  0.58650459156E+01 -0.10935417900E+03  0.10957516752E+03  0.17770000000E+01 0. -1.
         15    1    1    2    0    0 -0.37167503819E+01  0.57876745983E+01 -0.29701928723E+02  0.30539707097E+02  0.17770000000E+01 0.  1.
</event>
<event>
 6    1  0.1298204E-002  0.1838666E+03  0.7546771E-02  0.1067372E+00
        -11   -1    0    0    0    0  0.00000000000E+00  0.00000000000E+00  0.18250000000E+03  0.18250000000E+03  0.00000000000E+00 0.  1.
         11   -1    0    0    0    0 -0.00000000000E+00 -0.00000000000E+00 -0.18250000000E+03  0.18250000000E+03  0.00000000000E+00 0.  1.
        -11    1    1    2    0    0 -0.12414726448E+02 -0.14976478282E+02  0.65778327718E+02  0.68594524067E+02  0.00000000000E+00 0.  1.
         11    1    1    2    0    0  0.14383729530E+02  0.17759235514E+02 -0.17968591584E+03  0.18113340518E+03  0.00000000000E+00 0.  1.
        -15    1    1    2    0    0  0.15415384459E+00 -0.72353898687E+01  0.22252412968E+02  0.23467045869E+02  0.17770000000E+01 0.  1.
         15    1    1    2    0    0 -0.21231569267E+01  0.44526326363E+01  0.91655175153E+02  0.91805024884E+02  0.17770000000E+01 0. -1.
</event>
<event>
 6    1  0.1298204E-002  0.1910046E+03  0.7546771E-02  0.1061880E+00
        -11   -1    0    0    0    0  0.00000000000E+00  0.00000000000E+00  0.18250000000E+03  0.18250000000E+03  0.00000000000E+00 0. -1.
         11   -1    0    0    0    0 -0.00000000000E+00 -0.00000000000E+00 -0.18250000000E+03  0.18250000000E+03  0.00000000000E+00 0. -1.
        -11    1    1    2    0    0 -0.10450045691E+01  0.31277988919E+01  0.17396415392E+03  0.17399540801E+03  0.00000000000E+00 0. -1.
         11    1    1    2    0    0  0.28269935644E+01  0.59590353296E+00 -0.16932693306E+03  0.16935157883E+03  0.00000000000E+00 0. -1.
        -15    1    1    2    0    0 -0.65640396541E+01 -0.55817229917E+01  0.53419024846E+01  0.10292516665E+02  0.17770000000E+01 0.  1.
         15    1    1    2    0    0  0.47820506588E+01  0.18580205668E+01 -0.99791233460E+01  0.11360496498E+02  0.17770000000E+01 0. -1.
</event>
<event>
 6    1  0.1298204E-002  0.1827157E+03  0.7546771E-02  0.1068283E+00
        -11   -1    0    0    0    0  0.00000000000E+00  0.00000000000E+00  0.18250000000E+03  0.18250000000E+03  0.00000000000E+00 0.  1.
         11   -1    0    0    0    0 -0.00000000000E+00 -0.00000000000E+00 -0.18250000000E+03  0.18250000000E+03  0.00000000000E+00 0. -1.
        -11    1    1    2    0    0  0.29586236505E+01 -0.56474138990E+01  0.18217278875E+03  0.18228431556E+03  0.00000000000E+00 0.  1.
         11    1    1    2    0    0 -0.27252381770E+00 -0.11994625801E+01 -0.19283777655E+02  0.19322967173E+02  0.00000000000E+00 0. -1.
        -15    1    1    2    0    0  0.34811128386E+01  0.10540577188E+01 -0.63192343972E+02  0.63321870234E+02  0.17770000000E+01 0.  1.
         15    1    1    2    0    0 -0.61672126714E+01  0.57928187603E+01 -0.99696667124E+02  0.10007084703E+03  0.17770000000E+01 0. -1.
</event>
<event>
 6    1  0.1298204E-002  0.1870065E+03  0.7546771E-02  0.1064923E+00
        -11   -1    0    0    0    0  0.00000000000E+00  0.00000000000E+00  0.18250000000E+03  0.18250000000E+03  0.00000000000E+00 0. -1.
         11   -1    0    0    0    0 -0.00000000000E+00 -0.00000000000E+00 -0.18250000000E+03  0.18250000000E+03  0.00000000000E+00 0.  1.
        -11    1    1    2    0    0  0.62996159567E+01  0.12422994649E+01  0.15657370151E+03  0.15670530455E+03  0.00000000000E+00 0. -1.
         11    1    1    2    0    0 -0.32283553898E+01  0.51024618199E+01 -0.17789109836E+03  0.17799353997E+03  0.00000000000E+00 0.  1.
        -15    1    1    2    0    0  0.51397966395E+01  0.10299678137E+01  0.17709869096E+02  0.18554663446E+02  0.17770000000E+01 0.  1.
         15    1    1    2    0    0 -0.82110572064E+01 -0.73747290985E+01  0.36075277557E+01  0.11746492039E+02  0.17770000000E+01 0. -1.
</event>
<event>
 6    1  0.1298204E-002  0.1844430E+03  0.7546771E-02  0.1066919E+00
        -11   -1    0    0    0    0  0.00000000000E+00  0.00000000000E+00  0.18250000000E+03  0.18250000000E+03  0.00000000000E+00 0. -1.
         11   -1    0    0    0    0 -0.00000000000E+00 -0.00000000000E+00 -0.18250000000E+03  0.18250000000E+03  0.00000000000E+00 0.  1.
        -11    1    1    2    0    0 -0.37624672500E+01  0.26411755667E+00  0.18051760242E+03  0.18055700125E+03  0.00000000000E+00 0. -1.
         11    1    1    2    0    0 -0.18607244339E+01 -0.17738126465E+01 -0.84585046576E+02  0.84624103014E+02  0.00000000000E+00 0.  1.
        -15    1    1    2    0    0  0.76461241020E+01  0.13101014328E+02 -0.45244887495E+02  0.47753087478E+02  0.17770000000E+01 0.  1.
         15    1    1    2    0    0 -0.20229324181E+01 -0.11591319238E+02 -0.50687668351E+02  0.52065808253E+02  0.17770000000E+01 0. -1.
</event>
<event>
 6    1  0.1298204E-002  0.1839883E+03  0.7546771E-02  0.1067276E+00
        -11   -1    0    0    0    0  0.00000000000E+00  0.00000000000E+00  0.18250000000E+03  0.18250000000E+03  0.00000000000E+00 0. -1.
         11   -1    0    0    0    0 -0.00000000000E+00 -0.00000000000E+00 -0.18250000000E+03  0.18250000000E+03  0.00000000000E+00 0. -1.
        -11    1    1    2    0    0  0.23825516396E+01 -0.28093931389E+01  0.15989136988E+03  0.15993379695E+03  0.00000000000E+00 0. -1.
         11    1    1    2    0    0 -0.44369373955E+01 -0.11347611087E+01 -0.18095379504E+03  0.18101174005E+03  0.00000000000E+00 0. -1.
        -15    1    1    2    0    0  0.37614588762E+01  0.16287420539E+01  0.23672670551E+01  0.50559920753E+01  0.17770000000E+01 0. -1.
         15    1    1    2    0    0 -0.17070731203E+01  0.23154121937E+01  0.18695158101E+02  0.18998470930E+02  0.17770000000E+01 0. -1.
</event>
<event>
 6    1  0.1298204E-002  0.1859678E+03  0.7546771E-02  0.1065727E+00
        -11   -1    0    0    0    0  0.00000000000E+00  0.00000000000E+00  0.18250000000E+03  0.18250000000E+03  0.00000000000E+00 0.  1.
         11   -1    0    0    0    0 -0.00000000000E+00 -0.00000000000E+00 -0.18250000000E+03  0.18250000000E+03  0.00000000000E+00 0. -1.
        -11    1    1    2    0    0  0.25471543075E+01  0.48704431673E+01  0.17894777831E+03  0.17903216631E+03  0.00000000000E+00 0.  1.
         11    1    1    2    0    0 -0.25253714426E+01 -0.92546036263E-01 -0.16514677812E+03  0.16516611150E+03  0.00000000000E+00 0. -1.
        -15    1    1    2    0    0 -0.13471734831E+01 -0.35543435130E+01  0.21057543561E+01  0.46946953692E+01  0.17770000000E+01 0.  1.
         15    1    1    2    0    0  0.13253906181E+01 -0.12235536181E+01 -0.15906754544E+02  0.16107026817E+02  0.17770000000E+01 0. -1.
</event>
<event>
 6    1  0.1298204E-002  0.1827648E+03  0.7546771E-02  0.1068244E+00
        -11   -1    0    0    0    0  0.00000000000E+00  0.00000000000E+00  0.18250000000E+03  0.18250000000E+03  0.00000000000E+00 0. -1.
         11   -1    0    0    0    0 -0.00000000000E+00 -0.00000000000E+00 -0.18250000000E+03  0.18250000000E+03  0.00000000000E+00 0. -1.
        -11    1    1    2    0    0 -0.13133487862E+01 -0.26353030211E+01  0.13078988775E+03  0.13082302720E+03  0.00000000000E+00 0. -1.
         11    1    1    2    0    0 -0.35668164418E+01  0.43573817123E+01 -0.18214820628E+03  0.18223522713E+03  0.00000000000E+00 0. -1.
        -15    1    1    2    0    0  0.46126097935E+01 -0.22072270190E+01  0.44751163987E+02  0.45077404844E+02  0.17770000000E+01 0. -1.
         15    1    1    2    0    0  0.26755543451E+00  0.48514832780E+00  0.66071545447E+01  0.68643408269E+01  0.17770000000E+01 0. -1.
</event>
<event>
 6    1  0.1298204E-002  0.1830410E+03  0.7546771E-02  0.1068025E+00
        -11   -1    0    0    0    0  0.00000000000E+00  0.00000000000E+00  0.18250000000E+03  0.18250000000E+03  0.00000000000E+00 0. -1.
         11   -1    0    0    0    0 -0.00000000000E+00 -0.00000000000E+00 -0.18250000000E+03  0.18250000000E+03  0.00000000000E+00 0.  1.
        -11    1    1    2    0    0 -0.52068813916E+01  0.25642406506E+01  0.18186639213E+03  0.18195898310E+03  0.00000000000E+00 0. -1.
         11    1    1    2    0    0  0.60518761480E+00  0.19715951495E+01 -0.13803379607E+03  0.13804920245E+03  0.00000000000E+00 0.  1.
        -15    1    1    2    0    0  0.16053524392E+01 -0.22503420953E+01 -0.53102714061E+01  0.62448304546E+01  0.17770000000E+01 0. -1.
         15    1    1    2    0    0  0.29963413376E+01 -0.22854937048E+01 -0.38522324652E+02  0.38746983992E+02  0.17770000000E+01 0.  1.
</event>
<event>
 6    1  0.1298204E-002  0.1997883E+03  0.7546771E-02  0.1055470E+00
        -11   -1    0    0    0    0  0.00000000000E+00  0.00000000000E+00  0.18250000000E+03  0.18250000000E+03  0.00000000000E+00 0.  1.
         11   -1    0    0    0    0 -0.00000000000E+00 -0.00000000000E+00 -0.18250000000E+03  0.18250000000E+03  0.00000000000E+00 0.  1.
        -11    1    1    2    0    0  0.24697000594E+01 -0.10346406172E+01  0.13512866965E+03  0.13515519694E+03  0.00000000000E+00 0.  1.
         11    1    1    2    0    0  0.18906264099E+01 -0.19803073816E+01 -0.16518899950E+03  0.16521168736E+03  0.00000000000E+00 0.  1.
        -15    1    1    2    0    0 -0.15217357302E+02  0.22562842105E+01  0.44123335497E+02  0.46762006438E+02  0.17770000000E+01 0.  1.
         15    1    1    2    0    0  0.10857030833E+02  0.75866378838E+00 -0.14063005650E+02  0.17871109259E+02  0.17770000000E+01 0. -1.
</event>
<event>
 6    1  0.1298204E-002  0.1837999E+03  0.7546771E-02  0.1067425E+00
        -11   -1    0    0    0    0  0.00000000000E+00  0.00000000000E+00  0.18250000000E+03  0.18250000000E+03  0.00000000000E+00 0.  1.
         11   -1    0    0    0    0 -0.00000000000E+00 -0.00000000000E+00 -0.18250000000E+03  0.18250000000E+03  0.00000000000E+00 0.  1.
        -11    1    1    2    0    0 -0.17076027706E+01 -0.29053163213E+01  0.18116871681E+03  0.18120005718E+03  0.00000000000E+00 0.  1.
         11    1    1    2    0    0  0.27090194249E+01 -0.31450800963E+01 -0.13950595378E+03  0.13956769488E+03  0.00000000000E+00 0.  1.
        -15    1    1    2    0    0  0.16798748368E+00 -0.60952894001E+00  0.99561459478E-01  0.18887527121E+01  0.17770000000E+01 0.  1.
         15    1    1    2    0    0 -0.11694041380E+01  0.66599253577E+01 -0.41762324493E+02  0.42343495225E+02  0.17770000000E+01 0.  1.
</event>
<event>
 6    1  0.1314221E-002  0.1848446E+03  0.7546771E-02  0.1066604E+00
        -11   -1    0    0    0    0  0.00000000000E+00  0.00000000000E+00  0.18250000000E+03  0.18250000000E+03  0.00000000000E+00 0.  1.
         11   -1    0    0    0    0 -0.00000000000E+00 -0.00000000000E+00 -0.18250000000E+03  0.18250000000E+03  0.00000000000E+00 0. -1.
        -11    1    1    2    0    0  0.19317303954E+01 -0.17934924615E+01  0.13200074360E+03  0.13202705976E+03  0.00000000000E+00 0.  1.
         11    1    1    2    0    0  0.77384578895E+01  0.16798752175E+01 -0.17998130602E+03  0.18015542242E+03  0.00000000000E+00 0. -1.
        -15    1    1    2    0    0 -0.70645842765E+00  0.95526727530E+00  0.41566255989E+02  0.41621184330E+02  0.17770000000E+01 0.  1.
         15    1    1    2    0    0 -0.89637298572E+01 -0.84165003126E+00  0.64143064251E+01  0.11196333491E+02  0.17770000000E+01 0.  1.
</event>
<event>
 6    1  0.1298204E-002  0.1829522E+03  0.7546771E-02  0.1068095E+00
        -11   -1    0    0    0    0  0.00000000000E+00  0.00000000000E+00  0.18250000000E+03  0.18250000000E+03  0.00000000000E+00 0. -1.
         11   -1    0    0    0    0 -0.00000000000E+00 -0.00000000000E+00 -0.18250000000E+03  0.18250000000E+03  0.00000000000E+00 0.  1.
        -11    1    1    2    0    0 -0.11939306137E+01 -0.36110679240E+01  0.19975288296E+02  0.20334144299E+02  0.00000000000E+00 0. -1.
         11    1    1    2    0    0 -0.10667799905E+02 -0.30260483346E+01 -0.18170975590E+03  0.18204778031E+03  0.00000000000E+00 0.  1.
        -15    1    1    2    0    0  0.68102682592E+01  0.58435299848E+01  0.13666359101E+03  0.13696941788E+03  0.17770000000E+01 0. -1.
         15    1    1    2    0    0  0.50514622599E+01  0.79358627387E+00  0.25070876597E+02  0.25648657518E+02  0.17770000000E+01 0.  1.
</event>
<event>
 6    1  0.1298204E-002  0.1859439E+03  0.7546771E-02  0.1065746E+00
        -11   -1    0    0    0    0  0.00000000000E+00  0.00000000000E+00  0.18250000000E+03  0.18250000000E+03  0.00000000000E+00 0. -1.
         11   -1    0    0    0    0 -0.00000000000E+00 -0.00000000000E+00 -0.18250000000E+03  0.18250000000E+03  0.00000000000E+00 0.  1.
        -11    1    1    2    0    0 -0.14092783763E+02 -0.19134989783E+01  0.15900924579E+03  0.15964400483E+03  0.00000000000E+00 0. -1.
         11    1    1    2    0    0 -0.11305582812E+01 -0.31199080760E+01 -0.17902534876E+03  0.17905610150E+03  0.00000000000E+00 0.  1.
        -15    1    1    2    0    0  0.13313886412E+02  0.52844094880E+01  0.17174460201E+02  0.22434445998E+02  0.17770000000E+01 0. -1.
         15    1    1    2    0    0  0.19094556321E+01 -0.25100243373E+00  0.28416427686E+01  0.38654476658E+01  0.17770000000E+01 0. -1.
</event>
<event>
 6    1  0.1298204E-002  0.1841687E+03  0.7546771E-02  0.1067134E+00
        -11   -1    0    0    0    0  0.00000000000E+00  0.00000000000E+00  0.18250000000E+03  0.18250000000E+03  0.00000000000E+00 0. -1.
         11   -1    0    0    0    0 -0.00000000000E+00 -0.00000000000E+00 -0.18250000000E+03  0.18250000000E+03  0.00000000000E+00 0. -1.
        -11    1    1    2    0    0  0.33810015870E+01  0.27845092812E+01  0.18077827830E+03  0.18083133183E+03  0.00000000000E+00 0. -1.
         11    1    1    2    0    0 -0.78297955437E+00 -0.28002768404E+01 -0.11186142871E+03  0.11189921286E+03  0.00000000000E+00 0. -1.
        -15    1    1    2    0    0 -0.77554789871E+00  0.61065959380E+01 -0.63237614817E+02  0.63561353394E+02  0.17770000000E+01 0. -1.
         15    1    1    2    0    0 -0.18224741339E+01 -0.60908283788E+01 -0.56792347801E+01  0.87081019170E+01  0.17770000000E+01 0.  1.
</event>
<event>
 6    1  0.1298204E-002  0.1837353E+03  0.7546771E-02  0.1067476E+00
        -11   -1    0    0    0    0  0.00000000000E+00  0.00000000000E+00  0.18250000000E+03  0.18250000000E+03  0.00000000000E+00 0.  1.
         11   -1    0    0    0    0 -0.00000000000E+00 -0.00000000000E+00 -0.18250000000E+03  0.18250000000E+03  0.00000000000E+00 0.  1.
        -11    1    1    2    0    0  0.32476820519E+01  0.39867182470E+00  0.18123519377E+03  0.18126472862E+03  0.00000000000E+00 0.  1.
         11    1    1    2    0    0 -0.34907994361E+01 -0.32116103524E+01 -0.17540171000E+03  0.17546583711E+03  0.00000000000E+00 0.  1.
        -15    1    1    2    0    0  0.10248848925E+01  0.78301320614E-01 -0.76271178822E+00  0.21899722399E+01  0.17770000000E+01 0.  1.
         15    1    1    2    0    0 -0.78176750834E+00  0.27346372071E+01 -0.50707719835E+01  0.60794620322E+01  0.17770000000E+01 0.  1.
</event>
<event>
 6    1  0.1298204E-002  0.1851917E+03  0.7546771E-02  0.1066332E+00
        -11   -1    0    0    0    0  0.00000000000E+00  0.00000000000E+00  0.18250000000E+03  0.18250000000E+03  0.00000000000E+00 0. -1.
         11   -1    0    0    0    0 -0.00000000000E+00 -0.00000000000E+00 -0.18250000000E+03  0.18250000000E+03  0.00000000000E+00 0.  1.
        -11    1    1    2    0    0  0.90150118081E+01 -0.68080327262E+00  0.17958083291E+03  0.17980825754E+03  0.00000000000E+00 0. -1.
         11    1    1    2    0    0 -0.15072370660E+01  0.22314884715E+01 -0.15426956778E+03  0.15429306804E+03  0.00000000000E+00 0.  1.
        -15    1    1    2    0    0  0.15940150035E+01 -0.26270655388E+01 -0.19676488346E+02  0.19994106127E+02  0.17770000000E+01 0. -1.
         15    1    1    2    0    0 -0.91017897456E+01  0.10763803400E+01 -0.56347767843E+01  0.10904568291E+02  0.17770000000E+01 0. -1.
</event>
<event>
 6    1  0.1298204E-002  0.1826870E+03  0.7546771E-02  0.1068306E+00
        -11   -1    0    0    0    0  0.00000000000E+00  0.00000000000E+00  0.18250000000E+03  0.18250000000E+03  0.00000000000E+00 0. -1.
         11   -1    0    0    0    0 -0.00000000000E+00 -0.00000000000E+00 -0.18250000000E+03  0.18250000000E+03  0.00000000000E+00 0.  1.
        -11    1    1    2    0    0 -0.75132947810E+01  0.14962853082E+00  0.18215806111E+03  0.18231300342E+03  0.00000000000E+00 0. -1.
         11    1    1    2    0    0 -0.95747658682E+00  0.26750050934E+00 -0.57399912049E+02  0.57408520458E+02  0.00000000000E+00 0.  1.
        -15    1    1    2    0    0  0.68499029769E+01  0.46922001301E+00 -0.11395114186E+03  0.11417163308E+03  0.17770000000E+01 0.  1.
         15    1    1    2    0    0  0.16208683909E+01 -0.88634905317E+00 -0.10807007198E+02  0.11106843051E+02  0.17770000000E+01 0. -1.
</event>
<event>
 6    1  0.1298204E-002  0.1833418E+03  0.7546771E-02  0.1067787E+00
        -11   -1    0    0    0    0  0.00000000000E+00  0.00000000000E+00  0.18250000000E+03  0.18250000000E+03  0.00000000000E+00 0. -1.
         11   -1    0    0    0    0 -0.00000000000E+00 -0.00000000000E+00 -0.18250000000E+03  0.18250000000E+03  0.00000000000E+00 0.  1.
        -11    1    1    2    0    0  0.64392913822E+00  0.28044506464E+01  0.18163545906E+03  0.18165824940E+03  0.00000000000E+00 0. -1.
         11    1    1    2    0    0 -0.25338942035E+01 -0.15426021840E+01 -0.10042110784E+03  0.10046491497E+03  0.00000000000E+00 0.  1.
        -15    1    1    2    0    0  0.22005592967E+00 -0.13464581870E+01 -0.80205074632E+02  0.80236357719E+02  0.17770000000E+01 0.  1.
         15    1    1    2    0    0  0.16699091356E+01  0.84609724578E-01 -0.10092765935E+01  0.26404779054E+01  0.17770000000E+01 0.  1.
</event>
<event>
 6    1  0.1298204E-002  0.1875807E+03  0.7546771E-02  0.1064481E+00
        -11   -1    0    0    0    0  0.00000000000E+00  0.00000000000E+00  0.18250000000E+03  0.18250000000E+03  0.00000000000E+00 0. -1.
         11   -1    0    0    0    0 -0.00000000000E+00 -0.00000000000E+00 -0.18250000000E+03  0.18250000000E+03  0.00000000000E+00 0. -1.
        -11    1    1    2    0    0  0.97492593523E+00  0.41035914816E+01  0.13577756474E+03  0.13584306030E+03  0.00000000000E+00 0. -1.
         11    1    1    2    0    0  0.24327562322E+01 -0.20481379261E+01 -0.17739083458E+03  0.17741933763E+03  0.00000000000E+00 0. -1.
        -15    1    1    2    0    0 -0.13099288122E+02 -0.10761686641E+02  0.28222005966E+02  0.32970359392E+02  0.17770000000E+01 0.  1.
         15    1    1    2    0    0  0.96916059546E+01  0.87062330855E+01  0.13391263876E+02  0.18767242678E+02  0.17770000000E+01 0. -1.
</event>
<event>
 6    1  0.1298204E-002  0.1828042E+03  0.7546771E-02  0.1068213E+00
        -11   -1    0    0    0    0  0.00000000000E+00  0.00000000000E+00  0.18250000000E+03  0.18250000000E+03  0.00000000000E+00 0.  1.
         11   -1    0    0    0    0 -0.00000000000E+00 -0.00000000000E+00 -0.18250000000E+03  0.18250000000E+03  0.00000000000E+00 0. -1.
        -11    1    1    2    0    0 -0.11388243495E+01  0.27336347675E+01  0.12928216556E+03  0.12931607794E+03  0.00000000000E+00 0.  1.
         11    1    1    2    0    0  0.50956309253E+01  0.15327568002E+01 -0.18211810634E+03  0.18219582721E+03  0.00000000000E+00 0. -1.
        -15    1    1    2    0    0 -0.34815225072E+01 -0.10883399244E+01  0.17615539633E+02  0.18076793088E+02  0.17770000000E+01 0. -1.
         15    1    1    2    0    0 -0.47528406859E+00 -0.31780516433E+01  0.35220401140E+02  0.35411301765E+02  0.17770000000E+01 0.  1.
</event>
<event>
 6    1  0.1298204E-002  0.1866694E+03  0.7546771E-02  0.1065184E+00
        -11   -1    0    0    0    0  0.00000000000E+00  0.00000000000E+00  0.18250000000E+03  0.18250000000E+03  0.00000000000E+00 0. -1.
         11   -1    0    0    0    0 -0.00000000000E+00 -0.00000000000E+00 -0.18250000000E+03  0.18250000000E+03  0.00000000000E+00 0. -1.
        -11    1    1    2    0    0 -0.16583460511E+00 -0.56002269419E+01  0.11968073255E+03  0.11981180154E+03  0.00000000000E+00 0. -1.
         11    1    1    2    0    0  0.17283426783E+01 -0.38254071644E+01 -0.17828123722E+03  0.17833064922E+03  0.00000000000E+00 0. -1.
        -15    1    1    2    0    0 -0.12601051729E+02 -0.38546318705E+01  0.15677992647E+02  0.20557282748E+02  0.17770000000E+01 0.  1.
         15    1    1    2    0    0  0.11038543656E+02  0.13280265977E+02  0.42922512017E+02  0.46300266493E+02  0.17770000000E+01 0. -1.
</event>
<event>
 6    1  0.1298204E-002  0.1830648E+03  0.7546771E-02  0.1068006E+00
        -11   -1    0    0    0    0  0.00000000000E+00  0.00000000000E+00  0.18250000000E+03  0.18250000000E+03  0.00000000000E+00 0. -1.
         11   -1    0    0    0    0 -0.00000000000E+00 -0.00000000000E+00 -0.18250000000E+03  0.18250000000E+03  0.00000000000E+00 0.  1.
        -11    1    1    2    0    0 -0.14888710733E+01 -0.34854433795E+01  0.12169774966E+03  0.12175675474E+03  0.00000000000E+00 0. -1.
         11    1    1    2    0    0  0.23314466474E+01 -0.25313266636E+01 -0.18190269781E+03  0.18193524872E+03  0.00000000000E+00 0.  1.
        -15    1    1    2    0    0 -0.19729713101E+01  0.27693947343E+01  0.71696710931E+01  0.81316711424E+01  0.17770000000E+01 0. -1.
         15    1    1    2    0    0  0.11303957360E+01  0.32473753088E+01  0.53035277060E+02  0.53176325397E+02  0.17770000000E+01 0. -1.
</event>
<event>
 6    1  0.1298204E-002  0.1852193E+03  0.7546771E-02  0.1066311E+00
        -11   -1    0    0    0    0  0.00000000000E+00  0.00000000000E+00  0.18250000000E+03  0.18250000000E+03  0.00000000000E+00 0. -1.
         11   -1    0    0    0    0 -0.00000000000E+00 -0.00000000000E+00 -0.18250000000E+03  0.18250000000E+03  0.00000000000E+00 0.  1.
        -11    1    1    2    0    0 -0.75316043452E+00  0.31562272007E+01  0.17975139811E+03  0.17978068346E+03  0.00000000000E+00 0. -1.
         11    1    1    2    0    0 -0.37897827053E+01  0.66740670107E+00 -0.15513766423E+03  0.15518538188E+03  0.00000000000E+00 0.  1.
        -15    1    1    2    0    0  0.67258631257E+01  0.13724450695E+01 -0.31274566736E+01  0.77498099654E+01  0.17770000000E+01 0. -1.
         15    1    1    2    0    0 -0.21829199859E+01 -0.51960789712E+01 -0.21486277208E+02  0.22284124699E+02  0.17770000000E+01 0.  1.
</event>
<event>
 6    1  0.1298204E-002  0.1833530E+03  0.7546771E-02  0.1067778E+00
        -11   -1    0    0    0    0  0.00000000000E+00  0.00000000000E+00  0.18250000000E+03  0.18250000000E+03  0.00000000000E+00 0.  1.
         11   -1    0    0    0    0 -0.00000000000E+00 -0.00000000000E+00 -0.18250000000E+03  0.18250000000E+03  0.00000000000E+00 0.  1.
        -11    1    1    2    0    0  0.15669794201E+01  0.20595445038E+01  0.15577460170E+03  0.15579609650E+03  0.00000000000E+00 0.  1.
         11    1    1    2    0    0  0.15343494294E+01 -0.62713430434E+01 -0.18153222026E+03  0.18164699547E+03  0.00000000000E+00 0.  1.
        -15    1    1    2    0    0  0.75009483315E+00  0.50506529135E+01  0.15857427282E+02  0.16753729916E+02  0.17770000000E+01 0. -1.
         15    1    1    2    0    0 -0.38514236826E+01 -0.83885437400E+00  0.99001912777E+01  0.10803178115E+02  0.17770000000E+01 0.  1.
</event>
<event>
 6    1  0.1298204E-002  0.1475839E+03  0.7546771E-02  0.1100240E+00
        -11   -1    0    0    0    0  0.00000000000E+00  0.00000000000E+00  0.18250000000E+03  0.18250000000E+03  0.00000000000E+00 0. -1.
         11   -1    0    0    0    0 -0.00000000000E+00 -0.00000000000E+00 -0.18250000000E+03  0.18250000000E+03  0.00000000000E+00 0. -1.
        -11    1    1    2    0    0 -0.14975519687E+02  0.15516810928E+02  0.15709231732E+03  0.15856555040E+03  0.00000000000E+00 0. -1.
         11    1    1    2    0    0 -0.52608467646E+01  0.21061174036E+02 -0.13843899367E+03  0.14013066947E+03  0.00000000000E+00 0. -1.
        -15    1    1    2    0    0  0.82358029101E+00 -0.12024893406E+02 -0.30457938326E+02  0.32804269265E+02  0.17770000000E+01 0.  1.
         15    1    1    2    0    0  0.19412786160E+02 -0.24553091558E+02  0.11804614670E+02  0.33499510863E+02  0.17770000000E+01 0. -1.
</event>
<event>
 6    1  0.1298204E-002  0.1780485E+03  0.7546771E-02  0.1072054E+00
        -11   -1    0    0    0    0  0.00000000000E+00  0.00000000000E+00  0.18250000000E+03  0.18250000000E+03  0.00000000000E+00 0.  1.
         11   -1    0    0    0    0 -0.00000000000E+00 -0.00000000000E+00 -0.18250000000E+03  0.18250000000E+03  0.00000000000E+00 0. -1.
        -11    1    1    2    0    0  0.23187444550E-01  0.52801545359E+00  0.10175508209E+02  0.10189224960E+02  0.00000000000E+00 0.  1.
         11    1    1    2    0    0 -0.64520755928E+00  0.38129655911E+01 -0.18170740275E+03  0.18174854941E+03  0.00000000000E+00 0. -1.
        -15    1    1    2    0    0  0.88141490570E+01  0.27996693023E+01  0.41043358134E+02  0.42109884205E+02  0.17770000000E+01 0. -1.
         15    1    1    2    0    0 -0.81921289423E+01 -0.71406503470E+01  0.13048853640E+03  0.13095234143E+03  0.17770000000E+01 0.  1.
</event>
<event>
 6    1  0.1298204E-002  0.1873764E+03  0.7546771E-02  0.1064638E+00
        -11   -1    0    0    0    0  0.00000000000E+00  0.00000000000E+00  0.18250000000E+03  0.18250000000E+03  0.00000000000E+00 0.  1.
         11   -1    0    0    0    0 -0.00000000000E+00 -0.00000000000E+00 -0.18250000000E+03  0.18250000000E+03  0.00000000000E+00 0.  1.
        -11    1    1    2    0    0  0.51874511022E+01  0.51446195250E+01  0.17747326988E+03  0.17762358593E+03  0.00000000000E+00 0.  1.
         11    1    1    2    0    0 -0.83316964983E+01 -0.16459482299E+02 -0.13814441235E+03  0.13937076590E+03  0.00000000000E+00 0.  1.
        -15    1    1    2    0    0  0.60446384586E+01  0.93329513929E+01 -0.32604705202E+01  0.11723055609E+02  0.17770000000E+01 0. -1.
         15    1    1    2    0    0 -0.29003930624E+01  0.19819113808E+01 -0.36068387003E+02  0.36282592556E+02  0.17770000000E+01 0.  1.
</event>
<event>
 6    1  0.1298204E-002  0.1825949E+03  0.7546771E-02  0.1068379E+00
        -11   -1    0    0    0    0  0.00000000000E+00  0.00000000000E+00  0.18250000000E+03  0.18250000000E+03  0.00000000000E+00 0.  1.
         11   -1    0    0    0    0 -0.00000000000E+00 -0.00000000000E+00 -0.18250000000E+03  0.18250000000E+03  0.00000000000E+00 0. -1.
        -11    1    1    2    0    0 -0.20301361002E+01 -0.11218394818E+01  0.10371247469E+03  0.10373840843E+03  0.00000000000E+00 0.  1.
         11    1    1    2    0    0  0.10227599640E+01  0.33327506749E+01 -0.18237174925E+03  0.18240506624E+03  0.00000000000E+00 0. -1.
        -15    1    1    2    0    0  0.15716686967E+01 -0.24614782538E+01  0.61385089752E+02  0.61480208120E+02  0.17770000000E+01 0. -1.
         15    1    1    2    0    0 -0.56429256048E+00  0.25056706076E+00  0.17274184810E+02  0.17376317211E+02  0.17770000000E+01 0. -1.
</event>
<event>
 6    1  0.1298204E-002  0.2333343E+03  0.7546771E-02  0.1033935E+00
        -11   -1    0    0    0    0  0.00000000000E+00  0.00000000000E+00  0.18250000000E+03  0.18250000000E+03  0.00000000000E+00 0.  1.
         11   -1    0    0    0    0 -0.00000000000E+00 -0.00000000000E+00 -0.18250000000E+03  0.18250000000E+03  0.00000000000E+00 0. -1.
        -11    1    1    2    0    0  0.14185622414E+02  0.15090037800E+02  0.94686826294E+02  0.96925415644E+02  0.00000000000E+00 0.  1.
         11    1    1    2    0    0 -0.37092133885E+01  0.63187067826E+00 -0.13161187679E+03  0.13166565094E+03  0.00000000000E+00 0. -1.
        -15    1    1    2    0    0 -0.84324415458E+01 -0.45962549322E+02  0.74586043485E+02  0.88033502841E+02  0.17770000000E+01 0.  1.
         15    1    1    2    0    0 -0.20439674798E+01  0.30240640844E+02 -0.37660992988E+02  0.48375430578E+02  0.17770000000E+01 0. -1.
</event>
<event>
 6    1  0.1298204E-002  0.1825877E+03  0.7546771E-02  0.1068385E+00
        -11   -1    0    0    0    0  0.00000000000E+00  0.00000000000E+00  0.18250000000E+03  0.18250000000E+03  0.00000000000E+00 0. -1.
         11   -1    0    0    0    0 -0.00000000000E+00 -0.00000000000E+00 -0.18250000000E+03  0.18250000000E+03  0.00000000000E+00 0.  1.
        -11    1    1    2    0    0 -0.23457943429E+01 -0.13047295731E+01  0.18239250226E+03  0.18241225274E+03  0.00000000000E+00 0. -1.
         11    1    1    2    0    0  0.17300257183E+01  0.57754779237E+00 -0.12685613245E+03  0.12686924328E+03  0.00000000000E+00 0.  1.
        -15    1    1    2    0    0  0.94459339139E+00  0.13881385155E+01 -0.37548279212E+02  0.37627784761E+02  0.17770000000E+01 0.  1.
         15    1    1    2    0    0 -0.32882476676E+00 -0.66095673476E+00 -0.17988090595E+02  0.18090719217E+02  0.17770000000E+01 0.  1.
</event>
<event>
 6    1  0.1298204E-002  0.1872186E+03  0.7546771E-02  0.1064760E+00
        -11   -1    0    0    0    0  0.00000000000E+00  0.00000000000E+00  0.18250000000E+03  0.18250000000E+03  0.00000000000E+00 0.  1.
         11   -1    0    0    0    0 -0.00000000000E+00 -0.00000000000E+00 -0.18250000000E+03  0.18250000000E+03  0.00000000000E+00 0.  1.
        -11    1    1    2    0    0 -0.89217170578E+01  0.77596706344E+01  0.13692694263E+03  0.13743652041E+03  0.00000000000E+00 0.  1.
         11    1    1    2    0    0 -0.77116871522E+01  0.14012976430E+01 -0.17760850267E+03  0.17778136565E+03  0.00000000000E+00 0.  1.
        -15    1    1    2    0    0  0.18878584595E+02 -0.37308771119E+01  0.18449880128E+02  0.26718461896E+02  0.17770000000E+01 0.  1.
         15    1    1    2    0    0 -0.22451803850E+01 -0.54300911655E+01  0.22231679909E+02  0.23063652044E+02  0.17770000000E+01 0. -1.
</event>
<event>
 6    1  0.1298204E-002  0.1920654E+03  0.7546771E-02  0.1061086E+00
        -11   -1    0    0    0    0  0.00000000000E+00  0.00000000000E+00  0.18250000000E+03  0.18250000000E+03  0.00000000000E+00 0.  1.
         11   -1    0    0    0    0 -0.00000000000E+00 -0.00000000000E+00 -0.18250000000E+03  0.18250000000E+03  0.00000000000E+00 0.  1.
        -11    1    1    2    0    0 -0.14239961219E+01 -0.24502512480E+01  0.77506923971E+02  0.77558718140E+02  0.00000000000E+00 0.  1.
         11    1    1    2    0    0  0.15234266057E+02 -0.23792378571E+02 -0.17061130275E+03  0.17293460257E+03  0.00000000000E+00 0.  1.
        -15    1    1    2    0    0 -0.17478167208E+02  0.78241880277E+01  0.93680205881E+02  0.95633900632E+02  0.17770000000E+01 0.  1.
         15    1    1    2    0    0  0.36678972726E+01  0.18418441792E+02 -0.57582710357E+00  0.18872778658E+02  0.17770000000E+01 0. -1.
</event>
<event>
 6    1  0.1298204E-002  0.1833754E+03  0.7546771E-02  0.1067760E+00
        -11   -1    0    0    0    0  0.00000000000E+00  0.00000000000E+00  0.18250000000E+03  0.18250000000E+03  0.00000000000E+00 0.  1.
         11   -1    0    0    0    0 -0.00000000000E+00 -0.00000000000E+00 -0.18250000000E+03  0.18250000000E+03  0.00000000000E+00 0. -1.
        -11    1    1    2    0    0  0.73424001599E+01 -0.22033153384E+01  0.18146278915E+03  0.18162463842E+03  0.00000000000E+00 0.  1.
         11    1    1    2    0    0  0.39768161874E+01 -0.19207657531E+01 -0.96147219330E+02  0.96248595798E+02  0.00000000000E+00 0. -1.
        -15    1    1    2    0    0 -0.55524976474E+01  0.39431985197E+01 -0.15184779656E+02  0.16736615754E+02  0.17770000000E+01 0. -1.
         15    1    1    2    0    0 -0.57667186998E+01  0.18088257185E+00 -0.70130790159E+02  0.70390150024E+02  0.17770000000E+01 0.  1.
</event>
<event>
 6    1  0.1298204E-002  0.1927263E+03  0.7546771E-02  0.1060594E+00
        -11   -1    0    0    0    0  0.00000000000E+00  0.00000000000E+00  0.18250000000E+03  0.18250000000E+03  0.00000000000E+00 0. -1.
         11   -1    0    0    0    0 -0.00000000000E+00 -0.00000000000E+00 -0.18250000000E+03  0.18250000000E+03  0.00000000000E+00 0.  1.
        -11    1    1    2    0    0  0.14759647701E+02 -0.33772937294E+01  0.17160704803E+03  0.17227371316E+03  0.00000000000E+00 0. -1.
         11    1    1    2    0    0  0.22884892693E+01 -0.16523309747E+01 -0.11226887958E+03  0.11230435745E+03  0.00000000000E+00 0.  1.
        -15    1    1    2    0    0  0.40867135930E+01  0.19590494683E+00 -0.58481953229E+02  0.58651821704E+02  0.17770000000E+01 0. -1.
         15    1    1    2    0    0 -0.21134850563E+02  0.48337197573E+01 -0.85621521876E+00  0.21770107683E+02  0.17770000000E+01 0.  1.
</event>
<event>
 6    1  0.1298204E-002  0.1830572E+03  0.7546771E-02  0.1068012E+00
        -11   -1    0    0    0    0  0.00000000000E+00  0.00000000000E+00  0.18250000000E+03  0.18250000000E+03  0.00000000000E+00 0. -1.
         11   -1    0    0    0    0 -0.00000000000E+00 -0.00000000000E+00 -0.18250000000E+03  0.18250000000E+03  0.00000000000E+00 0. -1.
        -11    1    1    2    0    0 -0.52490617589E+00 -0.11383853229E+01  0.23490278733E+02  0.23523703845E+02  0.00000000000E+00 0. -1.
         11    1    1    2    0    0  0.13014752744E+01  0.34596639598E+01 -0.18190525365E+03  0.18194280535E+03  0.00000000000E+00 0. -1.
        -15    1    1    2    0    0 -0.86103423222E+01 -0.48220317718E+01  0.10247309328E+03  0.10296252989E+03  0.17770000000E+01 0. -1.
         15    1    1    2    0    0  0.78337732236E+01  0.25007531349E+01  0.55941881636E+02  0.56570960917E+02  0.17770000000E+01 0.  1.
</event>
<event>
 6    1  0.1298204E-002  0.1826932E+03  0.7546771E-02  0.1068301E+00
        -11   -1    0    0    0    0  0.00000000000E+00  0.00000000000E+00  0.18250000000E+03  0.18250000000E+03  0.00000000000E+00 0.  1.
         11   -1    0    0    0    0 -0.00000000000E+00 -0.00000000000E+00 -0.18250000000E+03  0.18250000000E+03  0.00000000000E+00 0.  1.
        -11    1    1    2    0    0 -0.83936414641E+00 -0.14853239176E+01  0.88888918096E+02  0.88905289380E+02  0.00000000000E+00 0.  1.
         11    1    1    2    0    0 -0.45248539306E+01  0.37128992742E+01 -0.18221286138E+03  0.18230684785E+03  0.00000000000E+00 0.  1.
        -15    1    1    2    0    0  0.13700046372E+01  0.15933947552E+01  0.50123608279E+02  0.50199100146E+02  0.17770000000E+01 0. -1.
         15    1    1    2    0    0  0.39942134399E+01 -0.38209701118E+01  0.43200335000E+02  0.43588762619E+02  0.17770000000E+01 0. -1.
</event>
<event>
 6    1  0.1298204E-002  0.1826927E+03  0.7546771E-02  0.1068302E+00
        -11   -1    0    0    0    0  0.00000000000E+00  0.00000000000E+00  0.18250000000E+03  0.18250000000E+03  0.00000000000E+00 0.  1.
         11   -1    0    0    0    0 -0.00000000000E+00 -0.00000000000E+00 -0.18250000000E+03  0.18250000000E+03  0.00000000000E+00 0.  1.
        -11    1    1    2    0    0 -0.15276308308E+01  0.39794945924E+01  0.10970669357E+03  0.10978947421E+03  0.00000000000E+00 0.  1.
         11    1    1    2    0    0 -0.41465896635E+01 -0.42878410290E+01 -0.18220967494E+03  0.18230728298E+03  0.00000000000E+00 0.  1.
        -15    1    1    2    0    0  0.11423928701E+01 -0.12352438543E+01  0.18956050043E+02  0.19113357923E+02  0.17770000000E+01 0.  1.
         15    1    1    2    0    0  0.45318276242E+01  0.15435902909E+01  0.53546931330E+02  0.53789884890E+02  0.17770000000E+01 0. -1.
</event>
<event>
 6    1  0.1298204E-002  0.1836236E+03  0.7546771E-02  0.1067564E+00
        -11   -1    0    0    0    0  0.00000000000E+00  0.00000000000E+00  0.18250000000E+03  0.18250000000E+03  0.00000000000E+00 0.  1.
         11   -1    0    0    0    0 -0.00000000000E+00 -0.00000000000E+00 -0.18250000000E+03  0.18250000000E+03  0.00000000000E+00 0.  1.
        -11    1    1    2    0    0 -0.21224986701E+01  0.29375514203E+01  0.18134015508E+03  0.18137636575E+03  0.00000000000E+00 0.  1.
         11    1    1    2    0    0 -0.22361764801E+01 -0.37007670627E+00 -0.14739390905E+03  0.14741133561E+03  0.00000000000E+00 0.  1.
        -15    1    1    2    0    0  0.37341581632E+01 -0.28044667309E+01 -0.45595037451E+01  0.67643014594E+01  0.17770000000E+01 0.  1.
         15    1    1    2    0    0  0.62451698698E+00  0.23699201686E+00 -0.29386742285E+02  0.29447997178E+02  0.17770000000E+01 0.  1.
</event>
<event>
 6    1  0.1298204E-002  0.1831805E+03  0.7546771E-02  0.1067914E+00
        -11   -1    0    0    0    0  0.00000000000E+00  0.00000000000E+00  0.18250000000E+03  0.18250000000E+03  0.00000000000E+00 0. -1.
         11   -1    0    0    0    0 -0.00000000000E+00 -0.00000000000E+00 -0.18250000000E+03  0.18250000000E+03  0.00000000000E+00 0. -1.
        -11    1    1    2    0    0 -0.65227168603E+00 -0.19983998588E+01  0.12183458667E+03  0.12185272082E+03  0.00000000000E+00 0. -1.
         11    1    1    2    0    0 -0.23651418843E+01  0.12871636317E+02 -0.18134793952E+03  0.18181954814E+03  0.00000000000E+00 0. -1.
        -15    1    1    2    0    0  0.26568413718E+01 -0.11525915877E+02  0.40847930147E+02  0.42563090456E+02  0.17770000000E+01 0.  1.
         15    1    1    2    0    0  0.36057219849E+00  0.65267941919E+00  0.18665422700E+02  0.18764640586E+02  0.17770000000E+01 0.  1.
</event>
<event>
 6    1  0.1298204E-002  0.1825662E+03  0.7546771E-02  0.1068402E+00
        -11   -1    0    0    0    0  0.00000000000E+00  0.00000000000E+00  0.18250000000E+03  0.18250000000E+03  0.00000000000E+00 0.  1.
         11   -1    0    0    0    0 -0.00000000000E+00 -0.00000000000E+00 -0.18250000000E+03  0.18250000000E+03  0.00000000000E+00 0.  1.
        -11    1    1    2    0    0  0.26571568949E+01 -0.99820518628E+00  0.18241174241E+03  0.18243382545E+03  0.00000000000E+00 0.  1.
         11    1    1    2    0    0 -0.97591100654E+00  0.17092444493E+01 -0.55221701489E+02  0.55256766411E+02  0.00000000000E+00 0.  1.
        -15    1    1    2    0    0 -0.18563351480E+01  0.28365187743E+00 -0.34461973379E+02  0.34558816194E+02  0.17770000000E+01 0. -1.
         15    1    1    2    0    0  0.17508925963E+00 -0.99469114048E+00 -0.92728067547E+02  0.92750591948E+02  0.17770000000E+01 0.  1.
</event>
<event>
 6    1  0.1298204E-002  0.1832125E+03  0.7546771E-02  0.1067889E+00
        -11   -1    0    0    0    0  0.00000000000E+00  0.00000000000E+00  0.18250000000E+03  0.18250000000E+03  0.00000000000E+00 0.  1.
         11   -1    0    0    0    0 -0.00000000000E+00 -0.00000000000E+00 -0.18250000000E+03  0.18250000000E+03  0.00000000000E+00 0. -1.
        -11    1    1    2    0    0  0.39776132213E+01  0.13903655683E+01  0.78901751949E+02  0.79014182170E+02  0.00000000000E+00 0.  1.
         11    1    1    2    0    0  0.37359094832E+01 -0.17826459530E+01 -0.18174035668E+03  0.18178749157E+03  0.00000000000E+00 0. -1.
        -15    1    1    2    0    0 -0.24983590521E+01 -0.87376699726E-02  0.32919195904E+01  0.44984817316E+01  0.17770000000E+01 0. -1.
         15    1    1    2    0    0 -0.52151636524E+01  0.40101805459E+00  0.99546685139E+02  0.99699844526E+02  0.17770000000E+01 0.  1.
</event>
<event>
 6    1  0.1298204E-002  0.1874189E+03  0.7546771E-02  0.1064605E+00
        -11   -1    0    0    0    0  0.00000000000E+00  0.00000000000E+00  0.18250000000E+03  0.18250000000E+03  0.00000000000E+00 0.  1.
         11   -1    0    0    0    0 -0.00000000000E+00 -0.00000000000E+00 -0.18250000000E+03  0.18250000000E+03  0.00000000000E+00 0. -1.
        -11    1    1    2    0    0  0.14792723229E+02 -0.46223636828E+01  0.17690347628E+03  0.17758105424E+03  0.00000000000E+00 0.  1.
         11    1    1    2    0    0  0.55515132187E+00  0.68617032696E+01 -0.15838162148E+03  0.15853116156E+03  0.00000000000E+00 0. -1.
        -15    1    1    2    0    0 -0.83106815827E+01 -0.84452141421E+01 -0.68280633776E+01  0.13790186683E+02  0.17770000000E+01 0.  1.
         15    1    1    2    0    0 -0.70371929686E+01  0.62058745553E+01 -0.11693791419E+02  0.15097597512E+02  0.17770000000E+01 0. -1.
</event>
<event>
 6    1  0.1298204E-002  0.1779687E+03  0.7546771E-02  0.1072120E+00
        -11   -1    0    0    0    0  0.00000000000E+00  0.00000000000E+00  0.18250000000E+03  0.18250000000E+03  0.00000000000E+00 0. -1.
         11   -1    0    0    0    0 -0.00000000000E+00 -0.00000000000E+00 -0.18250000000E+03  0.18250000000E+03  0.00000000000E+00 0. -1.
        -11    1    1    2    0    0  0.26190461176E+01  0.38490668451E+00  0.17877752793E+03  0.17879712539E+03  0.00000000000E+00 0. -1.
         11    1    1    2    0    0 -0.24627949233E+01  0.38365759289E+01 -0.17711059400E+03  0.17716926139E+03  0.00000000000E+00 0. -1.
        -15    1    1    2    0    0  0.63181484332E+00 -0.58291349657E+01 -0.23101296418E+00  0.61309950607E+01  0.17770000000E+01 0.  1.
         15    1    1    2    0    0 -0.78806603765E+00  0.16076523523E+01 -0.14359209681E+01  0.29026181616E+01  0.17770000000E+01 0.  1.
</event>
<event>
 6    1  0.1298204E-002  0.1830740E+03  0.7546771E-02  0.1067999E+00
        -11   -1    0    0    0    0  0.00000000000E+00  0.00000000000E+00  0.18250000000E+03  0.18250000000E+03  0.00000000000E+00 0.  1.
         11   -1    0    0    0    0 -0.00000000000E+00 -0.00000000000E+00 -0.18250000000E+03  0.18250000000E+03  0.00000000000E+00 0.  1.
        -11    1    1    2    0    0  0.13223614893E+01  0.12930192696E+01  0.12219848872E+03  0.12221248375E+03  0.00000000000E+00 0.  1.
         11    1    1    2    0    0  0.57001667260E+01 -0.97408523551E+00 -0.18183408959E+03  0.18192602035E+03  0.00000000000E+00 0.  1.
        -15    1    1    2    0    0 -0.72354882331E+01  0.34976220482E+00  0.23064743386E+02  0.24240766078E+02  0.17770000000E+01 0.  1.
         15    1    1    2    0    0  0.21296001777E+00 -0.66869623894E+00  0.36570857488E+02  0.36620729826E+02  0.17770000000E+01 0.  1.
</event>
<event>
 6    1  0.1298204E-002  0.1850163E+03  0.7546771E-02  0.1066469E+00
        -11   -1    0    0    0    0  0.00000000000E+00  0.00000000000E+00  0.18250000000E+03  0.18250000000E+03  0.00000000000E+00 0. -1.
         11   -1    0    0    0    0 -0.00000000000E+00 -0.00000000000E+00 -0.18250000000E+03  0.18250000000E+03  0.00000000000E+00 0. -1.
        -11    1    1    2    0    0 -0.41509545383E+01  0.42318262442E+01  0.17988609615E+03  0.17998373917E+03  0.00000000000E+00 0. -1.
         11    1    1    2    0    0 -0.10432229173E+01 -0.58468725164E+01 -0.17417394578E+03  0.17427517787E+03  0.00000000000E+00 0. -1.
        -15    1    1    2    0    0  0.12095878427E+01 -0.14160916471E+01 -0.46625162522E+01  0.53258994644E+01  0.17770000000E+01 0. -1.
         15    1    1    2    0    0  0.39845896128E+01  0.30311379192E+01 -0.10496341191E+01  0.54151834920E+01  0.17770000000E+01 0.  1.
</event>
<event>
 6    1  0.1298204E-002  0.1826912E+03  0.7546771E-02  0.1068303E+00
        -11   -1    0    0    0    0  0.00000000000E+00  0.00000000000E+00  0.18250000000E+03  0.18250000000E+03  0.00000000000E+00 0. -1.
         11   -1    0    0    0    0 -0.00000000000E+00 -0.00000000000E+00 -0.18250000000E+03  0.18250000000E+03  0.00000000000E+00 0. -1.
        -11    1    1    2    0    0  0.35659129386E+01  0.94740838402E+00  0.18227145124E+03  0.18230879094E+03  0.00000000000E+00 0. -1.
         11    1    1    2    0    0 -0.36697057895E+01  0.13162708991E+01 -0.42934076487E+02  0.43110720632E+02  0.00000000000E+00 0. -1.
        -15    1    1    2    0    0  0.18416085593E+01 -0.42731015948E+01 -0.76617226495E+02  0.76778955737E+02  0.17770000000E+01 0. -1.
         15    1    1    2    0    0 -0.17378157085E+01  0.20094223116E+01 -0.62720148259E+02  0.62801532689E+02  0.17770000000E+01 0.  1.
</event>
<event>
 6    1  0.1298204E-002  0.1845719E+03  0.7546771E-02  0.1066817E+00
        -11   -1    0    0    0    0  0.00000000000E+00  0.00000000000E+00  0.18250000000E+03  0.18250000000E+03  0.00000000000E+00 0. -1.
         11   -1    0    0    0    0 -0.00000000000E+00 -0.00000000000E+00 -0.18250000000E+03  0.18250000000E+03  0.00000000000E+00 0. -1.
        -11    1    1    2    0    0  0.11296638491E+01 -0.15248016887E+01  0.30818842256E+02  0.30877211639E+02  0.00000000000E+00 0. -1.
         11    1    1    2    0    0  0.17115922177E+02  0.44481464856E+01 -0.17955932895E+03  0.18042808376E+03  0.00000000000E+00 0. -1.
        -15    1    1    2    0    0 -0.43374525534E+01  0.44130854854E+01  0.30086787428E+01  0.71062433769E+01  0.17770000000E+01 0.  1.
         15    1    1    2    0    0 -0.13908133472E+02 -0.73364302823E+01  0.14573180795E+03  0.14658846122E+03  0.17770000000E+01 0. -1.
</event>
<event>
 6    1  0.1298204E-002  0.1834814E+03  0.7546771E-02  0.1067676E+00
        -11   -1    0    0    0    0  0.00000000000E+00  0.00000000000E+00  0.18250000000E+03  0.18250000000E+03  0.00000000000E+00 0. -1.
         11   -1    0    0    0    0 -0.00000000000E+00 -0.00000000000E+00 -0.18250000000E+03  0.18250000000E+03  0.00000000000E+00 0.  1.
        -11    1    1    2    0    0 -0.13695878465E+01  0.86460396933E+00  0.88934253896E+02  0.88949001270E+02  0.00000000000E+00 0. -1.
         11    1    1    2    0    0  0.64211110984E+01 -0.11317026937E+02 -0.18105162718E+03  0.18151858712E+03  0.00000000000E+00 0.  1.
        -15    1    1    2    0    0 -0.11074595623E+02  0.45931518146E+01  0.43257657727E+02  0.44923561667E+02  0.17770000000E+01 0. -1.
         15    1    1    2    0    0  0.60230723713E+01  0.58592711530E+01  0.48859715557E+02  0.49608849941E+02  0.17770000000E+01 0.  1.
</event>
<event>
 6    1  0.1298204E-002  0.1831036E+03  0.7546771E-02  0.1067975E+00
        -11   -1    0    0    0    0  0.00000000000E+00  0.00000000000E+00  0.18250000000E+03  0.18250000000E+03  0.00000000000E+00 0.  1.
         11   -1    0    0    0    0 -0.00000000000E+00 -0.00000000000E+00 -0.18250000000E+03  0.18250000000E+03  0.00000000000E+00 0. -1.
        -11    1    1    2    0    0  0.26806121104E+01  0.20450230654E+01  0.76966623994E+02  0.77040437497E+02  0.00000000000E+00 0.  1.
         11    1    1    2    0    0  0.27117679870E+01  0.29978547275E+01 -0.18185144769E+03  0.18189637117E+03  0.00000000000E+00 0. -1.
        -15    1    1    2    0    0  0.18795485172E+01 -0.76624722964E+00  0.72507857170E+02  0.72558024490E+02  0.17770000000E+01 0.  1.
         15    1    1    2    0    0 -0.72719286146E+01 -0.42766305633E+01  0.32376966525E+02  0.33505166842E+02  0.17770000000E+01 0. -1.
</event>
<event>
 6    1  0.1298204E-002  0.1839204E+03  0.7546771E-02  0.1067330E+00
        -11   -1    0    0    0    0  0.00000000000E+00  0.00000000000E+00  0.18250000000E+03  0.18250000000E+03  0.00000000000E+00 0. -1.
         11   -1    0    0    0    0 -0.00000000000E+00 -0.00000000000E+00 -0.18250000000E+03  0.18250000000E+03  0.00000000000E+00 0.  1.
        -11    1    1    2    0    0 -0.25810470408E+01 -0.40239154542E+01  0.81292394252E+02  0.81432837741E+02  0.00000000000E+00 0. -1.
         11    1    1    2    0    0 -0.16289893122E+02 -0.28232531220E+01 -0.18032331594E+03  0.18107962240E+03  0.00000000000E+00 0.  1.
        -15    1    1    2    0    0 -0.26206342344E+01  0.20196669561E+01  0.23208144785E+02  0.23510050867E+02  0.17770000000E+01 0. -1.
         15    1    1    2    0    0  0.21491574397E+02  0.48275016201E+01  0.75822776901E+02  0.78977488995E+02  0.17770000000E+01 0.  1.
</event>
<event>
 6    1  0.1298204E-002  0.1850131E+03  0.7546771E-02  0.1066472E+00
        -11   -1    0    0    0    0  0.00000000000E+00  0.00000000000E+00  0.18250000000E+03  0.18250000000E+03  0.00000000000E+00 0.  1.
         11   -1    0    0    0    0 -0.00000000000E+00 -0.00000000000E+00 -0.18250000000E+03  0.18250000000E+03  0.00000000000E+00 0.  1.
        -11    1    1    2    0    0  0.58009322456E+01 -0.81106885369E+01  0.17971049837E+03  0.17998693649E+03  0.00000000000E+00 0.  1.
         11    1    1    2    0    0 -0.55930207584E+00 -0.29578457708E+01 -0.14184601149E+03  0.14187794983E+03  0.00000000000E+00 0.  1.
        -15    1    1    2    0    0  0.50882197956E+01  0.37407016566E+00 -0.71191103821E+01  0.89369665328E+01  0.17770000000E+01 0. -1.
         15    1    1    2    0    0 -0.10329849965E+02  0.10694464142E+02 -0.30745376495E+02  0.34198147149E+02  0.17770000000E+01 0.  1.
</event>
<event>
 6    1  0.1298204E-002  0.1942328E+03  0.7546771E-02  0.1059481E+00
        -11   -1    0    0    0    0  0.00000000000E+00  0.00000000000E+00  0.18250000000E+03  0.18250000000E+03  0.00000000000E+00 0. -1.
         11   -1    0    0    0    0 -0.00000000000E+00 -0.00000000000E+00 -0.18250000000E+03  0.18250000000E+03  0.00000000000E+00 0. -1.
        -11    1    1    2    0    0 -0.22071908774E+01 -0.96042612093E+00  0.17075019357E+03  0.17076715935E+03  0.00000000000E+00 0. -1.
         11    1    1    2    0    0  0.58149233591E+00 -0.41128370074E+01 -0.16523287243E+03  0.16528507402E+03  0.00000000000E+00 0. -1.
        -15    1    1    2    0    0 -0.67547522405E+01  0.70351178944E+00  0.90739310273E+01  0.11472382488E+02  0.17770000000E+01 0. -1.
         15    1    1    2    0    0  0.83804507820E+01  0.43697513389E+01 -0.14591252163E+02  0.17475384137E+02  0.17770000000E+01 0.  1.
</event>
<event>
 6    1  0.1298204E-002  0.1786918E+03  0.7546771E-02  0.1071527E+00
        -11   -1    0    0    0    0  0.00000000000E+00  0.00000000000E+00  0.18250000000E+03  0.18250000000E+03  0.00000000000E+00 0.  1.
         11   -1    0    0    0    0 -0.00000000000E+00 -0.00000000000E+00 -0.18250000000E+03  0.18250000000E+03  0.00000000000E+00 0.  1.
        -11    1    1    2    0    0 -0.25632136656E+01 -0.10961601979E+01  0.17734268091E+03  0.17736459090E+03  0.00000000000E+00 0.  1.
         11    1    1    2    0    0  0.46047040429E+00 -0.41941601916E+01 -0.18002502499E+03  0.18007446414E+03  0.00000000000E+00 0.  1.
        -15    1    1    2    0    0  0.10462089806E+01  0.42160721911E+01  0.13809020454E+01  0.48922834557E+01  0.17770000000E+01 0.  1.
         15    1    1    2    0    0  0.10565342807E+01  0.10742481984E+01  0.13014420340E+01  0.26686615083E+01  0.17770000000E+01 0. -1.
</event>
<event>
 6    1  0.1298204E-002  0.1834655E+03  0.7546771E-02  0.1067689E+00
        -11   -1    0    0    0    0  0.00000000000E+00  0.00000000000E+00  0.18250000000E+03  0.18250000000E+03  0.00000000000E+00 0.  1.
         11   -1    0    0    0    0 -0.00000000000E+00 -0.00000000000E+00 -0.18250000000E+03  0.18250000000E+03  0.00000000000E+00 0.  1.
        -11    1    1    2    0    0 -0.28984156237E+01 -0.20912553072E+00  0.18151121650E+03  0.18153447678E+03  0.00000000000E+00 0.  1.
         11    1    1    2    0    0 -0.28721629603E+01 -0.73259806387E+00 -0.16023375976E+03  0.16026117367E+03  0.00000000000E+00 0.  1.
        -15    1    1    2    0    0  0.40825070063E+01  0.67486749173E+00 -0.49507148386E+01  0.66925044641E+01  0.17770000000E+01 0. -1.
         15    1    1    2    0    0  0.16880715777E+01  0.26685610285E+00 -0.16326741899E+02  0.16511845077E+02  0.17770000000E+01 0. -1.
</event>
<event>
 6    1  0.1298204E-002  0.1831952E+03  0.7546771E-02  0.1067903E+00
        -11   -1    0    0    0    0  0.00000000000E+00  0.00000000000E+00  0.18250000000E+03  0.18250000000E+03  0.00000000000E+00 0.  1.
         11   -1    0    0    0    0 -0.00000000000E+00 -0.00000000000E+00 -0.18250000000E+03  0.18250000000E+03  0.00000000000E+00 0.  1.
        -11    1    1    2    0    0 -0.25119568143E+01 -0.82312194016E+00  0.18178560363E+03  0.18180482156E+03  0.00000000000E+00 0.  1.
         11    1    1    2    0    0 -0.72169618823E+00 -0.50414376484E+01 -0.12182777248E+03  0.12193417522E+03  0.00000000000E+00 0.  1.
        -15    1    1    2    0    0  0.31003680593E+01  0.22735874736E+01 -0.72171118421E+01  0.83681488063E+01  0.17770000000E+01 0. -1.
         15    1    1    2    0    0  0.13328494324E+00  0.35909721150E+01 -0.52740719305E+02  0.52892854408E+02  0.17770000000E+01 0.  1.
</event>
<event>
 6    1  0.1298204E-002  0.1841569E+03  0.7546771E-02  0.1067143E+00
        -11   -1    0    0    0    0  0.00000000000E+00  0.00000000000E+00  0.18250000000E+03  0.18250000000E+03  0.00000000000E+00 0.  1.
         11   -1    0    0    0    0 -0.00000000000E+00 -0.00000000000E+00 -0.18250000000E+03  0.18250000000E+03  0.00000000000E+00 0. -1.
        -11    1    1    2    0    0 -0.20722312078E+01  0.47367385391E+00  0.59818534437E+02  0.59856290991E+02  0.00000000000E+00 0.  1.
         11    1    1    2    0    0 -0.17979020292E+01  0.18396095537E+02 -0.17989599022E+03  0.18084307031E+03  0.00000000000E+00 0. -1.
        -15    1    1    2    0    0  0.31739548998E+01  0.86865434873E+00  0.74526644143E+02  0.74620419232E+02  0.17770000000E+01 0.  1.
         15    1    1    2    0    0  0.69617833716E+00 -0.19738423740E+02  0.45550811640E+02  0.49680219465E+02  0.17770000000E+01 0. -1.
</event>
<event>
 6    1  0.1298204E-002  0.1744898E+03  0.7546771E-02  0.1075016E+00
        -11   -1    0    0    0    0  0.00000000000E+00  0.00000000000E+00  0.18250000000E+03  0.18250000000E+03  0.00000000000E+00 0.  1.
         11   -1    0    0    0    0 -0.00000000000E+00 -0.00000000000E+00 -0.18250000000E+03  0.18250000000E+03  0.00000000000E+00 0. -1.
        -11    1    1    2    0    0 -0.95968691413E+01 -0.60366386199E+01  0.17346929311E+03  0.17383939874E+03  0.00000000000E+00 0.  1.
         11    1    1    2    0    0 -0.21244491122E+01  0.14410412341E+01 -0.17535356267E+03  0.17537235194E+03  0.00000000000E+00 0. -1.
        -15    1    1    2    0    0  0.24636953264E+01  0.24072201528E+01  0.43253295964E+01  0.58078144463E+01  0.17770000000E+01 0.  1.
         15    1    1    2    0    0  0.92576229271E+01  0.21883772330E+01 -0.24410600326E+01  0.99804348731E+01  0.17770000000E+01 0. -1.
</event>
<event>
 6    1  0.1298204E-002  0.1869613E+03  0.7546771E-02  0.1064958E+00
        -11   -1    0    0    0    0  0.00000000000E+00  0.00000000000E+00  0.18250000000E+03  0.18250000000E+03  0.00000000000E+00 0.  1.
         11   -1    0    0    0    0 -0.00000000000E+00 -0.00000000000E+00 -0.18250000000E+03  0.18250000000E+03  0.00000000000E+00 0.  1.
        -11    1    1    2    0    0 -0.33138447061E+01  0.11355494296E+01  0.17800422348E+03  0.17803868853E+03  0.00000000000E+00 0.  1.
         11    1    1    2    0    0  0.91805364775E+01  0.36217562531E+01 -0.91279751243E+02  0.91811722320E+02  0.00000000000E+00 0.  1.
        -15    1    1    2    0    0  0.40716596986E+01 -0.22741479181E+00  0.25932185052E+01  0.51490427659E+01  0.17770000000E+01 0. -1.
         15    1    1    2    0    0 -0.99383514700E+01 -0.45298908909E+01 -0.89317690738E+02  0.90000546382E+02  0.17770000000E+01 0. -1.
</event>
<event>
 6    1  0.1298204E-002  0.1759629E+03  0.7546771E-02  0.1073781E+00
        -11   -1    0    0    0    0  0.00000000000E+00  0.00000000000E+00  0.18250000000E+03  0.18250000000E+03  0.00000000000E+00 0. -1.
         11   -1    0    0    0    0 -0.00000000000E+00 -0.00000000000E+00 -0.18250000000E+03  0.18250000000E+03  0.00000000000E+00 0.  1.
        -11    1    1    2    0    0 -0.10594881242E+01 -0.37285367730E+01  0.17438915944E+03  0.17443223163E+03  0.00000000000E+00 0. -1.
         11    1    1    2    0    0  0.57785545243E+01 -0.65782817741E-01 -0.17746499324E+03  0.17755906016E+03  0.00000000000E+00 0.  1.
        -15    1    1    2    0    0  0.59097352459E+00 -0.11611223654E+01 -0.27541983114E+01  0.35271507187E+01  0.17770000000E+01 0.  1.
         15    1    1    2    0    0 -0.53100399246E+01  0.49554419561E+01  0.58300321148E+01  0.94815574903E+01  0.17770000000E+01 0. -1.
</event>
<event>
 6    1  0.1298204E-002  0.1889478E+03  0.7546771E-02  0.1063435E+00
        -11   -1    0    0    0    0  0.00000000000E+00  0.00000000000E+00  0.18250000000E+03  0.18250000000E+03  0.00000000000E+00 0.  1.
         11   -1    0    0    0    0 -0.00000000000E+00 -0.00000000000E+00 -0.18250000000E+03  0.18250000000E+03  0.00000000000E+00 0.  1.
        -11    1    1    2    0    0  0.69369587670E+00  0.79958264326E+01  0.16493571045E+03  0.16513086640E+03  0.00000000000E+00 0.  1.
         11    1    1    2    0    0 -0.56534102276E+01 -0.61091036265E+01 -0.17585533336E+03  0.17605220949E+03  0.00000000000E+00 0.  1.
        -15    1    1    2    0    0  0.83294550255E+01  0.71153744187E+01  0.38250716029E+01  0.11738708443E+02  0.17770000000E+01 0.  1.
         15    1    1    2    0    0 -0.33697406746E+01 -0.90020972247E+01  0.70945513033E+01  0.12078215673E+02  0.17770000000E+01 0. -1.
</event>
<event>
 6    1  0.1298204E-002  0.1866237E+03  0.7546771E-02  0.1065219E+00
        -11   -1    0    0    0    0  0.00000000000E+00  0.00000000000E+00  0.18250000000E+03  0.18250000000E+03  0.00000000000E+00 0.  1.
         11   -1    0    0    0    0 -0.00000000000E+00 -0.00000000000E+00 -0.18250000000E+03  0.18250000000E+03  0.00000000000E+00 0. -1.
        -11    1    1    2    0    0  0.26067691279E+01 -0.34136271346E+00  0.17377500325E+03  0.17379488924E+03  0.00000000000E+00 0.  1.
         11    1    1    2    0    0  0.24950265377E+01  0.86842081665E-01 -0.17835884325E+03  0.17837631475E+03  0.00000000000E+00 0. -1.
        -15    1    1    2    0    0  0.47742320530E+00 -0.22540609146E+00  0.64130518579E+01  0.66756051378E+01  0.17770000000E+01 0.  1.
         15    1    1    2    0    0 -0.55792188709E+01  0.47992672325E+00 -0.18292118576E+01  0.61531908705E+01  0.17770000000E+01 0. -1.
</event>
<event>
 6    1  0.1298204E-002  0.1836314E+03  0.7546771E-02  0.1067558E+00
        -11   -1    0    0    0    0  0.00000000000E+00  0.00000000000E+00  0.18250000000E+03  0.18250000000E+03  0.00000000000E+00 0.  1.
         11   -1    0    0    0    0 -0.00000000000E+00 -0.00000000000E+00 -0.18250000000E+03  0.18250000000E+03  0.00000000000E+00 0. -1.
        -11    1    1    2    0    0  0.77932769432E+00  0.27434915161E+01  0.15961073765E+03  0.15963621666E+03  0.00000000000E+00 0.  1.
         11    1    1    2    0    0  0.22339344152E+01 -0.18428214040E+01 -0.18134543637E+03  0.18136855776E+03  0.00000000000E+00 0. -1.
        -15    1    1    2    0    0 -0.21080863331E+01  0.23075401710E+01  0.24660974571E+01  0.43598320261E+01  0.17770000000E+01 0.  1.
         15    1    1    2    0    0 -0.90517577649E+00 -0.32082102831E+01  0.19268601258E+02  0.19635393550E+02  0.17770000000E+01 0.  1.
</event>
<event>
 6    1  0.1298204E-002  0.1832717E+03  0.7546771E-02  0.1067842E+00
        -11   -1    0    0    0    0  0.00000000000E+00  0.00000000000E+00  0.18250000000E+03  0.18250000000E+03  0.00000000000E+00 0.  1.
         11   -1    0    0    0    0 -0.00000000000E+00 -0.00000000000E+00 -0.18250000000E+03  0.18250000000E+03  0.00000000000E+00 0.  1.
        -11    1    1    2    0    0 -0.38096130831E+01  0.30599587598E+01  0.14089484724E+03  0.14097955340E+03  0.00000000000E+00 0.  1.
         11    1    1    2    0    0 -0.50332011190E+01 -0.70586423312E+00 -0.18165716947E+03  0.18172825475E+03  0.00000000000E+00 0.  1.
        -15    1    1    2    0    0  0.45653838500E+00 -0.18719595749E+01  0.77336787006E+01  0.81657929921E+01  0.17770000000E+01 0. -1.
         15    1    1    2    0    0  0.83862758171E+01 -0.48213495180E+00  0.33028643526E+02  0.34126398848E+02  0.17770000000E+01 0.  1.
</event>
<event>
 6    1  0.1298204E-002  0.1781076E+03  0.7546771E-02  0.1072006E+00
        -11   -1    0    0    0    0  0.00000000000E+00  0.00000000000E+00  0.18250000000E+03  0.18250000000E+03  0.00000000000E+00 0.  1.
         11   -1    0    0    0    0 -0.00000000000E+00 -0.00000000000E+00 -0.18250000000E+03  0.18250000000E+03  0.00000000000E+00 0.  1.
        -11    1    1    2    0    0  0.47700962973E+01 -0.40697762786E+01  0.17882490206E+03  0.17893479957E+03  0.00000000000E+00 0.  1.
         11    1    1    2    0    0  0.26796780931E+00  0.33090077717E+01 -0.17728899867E+03  0.17732007892E+03  0.00000000000E+00 0.  1.
        -15    1    1    2    0    0 -0.21205310487E+01  0.80365872339E+00  0.22427327591E+01  0.36510407422E+01  0.17770000000E+01 0. -1.
         15    1    1    2    0    0 -0.29175330579E+01 -0.42890216502E-01 -0.37786361545E+01  0.50940807712E+01  0.17770000000E+01 0. -1.
</event>
<event>
 6    1  0.1298204E-002  0.1957402E+03  0.7546771E-02  0.1058378E+00
        -11   -1    0    0    0    0  0.00000000000E+00  0.00000000000E+00  0.18250000000E+03  0.18250000000E+03  0.00000000000E+00 0.  1.
         11   -1    0    0    0    0 -0.00000000000E+00 -0.00000000000E+00 -0.18250000000E+03  0.18250000000E+03  0.00000000000E+00 0. -1.
        -11    1    1    2    0    0  0.49471760309E+01 -0.41913931980E+01  0.16913558140E+03  0.16925982164E+03  0.00000000000E+00 0.  1.
         11    1    1    2    0    0 -0.93503555235E+00 -0.20914645159E+01 -0.15396016583E+03  0.15397720993E+03  0.00000000000E+00 0. -1.
        -15    1    1    2    0    0  0.14820022953E+02 -0.38029037702E+01 -0.13110347568E+02  0.20227063548E+02  0.17770000000E+01 0. -1.
         15    1    1    2    0    0 -0.18832163432E+02  0.10085761484E+02 -0.20650680002E+01  0.21535904882E+02  0.17770000000E+01 0.  1.
</event>
<event>
 6    1  0.1298204E-002  0.1857646E+03  0.7546771E-02  0.1065885E+00
        -11   -1    0    0    0    0  0.00000000000E+00  0.00000000000E+00  0.18250000000E+03  0.18250000000E+03  0.00000000000E+00 0.  1.
         11   -1    0    0    0    0 -0.00000000000E+00 -0.00000000000E+00 -0.18250000000E+03  0.18250000000E+03  0.00000000000E+00 0. -1.
        -11    1    1    2    0    0 -0.24140105955E+01 -0.13834718388E+01  0.17921379942E+03  0.17923539646E+03  0.00000000000E+00 0.  1.
         11    1    1    2    0    0  0.35299131276E+01 -0.51080878571E+01 -0.17422476861E+03  0.17433537462E+03  0.00000000000E+00 0. -1.
        -15    1    1    2    0    0 -0.33869826031E+01  0.63282344284E+01 -0.36224509098E+01  0.82339590555E+01  0.17770000000E+01 0. -1.
         15    1    1    2    0    0  0.22710800710E+01  0.16332526763E+00 -0.13665799072E+01  0.31952698594E+01  0.17770000000E+01 0.  1.
</event>
<event>
 6    1  0.1298204E-002  0.1899512E+03  0.7546771E-02  0.1062674E+00
        -11   -1    0    0    0    0  0.00000000000E+00  0.00000000000E+00  0.18250000000E+03  0.18250000000E+03  0.00000000000E+00 0. -1.
         11   -1    0    0    0    0 -0.00000000000E+00 -0.00000000000E+00 -0.18250000000E+03  0.18250000000E+03  0.00000000000E+00 0. -1.
        -11    1    1    2    0    0 -0.16479335012E+01 -0.43101944765E+01  0.17498792970E+03  0.17504876179E+03  0.00000000000E+00 0. -1.
         11    1    1    2    0    0 -0.51277415803E+01 -0.22849865098E+01 -0.15046055572E+03  0.15056524740E+03  0.00000000000E+00 0. -1.
        -15    1    1    2    0    0  0.53211627718E+01  0.65495801353E+01 -0.31178650741E+02  0.32349308559E+02  0.17770000000E+01 0.  1.
         15    1    1    2    0    0  0.14545123097E+01  0.45600850931E-01  0.66512767624E+01  0.70366822485E+01  0.17770000000E+01 0. -1.
</event>
<event>
 6    1  0.1298204E-002  0.1729393E+03  0.7546771E-02  0.1076330E+00
        -11   -1    0    0    0    0  0.00000000000E+00  0.00000000000E+00  0.18250000000E+03  0.18250000000E+03  0.00000000000E+00 0.  1.
         11   -1    0    0    0    0 -0.00000000000E+00 -0.00000000000E+00 -0.18250000000E+03  0.18250000000E+03  0.00000000000E+00 0.  1.
        -11    1    1    2    0    0  0.16670743291E+01  0.46234271314E+01  0.17196861028E+03  0.17203882741E+03  0.00000000000E+00 0.  1.
         11    1    1    2    0    0 -0.12316556090E+01  0.28524966342E+01 -0.17389851164E+03  0.17392626616E+03  0.00000000000E+00 0.  1.
        -15    1    1    2    0    0 -0.27416662611E+01 -0.47086952587E+01 -0.71162174176E+01  0.91371124685E+01  0.17770000000E+01 0. -1.
         15    1    1    2    0    0  0.23062475409E+01 -0.27672285069E+01  0.90461187779E+01  0.98977939599E+01  0.17770000000E+01 0.  1.
</event>
<event>
 6    1  0.1298204E-002  0.1868001E+03  0.7546771E-02  0.1065083E+00
        -11   -1    0    0    0    0  0.00000000000E+00  0.00000000000E+00  0.18250000000E+03  0.18250000000E+03  0.00000000000E+00 0. -1.
         11   -1    0    0    0    0 -0.00000000000E+00 -0.00000000000E+00 -0.18250000000E+03  0.18250000000E+03  0.00000000000E+00 0.  1.
        -11    1    1    2    0    0 -0.21597806215E+00 -0.58108116001E+01  0.10988465300E+03  0.11003839850E+03  0.00000000000E+00 0. -1.
         11    1    1    2    0    0  0.26929396865E+01  0.91074805905E+00 -0.17817725619E+03  0.17819993268E+03  0.00000000000E+00 0.  1.
        -15    1    1    2    0    0  0.33906122898E+00 -0.70638116994E+01 -0.58041662884E-01  0.72920159131E+01  0.17770000000E+01 0.  1.
         15    1    1    2    0    0 -0.28160228533E+01  0.11963875240E+02  0.68350644843E+02  0.69469652907E+02  0.17770000000E+01 0. -1.
</event>
<event>
 6    1  0.1298204E-002  0.1884067E+03  0.7546771E-02  0.1063848E+00
        -11   -1    0    0    0    0  0.00000000000E+00  0.00000000000E+00  0.18250000000E+03  0.18250000000E+03  0.00000000000E+00 0.  1.
         11   -1    0    0    0    0 -0.00000000000E+00 -0.00000000000E+00 -0.18250000000E+03  0.18250000000E+03  0.00000000000E+00 0.  1.
        -11    1    1    2    0    0 -0.46234062740E+01 -0.11261947490E+01  0.17652917479E+03  0.17659330042E+03  0.00000000000E+00 0.  1.
         11    1    1    2    0    0 -0.89130139203E+01 -0.11136106044E+02 -0.12118109534E+03  0.12201767307E+03  0.00000000000E+00 0.  1.
        -15    1    1    2    0    0 -0.38516302155E+01  0.45982326317E+01  0.14911893996E+01  0.64311875636E+01  0.17770000000E+01 0. -1.
         15    1    1    2    0    0  0.17388050410E+02  0.76640681613E+01 -0.56839268857E+02  0.59957838945E+02  0.17770000000E+01 0.  1.
</event>
<event>
 6    1  0.1298204E-002  0.1863827E+03  0.7546771E-02  0.1065405E+00
        -11   -1    0    0    0    0  0.00000000000E+00  0.00000000000E+00  0.18250000000E+03  0.18250000000E+03  0.00000000000E+00 0. -1.
         11   -1    0    0    0    0 -0.00000000000E+00 -0.00000000000E+00 -0.18250000000E+03  0.18250000000E+03  0.00000000000E+00 0.  1.
        -11    1    1    2    0    0 -0.32547059911E+01  0.29304466779E+00  0.16827997744E+03  0.16831170427E+03  0.00000000000E+00 0. -1.
         11    1    1    2    0    0 -0.29365496748E+01 -0.19958572735E-01 -0.17859311027E+03  0.17861725213E+03  0.00000000000E+00 0.  1.
        -15    1    1    2    0    0  0.70304316656E-01 -0.15462262872E+01 -0.26643026929E+01  0.35569644738E+01  0.17770000000E+01 0.  1.
         15    1    1    2    0    0  0.61209513492E+01  0.12731401921E+01  0.12977435518E+02  0.14514079130E+02  0.17770000000E+01 0. -1.
</event>
<event>
 6    1  0.1298204E-002  0.1853836E+03  0.7546771E-02  0.1066182E+00
        -11   -1    0    0    0    0  0.00000000000E+00  0.00000000000E+00  0.18250000000E+03  0.18250000000E+03  0.00000000000E+00 0. -1.
         11   -1    0    0    0    0 -0.00000000000E+00 -0.00000000000E+00 -0.18250000000E+03  0.18250000000E+03  0.00000000000E+00 0.  1.
        -11    1    1    2    0    0  0.21562093001E+01 -0.33354984384E+01  0.16862522870E+03  0.16867199692E+03  0.00000000000E+00 0. -1.
         11    1    1    2    0    0 -0.85735892080E+01 -0.25391202523E+01 -0.17939366760E+03  0.17961637325E+03  0.00000000000E+00 0.  1.
        -15    1    1    2    0    0  0.60236628287E+01  0.41405685903E+01  0.22823604946E+01  0.78610254135E+01  0.17770000000E+01 0. -1.
         15    1    1    2    0    0  0.39371707918E+00  0.17340501004E+01  0.84860784054E+01  0.88506044196E+01  0.17770000000E+01 0.  1.
</event>
<event>
 6    1  0.1298204E-002  0.1914541E+03  0.7546771E-02  0.1061543E+00
        -11   -1    0    0    0    0  0.00000000000E+00  0.00000000000E+00  0.18250000000E+03  0.18250000000E+03  0.00000000000E+00 0.  1.
         11   -1    0    0    0    0 -0.00000000000E+00 -0.00000000000E+00 -0.18250000000E+03  0.18250000000E+03  0.00000000000E+00 0.  1.
        -11    1    1    2    0    0  0.67460267610E+01  0.54588352149E+01  0.16674226549E+03  0.16696793363E+03  0.00000000000E+00 0.  1.
         11    1    1    2    0    0  0.16584536810E+01 -0.30800768635E+01 -0.17351066857E+03  0.17354592894E+03  0.00000000000E+00 0.  1.
        -15    1    1    2    0    0 -0.48487601419E+00  0.89064610823E+00 -0.74858369217E+01  0.77604019650E+01  0.17770000000E+01 0. -1.
         15    1    1    2    0    0 -0.79196044278E+01 -0.32694044597E+01  0.14254240006E+02  0.16725735469E+02  0.17770000000E+01 0. -1.
</event>
<event>
 6    1  0.1298204E-002  0.1835798E+03  0.7546771E-02  0.1067599E+00
        -11   -1    0    0    0    0  0.00000000000E+00  0.00000000000E+00  0.18250000000E+03  0.18250000000E+03  0.00000000000E+00 0.  1.
         11   -1    0    0    0    0 -0.00000000000E+00 -0.00000000000E+00 -0.18250000000E+03  0.18250000000E+03  0.00000000000E+00 0. -1.
        -11    1    1    2    0    0 -0.19393268245E+01 -0.26563228375E+01  0.18139035706E+03  0.18142017163E+03  0.00000000000E+00 0.  1.
         11    1    1    2    0    0 -0.36412880301E+01 -0.22311591543E+01 -0.12703509205E+03  0.12710685136E+03  0.00000000000E+00 0. -1.
        -15    1    1    2    0    0  0.27614899918E+01  0.17462886337E+01 -0.26535829282E+01  0.45688710120E+01  0.17770000000E+01 0.  1.
         15    1    1    2    0    0  0.28191248628E+01  0.31411933581E+01 -0.51701682082E+02  0.51904106002E+02  0.17770000000E+01 0. -1.
</event>
<event>
 6    1  0.1298204E-002  0.1771234E+03  0.7546771E-02  0.1072817E+00
        -11   -1    0    0    0    0  0.00000000000E+00  0.00000000000E+00  0.18250000000E+03  0.18250000000E+03  0.00000000000E+00 0.  1.
         11   -1    0    0    0    0 -0.00000000000E+00 -0.00000000000E+00 -0.18250000000E+03  0.18250000000E+03  0.00000000000E+00 0. -1.
        -11    1    1    2    0    0  0.22513597521E+01 -0.12056110615E+01  0.17716595453E+03  0.17718436038E+03  0.00000000000E+00 0.  1.
         11    1    1    2    0    0 -0.73232225742E+00  0.27410585551E+01 -0.17704628846E+03  0.17706902032E+03  0.00000000000E+00 0. -1.
        -15    1    1    2    0    0 -0.43221419663E+01  0.15287874935E+01 -0.26328257847E+01  0.55774190259E+01  0.17770000000E+01 0. -1.
         15    1    1    2    0    0  0.28031044717E+01 -0.30642349872E+01  0.25131597197E+01  0.51692002778E+01  0.17770000000E+01 0.  1.
</event>
<event>
 6    1  0.1298204E-002  0.1703941E+03  0.7546771E-02  0.1078521E+00
        -11   -1    0    0    0    0  0.00000000000E+00  0.00000000000E+00  0.18250000000E+03  0.18250000000E+03  0.00000000000E+00 0.  1.
         11   -1    0    0    0    0 -0.00000000000E+00 -0.00000000000E+00 -0.18250000000E+03  0.18250000000E+03  0.00000000000E+00 0.  1.
        -11    1    1    2    0    0 -0.50116023094E+00  0.35123529052E+01  0.17152287676E+03  0.17155956702E+03  0.00000000000E+00 0.  1.
         11    1    1    2    0    0 -0.61894506010E+00 -0.79904028256E+01 -0.16907875347E+03  0.16926858688E+03  0.00000000000E+00 0.  1.
        -15    1    1    2    0    0  0.56015748766E+01  0.41946356396E+01  0.91245741809E+01  0.11635643181E+02  0.17770000000E+01 0.  1.
         15    1    1    2    0    0 -0.44814695856E+01  0.28341428083E+00 -0.11568697473E+02  0.12536202915E+02  0.17770000000E+01 0. -1.
</event>
<event>
 6    1  0.1298204E-002  0.1750788E+03  0.7546771E-02  0.1074520E+00
        -11   -1    0    0    0    0  0.00000000000E+00  0.00000000000E+00  0.18250000000E+03  0.18250000000E+03  0.00000000000E+00 0.  1.
         11   -1    0    0    0    0 -0.00000000000E+00 -0.00000000000E+00 -0.18250000000E+03  0.18250000000E+03  0.00000000000E+00 0. -1.
        -11    1    1    2    0    0 -0.23208239703E+01 -0.24679904882E+01  0.17654691524E+03  0.17657941692E+03  0.00000000000E+00 0.  1.
         11    1    1    2    0    0 -0.29017208824E+01  0.20496382513E+00 -0.17361237986E+03  0.17363674851E+03  0.00000000000E+00 0. -1.
        -15    1    1    2    0    0 -0.20976969443E+00 -0.48935600858E+01 -0.15590708190E+00  0.52127698641E+01  0.17770000000E+01 0.  1.
         15    1    1    2    0    0  0.54323145471E+01  0.71565867489E+01 -0.27786283005E+01  0.95710646986E+01  0.17770000000E+01 0. -1.
</event>
<event>
 6    1  0.1298204E-002  0.1827025E+03  0.7546771E-02  0.1068294E+00
        -11   -1    0    0    0    0  0.00000000000E+00  0.00000000000E+00  0.18250000000E+03  0.18250000000E+03  0.00000000000E+00 0.  1.
         11   -1    0    0    0    0 -0.00000000000E+00 -0.00000000000E+00 -0.18250000000E+03  0.18250000000E+03  0.00000000000E+00 0. -1.
        -11    1    1    2    0    0  0.25003796776E+01 -0.10318229270E+02  0.18198803481E+03  0.18229745629E+03  0.00000000000E+00 0.  1.
         11    1    1    2    0    0 -0.19077680500E+01 -0.32178237658E+00 -0.57487439584E+02  0.57519986377E+02  0.00000000000E+00 0. -1.
        -15    1    1    2    0    0  0.21715545805E+01  0.24893795588E+01 -0.55140295128E+02  0.55267735033E+02  0.17770000000E+01 0.  1.
         15    1    1    2    0    0 -0.27641662082E+01  0.81506320875E+01 -0.69360300102E+02  0.69914822302E+02  0.17770000000E+01 0. -1.
</event>
<event>
 6    1  0.1298204E-002  0.1857339E+03  0.7546771E-02  0.1065909E+00
        -11   -1    0    0    0    0  0.00000000000E+00  0.00000000000E+00  0.18250000000E+03  0.18250000000E+03  0.00000000000E+00 0.  1.
         11   -1    0    0    0    0 -0.00000000000E+00 -0.00000000000E+00 -0.18250000000E+03  0.18250000000E+03  0.00000000000E+00 0.  1.
        -11    1    1    2    0    0  0.46061626195E+01  0.16740549960E+02  0.12244681307E+03  0.12367168139E+03  0.00000000000E+00 0.  1.
         11    1    1    2    0    0 -0.10052887987E+01 -0.34643819741E+01 -0.17922976917E+03  0.17926606680E+03  0.00000000000E+00 0.  1.
        -15    1    1    2    0    0 -0.36130885040E+01 -0.15203088823E+02  0.57275158171E+02  0.59395200065E+02  0.17770000000E+01 0.  1.
         15    1    1    2    0    0  0.12214683207E-01  0.19269208373E+01 -0.49220207141E+00  0.26670517413E+01  0.17770000000E+01 0. -1.
</event>
<event>
 6    1  0.1298204E-002  0.1899906E+03  0.7546771E-02  0.1062644E+00
        -11   -1    0    0    0    0  0.00000000000E+00  0.00000000000E+00  0.18250000000E+03  0.18250000000E+03  0.00000000000E+00 0.  1.
         11   -1    0    0    0    0 -0.00000000000E+00 -0.00000000000E+00 -0.18250000000E+03  0.18250000000E+03  0.00000000000E+00 0.  1.
        -11    1    1    2    0    0 -0.11722810028E+01 -0.74479945061E+01  0.11899835800E+03  0.11923697443E+03  0.00000000000E+00 0.  1.
         11    1    1    2    0    0  0.23871401762E+01  0.19299506558E+00 -0.17499305424E+03  0.17500944180E+03  0.00000000000E+00 0.  1.
        -15    1    1    2    0    0 -0.17221574289E+02  0.98248109959E+01  0.10673647123E+02  0.22587474494E+02  0.17770000000E+01 0.  1.
         15    1    1    2    0    0  0.16006715116E+02 -0.25698115554E+01  0.45321049121E+02  0.48166109274E+02  0.17770000000E+01 0. -1.
</event>
<event>
 6    1  0.1298204E-002  0.1118231E+03  0.7546771E-02  0.1144807E+00
        -11   -1    0    0    0    0  0.00000000000E+00  0.00000000000E+00  0.18250000000E+03  0.18250000000E+03  0.00000000000E+00 0. -1.
         11   -1    0    0    0    0 -0.00000000000E+00 -0.00000000000E+00 -0.18250000000E+03  0.18250000000E+03  0.00000000000E+00 0. -1.
        -11    1    1    2    0    0 -0.36063083628E+01  0.12391291419E+02  0.61000063648E+02  0.62350279295E+02  0.00000000000E+00 0. -1.
         11    1    1    2    0    0  0.18654905223E+02  0.35229889318E+02 -0.15372997647E+03  0.15881453415E+03  0.00000000000E+00 0. -1.
        -15    1    1    2    0    0 -0.18395903391E+02  0.12633176995E+02  0.78742044018E+02  0.81862528960E+02  0.17770000000E+01 0.  1.
         15    1    1    2    0    0  0.33473065312E+01 -0.60254357733E+02  0.13987868808E+02  0.61972657597E+02  0.17770000000E+01 0. -1.
</event>
<event>
 6    1  0.1298204E-002  0.1851883E+03  0.7546771E-02  0.1066335E+00
        -11   -1    0    0    0    0  0.00000000000E+00  0.00000000000E+00  0.18250000000E+03  0.18250000000E+03  0.00000000000E+00 0.  1.
         11   -1    0    0    0    0 -0.00000000000E+00 -0.00000000000E+00 -0.18250000000E+03  0.18250000000E+03  0.00000000000E+00 0.  1.
        -11    1    1    2    0    0 -0.86628471358E+00  0.29577356213E+01  0.17978526064E+03  0.17981167535E+03  0.00000000000E+00 0.  1.
         11    1    1    2    0    0 -0.33221787376E+00  0.64587749399E+01 -0.15010911720E+03  0.15024837173E+03  0.00000000000E+00 0.  1.
        -15    1    1    2    0    0  0.31539168336E+00 -0.85314143410E+01 -0.31128237514E+02  0.32326605178E+02  0.17770000000E+01 0.  1.
         15    1    1    2    0    0  0.88311090398E+00 -0.88509622026E+00  0.14520940726E+01  0.26133477349E+01  0.17770000000E+01 0. -1.
</event>
<event>
 6    1  0.1298204E-002  0.1761321E+03  0.7546771E-02  0.1073640E+00
        -11   -1    0    0    0    0  0.00000000000E+00  0.00000000000E+00  0.18250000000E+03  0.18250000000E+03  0.00000000000E+00 0. -1.
         11   -1    0    0    0    0 -0.00000000000E+00 -0.00000000000E+00 -0.18250000000E+03  0.18250000000E+03  0.00000000000E+00 0. -1.
        -11    1    1    2    0    0  0.20414909792E+01  0.28634631804E+01  0.17450363088E+03  0.17453906239E+03  0.00000000000E+00 0. -1.
         11    1    1    2    0    0  0.40443296752E+01  0.28164557197E+00 -0.17776062790E+03  0.17780685239E+03  0.00000000000E+00 0. -1.
        -15    1    1    2    0    0 -0.59336029136E+01  0.19639576080E+01  0.34055662019E+00  0.65068026583E+01  0.17770000000E+01 0.  1.
         15    1    1    2    0    0 -0.15221774089E+00 -0.51090663604E+01  0.29164403965E+01  0.61472825624E+01  0.17770000000E+01 0. -1.
</event>
<event>
 6    1  0.1298204E-002  0.1847615E+03  0.7546771E-02  0.1066669E+00
        -11   -1    0    0    0    0  0.00000000000E+00  0.00000000000E+00  0.18250000000E+03  0.18250000000E+03  0.00000000000E+00 0. -1.
         11   -1    0    0    0    0 -0.00000000000E+00 -0.00000000000E+00 -0.18250000000E+03  0.18250000000E+03  0.00000000000E+00 0. -1.
        -11    1    1    2    0    0  0.11081777454E+01  0.21913564859E+01  0.18022179361E+03  0.18023852250E+03  0.00000000000E+00 0. -1.
         11    1    1    2    0    0 -0.55872045131E+00 -0.31289325751E+01 -0.17199042281E+03  0.17201978935E+03  0.00000000000E+00 0. -1.
        -15    1    1    2    0    0  0.59668751447E+00 -0.39167660758E+01 -0.45714344981E+01  0.63049849209E+01  0.17770000000E+01 0. -1.
         15    1    1    2    0    0 -0.11461448086E+01  0.48543421650E+01 -0.36599362982E+01  0.64367032310E+01  0.17770000000E+01 0.  1.
</event>
<event>
 6    1  0.1298204E-002  0.1871971E+03  0.7546771E-02  0.1064776E+00
        -11   -1    0    0    0    0  0.00000000000E+00  0.00000000000E+00  0.18250000000E+03  0.18250000000E+03  0.00000000000E+00 0.  1.
         11   -1    0    0    0    0 -0.00000000000E+00 -0.00000000000E+00 -0.18250000000E+03  0.18250000000E+03  0.00000000000E+00 0.  1.
        -11    1    1    2    0    0 -0.13090050468E+01 -0.35622984981E+01  0.15359098560E+03  0.15363786747E+03  0.00000000000E+00 0.  1.
         11    1    1    2    0    0  0.62032756312E+01 -0.22780045881E+00 -0.17769447857E+03  0.17780286903E+03  0.00000000000E+00 0.  1.
        -15    1    1    2    0    0  0.20956004387E+01  0.31259807980E+01  0.25789277332E+02  0.26122937267E+02  0.17770000000E+01 0. -1.
         15    1    1    2    0    0 -0.69898710231E+01  0.66411815892E+00 -0.16857843637E+01  0.74363262280E+01  0.17770000000E+01 0. -1.
</event>
<event>
 6    1  0.1298204E-002  0.1788647E+03  0.7546771E-02  0.1071386E+00
        -11   -1    0    0    0    0  0.00000000000E+00  0.00000000000E+00  0.18250000000E+03  0.18250000000E+03  0.00000000000E+00 0. -1.
         11   -1    0    0    0    0 -0.00000000000E+00 -0.00000000000E+00 -0.18250000000E+03  0.18250000000E+03  0.00000000000E+00 0. -1.
        -11    1    1    2    0    0  0.23364968960E+01 -0.11460263703E+01  0.17797190653E+03  0.17799093265E+03  0.00000000000E+00 0. -1.
         11    1    1    2    0    0  0.23114257335E+01 -0.14978750926E+01 -0.17976171595E+03  0.17978281575E+03  0.00000000000E+00 0. -1.
        -15    1    1    2    0    0 -0.37451383593E+01  0.12757680320E+01  0.20452428947E+01  0.47952469071E+01  0.17770000000E+01 0. -1.
         15    1    1    2    0    0 -0.90278427014E+00  0.13681334308E+01 -0.25543346942E+00  0.24310046854E+01  0.17770000000E+01 0.  1.
</event>
<event>
 6    1  0.1298204E-002  0.1045744E+03  0.7546771E-02  0.1156130E+00
        -11   -1    0    0    0    0  0.00000000000E+00  0.00000000000E+00  0.18250000000E+03  0.18250000000E+03  0.00000000000E+00 0.  1.
         11   -1    0    0    0    0 -0.00000000000E+00 -0.00000000000E+00 -0.18250000000E+03  0.18250000000E+03  0.00000000000E+00 0.  1.
        -11    1    1    2    0    0 -0.19858881220E+02  0.77836070419E+01  0.86567146009E+02  0.89156213861E+02  0.00000000000E+00 0.  1.
         11    1    1    2    0    0  0.16525300840E+02  0.17332885208E+02 -0.58616507564E+02  0.63319897635E+02  0.00000000000E+00 0.  1.
        -15    1    1    2    0    0 -0.10054950441E+02 -0.24681306824E+02 -0.11824489267E+03  0.12122409541E+03  0.17770000000E+01 0.  1.
         15    1    1    2    0    0  0.13388530821E+02 -0.43518542598E+00  0.90294254229E+02  0.91299793097E+02  0.17770000000E+01 0.  1.
</event>
<event>
 6    1  0.1298204E-002  0.2190651E+03  0.7546771E-02  0.1042581E+00
        -11   -1    0    0    0    0  0.00000000000E+00  0.00000000000E+00  0.18250000000E+03  0.18250000000E+03  0.00000000000E+00 0. -1.
         11   -1    0    0    0    0 -0.00000000000E+00 -0.00000000000E+00 -0.18250000000E+03  0.18250000000E+03  0.00000000000E+00 0.  1.
        -11    1    1    2    0    0  0.59376791149E+01 -0.14332474914E+01  0.14580702871E+03  0.14593491650E+03  0.00000000000E+00 0. -1.
         11    1    1    2    0    0 -0.58845139896E+01  0.14538767322E+01 -0.12428365637E+03  0.12443138070E+03  0.00000000000E+00 0.  1.
        -15    1    1    2    0    0  0.21548389115E+02 -0.93311745738E+01 -0.51417164059E+02  0.56553394074E+02  0.17770000000E+01 0. -1.
         15    1    1    2    0    0 -0.21601554241E+02  0.93105453330E+01  0.29893791722E+02  0.38080308724E+02  0.17770000000E+01 0. -1.
</event>
<event>
 6    1  0.1298204E-002  0.1827231E+03  0.7546771E-02  0.1068277E+00
        -11   -1    0    0    0    0  0.00000000000E+00  0.00000000000E+00  0.18250000000E+03  0.18250000000E+03  0.00000000000E+00 0. -1.
         11   -1    0    0    0    0 -0.00000000000E+00 -0.00000000000E+00 -0.18250000000E+03  0.18250000000E+03  0.00000000000E+00 0.  1.
        -11    1    1    2    0    0  0.62348904620E-01  0.56345279026E+00  0.38472330191E+02  0.38476506556E+02  0.00000000000E+00 0. -1.
         11    1    1    2    0    0 -0.38311042657E+01 -0.78336803117E+00 -0.18223494907E+03  0.18227689839E+03  0.00000000000E+00 0.  1.
        -15    1    1    2    0    0  0.46585496919E+01  0.46933568076E+01  0.76314336966E+02  0.76620920374E+02  0.17770000000E+01 0. -1.
         15    1    1    2    0    0 -0.88979433074E+00 -0.44734415667E+01  0.67448281913E+02  0.67625674677E+02  0.17770000000E+01 0.  1.
</event>
<event>
 6    1  0.1395469E-002  0.1830089E+03  0.7546771E-02  0.1068050E+00
        -11   -1    0    0    0    0  0.00000000000E+00  0.00000000000E+00  0.18250000000E+03  0.18250000000E+03  0.00000000000E+00 0.  1.
         11   -1    0    0    0    0 -0.00000000000E+00 -0.00000000000E+00 -0.18250000000E+03  0.18250000000E+03  0.00000000000E+00 0.  1.
        -11    1    1    2    0    0  0.10780544464E+02  0.24485986988E+01  0.18165498470E+03  0.18199106912E+03  0.00000000000E+00 0.  1.
         11    1    1    2    0    0 -0.58796083764E+00 -0.33329207781E+00 -0.18784384051E+02  0.18796538663E+02  0.00000000000E+00 0.  1.
        -15    1    1    2    0    0 -0.93554823214E+01 -0.17657634212E+01 -0.34699627634E+02  0.36025891480E+02  0.17770000000E+01 0. -1.
         15    1    1    2    0    0 -0.83710130456E+00 -0.34954319978E+00 -0.12817097301E+03  0.12818650074E+03  0.17770000000E+01 0.  1.
</event>
<event>
 6    1  0.1298204E-002  0.1825851E+03  0.7546771E-02  0.1068387E+00
        -11   -1    0    0    0    0  0.00000000000E+00  0.00000000000E+00  0.18250000000E+03  0.18250000000E+03  0.00000000000E+00 0. -1.
         11   -1    0    0    0    0 -0.00000000000E+00 -0.00000000000E+00 -0.18250000000E+03  0.18250000000E+03  0.00000000000E+00 0.  1.
        -11    1    1    2    0    0 -0.14093680631E+01  0.11306151338E+01  0.89829058981E+02  0.89847228373E+02  0.00000000000E+00 0. -1.
         11    1    1    2    0    0  0.78444984307E+00 -0.25334146631E+01 -0.18239559105E+03  0.18241487107E+03  0.00000000000E+00 0.  1.
        -15    1    1    2    0    0  0.15230969372E+01 -0.75972131549E+00  0.55716914522E+02  0.55771222809E+02  0.17770000000E+01 0. -1.
         15    1    1    2    0    0 -0.89817871710E+00  0.21625208449E+01  0.36849617549E+02  0.36966677751E+02  0.17770000000E+01 0.  1.
</event>
<event>
 6    1  0.1298204E-002  0.1827427E+03  0.7546771E-02  0.1068262E+00
        -11   -1    0    0    0    0  0.00000000000E+00  0.00000000000E+00  0.18250000000E+03  0.18250000000E+03  0.00000000000E+00 0. -1.
         11   -1    0    0    0    0 -0.00000000000E+00 -0.00000000000E+00 -0.18250000000E+03  0.18250000000E+03  0.00000000000E+00 0. -1.
        -11    1    1    2    0    0  0.85723653601E-01  0.82220864787E+00  0.54235980218E+02  0.54242279873E+02  0.00000000000E+00 0. -1.
         11    1    1    2    0    0  0.32612405967E+00 -0.42468227856E+01 -0.18220750545E+03  0.18225728217E+03  0.00000000000E+00 0. -1.
        -15    1    1    2    0    0 -0.46225215182E+01  0.38231631779E+01  0.95722444961E+02  0.95926682838E+02  0.17770000000E+01 0. -1.
         15    1    1    2    0    0  0.42106738049E+01 -0.39854904019E+00  0.32249080272E+02  0.32573755120E+02  0.17770000000E+01 0. -1.
</event>
<event>
 6    1  0.1298204E-002  0.1827007E+03  0.7546771E-02  0.1068295E+00
        -11   -1    0    0    0    0  0.00000000000E+00  0.00000000000E+00  0.18250000000E+03  0.18250000000E+03  0.00000000000E+00 0. -1.
         11   -1    0    0    0    0 -0.00000000000E+00 -0.00000000000E+00 -0.18250000000E+03  0.18250000000E+03  0.00000000000E+00 0.  1.
        -11    1    1    2    0    0  0.26082989261E+01  0.60364003754E+00  0.18227962502E+03  0.18229928498E+03  0.00000000000E+00 0. -1.
         11    1    1    2    0    0 -0.10562782426E+01 -0.22354596899E+01 -0.15046506852E+03  0.15048538084E+03  0.00000000000E+00 0.  1.
        -15    1    1    2    0    0  0.44207092272E+00  0.26389992227E+00 -0.16965914623E+02  0.17066489324E+02  0.17770000000E+01 0. -1.
         15    1    1    2    0    0 -0.19940916062E+01  0.13679197301E+01 -0.14848641881E+02  0.15148844855E+02  0.17770000000E+01 0.  1.
</event>
<event>
 6    1  0.1298204E-002  0.1840714E+03  0.7546771E-02  0.1067211E+00
        -11   -1    0    0    0    0  0.00000000000E+00  0.00000000000E+00  0.18250000000E+03  0.18250000000E+03  0.00000000000E+00 0.  1.
         11   -1    0    0    0    0 -0.00000000000E+00 -0.00000000000E+00 -0.18250000000E+03  0.18250000000E+03  0.00000000000E+00 0.  1.
        -11    1    1    2    0    0  0.13575162075E+01 -0.90015863737E+00  0.89986611548E+02  0.90001352177E+02  0.00000000000E+00 0.  1.
         11    1    1    2    0    0  0.15754299121E+01  0.37440910325E+01 -0.18088303516E+03  0.18092863954E+03  0.00000000000E+00 0.  1.
        -15    1    1    2    0    0 -0.86574275824E+00  0.58318879246E+01  0.78257638855E+02  0.78499529906E+02  0.17770000000E+01 0.  1.
         15    1    1    2    0    0 -0.20672033614E+01 -0.86758203197E+01  0.12638784754E+02  0.15570478381E+02  0.17770000000E+01 0. -1.
</event>
<event>
 6    1  0.1298204E-002  0.1825839E+03  0.7546771E-02  0.1068388E+00
        -11   -1    0    0    0    0  0.00000000000E+00  0.00000000000E+00  0.18250000000E+03  0.18250000000E+03  0.00000000000E+00 0. -1.
         11   -1    0    0    0    0 -0.00000000000E+00 -0.00000000000E+00 -0.18250000000E+03  0.18250000000E+03  0.00000000000E+00 0. -1.
        -11    1    1    2    0    0 -0.79461727457E+00 -0.33917420814E+01  0.18238286941E+03  0.18241613521E+03  0.00000000000E+00 0. -1.
         11    1    1    2    0    0  0.38897829170E+00  0.49599498944E+00 -0.28185491077E+02  0.28192538417E+02  0.00000000000E+00 0. -1.
        -15    1    1    2    0    0  0.14019669261E+01  0.37888726549E+01 -0.57788742973E+02  0.57957032453E+02  0.17770000000E+01 0. -1.
         15    1    1    2    0    0 -0.99632794323E+00 -0.89312556291E+00 -0.96408635361E+02  0.96434293919E+02  0.17770000000E+01 0. -1.
</event>
<event>
 6    1  0.1298204E-002  0.1446956E+03  0.7546771E-02  0.1103297E+00
        -11   -1    0    0    0    0  0.00000000000E+00  0.00000000000E+00  0.18250000000E+03  0.18250000000E+03  0.00000000000E+00 0.  1.
         11   -1    0    0    0    0 -0.00000000000E+00 -0.00000000000E+00 -0.18250000000E+03  0.18250000000E+03  0.00000000000E+00 0.  1.
        -11    1    1    2    0    0 -0.53968745843E+00 -0.88795450263E+00  0.36504637499E+02  0.36519423389E+02  0.00000000000E+00 0.  1.
         11    1    1    2    0    0 -0.19736220373E+02 -0.29204734006E+02 -0.16811133771E+03  0.17176686744E+03  0.00000000000E+00 0.  1.
        -15    1    1    2    0    0  0.14719529581E+02  0.29114347156E+02  0.88974234979E+01  0.33861949668E+02  0.17770000000E+01 0. -1.
         15    1    1    2    0    0  0.55563782510E+01  0.97834135243E+00  0.12270927672E+03  0.12285175950E+03  0.17770000000E+01 0.  1.
</event>
<event>
 6    1  0.1298204E-002  0.1825990E+03  0.7546771E-02  0.1068376E+00
        -11   -1    0    0    0    0  0.00000000000E+00  0.00000000000E+00  0.18250000000E+03  0.18250000000E+03  0.00000000000E+00 0.  1.
         11   -1    0    0    0    0 -0.00000000000E+00 -0.00000000000E+00 -0.18250000000E+03  0.18250000000E+03  0.00000000000E+00 0. -1.
        -11    1    1    2    0    0 -0.87901838750E+00  0.36651343742E+01  0.18236208874E+03  0.18240103425E+03  0.00000000000E+00 0.  1.
         11    1    1    2    0    0  0.12287377063E-01 -0.12973225627E+01 -0.69788414337E+02  0.69800472580E+02  0.00000000000E+00 0. -1.
        -15    1    1    2    0    0 -0.12745592436E+01  0.15029880334E+00 -0.76243539053E+02  0.76275042231E+02  0.17770000000E+01 0.  1.
         15    1    1    2    0    0  0.21412902540E+01 -0.25181106149E+01 -0.36330135353E+02  0.36523450943E+02  0.17770000000E+01 0. -1.
</event>
<event>
 6    1  0.1298204E-002  0.2091255E+03  0.7546771E-02  0.1049038E+00
        -11   -1    0    0    0    0  0.00000000000E+00  0.00000000000E+00  0.18250000000E+03  0.18250000000E+03  0.00000000000E+00 0. -1.
         11   -1    0    0    0    0 -0.00000000000E+00 -0.00000000000E+00 -0.18250000000E+03  0.18250000000E+03  0.00000000000E+00 0.  1.
        -11    1    1    2    0    0 -0.41031921579E+01 -0.14355069700E+02  0.13954138558E+03  0.14033781566E+03  0.00000000000E+00 0. -1.
         11    1    1    2    0    0 -0.26881297301E+01  0.83674253615E+01 -0.15562657421E+03  0.15587453432E+03  0.00000000000E+00 0.  1.
        -15    1    1    2    0    0  0.77689296010E+01  0.14197194446E+02  0.40125838579E+02  0.43303085894E+02  0.17770000000E+01 0. -1.
         15    1    1    2    0    0 -0.97760771294E+00 -0.82095501072E+01 -0.24040649949E+02  0.25484564128E+02  0.17770000000E+01 0.  1.
</event>
<event>
 6    1  0.1298204E-002  0.1831293E+03  0.7546771E-02  0.1067955E+00
        -11   -1    0    0    0    0  0.00000000000E+00  0.00000000000E+00  0.18250000000E+03  0.18250000000E+03  0.00000000000E+00 0. -1.
         11   -1    0    0    0    0 -0.00000000000E+00 -0.00000000000E+00 -0.18250000000E+03  0.18250000000E+03  0.00000000000E+00 0. -1.
        -11    1    1    2    0    0  0.24648110261E+01 -0.53832102597E+00  0.29858278673E+02  0.29964677343E+02  0.00000000000E+00 0. -1.
         11    1    1    2    0    0 -0.29013868085E+01  0.14215824528E+01 -0.18184195517E+03  0.18187065624E+03  0.00000000000E+00 0. -1.
        -15    1    1    2    0    0  0.35357936095E+00  0.78152032182E+01  0.10778012543E+03  0.10807828453E+03  0.17770000000E+01 0. -1.
         15    1    1    2    0    0  0.82996421513E-01 -0.86984646451E+01  0.44203551069E+02  0.45086381887E+02  0.17770000000E+01 0.  1.
</event>
<event>
 6    1  0.1298204E-002  0.1876745E+03  0.7546771E-02  0.1064409E+00
        -11   -1    0    0    0    0  0.00000000000E+00  0.00000000000E+00  0.18250000000E+03  0.18250000000E+03  0.00000000000E+00 0.  1.
         11   -1    0    0    0    0 -0.00000000000E+00 -0.00000000000E+00 -0.18250000000E+03  0.18250000000E+03  0.00000000000E+00 0. -1.
        -11    1    1    2    0    0  0.34564869292E+01  0.22559757493E+01  0.17727741601E+03  0.17732546054E+03  0.00000000000E+00 0.  1.
         11    1    1    2    0    0  0.91695274624E+00 -0.47616751782E+01 -0.17122245325E+03  0.17129110558E+03  0.00000000000E+00 0. -1.
        -15    1    1    2    0    0 -0.40284591176E+01 -0.23053813853E+01  0.31189040229E+01  0.58675853209E+01  0.17770000000E+01 0. -1.
         15    1    1    2    0    0 -0.34498055783E+00  0.48110808142E+01 -0.91738667807E+01  0.10515848558E+02  0.17770000000E+01 0. -1.
</event>
<event>
 6    1  0.1298204E-002  0.1850386E+03  0.7546771E-02  0.1066452E+00
        -11   -1    0    0    0    0  0.00000000000E+00  0.00000000000E+00  0.18250000000E+03  0.18250000000E+03  0.00000000000E+00 0.  1.
         11   -1    0    0    0    0 -0.00000000000E+00 -0.00000000000E+00 -0.18250000000E+03  0.18250000000E+03  0.00000000000E+00 0. -1.
        -11    1    1    2    0    0  0.12546353820E+01  0.20089537051E+01  0.16721640637E+03  0.16723318021E+03  0.00000000000E+00 0.  1.
         11    1    1    2    0    0  0.35728407962E+01  0.94294831028E+00 -0.17992343692E+03  0.17996137779E+03  0.00000000000E+00 0. -1.
        -15    1    1    2    0    0 -0.20208119449E+01  0.39138092409E+01  0.38274961195E+01  0.60999212483E+01  0.17770000000E+01 0. -1.
         15    1    1    2    0    0 -0.28066642334E+01 -0.68657112562E+01  0.88795344329E+01  0.11705520745E+02  0.17770000000E+01 0.  1.
</event>
<event>
 6    1  0.1298204E-002  0.1827649E+03  0.7546771E-02  0.1068244E+00
        -11   -1    0    0    0    0  0.00000000000E+00  0.00000000000E+00  0.18250000000E+03  0.18250000000E+03  0.00000000000E+00 0. -1.
         11   -1    0    0    0    0 -0.00000000000E+00 -0.00000000000E+00 -0.18250000000E+03  0.18250000000E+03  0.00000000000E+00 0.  1.
        -11    1    1    2    0    0  0.63558584424E+00  0.67536422427E+01  0.18210875599E+03  0.18223505333E+03  0.00000000000E+00 0. -1.
         11    1    1    2    0    0 -0.19447260784E+01 -0.19218963104E+01 -0.71842626004E+02  0.71894635100E+02  0.00000000000E+00 0.  1.
        -15    1    1    2    0    0  0.10866967642E+01  0.23920999694E+01 -0.16033466700E+02  0.16344198834E+02  0.17770000000E+01 0.  1.
         15    1    1    2    0    0  0.22244346992E+00 -0.72238459017E+01 -0.94232663286E+02  0.94526112739E+02  0.17770000000E+01 0.  1.
</event>
<event>
 6    1  0.1298204E-002  0.1928164E+03  0.7546771E-02  0.1060527E+00
        -11   -1    0    0    0    0  0.00000000000E+00  0.00000000000E+00  0.18250000000E+03  0.18250000000E+03  0.00000000000E+00 0.  1.
         11   -1    0    0    0    0 -0.00000000000E+00 -0.00000000000E+00 -0.18250000000E+03  0.18250000000E+03  0.00000000000E+00 0. -1.
        -11    1    1    2    0    0  0.32474382140E+01  0.28363934892E+01  0.15978228117E+03  0.15984044657E+03  0.00000000000E+00 0.  1.
         11    1    1    2    0    0  0.12578547177E+02 -0.53119609417E+01 -0.17164131375E+03  0.17218355718E+03  0.00000000000E+00 0. -1.
        -15    1    1    2    0    0 -0.96885330827E+01 -0.23243511010E+01  0.19467932288E+02  0.21941476657E+02  0.17770000000E+01 0.  1.
         15    1    1    2    0    0 -0.61374523083E+01  0.47999185535E+01 -0.76088997090E+01  0.11034519597E+02  0.17770000000E+01 0. -1.
</event>
<event>
 6    1  0.1298204E-002  0.1835686E+03  0.7546771E-02  0.1067607E+00
        -11   -1    0    0    0    0  0.00000000000E+00  0.00000000000E+00  0.18250000000E+03  0.18250000000E+03  0.00000000000E+00 0. -1.
         11   -1    0    0    0    0 -0.00000000000E+00 -0.00000000000E+00 -0.18250000000E+03  0.18250000000E+03  0.00000000000E+00 0. -1.
        -11    1    1    2    0    0 -0.23769419644E+01 -0.50670838086E+00  0.12876945774E+03  0.12879239051E+03  0.00000000000E+00 0. -1.
         11    1    1    2    0    0 -0.59109048778E-01 -0.37464263605E+01 -0.18139267124E+03  0.18143136549E+03  0.00000000000E+00 0. -1.
        -15    1    1    2    0    0  0.34409792562E+00  0.48703310501E+01  0.54889620844E+01  0.75581056942E+01  0.17770000000E+01 0. -1.
         15    1    1    2    0    0  0.20919530875E+01 -0.61719630878E+00  0.47134251417E+02  0.47218138301E+02  0.17770000000E+01 0. -1.
</event>
<event>
 6    1  0.1298204E-002  0.2044544E+03  0.7546771E-02  0.1052209E+00
        -11   -1    0    0    0    0  0.00000000000E+00  0.00000000000E+00  0.18250000000E+03  0.18250000000E+03  0.00000000000E+00 0. -1.
         11   -1    0    0    0    0 -0.00000000000E+00 -0.00000000000E+00 -0.18250000000E+03  0.18250000000E+03  0.00000000000E+00 0. -1.
        -11    1    1    2    0    0  0.38853907631E+01  0.13461147540E-01  0.16049854537E+03  0.16054556833E+03  0.00000000000E+00 0. -1.
         11    1    1    2    0    0 -0.88442019298E+01  0.88933479291E+01 -0.11234758383E+03  0.11304552684E+03  0.00000000000E+00 0. -1.
        -15    1    1    2    0    0 -0.11625246847E+02  0.85722495380E+01  0.16731045312E+02  0.22174657441E+02  0.17770000000E+01 0.  1.
         15    1    1    2    0    0  0.16584058014E+02 -0.17479058615E+02 -0.64882006851E+02  0.69234247395E+02  0.17770000000E+01 0. -1.
</event>
<event>
 6    1  0.1298204E-002  0.1799660E+03  0.7546771E-02  0.1070490E+00
        -11   -1    0    0    0    0  0.00000000000E+00  0.00000000000E+00  0.18250000000E+03  0.18250000000E+03  0.00000000000E+00 0. -1.
         11   -1    0    0    0    0 -0.00000000000E+00 -0.00000000000E+00 -0.18250000000E+03  0.18250000000E+03  0.00000000000E+00 0. -1.
        -11    1    1    2    0    0  0.19801146068E+01 -0.25019780206E+01  0.67892440640E+01  0.75016386765E+01  0.00000000000E+00 0. -1.
         11    1    1    2    0    0 -0.69743059975E+01 -0.17810233489E+02 -0.17972678705E+03  0.18074170339E+03  0.00000000000E+00 0. -1.
        -15    1    1    2    0    0  0.12411418152E+02  0.99952908044E+01  0.14645180271E+03  0.14732697440E+03  0.17770000000E+01 0. -1.
         15    1    1    2    0    0 -0.74172267613E+01  0.10316920705E+02  0.26485740278E+02  0.29429683531E+02  0.17770000000E+01 0.  1.
</event>
<event>
 6    1  0.1298204E-002  0.1828911E+03  0.7546771E-02  0.1068144E+00
        -11   -1    0    0    0    0  0.00000000000E+00  0.00000000000E+00  0.18250000000E+03  0.18250000000E+03  0.00000000000E+00 0.  1.
         11   -1    0    0    0    0 -0.00000000000E+00 -0.00000000000E+00 -0.18250000000E+03  0.18250000000E+03  0.00000000000E+00 0. -1.
        -11    1    1    2    0    0 -0.15920783505E+01  0.93486928474E-01  0.94798519339E+02  0.94811933437E+02  0.00000000000E+00 0.  1.
         11    1    1    2    0    0 -0.21527748181E+01 -0.39137015910E+01 -0.18205409449E+03  0.18210888177E+03  0.00000000000E+00 0. -1.
        -15    1    1    2    0    0  0.57366965997E+01  0.58570691749E+01  0.69919679385E+02  0.70421120706E+02  0.17770000000E+01 0.  1.
         15    1    1    2    0    0 -0.19918434311E+01 -0.20368545124E+01  0.17335895761E+02  0.17658064090E+02  0.17770000000E+01 0.  1.
</event>
<event>
 6    1  0.1298204E-002  0.1829629E+03  0.7546771E-02  0.1068087E+00
        -11   -1    0    0    0    0  0.00000000000E+00  0.00000000000E+00  0.18250000000E+03  0.18250000000E+03  0.00000000000E+00 0.  1.
         11   -1    0    0    0    0 -0.00000000000E+00 -0.00000000000E+00 -0.18250000000E+03  0.18250000000E+03  0.00000000000E+00 0. -1.
        -11    1    1    2    0    0  0.94184034800E+00 -0.22569572520E+01  0.13510982650E+03  0.13513195823E+03  0.00000000000E+00 0.  1.
         11    1    1    2    0    0  0.25066438106E+01  0.70885562750E+00 -0.18201842843E+03  0.18203706773E+03  0.00000000000E+00 0. -1.
        -15    1    1    2    0    0 -0.73986616806E+00  0.12643496770E+01  0.41175239053E+02  0.41239592894E+02  0.17770000000E+01 0.  1.
         15    1    1    2    0    0 -0.27086179905E+01  0.28375194748E+00  0.57333628773E+01  0.65913811503E+01  0.17770000000E+01 0. -1.
</event>
<event>
 6    1  0.1298204E-002  0.1825905E+03  0.7546771E-02  0.1068383E+00
        -11   -1    0    0    0    0  0.00000000000E+00  0.00000000000E+00  0.18250000000E+03  0.18250000000E+03  0.00000000000E+00 0.  1.
         11   -1    0    0    0    0 -0.00000000000E+00 -0.00000000000E+00 -0.18250000000E+03  0.18250000000E+03  0.00000000000E+00 0. -1.
        -11    1    1    2    0    0  0.77157994832E+00  0.12959473166E+01  0.70637635895E+02  0.70653736065E+02  0.00000000000E+00 0.  1.
         11    1    1    2    0    0 -0.10950849874E+01  0.28544504856E+01 -0.18238390813E+03  0.18240953112E+03  0.00000000000E+00 0. -1.
        -15    1    1    2    0    0 -0.94646777268E+00 -0.43902320096E+00  0.48687128854E+02  0.48730717085E+02  0.17770000000E+01 0.  1.
         15    1    1    2    0    0  0.12699728118E+01 -0.37113746013E+01  0.63059143377E+02  0.63206015733E+02  0.17770000000E+01 0.  1.
</event>
<event>
 6    1  0.1298204E-002  0.1874019E+03  0.7546771E-02  0.1064618E+00
        -11   -1    0    0    0    0  0.00000000000E+00  0.00000000000E+00  0.18250000000E+03  0.18250000000E+03  0.00000000000E+00 0.  1.
         11   -1    0    0    0    0 -0.00000000000E+00 -0.00000000000E+00 -0.18250000000E+03  0.18250000000E+03  0.00000000000E+00 0. -1.
        -11    1    1    2    0    0 -0.25026753373E+01  0.55249289776E+01  0.17749448912E+03  0.17759809090E+03  0.00000000000E+00 0.  1.
         11    1    1    2    0    0 -0.63390790189E+01  0.24002063011E+01 -0.16810414230E+03  0.16824074290E+03  0.00000000000E+00 0. -1.
        -15    1    1    2    0    0  0.68426758248E+01 -0.65421505322E+01 -0.11851563397E+02  0.15272171750E+02  0.17770000000E+01 0. -1.
         15    1    1    2    0    0  0.19990785314E+01 -0.13829847466E+01  0.24612165797E+01  0.38889944505E+01  0.17770000000E+01 0.  1.
</event>
<event>
 6    1  0.1298204E-002  0.1852225E+03  0.7546771E-02  0.1066308E+00
        -11   -1    0    0    0    0  0.00000000000E+00  0.00000000000E+00  0.18250000000E+03  0.18250000000E+03  0.00000000000E+00 0. -1.
         11   -1    0    0    0    0 -0.00000000000E+00 -0.00000000000E+00 -0.18250000000E+03  0.18250000000E+03  0.00000000000E+00 0.  1.
        -11    1    1    2    0    0 -0.24895858114E+00 -0.50739159583E+01  0.17970571099E+03  0.17977749906E+03  0.00000000000E+00 0. -1.
         11    1    1    2    0    0 -0.16997366041E+01 -0.23223725783E+01 -0.16819748230E+03  0.16822210191E+03  0.00000000000E+00 0.  1.
        -15    1    1    2    0    0 -0.49573584981E-01  0.15951065332E+01 -0.10205259194E+02  0.10481024121E+02  0.17770000000E+01 0.  1.
         15    1    1    2    0    0  0.19982687702E+01  0.58011820034E+01 -0.13029694934E+01  0.65193749098E+01  0.17770000000E+01 0. -1.
</event>
<event>
 6    1  0.1298204E-002  0.1838328E+03  0.7546771E-02  0.1067399E+00
        -11   -1    0    0    0    0  0.00000000000E+00  0.00000000000E+00  0.18250000000E+03  0.18250000000E+03  0.00000000000E+00 0. -1.
         11   -1    0    0    0    0 -0.00000000000E+00 -0.00000000000E+00 -0.18250000000E+03  0.18250000000E+03  0.00000000000E+00 0. -1.
        -11    1    1    2    0    0 -0.18024458541E+01 -0.11837489826E+00  0.11568127796E+03  0.11569537974E+03  0.00000000000E+00 0. -1.
         11    1    1    2    0    0  0.12461112860E+02 -0.79053040673E+01 -0.18056516631E+03  0.18116719474E+03  0.00000000000E+00 0. -1.
        -15    1    1    2    0    0 -0.99478956366E+01  0.12055082948E+02  0.42609676068E+02  0.45420566664E+02  0.17770000000E+01 0. -1.
         15    1    1    2    0    0 -0.71077136882E+00 -0.40314039826E+01  0.22274212286E+02  0.22716858849E+02  0.17770000000E+01 0.  1.
</event>
<event>
 6    1  0.1298204E-002  0.1852436E+03  0.7546771E-02  0.1066292E+00
        -11   -1    0    0    0    0  0.00000000000E+00  0.00000000000E+00  0.18250000000E+03  0.18250000000E+03  0.00000000000E+00 0.  1.
         11   -1    0    0    0    0 -0.00000000000E+00 -0.00000000000E+00 -0.18250000000E+03  0.18250000000E+03  0.00000000000E+00 0. -1.
        -11    1    1    2    0    0 -0.16454082027E+01  0.10014485012E+02  0.17946963862E+03  0.17975635862E+03  0.00000000000E+00 0.  1.
         11    1    1    2    0    0 -0.17754669799E+01 -0.13133020477E+01 -0.94652581546E+02  0.94678340915E+02  0.00000000000E+00 0. -1.
        -15    1    1    2    0    0  0.84923345327E+01 -0.13376427233E+02 -0.80860339897E+02  0.82417236356E+02  0.17770000000E+01 0.  1.
         15    1    1    2    0    0 -0.50714593501E+01  0.46752442684E+01 -0.39567171760E+01  0.81480641087E+01  0.17770000000E+01 0. -1.
</event>
<event>
 6    1  0.1298204E-002  0.1826261E+03  0.7546771E-02  0.1068355E+00
        -11   -1    0    0    0    0  0.00000000000E+00  0.00000000000E+00  0.18250000000E+03  0.18250000000E+03  0.00000000000E+00 0. -1.
         11   -1    0    0    0    0 -0.00000000000E+00 -0.00000000000E+00 -0.18250000000E+03  0.18250000000E+03  0.00000000000E+00 0. -1.
        -11    1    1    2    0    0  0.17378456670E+01  0.34580424609E+01  0.18233287971E+03  0.18237394876E+03  0.00000000000E+00 0. -1.
         11    1    1    2    0    0  0.14768728114E+01 -0.70011281390E+00 -0.33757942797E+02  0.33797485308E+02  0.00000000000E+00 0. -1.
        -15    1    1    2    0    0 -0.23240221215E+01 -0.44155336407E+01 -0.65679614887E+02  0.65892849057E+02  0.17770000000E+01 0. -1.
         15    1    1    2    0    0 -0.89069635691E+00  0.16576039937E+01 -0.82895322023E+02  0.82935716873E+02  0.17770000000E+01 0.  1.
</event>
<event>
 6    1  0.1298204E-002  0.1830366E+03  0.7546771E-02  0.1068028E+00
        -11   -1    0    0    0    0  0.00000000000E+00  0.00000000000E+00  0.18250000000E+03  0.18250000000E+03  0.00000000000E+00 0. -1.
         11   -1    0    0    0    0 -0.00000000000E+00 -0.00000000000E+00 -0.18250000000E+03  0.18250000000E+03  0.00000000000E+00 0.  1.
        -11    1    1    2    0    0 -0.25652599772E+01 -0.16892909249E+01  0.14098319772E+03  0.14101665257E+03  0.00000000000E+00 0. -1.
         11    1    1    2    0    0  0.23634883949E+01 -0.25609022592E+01 -0.18193005637E+03  0.18196342959E+03  0.00000000000E+00 0.  1.
        -15    1    1    2    0    0  0.87218697181E+00  0.93509170904E-01  0.31112764856E+02  0.31175813062E+02  0.17770000000E+01 0.  1.
         15    1    1    2    0    0 -0.67041538949E+00  0.41566840132E+01  0.98340937913E+01  0.10844104780E+02  0.17770000000E+01 0. -1.
</event>
<event>
 6    1  0.1298204E-002  0.1838838E+03  0.7546771E-02  0.1067359E+00
        -11   -1    0    0    0    0  0.00000000000E+00  0.00000000000E+00  0.18250000000E+03  0.18250000000E+03  0.00000000000E+00 0. -1.
         11   -1    0    0    0    0 -0.00000000000E+00 -0.00000000000E+00 -0.18250000000E+03  0.18250000000E+03  0.00000000000E+00 0. -1.
        -11    1    1    2    0    0  0.27158164323E+01  0.25292730919E+00  0.18109569073E+03  0.18111623018E+03  0.00000000000E+00 0. -1.
         11    1    1    2    0    0 -0.27924620043E+01  0.83279140868E+00 -0.16828715131E+03  0.16831237828E+03  0.00000000000E+00 0. -1.
        -15    1    1    2    0    0 -0.26733774283E+01 -0.54043870249E-01 -0.11377300287E+01  0.34061747213E+01  0.17770000000E+01 0.  1.
         15    1    1    2    0    0  0.27500230003E+01 -0.10316748476E+01 -0.11670809390E+02  0.12165216822E+02  0.17770000000E+01 0. -1.
</event>
<event>
 6    1  0.1298204E-002  0.1838233E+03  0.7546771E-02  0.1067406E+00
        -11   -1    0    0    0    0  0.00000000000E+00  0.00000000000E+00  0.18250000000E+03  0.18250000000E+03  0.00000000000E+00 0.  1.
         11   -1    0    0    0    0 -0.00000000000E+00 -0.00000000000E+00 -0.18250000000E+03  0.18250000000E+03  0.00000000000E+00 0.  1.
        -11    1    1    2    0    0 -0.76544610213E+00 -0.35076918668E+01  0.13737404934E+03  0.13742095634E+03  0.00000000000E+00 0.  1.
         11    1    1    2    0    0 -0.67564427063E+01 -0.43329781831E+01 -0.18099879101E+03  0.18117667225E+03  0.00000000000E+00 0.  1.
        -15    1    1    2    0    0  0.52381951085E+01 -0.33246153998E+00  0.27907227101E+02  0.28452069734E+02  0.17770000000E+01 0.  1.
         15    1    1    2    0    0  0.22836936999E+01  0.81731315898E+01  0.15717514578E+02  0.17950301680E+02  0.17770000000E+01 0. -1.
</event>
<event>
 6    1  0.1298204E-002  0.1852223E+03  0.7546771E-02  0.1066308E+00
        -11   -1    0    0    0    0  0.00000000000E+00  0.00000000000E+00  0.18250000000E+03  0.18250000000E+03  0.00000000000E+00 0. -1.
         11   -1    0    0    0    0 -0.00000000000E+00 -0.00000000000E+00 -0.18250000000E+03  0.18250000000E+03  0.00000000000E+00 0.  1.
        -11    1    1    2    0    0 -0.24764206308E+01  0.12958983741E+01  0.17975595798E+03  0.17977768616E+03  0.00000000000E+00 0. -1.
         11    1    1    2    0    0  0.34465828907E+01  0.16243446466E+01 -0.17645207673E+03  0.17649320897E+03  0.00000000000E+00 0.  1.
        -15    1    1    2    0    0 -0.25618510937E+01 -0.39738045059E+01 -0.80022707433E+00  0.51139315255E+01  0.17770000000E+01 0.  1.
         15    1    1    2    0    0  0.15916888337E+01  0.10535614852E+01 -0.25036541662E+01  0.36151733472E+01  0.17770000000E+01 0. -1.
</event>
<event>
 6    1  0.1298204E-002  0.1872370E+03  0.7546771E-02  0.1064745E+00
        -11   -1    0    0    0    0  0.00000000000E+00  0.00000000000E+00  0.18250000000E+03  0.18250000000E+03  0.00000000000E+00 0.  1.
         11   -1    0    0    0    0 -0.00000000000E+00 -0.00000000000E+00 -0.18250000000E+03  0.18250000000E+03  0.00000000000E+00 0.  1.
        -11    1    1    2    0    0 -0.93346512266E+00 -0.15988494101E+01  0.51857410854E+02  0.51890449382E+02  0.00000000000E+00 0.  1.
         11    1    1    2    0    0  0.20554361529E+02  0.53928906847E+01 -0.17648828018E+03  0.17776298289E+03  0.00000000000E+00 0.  1.
        -15    1    1    2    0    0  0.69289027982E+01  0.20154314465E+00  0.95203110544E+02  0.95471672761E+02  0.17770000000E+01 0.  1.
         15    1    1    2    0    0 -0.26549799205E+02 -0.39955844192E+01  0.29427758778E+02  0.39874894963E+02  0.17770000000E+01 0.  1.
</event>
<event>
 6    1  0.1298204E-002  0.1861417E+03  0.7546771E-02  0.1065592E+00
        -11   -1    0    0    0    0  0.00000000000E+00  0.00000000000E+00  0.18250000000E+03  0.18250000000E+03  0.00000000000E+00 0.  1.
         11   -1    0    0    0    0 -0.00000000000E+00 -0.00000000000E+00 -0.18250000000E+03  0.18250000000E+03  0.00000000000E+00 0. -1.
        -11    1    1    2    0    0 -0.60616319637E+01  0.35540087244E+01  0.17872017829E+03  0.17885825809E+03  0.00000000000E+00 0.  1.
         11    1    1    2    0    0  0.46631475695E+01 -0.98612110876E+01 -0.16888988242E+03  0.16924178211E+03  0.00000000000E+00 0. -1.
        -15    1    1    2    0    0 -0.51202658780E+01  0.26175979277E+01 -0.37664019398E+01  0.71001728250E+01  0.17770000000E+01 0. -1.
         15    1    1    2    0    0  0.65187502721E+01  0.36896044354E+01 -0.60638939341E+01  0.97997869693E+01  0.17770000000E+01 0.  1.
</event>
<event>
 6    1  0.1298204E-002  0.1831333E+03  0.7546771E-02  0.1067952E+00
        -11   -1    0    0    0    0  0.00000000000E+00  0.00000000000E+00  0.18250000000E+03  0.18250000000E+03  0.00000000000E+00 0. -1.
         11   -1    0    0    0    0 -0.00000000000E+00 -0.00000000000E+00 -0.18250000000E+03  0.18250000000E+03  0.00000000000E+00 0.  1.
        -11    1    1    2    0    0  0.40597442086E+01 -0.96831920105E-01  0.11713623087E+03  0.11720660170E+03  0.00000000000E+00 0. -1.
         11    1    1    2    0    0 -0.10333531197E+01  0.37138851938E+01 -0.18182582704E+03  0.18186668782E+03  0.00000000000E+00 0.  1.
        -15    1    1    2    0    0 -0.43135576623E+01  0.12921219802E+01  0.50838681286E+02  0.51068636195E+02  0.17770000000E+01 0.  1.
         15    1    1    2    0    0  0.12871665734E+01 -0.49091752539E+01  0.13850914877E+02  0.14858074283E+02  0.17770000000E+01 0. -1.
</event>
<event>
 6    1  0.1298204E-002  0.1857058E+03  0.7546771E-02  0.1065931E+00
        -11   -1    0    0    0    0  0.00000000000E+00  0.00000000000E+00  0.18250000000E+03  0.18250000000E+03  0.00000000000E+00 0. -1.
         11   -1    0    0    0    0 -0.00000000000E+00 -0.00000000000E+00 -0.18250000000E+03  0.18250000000E+03  0.00000000000E+00 0.  1.
        -11    1    1    2    0    0  0.34273511651E+01  0.22631361731E+01  0.17924712819E+03  0.17929417583E+03  0.00000000000E+00 0. -1.
         11    1    1    2    0    0 -0.39629229085E+00  0.34437307047E+01 -0.17168619217E+03  0.17172118364E+03  0.00000000000E+00 0.  1.
        -15    1    1    2    0    0 -0.55021061828E+00  0.19235333578E+01 -0.44598219146E+01  0.52010049811E+01  0.17770000000E+01 0. -1.
         15    1    1    2    0    0 -0.24808482559E+01 -0.76304002357E+01 -0.31011141111E+01  0.87836355546E+01  0.17770000000E+01 0.  1.
</event>
<event>
 6    1  0.1298204E-002  0.1848201E+03  0.7546771E-02  0.1066623E+00
        -11   -1    0    0    0    0  0.00000000000E+00  0.00000000000E+00  0.18250000000E+03  0.18250000000E+03  0.00000000000E+00 0.  1.
         11   -1    0    0    0    0 -0.00000000000E+00 -0.00000000000E+00 -0.18250000000E+03  0.18250000000E+03  0.00000000000E+00 0. -1.
        -11    1    1    2    0    0  0.12910057142E+01  0.15023466964E+01  0.14118387279E+03  0.14119776796E+03  0.00000000000E+00 0.  1.
         11    1    1    2    0    0  0.27786072180E+01 -0.38134913113E+01 -0.18011813393E+03  0.18017992547E+03  0.00000000000E+00 0. -1.
        -15    1    1    2    0    0 -0.30023469580E+01  0.25645913148E+01 -0.29261636203E+00  0.43398812430E+01  0.17770000000E+01 0. -1.
         15    1    1    2    0    0 -0.10672659742E+01 -0.25344669992E+00  0.39226877502E+02  0.39282425325E+02  0.17770000000E+01 0.  1.
</event>
<event>
 6    1  0.1298204E-002  0.1647232E+03  0.7546771E-02  0.1083557E+00
        -11   -1    0    0    0    0  0.00000000000E+00  0.00000000000E+00  0.18250000000E+03  0.18250000000E+03  0.00000000000E+00 0.  1.
         11   -1    0    0    0    0 -0.00000000000E+00 -0.00000000000E+00 -0.18250000000E+03  0.18250000000E+03  0.00000000000E+00 0. -1.
        -11    1    1    2    0    0 -0.28434365572E+01 -0.60892006237E+01  0.16323502060E+03  0.16337330090E+03  0.00000000000E+00 0.  1.
         11    1    1    2    0    0  0.23679636177E+01  0.24646011908E+02 -0.16474905757E+03  0.16659917505E+03  0.00000000000E+00 0. -1.
        -15    1    1    2    0    0  0.43233021485E+01  0.54518133368E+01  0.70104058698E+01  0.10035772496E+02  0.17770000000E+01 0.  1.
         15    1    1    2    0    0 -0.38478292090E+01 -0.24008624621E+02 -0.54963688981E+01  0.24991751557E+02  0.17770000000E+01 0. -1.
</event>
<event>
 6    1  0.1298204E-002  0.1835251E+03  0.7546771E-02  0.1067642E+00
        -11   -1    0    0    0    0  0.00000000000E+00  0.00000000000E+00  0.18250000000E+03  0.18250000000E+03  0.00000000000E+00 0. -1.
         11   -1    0    0    0    0 -0.00000000000E+00 -0.00000000000E+00 -0.18250000000E+03  0.18250000000E+03  0.00000000000E+00 0. -1.
        -11    1    1    2    0    0 -0.54863180278E+01 -0.40416244718E+01  0.18134688237E+03  0.18147486371E+03  0.00000000000E+00 0. -1.
         11    1    1    2    0    0  0.34721072945E+01 -0.14955312178E+01 -0.10210173597E+03  0.10217170172E+03  0.00000000000E+00 0. -1.
        -15    1    1    2    0    0 -0.43743033202E+01  0.95367341665E+01 -0.44214040730E+02  0.45476619870E+02  0.17770000000E+01 0. -1.
         15    1    1    2    0    0  0.63885140534E+01 -0.39995784768E+01 -0.35031105668E+02  0.35876814701E+02  0.17770000000E+01 0.  1.
</event>
<event>
 6    1  0.1298204E-002  0.1862041E+03  0.7546771E-02  0.1065544E+00
        -11   -1    0    0    0    0  0.00000000000E+00  0.00000000000E+00  0.18250000000E+03  0.18250000000E+03  0.00000000000E+00 0. -1.
         11   -1    0    0    0    0 -0.00000000000E+00 -0.00000000000E+00 -0.18250000000E+03  0.18250000000E+03  0.00000000000E+00 0.  1.
        -11    1    1    2    0    0 -0.19931531691E+01  0.23560388301E+01  0.99660538543E+02  0.99708307183E+02  0.00000000000E+00 0. -1.
         11    1    1    2    0    0  0.57747761663E+01  0.67753345766E+01 -0.17857412376E+03  0.17879589166E+03  0.00000000000E+00 0.  1.
        -15    1    1    2    0    0  0.11341743229E+02  0.48962671070E+01  0.45562447887E+02  0.47240903437E+02  0.17770000000E+01 0.  1.
         15    1    1    2    0    0 -0.15123366226E+02 -0.14027640514E+02  0.33351137332E+02  0.39254897716E+02  0.17770000000E+01 0. -1.
</event>
<event>
 6    1  0.1298204E-002  0.1845189E+03  0.7546771E-02  0.1066859E+00
        -11   -1    0    0    0    0  0.00000000000E+00  0.00000000000E+00  0.18250000000E+03  0.18250000000E+03  0.00000000000E+00 0.  1.
         11   -1    0    0    0    0 -0.00000000000E+00 -0.00000000000E+00 -0.18250000000E+03  0.18250000000E+03  0.00000000000E+00 0.  1.
        -11    1    1    2    0    0 -0.15437928582E+01  0.10573345183E+01  0.11908281228E+03  0.11909751228E+03  0.00000000000E+00 0.  1.
         11    1    1    2    0    0 -0.10019430816E+02 -0.32760137475E+01 -0.18017297920E+03  0.18048108958E+03  0.00000000000E+00 0.  1.
        -15    1    1    2    0    0  0.93066456715E+01  0.22786124358E+01  0.90408964642E+01  0.13292902849E+02  0.17770000000E+01 0.  1.
         15    1    1    2    0    0  0.22565780027E+01 -0.59933206600E-01  0.52049270463E+02  0.52128495288E+02  0.17770000000E+01 0. -1.
</event>
<event>
 6    1  0.1298204E-002  0.1873743E+03  0.7546771E-02  0.1064640E+00
        -11   -1    0    0    0    0  0.00000000000E+00  0.00000000000E+00  0.18250000000E+03  0.18250000000E+03  0.00000000000E+00 0. -1.
         11   -1    0    0    0    0 -0.00000000000E+00 -0.00000000000E+00 -0.18250000000E+03  0.18250000000E+03  0.00000000000E+00 0.  1.
        -11    1    1    2    0    0  0.29827095175E+01 -0.16874007238E+02  0.17679726321E+03  0.17762573281E+03  0.00000000000E+00 0. -1.
         11    1    1    2    0    0  0.15356501882E+01 -0.10682649506E+01 -0.11921563008E+03  0.11923030599E+03  0.00000000000E+00 0.  1.
        -15    1    1    2    0    0 -0.61582366232E+01  0.14884044726E+02 -0.74067960764E+01  0.17817884915E+02  0.17770000000E+01 0.  1.
         15    1    1    2    0    0  0.16398769175E+01  0.30582274622E+01 -0.50174837061E+02  0.50326076288E+02  0.17770000000E+01 0. -1.
</event>
<event>
 6    1  0.1298204E-002  0.1893379E+03  0.7546771E-02  0.1063139E+00
        -11   -1    0    0    0    0  0.00000000000E+00  0.00000000000E+00  0.18250000000E+03  0.18250000000E+03  0.00000000000E+00 0.  1.
         11   -1    0    0    0    0 -0.00000000000E+00 -0.00000000000E+00 -0.18250000000E+03  0.18250000000E+03  0.00000000000E+00 0.  1.
        -11    1    1    2    0    0 -0.33314074341E+01 -0.16649551779E+01  0.15937797657E+03  0.15942148465E+03  0.00000000000E+00 0.  1.
         11    1    1    2    0    0 -0.78496363645E+00 -0.16102132717E+02 -0.17492081287E+03  0.17566213486E+03  0.00000000000E+00 0.  1.
        -15    1    1    2    0    0  0.54427058196E+01  0.12958077834E+02  0.72998977391E+00  0.14185395372E+02  0.17770000000E+01 0. -1.
         15    1    1    2    0    0 -0.13263347491E+01  0.48090100609E+01  0.14812846526E+02  0.15730985120E+02  0.17770000000E+01 0.  1.
</event>
<event>
 6    1  0.1298204E-002  0.1829889E+03  0.7546771E-02  0.1068066E+00
        -11   -1    0    0    0    0  0.00000000000E+00  0.00000000000E+00  0.18250000000E+03  0.18250000000E+03  0.00000000000E+00 0. -1.
         11   -1    0    0    0    0 -0.00000000000E+00 -0.00000000000E+00 -0.18250000000E+03  0.18250000000E+03  0.00000000000E+00 0. -1.
        -11    1    1    2    0    0 -0.16008266867E+01 -0.56526679478E-01  0.11428582268E+03  0.11429704768E+03  0.00000000000E+00 0. -1.
         11    1    1    2    0    0  0.16590995474E+01 -0.44447413449E+01 -0.18194926727E+03  0.18201111009E+03  0.00000000000E+00 0. -1.
        -15    1    1    2    0    0 -0.42031388632E+01  0.30010251303E+01  0.18233580028E+02  0.19034014232E+02  0.17770000000E+01 0.  1.
         15    1    1    2    0    0  0.41448660025E+01  0.15002428940E+01  0.49429864557E+02  0.49657828004E+02  0.17770000000E+01 0. -1.
</event>
<event>
 6    1  0.1298204E-002  0.1872371E+03  0.7546771E-02  0.1064745E+00
        -11   -1    0    0    0    0  0.00000000000E+00  0.00000000000E+00  0.18250000000E+03  0.18250000000E+03  0.00000000000E+00 0.  1.
         11   -1    0    0    0    0 -0.00000000000E+00 -0.00000000000E+00 -0.18250000000E+03  0.18250000000E+03  0.00000000000E+00 0. -1.
        -11    1    1    2    0    0  0.23596655850E+01  0.38308487379E+01  0.17770591275E+03  0.17776286128E+03  0.00000000000E+00 0.  1.
         11    1    1    2    0    0  0.20822296000E+01 -0.96784233088E+00 -0.17025278058E+03  0.17026826391E+03  0.00000000000E+00 0. -1.
        -15    1    1    2    0    0 -0.22772480810E+01 -0.38760826074E+00 -0.11261619107E+02  0.11632621927E+02  0.17770000000E+01 0.  1.
         15    1    1    2    0    0 -0.21646471039E+01 -0.24753981462E+01  0.38084869365E+01  0.53362528812E+01  0.17770000000E+01 0.  1.
</event>
<event>
 6    1  0.1298204E-002  0.1859977E+03  0.7546771E-02  0.1065704E+00
        -11   -1    0    0    0    0  0.00000000000E+00  0.00000000000E+00  0.18250000000E+03  0.18250000000E+03  0.00000000000E+00 0.  1.
         11   -1    0    0    0    0 -0.00000000000E+00 -0.00000000000E+00 -0.18250000000E+03  0.18250000000E+03  0.00000000000E+00 0. -1.
        -11    1    1    2    0    0  0.32139655725E+01 -0.22249867883E+01  0.17895961273E+03  0.17900229923E+03  0.00000000000E+00 0.  1.
         11    1    1    2    0    0  0.33492153843E+01  0.16147133088E+01 -0.16284759205E+03  0.16289003278E+03  0.00000000000E+00 0. -1.
        -15    1    1    2    0    0 -0.56319901967E+01 -0.23791867361E+01 -0.17964063739E+02  0.19058991529E+02  0.17770000000E+01 0.  1.
         15    1    1    2    0    0 -0.93119076016E+00  0.29894602156E+01  0.18520430511E+01  0.40486764597E+01  0.17770000000E+01 0. -1.
</event>
<event>
 6    1  0.1298204E-002  0.1742087E+03  0.7546771E-02  0.1075253E+00
        -11   -1    0    0    0    0  0.00000000000E+00  0.00000000000E+00  0.18250000000E+03  0.18250000000E+03  0.00000000000E+00 0. -1.
         11   -1    0    0    0    0 -0.00000000000E+00 -0.00000000000E+00 -0.18250000000E+03  0.18250000000E+03  0.00000000000E+00 0.  1.
        -11    1    1    2    0    0 -0.30911536308E+01  0.26006105014E+01  0.17289385018E+03  0.17294103572E+03  0.00000000000E+00 0. -1.
         11    1    1    2    0    0  0.18336370291E+01  0.70226316635E+01 -0.17547095173E+03  0.17562099670E+03  0.00000000000E+00 0.  1.
        -15    1    1    2    0    0  0.97728599840E+00 -0.11402609699E+02  0.52862713365E+01  0.12730946136E+02  0.17770000000E+01 0. -1.
         15    1    1    2    0    0  0.28023060325E+00  0.17793675344E+01 -0.27091697875E+01  0.37070214392E+01  0.17770000000E+01 0.  1.
</event>
<event>
 6    1  0.1298204E-002  0.1832670E+03  0.7546771E-02  0.1067846E+00
        -11   -1    0    0    0    0  0.00000000000E+00  0.00000000000E+00  0.18250000000E+03  0.18250000000E+03  0.00000000000E+00 0. -1.
         11   -1    0    0    0    0 -0.00000000000E+00 -0.00000000000E+00 -0.18250000000E+03  0.18250000000E+03  0.00000000000E+00 0. -1.
        -11    1    1    2    0    0 -0.37553017755E+01 -0.26806257265E+01  0.18167439383E+03  0.18173297284E+03  0.00000000000E+00 0. -1.
         11    1    1    2    0    0  0.79838297502E+00 -0.14528734462E+01 -0.10728118911E+03  0.10729399701E+03  0.00000000000E+00 0. -1.
        -15    1    1    2    0    0  0.13395735975E+01  0.34926644814E+01 -0.48174650918E+01  0.63528624661E+01  0.17770000000E+01 0. -1.
         15    1    1    2    0    0  0.16173452030E+01  0.64083469132E+00 -0.69575739624E+02  0.69620167680E+02  0.17770000000E+01 0.  1.
</event>
<event>
 6    1  0.1298204E-002  0.2002916E+03  0.7546771E-02  0.1055113E+00
        -11   -1    0    0    0    0  0.00000000000E+00  0.00000000000E+00  0.18250000000E+03  0.18250000000E+03  0.00000000000E+00 0. -1.
         11   -1    0    0    0    0 -0.00000000000E+00 -0.00000000000E+00 -0.18250000000E+03  0.18250000000E+03  0.00000000000E+00 0. -1.
        -11    1    1    2    0    0 -0.23032776666E+01  0.19811336873E+00  0.15212623344E+03  0.15214379789E+03  0.00000000000E+00 0. -1.
         11    1    1    2    0    0  0.17234178965E+02 -0.31929397194E+01 -0.16377318525E+03  0.16470843328E+03  0.00000000000E+00 0. -1.
        -15    1    1    2    0    0 -0.13533417513E+02  0.38102972818E+01  0.28125964886E+02  0.31494434186E+02  0.17770000000E+01 0.  1.
         15    1    1    2    0    0 -0.13974837854E+01 -0.81547093111E+00 -0.16479013076E+02  0.16653334643E+02  0.17770000000E+01 0. -1.
</event>
<event>
 6    1  0.1298204E-002  0.1647383E+03  0.7546771E-02  0.1083544E+00
        -11   -1    0    0    0    0  0.00000000000E+00  0.00000000000E+00  0.18250000000E+03  0.18250000000E+03  0.00000000000E+00 0.  1.
         11   -1    0    0    0    0 -0.00000000000E+00 -0.00000000000E+00 -0.18250000000E+03  0.18250000000E+03  0.00000000000E+00 0. -1.
        -11    1    1    2    0    0  0.18006482679E+02 -0.28541176501E+01  0.16003850923E+03  0.16107359760E+03  0.00000000000E+00 0.  1.
         11    1    1    2    0    0 -0.26323401805E+01 -0.11585248053E+01 -0.16887983217E+03  0.16890431939E+03  0.00000000000E+00 0. -1.
        -15    1    1    2    0    0  0.10812950751E+01 -0.13855372366E+01 -0.94472720522E+01  0.97722868716E+01  0.17770000000E+01 0.  1.
         15    1    1    2    0    0 -0.16455437574E+02  0.53981796920E+01  0.18288594984E+02  0.25249796142E+02  0.17770000000E+01 0. -1.
</event>
<event>
 6    1  0.1298204E-002  0.1839330E+03  0.7546771E-02  0.1067320E+00
        -11   -1    0    0    0    0  0.00000000000E+00  0.00000000000E+00  0.18250000000E+03  0.18250000000E+03  0.00000000000E+00 0. -1.
         11   -1    0    0    0    0 -0.00000000000E+00 -0.00000000000E+00 -0.18250000000E+03  0.18250000000E+03  0.00000000000E+00 0. -1.
        -11    1    1    2    0    0 -0.36635330755E+01 -0.25750956711E+00  0.18102977212E+03  0.18106702123E+03  0.00000000000E+00 0. -1.
         11    1    1    2    0    0  0.15242235513E+01  0.25073906962E+01 -0.17337465083E+03  0.17339948043E+03  0.00000000000E+00 0. -1.
        -15    1    1    2    0    0  0.21927535149E+01 -0.43624288911E+00 -0.74581046190E+01  0.79862086965E+01  0.17770000000E+01 0.  1.
         15    1    1    2    0    0 -0.53443990677E-01 -0.18136382400E+01 -0.19701666887E+00  0.25472896367E+01  0.17770000000E+01 0. -1.
</event>
<event>
 6    1  0.1298204E-002  0.1675996E+03  0.7546771E-02  0.1080976E+00
        -11   -1    0    0    0    0  0.00000000000E+00  0.00000000000E+00  0.18250000000E+03  0.18250000000E+03  0.00000000000E+00 0.  1.
         11   -1    0    0    0    0 -0.00000000000E+00 -0.00000000000E+00 -0.18250000000E+03  0.18250000000E+03  0.00000000000E+00 0.  1.
        -11    1    1    2    0    0  0.14628343000E+01  0.16394012199E+02  0.16621561239E+03  0.16702854044E+03  0.00000000000E+00 0.  1.
         11    1    1    2    0    0  0.86264217145E+01  0.58382691137E+01 -0.16874698537E+03  0.16906816853E+03  0.00000000000E+00 0.  1.
        -15    1    1    2    0    0 -0.21519633944E+01 -0.17912923311E+02  0.59489029428E+01  0.19080119057E+02  0.17770000000E+01 0.  1.
         15    1    1    2    0    0 -0.79372926200E+01 -0.43193580014E+01 -0.34175299562E+01  0.98231719766E+01  0.17770000000E+01 0. -1.
</event>
<event>
 6    1  0.1298204E-002  0.1829506E+03  0.7546771E-02  0.1068097E+00
        -11   -1    0    0    0    0  0.00000000000E+00  0.00000000000E+00  0.18250000000E+03  0.18250000000E+03  0.00000000000E+00 0. -1.
         11   -1    0    0    0    0 -0.00000000000E+00 -0.00000000000E+00 -0.18250000000E+03  0.18250000000E+03  0.00000000000E+00 0.  1.
        -11    1    1    2    0    0  0.24973798467E+01 -0.17213363282E+01  0.99421978585E+02  0.99468234782E+02  0.00000000000E+00 0. -1.
         11    1    1    2    0    0  0.79081219385E+00 -0.25013778770E+01 -0.18203054031E+03  0.18204944350E+03  0.00000000000E+00 0.  1.
        -15    1    1    2    0    0  0.11012586489E+00  0.70566727731E+01  0.49528875365E+02  0.50060722950E+02  0.17770000000E+01 0. -1.
         15    1    1    2    0    0 -0.33983179054E+01 -0.28339585680E+01  0.33079686355E+02  0.33421598766E+02  0.17770000000E+01 0. -1.
</event>
<event>
 6    1  0.1298204E-002  0.1920499E+03  0.7546771E-02  0.1061097E+00
        -11   -1    0    0    0    0  0.00000000000E+00  0.00000000000E+00  0.18250000000E+03  0.18250000000E+03  0.00000000000E+00 0. -1.
         11   -1    0    0    0    0 -0.00000000000E+00 -0.00000000000E+00 -0.18250000000E+03  0.18250000000E+03  0.00000000000E+00 0.  1.
        -11    1    1    2    0    0 -0.16484645508E-01  0.21203131724E+01  0.15433003569E+03  0.15434460119E+03  0.00000000000E+00 0. -1.
         11    1    1    2    0    0  0.40293231844E+01 -0.10520485268E+01 -0.17289999620E+03  0.17295014004E+03  0.00000000000E+00 0.  1.
        -15    1    1    2    0    0  0.18937935514E+00 -0.26692948243E+01 -0.90821979159E+01  0.96335376360E+01  0.17770000000E+01 0.  1.
         15    1    1    2    0    0 -0.42022178941E+01  0.16010301787E+01  0.27652158426E+02  0.28071721135E+02  0.17770000000E+01 0. -1.
</event>
<event>
 6    1  0.1298204E-002  0.1843311E+03  0.7546771E-02  0.1067007E+00
        -11   -1    0    0    0    0  0.00000000000E+00  0.00000000000E+00  0.18250000000E+03  0.18250000000E+03  0.00000000000E+00 0. -1.
         11   -1    0    0    0    0 -0.00000000000E+00 -0.00000000000E+00 -0.18250000000E+03  0.18250000000E+03  0.00000000000E+00 0.  1.
        -11    1    1    2    0    0  0.34263829324E+01 -0.32174876357E+01  0.16031057008E+03  0.16037946005E+03  0.00000000000E+00 0. -1.
         11    1    1    2    0    0 -0.58550794011E+01  0.79111965825E+01 -0.18040063461E+03  0.18066891807E+03  0.00000000000E+00 0.  1.
        -15    1    1    2    0    0 -0.13813454449E+01 -0.84549052740E+00  0.17546425714E+02  0.17710385479E+02  0.17770000000E+01 0.  1.
         15    1    1    2    0    0  0.38100419136E+01 -0.38482184193E+01  0.25436388175E+01  0.62412364016E+01  0.17770000000E+01 0. -1.
</event>
<event>
 6    1  0.1298204E-002  0.1898532E+03  0.7546771E-02  0.1062748E+00
        -11   -1    0    0    0    0  0.00000000000E+00  0.00000000000E+00  0.18250000000E+03  0.18250000000E+03  0.00000000000E+00 0.  1.
         11   -1    0    0    0    0 -0.00000000000E+00 -0.00000000000E+00 -0.18250000000E+03  0.18250000000E+03  0.00000000000E+00 0. -1.
        -11    1    1    2    0    0  0.27434489383E-01  0.98380902213E+01  0.17487023770E+03  0.17514676362E+03  0.00000000000E+00 0.  1.
         11    1    1    2    0    0 -0.10560549180E+02 -0.26292089594E+01 -0.15357000929E+03  0.15395514181E+03  0.00000000000E+00 0. -1.
        -15    1    1    2    0    0  0.53010358433E+01  0.57501918246E+01 -0.20239080384E+02  0.21770250132E+02  0.17770000000E+01 0. -1.
         15    1    1    2    0    0  0.52320788475E+01 -0.12959073087E+02 -0.10611480306E+01  0.14127844438E+02  0.17770000000E+01 0.  1.
</event>
<event>
 6    1  0.1434333E-002  0.1892541E+03  0.7546771E-02  0.1063202E+00
        -11   -1    0    0    0    0  0.00000000000E+00  0.00000000000E+00  0.18250000000E+03  0.18250000000E+03  0.00000000000E+00 0. -1.
         11   -1    0    0    0    0 -0.00000000000E+00 -0.00000000000E+00 -0.18250000000E+03  0.18250000000E+03  0.00000000000E+00 0.  1.
        -11    1    1    2    0    0 -0.54366043283E+01  0.72571961811E+00  0.17566027253E+03  0.17574588098E+03  0.00000000000E+00 0. -1.
         11    1    1    2    0    0  0.43350570507E+01  0.38880675883E+01 -0.13202684783E+03  0.13215520548E+03  0.00000000000E+00 0.  1.
        -15    1    1    2    0    0 -0.12176664458E+01 -0.17481835096E+01 -0.49701999548E+02  0.49779366661E+02  0.17770000000E+01 0.  1.
         15    1    1    2    0    0  0.23192137234E+01 -0.28656036968E+01  0.60685748393E+01  0.73195468727E+01  0.17770000000E+01 0. -1.
</event>
<event>
 6    1  0.1298204E-002  0.1862132E+03  0.7546771E-02  0.1065537E+00
        -11   -1    0    0    0    0  0.00000000000E+00  0.00000000000E+00  0.18250000000E+03  0.18250000000E+03  0.00000000000E+00 0.  1.
         11   -1    0    0    0    0 -0.00000000000E+00 -0.00000000000E+00 -0.18250000000E+03  0.18250000000E+03  0.00000000000E+00 0. -1.
        -11    1    1    2    0    0  0.48315673191E+01 -0.26136064877E+01  0.17870234693E+03  0.17878675505E+03  0.00000000000E+00 0.  1.
         11    1    1    2    0    0 -0.30356892750E+01  0.31901724179E+01 -0.17343344176E+03  0.17348934069E+03  0.00000000000E+00 0. -1.
        -15    1    1    2    0    0 -0.27553463410E+01  0.72044430678E+00  0.27588067265E+01  0.43450796325E+01  0.17770000000E+01 0. -1.
         15    1    1    2    0    0  0.95946829682E+00 -0.12970102369E+01 -0.80277118952E+01  0.83788246335E+01  0.17770000000E+01 0.  1.
</event>
<event>
 6    1  0.1298204E-002  0.1834786E+03  0.7546771E-02  0.1067679E+00
        -11   -1    0    0    0    0  0.00000000000E+00  0.00000000000E+00  0.18250000000E+03  0.18250000000E+03  0.00000000000E+00 0.  1.
         11   -1    0    0    0    0 -0.00000000000E+00 -0.00000000000E+00 -0.18250000000E+03  0.18250000000E+03  0.00000000000E+00 0.  1.
        -11    1    1    2    0    0 -0.67962262414E+01 -0.21445968339E+01  0.18138145750E+03  0.18152140676E+03  0.00000000000E+00 0.  1.
         11    1    1    2    0    0  0.15224772074E+01 -0.15906406767E+01 -0.16246317652E+03  0.16247809636E+03  0.00000000000E+00 0.  1.
        -15    1    1    2    0    0  0.32009761785E+01  0.57367470868E+00 -0.37683565877E+01  0.52852238873E+01  0.17770000000E+01 0. -1.
         15    1    1    2    0    0  0.20727728555E+01  0.31615628019E+01 -0.15149924401E+02  0.15715272986E+02  0.17770000000E+01 0.  1.
</event>
<event>
 6    1  0.1298204E-002  0.1774632E+03  0.7546771E-02  0.1072536E+00
        -11   -1    0    0    0    0  0.00000000000E+00  0.00000000000E+00  0.18250000000E+03  0.18250000000E+03  0.00000000000E+00 0.  1.
         11   -1    0    0    0    0 -0.00000000000E+00 -0.00000000000E+00 -0.18250000000E+03  0.18250000000E+03  0.00000000000E+00 0. -1.
        -11    1    1    2    0    0 -0.39311415669E+01  0.34653909460E+01  0.17597684949E+03  0.17605486181E+03  0.00000000000E+00 0.  1.
         11    1    1    2    0    0  0.54154836169E+01  0.32636610895E+01 -0.17883824847E+03  0.17894998760E+03  0.00000000000E+00 0. -1.
        -15    1    1    2    0    0 -0.29618525570E+01 -0.13327949568E+01  0.96152848166E+00  0.38250724160E+01  0.17770000000E+01 0.  1.
         15    1    1    2    0    0  0.14775105070E+01 -0.53962570787E+01  0.18998704979E+01  0.61700781735E+01  0.17770000000E+01 0. -1.
</event>
<event>
 6    1  0.1298204E-002  0.1874070E+03  0.7546771E-02  0.1064615E+00
        -11   -1    0    0    0    0  0.00000000000E+00  0.00000000000E+00  0.18250000000E+03  0.18250000000E+03  0.00000000000E+00 0.  1.
         11   -1    0    0    0    0 -0.00000000000E+00 -0.00000000000E+00 -0.18250000000E+03  0.18250000000E+03  0.00000000000E+00 0.  1.
        -11    1    1    2    0    0  0.35702745391E+01  0.84554137635E+01  0.85282839057E+02  0.85775308335E+02  0.00000000000E+00 0.  1.
         11    1    1    2    0    0 -0.92596529510E+01 -0.11288272861E+01 -0.17734780467E+03  0.17759295944E+03  0.00000000000E+00 0.  1.
        -15    1    1    2    0    0  0.11204563643E+02 -0.62919314350E+01  0.94409009566E+02  0.95296114631E+02  0.17770000000E+01 0.  1.
         15    1    1    2    0    0 -0.55151852306E+01 -0.10346550424E+01 -0.23440439565E+01  0.63356175907E+01  0.17770000000E+01 0. -1.
</event>
<event>
 6    1  0.1298204E-002  0.1926304E+03  0.7546771E-02  0.1060665E+00
        -11   -1    0    0    0    0  0.00000000000E+00  0.00000000000E+00  0.18250000000E+03  0.18250000000E+03  0.00000000000E+00 0.  1.
         11   -1    0    0    0    0 -0.00000000000E+00 -0.00000000000E+00 -0.18250000000E+03  0.18250000000E+03  0.00000000000E+00 0.  1.
        -11    1    1    2    0    0  0.21140756746E+01 -0.14465742619E+01  0.17235055658E+03  0.17236959201E+03  0.00000000000E+00 0.  1.
         11    1    1    2    0    0 -0.17502255197E+01 -0.11137620617E+02 -0.12573640203E+03  0.12624085186E+03  0.00000000000E+00 0.  1.
        -15    1    1    2    0    0 -0.20302576375E+02  0.12782486599E+02 -0.13207880601E+02  0.27444351151E+02  0.17770000000E+01 0. -1.
         15    1    1    2    0    0  0.19938726220E+02 -0.19829171994E+00 -0.33406273948E+02  0.38945204981E+02  0.17770000000E+01 0.  1.
</event>
<event>
 6    1  0.1298204E-002  0.1831258E+03  0.7546771E-02  0.1067958E+00
        -11   -1    0    0    0    0  0.00000000000E+00  0.00000000000E+00  0.18250000000E+03  0.18250000000E+03  0.00000000000E+00 0. -1.
         11   -1    0    0    0    0 -0.00000000000E+00 -0.00000000000E+00 -0.18250000000E+03  0.18250000000E+03  0.00000000000E+00 0.  1.
        -11    1    1    2    0    0 -0.28325923033E+01  0.61968181854E+00  0.15629318169E+03  0.15632007622E+03  0.00000000000E+00 0. -1.
         11    1    1    2    0    0 -0.53513193283E+00 -0.29903622945E+01 -0.18184882589E+03  0.18187419858E+03  0.00000000000E+00 0.  1.
        -15    1    1    2    0    0  0.46966701777E+01  0.26245184742E+00  0.15657284017E+02  0.16444934281E+02  0.17770000000E+01 0. -1.
         15    1    1    2    0    0 -0.13289459416E+01  0.21082286286E+01  0.98983601805E+01  0.10360790922E+02  0.17770000000E+01 0.  1.
</event>
<event>
 6    1  0.1298204E-002  0.1727949E+03  0.7546771E-02  0.1076454E+00
        -11   -1    0    0    0    0  0.00000000000E+00  0.00000000000E+00  0.18250000000E+03  0.18250000000E+03  0.00000000000E+00 0.  1.
         11   -1    0    0    0    0 -0.00000000000E+00 -0.00000000000E+00 -0.18250000000E+03  0.18250000000E+03  0.00000000000E+00 0.  1.
        -11    1    1    2    0    0 -0.78914214805E+00  0.74907040375E+01  0.17471420408E+03  0.17487648927E+03  0.00000000000E+00 0.  1.
         11    1    1    2    0    0  0.76329278153E+00  0.24331971250E+01 -0.17085819424E+03  0.17087722377E+03  0.00000000000E+00 0.  1.
        -15    1    1    2    0    0 -0.35218103123E+01  0.12771488857E+01  0.33661168427E+01  0.53406674444E+01  0.17770000000E+01 0.  1.
         15    1    1    2    0    0  0.35476596788E+01 -0.11201050048E+02 -0.72221266742E+01  0.13905619514E+02  0.17770000000E+01 0. -1.
</event>
<event>
 6    1  0.1298204E-002  0.1826202E+03  0.7546771E-02  0.1068359E+00
        -11   -1    0    0    0    0  0.00000000000E+00  0.00000000000E+00  0.18250000000E+03  0.18250000000E+03  0.00000000000E+00 0. -1.
         11   -1    0    0    0    0 -0.00000000000E+00 -0.00000000000E+00 -0.18250000000E+03  0.18250000000E+03  0.00000000000E+00 0.  1.
        -11    1    1    2    0    0  0.11741114933E+01  0.90456341029E+00  0.23418526012E+02  0.23465381593E+02  0.00000000000E+00 0. -1.
         11    1    1    2    0    0  0.23549703463E+01 -0.31950848509E+01 -0.18233662470E+03  0.18237982115E+03  0.00000000000E+00 0.  1.
        -15    1    1    2    0    0  0.13005582649E+01  0.14323263989E+01  0.90478921581E+02  0.90517048064E+02  0.17770000000E+01 0. -1.
         15    1    1    2    0    0 -0.48296401044E+01  0.85819504167E+00  0.68439177111E+02  0.68637749197E+02  0.17770000000E+01 0.  1.
</event>
<event>
 6    1  0.1298204E-002  0.1835110E+03  0.7546771E-02  0.1067653E+00
        -11   -1    0    0    0    0  0.00000000000E+00  0.00000000000E+00  0.18250000000E+03  0.18250000000E+03  0.00000000000E+00 0. -1.
         11   -1    0    0    0    0 -0.00000000000E+00 -0.00000000000E+00 -0.18250000000E+03  0.18250000000E+03  0.00000000000E+00 0. -1.
        -11    1    1    2    0    0  0.39283826935E+01  0.11416517386E+01  0.16883028740E+03  0.16887984339E+03  0.00000000000E+00 0. -1.
         11    1    1    2    0    0  0.14408014443E+01 -0.22846064209E+01 -0.18146889606E+03  0.18148899573E+03  0.00000000000E+00 0. -1.
        -15    1    1    2    0    0 -0.38056147681E+01 -0.76214055243E+00  0.64142365958E+01  0.77047856616E+01  0.17770000000E+01 0.  1.
         15    1    1    2    0    0 -0.15635693698E+01  0.19050952347E+01  0.62243720598E+01  0.69263752111E+01  0.17770000000E+01 0. -1.
</event>
<event>
 6    1  0.1298204E-002  0.1839950E+03  0.7546771E-02  0.1067271E+00
        -11   -1    0    0    0    0  0.00000000000E+00  0.00000000000E+00  0.18250000000E+03  0.18250000000E+03  0.00000000000E+00 0.  1.
         11   -1    0    0    0    0 -0.00000000000E+00 -0.00000000000E+00 -0.18250000000E+03  0.18250000000E+03  0.00000000000E+00 0. -1.
        -11    1    1    2    0    0  0.24087810730E+01 -0.32334918367E+00  0.16674630094E+03  0.16676401188E+03  0.00000000000E+00 0.  1.
         11    1    1    2    0    0 -0.41582212492E-01  0.24465372250E+01 -0.18098850661E+03  0.18100504633E+03  0.00000000000E+00 0. -1.
        -15    1    1    2    0    0 -0.17746679309E+01 -0.21045006761E+01  0.44445282338E+00  0.33066050071E+01  0.17770000000E+01 0.  1.
         15    1    1    2    0    0 -0.59253092960E+00 -0.18687365225E-01  0.13797752843E+02  0.13924336776E+02  0.17770000000E+01 0. -1.
</event>
<event>
 6    1  0.1298204E-002  0.1854828E+03  0.7546771E-02  0.1066105E+00
        -11   -1    0    0    0    0  0.00000000000E+00  0.00000000000E+00  0.18250000000E+03  0.18250000000E+03  0.00000000000E+00 0. -1.
         11   -1    0    0    0    0 -0.00000000000E+00 -0.00000000000E+00 -0.18250000000E+03  0.18250000000E+03  0.00000000000E+00 0. -1.
        -11    1    1    2    0    0 -0.42712581307E+01 -0.19332758266E+01  0.17945595397E+03  0.17951718752E+03  0.00000000000E+00 0. -1.
         11    1    1    2    0    0  0.11179120828E+01  0.19993286931E+01 -0.15336766991E+03  0.15338477505E+03  0.00000000000E+00 0. -1.
        -15    1    1    2    0    0  0.38982984791E+01  0.64693220103E+00  0.13844476681E+01  0.45485906225E+01  0.17770000000E+01 0. -1.
         15    1    1    2    0    0 -0.74495243126E+00 -0.71298506752E+00 -0.27472731725E+02  0.27549446805E+02  0.17770000000E+01 0.  1.
</event>
<event>
 6    1  0.1298204E-002  0.1830839E+03  0.7546771E-02  0.1067991E+00
        -11   -1    0    0    0    0  0.00000000000E+00  0.00000000000E+00  0.18250000000E+03  0.18250000000E+03  0.00000000000E+00 0.  1.
         11   -1    0    0    0    0 -0.00000000000E+00 -0.00000000000E+00 -0.18250000000E+03  0.18250000000E+03  0.00000000000E+00 0.  1.
        -11    1    1    2    0    0 -0.23529073678E+01  0.38811336811E+01  0.11067697011E+03  0.11076999180E+03  0.00000000000E+00 0.  1.
         11    1    1    2    0    0  0.18080746439E+01 -0.51014737466E+01 -0.18183558521E+03  0.18191611863E+03  0.00000000000E+00 0.  1.
        -15    1    1    2    0    0 -0.13413646397E+01 -0.18428654152E+01  0.64321615909E+02  0.64386515779E+02  0.17770000000E+01 0.  1.
         15    1    1    2    0    0  0.18861973637E+01  0.30632054807E+01  0.68369991900E+01  0.79273737919E+01  0.17770000000E+01 0. -1.
</event>
<event>
 6    1  0.1298204E-002  0.1838798E+03  0.7546771E-02  0.1067362E+00
        -11   -1    0    0    0    0  0.00000000000E+00  0.00000000000E+00  0.18250000000E+03  0.18250000000E+03  0.00000000000E+00 0.  1.
         11   -1    0    0    0    0 -0.00000000000E+00 -0.00000000000E+00 -0.18250000000E+03  0.18250000000E+03  0.00000000000E+00 0.  1.
        -11    1    1    2    0    0 -0.24353048397E+01 -0.44719793191E+00  0.14846769676E+03  0.14848834189E+03  0.00000000000E+00 0.  1.
         11    1    1    2    0    0 -0.82664576008E+01 -0.16772822280E+01 -0.18092363692E+03  0.18112015347E+03  0.00000000000E+00 0.  1.
        -15    1    1    2    0    0  0.69016910413E+01 -0.48136208642E+00  0.93640804059E+01  0.11777469148E+02  0.17770000000E+01 0. -1.
         15    1    1    2    0    0  0.38000713992E+01  0.26058422463E+01  0.23091859754E+02  0.23614035495E+02  0.17770000000E+01 0.  1.
</event>
<event>
 6    1  0.1298204E-002  0.2011726E+03  0.7546771E-02  0.1054492E+00
        -11   -1    0    0    0    0  0.00000000000E+00  0.00000000000E+00  0.18250000000E+03  0.18250000000E+03  0.00000000000E+00 0.  1.
         11   -1    0    0    0    0 -0.00000000000E+00 -0.00000000000E+00 -0.18250000000E+03  0.18250000000E+03  0.00000000000E+00 0.  1.
        -11    1    1    2    0    0  0.11050758168E+01 -0.16714490452E+01  0.14663593352E+03  0.14664962303E+03  0.00000000000E+00 0.  1.
         11    1    1    2    0    0 -0.10811658970E+01 -0.31099088595E+01 -0.16379428074E+03  0.16382736906E+03  0.00000000000E+00 0.  1.
        -15    1    1    2    0    0 -0.16160592921E+01  0.22807764619E+02  0.25689905855E+02  0.34437403595E+02  0.17770000000E+01 0. -1.
         15    1    1    2    0    0  0.15921493723E+01 -0.18026406714E+02 -0.85315586426E+01  0.20085604311E+02  0.17770000000E+01 0.  1.
</event>
<event>
 6    1  0.1298204E-002  0.1774536E+03  0.7546771E-02  0.1072544E+00
        -11   -1    0    0    0    0  0.00000000000E+00  0.00000000000E+00  0.18250000000E+03  0.18250000000E+03  0.00000000000E+00 0.  1.
         11   -1    0    0    0    0 -0.00000000000E+00 -0.00000000000E+00 -0.18250000000E+03  0.18250000000E+03  0.00000000000E+00 0. -1.
        -11    1    1    2    0    0 -0.44300650833E+01  0.31675498489E+00  0.17854154630E+03  0.17859677927E+03  0.00000000000E+00 0.  1.
         11    1    1    2    0    0 -0.20478497181E+01 -0.14479120996E+01 -0.17636014333E+03  0.17637797565E+03  0.00000000000E+00 0. -1.
        -15    1    1    2    0    0  0.64523690479E+01  0.24714831585E+01 -0.28777984374E+01  0.76929024548E+01  0.17770000000E+01 0. -1.
         15    1    1    2    0    0  0.25545753587E-01 -0.13403260438E+01  0.69639547192E+00  0.23323426297E+01  0.17770000000E+01 0. -1.
</event>
<event>
 6    1  0.1298204E-002  0.1827185E+03  0.7546771E-02  0.1068281E+00
        -11   -1    0    0    0    0  0.00000000000E+00  0.00000000000E+00  0.18250000000E+03  0.18250000000E+03  0.00000000000E+00 0. -1.
         11   -1    0    0    0    0 -0.00000000000E+00 -0.00000000000E+00 -0.18250000000E+03  0.18250000000E+03  0.00000000000E+00 0.  1.
        -11    1    1    2    0    0 -0.20348444781E+01  0.50541628295E+01  0.18220005508E+03  0.18228149995E+03  0.00000000000E+00 0. -1.
         11    1    1    2    0    0 -0.13155467751E+01 -0.29771404254E+01 -0.12125373397E+03  0.12129741148E+03  0.00000000000E+00 0.  1.
        -15    1    1    2    0    0  0.16762372595E+01  0.16988310296E+01 -0.18567841326E+02  0.18804740326E+02  0.17770000000E+01 0.  1.
         15    1    1    2    0    0  0.16741539938E+01 -0.37758534337E+01 -0.42378479779E+02  0.42616348249E+02  0.17770000000E+01 0.  1.
</event>
<event>
 6    1  0.1298204E-002  0.1829165E+03  0.7546771E-02  0.1068124E+00
        -11   -1    0    0    0    0  0.00000000000E+00  0.00000000000E+00  0.18250000000E+03  0.18250000000E+03  0.00000000000E+00 0. -1.
         11   -1    0    0    0    0 -0.00000000000E+00 -0.00000000000E+00 -0.18250000000E+03  0.18250000000E+03  0.00000000000E+00 0. -1.
        -11    1    1    2    0    0 -0.21731475038E+01 -0.18322206159E+01  0.10192746880E+03  0.10196709517E+03  0.00000000000E+00 0. -1.
         11    1    1    2    0    0 -0.59074302721E+01  0.28602675944E+01 -0.18196516922E+03  0.18208350192E+03  0.00000000000E+00 0. -1.
        -15    1    1    2    0    0  0.48525270172E+01 -0.42904490346E+01  0.56834752439E+02  0.57230252359E+02  0.17770000000E+01 0. -1.
         15    1    1    2    0    0  0.32280507588E+01  0.32624020561E+01  0.23202947982E+02  0.23719150552E+02  0.17770000000E+01 0.  1.
</event>
<event>
 6    1  0.1298204E-002  0.1839798E+03  0.7546771E-02  0.1067283E+00
        -11   -1    0    0    0    0  0.00000000000E+00  0.00000000000E+00  0.18250000000E+03  0.18250000000E+03  0.00000000000E+00 0.  1.
         11   -1    0    0    0    0 -0.00000000000E+00 -0.00000000000E+00 -0.18250000000E+03  0.18250000000E+03  0.00000000000E+00 0.  1.
        -11    1    1    2    0    0  0.38009635040E+00 -0.56480986676E+01  0.18093169055E+03  0.18102022577E+03  0.00000000000E+00 0.  1.
         11    1    1    2    0    0  0.60532124184E+01 -0.26338693195E+01 -0.13649764221E+03  0.13665718048E+03  0.00000000000E+00 0.  1.
        -15    1    1    2    0    0  0.13856059696E+01  0.78595621830E+01 -0.20155157624E+02  0.21750419064E+02  0.17770000000E+01 0.  1.
         15    1    1    2    0    0 -0.78189147383E+01  0.42240580414E+00 -0.24278890724E+02  0.25572174685E+02  0.17770000000E+01 0. -1.
</event>
<event>
 6    1  0.1298204E-002  0.1897002E+03  0.7546771E-02  0.1062864E+00
        -11   -1    0    0    0    0  0.00000000000E+00  0.00000000000E+00  0.18250000000E+03  0.18250000000E+03  0.00000000000E+00 0.  1.
         11   -1    0    0    0    0 -0.00000000000E+00 -0.00000000000E+00 -0.18250000000E+03  0.18250000000E+03  0.00000000000E+00 0. -1.
        -11    1    1    2    0    0  0.15307116519E+01  0.39678954349E+01  0.17524824115E+03  0.17529983828E+03  0.00000000000E+00 0.  1.
         11    1    1    2    0    0  0.34337933895E+01  0.57487837566E+01 -0.16126074054E+03  0.16139970846E+03  0.00000000000E+00 0. -1.
        -15    1    1    2    0    0  0.98478877319E+00 -0.26946250322E+01  0.56269702333E+01  0.65613516898E+01  0.17770000000E+01 0. -1.
         15    1    1    2    0    0 -0.59492938146E+01 -0.70220541593E+01 -0.19614470849E+02  0.21739101572E+02  0.17770000000E+01 0.  1.
</event>
<event>
 6    1  0.1298204E-002  0.1853706E+03  0.7546771E-02  0.1066192E+00
        -11   -1    0    0    0    0  0.00000000000E+00  0.00000000000E+00  0.18250000000E+03  0.18250000000E+03  0.00000000000E+00 0. -1.
         11   -1    0    0    0    0 -0.00000000000E+00 -0.00000000000E+00 -0.18250000000E+03  0.18250000000E+03  0.00000000000E+00 0. -1.
        -11    1    1    2    0    0  0.97876890906E+01 -0.25157290859E+01  0.17934487269E+03  0.17962937151E+03  0.00000000000E+00 0. -1.
         11    1    1    2    0    0 -0.51067463913E+01 -0.19530784342E+01 -0.11857172748E+03  0.11869771662E+03  0.00000000000E+00 0. -1.
        -15    1    1    2    0    0  0.54884272553E+01  0.12272787231E+02 -0.39604301013E+02  0.41861707179E+02  0.17770000000E+01 0. -1.
         15    1    1    2    0    0 -0.10169369955E+02 -0.78039797108E+01 -0.21168844196E+02  0.24811204690E+02  0.17770000000E+01 0.  1.
</event>
<event>
 6    1  0.1298204E-002  0.1395495E+03  0.7546771E-02  0.1108943E+00
        -11   -1    0    0    0    0  0.00000000000E+00  0.00000000000E+00  0.18250000000E+03  0.18250000000E+03  0.00000000000E+00 0. -1.
         11   -1    0    0    0    0 -0.00000000000E+00 -0.00000000000E+00 -0.18250000000E+03  0.18250000000E+03  0.00000000000E+00 0.  1.
        -11    1    1    2    0    0  0.65769012125E+01 -0.10523106400E+02  0.17131668379E+03  0.17176553072E+03  0.00000000000E+00 0. -1.
         11    1    1    2    0    0  0.16092335971E+01  0.11234654695E+00 -0.35404678659E+02  0.35441409755E+02  0.00000000000E+00 0.  1.
        -15    1    1    2    0    0  0.29325567759E+02 -0.96825738777E+01 -0.27785426876E+02  0.41580390053E+02  0.17770000000E+01 0. -1.
         15    1    1    2    0    0 -0.37511702568E+02  0.20093333731E+02 -0.10812657826E+03  0.11621266947E+03  0.17770000000E+01 0.  1.
</event>
<event>
 6    1  0.1298204E-002  0.1893734E+03  0.7546771E-02  0.1063111E+00
        -11   -1    0    0    0    0  0.00000000000E+00  0.00000000000E+00  0.18250000000E+03  0.18250000000E+03  0.00000000000E+00 0.  1.
         11   -1    0    0    0    0 -0.00000000000E+00 -0.00000000000E+00 -0.18250000000E+03  0.18250000000E+03  0.00000000000E+00 0. -1.
        -11    1    1    2    0    0  0.47998194119E+01 -0.25966643782E+01  0.14992639270E+03  0.15002567833E+03  0.00000000000E+00 0.  1.
         11    1    1    2    0    0  0.22688968155E+01  0.28299269725E+01 -0.17558910782E+03  0.17562656737E+03  0.00000000000E+00 0. -1.
        -15    1    1    2    0    0 -0.48059893138E+00  0.85956507142E+01 -0.24298772082E+01  0.91202093605E+01  0.17770000000E+01 0. -1.
         15    1    1    2    0    0 -0.65881172960E+01 -0.88289133084E+01  0.28092592338E+02  0.30227544938E+02  0.17770000000E+01 0.  1.
</event>
<event>
 6    1  0.1298204E-002  0.1827723E+03  0.7546771E-02  0.1068238E+00
        -11   -1    0    0    0    0  0.00000000000E+00  0.00000000000E+00  0.18250000000E+03  0.18250000000E+03  0.00000000000E+00 0.  1.
         11   -1    0    0    0    0 -0.00000000000E+00 -0.00000000000E+00 -0.18250000000E+03  0.18250000000E+03  0.00000000000E+00 0.  1.
        -11    1    1    2    0    0  0.12553763898E+01  0.19062361530E+01  0.90294386587E+02  0.90323230430E+02  0.00000000000E+00 0.  1.
         11    1    1    2    0    0  0.10317220881E+01  0.33912889718E+01 -0.18219321395E+03  0.18222769411E+03  0.00000000000E+00 0.  1.
        -15    1    1    2    0    0 -0.46119531319E+01 -0.37627437006E+01  0.72978007556E+02  0.73241898307E+02  0.17770000000E+01 0. -1.
         15    1    1    2    0    0  0.23248546540E+01 -0.15347814242E+01  0.18920819804E+02  0.19207177155E+02  0.17770000000E+01 0. -1.
</event>
<event>
 6    1  0.1298204E-002  0.1868000E+03  0.7546771E-02  0.1065083E+00
        -11   -1    0    0    0    0  0.00000000000E+00  0.00000000000E+00  0.18250000000E+03  0.18250000000E+03  0.00000000000E+00 0. -1.
         11   -1    0    0    0    0 -0.00000000000E+00 -0.00000000000E+00 -0.18250000000E+03  0.18250000000E+03  0.00000000000E+00 0.  1.
        -11    1    1    2    0    0 -0.51890902933E+01  0.12703605582E+01  0.17811988396E+03  0.17819998187E+03  0.00000000000E+00 0. -1.
         11    1    1    2    0    0  0.70471756012E+00 -0.60337303004E+01 -0.16684644922E+03  0.16695700089E+03  0.00000000000E+00 0.  1.
        -15    1    1    2    0    0 -0.18991657471E+01  0.40670313577E+01 -0.12196006151E+02  0.13116701934E+02  0.17770000000E+01 0. -1.
         15    1    1    2    0    0  0.63835384803E+01  0.69633838449E+00  0.92257140504E+00  0.67263153117E+01  0.17770000000E+01 0.  1.
</event>
<event>
 6    1  0.4211610E-002  0.1827977E+03  0.7546771E-02  0.1068218E+00
        -11   -1    0    0    0    0  0.00000000000E+00  0.00000000000E+00  0.18250000000E+03  0.18250000000E+03  0.00000000000E+00 0.  1.
         11   -1    0    0    0    0 -0.00000000000E+00 -0.00000000000E+00 -0.18250000000E+03  0.18250000000E+03  0.00000000000E+00 0. -1.
        -11    1    1    2    0    0  0.21753769591E+01  0.11566614061E+01  0.18218565359E+03  0.18220231201E+03  0.00000000000E+00 0.  1.
         11    1    1    2    0    0 -0.13772858806E+01 -0.30587284386E+00 -0.10307607779E+03  0.10308573271E+03  0.00000000000E+00 0. -1.
        -15    1    1    2    0    0  0.90740844321E+00 -0.13182729773E+01 -0.48253725080E+01  0.53854602929E+01  0.17770000000E+01 0. -1.
         15    1    1    2    0    0 -0.17054995217E+01  0.46748441510E+00 -0.74284203285E+02  0.74326494987E+02  0.17770000000E+01 0. -1.
</event>
<event>
 6    1  0.1298204E-002  0.1977905E+03  0.7546771E-02  0.1056896E+00
        -11   -1    0    0    0    0  0.00000000000E+00  0.00000000000E+00  0.18250000000E+03  0.18250000000E+03  0.00000000000E+00 0. -1.
         11   -1    0    0    0    0 -0.00000000000E+00 -0.00000000000E+00 -0.18250000000E+03  0.18250000000E+03  0.00000000000E+00 0.  1.
        -11    1    1    2    0    0  0.45001529844E+01 -0.35209862017E+01  0.16711182379E+03  0.16720948051E+03  0.00000000000E+00 0. -1.
         11    1    1    2    0    0  0.11062615336E+02 -0.14842795362E+02 -0.10647693510E+03  0.10807417702E+03  0.00000000000E+00 0.  1.
        -15    1    1    2    0    0 -0.26408637774E+02  0.10111888811E+02 -0.82334438731E+00  0.28346112069E+02  0.17770000000E+01 0.  1.
         15    1    1    2    0    0  0.10845869453E+02  0.82518927526E+01 -0.59811544306E+02  0.61370230401E+02  0.17770000000E+01 0.  1.
</event>
<event>
 6    1  0.1298204E-002  0.1850972E+03  0.7546771E-02  0.1066406E+00
        -11   -1    0    0    0    0  0.00000000000E+00  0.00000000000E+00  0.18250000000E+03  0.18250000000E+03  0.00000000000E+00 0. -1.
         11   -1    0    0    0    0 -0.00000000000E+00 -0.00000000000E+00 -0.18250000000E+03  0.18250000000E+03  0.00000000000E+00 0.  1.
        -11    1    1    2    0    0  0.26484461717E+01  0.20929307909E+01  0.13683186286E+03  0.13687349385E+03  0.00000000000E+00 0. -1.
         11    1    1    2    0    0  0.56873106506E+00 -0.23691637996E+01 -0.17988631300E+03  0.17990281265E+03  0.00000000000E+00 0.  1.
        -15    1    1    2    0    0 -0.37716168697E+01  0.60758574836E+01  0.34196640883E+01  0.81236056927E+01  0.17770000000E+01 0. -1.
         15    1    1    2    0    0  0.55443963293E+00 -0.57996244749E+01  0.39634786057E+02  0.40100087807E+02  0.17770000000E+01 0. -1.
</event>
<event>
 6    1  0.1298204E-002  0.1837931E+03  0.7546771E-02  0.1067430E+00
        -11   -1    0    0    0    0  0.00000000000E+00  0.00000000000E+00  0.18250000000E+03  0.18250000000E+03  0.00000000000E+00 0.  1.
         11   -1    0    0    0    0 -0.00000000000E+00 -0.00000000000E+00 -0.18250000000E+03  0.18250000000E+03  0.00000000000E+00 0.  1.
        -11    1    1    2    0    0 -0.24999981537E+01  0.34475793004E+00  0.11933808830E+03  0.11936476937E+03  0.00000000000E+00 0.  1.
         11    1    1    2    0    0  0.27584617761E+01  0.64574781154E+00 -0.18118479384E+03  0.18120694142E+03  0.00000000000E+00 0.  1.
        -15    1    1    2    0    0  0.28498417069E+01 -0.11562937708E+01  0.60492601057E+02  0.60596791373E+02  0.17770000000E+01 0.  1.
         15    1    1    2    0    0 -0.31083053293E+01  0.16578802919E+00  0.13541044855E+01  0.38314978335E+01  0.17770000000E+01 0.  1.
</event>
<event>
 6    1  0.1298204E-002  0.1856864E+03  0.7546771E-02  0.1065946E+00
        -11   -1    0    0    0    0  0.00000000000E+00  0.00000000000E+00  0.18250000000E+03  0.18250000000E+03  0.00000000000E+00 0. -1.
         11   -1    0    0    0    0 -0.00000000000E+00 -0.00000000000E+00 -0.18250000000E+03  0.18250000000E+03  0.00000000000E+00 0.  1.
        -11    1    1    2    0    0  0.12922528990E+01 -0.39994199858E+01  0.17926429761E+03  0.17931356244E+03  0.00000000000E+00 0. -1.
         11    1    1    2    0    0 -0.15977983544E+01 -0.15112223472E+01 -0.15551088139E+03  0.15552643179E+03  0.00000000000E+00 0.  1.
        -15    1    1    2    0    0  0.66532537438E+01  0.87384280890E+01 -0.15952681024E+02  0.19449207483E+02  0.17770000000E+01 0. -1.
         15    1    1    2    0    0 -0.63477082884E+01 -0.32277857561E+01 -0.78007351919E+01  0.10710798287E+02  0.17770000000E+01 0.  1.
</event>
<event>
 6    1  0.1298204E-002  0.1886547E+03  0.7546771E-02  0.1063659E+00
        -11   -1    0    0    0    0  0.00000000000E+00  0.00000000000E+00  0.18250000000E+03  0.18250000000E+03  0.00000000000E+00 0.  1.
         11   -1    0    0    0    0 -0.00000000000E+00 -0.00000000000E+00 -0.18250000000E+03  0.18250000000E+03  0.00000000000E+00 0. -1.
        -11    1    1    2    0    0  0.16619191376E+02  0.41790962259E+01  0.17551069894E+03  0.17634530844E+03  0.00000000000E+00 0.  1.
         11    1    1    2    0    0 -0.21353776349E+01 -0.70234402979E+00 -0.86906800731E+02  0.86935867960E+02  0.00000000000E+00 0. -1.
        -15    1    1    2    0    0 -0.12406631959E+02 -0.10827292515E+02 -0.43815585846E+01  0.17132150023E+02  0.17770000000E+01 0.  1.
         15    1    1    2    0    0 -0.20771817819E+01  0.73505403188E+01 -0.84222339620E+02  0.84586673579E+02  0.17770000000E+01 0. -1.
</event>
<event>
 6    1  0.1298204E-002  0.1763178E+03  0.7546771E-02  0.1073485E+00
        -11   -1    0    0    0    0  0.00000000000E+00  0.00000000000E+00  0.18250000000E+03  0.18250000000E+03  0.00000000000E+00 0. -1.
         11   -1    0    0    0    0 -0.00000000000E+00 -0.00000000000E+00 -0.18250000000E+03  0.18250000000E+03  0.00000000000E+00 0. -1.
        -11    1    1    2    0    0  0.48944909295E+01 -0.20611834139E+01  0.17497210704E+03  0.17505268567E+03  0.00000000000E+00 0. -1.
         11    1    1    2    0    0  0.47350459689E+01  0.12829545492E+01 -0.17765776182E+03  0.17772548204E+03  0.00000000000E+00 0. -1.
        -15    1    1    2    0    0 -0.79849886083E+01 -0.10561094086E+01  0.12539042222E+00  0.82491734081E+01  0.17770000000E+01 0. -1.
         15    1    1    2    0    0 -0.16445482901E+01  0.18343382734E+01  0.25602643596E+01  0.39726588792E+01  0.17770000000E+01 0.  1.
</event>
<event>
 6    1  0.1298204E-002  0.1854151E+03  0.7546771E-02  0.1066158E+00
        -11   -1    0    0    0    0  0.00000000000E+00  0.00000000000E+00  0.18250000000E+03  0.18250000000E+03  0.00000000000E+00 0. -1.
         11   -1    0    0    0    0 -0.00000000000E+00 -0.00000000000E+00 -0.18250000000E+03  0.18250000000E+03  0.00000000000E+00 0.  1.
        -11    1    1    2    0    0 -0.30925550719E+01  0.39374975012E+01  0.17951512712E+03  0.17958493436E+03  0.00000000000E+00 0. -1.
         11    1    1    2    0    0 -0.40571263246E+01  0.76427428385E+01 -0.98989877347E+02  0.99367336732E+02  0.00000000000E+00 0.  1.
        -15    1    1    2    0    0 -0.96055609501E+01  0.10405985729E+00 -0.23582113350E+02  0.25525505454E+02  0.17770000000E+01 0. -1.
         15    1    1    2    0    0  0.16755242347E+02 -0.11684300197E+02 -0.56943136423E+02  0.60522223455E+02  0.17770000000E+01 0.  1.
</event>
<event>
 6    1  0.1298204E-002  0.1838684E+03  0.7546771E-02  0.1067371E+00
        -11   -1    0    0    0    0  0.00000000000E+00  0.00000000000E+00  0.18250000000E+03  0.18250000000E+03  0.00000000000E+00 0. -1.
         11   -1    0    0    0    0 -0.00000000000E+00 -0.00000000000E+00 -0.18250000000E+03  0.18250000000E+03  0.00000000000E+00 0. -1.
        -11    1    1    2    0    0 -0.20404729105E+01 -0.21999730088E+01  0.18110678062E+03  0.18113163555E+03  0.00000000000E+00 0. -1.
         11    1    1    2    0    0  0.38668454558E+01 -0.57806807381E+01 -0.13385635943E+03  0.13403691180E+03  0.00000000000E+00 0. -1.
        -15    1    1    2    0    0  0.31722882470E+01  0.63475515486E+01 -0.11341247862E+02  0.13495793991E+02  0.17770000000E+01 0.  1.
         15    1    1    2    0    0 -0.49986607924E+01  0.16331021983E+01 -0.35909173323E+02  0.36335658660E+02  0.17770000000E+01 0. -1.
</event>
<event>
 6    1  0.1298204E-002  0.1856363E+03  0.7546771E-02  0.1065985E+00
        -11   -1    0    0    0    0  0.00000000000E+00  0.00000000000E+00  0.18250000000E+03  0.18250000000E+03  0.00000000000E+00 0. -1.
         11   -1    0    0    0    0 -0.00000000000E+00 -0.00000000000E+00 -0.18250000000E+03  0.18250000000E+03  0.00000000000E+00 0.  1.
        -11    1    1    2    0    0  0.11198849033E+00 -0.50516623656E+01  0.78318955009E+02  0.78481784815E+02  0.00000000000E+00 0. -1.
         11    1    1    2    0    0  0.19576590820E+01 -0.30825666303E+01 -0.17932649220E+03  0.17936366814E+03  0.00000000000E+00 0.  1.
        -15    1    1    2    0    0 -0.64098718554E+01  0.14543108055E+02  0.96905321605E+02  0.98216024830E+02  0.17770000000E+01 0. -1.
         15    1    1    2    0    0  0.43402242831E+01 -0.64088790589E+01  0.41022155836E+01  0.89385222108E+01  0.17770000000E+01 0.  1.
</event>
<event>
 6    1  0.1298204E-002  0.1833565E+03  0.7546771E-02  0.1067775E+00
        -11   -1    0    0    0    0  0.00000000000E+00  0.00000000000E+00  0.18250000000E+03  0.18250000000E+03  0.00000000000E+00 0. -1.
         11   -1    0    0    0    0 -0.00000000000E+00 -0.00000000000E+00 -0.18250000000E+03  0.18250000000E+03  0.00000000000E+00 0. -1.
        -11    1    1    2    0    0  0.26193630342E+01 -0.81312576387E+00  0.18162280548E+03  0.18164351270E+03  0.00000000000E+00 0. -1.
         11    1    1    2    0    0 -0.15478696363E+01 -0.87486254433E+00 -0.12871568383E+03  0.12872796335E+03  0.00000000000E+00 0. -1.
        -15    1    1    2    0    0 -0.32721211344E+01  0.49098616502E+01 -0.46578974230E+02  0.46984806985E+02  0.17770000000E+01 0.  1.
         15    1    1    2    0    0  0.22006277366E+01 -0.32218733419E+01 -0.63281474230E+01  0.76437169672E+01  0.17770000000E+01 0.  1.
</event>
<event>
 6    1  0.1298204E-002  0.1843814E+03  0.7546771E-02  0.1066967E+00
        -11   -1    0    0    0    0  0.00000000000E+00  0.00000000000E+00  0.18250000000E+03  0.18250000000E+03  0.00000000000E+00 0. -1.
         11   -1    0    0    0    0 -0.00000000000E+00 -0.00000000000E+00 -0.18250000000E+03  0.18250000000E+03  0.00000000000E+00 0.  1.
        -11    1    1    2    0    0  0.33674728693E+01 -0.38635254593E+01  0.18054589937E+03  0.18061862718E+03  0.00000000000E+00 0. -1.
         11    1    1    2    0    0  0.97964808117E+00 -0.26963769358E+01 -0.15246695671E+03  0.15249394430E+03  0.00000000000E+00 0.  1.
        -15    1    1    2    0    0 -0.14417139731E+01  0.55011968105E+01 -0.32173446688E+01  0.67713175413E+01  0.17770000000E+01 0. -1.
         15    1    1    2    0    0 -0.29054069774E+01  0.10587055846E+01 -0.24861597993E+02  0.25116110984E+02  0.17770000000E+01 0.  1.
</event>
<event>
 6    1  0.1298204E-002  0.1829801E+03  0.7546771E-02  0.1068073E+00
        -11   -1    0    0    0    0  0.00000000000E+00  0.00000000000E+00  0.18250000000E+03  0.18250000000E+03  0.00000000000E+00 0. -1.
         11   -1    0    0    0    0 -0.00000000000E+00 -0.00000000000E+00 -0.18250000000E+03  0.18250000000E+03  0.00000000000E+00 0.  1.
        -11    1    1    2    0    0 -0.12345338938E+01  0.56893711147E+01  0.15063652220E+03  0.15074897956E+03  0.00000000000E+00 0. -1.
         11    1    1    2    0    0  0.21173621681E+01 -0.12786662808E+01 -0.18200307369E+03  0.18201988090E+03  0.00000000000E+00 0.  1.
        -15    1    1    2    0    0  0.85229119240E+00 -0.45143834218E+01  0.21317551713E+02  0.21879254969E+02  0.17770000000E+01 0.  1.
         15    1    1    2    0    0 -0.17351194666E+01  0.10367858790E+00  0.10048999776E+02  0.10351884578E+02  0.17770000000E+01 0.  1.
</event>
<event>
 6    1  0.1298204E-002  0.1833117E+03  0.7546771E-02  0.1067811E+00
        -11   -1    0    0    0    0  0.00000000000E+00  0.00000000000E+00  0.18250000000E+03  0.18250000000E+03  0.00000000000E+00 0. -1.
         11   -1    0    0    0    0 -0.00000000000E+00 -0.00000000000E+00 -0.18250000000E+03  0.18250000000E+03  0.00000000000E+00 0.  1.
        -11    1    1    2    0    0  0.11591542456E+01  0.28952641445E+01  0.15826622507E+03  0.15829694941E+03  0.00000000000E+00 0. -1.
         11    1    1    2    0    0 -0.26820178612E+01  0.35542184140E+01 -0.18163374972E+03  0.18168831753E+03  0.00000000000E+00 0.  1.
        -15    1    1    2    0    0  0.23631861137E+01 -0.23114079713E+01  0.15135040992E+02  0.15593410475E+02  0.17770000000E+01 0. -1.
         15    1    1    2    0    0 -0.84032249807E+00 -0.41380745872E+01  0.82324836541E+01  0.94213225878E+01  0.17770000000E+01 0.  1.
</event>
<event>
 6    1  0.1298204E-002  0.1831639E+03  0.7546771E-02  0.1067928E+00
        -11   -1    0    0    0    0  0.00000000000E+00  0.00000000000E+00  0.18250000000E+03  0.18250000000E+03  0.00000000000E+00 0.  1.
         11   -1    0    0    0    0 -0.00000000000E+00 -0.00000000000E+00 -0.18250000000E+03  0.18250000000E+03  0.00000000000E+00 0. -1.
        -11    1    1    2    0    0  0.55927078711E+01  0.93908411472E+01  0.18150731356E+03  0.18183611070E+03  0.00000000000E+00 0.  1.
         11    1    1    2    0    0 -0.60210768841E+00  0.13695037069E+01 -0.97326565794E+02  0.97338062870E+02  0.00000000000E+00 0. -1.
        -15    1    1    2    0    0 -0.54057320647E+01  0.43718149660E-01 -0.32771054038E+02  0.33261442575E+02  0.17770000000E+01 0. -1.
         15    1    1    2    0    0  0.41513188201E+00 -0.10804063004E+02 -0.51409693728E+02  0.52564383855E+02  0.17770000000E+01 0. -1.
</event>
<event>
 6    1  0.1298204E-002  0.1907357E+03  0.7546771E-02  0.1062082E+00
        -11   -1    0    0    0    0  0.00000000000E+00  0.00000000000E+00  0.18250000000E+03  0.18250000000E+03  0.00000000000E+00 0. -1.
         11   -1    0    0    0    0 -0.00000000000E+00 -0.00000000000E+00 -0.18250000000E+03  0.18250000000E+03  0.00000000000E+00 0.  1.
        -11    1    1    2    0    0 -0.56078370947E+00  0.33597093152E+01  0.16116349956E+03  0.16119949043E+03  0.00000000000E+00 0. -1.
         11    1    1    2    0    0  0.12117713460E+02 -0.22005235832E+01 -0.17382855149E+03  0.17426430099E+03  0.00000000000E+00 0.  1.
        -15    1    1    2    0    0 -0.11496546777E+02 -0.73334192343E+01 -0.16452271886E+01  0.13849697721E+02  0.17770000000E+01 0. -1.
         15    1    1    2    0    0 -0.60382973588E-01  0.61742335023E+01  0.14310279123E+02  0.15686510862E+02  0.17770000000E+01 0.  1.
</event>
<event>
 6    1  0.1298204E-002  0.1849982E+03  0.7546771E-02  0.1066483E+00
        -11   -1    0    0    0    0  0.00000000000E+00  0.00000000000E+00  0.18250000000E+03  0.18250000000E+03  0.00000000000E+00 0. -1.
         11   -1    0    0    0    0 -0.00000000000E+00 -0.00000000000E+00 -0.18250000000E+03  0.18250000000E+03  0.00000000000E+00 0. -1.
        -11    1    1    2    0    0 -0.37765178513E+01 -0.36310352417E-01  0.17996216786E+03  0.18000179239E+03  0.00000000000E+00 0. -1.
         11    1    1    2    0    0  0.19381004025E+01 -0.16625022184E+01 -0.17682699000E+03  0.17684542556E+03  0.00000000000E+00 0. -1.
        -15    1    1    2    0    0  0.17213181975E+01 -0.10791746765E+01  0.98576242231E+00  0.28735015004E+01  0.17770000000E+01 0.  1.
         15    1    1    2    0    0  0.11709925134E+00  0.27779872473E+01 -0.41209402760E+01  0.52792805513E+01  0.17770000000E+01 0. -1.
</event>
<event>
 6    1  0.1298204E-002  0.1826694E+03  0.7546771E-02  0.1068320E+00
        -11   -1    0    0    0    0  0.00000000000E+00  0.00000000000E+00  0.18250000000E+03  0.18250000000E+03  0.00000000000E+00 0. -1.
         11   -1    0    0    0    0 -0.00000000000E+00 -0.00000000000E+00 -0.18250000000E+03  0.18250000000E+03  0.00000000000E+00 0. -1.
        -11    1    1    2    0    0  0.11785147837E+01 -0.11656367912E+01  0.96488167273E+02  0.96502404270E+02  0.00000000000E+00 0. -1.
         11    1    1    2    0    0 -0.12638261771E+01 -0.23649466054E+01 -0.18231091364E+03  0.18233063226E+03  0.00000000000E+00 0. -1.
        -15    1    1    2    0    0 -0.51169285003E-01  0.26624708028E+01  0.16055937230E+02  0.16371994943E+02  0.17770000000E+01 0.  1.
         15    1    1    2    0    0  0.13648067840E+00  0.86811259387E+00  0.69766809132E+02  0.69794968529E+02  0.17770000000E+01 0. -1.
</event>
<event>
 6    1  0.1298204E-002  0.1834219E+03  0.7546771E-02  0.1067723E+00
        -11   -1    0    0    0    0  0.00000000000E+00  0.00000000000E+00  0.18250000000E+03  0.18250000000E+03  0.00000000000E+00 0.  1.
         11   -1    0    0    0    0 -0.00000000000E+00 -0.00000000000E+00 -0.18250000000E+03  0.18250000000E+03  0.00000000000E+00 0.  1.
        -11    1    1    2    0    0  0.25675086981E+01  0.34198631623E+01  0.18152776218E+03  0.18157812645E+03  0.00000000000E+00 0.  1.
         11    1    1    2    0    0 -0.25968518015E+01 -0.11772891168E+01 -0.99518230771E+01  0.10352218675E+02  0.00000000000E+00 0.  1.
        -15    1    1    2    0    0  0.30285836566E+01 -0.82428773651E+01 -0.15263092135E+03  0.15289366641E+03  0.17770000000E+01 0.  1.
         15    1    1    2    0    0 -0.29992405532E+01  0.60003033197E+01 -0.18945017747E+02  0.20175988458E+02  0.17770000000E+01 0. -1.
</event>
<event>
 6    1  0.1298204E-002  0.1831764E+03  0.7546771E-02  0.1067918E+00
        -11   -1    0    0    0    0  0.00000000000E+00  0.00000000000E+00  0.18250000000E+03  0.18250000000E+03  0.00000000000E+00 0.  1.
         11   -1    0    0    0    0 -0.00000000000E+00 -0.00000000000E+00 -0.18250000000E+03  0.18250000000E+03  0.00000000000E+00 0.  1.
        -11    1    1    2    0    0 -0.71151411548E+00  0.12006414427E+01  0.81031357372E+02  0.81043375237E+02  0.00000000000E+00 0.  1.
         11    1    1    2    0    0 -0.98436392312E+01  0.20047190922E+00 -0.18155686779E+03  0.18182363340E+03  0.00000000000E+00 0.  1.
        -15    1    1    2    0    0  0.42746714759E+01  0.62578290991E+01  0.51548962169E+02  0.52133352769E+02  0.17770000000E+01 0.  1.
         15    1    1    2    0    0  0.62804818708E+01 -0.76589424510E+01  0.48976548248E+02  0.49999638592E+02  0.17770000000E+01 0. -1.
</event>
<event>
 6    1  0.1298204E-002  0.1832024E+03  0.7546771E-02  0.1067897E+00
        -11   -1    0    0    0    0  0.00000000000E+00  0.00000000000E+00  0.18250000000E+03  0.18250000000E+03  0.00000000000E+00 0.  1.
         11   -1    0    0    0    0 -0.00000000000E+00 -0.00000000000E+00 -0.18250000000E+03  0.18250000000E+03  0.00000000000E+00 0.  1.
        -11    1    1    2    0    0  0.59567362360E+01  0.95025803644E+00  0.18169753600E+03  0.18179763553E+03  0.00000000000E+00 0.  1.
         11    1    1    2    0    0 -0.13359295892E-01 -0.11479050715E+01 -0.52987956494E+02  0.53000390545E+02  0.00000000000E+00 0.  1.
        -15    1    1    2    0    0 -0.83416065582E+01 -0.41636420340E+00 -0.24455684328E+02  0.25903551572E+02  0.17770000000E+01 0. -1.
         15    1    1    2    0    0  0.23982296181E+01  0.61401123841E+00 -0.10425389518E+03  0.10429842235E+03  0.17770000000E+01 0. -1.
</event>
<event>
 6    1  0.1298204E-002  0.1827445E+03  0.7546771E-02  0.1068260E+00
        -11   -1    0    0    0    0  0.00000000000E+00  0.00000000000E+00  0.18250000000E+03  0.18250000000E+03  0.00000000000E+00 0. -1.
         11   -1    0    0    0    0 -0.00000000000E+00 -0.00000000000E+00 -0.18250000000E+03  0.18250000000E+03  0.00000000000E+00 0.  1.
        -11    1    1    2    0    0 -0.12266805577E+01 -0.15177741031E+01  0.13940643708E+03  0.13942009569E+03  0.00000000000E+00 0. -1.
         11    1    1    2    0    0  0.20973338416E+01 -0.20903447593E+01 -0.18223148623E+03  0.18225554292E+03  0.00000000000E+00 0.  1.
        -15    1    1    2    0    0 -0.23986404916E+01  0.17549981554E+01  0.26843703052E+02  0.27066134139E+02  0.17770000000E+01 0. -1.
         15    1    1    2    0    0  0.15279872077E+01  0.18531207070E+01  0.15981346095E+02  0.16258227249E+02  0.17770000000E+01 0.  1.
</event>
<event>
 6    1  0.1347085E-002  0.1829386E+03  0.7546771E-02  0.1068106E+00
        -11   -1    0    0    0    0  0.00000000000E+00  0.00000000000E+00  0.18250000000E+03  0.18250000000E+03  0.00000000000E+00 0.  1.
         11   -1    0    0    0    0 -0.00000000000E+00 -0.00000000000E+00 -0.18250000000E+03  0.18250000000E+03  0.00000000000E+00 0.  1.
        -11    1    1    2    0    0  0.47101093140E+00 -0.29512915857E+01  0.18203689781E+03  0.18206142957E+03  0.00000000000E+00 0.  1.
         11    1    1    2    0    0 -0.28582452713E+01 -0.13668928069E+01 -0.33854353959E+02  0.34002282923E+02  0.00000000000E+00 0.  1.
        -15    1    1    2    0    0  0.42384968604E+01  0.19694185385E+01 -0.13940331781E+03  0.13949296115E+03  0.17770000000E+01 0.  1.
         15    1    1    2    0    0 -0.18512625205E+01  0.23487658541E+01 -0.87792260392E+01  0.94433263633E+01  0.17770000000E+01 0. -1.
</event>
<event>
 6    1  0.1298204E-002  0.1881085E+03  0.7546771E-02  0.1064076E+00
        -11   -1    0    0    0    0  0.00000000000E+00  0.00000000000E+00  0.18250000000E+03  0.18250000000E+03  0.00000000000E+00 0.  1.
         11   -1    0    0    0    0 -0.00000000000E+00 -0.00000000000E+00 -0.18250000000E+03  0.18250000000E+03  0.00000000000E+00 0. -1.
        -11    1    1    2    0    0 -0.13978337206E+02 -0.85690355129E+00  0.17633626071E+03  0.17689150639E+03  0.00000000000E+00 0.  1.
         11    1    1    2    0    0 -0.37254562682E+00  0.33776319189E+01 -0.15679096815E+03  0.15682778734E+03  0.00000000000E+00 0. -1.
        -15    1    1    2    0    0  0.12407592369E+02 -0.21828194787E+01 -0.23379466865E+02  0.26617104447E+02  0.17770000000E+01 0.  1.
         15    1    1    2    0    0  0.19432904647E+01 -0.33790888891E+00  0.38341743140E+01  0.46636018180E+01  0.17770000000E+01 0. -1.
</event>
<event>
 6    1  0.1298204E-002  0.1827228E+03  0.7546771E-02  0.1068278E+00
        -11   -1    0    0    0    0  0.00000000000E+00  0.00000000000E+00  0.18250000000E+03  0.18250000000E+03  0.00000000000E+00 0.  1.
         11   -1    0    0    0    0 -0.00000000000E+00 -0.00000000000E+00 -0.18250000000E+03  0.18250000000E+03  0.00000000000E+00 0.  1.
        -11    1    1    2    0    0  0.22664073586E+01 -0.63744742436E+01  0.18215161492E+03  0.18227721016E+03  0.00000000000E+00 0.  1.
         11    1    1    2    0    0  0.26363595846E+01  0.40084708939E+00 -0.79930438415E+02  0.79974908911E+02  0.00000000000E+00 0.  1.
        -15    1    1    2    0    0 -0.22014642888E+01  0.38739422782E+01 -0.83295420540E+02  0.83433438655E+02  0.17770000000E+01 0.  1.
         15    1    1    2    0    0 -0.27013026545E+01  0.20996848761E+01 -0.18925755966E+02  0.19314442277E+02  0.17770000000E+01 0. -1.
</event>
<event>
 6    1  0.1298204E-002  0.1826819E+03  0.7546771E-02  0.1068310E+00
        -11   -1    0    0    0    0  0.00000000000E+00  0.00000000000E+00  0.18250000000E+03  0.18250000000E+03  0.00000000000E+00 0.  1.
         11   -1    0    0    0    0 -0.00000000000E+00 -0.00000000000E+00 -0.18250000000E+03  0.18250000000E+03  0.00000000000E+00 0.  1.
        -11    1    1    2    0    0  0.23908692024E+01  0.10145100176E+01  0.12013698378E+03  0.12016505464E+03  0.00000000000E+00 0.  1.
         11    1    1    2    0    0  0.16779959808E+01 -0.20385421634E+01 -0.18229901042E+03  0.18231813000E+03  0.00000000000E+00 0.  1.
        -15    1    1    2    0    0 -0.13909560039E+01  0.16059401739E+01  0.42067718483E+02  0.42158800622E+02  0.17770000000E+01 0. -1.
         15    1    1    2    0    0 -0.26779091793E+01 -0.58190802807E+00  0.20094308165E+02  0.20358014740E+02  0.17770000000E+01 0.  1.
</event>
<event>
 6    1  0.1298204E-002  0.1831473E+03  0.7546771E-02  0.1067941E+00
        -11   -1    0    0    0    0  0.00000000000E+00  0.00000000000E+00  0.18250000000E+03  0.18250000000E+03  0.00000000000E+00 0. -1.
         11   -1    0    0    0    0 -0.00000000000E+00 -0.00000000000E+00 -0.18250000000E+03  0.18250000000E+03  0.00000000000E+00 0.  1.
        -11    1    1    2    0    0 -0.67638909915E+01 -0.26351459732E+01  0.18170775856E+03  0.18185269791E+03  0.00000000000E+00 0. -1.
         11    1    1    2    0    0 -0.68749085350E+00 -0.52952144180E+00 -0.27300298388E+02  0.27314086635E+02  0.00000000000E+00 0.  1.
        -15    1    1    2    0    0  0.22426018913E+01  0.53463754768E+01 -0.13475961326E+02  0.14777423884E+02  0.17770000000E+01 0. -1.
         15    1    1    2    0    0  0.52087799537E+01 -0.21817080618E+01 -0.14093149885E+03  0.14105579157E+03  0.17770000000E+01 0.  1.
</event>
<event>
 6    1  0.1298204E-002  0.1830952E+03  0.7546771E-02  0.1067982E+00
        -11   -1    0    0    0    0  0.00000000000E+00  0.00000000000E+00  0.18250000000E+03  0.18250000000E+03  0.00000000000E+00 0. -1.
         11   -1    0    0    0    0 -0.00000000000E+00 -0.00000000000E+00 -0.18250000000E+03  0.18250000000E+03  0.00000000000E+00 0.  1.
        -11    1    1    2    0    0  0.11974905102E+01  0.16072409441E+01  0.10433540968E+03  0.10435465931E+03  0.00000000000E+00 0. -1.
         11    1    1    2    0    0 -0.11088301368E+01 -0.66492438596E+01 -0.18177981018E+03  0.18190475897E+03  0.00000000000E+00 0.  1.
        -15    1    1    2    0    0 -0.41484641850E+01 -0.10847277892E+01  0.51720389863E+02  0.51928247092E+02  0.17770000000E+01 0. -1.
         15    1    1    2    0    0  0.40598038116E+01  0.61267307047E+01  0.25724010636E+02  0.26812334630E+02  0.17770000000E+01 0.  1.
</event>
<event>
 6    1  0.1298204E-002  0.1864346E+03  0.7546771E-02  0.1065365E+00
        -11   -1    0    0    0    0  0.00000000000E+00  0.00000000000E+00  0.18250000000E+03  0.18250000000E+03  0.00000000000E+00 0.  1.
         11   -1    0    0    0    0 -0.00000000000E+00 -0.00000000000E+00 -0.18250000000E+03  0.18250000000E+03  0.00000000000E+00 0.  1.
        -11    1    1    2    0    0  0.95589090335E+01  0.75607422299E+01  0.17814897787E+03  0.17856538265E+03  0.00000000000E+00 0.  1.
         11    1    1    2    0    0  0.19845264235E+01 -0.10210868378E+01 -0.14680570424E+03  0.14682266773E+03  0.00000000000E+00 0.  1.
        -15    1    1    2    0    0 -0.10345633503E+02 -0.26224332882E+01 -0.34396496126E+01  0.11353334637E+02  0.17770000000E+01 0. -1.
         15    1    1    2    0    0 -0.11978019541E+01 -0.39172221038E+01 -0.27903624015E+02  0.28258614982E+02  0.17770000000E+01 0.  1.
</event>
<event>
 6    1  0.1298204E-002  0.1835727E+03  0.7546771E-02  0.1067604E+00
        -11   -1    0    0    0    0  0.00000000000E+00  0.00000000000E+00  0.18250000000E+03  0.18250000000E+03  0.00000000000E+00 0. -1.
         11   -1    0    0    0    0 -0.00000000000E+00 -0.00000000000E+00 -0.18250000000E+03  0.18250000000E+03  0.00000000000E+00 0.  1.
        -11    1    1    2    0    0  0.27376428929E+01  0.85388549317E+00  0.16451702867E+03  0.16454202056E+03  0.00000000000E+00 0. -1.
         11    1    1    2    0    0  0.28775282384E+01 -0.26469274572E+01 -0.18138520206E+03  0.18142733510E+03  0.00000000000E+00 0.  1.
        -15    1    1    2    0    0 -0.48257777135E+01  0.47165972594E+00  0.15438079643E+02  0.16278901237E+02  0.17770000000E+01 0.  1.
         15    1    1    2    0    0 -0.78939341778E+00  0.13213822381E+01  0.14300937502E+01  0.27517431060E+01  0.17770000000E+01 0. -1.
</event>
<event>
 6    1  0.1298204E-002  0.1839431E+03  0.7546771E-02  0.1067312E+00
        -11   -1    0    0    0    0  0.00000000000E+00  0.00000000000E+00  0.18250000000E+03  0.18250000000E+03  0.00000000000E+00 0.  1.
         11   -1    0    0    0    0 -0.00000000000E+00 -0.00000000000E+00 -0.18250000000E+03  0.18250000000E+03  0.00000000000E+00 0. -1.
        -11    1    1    2    0    0  0.52773364546E+00  0.28368533570E+01  0.17372577525E+03  0.17374973734E+03  0.00000000000E+00 0.  1.
         11    1    1    2    0    0 -0.39769373691E+01 -0.25882430496E+01 -0.18099466482E+03  0.18105685220E+03  0.00000000000E+00 0. -1.
        -15    1    1    2    0    0  0.77710953939E+00 -0.35511076803E+00  0.66335271899E+01  0.69203623368E+01  0.17770000000E+01 0.  1.
         15    1    1    2    0    0  0.26720941842E+01  0.10650046061E+00  0.63536238183E+00  0.32730481258E+01  0.17770000000E+01 0. -1.
</event>
<event>
 6    1  0.1298204E-002  0.1849775E+03  0.7546771E-02  0.1066500E+00
        -11   -1    0    0    0    0  0.00000000000E+00  0.00000000000E+00  0.18250000000E+03  0.18250000000E+03  0.00000000000E+00 0.  1.
         11   -1    0    0    0    0 -0.00000000000E+00 -0.00000000000E+00 -0.18250000000E+03  0.18250000000E+03  0.00000000000E+00 0. -1.
        -11    1    1    2    0    0 -0.22501965841E+01 -0.22401844384E+01  0.17245029655E+03  0.17247952513E+03  0.00000000000E+00 0.  1.
         11    1    1    2    0    0 -0.26819665535E+01  0.51660322180E+00 -0.18000174376E+03  0.18002246410E+03  0.00000000000E+00 0. -1.
        -15    1    1    2    0    0  0.11957955220E+01 -0.59613893359E+00 -0.12127506999E+01  0.25325484830E+01  0.17770000000E+01 0.  1.
         15    1    1    2    0    0  0.37363676155E+01  0.23197201502E+01  0.87641979142E+01  0.99654622880E+01  0.17770000000E+01 0. -1.
</event>
<event>
 6    1  0.1298204E-002  0.1868547E+03  0.7546771E-02  0.1065040E+00
        -11   -1    0    0    0    0  0.00000000000E+00  0.00000000000E+00  0.18250000000E+03  0.18250000000E+03  0.00000000000E+00 0. -1.
         11   -1    0    0    0    0 -0.00000000000E+00 -0.00000000000E+00 -0.18250000000E+03  0.18250000000E+03  0.00000000000E+00 0. -1.
        -11    1    1    2    0    0 -0.70845430661E+01 -0.11933356771E+01  0.15300629510E+03  0.15317487111E+03  0.00000000000E+00 0. -1.
         11    1    1    2    0    0  0.69407566184E+00 -0.52597285847E+01 -0.17806624604E+03  0.17814526226E+03  0.00000000000E+00 0. -1.
        -15    1    1    2    0    0  0.74643013210E+01  0.24625374592E+01  0.27434312753E+02  0.28593340661E+02  0.17770000000E+01 0. -1.
         15    1    1    2    0    0 -0.10738339167E+01  0.39905268026E+01 -0.23743618105E+01  0.50865259707E+01  0.17770000000E+01 0. -1.
</event>
<event>
 6    1  0.1298204E-002  0.1827241E+03  0.7546771E-02  0.1068277E+00
        -11   -1    0    0    0    0  0.00000000000E+00  0.00000000000E+00  0.18250000000E+03  0.18250000000E+03  0.00000000000E+00 0. -1.
         11   -1    0    0    0    0 -0.00000000000E+00 -0.00000000000E+00 -0.18250000000E+03  0.18250000000E+03  0.00000000000E+00 0.  1.
        -11    1    1    2    0    0  0.32084932247E+01 -0.19950365603E+01  0.18223676558E+03  0.18227592635E+03  0.00000000000E+00 0. -1.
         11    1    1    2    0    0 -0.12316440736E+01  0.10502908290E+01 -0.10914406696E+03  0.10915606905E+03  0.00000000000E+00 0.  1.
        -15    1    1    2    0    0  0.19597747509E+01  0.13959218977E+01 -0.14000834960E+02  0.14316788173E+02  0.17770000000E+01 0.  1.
         15    1    1    2    0    0 -0.39366239021E+01 -0.45117616637E+00 -0.59091863661E+02  0.59251216423E+02  0.17770000000E+01 0. -1.
</event>
<event>
 6    1  0.1298204E-002  0.1826821E+03  0.7546771E-02  0.1068310E+00
        -11   -1    0    0    0    0  0.00000000000E+00  0.00000000000E+00  0.18250000000E+03  0.18250000000E+03  0.00000000000E+00 0.  1.
         11   -1    0    0    0    0 -0.00000000000E+00 -0.00000000000E+00 -0.18250000000E+03  0.18250000000E+03  0.00000000000E+00 0.  1.
        -11    1    1    2    0    0  0.56918010166E+00 -0.13604699369E+00  0.32687485035E+02  0.32692723238E+02  0.00000000000E+00 0.  1.
         11    1    1    2    0    0  0.17340617969E+01 -0.44498306206E+01 -0.18225532099E+03  0.18231788171E+03  0.00000000000E+00 0.  1.
        -15    1    1    2    0    0 -0.47833994289E+01 -0.67909163207E+00  0.70677147774E+02  0.70864370611E+02  0.17770000000E+01 0. -1.
         15    1    1    2    0    0  0.24801575304E+01  0.52649692463E+01  0.78890688179E+02  0.79125024442E+02  0.17770000000E+01 0.  1.
</event>
<event>
 6    1  0.1298204E-002  0.1841271E+03  0.7546771E-02  0.1067167E+00
        -11   -1    0    0    0    0  0.00000000000E+00  0.00000000000E+00  0.18250000000E+03  0.18250000000E+03  0.00000000000E+00 0.  1.
         11   -1    0    0    0    0 -0.00000000000E+00 -0.00000000000E+00 -0.18250000000E+03  0.18250000000E+03  0.00000000000E+00 0. -1.
        -11    1    1    2    0    0  0.23388950355E+01 -0.18996119336E+01  0.18084779411E+03  0.18087289347E+03  0.00000000000E+00 0.  1.
         11    1    1    2    0    0 -0.18306499976E+01 -0.25039997600E+01 -0.17673047781E+03  0.17675769596E+03  0.00000000000E+00 0. -1.
        -15    1    1    2    0    0  0.24222303431E+00  0.10683346755E+01 -0.65089321910E+00  0.21866417082E+01  0.17770000000E+01 0. -1.
         15    1    1    2    0    0 -0.75046807225E+00  0.33352770181E+01 -0.34664230871E+01  0.51827688674E+01  0.17770000000E+01 0. -1.
</event>
<event>
 6    1  0.1298204E-002  0.1938457E+03  0.7546771E-02  0.1059766E+00
        -11   -1    0    0    0    0  0.00000000000E+00  0.00000000000E+00  0.18250000000E+03  0.18250000000E+03  0.00000000000E+00 0.  1.
         11   -1    0    0    0    0 -0.00000000000E+00 -0.00000000000E+00 -0.18250000000E+03  0.18250000000E+03  0.00000000000E+00 0. -1.
        -11    1    1    2    0    0  0.20663553540E+01  0.39471237251E+01  0.17109629863E+03  0.17115429593E+03  0.00000000000E+00 0.  1.
         11    1    1    2    0    0 -0.48226070316E+01 -0.41533330979E+01 -0.13315633180E+03  0.13330835087E+03  0.00000000000E+00 0. -1.
        -15    1    1    2    0    0  0.47832977852E+01  0.67061651862E+01 -0.47737022524E+02  0.48475082647E+02  0.17770000000E+01 0.  1.
         15    1    1    2    0    0 -0.20270461076E+01 -0.64999558135E+01  0.97970556924E+01  0.12062270547E+02  0.17770000000E+01 0.  1.
</event>
<event>
 6    1  0.1298204E-002  0.1690232E+03  0.7546771E-02  0.1079719E+00
        -11   -1    0    0    0    0  0.00000000000E+00  0.00000000000E+00  0.18250000000E+03  0.18250000000E+03  0.00000000000E+00 0. -1.
         11   -1    0    0    0    0 -0.00000000000E+00 -0.00000000000E+00 -0.18250000000E+03  0.18250000000E+03  0.00000000000E+00 0.  1.
        -11    1    1    2    0    0 -0.32941923627E+01  0.27294347656E+01  0.16933403076E+03  0.16938806183E+03  0.00000000000E+00 0. -1.
         11    1    1    2    0    0  0.19744029497E+01  0.15130024376E+01 -0.16866993795E+03  0.16868827882E+03  0.00000000000E+00 0.  1.
        -15    1    1    2    0    0  0.61772417775E+01  0.10820805323E+01  0.11182476820E+02  0.12943520815E+02  0.17770000000E+01 0. -1.
         15    1    1    2    0    0 -0.48574523645E+01 -0.53245177354E+01 -0.11846569632E+02  0.13980138541E+02  0.17770000000E+01 0.  1.
</event>
<event>
 6    1  0.1298204E-002  0.1825944E+03  0.7546771E-02  0.1068380E+00
        -11   -1    0    0    0    0  0.00000000000E+00  0.00000000000E+00  0.18250000000E+03  0.18250000000E+03  0.00000000000E+00 0.  1.
         11   -1    0    0    0    0 -0.00000000000E+00 -0.00000000000E+00 -0.18250000000E+03  0.18250000000E+03  0.00000000000E+00 0.  1.
        -11    1    1    2    0    0 -0.22959767839E+01  0.20761693393E+01  0.18237933993E+03  0.18240560743E+03  0.00000000000E+00 0.  1.
         11    1    1    2    0    0  0.15961254975E+00 -0.54335665966E+00 -0.18602405073E+02  0.18611023269E+02  0.00000000000E+00 0.  1.
        -15    1    1    2    0    0 -0.21389389106E+01  0.79416147476E+00 -0.74577710759E+02  0.74633761952E+02  0.17770000000E+01 0.  1.
         15    1    1    2    0    0  0.42753031447E+01 -0.23269741544E+01 -0.89199224096E+02  0.89349607352E+02  0.17770000000E+01 0.  1.
</event>
<event>
 6    1  0.1298204E-002  0.1873313E+03  0.7546771E-02  0.1064673E+00
        -11   -1    0    0    0    0  0.00000000000E+00  0.00000000000E+00  0.18250000000E+03  0.18250000000E+03  0.00000000000E+00 0. -1.
         11   -1    0    0    0    0 -0.00000000000E+00 -0.00000000000E+00 -0.18250000000E+03  0.18250000000E+03  0.00000000000E+00 0. -1.
        -11    1    1    2    0    0 -0.16917076934E+00  0.25275330300E+01  0.13615813517E+03  0.13618169780E+03  0.00000000000E+00 0. -1.
         11    1    1    2    0    0  0.54539276539E+01  0.94576563990E+01 -0.17733292141E+03  0.17766867368E+03  0.00000000000E+00 0. -1.
        -15    1    1    2    0    0 -0.21419887534E+01  0.87622005197E+01  0.14413168542E+02  0.17095655302E+02  0.17770000000E+01 0. -1.
         15    1    1    2    0    0 -0.31427681311E+01 -0.20747389949E+02  0.26761617696E+02  0.34053973218E+02  0.17770000000E+01 0.  1.
</event>
<event>
 6    1  0.1298204E-002  0.1883171E+03  0.7546771E-02  0.1063916E+00
        -11   -1    0    0    0    0  0.00000000000E+00  0.00000000000E+00  0.18250000000E+03  0.18250000000E+03  0.00000000000E+00 0. -1.
         11   -1    0    0    0    0 -0.00000000000E+00 -0.00000000000E+00 -0.18250000000E+03  0.18250000000E+03  0.00000000000E+00 0. -1.
        -11    1    1    2    0    0  0.90009602705E+00 -0.32722916405E+01  0.17665026017E+03  0.17668285849E+03  0.00000000000E+00 0. -1.
         11    1    1    2    0    0 -0.22477429953E+01 -0.25664579500E+01 -0.17009476760E+03  0.17012897760E+03  0.00000000000E+00 0. -1.
        -15    1    1    2    0    0  0.27801337295E+01  0.50280035482E+01 -0.11334056188E+02  0.12830764666E+02  0.17770000000E+01 0.  1.
         15    1    1    2    0    0 -0.14324867612E+01  0.81074604229E+00  0.47785636116E+01  0.53573992437E+01  0.17770000000E+01 0.  1.
</event>
<event>
 6    1  0.1298204E-002  0.1831885E+03  0.7546771E-02  0.1067908E+00
        -11   -1    0    0    0    0  0.00000000000E+00  0.00000000000E+00  0.18250000000E+03  0.18250000000E+03  0.00000000000E+00 0. -1.
         11   -1    0    0    0    0 -0.00000000000E+00 -0.00000000000E+00 -0.18250000000E+03  0.18250000000E+03  0.00000000000E+00 0. -1.
        -11    1    1    2    0    0 -0.86606903155E+00  0.22861345594E+01  0.16210842152E+03  0.16212685408E+03  0.00000000000E+00 0. -1.
         11    1    1    2    0    0 -0.38809150593E+01 -0.14652163840E+00 -0.18176997023E+03  0.18181145467E+03  0.00000000000E+00 0. -1.
        -15    1    1    2    0    0  0.44106025956E+01 -0.85210418097E-02  0.12534925321E+02  0.13406549506E+02  0.17770000000E+01 0.  1.
         15    1    1    2    0    0  0.33638149525E+00 -0.21310918792E+01  0.71266233955E+01  0.76551417445E+01  0.17770000000E+01 0.  1.
</event>
<event>
 6    1  0.1298204E-002  0.1789810E+03  0.7546771E-02  0.1071291E+00
        -11   -1    0    0    0    0  0.00000000000E+00  0.00000000000E+00  0.18250000000E+03  0.18250000000E+03  0.00000000000E+00 0. -1.
         11   -1    0    0    0    0 -0.00000000000E+00 -0.00000000000E+00 -0.18250000000E+03  0.18250000000E+03  0.00000000000E+00 0.  1.
        -11    1    1    2    0    0  0.13476083832E+02  0.12810983177E+02  0.18130261418E+03  0.18225357070E+03  0.00000000000E+00 0. -1.
         11    1    1    2    0    0 -0.74389137533E+00  0.34774158470E+00 -0.73441599282E+01  0.73899244677E+01  0.00000000000E+00 0.  1.
        -15    1    1    2    0    0 -0.70123815299E+01 -0.13312467348E+02 -0.98250264106E+02  0.99411606000E+02  0.17770000000E+01 0.  1.
         15    1    1    2    0    0 -0.57198109267E+01  0.15374258666E+00 -0.75708190147E+02  0.75944898829E+02  0.17770000000E+01 0. -1.
</event>
<event>
 6    1  0.1298204E-002  0.1868215E+03  0.7546771E-02  0.1065066E+00
        -11   -1    0    0    0    0  0.00000000000E+00  0.00000000000E+00  0.18250000000E+03  0.18250000000E+03  0.00000000000E+00 0.  1.
         11   -1    0    0    0    0 -0.00000000000E+00 -0.00000000000E+00 -0.18250000000E+03  0.18250000000E+03  0.00000000000E+00 0.  1.
        -11    1    1    2    0    0  0.36741489261E+01  0.13325296024E+01  0.15702928848E+03  0.15707791839E+03  0.00000000000E+00 0.  1.
         11    1    1    2    0    0  0.34693419491E+01 -0.31598445123E+01 -0.17811669764E+03  0.17817850299E+03  0.00000000000E+00 0.  1.
        -15    1    1    2    0    0 -0.17841513521E+01 -0.31931960370E+00  0.23204389397E+02  0.23342805687E+02  0.17770000000E+01 0.  1.
         15    1    1    2    0    0 -0.53593395230E+01  0.21466345136E+01 -0.21169802378E+01  0.64007729366E+01  0.17770000000E+01 0. -1.
</event>
<event>
 6    1  0.1298204E-002  0.1833197E+03  0.7546771E-02  0.1067804E+00
        -11   -1    0    0    0    0  0.00000000000E+00  0.00000000000E+00  0.18250000000E+03  0.18250000000E+03  0.00000000000E+00 0.  1.
         11   -1    0    0    0    0 -0.00000000000E+00 -0.00000000000E+00 -0.18250000000E+03  0.18250000000E+03  0.00000000000E+00 0. -1.
        -11    1    1    2    0    0  0.12452123725E+01 -0.38391823516E+01  0.18163548026E+03  0.18168031694E+03  0.00000000000E+00 0.  1.
         11    1    1    2    0    0  0.27090665732E+00 -0.21563117412E+01 -0.15662795279E+03  0.15664302942E+03  0.00000000000E+00 0. -1.
        -15    1    1    2    0    0  0.49246597735E+00  0.41645977727E+01 -0.68166341561E+01  0.81982088022E+01  0.17770000000E+01 0. -1.
         15    1    1    2    0    0 -0.20085850071E+01  0.18308963201E+01 -0.18190893313E+02  0.18478444837E+02  0.17770000000E+01 0.  1.
</event>
<event>
 6    1  0.1298204E-002  0.1841694E+03  0.7546771E-02  0.1067134E+00
        -11   -1    0    0    0    0  0.00000000000E+00  0.00000000000E+00  0.18250000000E+03  0.18250000000E+03  0.00000000000E+00 0.  1.
         11   -1    0    0    0    0 -0.00000000000E+00 -0.00000000000E+00 -0.18250000000E+03  0.18250000000E+03  0.00000000000E+00 0. -1.
        -11    1    1    2    0    0 -0.81127618362E+00 -0.37726805398E+01  0.16237071199E+03  0.16241656135E+03  0.00000000000E+00 0.  1.
         11    1    1    2    0    0  0.47005470752E+01 -0.46148131509E+01 -0.18071063140E+03  0.18083064990E+03  0.00000000000E+00 0. -1.
        -15    1    1    2    0    0 -0.26277708747E+00  0.68796919663E+00  0.63051722021E+00  0.20242614402E+01  0.17770000000E+01 0.  1.
         15    1    1    2    0    0 -0.36264938041E+01  0.76995244941E+01  0.17709402189E+02  0.19728527305E+02  0.17770000000E+01 0. -1.
</event>
<event>
 6    1  0.1298204E-002  0.1827318E+03  0.7546771E-02  0.1068270E+00
        -11   -1    0    0    0    0  0.00000000000E+00  0.00000000000E+00  0.18250000000E+03  0.18250000000E+03  0.00000000000E+00 0. -1.
         11   -1    0    0    0    0 -0.00000000000E+00 -0.00000000000E+00 -0.18250000000E+03  0.18250000000E+03  0.00000000000E+00 0. -1.
        -11    1    1    2    0    0 -0.27790871085E+00 -0.95984963320E+00  0.34427719683E+02  0.34442218674E+02  0.00000000000E+00 0. -1.
         11    1    1    2    0    0 -0.32712186912E+01 -0.13765648626E+01 -0.18223366571E+03  0.18226822192E+03  0.00000000000E+00 0. -1.
        -15    1    1    2    0    0  0.73254446427E+01  0.18489573631E+01  0.94242488915E+02  0.94561542016E+02  0.17770000000E+01 0.  1.
         15    1    1    2    0    0 -0.37763172407E+01  0.48745713270E+00  0.53563457112E+02  0.53728017394E+02  0.17770000000E+01 0. -1.
</event>
<event>
 6    1  0.1298204E-002  0.1828588E+03  0.7546771E-02  0.1068170E+00
        -11   -1    0    0    0    0  0.00000000000E+00  0.00000000000E+00  0.18250000000E+03  0.18250000000E+03  0.00000000000E+00 0. -1.
         11   -1    0    0    0    0 -0.00000000000E+00 -0.00000000000E+00 -0.18250000000E+03  0.18250000000E+03  0.00000000000E+00 0.  1.
        -11    1    1    2    0    0 -0.20138344554E+01  0.86657627675E+00  0.15303901645E+03  0.15305471910E+03  0.00000000000E+00 0. -1.
         11    1    1    2    0    0 -0.23413873439E+01  0.11708883019E+01 -0.18212236861E+03  0.18214118211E+03  0.00000000000E+00 0.  1.
        -15    1    1    2    0    0  0.87980744002E+00  0.11372065343E+00  0.70459269590E+01  0.73205060775E+01  0.17770000000E+01 0.  1.
         15    1    1    2    0    0  0.34754143593E+01 -0.21511852321E+01  0.22037425198E+02  0.22483592712E+02  0.17770000000E+01 0.  1.
</event>
<event>
 6    1  0.1298204E-002  0.1947328E+03  0.7546771E-02  0.1059114E+00
        -11   -1    0    0    0    0  0.00000000000E+00  0.00000000000E+00  0.18250000000E+03  0.18250000000E+03  0.00000000000E+00 0. -1.
         11   -1    0    0    0    0 -0.00000000000E+00 -0.00000000000E+00 -0.18250000000E+03  0.18250000000E+03  0.00000000000E+00 0.  1.
        -11    1    1    2    0    0 -0.34044693939E+01  0.74156959081E+01  0.16225246978E+03  0.16245752340E+03  0.00000000000E+00 0. -1.
         11    1    1    2    0    0  0.42078324744E+00  0.34877468386E+01 -0.17023100145E+03  0.17026724668E+03  0.00000000000E+00 0.  1.
        -15    1    1    2    0    0  0.56389069062E+01 -0.34733187777E+01  0.18078940973E+02  0.19335641964E+02  0.17770000000E+01 0. -1.
         15    1    1    2    0    0 -0.26552207597E+01 -0.74301239689E+01 -0.10100409305E+02  0.12939587961E+02  0.17770000000E+01 0.  1.
</event>
<event>
 6    1  0.1298204E-002  0.1825850E+03  0.7546771E-02  0.1068387E+00
        -11   -1    0    0    0    0  0.00000000000E+00  0.00000000000E+00  0.18250000000E+03  0.18250000000E+03  0.00000000000E+00 0.  1.
         11   -1    0    0    0    0 -0.00000000000E+00 -0.00000000000E+00 -0.18250000000E+03  0.18250000000E+03  0.00000000000E+00 0.  1.
        -11    1    1    2    0    0  0.47964277254E+00 -0.89512721627E+00  0.64714545269E+02  0.64722512924E+02  0.00000000000E+00 0.  1.
         11    1    1    2    0    0 -0.24472079634E+01  0.10158259799E+01 -0.18239572094E+03  0.18241496580E+03  0.00000000000E+00 0.  1.
        -15    1    1    2    0    0 -0.20579722790E+00 -0.23418810000E+01  0.56214871389E+02  0.56292062082E+02  0.17770000000E+01 0. -1.
         15    1    1    2    0    0  0.21733624187E+01  0.22211822365E+01  0.61466304282E+02  0.61570459198E+02  0.17770000000E+01 0.  1.
</event>
<event>
 6    1  0.1298204E-002  0.1827283E+03  0.7546771E-02  0.1068273E+00
        -11   -1    0    0    0    0  0.00000000000E+00  0.00000000000E+00  0.18250000000E+03  0.18250000000E+03  0.00000000000E+00 0.  1.
         11   -1    0    0    0    0 -0.00000000000E+00 -0.00000000000E+00 -0.18250000000E+03  0.18250000000E+03  0.00000000000E+00 0. -1.
        -11    1    1    2    0    0 -0.38688597811E+01  0.24646203366E+01  0.18221399591E+03  0.18227172774E+03  0.00000000000E+00 0.  1.
         11    1    1    2    0    0 -0.20797830018E+01  0.57605097191E-01 -0.48805013111E+02  0.48849341045E+02  0.00000000000E+00 0. -1.
        -15    1    1    2    0    0  0.56683168109E+01 -0.12932248685E+01 -0.12623747572E+03  0.12638378160E+03  0.17770000000E+01 0. -1.
         15    1    1    2    0    0  0.28032597200E+00 -0.12290005652E+01 -0.71715070724E+01  0.74951496135E+01  0.17770000000E+01 0. -1.
</event>
<event>
 6    1  0.1298204E-002  0.1868340E+03  0.7546771E-02  0.1065056E+00
        -11   -1    0    0    0    0  0.00000000000E+00  0.00000000000E+00  0.18250000000E+03  0.18250000000E+03  0.00000000000E+00 0.  1.
         11   -1    0    0    0    0 -0.00000000000E+00 -0.00000000000E+00 -0.18250000000E+03  0.18250000000E+03  0.00000000000E+00 0.  1.
        -11    1    1    2    0    0 -0.33089119759E+01 -0.55529576204E+00  0.14632061122E+03  0.14635907393E+03  0.00000000000E+00 0.  1.
         11    1    1    2    0    0  0.38421425357E+01  0.24488096381E+01 -0.17810774645E+03  0.17816601267E+03  0.00000000000E+00 0.  1.
        -15    1    1    2    0    0  0.11414929689E+02 -0.27545105901E+01  0.99025291682E+01  0.15463045021E+02  0.17770000000E+01 0. -1.
         15    1    1    2    0    0 -0.11948160249E+02  0.86099671400E+00  0.21884606055E+02  0.25011868380E+02  0.17770000000E+01 0.  1.
</event>
<event>
 6    1  0.1298204E-002  0.1934390E+03  0.7546771E-02  0.1060066E+00
        -11   -1    0    0    0    0  0.00000000000E+00  0.00000000000E+00  0.18250000000E+03  0.18250000000E+03  0.00000000000E+00 0. -1.
         11   -1    0    0    0    0 -0.00000000000E+00 -0.00000000000E+00 -0.18250000000E+03  0.18250000000E+03  0.00000000000E+00 0. -1.
        -11    1    1    2    0    0  0.55987593438E+01 -0.12835377584E+02  0.17098854640E+03  0.17156099797E+03  0.00000000000E+00 0. -1.
         11    1    1    2    0    0 -0.10466774459E+02 -0.34255670668E+01 -0.15888849418E+03  0.15926971294E+03  0.00000000000E+00 0. -1.
        -15    1    1    2    0    0  0.61475043156E+01 -0.49032778203E+01 -0.99169941466E+01  0.12780392975E+02  0.17770000000E+01 0.  1.
         15    1    1    2    0    0 -0.12794891999E+01  0.21164222472E+02 -0.21830580705E+01  0.21388896114E+02  0.17770000000E+01 0. -1.
</event>
<event>
 6    1  0.1298204E-002  0.1848470E+03  0.7546771E-02  0.1066602E+00
        -11   -1    0    0    0    0  0.00000000000E+00  0.00000000000E+00  0.18250000000E+03  0.18250000000E+03  0.00000000000E+00 0.  1.
         11   -1    0    0    0    0 -0.00000000000E+00 -0.00000000000E+00 -0.18250000000E+03  0.18250000000E+03  0.00000000000E+00 0. -1.
        -11    1    1    2    0    0  0.23261416825E+01 -0.10612105190E+01  0.17277057746E+03  0.17278949488E+03  0.00000000000E+00 0.  1.
         11    1    1    2    0    0 -0.22352565994E+01 -0.30173795502E+01 -0.18011390697E+03  0.18015304725E+03  0.00000000000E+00 0. -1.
        -15    1    1    2    0    0 -0.20299105693E+01  0.70376113567E+00  0.72611089005E+01  0.77779976935E+01  0.17770000000E+01 0.  1.
         15    1    1    2    0    0  0.19390254862E+01  0.33748289335E+01  0.82220602870E-01  0.42794601756E+01  0.17770000000E+01 0.  1.
</event>
<event>
 6    1  0.1298204E-002  0.2051266E+03  0.7546771E-02  0.1051747E+00
        -11   -1    0    0    0    0  0.00000000000E+00  0.00000000000E+00  0.18250000000E+03  0.18250000000E+03  0.00000000000E+00 0. -1.
         11   -1    0    0    0    0 -0.00000000000E+00 -0.00000000000E+00 -0.18250000000E+03  0.18250000000E+03  0.00000000000E+00 0. -1.
        -11    1    1    2    0    0 -0.18788397177E+01 -0.62315999448E+00  0.13885935793E+03  0.13887346633E+03  0.00000000000E+00 0. -1.
         11    1    1    2    0    0 -0.94908376115E+01  0.13378207396E+02 -0.15902973385E+03  0.15987341456E+03  0.00000000000E+00 0. -1.
        -15    1    1    2    0    0  0.22393080987E+02  0.40317810783E+00 -0.15043166207E+02  0.27038254515E+02  0.17770000000E+01 0.  1.
         15    1    1    2    0    0 -0.11023403658E+02 -0.13158225509E+02  0.35213542133E+02  0.39214864597E+02  0.17770000000E+01 0. -1.
</event>
<event>
 6    1  0.1298204E-002  0.1833105E+03  0.7546771E-02  0.1067811E+00
        -11   -1    0    0    0    0  0.00000000000E+00  0.00000000000E+00  0.18250000000E+03  0.18250000000E+03  0.00000000000E+00 0. -1.
         11   -1    0    0    0    0 -0.00000000000E+00 -0.00000000000E+00 -0.18250000000E+03  0.18250000000E+03  0.00000000000E+00 0.  1.
        -11    1    1    2    0    0 -0.11186777582E+01  0.25120542064E+01  0.18166868006E+03  0.18168949109E+03  0.00000000000E+00 0. -1.
         11    1    1    2    0    0 -0.11839473183E+01 -0.19256438091E+01 -0.95879127147E+02  0.95905770722E+02  0.00000000000E+00 0.  1.
        -15    1    1    2    0    0  0.40042297252E+01  0.38215330267E+01 -0.77367971990E+02  0.77586073423E+02  0.17770000000E+01 0. -1.
         15    1    1    2    0    0 -0.17016046487E+01 -0.44079434240E+01 -0.84215809235E+01  0.98186647698E+01  0.17770000000E+01 0.  1.
</event>
<event>
 6    1  0.1298204E-002  0.2162303E+03  0.7546771E-02  0.1044384E+00
        -11   -1    0    0    0    0  0.00000000000E+00  0.00000000000E+00  0.18250000000E+03  0.18250000000E+03  0.00000000000E+00 0.  1.
         11   -1    0    0    0    0 -0.00000000000E+00 -0.00000000000E+00 -0.18250000000E+03  0.18250000000E+03  0.00000000000E+00 0. -1.
        -11    1    1    2    0    0  0.15557438754E+01  0.19292031608E+00  0.83326198266E+02  0.83340943567E+02  0.00000000000E+00 0.  1.
         11    1    1    2    0    0  0.11887536154E+02 -0.15715293417E+02 -0.14745895236E+03  0.14876970994E+03  0.00000000000E+00 0. -1.
        -15    1    1    2    0    0  0.65428676977E+01 -0.19468277150E+02  0.85008117349E+02  0.87472056551E+02  0.17770000000E+01 0.  1.
         15    1    1    2    0    0 -0.19986147727E+02  0.34990650251E+02 -0.20875363251E+02  0.45417289943E+02  0.17770000000E+01 0. -1.
</event>
<event>
 6    1  0.1298204E-002  0.1863106E+03  0.7546771E-02  0.1065461E+00
        -11   -1    0    0    0    0  0.00000000000E+00  0.00000000000E+00  0.18250000000E+03  0.18250000000E+03  0.00000000000E+00 0.  1.
         11   -1    0    0    0    0 -0.00000000000E+00 -0.00000000000E+00 -0.18250000000E+03  0.18250000000E+03  0.00000000000E+00 0. -1.
        -11    1    1    2    0    0 -0.26423291959E+01 -0.43073023231E+01  0.17861793702E+03  0.17868940142E+03  0.00000000000E+00 0.  1.
         11    1    1    2    0    0 -0.37587949430E+01 -0.27059451863E-01 -0.11454049880E+03  0.11460216026E+03  0.00000000000E+00 0. -1.
        -15    1    1    2    0    0  0.24550365235E+01  0.61836152759E+01  0.55146007311E+00  0.69084107741E+01  0.17770000000E+01 0. -1.
         15    1    1    2    0    0  0.39460876154E+01 -0.18492535010E+01 -0.64628898295E+02  0.64800027544E+02  0.17770000000E+01 0. -1.
</event>
<event>
 6    1  0.1298204E-002  0.1828204E+03  0.7546771E-02  0.1068200E+00
        -11   -1    0    0    0    0  0.00000000000E+00  0.00000000000E+00  0.18250000000E+03  0.18250000000E+03  0.00000000000E+00 0.  1.
         11   -1    0    0    0    0 -0.00000000000E+00 -0.00000000000E+00 -0.18250000000E+03  0.18250000000E+03  0.00000000000E+00 0. -1.
        -11    1    1    2    0    0 -0.77001481614E+00 -0.24518798400E+01  0.18216149316E+03  0.18217962078E+03  0.00000000000E+00 0.  1.
         11    1    1    2    0    0 -0.22836763104E+01 -0.59493663612E-01 -0.15343575058E+03  0.15345275584E+03  0.00000000000E+00 0. -1.
        -15    1    1    2    0    0  0.21277760132E+01  0.71696760458E+00 -0.20839234566E+02  0.21035039805E+02  0.17770000000E+01 0.  1.
         15    1    1    2    0    0  0.92591511335E+00  0.17944058990E+01 -0.78865080135E+01  0.83325835714E+01  0.17770000000E+01 0. -1.
</event>
<event>
 6    1  0.1298204E-002  0.1829460E+03  0.7546771E-02  0.1068100E+00
        -11   -1    0    0    0    0  0.00000000000E+00  0.00000000000E+00  0.18250000000E+03  0.18250000000E+03  0.00000000000E+00 0.  1.
         11   -1    0    0    0    0 -0.00000000000E+00 -0.00000000000E+00 -0.18250000000E+03  0.18250000000E+03  0.00000000000E+00 0.  1.
        -11    1    1    2    0    0 -0.54559856186E+01  0.21258454504E+00  0.18197205255E+03  0.18205395047E+03  0.00000000000E+00 0.  1.
         11    1    1    2    0    0 -0.17056305190E+01 -0.15746907425E+01 -0.12610697624E+03  0.12612834052E+03  0.00000000000E+00 0.  1.
        -15    1    1    2    0    0  0.40042574212E+01  0.12401230639E+01 -0.47278954294E+02  0.47497676057E+02  0.17770000000E+01 0.  1.
         15    1    1    2    0    0  0.31573587164E+01  0.12198313350E+00 -0.85861220217E+01  0.93200329571E+01  0.17770000000E+01 0. -1.
</event>
<event>
 6    1  0.1298204E-002  0.1837866E+03  0.7546771E-02  0.1067435E+00
        -11   -1    0    0    0    0  0.00000000000E+00  0.00000000000E+00  0.18250000000E+03  0.18250000000E+03  0.00000000000E+00 0.  1.
         11   -1    0    0    0    0 -0.00000000000E+00 -0.00000000000E+00 -0.18250000000E+03  0.18250000000E+03  0.00000000000E+00 0.  1.
        -11    1    1    2    0    0  0.43421115134E+01  0.14143606055E+01  0.18115584493E+03  0.18121339492E+03  0.00000000000E+00 0.  1.
         11    1    1    2    0    0 -0.12722683473E+01 -0.16953326223E+01 -0.15553313744E+03  0.15554758005E+03  0.00000000000E+00 0.  1.
        -15    1    1    2    0    0  0.54708025999E+00  0.28804479089E+00 -0.23698946663E+02  0.23773516116E+02  0.17770000000E+01 0.  1.
         15    1    1    2    0    0 -0.36169234261E+01 -0.70727741515E-02 -0.19237608267E+01  0.44655089086E+01  0.17770000000E+01 0. -1.
</event>
<event>
 6    1  0.1298204E-002  0.1839324E+03  0.7546771E-02  0.1067320E+00
        -11   -1    0    0    0    0  0.00000000000E+00  0.00000000000E+00  0.18250000000E+03  0.18250000000E+03  0.00000000000E+00 0.  1.
         11   -1    0    0    0    0 -0.00000000000E+00 -0.00000000000E+00 -0.18250000000E+03  0.18250000000E+03  0.00000000000E+00 0. -1.
        -11    1    1    2    0    0  0.75473027611E+01 -0.67887555484E+01  0.18078282584E+03  0.18106760920E+03  0.00000000000E+00 0.  1.
         11    1    1    2    0    0 -0.85098240518E+00 -0.10380110408E+01 -0.60098568793E+02  0.60113555950E+02  0.00000000000E+00 0. -1.
        -15    1    1    2    0    0 -0.11581955393E+02  0.53812268154E-01 -0.24253748518E+02  0.26935972837E+02  0.17770000000E+01 0.  1.
         15    1    1    2    0    0  0.48856350371E+01  0.77729543211E+01 -0.96430508529E+02  0.96882862018E+02  0.17770000000E+01 0. -1.
</event>
<event>
 6    1  0.1298204E-002  0.1828364E+03  0.7546771E-02  0.1068187E+00
        -11   -1    0    0    0    0  0.00000000000E+00  0.00000000000E+00  0.18250000000E+03  0.18250000000E+03  0.00000000000E+00 0. -1.
         11   -1    0    0    0    0 -0.00000000000E+00 -0.00000000000E+00 -0.18250000000E+03  0.18250000000E+03  0.00000000000E+00 0.  1.
        -11    1    1    2    0    0 -0.46532058903E+00 -0.21883535018E+01  0.15812952138E+03  0.15814534753E+03  0.00000000000E+00 0. -1.
         11    1    1    2    0    0 -0.18063203261E+01  0.24840216203E+01 -0.18213770560E+03  0.18216359943E+03  0.00000000000E+00 0.  1.
        -15    1    1    2    0    0  0.97456971942E+00  0.13667667885E+00  0.19962834550E+02  0.20065915352E+02  0.17770000000E+01 0.  1.
         15    1    1    2    0    0  0.12970711957E+01 -0.43234479738E+00  0.40453496670E+01  0.46251376887E+01  0.17770000000E+01 0. -1.
</event>
<event>
 6    1  0.1298204E-002  0.1831158E+03  0.7546771E-02  0.1067966E+00
        -11   -1    0    0    0    0  0.00000000000E+00  0.00000000000E+00  0.18250000000E+03  0.18250000000E+03  0.00000000000E+00 0.  1.
         11   -1    0    0    0    0 -0.00000000000E+00 -0.00000000000E+00 -0.18250000000E+03  0.18250000000E+03  0.00000000000E+00 0.  1.
        -11    1    1    2    0    0 -0.21511798211E+01  0.17745350540E+01  0.14307698645E+03  0.14310415997E+03  0.00000000000E+00 0.  1.
         11    1    1    2    0    0  0.47636783751E+00 -0.25912559091E+01 -0.18186512049E+03  0.18188420378E+03  0.00000000000E+00 0.  1.
        -15    1    1    2    0    0  0.63142770996E+00 -0.10532909357E+01  0.36026452982E+02  0.36091150802E+02  0.17770000000E+01 0. -1.
         15    1    1    2    0    0  0.10433842737E+01  0.18700117907E+01  0.27616810651E+01  0.39204854476E+01  0.17770000000E+01 0.  1.
</event>
<event>
 6    1  0.1298204E-002  0.1868053E+03  0.7546771E-02  0.1065079E+00
        -11   -1    0    0    0    0  0.00000000000E+00  0.00000000000E+00  0.18250000000E+03  0.18250000000E+03  0.00000000000E+00 0.  1.
         11   -1    0    0    0    0 -0.00000000000E+00 -0.00000000000E+00 -0.18250000000E+03  0.18250000000E+03  0.00000000000E+00 0. -1.
        -11    1    1    2    0    0 -0.13216805733E+01  0.22098787227E+01  0.16296162988E+03  0.16298197206E+03  0.00000000000E+00 0.  1.
         11    1    1    2    0    0 -0.42105076007E+01  0.38708443762E+01 -0.17810287060E+03  0.17819468097E+03  0.00000000000E+00 0. -1.
        -15    1    1    2    0    0  0.21431397435E+01  0.55095693474E+01  0.46487873056E+01  0.77277004838E+01  0.17770000000E+01 0. -1.
         15    1    1    2    0    0  0.33890484306E+01 -0.11590292446E+02  0.10492453407E+02  0.16095646485E+02  0.17770000000E+01 0.  1.
</event>
<event>
 6    1  0.1298204E-002  0.1864079E+03  0.7546771E-02  0.1065386E+00
        -11   -1    0    0    0    0  0.00000000000E+00  0.00000000000E+00  0.18250000000E+03  0.18250000000E+03  0.00000000000E+00 0.  1.
         11   -1    0    0    0    0 -0.00000000000E+00 -0.00000000000E+00 -0.18250000000E+03  0.18250000000E+03  0.00000000000E+00 0.  1.
        -11    1    1    2    0    0  0.24395298725E+01  0.63897862247E+00  0.17857426234E+03  0.17859206805E+03  0.00000000000E+00 0.  1.
         11    1    1    2    0    0 -0.20441816061E+01 -0.61771081013E+01 -0.15397469114E+03  0.15411210483E+03  0.00000000000E+00 0.  1.
        -15    1    1    2    0    0  0.47432859648E-01 -0.11949744906E+01 -0.25201350968E+02  0.25292212903E+02  0.17770000000E+01 0.  1.
         15    1    1    2    0    0 -0.44278112604E+00  0.67331039694E+01  0.60177976603E+00  0.70036142152E+01  0.17770000000E+01 0. -1.
</event>
<event>
 6    1  0.1298204E-002  0.1827596E+03  0.7546771E-02  0.1068248E+00
        -11   -1    0    0    0    0  0.00000000000E+00  0.00000000000E+00  0.18250000000E+03  0.18250000000E+03  0.00000000000E+00 0.  1.
         11   -1    0    0    0    0 -0.00000000000E+00 -0.00000000000E+00 -0.18250000000E+03  0.18250000000E+03  0.00000000000E+00 0.  1.
        -11    1    1    2    0    0  0.28187168677E+01 -0.98614409139E+00  0.18221588211E+03  0.18224035047E+03  0.00000000000E+00 0.  1.
         11    1    1    2    0    0 -0.59339099961E+01  0.16943435761E+01 -0.14246534599E+03  0.14259893722E+03  0.00000000000E+00 0.  1.
        -15    1    1    2    0    0  0.26454000405E+01 -0.14232188857E+01 -0.19104749084E+02  0.19420938698E+02  0.17770000000E+01 0. -1.
         15    1    1    2    0    0  0.46979308793E+00  0.71501940106E+00 -0.20645787033E+02  0.20739773613E+02  0.17770000000E+01 0.  1.
</event>
<event>
 6    1  0.1298204E-002  0.1864844E+03  0.7546771E-02  0.1065327E+00
        -11   -1    0    0    0    0  0.00000000000E+00  0.00000000000E+00  0.18250000000E+03  0.18250000000E+03  0.00000000000E+00 0.  1.
         11   -1    0    0    0    0 -0.00000000000E+00 -0.00000000000E+00 -0.18250000000E+03  0.18250000000E+03  0.00000000000E+00 0.  1.
        -11    1    1    2    0    0 -0.33238273025E+01  0.21539148564E+01  0.17466428140E+03  0.17470918229E+03  0.00000000000E+00 0.  1.
         11    1    1    2    0    0  0.56863433045E+00 -0.23827569169E+01 -0.17849876615E+03  0.17851557465E+03  0.00000000000E+00 0.  1.
        -15    1    1    2    0    0  0.35625359749E+01 -0.25400913655E+01  0.60891871744E+01  0.77058196295E+01  0.17770000000E+01 0. -1.
         15    1    1    2    0    0 -0.80734300292E+00  0.27689334260E+01 -0.22547024274E+01  0.40694234331E+01  0.17770000000E+01 0. -1.
</event>
<event>
 6    1  0.1298204E-002  0.1847776E+03  0.7546771E-02  0.1066656E+00
        -11   -1    0    0    0    0  0.00000000000E+00  0.00000000000E+00  0.18250000000E+03  0.18250000000E+03  0.00000000000E+00 0. -1.
         11   -1    0    0    0    0 -0.00000000000E+00 -0.00000000000E+00 -0.18250000000E+03  0.18250000000E+03  0.00000000000E+00 0.  1.
        -11    1    1    2    0    0  0.15558797710E+01 -0.11450999577E+02  0.17985150190E+03  0.18022238732E+03  0.00000000000E+00 0. -1.
         11    1    1    2    0    0  0.23145567441E+01  0.15491078441E+01 -0.65082252129E+02  0.65141817983E+02  0.00000000000E+00 0.  1.
        -15    1    1    2    0    0  0.15780810849E+00  0.37971300498E+01 -0.11124621936E+03  0.11132529879E+03  0.17770000000E+01 0.  1.
         15    1    1    2    0    0 -0.40282446236E+01  0.61047616835E+01 -0.35230304173E+01  0.83104959106E+01  0.17770000000E+01 0. -1.
</event>
<event>
 6    1  0.1298204E-002  0.1849161E+03  0.7546771E-02  0.1066548E+00
        -11   -1    0    0    0    0  0.00000000000E+00  0.00000000000E+00  0.18250000000E+03  0.18250000000E+03  0.00000000000E+00 0. -1.
         11   -1    0    0    0    0 -0.00000000000E+00 -0.00000000000E+00 -0.18250000000E+03  0.18250000000E+03  0.00000000000E+00 0. -1.
        -11    1    1    2    0    0 -0.44581919305E+01 -0.36022277765E+01  0.17999268991E+03  0.18008392472E+03  0.00000000000E+00 0. -1.
         11    1    1    2    0    0  0.17124012764E+01 -0.29633549011E+01 -0.17118215005E+03  0.17121636104E+03  0.00000000000E+00 0. -1.
        -15    1    1    2    0    0  0.14623109707E-01  0.52001705693E+00 -0.59998854060E+01  0.62790911332E+01  0.17770000000E+01 0. -1.
         15    1    1    2    0    0  0.27311675443E+01  0.60455656206E+01 -0.28106544538E+01  0.74206231064E+01  0.17770000000E+01 0.  1.
</event>
<event>
 6    1  0.1298204E-002  0.1988473E+03  0.7546771E-02  0.1056139E+00
        -11   -1    0    0    0    0  0.00000000000E+00  0.00000000000E+00  0.18250000000E+03  0.18250000000E+03  0.00000000000E+00 0. -1.
         11   -1    0    0    0    0 -0.00000000000E+00 -0.00000000000E+00 -0.18250000000E+03  0.18250000000E+03  0.00000000000E+00 0. -1.
        -11    1    1    2    0    0  0.23392783858E+01 -0.47005557987E+01  0.79164479781E+02  0.79338403735E+02  0.00000000000E+00 0. -1.
         11    1    1    2    0    0  0.48668943562E+01 -0.33035373191E+01 -0.16604858950E+03  0.16615274327E+03  0.00000000000E+00 0. -1.
        -15    1    1    2    0    0 -0.17018878243E+02  0.36039789027E+02  0.79347686009E+02  0.88812845995E+02  0.17770000000E+01 0. -1.
         15    1    1    2    0    0  0.98127055014E+01 -0.28035695909E+02  0.75364237144E+01  0.30696007000E+02  0.17770000000E+01 0.  1.
</event>
<event>
 6    1  0.1298204E-002  0.1915599E+03  0.7546771E-02  0.1061463E+00
        -11   -1    0    0    0    0  0.00000000000E+00  0.00000000000E+00  0.18250000000E+03  0.18250000000E+03  0.00000000000E+00 0. -1.
         11   -1    0    0    0    0 -0.00000000000E+00 -0.00000000000E+00 -0.18250000000E+03  0.18250000000E+03  0.00000000000E+00 0.  1.
        -11    1    1    2    0    0 -0.28629495845E+01 -0.80233755855E+01  0.17323077646E+03  0.17344011344E+03  0.00000000000E+00 0. -1.
         11    1    1    2    0    0 -0.69514037346E+01  0.39266179167E+01 -0.14548880532E+03  0.14570769649E+03  0.00000000000E+00 0.  1.
        -15    1    1    2    0    0 -0.16537472382E+01 -0.11812333690E+02 -0.22414026834E+02  0.25452159733E+02  0.17770000000E+01 0. -1.
         15    1    1    2    0    0  0.11468100557E+02  0.15909091358E+02 -0.53279443047E+01  0.20400030337E+02  0.17770000000E+01 0.  1.
</event>
<event>
 6    1  0.1298204E-002  0.1851015E+03  0.7546771E-02  0.1066403E+00
        -11   -1    0    0    0    0  0.00000000000E+00  0.00000000000E+00  0.18250000000E+03  0.18250000000E+03  0.00000000000E+00 0. -1.
         11   -1    0    0    0    0 -0.00000000000E+00 -0.00000000000E+00 -0.18250000000E+03  0.18250000000E+03  0.00000000000E+00 0. -1.
        -11    1    1    2    0    0 -0.93977789648E+01  0.53707524452E+01  0.17957260139E+03  0.17989853363E+03  0.00000000000E+00 0. -1.
         11    1    1    2    0    0  0.56061773250E+01 -0.56315235323E+01 -0.13649915306E+03  0.13673025294E+03  0.00000000000E+00 0. -1.
        -15    1    1    2    0    0 -0.75898281293E+01  0.43835116292E+01 -0.24951707852E+02  0.26505963838E+02  0.17770000000E+01 0. -1.
         15    1    1    2    0    0  0.11381429769E+02 -0.41227405420E+01 -0.18121740473E+02  0.21865249597E+02  0.17770000000E+01 0.  1.
</event>
<event>
 6    1  0.1298204E-002  0.1826361E+03  0.7546771E-02  0.1068347E+00
        -11   -1    0    0    0    0  0.00000000000E+00  0.00000000000E+00  0.18250000000E+03  0.18250000000E+03  0.00000000000E+00 0. -1.
         11   -1    0    0    0    0 -0.00000000000E+00 -0.00000000000E+00 -0.18250000000E+03  0.18250000000E+03  0.00000000000E+00 0. -1.
        -11    1    1    2    0    0 -0.10159047400E+01  0.24630623511E+01  0.30552071655E+02  0.30668026037E+02  0.00000000000E+00 0. -1.
         11    1    1    2    0    0 -0.50975236691E+00 -0.36787427230E+01 -0.18232611901E+03  0.18236394016E+03  0.00000000000E+00 0. -1.
        -15    1    1    2    0    0  0.38413686807E+00  0.32674214049E+01  0.45560930143E+02  0.45714108197E+02  0.17770000000E+01 0. -1.
         15    1    1    2    0    0  0.11415202388E+01 -0.20517410330E+01  0.10621311722E+03  0.10625392561E+03  0.17770000000E+01 0. -1.
</event>
<event>
 6    1  0.1298204E-002  0.1827080E+03  0.7546771E-02  0.1068289E+00
        -11   -1    0    0    0    0  0.00000000000E+00  0.00000000000E+00  0.18250000000E+03  0.18250000000E+03  0.00000000000E+00 0.  1.
         11   -1    0    0    0    0 -0.00000000000E+00 -0.00000000000E+00 -0.18250000000E+03  0.18250000000E+03  0.00000000000E+00 0.  1.
        -11    1    1    2    0    0  0.31860181554E+01  0.73986631351E+00  0.18226266464E+03  0.18229201034E+03  0.00000000000E+00 0.  1.
         11    1    1    2    0    0 -0.84920131135E+00  0.25489644773E+01 -0.11339816179E+03  0.11342998484E+03  0.00000000000E+00 0.  1.
        -15    1    1    2    0    0 -0.18722041744E+00 -0.36777739500E+01 -0.53614359253E+02  0.53770050398E+02  0.17770000000E+01 0. -1.
         15    1    1    2    0    0 -0.21495964266E+01  0.38894315928E+00 -0.15250143593E+02  0.15507954417E+02  0.17770000000E+01 0.  1.
</event>
<event>
 6    1  0.1298204E-002  0.1848952E+03  0.7546771E-02  0.1066564E+00
        -11   -1    0    0    0    0  0.00000000000E+00  0.00000000000E+00  0.18250000000E+03  0.18250000000E+03  0.00000000000E+00 0. -1.
         11   -1    0    0    0    0 -0.00000000000E+00 -0.00000000000E+00 -0.18250000000E+03  0.18250000000E+03  0.00000000000E+00 0. -1.
        -11    1    1    2    0    0  0.38498969657E+00 -0.26238167516E+01  0.18008530748E+03  0.18010483226E+03  0.00000000000E+00 0. -1.
         11    1    1    2    0    0 -0.85939502826E+01 -0.42999942570E+01 -0.14272757421E+03  0.14305071258E+03  0.00000000000E+00 0. -1.
        -15    1    1    2    0    0 -0.10011925534E+01  0.41879644713E+00  0.63268132297E+00  0.21761874114E+01  0.17770000000E+01 0.  1.
         15    1    1    2    0    0  0.92101531394E+01  0.65050145615E+01 -0.37990414603E+02  0.39668267746E+02  0.17770000000E+01 0. -1.
</event>
<event>
 6    1  0.1298204E-002  0.1931088E+03  0.7546771E-02  0.1060310E+00
        -11   -1    0    0    0    0  0.00000000000E+00  0.00000000000E+00  0.18250000000E+03  0.18250000000E+03  0.00000000000E+00 0.  1.
         11   -1    0    0    0    0 -0.00000000000E+00 -0.00000000000E+00 -0.18250000000E+03  0.18250000000E+03  0.00000000000E+00 0.  1.
        -11    1    1    2    0    0 -0.85719447785E+01  0.18563598831E+02  0.17067069342E+03  0.17189116043E+03  0.00000000000E+00 0.  1.
         11    1    1    2    0    0 -0.11668090733E+01 -0.10386793377E+01 -0.11246546822E+03  0.11247631680E+03  0.00000000000E+00 0.  1.
        -15    1    1    2    0    0  0.10176743477E+01  0.14743005820E+01 -0.59555117362E+02  0.59608547678E+02  0.17770000000E+01 0. -1.
         15    1    1    2    0    0  0.87210795041E+01 -0.18999220075E+02  0.13498921569E+01  0.21023975100E+02  0.17770000000E+01 0. -1.
</event>
<event>
 6    1  0.1298204E-002  0.1911045E+03  0.7546771E-02  0.1061805E+00
        -11   -1    0    0    0    0  0.00000000000E+00  0.00000000000E+00  0.18250000000E+03  0.18250000000E+03  0.00000000000E+00 0. -1.
         11   -1    0    0    0    0 -0.00000000000E+00 -0.00000000000E+00 -0.18250000000E+03  0.18250000000E+03  0.00000000000E+00 0.  1.
        -11    1    1    2    0    0  0.41739679013E+01 -0.26341155176E+01  0.14887558813E+03  0.14895738086E+03  0.00000000000E+00 0. -1.
         11    1    1    2    0    0  0.16483511885E+01 -0.21527468500E+01 -0.17387440616E+03  0.17389554479E+03  0.00000000000E+00 0.  1.
        -15    1    1    2    0    0 -0.23267943555E+01 -0.16691803108E+01 -0.77961740109E+01  0.84934205766E+01  0.17770000000E+01 0. -1.
         15    1    1    2    0    0 -0.34955247343E+01  0.64560426784E+01  0.32794992044E+02  0.33653653775E+02  0.17770000000E+01 0. -1.
</event>
<event>
 6    1  0.1298204E-002  0.1840444E+03  0.7546771E-02  0.1067232E+00
        -11   -1    0    0    0    0  0.00000000000E+00  0.00000000000E+00  0.18250000000E+03  0.18250000000E+03  0.00000000000E+00 0.  1.
         11   -1    0    0    0    0 -0.00000000000E+00 -0.00000000000E+00 -0.18250000000E+03  0.18250000000E+03  0.00000000000E+00 0.  1.
        -11    1    1    2    0    0 -0.30468426831E+01  0.44520533751E+01  0.18087520805E+03  0.18095564350E+03  0.00000000000E+00 0.  1.
         11    1    1    2    0    0  0.55110889005E+01  0.12679463069E+01 -0.16816754949E+03  0.16826260573E+03  0.00000000000E+00 0.  1.
        -15    1    1    2    0    0 -0.25834727119E+01 -0.63106981430E+01 -0.11683395654E+02  0.13643998875E+02  0.17770000000E+01 0. -1.
         15    1    1    2    0    0  0.11922649443E+00  0.59069846100E+00 -0.10242629076E+01  0.21377518875E+01  0.17770000000E+01 0. -1.
</event>
<event>
 6    1  0.1298204E-002  0.1551081E+03  0.7546771E-02  0.1092625E+00
        -11   -1    0    0    0    0  0.00000000000E+00  0.00000000000E+00  0.18250000000E+03  0.18250000000E+03  0.00000000000E+00 0.  1.
         11   -1    0    0    0    0 -0.00000000000E+00 -0.00000000000E+00 -0.18250000000E+03  0.18250000000E+03  0.00000000000E+00 0.  1.
        -11    1    1    2    0    0  0.14746277279E+02  0.89740146398E+01  0.15341553796E+03  0.15438365496E+03  0.00000000000E+00 0.  1.
         11    1    1    2    0    0  0.51741681201E+01 -0.11870785505E+02 -0.24502589517E+02  0.27713975848E+02  0.00000000000E+00 0.  1.
        -15    1    1    2    0    0 -0.31627081045E+00 -0.53078916400E+01  0.25964846394E+02  0.26563221155E+02  0.17770000000E+01 0. -1.
         15    1    1    2    0    0 -0.19604174589E+02  0.82046625054E+01 -0.15487779483E+03  0.15633914804E+03  0.17770000000E+01 0.  1.
</event>
<event>
 6    1  0.1298204E-002  0.1837825E+03  0.7546771E-02  0.1067438E+00
        -11   -1    0    0    0    0  0.00000000000E+00  0.00000000000E+00  0.18250000000E+03  0.18250000000E+03  0.00000000000E+00 0. -1.
         11   -1    0    0    0    0 -0.00000000000E+00 -0.00000000000E+00 -0.18250000000E+03  0.18250000000E+03  0.00000000000E+00 0.  1.
        -11    1    1    2    0    0  0.33964750103E+01 -0.34643614549E+01  0.18115252656E+03  0.18121748183E+03  0.00000000000E+00 0. -1.
         11    1    1    2    0    0 -0.33500540491E+01  0.12789959327E+01 -0.16757404512E+03  0.16761240792E+03  0.00000000000E+00 0.  1.
        -15    1    1    2    0    0  0.16079466464E+01 -0.19625339826E+00 -0.12306229733E+02  0.12538940428E+02  0.17770000000E+01 0.  1.
         15    1    1    2    0    0 -0.16543676076E+01  0.23816189204E+01 -0.12722517079E+01  0.36311698213E+01  0.17770000000E+01 0. -1.
</event>
<event>
 6    1  0.1298204E-002  0.1951655E+03  0.7546771E-02  0.1058797E+00
        -11   -1    0    0    0    0  0.00000000000E+00  0.00000000000E+00  0.18250000000E+03  0.18250000000E+03  0.00000000000E+00 0.  1.
         11   -1    0    0    0    0 -0.00000000000E+00 -0.00000000000E+00 -0.18250000000E+03  0.18250000000E+03  0.00000000000E+00 0. -1.
        -11    1    1    2    0    0  0.29948490200E+01 -0.27148659858E+01  0.15364760875E+03  0.15370077194E+03  0.00000000000E+00 0.  1.
         11    1    1    2    0    0  0.33202525606E+01  0.45762177051E+01 -0.16974040471E+03  0.16983453959E+03  0.00000000000E+00 0. -1.
        -15    1    1    2    0    0 -0.14739260597E+02  0.11900004129E+02  0.61641607182E+00  0.19036638332E+02  0.17770000000E+01 0.  1.
         15    1    1    2    0    0  0.84241590162E+01 -0.13761355848E+02  0.15476379885E+02  0.22428050144E+02  0.17770000000E+01 0. -1.
</event>
<event>
 6    1  0.1298204E-002  0.1834300E+03  0.7546771E-02  0.1067717E+00
        -11   -1    0    0    0    0  0.00000000000E+00  0.00000000000E+00  0.18250000000E+03  0.18250000000E+03  0.00000000000E+00 0. -1.
         11   -1    0    0    0    0 -0.00000000000E+00 -0.00000000000E+00 -0.18250000000E+03  0.18250000000E+03  0.00000000000E+00 0. -1.
        -11    1    1    2    0    0  0.31169091067E+01  0.60778058526E+01  0.18144144810E+03  0.18156996980E+03  0.00000000000E+00 0. -1.
         11    1    1    2    0    0  0.94276453059E+00  0.93294372975E+00 -0.55610098171E+02  0.55625913094E+02  0.00000000000E+00 0. -1.
        -15    1    1    2    0    0 -0.10760865104E+02 -0.80311403972E+01 -0.10393423003E+03  0.10481305899E+03  0.17770000000E+01 0. -1.
         15    1    1    2    0    0  0.67011914667E+01  0.10203908148E+01 -0.21897119897E+02  0.22991058116E+02  0.17770000000E+01 0.  1.
</event>
<event>
 6    1  0.1298204E-002  0.1832370E+03  0.7546771E-02  0.1067870E+00
        -11   -1    0    0    0    0  0.00000000000E+00  0.00000000000E+00  0.18250000000E+03  0.18250000000E+03  0.00000000000E+00 0. -1.
         11   -1    0    0    0    0 -0.00000000000E+00 -0.00000000000E+00 -0.18250000000E+03  0.18250000000E+03  0.00000000000E+00 0.  1.
        -11    1    1    2    0    0  0.47922920914E+01 -0.51122502979E+00  0.13052997941E+03  0.13061892260E+03  0.00000000000E+00 0. -1.
         11    1    1    2    0    0 -0.48190053362E+01 -0.39010380987E+01 -0.18165718904E+03  0.18176296443E+03  0.00000000000E+00 0.  1.
        -15    1    1    2    0    0  0.47529486845E+01 -0.79040386710E+00  0.23588121712E+02  0.24140680902E+02  0.17770000000E+01 0.  1.
         15    1    1    2    0    0 -0.47262354397E+01  0.52026669956E+01  0.27539087911E+02  0.28477432069E+02  0.17770000000E+01 0. -1.
</event>
<event>
 6    1  0.1298204E-002  0.1831233E+03  0.7546771E-02  0.1067960E+00
        -11   -1    0    0    0    0  0.00000000000E+00  0.00000000000E+00  0.18250000000E+03  0.18250000000E+03  0.00000000000E+00 0. -1.
         11   -1    0    0    0    0 -0.00000000000E+00 -0.00000000000E+00 -0.18250000000E+03  0.18250000000E+03  0.00000000000E+00 0. -1.
        -11    1    1    2    0    0  0.78150899194E+01 -0.10783014914E+01  0.18170547794E+03  0.18187665897E+03  0.00000000000E+00 0. -1.
         11    1    1    2    0    0  0.23068062890E+01 -0.14002365407E+01 -0.25461347756E+02  0.25603949836E+02  0.00000000000E+00 0. -1.
        -15    1    1    2    0    0  0.13061432409E+01 -0.54040572146E+01 -0.37162716740E+02  0.37618281315E+02  0.17770000000E+01 0.  1.
         15    1    1    2    0    0 -0.11428039449E+02  0.78825952466E+01 -0.11908141344E+03  0.11990110988E+03  0.17770000000E+01 0. -1.
</event>
<event>
 6    1  0.1298204E-002  0.1825832E+03  0.7546771E-02  0.1068389E+00
        -11   -1    0    0    0    0  0.00000000000E+00  0.00000000000E+00  0.18250000000E+03  0.18250000000E+03  0.00000000000E+00 0. -1.
         11   -1    0    0    0    0 -0.00000000000E+00 -0.00000000000E+00 -0.18250000000E+03  0.18250000000E+03  0.00000000000E+00 0. -1.
        -11    1    1    2    0    0  0.12498232340E+01  0.43313336931E-01  0.33320904337E+02  0.33344363841E+02  0.00000000000E+00 0. -1.
         11    1    1    2    0    0  0.25157392549E+01 -0.32921089260E+00 -0.18239918266E+03  0.18241682805E+03  0.00000000000E+00 0. -1.
        -15    1    1    2    0    0 -0.17420714790E+01 -0.95542252535E+00  0.28577209359E+02  0.28701259014E+02  0.17770000000E+01 0.  1.
         15    1    1    2    0    0 -0.20234910099E+01  0.12413200810E+01  0.12050106896E+03  0.12053754909E+03  0.17770000000E+01 0. -1.
</event>
<event>
 6    1  0.1298204E-002  0.1651092E+03  0.7546771E-02  0.1083208E+00
        -11   -1    0    0    0    0  0.00000000000E+00  0.00000000000E+00  0.18250000000E+03  0.18250000000E+03  0.00000000000E+00 0.  1.
         11   -1    0    0    0    0 -0.00000000000E+00 -0.00000000000E+00 -0.18250000000E+03  0.18250000000E+03  0.00000000000E+00 0. -1.
        -11    1    1    2    0    0 -0.36905529308E+00  0.37043141041E+01  0.17040979810E+03  0.17045045449E+03  0.00000000000E+00 0.  1.
         11    1    1    2    0    0 -0.96148694505E+01  0.81782629976E+01 -0.15980469283E+03  0.16030243152E+03  0.00000000000E+00 0. -1.
        -15    1    1    2    0    0 -0.14920933649E+01 -0.20774012150E+01  0.89521875012E+01  0.94784665677E+01  0.17770000000E+01 0.  1.
         15    1    1    2    0    0  0.11476018109E+02 -0.98051758866E+01 -0.19557292773E+02  0.24768647428E+02  0.17770000000E+01 0.  1.
</event>
<event>
 6    1  0.1298204E-002  0.1832204E+03  0.7546771E-02  0.1067883E+00
        -11   -1    0    0    0    0  0.00000000000E+00  0.00000000000E+00  0.18250000000E+03  0.18250000000E+03  0.00000000000E+00 0.  1.
         11   -1    0    0    0    0 -0.00000000000E+00 -0.00000000000E+00 -0.18250000000E+03  0.18250000000E+03  0.00000000000E+00 0. -1.
        -11    1    1    2    0    0 -0.19588075837E+01  0.33717549488E+01  0.81554054927E+02  0.81647226124E+02  0.00000000000E+00 0.  1.
         11    1    1    2    0    0  0.22743373423E+01  0.47311877168E+01 -0.18170383351E+03  0.18177964644E+03  0.00000000000E+00 0. -1.
        -15    1    1    2    0    0 -0.23937114977E+01 -0.96769439921E+01  0.94968947156E+02  0.95507234033E+02  0.17770000000E+01 0.  1.
         15    1    1    2    0    0  0.20781817391E+01  0.15740013265E+01  0.51808314262E+01  0.60658934036E+01  0.17770000000E+01 0.  1.
</event>
<event>
 6    1  0.1298204E-002  0.1825772E+03  0.7546771E-02  0.1068393E+00
        -11   -1    0    0    0    0  0.00000000000E+00  0.00000000000E+00  0.18250000000E+03  0.18250000000E+03  0.00000000000E+00 0.  1.
         11   -1    0    0    0    0 -0.00000000000E+00 -0.00000000000E+00 -0.18250000000E+03  0.18250000000E+03  0.00000000000E+00 0. -1.
        -11    1    1    2    0    0 -0.42404112211E+00  0.81720716378E+00  0.18992608724E+02  0.19014910585E+02  0.00000000000E+00 0.  1.
         11    1    1    2    0    0 -0.57601445452E+00 -0.44373871619E+01 -0.18236794521E+03  0.18242283201E+03  0.00000000000E+00 0. -1.
        -15    1    1    2    0    0  0.15104490644E+00  0.49753157134E+01  0.96999870211E+02  0.97143754976E+02  0.17770000000E+01 0.  1.
         15    1    1    2    0    0  0.84901067020E+00 -0.13551357153E+01  0.66375466279E+02  0.66418502427E+02  0.17770000000E+01 0.  1.
</event>
<event>
 6    1  0.1298204E-002  0.1974071E+03  0.7546771E-02  0.1057171E+00
        -11   -1    0    0    0    0  0.00000000000E+00  0.00000000000E+00  0.18250000000E+03  0.18250000000E+03  0.00000000000E+00 0. -1.
         11   -1    0    0    0    0 -0.00000000000E+00 -0.00000000000E+00 -0.18250000000E+03  0.18250000000E+03  0.00000000000E+00 0. -1.
        -11    1    1    2    0    0  0.28740757732E+01 -0.73557035734E+00  0.14461726834E+03  0.14464769503E+03  0.00000000000E+00 0. -1.
         11    1    1    2    0    0  0.27283328229E+01  0.60695340346E+00 -0.16756957335E+03  0.16759288202E+03  0.00000000000E+00 0. -1.
        -15    1    1    2    0    0 -0.17992363693E+02 -0.11734382659E+02 -0.28322644574E+01  0.21739373004E+02  0.17770000000E+01 0. -1.
         15    1    1    2    0    0  0.12389955097E+02  0.11862999612E+02  0.25784569464E+02  0.31020049944E+02  0.17770000000E+01 0.  1.
</event>
<event>
 6    1  0.1298204E-002  0.1835385E+03  0.7546771E-02  0.1067631E+00
        -11   -1    0    0    0    0  0.00000000000E+00  0.00000000000E+00  0.18250000000E+03  0.18250000000E+03  0.00000000000E+00 0. -1.
         11   -1    0    0    0    0 -0.00000000000E+00 -0.00000000000E+00 -0.18250000000E+03  0.18250000000E+03  0.00000000000E+00 0.  1.
        -11    1    1    2    0    0  0.19100616305E+01  0.89835886505E+00  0.15488677937E+03  0.15490116142E+03  0.00000000000E+00 0. -1.
         11    1    1    2    0    0 -0.34937576758E+01  0.13852136524E+01 -0.18142253680E+03  0.18146146153E+03  0.00000000000E+00 0.  1.
        -15    1    1    2    0    0  0.31613451658E+01 -0.46243519531E+01  0.87421740219E+01  0.10533853515E+02  0.17770000000E+01 0. -1.
         15    1    1    2    0    0 -0.15776491205E+01  0.23407794356E+01  0.17793583406E+02  0.18103523539E+02  0.17770000000E+01 0. -1.
</event>
<event>
 6    1  0.1298204E-002  0.1858346E+03  0.7546771E-02  0.1065831E+00
        -11   -1    0    0    0    0  0.00000000000E+00  0.00000000000E+00  0.18250000000E+03  0.18250000000E+03  0.00000000000E+00 0.  1.
         11   -1    0    0    0    0 -0.00000000000E+00 -0.00000000000E+00 -0.18250000000E+03  0.18250000000E+03  0.00000000000E+00 0.  1.
        -11    1    1    2    0    0  0.15621239642E+01 -0.86808238954E+01  0.77828993497E+02  0.78327193002E+02  0.00000000000E+00 0.  1.
         11    1    1    2    0    0 -0.33168059051E+02  0.31167820395E+02 -0.17328782773E+03  0.17916535494E+03  0.00000000000E+00 0.  1.
        -15    1    1    2    0    0  0.36365731012E+02 -0.22274096204E+02  0.91816884314E+02  0.10125265294E+03  0.17770000000E+01 0.  1.
         15    1    1    2    0    0 -0.47597959255E+01 -0.21290029543E+00  0.36419499205E+01  0.62547991184E+01  0.17770000000E+01 0. -1.
</event>
<event>
 6    1  0.1298204E-002  0.1853319E+03  0.7546771E-02  0.1066223E+00
        -11   -1    0    0    0    0  0.00000000000E+00  0.00000000000E+00  0.18250000000E+03  0.18250000000E+03  0.00000000000E+00 0.  1.
         11   -1    0    0    0    0 -0.00000000000E+00 -0.00000000000E+00 -0.18250000000E+03  0.18250000000E+03  0.00000000000E+00 0.  1.
        -11    1    1    2    0    0  0.11602313823E+02  0.27446857857E+02  0.17717982639E+03  0.17966812342E+03  0.00000000000E+00 0.  1.
         11    1    1    2    0    0  0.33169902850E+00 -0.23967835229E+01 -0.40657409205E+02  0.40729344688E+02  0.00000000000E+00 0.  1.
        -15    1    1    2    0    0 -0.38525472232E+01 -0.96628045014E+01 -0.45728138479E+01  0.11501315856E+02  0.17770000000E+01 0. -1.
         15    1    1    2    0    0 -0.80814656279E+01 -0.15387269833E+02 -0.13194960334E+03  0.13310121604E+03  0.17770000000E+01 0.  1.
</event>
<event>
 6    1  0.1298204E-002  0.1827246E+03  0.7546771E-02  0.1068276E+00
        -11   -1    0    0    0    0  0.00000000000E+00  0.00000000000E+00  0.18250000000E+03  0.18250000000E+03  0.00000000000E+00 0.  1.
         11   -1    0    0    0    0 -0.00000000000E+00 -0.00000000000E+00 -0.18250000000E+03  0.18250000000E+03  0.00000000000E+00 0.  1.
        -11    1    1    2    0    0  0.38857860059E+01 -0.92387157378E+00  0.18223165453E+03  0.18227542013E+03  0.00000000000E+00 0.  1.
         11    1    1    2    0    0 -0.22486931546E+01  0.48835892985E+00 -0.93401627472E+02  0.93429969120E+02  0.00000000000E+00 0.  1.
        -15    1    1    2    0    0  0.10015392386E+01  0.49883222458E+00 -0.77440999128E+02  0.77469464884E+02  0.17770000000E+01 0. -1.
         15    1    1    2    0    0 -0.26386320899E+01 -0.63319580649E-01 -0.11389027926E+02  0.11825145867E+02  0.17770000000E+01 0.  1.
</event>
<event>
 6    1  0.1298204E-002  0.1830208E+03  0.7546771E-02  0.1068041E+00
        -11   -1    0    0    0    0  0.00000000000E+00  0.00000000000E+00  0.18250000000E+03  0.18250000000E+03  0.00000000000E+00 0. -1.
         11   -1    0    0    0    0 -0.00000000000E+00 -0.00000000000E+00 -0.18250000000E+03  0.18250000000E+03  0.00000000000E+00 0.  1.
        -11    1    1    2    0    0 -0.23311077150E+01 -0.15068337566E+01  0.13837913146E+03  0.13840696743E+03  0.00000000000E+00 0. -1.
         11    1    1    2    0    0 -0.16935246959E+01  0.99066986216E+01 -0.18170149425E+03  0.18197923980E+03  0.00000000000E+00 0.  1.
        -15    1    1    2    0    0  0.22508578253E+01 -0.71736087594E+01  0.34714547479E+02  0.35563809685E+02  0.17770000000E+01 0. -1.
         15    1    1    2    0    0  0.17737745856E+01 -0.12262561056E+01  0.86078153149E+01  0.90499830835E+01  0.17770000000E+01 0.  1.
</event>
<event>
 6    1  0.1298204E-002  0.1951611E+03  0.7546771E-02  0.1058801E+00
        -11   -1    0    0    0    0  0.00000000000E+00  0.00000000000E+00  0.18250000000E+03  0.18250000000E+03  0.00000000000E+00 0.  1.
         11   -1    0    0    0    0 -0.00000000000E+00 -0.00000000000E+00 -0.18250000000E+03  0.18250000000E+03  0.00000000000E+00 0. -1.
        -11    1    1    2    0    0  0.55185153144E+01 -0.27103896546E+01  0.15464374607E+03  0.15476591492E+03  0.00000000000E+00 0.  1.
         11    1    1    2    0    0 -0.64301497358E+01  0.10428172857E+02 -0.16939650088E+03  0.16983894761E+03  0.00000000000E+00 0. -1.
        -15    1    1    2    0    0  0.12245061888E+02 -0.13558718955E+02  0.19401021685E+02  0.26708383923E+02  0.17770000000E+01 0. -1.
         15    1    1    2    0    0 -0.11333427467E+02  0.58409357526E+01 -0.46482668774E+01  0.13686753544E+02  0.17770000000E+01 0.  1.
</event>
<event>
 6    1  0.1298204E-002  0.1842697E+03  0.7546771E-02  0.1067055E+00
        -11   -1    0    0    0    0  0.00000000000E+00  0.00000000000E+00  0.18250000000E+03  0.18250000000E+03  0.00000000000E+00 0.  1.
         11   -1    0    0    0    0 -0.00000000000E+00 -0.00000000000E+00 -0.18250000000E+03  0.18250000000E+03  0.00000000000E+00 0.  1.
        -11    1    1    2    0    0  0.15345322954E+01  0.17063608773E+01  0.91348346392E+02  0.91377168074E+02  0.00000000000E+00 0.  1.
         11    1    1    2    0    0  0.90816002610E+01 -0.32390142604E+01 -0.18047292287E+03  0.18073030339E+03  0.00000000000E+00 0.  1.
        -15    1    1    2    0    0 -0.16157151345E+02  0.17456714197E+01  0.37088343056E+02  0.40531516477E+02  0.17770000000E+01 0. -1.
         15    1    1    2    0    0  0.55410187891E+01 -0.21301803649E+00  0.52036233419E+02  0.52361012054E+02  0.17770000000E+01 0.  1.
</event>
<event>
 6    1  0.1298204E-002  0.1830409E+03  0.7546771E-02  0.1068025E+00
        -11   -1    0    0    0    0  0.00000000000E+00  0.00000000000E+00  0.18250000000E+03  0.18250000000E+03  0.00000000000E+00 0. -1.
         11   -1    0    0    0    0 -0.00000000000E+00 -0.00000000000E+00 -0.18250000000E+03  0.18250000000E+03  0.00000000000E+00 0. -1.
        -11    1    1    2    0    0  0.23002607653E+00 -0.50070931073E+01  0.18189000737E+03  0.18195905768E+03  0.00000000000E+00 0. -1.
         11    1    1    2    0    0 -0.19850498013E+01  0.26564696095E+01 -0.77407305205E+02  0.77478307626E+02  0.00000000000E+00 0. -1.
        -15    1    1    2    0    0  0.50940080562E+01 -0.30537458401E+01 -0.78899664671E+02  0.79142839827E+02  0.17770000000E+01 0. -1.
         15    1    1    2    0    0 -0.33389843314E+01  0.54043693379E+01 -0.25583037491E+02  0.26419794862E+02  0.17770000000E+01 0.  1.
</event>
<event>
 6    1  0.1298204E-002  0.1828090E+03  0.7546771E-02  0.1068209E+00
        -11   -1    0    0    0    0  0.00000000000E+00  0.00000000000E+00  0.18250000000E+03  0.18250000000E+03  0.00000000000E+00 0.  1.
         11   -1    0    0    0    0 -0.00000000000E+00 -0.00000000000E+00 -0.18250000000E+03  0.18250000000E+03  0.00000000000E+00 0.  1.
        -11    1    1    2    0    0 -0.12858986066E+01  0.29147574005E+01  0.13586216712E+03  0.13589951362E+03  0.00000000000E+00 0.  1.
         11    1    1    2    0    0  0.23018912723E+01 -0.32782783027E+01 -0.18214692645E+03  0.18219096747E+03  0.00000000000E+00 0.  1.
        -15    1    1    2    0    0 -0.15848673820E+01  0.31607876034E+01  0.18267978222E+02  0.18691686393E+02  0.17770000000E+01 0.  1.
         15    1    1    2    0    0  0.56887471637E+00 -0.27972667013E+01  0.28016781108E+02  0.28217832520E+02  0.17770000000E+01 0.  1.
</event>
<event>
 6    1  0.1298204E-002  0.1829955E+03  0.7546771E-02  0.1068061E+00
        -11   -1    0    0    0    0  0.00000000000E+00  0.00000000000E+00  0.18250000000E+03  0.18250000000E+03  0.00000000000E+00 0.  1.
         11   -1    0    0    0    0 -0.00000000000E+00 -0.00000000000E+00 -0.18250000000E+03  0.18250000000E+03  0.00000000000E+00 0. -1.
        -11    1    1    2    0    0  0.55811865310E+00 -0.58931151872E+01  0.18190820343E+03  0.18200449109E+03  0.00000000000E+00 0.  1.
         11    1    1    2    0    0 -0.97784031555E+00  0.42727498257E+01 -0.15760300867E+03  0.15766394929E+03  0.00000000000E+00 0. -1.
        -15    1    1    2    0    0  0.10367574055E+01  0.32034205371E+00 -0.19274722862E+01  0.28373162254E+01  0.17770000000E+01 0.  1.
         15    1    1    2    0    0 -0.61703574307E+00  0.13000233078E+01 -0.22377722476E+02  0.22494243395E+02  0.17770000000E+01 0. -1.
</event>
<event>
 6    1  0.1298204E-002  0.1848963E+03  0.7546771E-02  0.1066563E+00
        -11   -1    0    0    0    0  0.00000000000E+00  0.00000000000E+00  0.18250000000E+03  0.18250000000E+03  0.00000000000E+00 0. -1.
         11   -1    0    0    0    0 -0.00000000000E+00 -0.00000000000E+00 -0.18250000000E+03  0.18250000000E+03  0.00000000000E+00 0. -1.
        -11    1    1    2    0    0  0.19393012312E+01 -0.40981549817E+01  0.18004661054E+03  0.18010368605E+03  0.00000000000E+00 0. -1.
         11    1    1    2    0    0 -0.41250852786E+01  0.35219670753E+01 -0.16524631655E+03  0.16533531297E+03  0.00000000000E+00 0. -1.
        -15    1    1    2    0    0  0.19942740829E+01  0.57385640280E+01 -0.40850719988E+01  0.75335110312E+01  0.17770000000E+01 0. -1.
         15    1    1    2    0    0  0.19150996446E+00 -0.51623761216E+01 -0.10715221989E+02  0.12027489952E+02  0.17770000000E+01 0.  1.
</event>
<event>
 6    1  0.1298204E-002  0.1868252E+03  0.7546771E-02  0.1065063E+00
        -11   -1    0    0    0    0  0.00000000000E+00  0.00000000000E+00  0.18250000000E+03  0.18250000000E+03  0.00000000000E+00 0.  1.
         11   -1    0    0    0    0 -0.00000000000E+00 -0.00000000000E+00 -0.18250000000E+03  0.18250000000E+03  0.00000000000E+00 0. -1.
        -11    1    1    2    0    0 -0.41119827639E+01 -0.49476284317E+01  0.17805862896E+03  0.17817480961E+03  0.00000000000E+00 0.  1.
         11    1    1    2    0    0 -0.37102569877E+01  0.95921910226E+00 -0.16648348067E+03  0.16652758163E+03  0.00000000000E+00 0. -1.
        -15    1    1    2    0    0  0.63907250898E+00 -0.34606212654E+01  0.84721438618E+00  0.40323460207E+01  0.17770000000E+01 0. -1.
         15    1    1    2    0    0  0.71831672425E+01  0.74490305949E+01 -0.12422362679E+02  0.16265262739E+02  0.17770000000E+01 0.  1.
</event>
<event>
 6    1  0.1298204E-002  0.1834530E+03  0.7546771E-02  0.1067699E+00
        -11   -1    0    0    0    0  0.00000000000E+00  0.00000000000E+00  0.18250000000E+03  0.18250000000E+03  0.00000000000E+00 0. -1.
         11   -1    0    0    0    0 -0.00000000000E+00 -0.00000000000E+00 -0.18250000000E+03  0.18250000000E+03  0.00000000000E+00 0. -1.
        -11    1    1    2    0    0 -0.35137203675E+00  0.74569543211E+00  0.28709685223E+02  0.28721517188E+02  0.00000000000E+00 0. -1.
         11    1    1    2    0    0 -0.40831937820E+01 -0.10029460374E+02 -0.18122379024E+03  0.18154703164E+03  0.00000000000E+00 0. -1.
        -15    1    1    2    0    0  0.56399045469E+01 -0.44746189771E+01  0.10384609474E+03  0.10411051753E+03  0.17770000000E+01 0. -1.
         15    1    1    2    0    0 -0.12053387281E+01  0.13758383919E+02  0.48668010279E+02  0.50620933645E+02  0.17770000000E+01 0.  1.
</event>
<event>
 6    1  0.1298204E-002  0.1831559E+03  0.7546771E-02  0.1067934E+00
        -11   -1    0    0    0    0  0.00000000000E+00  0.00000000000E+00  0.18250000000E+03  0.18250000000E+03  0.00000000000E+00 0. -1.
         11   -1    0    0    0    0 -0.00000000000E+00 -0.00000000000E+00 -0.18250000000E+03  0.18250000000E+03  0.00000000000E+00 0. -1.
        -11    1    1    2    0    0  0.27190240447E+01 -0.23686177763E+01  0.13121252058E+03  0.13126206230E+03  0.00000000000E+00 0. -1.
         11    1    1    2    0    0  0.30099839936E+01 -0.65185758859E+01 -0.18170227942E+03  0.18184408206E+03  0.00000000000E+00 0. -1.
        -15    1    1    2    0    0 -0.59022097171E+01  0.76065932757E+01  0.40849986417E+02  0.42006850156E+02  0.17770000000E+01 0.  1.
         15    1    1    2    0    0  0.17320167885E+00  0.12806003864E+01  0.96397724177E+01  0.98870054837E+01  0.17770000000E+01 0. -1.
</event>
<event>
 6    1  0.1298204E-002  0.1643958E+03  0.7546771E-02  0.1083855E+00
        -11   -1    0    0    0    0  0.00000000000E+00  0.00000000000E+00  0.18250000000E+03  0.18250000000E+03  0.00000000000E+00 0.  1.
         11   -1    0    0    0    0 -0.00000000000E+00 -0.00000000000E+00 -0.18250000000E+03  0.18250000000E+03  0.00000000000E+00 0. -1.
        -11    1    1    2    0    0 -0.68975643233E+01 -0.60029364167E+01  0.16763732417E+02  0.19095401639E+02  0.00000000000E+00 0.  1.
         11    1    1    2    0    0 -0.51836207625E+00 -0.31421572232E+01 -0.16605589862E+03  0.16608643327E+03  0.00000000000E+00 0. -1.
        -15    1    1    2    0    0 -0.22121028956E+00  0.10389808253E+02 -0.13333875572E+02  0.16998441584E+02  0.17770000000E+01 0. -1.
         15    1    1    2    0    0  0.76371366891E+01 -0.12447146136E+01  0.16262604177E+03  0.16281972351E+03  0.17770000000E+01 0.  1.
</event>
<event>
 6    1  0.1298204E-002  0.1853593E+03  0.7546771E-02  0.1066201E+00
        -11   -1    0    0    0    0  0.00000000000E+00  0.00000000000E+00  0.18250000000E+03  0.18250000000E+03  0.00000000000E+00 0. -1.
         11   -1    0    0    0    0 -0.00000000000E+00 -0.00000000000E+00 -0.18250000000E+03  0.18250000000E+03  0.00000000000E+00 0. -1.
        -11    1    1    2    0    0 -0.10316424046E+01  0.14234738160E+01  0.98980932788E+02  0.98996543472E+02  0.00000000000E+00 0. -1.
         11    1    1    2    0    0 -0.24176528523E+01  0.32438315185E+01 -0.17959515700E+03  0.17964071896E+03  0.00000000000E+00 0. -1.
        -15    1    1    2    0    0  0.78207627217E+00 -0.92820612027E+01  0.80167578735E+02  0.80726493252E+02  0.17770000000E+01 0. -1.
         15    1    1    2    0    0  0.26672189847E+01  0.46147558681E+01  0.44664548161E+00  0.56362443188E+01  0.17770000000E+01 0.  1.
</event>
<event>
 6    1  0.1298204E-002  0.1354151E+03  0.7546771E-02  0.1113677E+00
        -11   -1    0    0    0    0  0.00000000000E+00  0.00000000000E+00  0.18250000000E+03  0.18250000000E+03  0.00000000000E+00 0.  1.
         11   -1    0    0    0    0 -0.00000000000E+00 -0.00000000000E+00 -0.18250000000E+03  0.18250000000E+03  0.00000000000E+00 0.  1.
        -11    1    1    2    0    0 -0.28870899494E+01  0.35732505991E+01  0.10200201311E+03  0.10210540674E+03  0.00000000000E+00 0.  1.
         11    1    1    2    0    0  0.45103844603E+00 -0.34447186858E+01 -0.13559326244E+01  0.37293532665E+01  0.00000000000E+00 0.  1.
        -15    1    1    2    0    0 -0.10900577237E+01  0.52237774267E+01 -0.17972205331E+03  0.17981003935E+03  0.17770000000E+01 0.  1.
         15    1    1    2    0    0  0.35261092271E+01 -0.53523093400E+01  0.79075972826E+02  0.79355200642E+02  0.17770000000E+01 0.  1.
</event>
<event>
 6    1  0.1298204E-002  0.1851153E+03  0.7546771E-02  0.1066392E+00
        -11   -1    0    0    0    0  0.00000000000E+00  0.00000000000E+00  0.18250000000E+03  0.18250000000E+03  0.00000000000E+00 0.  1.
         11   -1    0    0    0    0 -0.00000000000E+00 -0.00000000000E+00 -0.18250000000E+03  0.18250000000E+03  0.00000000000E+00 0. -1.
        -11    1    1    2    0    0  0.32309579356E+01  0.41287809737E+01  0.17980826592E+03  0.17988468087E+03  0.00000000000E+00 0.  1.
         11    1    1    2    0    0 -0.24050299681E+01  0.30275231378E+00 -0.15430623286E+03  0.15432527119E+03  0.00000000000E+00 0. -1.
        -15    1    1    2    0    0 -0.30221465200E+01 -0.11814813262E+01 -0.26171813624E+02  0.26432003804E+02  0.17770000000E+01 0. -1.
         15    1    1    2    0    0  0.21962185524E+01 -0.32500519613E+01  0.66978056613E+00  0.43580441356E+01  0.17770000000E+01 0.  1.
</event>
<event>
 6    1  0.1298204E-002  0.1870518E+03  0.7546771E-02  0.1064888E+00
        -11   -1    0    0    0    0  0.00000000000E+00  0.00000000000E+00  0.18250000000E+03  0.18250000000E+03  0.00000000000E+00 0. -1.
         11   -1    0    0    0    0 -0.00000000000E+00 -0.00000000000E+00 -0.18250000000E+03  0.18250000000E+03  0.00000000000E+00 0.  1.
        -11    1    1    2    0    0 -0.40113535479E+01 -0.21385600359E+01  0.17789011882E+03  0.17794819125E+03  0.00000000000E+00 0. -1.
         11    1    1    2    0    0 -0.32998263606E+01 -0.89385774647E+01 -0.15436698726E+03  0.15466077000E+03  0.00000000000E+00 0.  1.
        -15    1    1    2    0    0  0.68556549189E+01 -0.31130866916E+01 -0.10509346046E+02  0.13049727830E+02  0.17770000000E+01 0. -1.
         15    1    1    2    0    0  0.45552498959E+00  0.14190224192E+02 -0.13013785513E+02  0.19341310918E+02  0.17770000000E+01 0.  1.
</event>
<event>
 6    1  0.1298204E-002  0.1845211E+03  0.7546771E-02  0.1066857E+00
        -11   -1    0    0    0    0  0.00000000000E+00  0.00000000000E+00  0.18250000000E+03  0.18250000000E+03  0.00000000000E+00 0. -1.
         11   -1    0    0    0    0 -0.00000000000E+00 -0.00000000000E+00 -0.18250000000E+03  0.18250000000E+03  0.00000000000E+00 0.  1.
        -11    1    1    2    0    0  0.21413343057E+01 -0.13636180967E+01  0.18046103985E+03  0.18047889536E+03  0.00000000000E+00 0. -1.
         11    1    1    2    0    0 -0.11116723681E+01 -0.55335684441E+00 -0.84012812995E+02  0.84021989780E+02  0.00000000000E+00 0.  1.
        -15    1    1    2    0    0  0.10473635427E+02  0.53991035834E+01 -0.21580885609E+02  0.24652377395E+02  0.17770000000E+01 0. -1.
         15    1    1    2    0    0 -0.11503297364E+02 -0.34821286423E+01 -0.74867341245E+02  0.75846737466E+02  0.17770000000E+01 0.  1.
</event>
<event>
 6    1  0.1298204E-002  0.1844313E+03  0.7546771E-02  0.1066928E+00
        -11   -1    0    0    0    0  0.00000000000E+00  0.00000000000E+00  0.18250000000E+03  0.18250000000E+03  0.00000000000E+00 0.  1.
         11   -1    0    0    0    0 -0.00000000000E+00 -0.00000000000E+00 -0.18250000000E+03  0.18250000000E+03  0.00000000000E+00 0.  1.
        -11    1    1    2    0    0  0.18870689720E+01  0.28876651843E+01  0.18053573481E+03  0.18056868827E+03  0.00000000000E+00 0.  1.
         11    1    1    2    0    0  0.23139124404E+01 -0.50657775785E+00 -0.16975495385E+03  0.16977147925E+03  0.00000000000E+00 0.  1.
        -15    1    1    2    0    0 -0.17414051608E+01 -0.49448206795E+01 -0.41046887446E+01  0.68912946662E+01  0.17770000000E+01 0. -1.
         15    1    1    2    0    0 -0.24595762515E+01  0.25637332530E+01 -0.66760922137E+01  0.77685378145E+01  0.17770000000E+01 0. -1.
</event>
<event>
 6    1  0.1298204E-002  0.1839339E+03  0.7546771E-02  0.1067319E+00
        -11   -1    0    0    0    0  0.00000000000E+00  0.00000000000E+00  0.18250000000E+03  0.18250000000E+03  0.00000000000E+00 0.  1.
         11   -1    0    0    0    0 -0.00000000000E+00 -0.00000000000E+00 -0.18250000000E+03  0.18250000000E+03  0.00000000000E+00 0.  1.
        -11    1    1    2    0    0 -0.53176218805E+00 -0.30046910212E+01  0.10943871250E+03  0.10948124375E+03  0.00000000000E+00 0.  1.
         11    1    1    2    0    0  0.22932653556E+01 -0.24059884571E+01 -0.18103560437E+03  0.18106611471E+03  0.00000000000E+00 0.  1.
        -15    1    1    2    0    0 -0.73119243037E-01  0.29136874796E+01  0.70776412518E+02  0.70858684853E+02  0.17770000000E+01 0.  1.
         15    1    1    2    0    0 -0.16883839245E+01  0.24969919988E+01  0.82047935408E+00  0.35939566899E+01  0.17770000000E+01 0. -1.
</event>
<event>
 6    1  0.1298204E-002  0.1831807E+03  0.7546771E-02  0.1067914E+00
        -11   -1    0    0    0    0  0.00000000000E+00  0.00000000000E+00  0.18250000000E+03  0.18250000000E+03  0.00000000000E+00 0.  1.
         11   -1    0    0    0    0 -0.00000000000E+00 -0.00000000000E+00 -0.18250000000E+03  0.18250000000E+03  0.00000000000E+00 0.  1.
        -11    1    1    2    0    0  0.32925148017E+01 -0.53537571460E+01  0.11152582582E+03  0.11170278955E+03  0.00000000000E+00 0.  1.
         11    1    1    2    0    0  0.33414656527E+01  0.14928560731E+01 -0.18178244482E+03  0.18181928186E+03  0.00000000000E+00 0.  1.
        -15    1    1    2    0    0 -0.39518377099E+01  0.24269211063E+01  0.64755614916E+02  0.64945780152E+02  0.17770000000E+01 0.  1.
         15    1    1    2    0    0 -0.26821427444E+01  0.14339799666E+01  0.55010040828E+01  0.65321484341E+01  0.17770000000E+01 0. -1.
</event>
<event>
 6    1  0.1298204E-002  0.1827062E+03  0.7546771E-02  0.1068291E+00
        -11   -1    0    0    0    0  0.00000000000E+00  0.00000000000E+00  0.18250000000E+03  0.18250000000E+03  0.00000000000E+00 0. -1.
         11   -1    0    0    0    0 -0.00000000000E+00 -0.00000000000E+00 -0.18250000000E+03  0.18250000000E+03  0.00000000000E+00 0. -1.
        -11    1    1    2    0    0  0.16240515537E-01  0.19113116963E+01  0.98535285287E+02  0.98553821959E+02  0.00000000000E+00 0. -1.
         11    1    1    2    0    0  0.26877684336E+01  0.20461026840E+01 -0.18226246741E+03  0.18229376748E+03  0.00000000000E+00 0. -1.
        -15    1    1    2    0    0 -0.14403384533E+01 -0.51010041002E+00  0.85716058705E+01  0.88862215529E+01  0.17770000000E+01 0.  1.
         15    1    1    2    0    0 -0.12636704959E+01 -0.34473139703E+01  0.75155576254E+02  0.75266189008E+02  0.17770000000E+01 0. -1.
</event>
<event>
 6    1  0.1298204E-002  0.1859826E+03  0.7546771E-02  0.1065716E+00
        -11   -1    0    0    0    0  0.00000000000E+00  0.00000000000E+00  0.18250000000E+03  0.18250000000E+03  0.00000000000E+00 0.  1.
         11   -1    0    0    0    0 -0.00000000000E+00 -0.00000000000E+00 -0.18250000000E+03  0.18250000000E+03  0.00000000000E+00 0. -1.
        -11    1    1    2    0    0 -0.21067732553E+01  0.40801252007E+01  0.17895846195E+03  0.17901736513E+03  0.00000000000E+00 0.  1.
         11    1    1    2    0    0 -0.25666194845E+01 -0.17956211292E+01 -0.11961429279E+03  0.11965530005E+03  0.00000000000E+00 0. -1.
        -15    1    1    2    0    0 -0.25654154594E+01  0.83440412960E+01 -0.45246976853E+01  0.99917465827E+01  0.17770000000E+01 0.  1.
         15    1    1    2    0    0  0.72388081992E+01 -0.10628545368E+02 -0.54819471468E+02  0.56335588235E+02  0.17770000000E+01 0. -1.
</event>
<event>
 6    1  0.1298204E-002  0.1741852E+03  0.7546771E-02  0.1075273E+00
        -11   -1    0    0    0    0  0.00000000000E+00  0.00000000000E+00  0.18250000000E+03  0.18250000000E+03  0.00000000000E+00 0.  1.
         11   -1    0    0    0    0 -0.00000000000E+00 -0.00000000000E+00 -0.18250000000E+03  0.18250000000E+03  0.00000000000E+00 0. -1.
        -11    1    1    2    0    0 -0.58652924394E+00 -0.82575725865E+01  0.17071482095E+03  0.17091542240E+03  0.00000000000E+00 0.  1.
         11    1    1    2    0    0 -0.10885632624E+00 -0.33929129501E+01 -0.17768767974E+03  0.17772010364E+03  0.00000000000E+00 0. -1.
        -15    1    1    2    0    0  0.27843543698E+01  0.11590655606E+02  0.54523549611E+01  0.13228069786E+02  0.17770000000E+01 0. -1.
         15    1    1    2    0    0 -0.20889687996E+01  0.59829930791E-01  0.15205038288E+01  0.31364041768E+01  0.17770000000E+01 0.  1.
</event>
<event>
 6    1  0.1298204E-002  0.1853372E+03  0.7546771E-02  0.1066219E+00
        -11   -1    0    0    0    0  0.00000000000E+00  0.00000000000E+00  0.18250000000E+03  0.18250000000E+03  0.00000000000E+00 0.  1.
         11   -1    0    0    0    0 -0.00000000000E+00 -0.00000000000E+00 -0.18250000000E+03  0.18250000000E+03  0.00000000000E+00 0. -1.
        -11    1    1    2    0    0 -0.52887885051E+01 -0.48340458763E+01  0.16702697965E+03  0.16718059461E+03  0.00000000000E+00 0.  1.
         11    1    1    2    0    0  0.67557007298E+01  0.68360145715E+01 -0.17940557753E+03  0.17966282820E+03  0.00000000000E+00 0. -1.
        -15    1    1    2    0    0 -0.53545312628E+01 -0.41946479410E+01  0.30493416313E+01  0.76630470296E+01  0.17770000000E+01 0.  1.
         15    1    1    2    0    0  0.38876190381E+01  0.21926792459E+01  0.93292562458E+01  0.10493530157E+02  0.17770000000E+01 0. -1.
</event>
<event>
 6    1  0.1298204E-002  0.1846452E+03  0.7546771E-02  0.1066760E+00
        -11   -1    0    0    0    0  0.00000000000E+00  0.00000000000E+00  0.18250000000E+03  0.18250000000E+03  0.00000000000E+00 0.  1.
         11   -1    0    0    0    0 -0.00000000000E+00 -0.00000000000E+00 -0.18250000000E+03  0.18250000000E+03  0.00000000000E+00 0.  1.
        -11    1    1    2    0    0 -0.25233927199E+01  0.64535380412E+00  0.18033600209E+03  0.18035481042E+03  0.00000000000E+00 0.  1.
         11    1    1    2    0    0 -0.24019421336E+01 -0.50900722711E+00 -0.13065387275E+03  0.13067694089E+03  0.00000000000E+00 0.  1.
        -15    1    1    2    0    0  0.13833231666E+01  0.79754000616E+00 -0.49836756493E+02  0.49893984404E+02  0.17770000000E+01 0.  1.
         15    1    1    2    0    0  0.35420116870E+01 -0.93388658317E+00  0.15462715911E+00  0.40742642893E+01  0.17770000000E+01 0. -1.
</event>
<event>
 6    1  0.1298204E-002  0.1859239E+03  0.7546771E-02  0.1065762E+00
        -11   -1    0    0    0    0  0.00000000000E+00  0.00000000000E+00  0.18250000000E+03  0.18250000000E+03  0.00000000000E+00 0.  1.
         11   -1    0    0    0    0 -0.00000000000E+00 -0.00000000000E+00 -0.18250000000E+03  0.18250000000E+03  0.00000000000E+00 0.  1.
        -11    1    1    2    0    0 -0.42852389542E+01 -0.19451216819E+01  0.16778723248E+03  0.16785321610E+03  0.00000000000E+00 0.  1.
         11    1    1    2    0    0 -0.28605916275E+01 -0.12481090964E+01 -0.17904890971E+03  0.17907610904E+03  0.00000000000E+00 0.  1.
        -15    1    1    2    0    0 -0.14058841898E+01  0.29582002813E+01  0.78521532478E+01  0.86914612630E+01  0.17770000000E+01 0.  1.
         15    1    1    2    0    0  0.85517147715E+01  0.23503049694E+00  0.34095239854E+01  0.93792135957E+01  0.17770000000E+01 0. -1.
</event>
<event>
 6    1  0.1298204E-002  0.1849062E+03  0.7546771E-02  0.1066555E+00
        -11   -1    0    0    0    0  0.00000000000E+00  0.00000000000E+00  0.18250000000E+03  0.18250000000E+03  0.00000000000E+00 0. -1.
         11   -1    0    0    0    0 -0.00000000000E+00 -0.00000000000E+00 -0.18250000000E+03  0.18250000000E+03  0.00000000000E+00 0.  1.
        -11    1    1    2    0    0 -0.47628284401E+01 -0.42161432621E+01  0.17998148285E+03  0.18009384934E+03  0.00000000000E+00 0. -1.
         11    1    1    2    0    0  0.12834477138E+01 -0.18406832773E+01 -0.16360529916E+03  0.16362068716E+03  0.00000000000E+00 0.  1.
        -15    1    1    2    0    0  0.29623110259E+01  0.79162634476E+01 -0.16537384976E+02  0.18657045437E+02  0.17770000000E+01 0. -1.
         15    1    1    2    0    0  0.51706970039E+00 -0.18594369082E+01  0.16120127939E+00  0.26284180685E+01  0.17770000000E+01 0. -1.
</event>
<event>
 6    1  0.1298204E-002  0.1829808E+03  0.7546771E-02  0.1068073E+00
        -11   -1    0    0    0    0  0.00000000000E+00  0.00000000000E+00  0.18250000000E+03  0.18250000000E+03  0.00000000000E+00 0. -1.
         11   -1    0    0    0    0 -0.00000000000E+00 -0.00000000000E+00 -0.18250000000E+03  0.18250000000E+03  0.00000000000E+00 0.  1.
        -11    1    1    2    0    0 -0.58253949635E+00  0.15280190777E+01  0.95705011062E+02  0.95718981069E+02  0.00000000000E+00 0. -1.
         11    1    1    2    0    0 -0.32264897265E+01  0.51518735872E+01 -0.18191762404E+03  0.18201915826E+03  0.00000000000E+00 0.  1.
        -15    1    1    2    0    0  0.28393507317E+01 -0.71431730003E+01  0.30287328233E+02  0.31298032104E+02  0.17770000000E+01 0. -1.
         15    1    1    2    0    0  0.96967849118E+00  0.46328033539E+00  0.55925284745E+02  0.55963828566E+02  0.17770000000E+01 0. -1.
</event>
<event>
 6    1  0.1298204E-002  0.1926787E+03  0.7546771E-02  0.1060629E+00
        -11   -1    0    0    0    0  0.00000000000E+00  0.00000000000E+00  0.18250000000E+03  0.18250000000E+03  0.00000000000E+00 0.  1.
         11   -1    0    0    0    0 -0.00000000000E+00 -0.00000000000E+00 -0.18250000000E+03  0.18250000000E+03  0.00000000000E+00 0.  1.
        -11    1    1    2    0    0 -0.75884005072E+00  0.23896683233E+01  0.16363518263E+03  0.16365438994E+03  0.00000000000E+00 0.  1.
         11    1    1    2    0    0  0.14119342122E+01 -0.25916228940E+01 -0.17229602540E+03  0.17232130000E+03  0.00000000000E+00 0.  1.
        -15    1    1    2    0    0  0.31583429776E+01 -0.31850421641E+01  0.17781883512E+02  0.18424785865E+02  0.17770000000E+01 0.  1.
         15    1    1    2    0    0 -0.38114371391E+01  0.33869967348E+01 -0.91210407401E+01  0.10599524194E+02  0.17770000000E+01 0.  1.
</event>
<event>
 6    1  0.1298204E-002  0.1845037E+03  0.7546771E-02  0.1066871E+00
        -11   -1    0    0    0    0  0.00000000000E+00  0.00000000000E+00  0.18250000000E+03  0.18250000000E+03  0.00000000000E+00 0.  1.
         11   -1    0    0    0    0 -0.00000000000E+00 -0.00000000000E+00 -0.18250000000E+03  0.18250000000E+03  0.00000000000E+00 0. -1.
        -11    1    1    2    0    0  0.34173139429E+01  0.23102893918E+00  0.17778237111E+03  0.17781536178E+03  0.00000000000E+00 0.  1.
         11    1    1    2    0    0 -0.11608553260E+01 -0.32751838765E+01 -0.18046286906E+03  0.18049631997E+03  0.00000000000E+00 0. -1.
        -15    1    1    2    0    0  0.17397967038E+00  0.24293643521E+01  0.94688829966E+00  0.31601276134E+01  0.17770000000E+01 0. -1.
         15    1    1    2    0    0 -0.24304382873E+01  0.61479058524E+00  0.17336096509E+01  0.35281906345E+01  0.17770000000E+01 0.  1.
</event>
<event>
 6    1  0.2022117E-002  0.1967347E+03  0.7546771E-02  0.1057657E+00
        -11   -1    0    0    0    0  0.00000000000E+00  0.00000000000E+00  0.18250000000E+03  0.18250000000E+03  0.00000000000E+00 0. -1.
         11   -1    0    0    0    0 -0.00000000000E+00 -0.00000000000E+00 -0.18250000000E+03  0.18250000000E+03  0.00000000000E+00 0. -1.
        -11    1    1    2    0    0  0.10590607940E+02 -0.94715488796E+01  0.16766440381E+03  0.16826533666E+03  0.00000000000E+00 0. -1.
         11    1    1    2    0    0  0.38843376096E+01  0.17142703546E+01 -0.15395755892E+03  0.15401609251E+03  0.00000000000E+00 0. -1.
        -15    1    1    2    0    0 -0.86430147021E+00 -0.18900651781E+01 -0.23254544277E+02  0.23414758635E+02  0.17770000000E+01 0. -1.
         15    1    1    2    0    0 -0.13610644079E+02  0.96473437031E+01  0.95476993868E+01  0.19303812197E+02  0.17770000000E+01 0.  1.
</event>
<event>
 6    1  0.1298204E-002  0.1841045E+03  0.7546771E-02  0.1067185E+00
        -11   -1    0    0    0    0  0.00000000000E+00  0.00000000000E+00  0.18250000000E+03  0.18250000000E+03  0.00000000000E+00 0. -1.
         11   -1    0    0    0    0 -0.00000000000E+00 -0.00000000000E+00 -0.18250000000E+03  0.18250000000E+03  0.00000000000E+00 0.  1.
        -11    1    1    2    0    0  0.60881766790E+00 -0.24314328368E+01  0.18087815004E+03  0.18089551594E+03  0.00000000000E+00 0. -1.
         11    1    1    2    0    0  0.11227960275E+01  0.32525017080E+01 -0.17652579519E+03  0.17655932659E+03  0.00000000000E+00 0.  1.
        -15    1    1    2    0    0 -0.15241037868E+01 -0.19402867272E+01 -0.44985759228E+01  0.54297807755E+01  0.17770000000E+01 0.  1.
         15    1    1    2    0    0 -0.20750990859E+00  0.11192178560E+01  0.14622107217E+00  0.21153766977E+01  0.17770000000E+01 0. -1.
</event>
<event>
 6    1  0.1298204E-002  0.1842934E+03  0.7546771E-02  0.1067036E+00
        -11   -1    0    0    0    0  0.00000000000E+00  0.00000000000E+00  0.18250000000E+03  0.18250000000E+03  0.00000000000E+00 0. -1.
         11   -1    0    0    0    0 -0.00000000000E+00 -0.00000000000E+00 -0.18250000000E+03  0.18250000000E+03  0.00000000000E+00 0.  1.
        -11    1    1    2    0    0  0.60635041368E+01  0.40804769067E+01  0.18055873853E+03  0.18070659765E+03  0.00000000000E+00 0. -1.
         11    1    1    2    0    0  0.39186526578E+01 -0.17750031421E+01 -0.14950867862E+03  0.14957055679E+03  0.00000000000E+00 0.  1.
        -15    1    1    2    0    0 -0.82420617050E+01 -0.33788946568E+01 -0.10040979929E+02  0.13539849231E+02  0.17770000000E+01 0. -1.
         15    1    1    2    0    0 -0.17400950896E+01  0.10734208923E+01 -0.21009079974E+02  0.21182996334E+02  0.17770000000E+01 0.  1.
</event>
<event>
 6    1  0.1298204E-002  0.1531123E+03  0.7546771E-02  0.1094598E+00
        -11   -1    0    0    0    0  0.00000000000E+00  0.00000000000E+00  0.18250000000E+03  0.18250000000E+03  0.00000000000E+00 0. -1.
         11   -1    0    0    0    0 -0.00000000000E+00 -0.00000000000E+00 -0.18250000000E+03  0.18250000000E+03  0.00000000000E+00 0. -1.
        -11    1    1    2    0    0  0.49186713271E+01 -0.36680372937E+01  0.16271910809E+03  0.16283475048E+03  0.00000000000E+00 0. -1.
         11    1    1    2    0    0  0.24264059572E+02 -0.18845938201E+02 -0.14296794275E+03  0.14623182495E+03  0.00000000000E+00 0. -1.
        -15    1    1    2    0    0 -0.35153303060E+02  0.27150510134E+02 -0.15482152358E+02  0.47071856636E+02  0.17770000000E+01 0. -1.
         15    1    1    2    0    0  0.59705721607E+01 -0.46365346390E+01 -0.42690129868E+01  0.88615679350E+01  0.17770000000E+01 0.  1.
</event>
<event>
 6    1  0.1298204E-002  0.1968634E+03  0.7546771E-02  0.1057564E+00
        -11   -1    0    0    0    0  0.00000000000E+00  0.00000000000E+00  0.18250000000E+03  0.18250000000E+03  0.00000000000E+00 0.  1.
         11   -1    0    0    0    0 -0.00000000000E+00 -0.00000000000E+00 -0.18250000000E+03  0.18250000000E+03  0.00000000000E+00 0.  1.
        -11    1    1    2    0    0  0.74532603026E+01  0.14879051477E+02  0.16731105798E+03  0.16813663309E+03  0.00000000000E+00 0.  1.
         11    1    1    2    0    0  0.95865064978E+01  0.23415713477E+01 -0.11785419518E+03  0.11826662836E+03  0.00000000000E+00 0.  1.
        -15    1    1    2    0    0 -0.11458123858E+02 -0.17810073712E+02  0.65832430457E+01  0.22248239166E+02  0.17770000000E+01 0.  1.
         15    1    1    2    0    0 -0.55816429420E+01  0.58945088782E+00 -0.56040105849E+02  0.56348499385E+02  0.17770000000E+01 0. -1.
</event>
<event>
 6    1  0.1298204E-002  0.1867837E+03  0.7546771E-02  0.1065095E+00
        -11   -1    0    0    0    0  0.00000000000E+00  0.00000000000E+00  0.18250000000E+03  0.18250000000E+03  0.00000000000E+00 0. -1.
         11   -1    0    0    0    0 -0.00000000000E+00 -0.00000000000E+00 -0.18250000000E+03  0.18250000000E+03  0.00000000000E+00 0.  1.
        -11    1    1    2    0    0  0.43613792283E+01  0.25959594972E+00  0.14496780786E+03  0.14503363173E+03  0.00000000000E+00 0. -1.
         11    1    1    2    0    0 -0.12724392759E+02 -0.22062156301E+01 -0.17774777786E+03  0.17821630142E+03  0.00000000000E+00 0.  1.
        -15    1    1    2    0    0 -0.56728841008E+01  0.84081091247E+01  0.12649079698E+02  0.16310575075E+02  0.17770000000E+01 0.  1.
         15    1    1    2    0    0  0.14035897632E+02 -0.64614894443E+01  0.20130890302E+02  0.25439491770E+02  0.17770000000E+01 0. -1.
</event>
<event>
 6    1  0.1298204E-002  0.1826595E+03  0.7546771E-02  0.1068328E+00
        -11   -1    0    0    0    0  0.00000000000E+00  0.00000000000E+00  0.18250000000E+03  0.18250000000E+03  0.00000000000E+00 0.  1.
         11   -1    0    0    0    0 -0.00000000000E+00 -0.00000000000E+00 -0.18250000000E+03  0.18250000000E+03  0.00000000000E+00 0.  1.
        -11    1    1    2    0    0  0.28152643935E+00  0.10645644580E+01  0.40814829168E+02  0.40829680805E+02  0.00000000000E+00 0.  1.
         11    1    1    2    0    0 -0.29487670034E+00 -0.25398038173E+01 -0.18232257802E+03  0.18234050568E+03  0.00000000000E+00 0.  1.
        -15    1    1    2    0    0  0.83476337270E+00  0.50810565977E+01  0.82313845983E+02  0.82493884231E+02  0.17770000000E+01 0.  1.
         15    1    1    2    0    0 -0.82141311172E+00 -0.36058172384E+01  0.59193902872E+02  0.59335929281E+02  0.17770000000E+01 0. -1.
</event>
<event>
 6    1  0.1298204E-002  0.1828098E+03  0.7546771E-02  0.1068208E+00
        -11   -1    0    0    0    0  0.00000000000E+00  0.00000000000E+00  0.18250000000E+03  0.18250000000E+03  0.00000000000E+00 0. -1.
         11   -1    0    0    0    0 -0.00000000000E+00 -0.00000000000E+00 -0.18250000000E+03  0.18250000000E+03  0.00000000000E+00 0. -1.
        -11    1    1    2    0    0 -0.10723103955E+01  0.31654542485E+01  0.18215951954E+03  0.18219017677E+03  0.00000000000E+00 0. -1.
         11    1    1    2    0    0 -0.13910749322E+00 -0.45857711030E+01 -0.14361018892E+03  0.14368345419E+03  0.00000000000E+00 0. -1.
        -15    1    1    2    0    0  0.24873916885E+01 -0.11932539076E+01 -0.18151886585E+02  0.18446129347E+02  0.17770000000E+01 0.  1.
         15    1    1    2    0    0 -0.12759737997E+01  0.26135707621E+01 -0.20397444040E+02  0.20680239690E+02  0.17770000000E+01 0. -1.
</event>
<event>
 6    1  0.1298204E-002  0.2024365E+03  0.7546771E-02  0.1053607E+00
        -11   -1    0    0    0    0  0.00000000000E+00  0.00000000000E+00  0.18250000000E+03  0.18250000000E+03  0.00000000000E+00 0.  1.
         11   -1    0    0    0    0 -0.00000000000E+00 -0.00000000000E+00 -0.18250000000E+03  0.18250000000E+03  0.00000000000E+00 0.  1.
        -11    1    1    2    0    0 -0.10855677318E+02 -0.13153205514E+02  0.16166643548E+03  0.16256349192E+03  0.00000000000E+00 0.  1.
         11    1    1    2    0    0  0.92778818366E-01 -0.21505108216E+01 -0.13875216820E+03  0.13876886353E+03  0.00000000000E+00 0.  1.
        -15    1    1    2    0    0  0.96519656161E+01  0.13468968972E+02  0.16912431488E+02  0.23743665118E+02  0.17770000000E+01 0.  1.
         15    1    1    2    0    0  0.11109328836E+01  0.18347473642E+01 -0.39826698765E+02  0.39923979427E+02  0.17770000000E+01 0.  1.
</event>
<event>
 6    1  0.1298204E-002  0.1843737E+03  0.7546771E-02  0.1066973E+00
        -11   -1    0    0    0    0  0.00000000000E+00  0.00000000000E+00  0.18250000000E+03  0.18250000000E+03  0.00000000000E+00 0. -1.
         11   -1    0    0    0    0 -0.00000000000E+00 -0.00000000000E+00 -0.18250000000E+03  0.18250000000E+03  0.00000000000E+00 0.  1.
        -11    1    1    2    0    0  0.23013088493E+01  0.27853724542E+01  0.18059015721E+03  0.18062629710E+03  0.00000000000E+00 0. -1.
         11    1    1    2    0    0  0.30873283341E+01 -0.14094979756E+01 -0.17208878978E+03  0.17212225262E+03  0.00000000000E+00 0.  1.
        -15    1    1    2    0    0 -0.57257900558E+01  0.13886581384E+00 -0.41213808108E+01  0.72765008256E+01  0.17770000000E+01 0. -1.
         15    1    1    2    0    0  0.33715287245E+00 -0.15147402925E+01 -0.43799866269E+01  0.49749494535E+01  0.17770000000E+01 0.  1.
</event>
<event>
 6    1  0.1298204E-002  0.1829289E+03  0.7546771E-02  0.1068114E+00
        -11   -1    0    0    0    0  0.00000000000E+00  0.00000000000E+00  0.18250000000E+03  0.18250000000E+03  0.00000000000E+00 0. -1.
         11   -1    0    0    0    0 -0.00000000000E+00 -0.00000000000E+00 -0.18250000000E+03  0.18250000000E+03  0.00000000000E+00 0. -1.
        -11    1    1    2    0    0  0.18809509112E+01 -0.26275776239E+01  0.18204244509E+03  0.18207112334E+03  0.00000000000E+00 0. -1.
         11    1    1    2    0    0  0.25129638945E+01 -0.53736579663E+00 -0.63676788067E+02  0.63728620635E+02  0.00000000000E+00 0. -1.
        -15    1    1    2    0    0 -0.11864882659E+01 -0.46021086859E+01 -0.58802889337E+02  0.59021391733E+02  0.17770000000E+01 0.  1.
         15    1    1    2    0    0 -0.32074265399E+01  0.77670521065E+01 -0.59562767688E+02  0.60178864289E+02  0.17770000000E+01 0. -1.
</event>
<event>
 6    1  0.1298204E-002  0.1827657E+03  0.7546771E-02  0.1068244E+00
        -11   -1    0    0    0    0  0.00000000000E+00  0.00000000000E+00  0.18250000000E+03  0.18250000000E+03  0.00000000000E+00 0. -1.
         11   -1    0    0    0    0 -0.00000000000E+00 -0.00000000000E+00 -0.18250000000E+03  0.18250000000E+03  0.00000000000E+00 0. -1.
        -11    1    1    2    0    0 -0.17342708981E+01 -0.33133807550E+01  0.18219595880E+03  0.18223433702E+03  0.00000000000E+00 0. -1.
         11    1    1    2    0    0  0.26150858409E+01  0.10613564645E+01 -0.14368878694E+03  0.14371650094E+03  0.00000000000E+00 0. -1.
        -15    1    1    2    0    0  0.17895055412E+01  0.15014970003E+01 -0.23634014971E+02  0.23815566673E+02  0.17770000000E+01 0. -1.
         15    1    1    2    0    0 -0.26703204839E+01  0.75052729015E+00 -0.14873156890E+02  0.15233595359E+02  0.17770000000E+01 0.  1.
</event>
<event>
 6    1  0.1298204E-002  0.1830750E+03  0.7546771E-02  0.1067998E+00
        -11   -1    0    0    0    0  0.00000000000E+00  0.00000000000E+00  0.18250000000E+03  0.18250000000E+03  0.00000000000E+00 0.  1.
         11   -1    0    0    0    0 -0.00000000000E+00 -0.00000000000E+00 -0.18250000000E+03  0.18250000000E+03  0.00000000000E+00 0.  1.
        -11    1    1    2    0    0 -0.32140822685E+01  0.14605673630E+01  0.18189073135E+03  0.18192498930E+03  0.00000000000E+00 0.  1.
         11    1    1    2    0    0 -0.31218139455E+01  0.18379137813E+01 -0.84836016719E+02  0.84913328648E+02  0.00000000000E+00 0.  1.
        -15    1    1    2    0    0 -0.29682096500E+01 -0.37045350711E+01 -0.27426444964E+02  0.27890884908E+02  0.17770000000E+01 0.  1.
         15    1    1    2    0    0  0.93041058640E+01  0.40605392684E+00 -0.69628269664E+02  0.70270797143E+02  0.17770000000E+01 0. -1.
</event>
<event>
 6    1  0.1298204E-002  0.1907897E+03  0.7546771E-02  0.1062041E+00
        -11   -1    0    0    0    0  0.00000000000E+00  0.00000000000E+00  0.18250000000E+03  0.18250000000E+03  0.00000000000E+00 0.  1.
         11   -1    0    0    0    0 -0.00000000000E+00 -0.00000000000E+00 -0.18250000000E+03  0.18250000000E+03  0.00000000000E+00 0. -1.
        -11    1    1    2    0    0 -0.78874678444E+00  0.40070318633E+01  0.17416246998E+03  0.17421034520E+03  0.00000000000E+00 0.  1.
         11    1    1    2    0    0 -0.39967227598E+01  0.63874671617E-01 -0.11589531280E+03  0.11596422466E+03  0.00000000000E+00 0. -1.
        -15    1    1    2    0    0  0.77622899838E+01 -0.94409771307E+01  0.34139795730E+01  0.12813983787E+02  0.17770000000E+01 0.  1.
         15    1    1    2    0    0 -0.29768204395E+01  0.53700705958E+01 -0.61681136754E+02  0.62011446350E+02  0.17770000000E+01 0. -1.
</event>
<event>
 6    1  0.1298204E-002  0.1841368E+03  0.7546771E-02  0.1067159E+00
        -11   -1    0    0    0    0  0.00000000000E+00  0.00000000000E+00  0.18250000000E+03  0.18250000000E+03  0.00000000000E+00 0. -1.
         11   -1    0    0    0    0 -0.00000000000E+00 -0.00000000000E+00 -0.18250000000E+03  0.18250000000E+03  0.00000000000E+00 0.  1.
        -11    1    1    2    0    0 -0.75321157219E+01 -0.15050034500E+02  0.18007851348E+03  0.18086322822E+03  0.00000000000E+00 0. -1.
         11    1    1    2    0    0 -0.34743540894E+00  0.61132969507E+00 -0.43634233591E+02  0.43639898905E+02  0.00000000000E+00 0.  1.
        -15    1    1    2    0    0  0.10096603833E+02  0.12057086486E+02 -0.29405872813E+02  0.33394278378E+02  0.17770000000E+01 0. -1.
         15    1    1    2    0    0 -0.22170527018E+01  0.23816183186E+01 -0.10703840708E+03  0.10710259449E+03  0.17770000000E+01 0.  1.
</event>
<event>
 6    1  0.1298204E-002  0.1891356E+03  0.7546771E-02  0.1063292E+00
        -11   -1    0    0    0    0  0.00000000000E+00  0.00000000000E+00  0.18250000000E+03  0.18250000000E+03  0.00000000000E+00 0. -1.
         11   -1    0    0    0    0 -0.00000000000E+00 -0.00000000000E+00 -0.18250000000E+03  0.18250000000E+03  0.00000000000E+00 0. -1.
        -11    1    1    2    0    0  0.51466333987E+00  0.24321532085E+01  0.17004971750E+03  0.17006788842E+03  0.00000000000E+00 0. -1.
         11    1    1    2    0    0 -0.43847612575E+01 -0.40111557815E+01 -0.17576401249E+03  0.17586444663E+03  0.00000000000E+00 0. -1.
        -15    1    1    2    0    0 -0.12468197318E+01 -0.57427470111E+01  0.75969012092E+01  0.97675145077E+01  0.17770000000E+01 0. -1.
         15    1    1    2    0    0  0.51169176494E+01  0.73217495841E+01 -0.18826062244E+01  0.93001504503E+01  0.17770000000E+01 0.  1.
</event>
<event>
 6    1  0.1298204E-002  0.1870003E+03  0.7546771E-02  0.1064928E+00
        -11   -1    0    0    0    0  0.00000000000E+00  0.00000000000E+00  0.18250000000E+03  0.18250000000E+03  0.00000000000E+00 0. -1.
         11   -1    0    0    0    0 -0.00000000000E+00 -0.00000000000E+00 -0.18250000000E+03  0.18250000000E+03  0.00000000000E+00 0. -1.
        -11    1    1    2    0    0  0.66553171928E+01  0.36031354393E+01  0.14193175449E+03  0.14213338371E+03  0.00000000000E+00 0. -1.
         11    1    1    2    0    0 -0.47050279915E+01  0.42351097955E+00 -0.17793701436E+03  0.17799971273E+03  0.00000000000E+00 0. -1.
        -15    1    1    2    0    0 -0.25666956618E+01 -0.39617107614E+01 -0.29652734978E+01  0.58509533150E+01  0.17770000000E+01 0.  1.
         15    1    1    2    0    0  0.61640646053E+00 -0.64935657451E-01  0.38970533369E+02  0.39015950246E+02  0.17770000000E+01 0. -1.
</event>
<event>
 6    1  0.1298204E-002  0.1851886E+03  0.7546771E-02  0.1066335E+00
        -11   -1    0    0    0    0  0.00000000000E+00  0.00000000000E+00  0.18250000000E+03  0.18250000000E+03  0.00000000000E+00 0.  1.
         11   -1    0    0    0    0 -0.00000000000E+00 -0.00000000000E+00 -0.18250000000E+03  0.18250000000E+03  0.00000000000E+00 0. -1.
        -11    1    1    2    0    0 -0.23611377034E+01  0.12498203792E+01  0.17344868371E+03  0.17346925636E+03  0.00000000000E+00 0.  1.
         11    1    1    2    0    0  0.24611684583E+01 -0.16774442588E+01 -0.17978668490E+03  0.17981135459E+03  0.00000000000E+00 0. -1.
        -15    1    1    2    0    0  0.24475065018E+01 -0.19121538903E+01  0.69170265014E+01  0.77877856414E+01  0.17770000000E+01 0.  1.
         15    1    1    2    0    0 -0.25475372568E+01  0.23397777698E+01 -0.57902530508E+00  0.39316034122E+01  0.17770000000E+01 0.  1.
</event>
<event>
 6    1  0.1298204E-002  0.1868831E+03  0.7546771E-02  0.1065018E+00
        -11   -1    0    0    0    0  0.00000000000E+00  0.00000000000E+00  0.18250000000E+03  0.18250000000E+03  0.00000000000E+00 0.  1.
         11   -1    0    0    0    0 -0.00000000000E+00 -0.00000000000E+00 -0.18250000000E+03  0.18250000000E+03  0.00000000000E+00 0. -1.
        -11    1    1    2    0    0  0.34932329984E+01  0.39293321417E+01  0.17457120100E+03  0.17465035513E+03  0.00000000000E+00 0.  1.
         11    1    1    2    0    0  0.11477674999E+01 -0.45665511336E+01 -0.17805467440E+03  0.17811692181E+03  0.00000000000E+00 0. -1.
        -15    1    1    2    0    0  0.13151243438E+00  0.70530196761E+00  0.61796912802E+01  0.64700123419E+01  0.17770000000E+01 0.  1.
         15    1    1    2    0    0 -0.47725129326E+01 -0.68082975696E-01 -0.26962178755E+01  0.57627107177E+01  0.17770000000E+01 0. -1.
</event>
<event>
 6    1  0.1298204E-002  0.1858760E+03  0.7546771E-02  0.1065799E+00
        -11   -1    0    0    0    0  0.00000000000E+00  0.00000000000E+00  0.18250000000E+03  0.18250000000E+03  0.00000000000E+00 0. -1.
         11   -1    0    0    0    0 -0.00000000000E+00 -0.00000000000E+00 -0.18250000000E+03  0.18250000000E+03  0.00000000000E+00 0.  1.
        -11    1    1    2    0    0  0.76140434582E+00 -0.67046826048E+01  0.15330639057E+03  0.15345482037E+03  0.00000000000E+00 0. -1.
         11    1    1    2    0    0 -0.30244939938E+01  0.22663429376E+01 -0.17908414211E+03  0.17912401802E+03  0.00000000000E+00 0.  1.
        -15    1    1    2    0    0  0.40259483939E+01 -0.66524401715E+01  0.78442009392E+01  0.11187155049E+02  0.17770000000E+01 0.  1.
         15    1    1    2    0    0 -0.17628587459E+01  0.11090779839E+02  0.17933550602E+02  0.21234006560E+02  0.17770000000E+01 0. -1.
</event>
<event>
 6    1  0.1298204E-002  0.1842879E+03  0.7546771E-02  0.1067040E+00
        -11   -1    0    0    0    0  0.00000000000E+00  0.00000000000E+00  0.18250000000E+03  0.18250000000E+03  0.00000000000E+00 0. -1.
         11   -1    0    0    0    0 -0.00000000000E+00 -0.00000000000E+00 -0.18250000000E+03  0.18250000000E+03  0.00000000000E+00 0.  1.
        -11    1    1    2    0    0 -0.13224282689E+01  0.44130345034E+01  0.16155240628E+03  0.16161807963E+03  0.00000000000E+00 0. -1.
         11    1    1    2    0    0 -0.36179757579E+01 -0.93268971410E+00 -0.18067345888E+03  0.18071208704E+03  0.00000000000E+00 0.  1.
        -15    1    1    2    0    0  0.53317729487E+01 -0.87541831513E+00  0.33908578721E+01  0.66219186126E+01  0.17770000000E+01 0. -1.
         15    1    1    2    0    0 -0.39136892192E+00 -0.26049264741E+01  0.15730194730E+02  0.16047914719E+02  0.17770000000E+01 0.  1.
</event>
<event>
 6    1  0.1298204E-002  0.1833939E+03  0.7546771E-02  0.1067746E+00
        -11   -1    0    0    0    0  0.00000000000E+00  0.00000000000E+00  0.18250000000E+03  0.18250000000E+03  0.00000000000E+00 0.  1.
         11   -1    0    0    0    0 -0.00000000000E+00 -0.00000000000E+00 -0.18250000000E+03  0.18250000000E+03  0.00000000000E+00 0. -1.
        -11    1    1    2    0    0 -0.28231175417E+00 -0.45351265456E+01  0.41042552453E+02  0.41293318885E+02  0.00000000000E+00 0.  1.
         11    1    1    2    0    0 -0.55850050567E+01 -0.11664789177E+01 -0.18151649923E+03  0.18160614650E+03  0.00000000000E+00 0. -1.
        -15    1    1    2    0    0  0.54484951528E+01  0.45643871407E+01  0.13957854285E+03  0.13977069465E+03  0.17770000000E+01 0. -1.
         15    1    1    2    0    0  0.41882165804E+00  0.11372183226E+01  0.89540392434E+00  0.23298399692E+01  0.17770000000E+01 0.  1.
</event>
<event>
 6    1  0.1298204E-002  0.1949123E+03  0.7546771E-02  0.1058983E+00
        -11   -1    0    0    0    0  0.00000000000E+00  0.00000000000E+00  0.18250000000E+03  0.18250000000E+03  0.00000000000E+00 0. -1.
         11   -1    0    0    0    0 -0.00000000000E+00 -0.00000000000E+00 -0.18250000000E+03  0.18250000000E+03  0.00000000000E+00 0.  1.
        -11    1    1    2    0    0 -0.24403517191E+01 -0.98364560118E+01  0.16978553121E+03  0.17008773558E+03  0.00000000000E+00 0. -1.
         11    1    1    2    0    0  0.80515846278E-01  0.75843469942E+00 -0.46658243923E+02  0.46664477196E+02  0.00000000000E+00 0.  1.
        -15    1    1    2    0    0 -0.86751927682E+01  0.15295995756E+02  0.58656394989E+01  0.18622296084E+02  0.17770000000E+01 0. -1.
         15    1    1    2    0    0  0.11035028641E+02 -0.62179744431E+01 -0.12899292679E+03  0.12962549114E+03  0.17770000000E+01 0.  1.
</event>
<event>
 6    1  0.3199127E-002  0.2097267E+03  0.7546771E-02  0.1048637E+00
        -11   -1    0    0    0    0  0.00000000000E+00  0.00000000000E+00  0.18250000000E+03  0.18250000000E+03  0.00000000000E+00 0.  1.
         11   -1    0    0    0    0 -0.00000000000E+00 -0.00000000000E+00 -0.18250000000E+03  0.18250000000E+03  0.00000000000E+00 0.  1.
        -11    1    1    2    0    0 -0.36386945052E+01  0.93285043199E+01  0.15495013415E+03  0.15527332406E+03  0.00000000000E+00 0.  1.
         11    1    1    2    0    0  0.62821057562E+01 -0.29650311672E+01 -0.14393072090E+03  0.14409826051E+03  0.00000000000E+00 0.  1.
        -15    1    1    2    0    0 -0.48752790019E+01 -0.28406310789E-01 -0.37701323836E+02  0.38056756303E+02  0.17770000000E+01 0.  1.
         15    1    1    2    0    0  0.22318677509E+01 -0.63350668419E+01  0.26681910587E+02  0.27571659129E+02  0.17770000000E+01 0. -1.
</event>
<event>
 6    1  0.1298204E-002  0.1883165E+03  0.7546771E-02  0.1063917E+00
        -11   -1    0    0    0    0  0.00000000000E+00  0.00000000000E+00  0.18250000000E+03  0.18250000000E+03  0.00000000000E+00 0. -1.
         11   -1    0    0    0    0 -0.00000000000E+00 -0.00000000000E+00 -0.18250000000E+03  0.18250000000E+03  0.00000000000E+00 0.  1.
        -11    1    1    2    0    0 -0.27367550849E+01  0.32004672521E+00  0.16976455698E+03  0.16978691664E+03  0.00000000000E+00 0. -1.
         11    1    1    2    0    0 -0.59335351329E+01  0.11627912657E+01 -0.17658003020E+03  0.17668351929E+03  0.00000000000E+00 0.  1.
        -15    1    1    2    0    0  0.73900319190E+01 -0.23889073288E+01 -0.29384029403E+01  0.84918426050E+01  0.17770000000E+01 0.  1.
         15    1    1    2    0    0  0.12802582988E+01  0.90606933786E+00  0.97538761638E+01  0.10037721463E+02  0.17770000000E+01 0.  1.
</event>
<event>
 6    1  0.1298204E-002  0.1845318E+03  0.7546771E-02  0.1066849E+00
        -11   -1    0    0    0    0  0.00000000000E+00  0.00000000000E+00  0.18250000000E+03  0.18250000000E+03  0.00000000000E+00 0. -1.
         11   -1    0    0    0    0 -0.00000000000E+00 -0.00000000000E+00 -0.18250000000E+03  0.18250000000E+03  0.00000000000E+00 0. -1.
        -11    1    1    2    0    0  0.31104979422E+01  0.14314686797E+01  0.18043571447E+03  0.18046820040E+03  0.00000000000E+00 0. -1.
         11    1    1    2    0    0  0.27100202496E+01 -0.46387791356E+01 -0.10069923508E+03  0.10084244358E+03  0.00000000000E+00 0. -1.
        -15    1    1    2    0    0 -0.49049229033E+01  0.69029038234E+01 -0.78940183252E+02  0.79412962486E+02  0.17770000000E+01 0. -1.
         15    1    1    2    0    0 -0.91559528851E+00 -0.36955933676E+01 -0.79629613992E+00  0.42763935288E+01  0.17770000000E+01 0.  1.
</event>
<event>
 6    1  0.1298204E-002  0.1944528E+03  0.7546771E-02  0.1059319E+00
        -11   -1    0    0    0    0  0.00000000000E+00  0.00000000000E+00  0.18250000000E+03  0.18250000000E+03  0.00000000000E+00 0.  1.
         11   -1    0    0    0    0 -0.00000000000E+00 -0.00000000000E+00 -0.18250000000E+03  0.18250000000E+03  0.00000000000E+00 0. -1.
        -11    1    1    2    0    0 -0.14773873448E+01 -0.19246956665E+01  0.17052998564E+03  0.17054724603E+03  0.00000000000E+00 0.  1.
         11    1    1    2    0    0  0.21395520982E+01  0.23136574247E+01 -0.16542757647E+03  0.16545758898E+03  0.00000000000E+00 0. -1.
        -15    1    1    2    0    0 -0.10678289394E+02  0.13778217561E+01  0.70937821940E+01  0.13015518890E+02  0.17770000000E+01 0.  1.
         15    1    1    2    0    0  0.10016124640E+02 -0.17667835143E+01 -0.12196191362E+02  0.15979646101E+02  0.17770000000E+01 0. -1.
</event>
<event>
 6    1  0.1298204E-002  0.1828164E+03  0.7546771E-02  0.1068203E+00
        -11   -1    0    0    0    0  0.00000000000E+00  0.00000000000E+00  0.18250000000E+03  0.18250000000E+03  0.00000000000E+00 0. -1.
         11   -1    0    0    0    0 -0.00000000000E+00 -0.00000000000E+00 -0.18250000000E+03  0.18250000000E+03  0.00000000000E+00 0. -1.
        -11    1    1    2    0    0 -0.39920618072E+01  0.19277294126E+01  0.18212965588E+03  0.18218360038E+03  0.00000000000E+00 0. -1.
         11    1    1    2    0    0 -0.10196727452E+01 -0.21438796664E+01 -0.14381775559E+03  0.14383734833E+03  0.00000000000E+00 0. -1.
        -15    1    1    2    0    0  0.86969187530E+00  0.84061441579E+00 -0.19791107234E+02  0.19907502382E+02  0.17770000000E+01 0. -1.
         15    1    1    2    0    0  0.41420426771E+01 -0.62446416198E+00 -0.18520793055E+02  0.19071548899E+02  0.17770000000E+01 0.  1.
</event>
<event>
 6    1  0.1298204E-002  0.1917721E+03  0.7546771E-02  0.1061305E+00
        -11   -1    0    0    0    0  0.00000000000E+00  0.00000000000E+00  0.18250000000E+03  0.18250000000E+03  0.00000000000E+00 0.  1.
         11   -1    0    0    0    0 -0.00000000000E+00 -0.00000000000E+00 -0.18250000000E+03  0.18250000000E+03  0.00000000000E+00 0.  1.
        -11    1    1    2    0    0 -0.13156490369E+01  0.36731029404E+01  0.14527278949E+03  0.14532517326E+03  0.00000000000E+00 0.  1.
         11    1    1    2    0    0 -0.20921349786E+01  0.11554378785E+01 -0.17321142976E+03  0.17322791768E+03  0.00000000000E+00 0.  1.
        -15    1    1    2    0    0  0.17584087497E+01  0.12559636468E+01 -0.87457808779E+01  0.91823666981E+01  0.17770000000E+01 0. -1.
         15    1    1    2    0    0  0.16493752658E+01 -0.60845044657E+01  0.36684421144E+02  0.37264542356E+02  0.17770000000E+01 0.  1.
</event>
<event>
 6    1  0.1298204E-002  0.1880701E+03  0.7546771E-02  0.1064105E+00
        -11   -1    0    0    0    0  0.00000000000E+00  0.00000000000E+00  0.18250000000E+03  0.18250000000E+03  0.00000000000E+00 0. -1.
         11   -1    0    0    0    0 -0.00000000000E+00 -0.00000000000E+00 -0.18250000000E+03  0.18250000000E+03  0.00000000000E+00 0. -1.
        -11    1    1    2    0    0  0.19248019869E+00 -0.94729510810E+00  0.68274998281E+02  0.68281840975E+02  0.00000000000E+00 0. -1.
         11    1    1    2    0    0 -0.28332705961E+01  0.29384507835E+01 -0.17688278841E+03  0.17692988089E+03  0.00000000000E+00 0. -1.
        -15    1    1    2    0    0  0.56587785066E+01 -0.25795898015E+02  0.57538545082E+02  0.63334761606E+02  0.17770000000E+01 0. -1.
         15    1    1    2    0    0 -0.30179881092E+01  0.23804742340E+02  0.51069245047E+02  0.56453516532E+02  0.17770000000E+01 0.  1.
</event>
<event>
 6    1  0.1298204E-002  0.1832404E+03  0.7546771E-02  0.1067867E+00
        -11   -1    0    0    0    0  0.00000000000E+00  0.00000000000E+00  0.18250000000E+03  0.18250000000E+03  0.00000000000E+00 0. -1.
         11   -1    0    0    0    0 -0.00000000000E+00 -0.00000000000E+00 -0.18250000000E+03  0.18250000000E+03  0.00000000000E+00 0. -1.
        -11    1    1    2    0    0  0.39364424509E+01 -0.99511529590E+00  0.18171424178E+03  0.18175959809E+03  0.00000000000E+00 0. -1.
         11    1    1    2    0    0 -0.72264507800E+00  0.10857345703E+01 -0.35140368607E+02  0.35164563715E+02  0.00000000000E+00 0. -1.
        -15    1    1    2    0    0  0.18037688556E+01 -0.91605460516E+00 -0.13748005303E+03  0.13750641966E+03  0.17770000000E+01 0. -1.
         15    1    1    2    0    0 -0.50175662286E+01  0.82543533079E+00 -0.90938201402E+01  0.10569418531E+02  0.17770000000E+01 0. -1.
</event>
<event>
 6    1  0.1298204E-002  0.1862670E+03  0.7546771E-02  0.1065495E+00
        -11   -1    0    0    0    0  0.00000000000E+00  0.00000000000E+00  0.18250000000E+03  0.18250000000E+03  0.00000000000E+00 0. -1.
         11   -1    0    0    0    0 -0.00000000000E+00 -0.00000000000E+00 -0.18250000000E+03  0.18250000000E+03  0.00000000000E+00 0. -1.
        -11    1    1    2    0    0  0.54517699624E+01 -0.18444561448E+01  0.17864036117E+03  0.17873304801E+03  0.00000000000E+00 0. -1.
         11    1    1    2    0    0 -0.29910081603E+01 -0.46924921872E+00 -0.16236033797E+03  0.16238856385E+03  0.00000000000E+00 0. -1.
        -15    1    1    2    0    0 -0.52312795908E+01  0.15761682679E+01  0.13721219296E+01  0.59068638173E+01  0.17770000000E+01 0.  1.
         15    1    1    2    0    0  0.27705177887E+01  0.73753709567E+00 -0.17652145126E+02  0.17971524318E+02  0.17770000000E+01 0.  1.
</event>
<event>
 6    1  0.1298204E-002  0.1835271E+03  0.7546771E-02  0.1067640E+00
        -11   -1    0    0    0    0  0.00000000000E+00  0.00000000000E+00  0.18250000000E+03  0.18250000000E+03  0.00000000000E+00 0. -1.
         11   -1    0    0    0    0 -0.00000000000E+00 -0.00000000000E+00 -0.18250000000E+03  0.18250000000E+03  0.00000000000E+00 0.  1.
        -11    1    1    2    0    0  0.32129009561E+01  0.72597414018E+01  0.18129919077E+03  0.18147292678E+03  0.00000000000E+00 0. -1.
         11    1    1    2    0    0  0.53710054196E+01  0.19621744823E+01 -0.84294654712E+02  0.84488381692E+02  0.00000000000E+00 0.  1.
        -15    1    1    2    0    0 -0.68973802603E+01 -0.24336586914E+01 -0.82453128464E+02  0.82795970141E+02  0.17770000000E+01 0.  1.
         15    1    1    2    0    0 -0.16865261154E+01 -0.67882571928E+01 -0.14551407597E+02  0.16242721389E+02  0.17770000000E+01 0. -1.
</event>
<event>
 6    1  0.1298204E-002  0.1834364E+03  0.7546771E-02  0.1067712E+00
        -11   -1    0    0    0    0  0.00000000000E+00  0.00000000000E+00  0.18250000000E+03  0.18250000000E+03  0.00000000000E+00 0.  1.
         11   -1    0    0    0    0 -0.00000000000E+00 -0.00000000000E+00 -0.18250000000E+03  0.18250000000E+03  0.00000000000E+00 0.  1.
        -11    1    1    2    0    0  0.73841597741E+01  0.15175307465E+01  0.18140701615E+03  0.18156358176E+03  0.00000000000E+00 0.  1.
         11    1    1    2    0    0  0.10433428781E+00  0.27023364693E+01 -0.10360280040E+03  0.10363809029E+03  0.00000000000E+00 0.  1.
        -15    1    1    2    0    0 -0.42564823473E+01  0.38145516664E+01 -0.12073252858E+02  0.13475518912E+02  0.17770000000E+01 0. -1.
         15    1    1    2    0    0 -0.32320117146E+01 -0.80344188822E+01 -0.65730962888E+02  0.66322809031E+02  0.17770000000E+01 0.  1.
</event>
<event>
 6    1  0.1298204E-002  0.1838514E+03  0.7546771E-02  0.1067384E+00
        -11   -1    0    0    0    0  0.00000000000E+00  0.00000000000E+00  0.18250000000E+03  0.18250000000E+03  0.00000000000E+00 0. -1.
         11   -1    0    0    0    0 -0.00000000000E+00 -0.00000000000E+00 -0.18250000000E+03  0.18250000000E+03  0.00000000000E+00 0.  1.
        -11    1    1    2    0    0 -0.91295793605E+01  0.15608763962E-01  0.18091837361E+03  0.18114857817E+03  0.00000000000E+00 0. -1.
         11    1    1    2    0    0 -0.70519362865E+00  0.40076525727E+01 -0.14935244287E+03  0.14940786715E+03  0.00000000000E+00 0.  1.
        -15    1    1    2    0    0  0.56792166838E+01  0.21065993907E+00 -0.74077710203E+01  0.95042453799E+01  0.17770000000E+01 0. -1.
         15    1    1    2    0    0  0.41555563053E+01 -0.42339212758E+01 -0.24158159728E+02  0.24939309293E+02  0.17770000000E+01 0.  1.
</event>
<event>
 6    1  0.1298204E-002  0.1833009E+03  0.7546771E-02  0.1067819E+00
        -11   -1    0    0    0    0  0.00000000000E+00  0.00000000000E+00  0.18250000000E+03  0.18250000000E+03  0.00000000000E+00 0. -1.
         11   -1    0    0    0    0 -0.00000000000E+00 -0.00000000000E+00 -0.18250000000E+03  0.18250000000E+03  0.00000000000E+00 0.  1.
        -11    1    1    2    0    0 -0.22842409664E+00 -0.24439070725E+01  0.18168256321E+03  0.18169914319E+03  0.00000000000E+00 0. -1.
         11    1    1    2    0    0  0.25895538468E+01  0.52237910043E+01 -0.15495178594E+03  0.15506143862E+03  0.00000000000E+00 0.  1.
        -15    1    1    2    0    0 -0.20500207171E+00 -0.16377386163E+01 -0.24140147945E+02  0.24261671118E+02  0.17770000000E+01 0.  1.
         15    1    1    2    0    0 -0.21561276785E+01 -0.11421453155E+01 -0.25906293322E+01  0.39777470790E+01  0.17770000000E+01 0.  1.
</event>
<event>
 6    1  0.1298204E-002  0.1831539E+03  0.7546771E-02  0.1067936E+00
        -11   -1    0    0    0    0  0.00000000000E+00  0.00000000000E+00  0.18250000000E+03  0.18250000000E+03  0.00000000000E+00 0.  1.
         11   -1    0    0    0    0 -0.00000000000E+00 -0.00000000000E+00 -0.18250000000E+03  0.18250000000E+03  0.00000000000E+00 0.  1.
        -11    1    1    2    0    0 -0.31188084227E+01 -0.48723234150E+00  0.10221580377E+03  0.10226453394E+03  0.00000000000E+00 0.  1.
         11    1    1    2    0    0 -0.12583683499E+01  0.27706943817E+01 -0.18182067378E+03  0.18184613731E+03  0.00000000000E+00 0.  1.
        -15    1    1    2    0    0  0.87931306788E+01 -0.27607762414E+01  0.58569784993E+02  0.59317101040E+02  0.17770000000E+01 0.  1.
         15    1    1    2    0    0 -0.44159539061E+01  0.47731420126E+00  0.21035085016E+02  0.21572227710E+02  0.17770000000E+01 0. -1.
</event>
<event>
 6    1  0.1298204E-002  0.1845348E+03  0.7546771E-02  0.1066847E+00
        -11   -1    0    0    0    0  0.00000000000E+00  0.00000000000E+00  0.18250000000E+03  0.18250000000E+03  0.00000000000E+00 0.  1.
         11   -1    0    0    0    0 -0.00000000000E+00 -0.00000000000E+00 -0.18250000000E+03  0.18250000000E+03  0.00000000000E+00 0.  1.
        -11    1    1    2    0    0 -0.53972194638E+01 -0.99298903700E+00  0.18038172503E+03  0.18046518426E+03  0.00000000000E+00 0.  1.
         11    1    1    2    0    0 -0.23075895843E+01  0.49414694002E+00 -0.16403133256E+03  0.16404830756E+03  0.00000000000E+00 0.  1.
        -15    1    1    2    0    0  0.23360728314E+00 -0.27543543912E+01 -0.81611257829E+01  0.87978828998E+01  0.17770000000E+01 0. -1.
         15    1    1    2    0    0  0.74712017650E+01  0.32531964882E+01 -0.81892666851E+01  0.11688625285E+02  0.17770000000E+01 0.  1.
</event>
<event>
 6    1  0.1298204E-002  0.1779156E+03  0.7546771E-02  0.1072164E+00
        -11   -1    0    0    0    0  0.00000000000E+00  0.00000000000E+00  0.18250000000E+03  0.18250000000E+03  0.00000000000E+00 0. -1.
         11   -1    0    0    0    0 -0.00000000000E+00 -0.00000000000E+00 -0.18250000000E+03  0.18250000000E+03  0.00000000000E+00 0. -1.
        -11    1    1    2    0    0  0.17934570037E+01 -0.18003201970E+01  0.17766031789E+03  0.17767849109E+03  0.00000000000E+00 0. -1.
         11    1    1    2    0    0  0.49228811966E+01  0.40355892767E+01 -0.17810961705E+03  0.17822333300E+03  0.00000000000E+00 0. -1.
        -15    1    1    2    0    0 -0.24271493745E+01  0.87978482958E+00 -0.10575494213E+01  0.33077507782E+01  0.17770000000E+01 0.  1.
         15    1    1    2    0    0 -0.42891888258E+01 -0.31150539093E+01  0.15068485734E+01  0.57904251368E+01  0.17770000000E+01 0. -1.
</event>
<event>
 6    1  0.1298204E-002  0.1844768E+03  0.7546771E-02  0.1066892E+00
        -11   -1    0    0    0    0  0.00000000000E+00  0.00000000000E+00  0.18250000000E+03  0.18250000000E+03  0.00000000000E+00 0. -1.
         11   -1    0    0    0    0 -0.00000000000E+00 -0.00000000000E+00 -0.18250000000E+03  0.18250000000E+03  0.00000000000E+00 0.  1.
        -11    1    1    2    0    0  0.16377105385E+01 -0.76284612659E+01  0.18035455291E+03  0.18052324026E+03  0.00000000000E+00 0. -1.
         11    1    1    2    0    0  0.25114640543E+01 -0.33637879152E+01 -0.14866279780E+03  0.14872205610E+03  0.00000000000E+00 0.  1.
        -15    1    1    2    0    0  0.24390389376E+01  0.34114127016E+01 -0.18650414751E+02  0.19198498560E+02  0.17770000000E+01 0. -1.
         15    1    1    2    0    0 -0.65882135304E+01  0.75808364795E+01 -0.13041340361E+02  0.16556205080E+02  0.17770000000E+01 0.  1.
</event>
<event>
 6    1  0.1298204E-002  0.1834547E+03  0.7546771E-02  0.1067697E+00
        -11   -1    0    0    0    0  0.00000000000E+00  0.00000000000E+00  0.18250000000E+03  0.18250000000E+03  0.00000000000E+00 0.  1.
         11   -1    0    0    0    0 -0.00000000000E+00 -0.00000000000E+00 -0.18250000000E+03  0.18250000000E+03  0.00000000000E+00 0. -1.
        -11    1    1    2    0    0 -0.63765519988E+01  0.43261084877E+01  0.18138167847E+03  0.18154528061E+03  0.00000000000E+00 0.  1.
         11    1    1    2    0    0 -0.20754405571E+01 -0.15779592002E+01 -0.13337094315E+03  0.13339642381E+03  0.00000000000E+00 0. -1.
        -15    1    1    2    0    0  0.11708035170E+01 -0.17765754969E+01 -0.19686176933E+01  0.34000273519E+01  0.17770000000E+01 0.  1.
         15    1    1    2    0    0  0.72811890390E+01 -0.97157379059E+00 -0.46042117619E+02  0.46658268220E+02  0.17770000000E+01 0. -1.
</event>
<event>
 6    1  0.1298204E-002  0.1849690E+03  0.7546771E-02  0.1066506E+00
        -11   -1    0    0    0    0  0.00000000000E+00  0.00000000000E+00  0.18250000000E+03  0.18250000000E+03  0.00000000000E+00 0. -1.
         11   -1    0    0    0    0 -0.00000000000E+00 -0.00000000000E+00 -0.18250000000E+03  0.18250000000E+03  0.00000000000E+00 0. -1.
        -11    1    1    2    0    0  0.74904504773E+01  0.47866497994E+01  0.12287118684E+03  0.12319231884E+03  0.00000000000E+00 0. -1.
         11    1    1    2    0    0 -0.14098673882E+02  0.31181009648E+01 -0.17945103365E+03  0.18003102132E+03  0.00000000000E+00 0. -1.
        -15    1    1    2    0    0  0.75185082682E+01  0.33387873728E+01  0.43954746292E+02  0.44753244780E+02  0.17770000000E+01 0.  1.
         15    1    1    2    0    0 -0.91028486325E+00 -0.11243538137E+02  0.12625100513E+02  0.17023415061E+02  0.17770000000E+01 0. -1.
</event>
<event>
 6    1  0.1298204E-002  0.1838773E+03  0.7546771E-02  0.1067364E+00
        -11   -1    0    0    0    0  0.00000000000E+00  0.00000000000E+00  0.18250000000E+03  0.18250000000E+03  0.00000000000E+00 0. -1.
         11   -1    0    0    0    0 -0.00000000000E+00 -0.00000000000E+00 -0.18250000000E+03  0.18250000000E+03  0.00000000000E+00 0. -1.
        -11    1    1    2    0    0  0.29366294826E+00 -0.52414402195E+01  0.18104655685E+03  0.18112265093E+03  0.00000000000E+00 0. -1.
         11    1    1    2    0    0  0.47123686860E+01 -0.29962584238E+01 -0.14994565680E+03  0.15004960505E+03  0.00000000000E+00 0. -1.
        -15    1    1    2    0    0 -0.22183375774E+01  0.31594622024E+01 -0.24505841927E+02  0.24871615158E+02  0.17770000000E+01 0.  1.
         15    1    1    2    0    0 -0.27876940568E+01  0.50782364409E+01 -0.65950581186E+01  0.89561288564E+01  0.17770000000E+01 0. -1.
</event>
<event>
 6    1  0.1298204E-002  0.1840917E+03  0.7546771E-02  0.1067195E+00
        -11   -1    0    0    0    0  0.00000000000E+00  0.00000000000E+00  0.18250000000E+03  0.18250000000E+03  0.00000000000E+00 0. -1.
         11   -1    0    0    0    0 -0.00000000000E+00 -0.00000000000E+00 -0.18250000000E+03  0.18250000000E+03  0.00000000000E+00 0.  1.
        -11    1    1    2    0    0 -0.19753155232E+01  0.16307962016E+01  0.16557084670E+03  0.16559065989E+03  0.00000000000E+00 0. -1.
         11    1    1    2    0    0 -0.57017168171E+01 -0.71727851075E+01 -0.18067613101E+03  0.18090832689E+03  0.00000000000E+00 0.  1.
        -15    1    1    2    0    0  0.59678590548E+01  0.39650057175E+01  0.12796991939E+02  0.14773535248E+02  0.17770000000E+01 0.  1.
         15    1    1    2    0    0  0.17091732855E+01  0.15769831883E+01  0.23082923777E+01  0.37274779673E+01  0.17770000000E+01 0. -1.
</event>
<event>
 6    1  0.1298204E-002  0.2029930E+03  0.7546771E-02  0.1053220E+00
        -11   -1    0    0    0    0  0.00000000000E+00  0.00000000000E+00  0.18250000000E+03  0.18250000000E+03  0.00000000000E+00 0. -1.
         11   -1    0    0    0    0 -0.00000000000E+00 -0.00000000000E+00 -0.18250000000E+03  0.18250000000E+03  0.00000000000E+00 0.  1.
        -11    1    1    2    0    0 -0.95800262952E-01 -0.10807646429E+01  0.75181987419E+02  0.75189816213E+02  0.00000000000E+00 0. -1.
         11    1    1    2    0    0  0.18986462727E+01 -0.16782876973E+01 -0.16198720734E+03  0.16200702716E+03  0.00000000000E+00 0.  1.
        -15    1    1    2    0    0 -0.18823054595E+02 -0.19591596913E+02 -0.84243312289E+01  0.28500265605E+02  0.17770000000E+01 0.  1.
         15    1    1    2    0    0  0.17020208586E+02  0.22350649254E+02  0.95229551155E+02  0.99302891018E+02  0.17770000000E+01 0. -1.
</event>
<event>
 6    1  0.1298204E-002  0.1830270E+03  0.7546771E-02  0.1068036E+00
        -11   -1    0    0    0    0  0.00000000000E+00  0.00000000000E+00  0.18250000000E+03  0.18250000000E+03  0.00000000000E+00 0. -1.
         11   -1    0    0    0    0 -0.00000000000E+00 -0.00000000000E+00 -0.18250000000E+03  0.18250000000E+03  0.00000000000E+00 0. -1.
        -11    1    1    2    0    0  0.13627525367E+01  0.34053183836E+01  0.18193607847E+03  0.18197304728E+03  0.00000000000E+00 0. -1.
         11    1    1    2    0    0 -0.27778206996E+01  0.13341704623E+00 -0.16757026113E+03  0.16759333670E+03  0.00000000000E+00 0. -1.
        -15    1    1    2    0    0 -0.63164351471E-01 -0.58772087552E+00 -0.54096245638E+01  0.57246111208E+01  0.17770000000E+01 0. -1.
         15    1    1    2    0    0  0.14782325144E+01 -0.29510145543E+01 -0.89561927706E+01  0.97090049032E+01  0.17770000000E+01 0.  1.
</event>
<event>
 6    1  0.1298204E-002  0.1836314E+03  0.7546771E-02  0.1067558E+00
        -11   -1    0    0    0    0  0.00000000000E+00  0.00000000000E+00  0.18250000000E+03  0.18250000000E+03  0.00000000000E+00 0.  1.
         11   -1    0    0    0    0 -0.00000000000E+00 -0.00000000000E+00 -0.18250000000E+03  0.18250000000E+03  0.00000000000E+00 0.  1.
        -11    1    1    2    0    0  0.23158470505E+01  0.17162321080E+01  0.14319291508E+03  0.14322192405E+03  0.00000000000E+00 0.  1.
         11    1    1    2    0    0 -0.40184657280E+01 -0.13007025208E+01 -0.18131937098E+03  0.18136855898E+03  0.00000000000E+00 0.  1.
        -15    1    1    2    0    0 -0.26622018797E+01 -0.42653561877E+01  0.28687891120E+02  0.29179331866E+02  0.17770000000E+01 0.  1.
         15    1    1    2    0    0  0.43648205572E+01  0.38498266005E+01  0.94385647785E+01  0.11230185102E+02  0.17770000000E+01 0. -1.
</event>
<event>
 6    1  0.1298204E-002  0.1828649E+03  0.7546771E-02  0.1068165E+00
        -11   -1    0    0    0    0  0.00000000000E+00  0.00000000000E+00  0.18250000000E+03  0.18250000000E+03  0.00000000000E+00 0.  1.
         11   -1    0    0    0    0 -0.00000000000E+00 -0.00000000000E+00 -0.18250000000E+03  0.18250000000E+03  0.00000000000E+00 0.  1.
        -11    1    1    2    0    0 -0.84572351880E+00 -0.25413087498E+01  0.18211540090E+03  0.18213509476E+03  0.00000000000E+00 0.  1.
         11    1    1    2    0    0 -0.24983087379E+00 -0.22323454794E+01 -0.12920508629E+03  0.12922461107E+03  0.00000000000E+00 0.  1.
        -15    1    1    2    0    0 -0.18908373131E-01  0.58638769237E+01 -0.43878137066E+02  0.44303883029E+02  0.17770000000E+01 0. -1.
         15    1    1    2    0    0  0.11144627657E+01 -0.10902226946E+01 -0.90321775444E+01  0.93364111399E+01  0.17770000000E+01 0. -1.
</event>
<event>
 6    1  0.1298204E-002  0.1825508E+03  0.7546771E-02  0.1068414E+00
        -11   -1    0    0    0    0  0.00000000000E+00  0.00000000000E+00  0.18250000000E+03  0.18250000000E+03  0.00000000000E+00 0. -1.
         11   -1    0    0    0    0 -0.00000000000E+00 -0.00000000000E+00 -0.18250000000E+03  0.18250000000E+03  0.00000000000E+00 0. -1.
        -11    1    1    2    0    0  0.20980133729E+01 -0.15042455242E+01  0.18243096156E+03  0.18244922622E+03  0.00000000000E+00 0. -1.
         11    1    1    2    0    0  0.37987778289E+00 -0.35539792010E+00 -0.15749331439E+02  0.15757920408E+02  0.00000000000E+00 0. -1.
        -15    1    1    2    0    0  0.72654151063E+00 -0.67200221237E-01 -0.45513780577E+02  0.45554300893E+02  0.17770000000E+01 0. -1.
         15    1    1    2    0    0 -0.32044326664E+01  0.19268436656E+01 -0.12116784954E+03  0.12123855248E+03  0.17770000000E+01 0. -1.
</event>
<event>
 6    1  0.1298204E-002  0.1650364E+03  0.7546771E-02  0.1083273E+00
        -11   -1    0    0    0    0  0.00000000000E+00  0.00000000000E+00  0.18250000000E+03  0.18250000000E+03  0.00000000000E+00 0.  1.
         11   -1    0    0    0    0 -0.00000000000E+00 -0.00000000000E+00 -0.18250000000E+03  0.18250000000E+03  0.00000000000E+00 0. -1.
        -11    1    1    2    0    0 -0.21072419143E+01 -0.16158574662E+01  0.16467455245E+03  0.16469596136E+03  0.00000000000E+00 0.  1.
         11    1    1    2    0    0  0.34528211109E+01 -0.11378731980E+02 -0.16520839438E+03  0.16563577841E+03  0.00000000000E+00 0. -1.
        -15    1    1    2    0    0  0.51903182241E+01 -0.23141111298E+01 -0.12239824911E+02  0.13611229057E+02  0.17770000000E+01 0. -1.
         15    1    1    2    0    0 -0.65358974206E+01  0.15308700576E+02  0.12773666835E+02  0.21057031174E+02  0.17770000000E+01 0.  1.
</event>
<event>
 6    1  0.1298204E-002  0.1834566E+03  0.7546771E-02  0.1067696E+00
        -11   -1    0    0    0    0  0.00000000000E+00  0.00000000000E+00  0.18250000000E+03  0.18250000000E+03  0.00000000000E+00 0.  1.
         11   -1    0    0    0    0 -0.00000000000E+00 -0.00000000000E+00 -0.18250000000E+03  0.18250000000E+03  0.00000000000E+00 0. -1.
        -11    1    1    2    0    0  0.22906880424E+01 -0.13393748822E+01  0.53458722944E+02  0.53524538631E+02  0.00000000000E+00 0.  1.
         11    1    1    2    0    0 -0.46820650013E+01 -0.12045060502E+01 -0.18147897055E+03  0.18154335383E+03  0.00000000000E+00 0. -1.
        -15    1    1    2    0    0  0.47573004475E+01 -0.55479683297E+01  0.17139987103E+02  0.18717605269E+02  0.17770000000E+01 0.  1.
         15    1    1    2    0    0 -0.23659234886E+01  0.80918492621E+01  0.11088026050E+03  0.11121450227E+03  0.17770000000E+01 0. -1.
</event>
<event>
 6    1  0.1298204E-002  0.1847152E+03  0.7546771E-02  0.1066705E+00
        -11   -1    0    0    0    0  0.00000000000E+00  0.00000000000E+00  0.18250000000E+03  0.18250000000E+03  0.00000000000E+00 0.  1.
         11   -1    0    0    0    0 -0.00000000000E+00 -0.00000000000E+00 -0.18250000000E+03  0.18250000000E+03  0.00000000000E+00 0.  1.
        -11    1    1    2    0    0  0.33445266045E+01  0.13679416211E+01  0.17414065384E+03  0.17417813997E+03  0.00000000000E+00 0.  1.
         11    1    1    2    0    0  0.25894367674E+01  0.26924570625E+00 -0.18026597798E+03  0.18028477610E+03  0.00000000000E+00 0.  1.
        -15    1    1    2    0    0 -0.53345124010E+01 -0.78624609471E+00  0.21704544906E+01  0.60781417533E+01  0.17770000000E+01 0. -1.
         15    1    1    2    0    0 -0.59945097091E+00 -0.85094123266E+00  0.39548696430E+01  0.44589421774E+01  0.17770000000E+01 0.  1.
</event>
<event>
 6    1  0.1298204E-002  0.1826847E+03  0.7546771E-02  0.1068308E+00
        -11   -1    0    0    0    0  0.00000000000E+00  0.00000000000E+00  0.18250000000E+03  0.18250000000E+03  0.00000000000E+00 0.  1.
         11   -1    0    0    0    0 -0.00000000000E+00 -0.00000000000E+00 -0.18250000000E+03  0.18250000000E+03  0.00000000000E+00 0.  1.
        -11    1    1    2    0    0  0.38215062596E+01 -0.11256723301E+01  0.18227174767E+03  0.18231527925E+03  0.00000000000E+00 0.  1.
         11    1    1    2    0    0  0.31053330056E+00 -0.16722790320E+01 -0.90487323999E+02  0.90503307965E+02  0.00000000000E+00 0.  1.
        -15    1    1    2    0    0 -0.13624784547E+01  0.13492683412E+01 -0.10607624086E+02  0.10925030450E+02  0.17770000000E+01 0. -1.
         15    1    1    2    0    0 -0.27695611054E+01  0.14486830208E+01 -0.81176799584E+02  0.81256382340E+02  0.17770000000E+01 0.  1.
</event>
<event>
 6    1  0.1298204E-002  0.1868127E+03  0.7546771E-02  0.1065073E+00
        -11   -1    0    0    0    0  0.00000000000E+00  0.00000000000E+00  0.18250000000E+03  0.18250000000E+03  0.00000000000E+00 0.  1.
         11   -1    0    0    0    0 -0.00000000000E+00 -0.00000000000E+00 -0.18250000000E+03  0.18250000000E+03  0.00000000000E+00 0.  1.
        -11    1    1    2    0    0  0.64695844617E+00 -0.24003633866E+01  0.17161806533E+03  0.17163607035E+03  0.00000000000E+00 0.  1.
         11    1    1    2    0    0 -0.56970101986E+01  0.19270011659E+01 -0.17808573291E+03  0.17818725411E+03  0.00000000000E+00 0.  1.
        -15    1    1    2    0    0  0.75467930375E+01  0.89676997683E+00 -0.22015874425E+00  0.78079754364E+01  0.17770000000E+01 0. -1.
         15    1    1    2    0    0 -0.24967412850E+01 -0.42340775606E+00  0.66878263327E+01  0.73687001044E+01  0.17770000000E+01 0. -1.
</event>
<event>
 6    1  0.1298204E-002  0.1847934E+03  0.7546771E-02  0.1066644E+00
        -11   -1    0    0    0    0  0.00000000000E+00  0.00000000000E+00  0.18250000000E+03  0.18250000000E+03  0.00000000000E+00 0. -1.
         11   -1    0    0    0    0 -0.00000000000E+00 -0.00000000000E+00 -0.18250000000E+03  0.18250000000E+03  0.00000000000E+00 0. -1.
        -11    1    1    2    0    0 -0.16604116573E+01  0.33118655258E+01  0.18016852239E+03  0.18020660887E+03  0.00000000000E+00 0. -1.
         11    1    1    2    0    0  0.48435529003E+00 -0.20564288659E+01 -0.15099121541E+03  0.15100599535E+03  0.00000000000E+00 0. -1.
        -15    1    1    2    0    0 -0.10988247244E+01 -0.56858777006E+01 -0.24372525345E+01  0.65295137581E+01  0.17770000000E+01 0.  1.
         15    1    1    2    0    0  0.22748810916E+01  0.44304410406E+01 -0.26740054440E+02  0.27257882021E+02  0.17770000000E+01 0.  1.
</event>
<event>
 6    1  0.1298204E-002  0.1831004E+03  0.7546771E-02  0.1067978E+00
        -11   -1    0    0    0    0  0.00000000000E+00  0.00000000000E+00  0.18250000000E+03  0.18250000000E+03  0.00000000000E+00 0.  1.
         11   -1    0    0    0    0 -0.00000000000E+00 -0.00000000000E+00 -0.18250000000E+03  0.18250000000E+03  0.00000000000E+00 0.  1.
        -11    1    1    2    0    0 -0.97087536240E+00  0.11788676553E+01  0.10894744078E+03  0.10895814417E+03  0.00000000000E+00 0.  1.
         11    1    1    2    0    0 -0.95664784515E+00 -0.29518272407E+01 -0.18187311521E+03  0.18189958355E+03  0.00000000000E+00 0.  1.
        -15    1    1    2    0    0 -0.32209316419E+00 -0.18585218062E+01  0.64316042896E+02  0.64368229354E+02  0.17770000000E+01 0. -1.
         15    1    1    2    0    0  0.22496163717E+01  0.36314813915E+01  0.86096315350E+01  0.97740429242E+01  0.17770000000E+01 0.  1.
</event>
<event>
 6    1  0.1298204E-002  0.1831159E+03  0.7546771E-02  0.1067966E+00
        -11   -1    0    0    0    0  0.00000000000E+00  0.00000000000E+00  0.18250000000E+03  0.18250000000E+03  0.00000000000E+00 0.  1.
         11   -1    0    0    0    0 -0.00000000000E+00 -0.00000000000E+00 -0.18250000000E+03  0.18250000000E+03  0.00000000000E+00 0.  1.
        -11    1    1    2    0    0  0.39548017160E+01  0.25465303691E+01  0.18182329174E+03  0.18188412436E+03  0.00000000000E+00 0.  1.
         11    1    1    2    0    0  0.39391526530E+01 -0.32572725600E+01 -0.67680698048E+02  0.67873438372E+02  0.00000000000E+00 0.  1.
        -15    1    1    2    0    0 -0.75354604522E+01 -0.52200821994E+01 -0.56396916618E+02  0.57164695009E+02  0.17770000000E+01 0. -1.
         15    1    1    2    0    0 -0.35849391680E+00  0.59308243904E+01 -0.57745677078E+02  0.58077742260E+02  0.17770000000E+01 0.  1.
</event>
<event>
 6    1  0.1298204E-002  0.1828671E+03  0.7546771E-02  0.1068163E+00
        -11   -1    0    0    0    0  0.00000000000E+00  0.00000000000E+00  0.18250000000E+03  0.18250000000E+03  0.00000000000E+00 0. -1.
         11   -1    0    0    0    0 -0.00000000000E+00 -0.00000000000E+00 -0.18250000000E+03  0.18250000000E+03  0.00000000000E+00 0.  1.
        -11    1    1    2    0    0  0.47464474409E+01  0.19117005371E+01  0.18206103156E+03  0.18213292556E+03  0.00000000000E+00 0. -1.
         11    1    1    2    0    0  0.30132788052E+01 -0.80671185548E+00 -0.14538517047E+02  0.14869401841E+02  0.00000000000E+00 0.  1.
        -15    1    1    2    0    0 -0.88224950477E+00 -0.58613899132E+00 -0.65777096037E+01  0.68953546491E+01  0.17770000000E+01 0.  1.
         15    1    1    2    0    0 -0.68774767414E+01 -0.51884969027E+00 -0.16094480491E+03  0.16110231795E+03  0.17770000000E+01 0.  1.
</event>
<event>
 6    1  0.1298204E-002  0.1849394E+03  0.7546771E-02  0.1066529E+00
        -11   -1    0    0    0    0  0.00000000000E+00  0.00000000000E+00  0.18250000000E+03  0.18250000000E+03  0.00000000000E+00 0. -1.
         11   -1    0    0    0    0 -0.00000000000E+00 -0.00000000000E+00 -0.18250000000E+03  0.18250000000E+03  0.00000000000E+00 0. -1.
        -11    1    1    2    0    0 -0.44165478781E+01  0.80660366610E-01  0.33700898166E+02  0.33989159131E+02  0.00000000000E+00 0. -1.
         11    1    1    2    0    0 -0.53382327548E+01 -0.20535598077E+01 -0.17996976606E+03  0.18006063016E+03  0.00000000000E+00 0. -1.
        -15    1    1    2    0    0  0.90705261844E+01  0.20326471987E+01  0.14804404203E+03  0.14834622412E+03  0.17770000000E+01 0. -1.
         15    1    1    2    0    0  0.68425444845E+00 -0.59747757574E-01 -0.17751741388E+01  0.26039865913E+01  0.17770000000E+01 0.  1.
</event>
<event>
 6    1  0.1298204E-002  0.1865424E+03  0.7546771E-02  0.1065282E+00
        -11   -1    0    0    0    0  0.00000000000E+00  0.00000000000E+00  0.18250000000E+03  0.18250000000E+03  0.00000000000E+00 0.  1.
         11   -1    0    0    0    0 -0.00000000000E+00 -0.00000000000E+00 -0.18250000000E+03  0.18250000000E+03  0.00000000000E+00 0. -1.
        -11    1    1    2    0    0  0.59231108750E+01  0.15633443999E+01  0.17835242754E+03  0.17845760196E+03  0.00000000000E+00 0.  1.
         11    1    1    2    0    0 -0.17902062004E+01  0.45524604510E+01 -0.16019174004E+03  0.16026641355E+03  0.00000000000E+00 0. -1.
        -15    1    1    2    0    0  0.10424498848E+01 -0.83231232471E+01 -0.18474506231E+02  0.20367282387E+02  0.17770000000E+01 0. -1.
         15    1    1    2    0    0 -0.51753545594E+01  0.22073183961E+01  0.31381872678E+00  0.59087021004E+01  0.17770000000E+01 0.  1.
</event>
<event>
 6    1  0.1298204E-002  0.1902150E+03  0.7546771E-02  0.1062474E+00
        -11   -1    0    0    0    0  0.00000000000E+00  0.00000000000E+00  0.18250000000E+03  0.18250000000E+03  0.00000000000E+00 0.  1.
         11   -1    0    0    0    0 -0.00000000000E+00 -0.00000000000E+00 -0.18250000000E+03  0.18250000000E+03  0.00000000000E+00 0. -1.
        -11    1    1    2    0    0  0.49909832721E+01  0.39765111670E+01  0.17466843094E+03  0.17478496309E+03  0.00000000000E+00 0.  1.
         11    1    1    2    0    0  0.17681469839E+01 -0.13546209558E+02 -0.10215343404E+03  0.10306284599E+03  0.00000000000E+00 0. -1.
        -15    1    1    2    0    0 -0.61597432113E+00  0.11401995359E+02 -0.77801535541E+02  0.78655079836E+02  0.17770000000E+01 0.  1.
         15    1    1    2    0    0 -0.61431559348E+01 -0.18322969678E+01  0.52865386447E+01  0.84971110891E+01  0.17770000000E+01 0. -1.
</event>
<event>
 6    1  0.1298204E-002  0.1829537E+03  0.7546771E-02  0.1068094E+00
        -11   -1    0    0    0    0  0.00000000000E+00  0.00000000000E+00  0.18250000000E+03  0.18250000000E+03  0.00000000000E+00 0. -1.
         11   -1    0    0    0    0 -0.00000000000E+00 -0.00000000000E+00 -0.18250000000E+03  0.18250000000E+03  0.00000000000E+00 0. -1.
        -11    1    1    2    0    0 -0.85175552453E+00  0.28884936217E+01  0.18202134509E+03  0.18204625497E+03  0.00000000000E+00 0. -1.
         11    1    1    2    0    0 -0.76886366182E+00 -0.70441829499E-01 -0.55751573357E+02  0.55756919258E+02  0.00000000000E+00 0. -1.
        -15    1    1    2    0    0 -0.32193298214E+01 -0.19494903514E+01 -0.10298048170E+02  0.11107300403E+02  0.17770000000E+01 0.  1.
         15    1    1    2    0    0  0.48399490077E+01 -0.86856144083E+00 -0.11597172356E+03  0.11608952537E+03  0.17770000000E+01 0. -1.
</event>
<event>
 6    1  0.1298204E-002  0.1848657E+03  0.7546771E-02  0.1066587E+00
        -11   -1    0    0    0    0  0.00000000000E+00  0.00000000000E+00  0.18250000000E+03  0.18250000000E+03  0.00000000000E+00 0.  1.
         11   -1    0    0    0    0 -0.00000000000E+00 -0.00000000000E+00 -0.18250000000E+03  0.18250000000E+03  0.00000000000E+00 0.  1.
        -11    1    1    2    0    0  0.54295448629E+00 -0.32837329037E+01  0.18010358569E+03  0.18013433676E+03  0.00000000000E+00 0.  1.
         11    1    1    2    0    0 -0.20329459145E+01 -0.10012254983E+01 -0.16247311953E+03  0.16248892236E+03  0.00000000000E+00 0.  1.
        -15    1    1    2    0    0  0.13644566026E+01  0.16864881636E+01  0.13670937571E+01  0.31197208989E+01  0.17770000000E+01 0. -1.
         15    1    1    2    0    0  0.12553482558E+00  0.25984702384E+01 -0.18997559921E+02  0.19257019980E+02  0.17770000000E+01 0.  1.
</event>
<event>
 6    1  0.1298204E-002  0.1927163E+03  0.7546771E-02  0.1060601E+00
        -11   -1    0    0    0    0  0.00000000000E+00  0.00000000000E+00  0.18250000000E+03  0.18250000000E+03  0.00000000000E+00 0.  1.
         11   -1    0    0    0    0 -0.00000000000E+00 -0.00000000000E+00 -0.18250000000E+03  0.18250000000E+03  0.00000000000E+00 0. -1.
        -11    1    1    2    0    0  0.16364645513E+01  0.89929761969E+01  0.17204107188E+03  0.17228372543E+03  0.00000000000E+00 0.  1.
         11    1    1    2    0    0 -0.13945547313E+01  0.14858233962E+01 -0.13796194990E+03  0.13797699835E+03  0.00000000000E+00 0. -1.
        -15    1    1    2    0    0 -0.79798377248E+01 -0.10649590242E+02 -0.41654309031E+02  0.43764492140E+02  0.17770000000E+01 0. -1.
         15    1    1    2    0    0  0.77379279048E+01  0.17079064899E+00  0.75751870517E+01  0.10974784079E+02  0.17770000000E+01 0.  1.
</event>
<event>
 6    1  0.1298204E-002  0.1834602E+03  0.7546771E-02  0.1067693E+00
        -11   -1    0    0    0    0  0.00000000000E+00  0.00000000000E+00  0.18250000000E+03  0.18250000000E+03  0.00000000000E+00 0. -1.
         11   -1    0    0    0    0 -0.00000000000E+00 -0.00000000000E+00 -0.18250000000E+03  0.18250000000E+03  0.00000000000E+00 0.  1.
        -11    1    1    2    0    0 -0.12586962872E+00  0.33504432806E+01  0.15205753483E+03  0.15209449435E+03  0.00000000000E+00 0. -1.
         11    1    1    2    0    0 -0.39407789385E+00 -0.34754693807E+01 -0.18150606947E+03  0.18153976821E+03  0.00000000000E+00 0.  1.
        -15    1    1    2    0    0  0.37688658435E+01 -0.35519918613E+01  0.17241374816E+02  0.18089879228E+02  0.17770000000E+01 0. -1.
         15    1    1    2    0    0 -0.32489183210E+01  0.36770179614E+01  0.12207159826E+02  0.13275858216E+02  0.17770000000E+01 0.  1.
</event>
<event>
 6    1  0.1298204E-002  0.1940181E+03  0.7546771E-02  0.1059639E+00
        -11   -1    0    0    0    0  0.00000000000E+00  0.00000000000E+00  0.18250000000E+03  0.18250000000E+03  0.00000000000E+00 0. -1.
         11   -1    0    0    0    0 -0.00000000000E+00 -0.00000000000E+00 -0.18250000000E+03  0.18250000000E+03  0.00000000000E+00 0.  1.
        -11    1    1    2    0    0 -0.14727563525E+02 -0.38542949411E+01  0.13906928029E+03  0.13990004088E+03  0.00000000000E+00 0. -1.
         11    1    1    2    0    0 -0.84334535168E+01  0.15134250651E+02 -0.17010187091E+03  0.17098191474E+03  0.00000000000E+00 0.  1.
        -15    1    1    2    0    0  0.10819919755E+02 -0.20219848445E+02  0.44533732656E+01  0.23428683213E+02  0.17770000000E+01 0. -1.
         15    1    1    2    0    0  0.12341097286E+02  0.89398927353E+01  0.26579217360E+02  0.30689361167E+02  0.17770000000E+01 0.  1.
</event>
<event>
 6    1  0.1298204E-002  0.2174414E+03  0.7546771E-02  0.1043610E+00
        -11   -1    0    0    0    0  0.00000000000E+00  0.00000000000E+00  0.18250000000E+03  0.18250000000E+03  0.00000000000E+00 0.  1.
         11   -1    0    0    0    0 -0.00000000000E+00 -0.00000000000E+00 -0.18250000000E+03  0.18250000000E+03  0.00000000000E+00 0. -1.
        -11    1    1    2    0    0 -0.35181865666E+01  0.13619388915E+01  0.12849981508E+03  0.12855518266E+03  0.00000000000E+00 0.  1.
         11    1    1    2    0    0  0.11529863803E+02 -0.83628064045E+01 -0.14686959511E+03  0.14755864007E+03  0.00000000000E+00 0. -1.
        -15    1    1    2    0    0 -0.13393387402E+02  0.70962000120E+01 -0.33445002316E+02  0.36762274000E+02  0.17770000000E+01 0. -1.
         15    1    1    2    0    0  0.53817101657E+01 -0.95332499001E-01  0.51814782350E+02  0.52123903265E+02  0.17770000000E+01 0.  1.
</event>
<event>
 6    1  0.1298204E-002  0.1833665E+03  0.7546771E-02  0.1067767E+00
        -11   -1    0    0    0    0  0.00000000000E+00  0.00000000000E+00  0.18250000000E+03  0.18250000000E+03  0.00000000000E+00 0.  1.
         11   -1    0    0    0    0 -0.00000000000E+00 -0.00000000000E+00 -0.18250000000E+03  0.18250000000E+03  0.00000000000E+00 0. -1.
        -11    1    1    2    0    0  0.14039694906E+01 -0.11843907305E+01  0.13263540645E+03  0.13264812458E+03  0.00000000000E+00 0.  1.
         11    1    1    2    0    0 -0.44289903192E+01  0.56432641705E+01 -0.18149175920E+03  0.18163347996E+03  0.00000000000E+00 0. -1.
        -15    1    1    2    0    0  0.27341026982E+01 -0.59642300645E+01  0.12032106157E+02  0.13819430719E+02  0.17770000000E+01 0.  1.
         15    1    1    2    0    0  0.29091813041E+00  0.15053566245E+01  0.36824246597E+02  0.36898964733E+02  0.17770000000E+01 0. -1.
</event>
<event>
 6    1  0.1298204E-002  0.1847436E+03  0.7546771E-02  0.1066683E+00
        -11   -1    0    0    0    0  0.00000000000E+00  0.00000000000E+00  0.18250000000E+03  0.18250000000E+03  0.00000000000E+00 0. -1.
         11   -1    0    0    0    0 -0.00000000000E+00 -0.00000000000E+00 -0.18250000000E+03  0.18250000000E+03  0.00000000000E+00 0.  1.
        -11    1    1    2    0    0  0.35128688346E+01 -0.22469597466E+00  0.14575217012E+03  0.14579467010E+03  0.00000000000E+00 0. -1.
         11    1    1    2    0    0 -0.30258844630E+01  0.84594979251E+00 -0.18022898709E+03  0.18025637131E+03  0.00000000000E+00 0.  1.
        -15    1    1    2    0    0  0.50949320940E+01 -0.64839801557E+00  0.17611677292E+01  0.57129846665E+01  0.17770000000E+01 0. -1.
         15    1    1    2    0    0 -0.55819164657E+01  0.27144197720E-01  0.32715649243E+02  0.33235973923E+02  0.17770000000E+01 0. -1.
</event>
<event>
 6    1  0.1298204E-002  0.1828261E+03  0.7546771E-02  0.1068196E+00
        -11   -1    0    0    0    0  0.00000000000E+00  0.00000000000E+00  0.18250000000E+03  0.18250000000E+03  0.00000000000E+00 0. -1.
         11   -1    0    0    0    0 -0.00000000000E+00 -0.00000000000E+00 -0.18250000000E+03  0.18250000000E+03  0.00000000000E+00 0.  1.
        -11    1    1    2    0    0  0.27921823354E+01 -0.22138883526E+01  0.18213907734E+03  0.18217393084E+03  0.00000000000E+00 0. -1.
         11    1    1    2    0    0 -0.34182605517E+01 -0.12774456558E+01 -0.86279479665E+02  0.86356615172E+02  0.00000000000E+00 0.  1.
        -15    1    1    2    0    0 -0.21170438649E+01  0.20250471335E+01 -0.10714671355E+02  0.11249204499E+02  0.17770000000E+01 0.  1.
         15    1    1    2    0    0  0.27431220813E+01  0.14662868749E+01 -0.85144926320E+02  0.85220249489E+02  0.17770000000E+01 0.  1.
</event>
<event>
 6    1  0.1298204E-002  0.1855061E+03  0.7546771E-02  0.1066087E+00
        -11   -1    0    0    0    0  0.00000000000E+00  0.00000000000E+00  0.18250000000E+03  0.18250000000E+03  0.00000000000E+00 0.  1.
         11   -1    0    0    0    0 -0.00000000000E+00 -0.00000000000E+00 -0.18250000000E+03  0.18250000000E+03  0.00000000000E+00 0.  1.
        -11    1    1    2    0    0 -0.28724927812E+01 -0.40616546577E+01  0.17942499603E+03  0.17949394823E+03  0.00000000000E+00 0.  1.
         11    1    1    2    0    0 -0.15988761631E+01  0.21281110976E+01 -0.15505072334E+03  0.15507356987E+03  0.00000000000E+00 0.  1.
        -15    1    1    2    0    0  0.17751166763E+01  0.31219488670E+01  0.15385962377E+01  0.42921569549E+01  0.17770000000E+01 0. -1.
         15    1    1    2    0    0  0.26962522680E+01 -0.11884053069E+01 -0.25912868920E+02  0.26140324943E+02  0.17770000000E+01 0.  1.
</event>
<event>
 6    1  0.1298204E-002  0.1926123E+03  0.7546771E-02  0.1060679E+00
        -11   -1    0    0    0    0  0.00000000000E+00  0.00000000000E+00  0.18250000000E+03  0.18250000000E+03  0.00000000000E+00 0. -1.
         11   -1    0    0    0    0 -0.00000000000E+00 -0.00000000000E+00 -0.18250000000E+03  0.18250000000E+03  0.00000000000E+00 0. -1.
        -11    1    1    2    0    0 -0.20819204195E+01  0.13374965350E+02  0.13915022710E+03  0.13980704487E+03  0.00000000000E+00 0. -1.
         11    1    1    2    0    0 -0.14542175082E+01  0.45346366868E+01 -0.17232188688E+03  0.17238767466E+03  0.00000000000E+00 0. -1.
        -15    1    1    2    0    0  0.92577899332E+01 -0.11583079479E+02 -0.33107191383E+01  0.15296829569E+02  0.17770000000E+01 0. -1.
         15    1    1    2    0    0 -0.57216520054E+01 -0.63265225582E+01  0.36482378909E+02  0.37508450904E+02  0.17770000000E+01 0.  1.
</event>
<event>
 6    1  0.1298204E-002  0.1840602E+03  0.7546771E-02  0.1067220E+00
        -11   -1    0    0    0    0  0.00000000000E+00  0.00000000000E+00  0.18250000000E+03  0.18250000000E+03  0.00000000000E+00 0. -1.
         11   -1    0    0    0    0 -0.00000000000E+00 -0.00000000000E+00 -0.18250000000E+03  0.18250000000E+03  0.00000000000E+00 0. -1.
        -11    1    1    2    0    0 -0.47676876195E+01  0.41289857704E+01  0.18082981321E+03  0.18093977096E+03  0.00000000000E+00 0. -1.
         11    1    1    2    0    0 -0.24542724922E+01 -0.41525988214E+01 -0.16539551769E+03  0.16546584180E+03  0.00000000000E+00 0. -1.
        -15    1    1    2    0    0  0.77395242193E+01  0.13752341590E+01 -0.12467696976E+02  0.14845629021E+02  0.17770000000E+01 0.  1.
         15    1    1    2    0    0 -0.51756410759E+00 -0.13516211079E+01 -0.29665985455E+01  0.37487582151E+01  0.17770000000E+01 0. -1.
</event>
<event>
 6    1  0.1298204E-002  0.1838674E+03  0.7546771E-02  0.1067372E+00
        -11   -1    0    0    0    0  0.00000000000E+00  0.00000000000E+00  0.18250000000E+03  0.18250000000E+03  0.00000000000E+00 0.  1.
         11   -1    0    0    0    0 -0.00000000000E+00 -0.00000000000E+00 -0.18250000000E+03  0.18250000000E+03  0.00000000000E+00 0.  1.
        -11    1    1    2    0    0 -0.45188746083E+00 -0.40636898360E+01  0.18108643089E+03  0.18113258467E+03  0.00000000000E+00 0.  1.
         11    1    1    2    0    0 -0.38967694328E+01 -0.87462556620E+00 -0.16726582674E+03  0.16731349789E+03  0.00000000000E+00 0.  1.
        -15    1    1    2    0    0  0.49221025150E+01  0.19432317573E+01 -0.84903857671E+01  0.10161083717E+02  0.17770000000E+01 0.  1.
         15    1    1    2    0    0 -0.57344562136E+00  0.29950836449E+01 -0.53302183884E+01  0.63928337214E+01  0.17770000000E+01 0. -1.
</event>
<event>
 6    1  0.1298204E-002  0.1851692E+03  0.7546771E-02  0.1066350E+00
        -11   -1    0    0    0    0  0.00000000000E+00  0.00000000000E+00  0.18250000000E+03  0.18250000000E+03  0.00000000000E+00 0. -1.
         11   -1    0    0    0    0 -0.00000000000E+00 -0.00000000000E+00 -0.18250000000E+03  0.18250000000E+03  0.00000000000E+00 0.  1.
        -11    1    1    2    0    0 -0.60833400571E+00 -0.42596264393E+01  0.17977933796E+03  0.17983082285E+03  0.00000000000E+00 0. -1.
         11    1    1    2    0    0 -0.26116768925E+01  0.68326772482E+01 -0.15383626570E+03  0.15401007427E+03  0.00000000000E+00 0.  1.
        -15    1    1    2    0    0  0.69478636634E+01 -0.76272476089E+01 -0.18523299454E+02  0.21277172445E+02  0.17770000000E+01 0.  1.
         15    1    1    2    0    0 -0.37278527652E+01  0.50541968000E+01 -0.74197728130E+01  0.98819304353E+01  0.17770000000E+01 0. -1.
</event>
<event>
 6    1  0.1298204E-002  0.1828819E+03  0.7546771E-02  0.1068151E+00
        -11   -1    0    0    0    0  0.00000000000E+00  0.00000000000E+00  0.18250000000E+03  0.18250000000E+03  0.00000000000E+00 0.  1.
         11   -1    0    0    0    0 -0.00000000000E+00 -0.00000000000E+00 -0.18250000000E+03  0.18250000000E+03  0.00000000000E+00 0.  1.
        -11    1    1    2    0    0  0.34682504133E-02 -0.15135976027E+01  0.71884906011E+02  0.71900839369E+02  0.00000000000E+00 0.  1.
         11    1    1    2    0    0  0.21141472718E+01 -0.41591723448E+01 -0.18205829064E+03  0.18211806479E+03  0.00000000000E+00 0.  1.
        -15    1    1    2    0    0 -0.11036041024E+01  0.40984302604E+01  0.13302917858E+02  0.14076236186E+02  0.17770000000E+01 0. -1.
         15    1    1    2    0    0 -0.10140114198E+01  0.15743396872E+01  0.96870466766E+02  0.96904859657E+02  0.17770000000E+01 0.  1.
</event>
<event>
 6    1  0.1298204E-002  0.1842572E+03  0.7546771E-02  0.1067065E+00
        -11   -1    0    0    0    0  0.00000000000E+00  0.00000000000E+00  0.18250000000E+03  0.18250000000E+03  0.00000000000E+00 0.  1.
         11   -1    0    0    0    0 -0.00000000000E+00 -0.00000000000E+00 -0.18250000000E+03  0.18250000000E+03  0.00000000000E+00 0. -1.
        -11    1    1    2    0    0  0.16128489095E+00 -0.30875915460E+01  0.17345866534E+03  0.17348621794E+03  0.00000000000E+00 0.  1.
         11    1    1    2    0    0  0.88747449552E+00 -0.28317692631E+01 -0.18071838789E+03  0.18074275159E+03  0.00000000000E+00 0. -1.
        -15    1    1    2    0    0 -0.50120900463E+00  0.31779733724E+00  0.84827461276E+00  0.20565759000E+01  0.17770000000E+01 0.  1.
         15    1    1    2    0    0 -0.54755038184E+00  0.56015634719E+01  0.64114479427E+01  0.87144545711E+01  0.17770000000E+01 0. -1.
</event>
<event>
 6    1  0.1298204E-002  0.1839938E+03  0.7546771E-02  0.1067272E+00
        -11   -1    0    0    0    0  0.00000000000E+00  0.00000000000E+00  0.18250000000E+03  0.18250000000E+03  0.00000000000E+00 0.  1.
         11   -1    0    0    0    0 -0.00000000000E+00 -0.00000000000E+00 -0.18250000000E+03  0.18250000000E+03  0.00000000000E+00 0. -1.
        -11    1    1    2    0    0  0.19551826632E+01 -0.38347896324E+01  0.17381261228E+03  0.17386590390E+03  0.00000000000E+00 0.  1.
         11    1    1    2    0    0 -0.47687471835E+01  0.35065482700E+01 -0.18090943629E+03  0.18100624567E+03  0.00000000000E+00 0. -1.
        -15    1    1    2    0    0 -0.47333998122E+00 -0.27505203102E+00  0.58569892810E+01  0.61450595436E+01  0.17770000000E+01 0. -1.
         15    1    1    2    0    0  0.32869045015E+01  0.60329339344E+00  0.12398347317E+01  0.39827908912E+01  0.17770000000E+01 0.  1.
</event>
<event>
 6    1  0.1987854E-002  0.1825926E+03  0.7546771E-02  0.1068381E+00
        -11   -1    0    0    0    0  0.00000000000E+00  0.00000000000E+00  0.18250000000E+03  0.18250000000E+03  0.00000000000E+00 0. -1.
         11   -1    0    0    0    0 -0.00000000000E+00 -0.00000000000E+00 -0.18250000000E+03  0.18250000000E+03  0.00000000000E+00 0.  1.
        -11    1    1    2    0    0  0.11231846555E+01 -0.28685763943E+01  0.18238140411E+03  0.18240741992E+03  0.00000000000E+00 0. -1.
         11    1    1    2    0    0 -0.48235886025E+00 -0.42977642045E+00 -0.40412325943E+02  0.40417489605E+02  0.00000000000E+00 0.  1.
        -15    1    1    2    0    0 -0.27150021994E+01  0.35530692876E+01 -0.79126448099E+02  0.79272618577E+02  0.17770000000E+01 0.  1.
         15    1    1    2    0    0  0.20741764042E+01 -0.25471647276E+00 -0.62842630071E+02  0.62902471902E+02  0.17770000000E+01 0. -1.
</event>
<event>
 6    1  0.1298204E-002  0.1839105E+03  0.7546771E-02  0.1067338E+00
        -11   -1    0    0    0    0  0.00000000000E+00  0.00000000000E+00  0.18250000000E+03  0.18250000000E+03  0.00000000000E+00 0. -1.
         11   -1    0    0    0    0 -0.00000000000E+00 -0.00000000000E+00 -0.18250000000E+03  0.18250000000E+03  0.00000000000E+00 0. -1.
        -11    1    1    2    0    0 -0.28515645661E+01  0.41684727954E+00  0.18106659887E+03  0.18108953147E+03  0.00000000000E+00 0. -1.
         11    1    1    2    0    0  0.38543830508E+01 -0.50761035179E-02 -0.16639158483E+03  0.16643622140E+03  0.00000000000E+00 0. -1.
        -15    1    1    2    0    0 -0.28058567886E+01 -0.60440952015E+00 -0.14545495965E+02  0.14932090445E+02  0.17770000000E+01 0.  1.
         15    1    1    2    0    0  0.18030383040E+01  0.19263834413E+00 -0.12951807816E+00  0.25421566808E+01  0.17770000000E+01 0. -1.
</event>
<event>
 6    1  0.1298204E-002  0.1850446E+03  0.7546771E-02  0.1066447E+00
        -11   -1    0    0    0    0  0.00000000000E+00  0.00000000000E+00  0.18250000000E+03  0.18250000000E+03  0.00000000000E+00 0. -1.
         11   -1    0    0    0    0 -0.00000000000E+00 -0.00000000000E+00 -0.18250000000E+03  0.18250000000E+03  0.00000000000E+00 0.  1.
        -11    1    1    2    0    0 -0.48710847297E+01 -0.28043215374E+01  0.17986759980E+03  0.17995539765E+03  0.00000000000E+00 0. -1.
         11    1    1    2    0    0 -0.36855622178E+01  0.68935766327E+01 -0.15220632932E+03  0.15240692718E+03  0.00000000000E+00 0.  1.
        -15    1    1    2    0    0  0.42189446616E+01 -0.86132018211E+01 -0.21765952213E+02  0.23851648673E+02  0.17770000000E+01 0. -1.
         15    1    1    2    0    0  0.43377022859E+01  0.45239467258E+01 -0.58953182657E+01  0.87860264939E+01  0.17770000000E+01 0.  1.
</event>
<event>
 6    1  0.1298204E-002  0.1829058E+03  0.7546771E-02  0.1068132E+00
        -11   -1    0    0    0    0  0.00000000000E+00  0.00000000000E+00  0.18250000000E+03  0.18250000000E+03  0.00000000000E+00 0.  1.
         11   -1    0    0    0    0 -0.00000000000E+00 -0.00000000000E+00 -0.18250000000E+03  0.18250000000E+03  0.00000000000E+00 0.  1.
        -11    1    1    2    0    0 -0.27365481258E+01 -0.43612450128E+00  0.18207311977E+03  0.18209420596E+03  0.00000000000E+00 0.  1.
         11    1    1    2    0    0 -0.11831852220E+01 -0.49012438364E+01 -0.11549175371E+03  0.11560176163E+03  0.00000000000E+00 0.  1.
        -15    1    1    2    0    0  0.45550670068E+01  0.54649641540E+01 -0.60295034527E+02  0.60739306765E+02  0.17770000000E+01 0.  1.
         15    1    1    2    0    0 -0.63533365900E+00 -0.12759581632E+00 -0.62863315368E+01  0.65647256410E+01  0.17770000000E+01 0.  1.
</event>
<event>
 6    1  0.1298204E-002  0.1825815E+03  0.7546771E-02  0.1068390E+00
        -11   -1    0    0    0    0  0.00000000000E+00  0.00000000000E+00  0.18250000000E+03  0.18250000000E+03  0.00000000000E+00 0.  1.
         11   -1    0    0    0    0 -0.00000000000E+00 -0.00000000000E+00 -0.18250000000E+03  0.18250000000E+03  0.00000000000E+00 0. -1.
        -11    1    1    2    0    0  0.23460305276E+01 -0.75821721506E+00  0.18240184269E+03  0.18241850500E+03  0.00000000000E+00 0.  1.
         11    1    1    2    0    0 -0.43755148504E+00  0.17293550107E+01 -0.31798473400E+02  0.31848469831E+02  0.00000000000E+00 0. -1.
        -15    1    1    2    0    0 -0.98716011146E+00  0.16283898227E+01 -0.92863603761E+02  0.92900122557E+02  0.17770000000E+01 0. -1.
         15    1    1    2    0    0 -0.92131893109E+00 -0.25995276184E+01 -0.57739765524E+02  0.57832902609E+02  0.17770000000E+01 0. -1.
</event>
<event>
 6    1  0.1298204E-002  0.2109805E+03  0.7546771E-02  0.1047804E+00
        -11   -1    0    0    0    0  0.00000000000E+00  0.00000000000E+00  0.18250000000E+03  0.18250000000E+03  0.00000000000E+00 0.  1.
         11   -1    0    0    0    0 -0.00000000000E+00 -0.00000000000E+00 -0.18250000000E+03  0.18250000000E+03  0.00000000000E+00 0. -1.
        -11    1    1    2    0    0 -0.19321037188E+01  0.32167956812E+00  0.10884071245E+03  0.10885833541E+03  0.00000000000E+00 0.  1.
         11    1    1    2    0    0  0.70011323533E+01 -0.96236809455E+01 -0.15355903113E+03  0.15401950244E+03  0.00000000000E+00 0. -1.
        -15    1    1    2    0    0 -0.57707786042E+01  0.37615291251E+01 -0.28141631384E+02  0.29026886382E+02  0.17770000000E+01 0. -1.
         15    1    1    2    0    0  0.70174996965E+00  0.55404722522E+01  0.72859950073E+02  0.73095275767E+02  0.17770000000E+01 0.  1.
</event>
<event>
 6    1  0.1298204E-002  0.1932731E+03  0.7546771E-02  0.1060189E+00
        -11   -1    0    0    0    0  0.00000000000E+00  0.00000000000E+00  0.18250000000E+03  0.18250000000E+03  0.00000000000E+00 0.  1.
         11   -1    0    0    0    0 -0.00000000000E+00 -0.00000000000E+00 -0.18250000000E+03  0.18250000000E+03  0.00000000000E+00 0.  1.
        -11    1    1    2    0    0  0.12513759334E+01  0.44625497132E+01  0.17166432972E+03  0.17172688314E+03  0.00000000000E+00 0.  1.
         11    1    1    2    0    0  0.81595099272E+00  0.44635134069E+01 -0.14347576173E+03  0.14354749365E+03  0.00000000000E+00 0.  1.
        -15    1    1    2    0    0 -0.34058947637E+01 -0.20665702482E+01  0.99747964330E+01  0.10886924479E+02  0.17770000000E+01 0.  1.
         15    1    1    2    0    0  0.13385678376E+01 -0.68594928719E+01 -0.38163364427E+02  0.38838698739E+02  0.17770000000E+01 0.  1.
</event>
<event>
 6    1  0.1298204E-002  0.1967330E+03  0.7546771E-02  0.1057658E+00
        -11   -1    0    0    0    0  0.00000000000E+00  0.00000000000E+00  0.18250000000E+03  0.18250000000E+03  0.00000000000E+00 0. -1.
         11   -1    0    0    0    0 -0.00000000000E+00 -0.00000000000E+00 -0.18250000000E+03  0.18250000000E+03  0.00000000000E+00 0.  1.
        -11    1    1    2    0    0 -0.98451894251E+01 -0.54577947756E+01  0.16789004240E+03  0.16826699503E+03  0.00000000000E+00 0. -1.
         11    1    1    2    0    0  0.37632980245E+01 -0.84199052195E+01 -0.14741108750E+03  0.14769930918E+03  0.00000000000E+00 0.  1.
        -15    1    1    2    0    0  0.60004591796E+01 -0.32007144994E+01  0.11070952786E+02  0.13113878460E+02  0.17770000000E+01 0.  1.
         15    1    1    2    0    0  0.81432221055E-01  0.17078414495E+02 -0.31549907689E+02  0.35919817330E+02  0.17770000000E+01 0. -1.
</event>
<event>
 6    1  0.1298204E-002  0.1840614E+03  0.7546771E-02  0.1067219E+00
        -11   -1    0    0    0    0  0.00000000000E+00  0.00000000000E+00  0.18250000000E+03  0.18250000000E+03  0.00000000000E+00 0. -1.
         11   -1    0    0    0    0 -0.00000000000E+00 -0.00000000000E+00 -0.18250000000E+03  0.18250000000E+03  0.00000000000E+00 0. -1.
        -11    1    1    2    0    0 -0.45761232912E+00  0.27659128625E+01  0.14132764900E+03  0.14135545286E+03  0.00000000000E+00 0. -1.
         11    1    1    2    0    0 -0.18341521088E+01  0.18713108635E+01 -0.18091959467E+03  0.18093856873E+03  0.00000000000E+00 0. -1.
        -15    1    1    2    0    0  0.57777911958E-01 -0.26329027872E+01  0.22513658736E+00  0.31849538233E+01  0.17770000000E+01 0.  1.
         15    1    1    2    0    0  0.22339865260E+01 -0.20043209389E+01  0.39366809082E+02  0.39521024588E+02  0.17770000000E+01 0.  1.
</event>
<event>
 6    1  0.1298204E-002  0.1893458E+03  0.7546771E-02  0.1063133E+00
        -11   -1    0    0    0    0  0.00000000000E+00  0.00000000000E+00  0.18250000000E+03  0.18250000000E+03  0.00000000000E+00 0.  1.
         11   -1    0    0    0    0 -0.00000000000E+00 -0.00000000000E+00 -0.18250000000E+03  0.18250000000E+03  0.00000000000E+00 0.  1.
        -11    1    1    2    0    0 -0.45086062001E+01 -0.30509599539E+01  0.17135870024E+03  0.17144515168E+03  0.00000000000E+00 0.  1.
         11    1    1    2    0    0  0.18378383745E+01  0.56037057913E+01 -0.17555521139E+03  0.17565423825E+03  0.00000000000E+00 0.  1.
        -15    1    1    2    0    0 -0.94248413849E+00 -0.45751869442E+01 -0.53639770739E+01  0.73314794534E+01  0.17770000000E+01 0.  1.
         15    1    1    2    0    0  0.36132519641E+01  0.20224411068E+01  0.95604882306E+01  0.10569130617E+02  0.17770000000E+01 0. -1.
</event>
<event>
 6    1  0.1298204E-002  0.1850049E+03  0.7546771E-02  0.1066478E+00
        -11   -1    0    0    0    0  0.00000000000E+00  0.00000000000E+00  0.18250000000E+03  0.18250000000E+03  0.00000000000E+00 0. -1.
         11   -1    0    0    0    0 -0.00000000000E+00 -0.00000000000E+00 -0.18250000000E+03  0.18250000000E+03  0.00000000000E+00 0.  1.
        -11    1    1    2    0    0  0.32485376056E+01 -0.52944838093E+01  0.84856769528E+02  0.85083816852E+02  0.00000000000E+00 0. -1.
         11    1    1    2    0    0  0.17040156001E+01 -0.23414471085E+01 -0.17997179724E+03  0.17999509395E+03  0.00000000000E+00 0.  1.
        -15    1    1    2    0    0 -0.94402407451E+01 -0.76923974845E+01  0.60752820098E+02  0.61986724411E+02  0.17770000000E+01 0. -1.
         15    1    1    2    0    0  0.44876875394E+01  0.15328328402E+02  0.34362207612E+02  0.37934364790E+02  0.17770000000E+01 0.  1.
</event>
<event>
 6    1  0.1298204E-002  0.1831858E+03  0.7546771E-02  0.1067910E+00
        -11   -1    0    0    0    0  0.00000000000E+00  0.00000000000E+00  0.18250000000E+03  0.18250000000E+03  0.00000000000E+00 0.  1.
         11   -1    0    0    0    0 -0.00000000000E+00 -0.00000000000E+00 -0.18250000000E+03  0.18250000000E+03  0.00000000000E+00 0.  1.
        -11    1    1    2    0    0  0.56553297312E+00  0.52485030251E+01  0.18173750542E+03  0.18181415646E+03  0.00000000000E+00 0.  1.
         11    1    1    2    0    0 -0.89482309440E+00  0.15091843600E+01 -0.12286892816E+03  0.12288145447E+03  0.00000000000E+00 0.  1.
        -15    1    1    2    0    0  0.42871656205E+01 -0.62398735653E+01 -0.25743745776E+02  0.26892638151E+02  0.17770000000E+01 0. -1.
         15    1    1    2    0    0 -0.39578754992E+01 -0.51781381983E+00 -0.33124831486E+02  0.33411750921E+02  0.17770000000E+01 0.  1.
</event>
<event>
 6    1  0.1298204E-002  0.1903351E+03  0.7546771E-02  0.1062384E+00
        -11   -1    0    0    0    0  0.00000000000E+00  0.00000000000E+00  0.18250000000E+03  0.18250000000E+03  0.00000000000E+00 0.  1.
         11   -1    0    0    0    0 -0.00000000000E+00 -0.00000000000E+00 -0.18250000000E+03  0.18250000000E+03  0.00000000000E+00 0. -1.
        -11    1    1    2    0    0 -0.86800736400E+00 -0.29124019301E+01  0.15776370191E+03  0.15779296931E+03  0.00000000000E+00 0.  1.
         11    1    1    2    0    0 -0.37428347194E+01 -0.41004783046E+01 -0.17457667410E+03  0.17466493029E+03  0.00000000000E+00 0. -1.
        -15    1    1    2    0    0  0.14741451121E+02  0.85279118908E+01  0.12881764011E+02  0.21427394508E+02  0.17770000000E+01 0.  1.
         15    1    1    2    0    0 -0.10130609037E+02 -0.15150316561E+01  0.39312081783E+01  0.11114705895E+02  0.17770000000E+01 0. -1.
</event>
<event>
 6    1  0.1298204E-002  0.1840367E+03  0.7546771E-02  0.1067238E+00
        -11   -1    0    0    0    0  0.00000000000E+00  0.00000000000E+00  0.18250000000E+03  0.18250000000E+03  0.00000000000E+00 0.  1.
         11   -1    0    0    0    0 -0.00000000000E+00 -0.00000000000E+00 -0.18250000000E+03  0.18250000000E+03  0.00000000000E+00 0. -1.
        -11    1    1    2    0    0 -0.19526384449E+01 -0.25224256590E+01  0.14144402329E+03  0.14147998853E+03  0.00000000000E+00 0.  1.
         11    1    1    2    0    0 -0.11768224527E+01 -0.35222632539E+01 -0.18092523896E+03  0.18096334807E+03  0.00000000000E+00 0. -1.
        -15    1    1    2    0    0  0.32633495924E+00  0.26095065998E+01  0.41664089108E+00  0.32011463310E+01  0.17770000000E+01 0. -1.
         15    1    1    2    0    0  0.28031259383E+01  0.34351823130E+01  0.39064574778E+02  0.39355517074E+02  0.17770000000E+01 0.  1.
</event>
<event>
 6    1  0.1298204E-002  0.1200899E+03  0.7546771E-02  0.1133003E+00
        -11   -1    0    0    0    0  0.00000000000E+00  0.00000000000E+00  0.18250000000E+03  0.18250000000E+03  0.00000000000E+00 0. -1.
         11   -1    0    0    0    0 -0.00000000000E+00 -0.00000000000E+00 -0.18250000000E+03  0.18250000000E+03  0.00000000000E+00 0. -1.
        -11    1    1    2    0    0  0.16263789197E+02 -0.14211404111E+02  0.17756483859E+02  0.27960106668E+02  0.00000000000E+00 0. -1.
         11    1    1    2    0    0 -0.45810430631E+01 -0.96893159821E+00 -0.14612434177E+03  0.14619934351E+03  0.00000000000E+00 0. -1.
        -15    1    1    2    0    0  0.56354321619E+02  0.34049434927E+02  0.86547142514E+02  0.10876000731E+03  0.17770000000E+01 0. -1.
         15    1    1    2    0    0 -0.68037067753E+02 -0.18869099218E+02  0.41820715398E+02  0.82080542512E+02  0.17770000000E+01 0.  1.
</event>
<event>
 6    1  0.1298204E-002  0.1912902E+03  0.7546771E-02  0.1061665E+00
        -11   -1    0    0    0    0  0.00000000000E+00  0.00000000000E+00  0.18250000000E+03  0.18250000000E+03  0.00000000000E+00 0. -1.
         11   -1    0    0    0    0 -0.00000000000E+00 -0.00000000000E+00 -0.18250000000E+03  0.18250000000E+03  0.00000000000E+00 0.  1.
        -11    1    1    2    0    0  0.16489272170E+02  0.25755270328E+01  0.17290621193E+03  0.17370977969E+03  0.00000000000E+00 0. -1.
         11    1    1    2    0    0 -0.18256969561E+01  0.12395118779E+01 -0.15696095590E+03  0.15697646714E+03  0.00000000000E+00 0.  1.
        -15    1    1    2    0    0 -0.18972955734E+02  0.50585994928E+01 -0.71306963707E+01  0.20965854093E+02  0.17770000000E+01 0.  1.
         15    1    1    2    0    0  0.43093805198E+01 -0.88736384035E+01 -0.88145596567E+01  0.13347899083E+02  0.17770000000E+01 0. -1.
</event>
<event>
 6    1  0.1298204E-002  0.1748246E+03  0.7546771E-02  0.1074734E+00
        -11   -1    0    0    0    0  0.00000000000E+00  0.00000000000E+00  0.18250000000E+03  0.18250000000E+03  0.00000000000E+00 0. -1.
         11   -1    0    0    0    0 -0.00000000000E+00 -0.00000000000E+00 -0.18250000000E+03  0.18250000000E+03  0.00000000000E+00 0. -1.
        -11    1    1    2    0    0 -0.22470848746E+01  0.22415651883E+01  0.17576627008E+03  0.17579492513E+03  0.00000000000E+00 0. -1.
         11    1    1    2    0    0  0.12629314722E+01 -0.56976005179E+01 -0.17378046511E+03  0.17387842793E+03  0.00000000000E+00 0. -1.
        -15    1    1    2    0    0  0.31708592682E+01 -0.44291369450E+01  0.19791299760E+01  0.60618715788E+01  0.17770000000E+01 0. -1.
         15    1    1    2    0    0 -0.21867058658E+01  0.78851722745E+01 -0.39649349471E+01  0.92647753603E+01  0.17770000000E+01 0. -1.
</event>
<event>
 6    1  0.1298204E-002  0.1760298E+03  0.7546771E-02  0.1073725E+00
        -11   -1    0    0    0    0  0.00000000000E+00  0.00000000000E+00  0.18250000000E+03  0.18250000000E+03  0.00000000000E+00 0.  1.
         11   -1    0    0    0    0 -0.00000000000E+00 -0.00000000000E+00 -0.18250000000E+03  0.18250000000E+03  0.00000000000E+00 0.  1.
        -11    1    1    2    0    0  0.52988980673E+01  0.12100145008E+01  0.17545888721E+03  0.17554305328E+03  0.00000000000E+00 0.  1.
         11    1    1    2    0    0  0.51138067553E+01 -0.13720558147E+01 -0.17659304651E+03  0.17667240201E+03  0.00000000000E+00 0.  1.
        -15    1    1    2    0    0 -0.71874871452E+00  0.19171681445E+01  0.10025581720E-01  0.27110815040E+01  0.17770000000E+01 0. -1.
         15    1    1    2    0    0 -0.96939561081E+01 -0.17551268306E+01  0.11241337234E+01  0.10073463200E+02  0.17770000000E+01 0.  1.
</event>
<event>
 6    1  0.1298204E-002  0.1831605E+03  0.7546771E-02  0.1067930E+00
        -11   -1    0    0    0    0  0.00000000000E+00  0.00000000000E+00  0.18250000000E+03  0.18250000000E+03  0.00000000000E+00 0.  1.
         11   -1    0    0    0    0 -0.00000000000E+00 -0.00000000000E+00 -0.18250000000E+03  0.18250000000E+03  0.00000000000E+00 0. -1.
        -11    1    1    2    0    0 -0.45244436136E+01  0.36592806202E+01  0.18174638780E+03  0.18183951826E+03  0.00000000000E+00 0.  1.
         11    1    1    2    0    0  0.38636160806E+01  0.76047899964E+00 -0.14362929520E+03  0.14368326381E+03  0.00000000000E+00 0. -1.
        -15    1    1    2    0    0 -0.35857671809E+01 -0.18372788761E+00 -0.15788781233E+02  0.16289101388E+02  0.17770000000E+01 0.  1.
         15    1    1    2    0    0  0.42465947139E+01 -0.42360317323E+01 -0.22328311360E+02  0.23188116541E+02  0.17770000000E+01 0. -1.
</event>
<event>
 6    1  0.1298204E-002  0.1832570E+03  0.7546771E-02  0.1067854E+00
        -11   -1    0    0    0    0  0.00000000000E+00  0.00000000000E+00  0.18250000000E+03  0.18250000000E+03  0.00000000000E+00 0.  1.
         11   -1    0    0    0    0 -0.00000000000E+00 -0.00000000000E+00 -0.18250000000E+03  0.18250000000E+03  0.00000000000E+00 0. -1.
        -11    1    1    2    0    0  0.39562632823E+01 -0.30208541960E+01  0.18167477920E+03  0.18174295854E+03  0.00000000000E+00 0.  1.
         11    1    1    2    0    0  0.56386682960E+01  0.42685609258E+01 -0.13020501258E+03  0.13039693437E+03  0.00000000000E+00 0. -1.
        -15    1    1    2    0    0 -0.77090682373E+01 -0.30983085149E+00 -0.46573274184E+02  0.47241436530E+02  0.17770000000E+01 0.  1.
         15    1    1    2    0    0 -0.18858633410E+01 -0.93787587827E+00 -0.48964924421E+01  0.56186705669E+01  0.17770000000E+01 0. -1.
</event>
<event>
 6    1  0.1298204E-002  0.1844425E+03  0.7546771E-02  0.1066919E+00
        -11   -1    0    0    0    0  0.00000000000E+00  0.00000000000E+00  0.18250000000E+03  0.18250000000E+03  0.00000000000E+00 0.  1.
         11   -1    0    0    0    0 -0.00000000000E+00 -0.00000000000E+00 -0.18250000000E+03  0.18250000000E+03  0.00000000000E+00 0.  1.
        -11    1    1    2    0    0 -0.32015730314E+02  0.74696932910E+01  0.17753934894E+03  0.18055753578E+03  0.00000000000E+00 0.  1.
         11    1    1    2    0    0 -0.70777495520E+00 -0.93079767876E+00 -0.40761938898E+02  0.40778707587E+02  0.00000000000E+00 0.  1.
        -15    1    1    2    0    0 -0.11573991663E+01 -0.15205925492E+01 -0.53995285894E+02  0.54058305582E+02  0.17770000000E+01 0.  1.
         15    1    1    2    0    0  0.33880904436E+02 -0.50183030630E+01 -0.82782124146E+02  0.89605451052E+02  0.17770000000E+01 0. -1.
</event>
<event>
 6    1  0.1298204E-002  0.1826726E+03  0.7546771E-02  0.1068318E+00
        -11   -1    0    0    0    0  0.00000000000E+00  0.00000000000E+00  0.18250000000E+03  0.18250000000E+03  0.00000000000E+00 0. -1.
         11   -1    0    0    0    0 -0.00000000000E+00 -0.00000000000E+00 -0.18250000000E+03  0.18250000000E+03  0.00000000000E+00 0.  1.
        -11    1    1    2    0    0  0.37238917356E+00 -0.15514607706E+01  0.10387301285E+03  0.10388526605E+03  0.00000000000E+00 0. -1.
         11    1    1    2    0    0  0.20801219996E+01  0.15858877184E+01 -0.18230868021E+03  0.18232744398E+03  0.00000000000E+00 0.  1.
        -15    1    1    2    0    0 -0.15242162200E+01  0.19665871794E+00  0.72093476561E+02  0.72131747527E+02  0.17770000000E+01 0. -1.
         15    1    1    2    0    0 -0.92829495319E+00 -0.23108566579E+00  0.63421907975E+01  0.66555424434E+01  0.17770000000E+01 0. -1.
</event>
<event>
 6    1  0.1298204E-002  0.1878904E+03  0.7546771E-02  0.1064243E+00
        -11   -1    0    0    0    0  0.00000000000E+00  0.00000000000E+00  0.18250000000E+03  0.18250000000E+03  0.00000000000E+00 0.  1.
         11   -1    0    0    0    0 -0.00000000000E+00 -0.00000000000E+00 -0.18250000000E+03  0.18250000000E+03  0.00000000000E+00 0. -1.
        -11    1    1    2    0    0 -0.13314968148E+01  0.79423182960E+00  0.66499935229E+02  0.66518005633E+02  0.00000000000E+00 0.  1.
         11    1    1    2    0    0 -0.59588732305E+01 -0.28783691176E+02 -0.17465332570E+03  0.17710955148E+03  0.00000000000E+00 0. -1.
        -15    1    1    2    0    0 -0.33803430079E+01  0.15363420112E+02  0.45900416859E+01  0.16482949010E+02  0.17770000000E+01 0. -1.
         15    1    1    2    0    0  0.10670713053E+02  0.12626039235E+02  0.10356334879E+03  0.10488949387E+03  0.17770000000E+01 0.  1.
</event>
<event>
 6    1  0.1298204E-002  0.1895697E+03  0.7546771E-02  0.1062963E+00
        -11   -1    0    0    0    0  0.00000000000E+00  0.00000000000E+00  0.18250000000E+03  0.18250000000E+03  0.00000000000E+00 0.  1.
         11   -1    0    0    0    0 -0.00000000000E+00 -0.00000000000E+00 -0.18250000000E+03  0.18250000000E+03  0.00000000000E+00 0. -1.
        -11    1    1    2    0    0  0.22671720597E+01  0.60856160631E+01  0.16027399605E+03  0.16040551300E+03  0.00000000000E+00 0.  1.
         11    1    1    2    0    0  0.69782907211E+01  0.95362930999E+01 -0.17503182432E+03  0.17543026236E+03  0.00000000000E+00 0. -1.
        -15    1    1    2    0    0 -0.34071594200E+00 -0.14060055791E+02  0.13992932116E+02  0.19918863783E+02  0.17770000000E+01 0. -1.
         15    1    1    2    0    0 -0.89047468388E+01 -0.15618533716E+01  0.76489615933E+00  0.92453608557E+01  0.17770000000E+01 0.  1.
</event>
<event>
 6    1  0.1298204E-002  0.1828292E+03  0.7546771E-02  0.1068193E+00
        -11   -1    0    0    0    0  0.00000000000E+00  0.00000000000E+00  0.18250000000E+03  0.18250000000E+03  0.00000000000E+00 0.  1.
         11   -1    0    0    0    0 -0.00000000000E+00 -0.00000000000E+00 -0.18250000000E+03  0.18250000000E+03  0.00000000000E+00 0. -1.
        -11    1    1    2    0    0 -0.19061177919E+01 -0.36469997306E+01  0.58630872066E+02  0.58775105711E+02  0.00000000000E+00 0.  1.
         11    1    1    2    0    0 -0.26866514959E-01 -0.32441839996E+01 -0.18214190170E+03  0.18217079296E+03  0.00000000000E+00 0. -1.
        -15    1    1    2    0    0  0.10968056615E+01  0.35876825592E+01  0.17974700779E+02  0.18447819543E+02  0.17770000000E+01 0.  1.
         15    1    1    2    0    0  0.83617864532E+00  0.33035011711E+01  0.10553632886E+03  0.10560628179E+03  0.17770000000E+01 0. -1.
</event>
<event>
 6    1  0.1298204E-002  0.1846618E+03  0.7546771E-02  0.1066747E+00
        -11   -1    0    0    0    0  0.00000000000E+00  0.00000000000E+00  0.18250000000E+03  0.18250000000E+03  0.00000000000E+00 0. -1.
         11   -1    0    0    0    0 -0.00000000000E+00 -0.00000000000E+00 -0.18250000000E+03  0.18250000000E+03  0.00000000000E+00 0. -1.
        -11    1    1    2    0    0  0.24405199122E+01 -0.25371345247E+01  0.18030383114E+03  0.18033819538E+03  0.00000000000E+00 0. -1.
         11    1    1    2    0    0  0.75325838885E+00  0.22420407848E+01 -0.15273272410E+03  0.15275103652E+03  0.00000000000E+00 0. -1.
        -15    1    1    2    0    0  0.25723685149E+01 -0.10915230765E+01  0.33289214113E+00  0.33282200318E+01  0.17770000000E+01 0.  1.
         15    1    1    2    0    0 -0.57661468159E+01  0.13866168165E+01 -0.27903999176E+02  0.28582548073E+02  0.17770000000E+01 0. -1.
</event>
<event>
 6    1  0.1298204E-002  0.1912498E+03  0.7546771E-02  0.1061696E+00
        -11   -1    0    0    0    0  0.00000000000E+00  0.00000000000E+00  0.18250000000E+03  0.18250000000E+03  0.00000000000E+00 0. -1.
         11   -1    0    0    0    0 -0.00000000000E+00 -0.00000000000E+00 -0.18250000000E+03  0.18250000000E+03  0.00000000000E+00 0. -1.
        -11    1    1    2    0    0  0.24316530725E+01  0.49920031653E+01  0.91395496928E+02  0.91564020723E+02  0.00000000000E+00 0. -1.
         11    1    1    2    0    0 -0.16258754839E+02  0.14048385686E+01 -0.17298207172E+03  0.17375015919E+03  0.00000000000E+00 0. -1.
        -15    1    1    2    0    0 -0.37116834868E+01 -0.28536194835E+02  0.44741435696E+02  0.53226354441E+02  0.17770000000E+01 0. -1.
         15    1    1    2    0    0  0.17538785254E+02  0.22139353101E+02  0.36845139100E+02  0.46459465647E+02  0.17770000000E+01 0.  1.
</event>
<event>
 6    1  0.1298204E-002  0.1833836E+03  0.7546771E-02  0.1067754E+00
        -11   -1    0    0    0    0  0.00000000000E+00  0.00000000000E+00  0.18250000000E+03  0.18250000000E+03  0.00000000000E+00 0. -1.
         11   -1    0    0    0    0 -0.00000000000E+00 -0.00000000000E+00 -0.18250000000E+03  0.18250000000E+03  0.00000000000E+00 0. -1.
        -11    1    1    2    0    0  0.90556375906E+00  0.32836109967E+01  0.18158448096E+03  0.18161642512E+03  0.00000000000E+00 0. -1.
         11    1    1    2    0    0 -0.63059575404E+01  0.43650787842E+01 -0.10032328248E+03  0.10061600281E+03  0.00000000000E+00 0. -1.
        -15    1    1    2    0    0  0.82362634640E+01 -0.66253183017E+01 -0.41832500635E+02  0.43183871027E+02  0.17770000000E+01 0. -1.
         15    1    1    2    0    0 -0.28358696827E+01 -0.10233714792E+01 -0.39428697843E+02  0.39583701047E+02  0.17770000000E+01 0.  1.
</event>
<event>
 6    1  0.1298204E-002  0.1845731E+03  0.7546771E-02  0.1066816E+00
        -11   -1    0    0    0    0  0.00000000000E+00  0.00000000000E+00  0.18250000000E+03  0.18250000000E+03  0.00000000000E+00 0.  1.
         11   -1    0    0    0    0 -0.00000000000E+00 -0.00000000000E+00 -0.18250000000E+03  0.18250000000E+03  0.00000000000E+00 0. -1.
        -11    1    1    2    0    0 -0.38040684013E+01  0.59869960056E+01  0.18028739176E+03  0.18042687905E+03  0.00000000000E+00 0.  1.
         11    1    1    2    0    0  0.34694632580E+01 -0.56885906089E+01 -0.15089548086E+03  0.15104252177E+03  0.00000000000E+00 0. -1.
        -15    1    1    2    0    0  0.78237905383E+01 -0.80951225707E+00 -0.18525910550E+02  0.20204803864E+02  0.17770000000E+01 0. -1.
         15    1    1    2    0    0 -0.74891853950E+01  0.51110686035E+00 -0.10866000353E+02  0.13325795315E+02  0.17770000000E+01 0.  1.
</event>
<event>
 6    1  0.1298204E-002  0.1863198E+03  0.7546771E-02  0.1065454E+00
        -11   -1    0    0    0    0  0.00000000000E+00  0.00000000000E+00  0.18250000000E+03  0.18250000000E+03  0.00000000000E+00 0. -1.
         11   -1    0    0    0    0 -0.00000000000E+00 -0.00000000000E+00 -0.18250000000E+03  0.18250000000E+03  0.00000000000E+00 0.  1.
        -11    1    1    2    0    0  0.51535954166E+00 -0.31662838588E+01  0.17865137602E+03  0.17868017546E+03  0.00000000000E+00 0. -1.
         11    1    1    2    0    0  0.36024592028E+01  0.28000737728E+01 -0.15637863823E+03  0.15644518727E+03  0.00000000000E+00 0.  1.
        -15    1    1    2    0    0  0.64059266150E+01  0.36653959817E+01 -0.43324413667E+01  0.87406407486E+01  0.17770000000E+01 0. -1.
         15    1    1    2    0    0 -0.10523745359E+02 -0.32991858958E+01 -0.17940296424E+02  0.21133996516E+02  0.17770000000E+01 0.  1.
</event>
<event>
 6    1  0.1298204E-002  0.1696642E+03  0.7546771E-02  0.1079158E+00
        -11   -1    0    0    0    0  0.00000000000E+00  0.00000000000E+00  0.18250000000E+03  0.18250000000E+03  0.00000000000E+00 0. -1.
         11   -1    0    0    0    0 -0.00000000000E+00 -0.00000000000E+00 -0.18250000000E+03  0.18250000000E+03  0.00000000000E+00 0. -1.
        -11    1    1    2    0    0  0.51227769059E+01  0.52904594302E+01  0.17257369751E+03  0.17273075255E+03  0.00000000000E+00 0. -1.
         11    1    1    2    0    0 -0.12725915554E+01  0.15824575847E+01 -0.14867914520E+02  0.15005950268E+02  0.00000000000E+00 0. -1.
        -15    1    1    2    0    0 -0.90581813021E+00 -0.23770429711E+01 -0.16664976518E+03  0.16667865131E+03  0.17770000000E+01 0. -1.
         15    1    1    2    0    0 -0.29443672203E+01 -0.44958740439E+01  0.89439821855E+01  0.10584645865E+02  0.17770000000E+01 0. -1.
</event>
<event>
 6    1  0.1298204E-002  0.1857442E+03  0.7546771E-02  0.1065901E+00
        -11   -1    0    0    0    0  0.00000000000E+00  0.00000000000E+00  0.18250000000E+03  0.18250000000E+03  0.00000000000E+00 0. -1.
         11   -1    0    0    0    0 -0.00000000000E+00 -0.00000000000E+00 -0.18250000000E+03  0.18250000000E+03  0.00000000000E+00 0.  1.
        -11    1    1    2    0    0  0.45768129802E+01 -0.17311996949E-01  0.17919736438E+03  0.17925580303E+03  0.00000000000E+00 0. -1.
         11    1    1    2    0    0 -0.20325021535E-02  0.30777925238E+01 -0.17309662011E+03  0.17312398073E+03  0.00000000000E+00 0.  1.
        -15    1    1    2    0    0 -0.44044645156E+01 -0.12327861684E+01  0.10577077900E+01  0.50195163288E+01  0.17770000000E+01 0. -1.
         15    1    1    2    0    0 -0.17031596247E+00 -0.18276943585E+01 -0.71584520629E+01  0.76006999107E+01  0.17770000000E+01 0.  1.
</event>
<event>
 6    1  0.1298204E-002  0.1888595E+03  0.7546771E-02  0.1063502E+00
        -11   -1    0    0    0    0  0.00000000000E+00  0.00000000000E+00  0.18250000000E+03  0.18250000000E+03  0.00000000000E+00 0.  1.
         11   -1    0    0    0    0 -0.00000000000E+00 -0.00000000000E+00 -0.18250000000E+03  0.18250000000E+03  0.00000000000E+00 0. -1.
        -11    1    1    2    0    0  0.85137614178E+01 -0.16327451848E+00  0.17593450051E+03  0.17614045323E+03  0.00000000000E+00 0.  1.
         11    1    1    2    0    0  0.98492190782E+00 -0.86722528766E+01 -0.14603989616E+03  0.14630047612E+03  0.00000000000E+00 0. -1.
        -15    1    1    2    0    0 -0.21500908059E+01  0.27040478543E+01 -0.32299424425E+02  0.32532219605E+02  0.17770000000E+01 0. -1.
         15    1    1    2    0    0 -0.73485925197E+01  0.61314795408E+01  0.24048200746E+01  0.10026851050E+02  0.17770000000E+01 0.  1.
</event>
<event>
 6    1  0.1298204E-002  0.1844856E+03  0.7546771E-02  0.1066885E+00
        -11   -1    0    0    0    0  0.00000000000E+00  0.00000000000E+00  0.18250000000E+03  0.18250000000E+03  0.00000000000E+00 0.  1.
         11   -1    0    0    0    0 -0.00000000000E+00 -0.00000000000E+00 -0.18250000000E+03  0.18250000000E+03  0.00000000000E+00 0.  1.
        -11    1    1    2    0    0 -0.26304197314E+01 -0.21119810486E+01  0.17500775914E+03  0.17504026774E+03  0.00000000000E+00 0.  1.
         11    1    1    2    0    0 -0.12840143948E+01  0.28667790820E+01 -0.18048705493E+03  0.18051438755E+03  0.00000000000E+00 0.  1.
        -15    1    1    2    0    0 -0.64881740693E+00 -0.35300601696E+00  0.37882086635E+01  0.42489800134E+01  0.17770000000E+01 0. -1.
         15    1    1    2    0    0  0.45632515332E+01 -0.40179201645E+00  0.16910871319E+01  0.51963646973E+01  0.17770000000E+01 0.  1.
</event>
<event>
 6    1  0.1298204E-002  0.1844530E+03  0.7546771E-02  0.1066911E+00
        -11   -1    0    0    0    0  0.00000000000E+00  0.00000000000E+00  0.18250000000E+03  0.18250000000E+03  0.00000000000E+00 0.  1.
         11   -1    0    0    0    0 -0.00000000000E+00 -0.00000000000E+00 -0.18250000000E+03  0.18250000000E+03  0.00000000000E+00 0. -1.
        -11    1    1    2    0    0 -0.32912778340E+01  0.23463755803E+01  0.10668978940E+03  0.10676632967E+03  0.00000000000E+00 0.  1.
         11    1    1    2    0    0 -0.64930264827E+01 -0.92803696226E+01 -0.18019141277E+03  0.18054702958E+03  0.00000000000E+00 0. -1.
        -15    1    1    2    0    0  0.21067672706E+01 -0.14867047703E+01  0.59341735368E+02  0.59424305170E+02  0.17770000000E+01 0.  1.
         15    1    1    2    0    0  0.76775370462E+01  0.84206988127E+01  0.14159888001E+02  0.18262335579E+02  0.17770000000E+01 0.  1.
</event>
<event>
 6    1  0.1298204E-002  0.1825604E+03  0.7546771E-02  0.1068407E+00
        -11   -1    0    0    0    0  0.00000000000E+00  0.00000000000E+00  0.18250000000E+03  0.18250000000E+03  0.00000000000E+00 0. -1.
         11   -1    0    0    0    0 -0.00000000000E+00 -0.00000000000E+00 -0.18250000000E+03  0.18250000000E+03  0.00000000000E+00 0. -1.
        -11    1    1    2    0    0 -0.53519187051E+00  0.50644793753E+00  0.46908990789E+02  0.46914777380E+02  0.00000000000E+00 0. -1.
         11    1    1    2    0    0  0.29685178808E+01  0.11730005450E+01 -0.18241166809E+03  0.18243959188E+03  0.00000000000E+00 0. -1.
        -15    1    1    2    0    0 -0.32356498529E+01 -0.96063200501E+00  0.10666406254E+03  0.10673224541E+03  0.17770000000E+01 0. -1.
         15    1    1    2    0    0  0.80232384260E+00 -0.71881647756E+00  0.28838614763E+02  0.28913385328E+02  0.17770000000E+01 0. -1.
</event>
<event>
 6    1  0.1298204E-002  0.1833228E+03  0.7546771E-02  0.1067802E+00
        -11   -1    0    0    0    0  0.00000000000E+00  0.00000000000E+00  0.18250000000E+03  0.18250000000E+03  0.00000000000E+00 0. -1.
         11   -1    0    0    0    0 -0.00000000000E+00 -0.00000000000E+00 -0.18250000000E+03  0.18250000000E+03  0.00000000000E+00 0. -1.
        -11    1    1    2    0    0 -0.19842401593E+01  0.21341478153E+01  0.11303732587E+03  0.11307488154E+03  0.00000000000E+00 0. -1.
         11    1    1    2    0    0  0.42167767310E+01  0.83290060036E+01 -0.18143720486E+03  0.18167722162E+03  0.00000000000E+00 0. -1.
        -15    1    1    2    0    0 -0.28294893621E+01 -0.10782983919E+02  0.66844858110E+02  0.67791382469E+02  0.17770000000E+01 0. -1.
         15    1    1    2    0    0  0.59695279049E+00  0.31983010041E+00  0.15550208785E+01  0.24565143720E+01  0.17770000000E+01 0.  1.
</event>
<event>
 6    1  0.1298204E-002  0.1878472E+03  0.7546771E-02  0.1064276E+00
        -11   -1    0    0    0    0  0.00000000000E+00  0.00000000000E+00  0.18250000000E+03  0.18250000000E+03  0.00000000000E+00 0. -1.
         11   -1    0    0    0    0 -0.00000000000E+00 -0.00000000000E+00 -0.18250000000E+03  0.18250000000E+03  0.00000000000E+00 0.  1.
        -11    1    1    2    0    0  0.24183066141E+01  0.64406161423E+00  0.17713516591E+03  0.17715284368E+03  0.00000000000E+00 0. -1.
         11    1    1    2    0    0 -0.32548896826E+01  0.32348438564E+00 -0.17051153244E+03  0.17054290265E+03  0.00000000000E+00 0.  1.
        -15    1    1    2    0    0  0.35479857100E+01  0.22300041662E+01 -0.10423228863E+02  0.11373765872E+02  0.17770000000E+01 0.  1.
         15    1    1    2    0    0 -0.27114026415E+01 -0.31975501661E+01  0.37995953934E+01  0.59304877964E+01  0.17770000000E+01 0. -1.
</event>
<event>
 6    1  0.1298204E-002  0.1842209E+03  0.7546771E-02  0.1067093E+00
        -11   -1    0    0    0    0  0.00000000000E+00  0.00000000000E+00  0.18250000000E+03  0.18250000000E+03  0.00000000000E+00 0.  1.
         11   -1    0    0    0    0 -0.00000000000E+00 -0.00000000000E+00 -0.18250000000E+03  0.18250000000E+03  0.00000000000E+00 0. -1.
        -11    1    1    2    0    0 -0.10027498963E+00 -0.64658449014E+01  0.14165605670E+03  0.14180358107E+03  0.00000000000E+00 0.  1.
         11    1    1    2    0    0  0.29677436873E+01  0.26321318050E+01 -0.18073557819E+03  0.18077910511E+03  0.00000000000E+00 0. -1.
        -15    1    1    2    0    0 -0.10508183598E+01  0.33955851576E+01  0.39589654041E+02  0.39788599546E+02  0.17770000000E+01 0. -1.
         15    1    1    2    0    0 -0.18166503378E+01  0.43812793872E+00 -0.51013255158E+00  0.26287142790E+01  0.17770000000E+01 0.  1.
</event>
<event>
 6    1  0.1298204E-002  0.1842459E+03  0.7546771E-02  0.1067074E+00
        -11   -1    0    0    0    0  0.00000000000E+00  0.00000000000E+00  0.18250000000E+03  0.18250000000E+03  0.00000000000E+00 0. -1.
         11   -1    0    0    0    0 -0.00000000000E+00 -0.00000000000E+00 -0.18250000000E+03  0.18250000000E+03  0.00000000000E+00 0. -1.
        -11    1    1    2    0    0  0.47426913397E-01  0.26772217344E+01  0.18073429901E+03  0.18075413302E+03  0.00000000000E+00 0. -1.
         11    1    1    2    0    0  0.17908779066E+01 -0.45824370723E+00 -0.10661505714E+03  0.10663108196E+03  0.00000000000E+00 0. -1.
        -15    1    1    2    0    0 -0.30226281328E+01  0.26346085498E+00 -0.74254223311E+02  0.74337427323E+02  0.17770000000E+01 0.  1.
         15    1    1    2    0    0  0.11843233127E+01 -0.24824388821E+01  0.13498143829E+00  0.32773577011E+01  0.17770000000E+01 0. -1.
</event>
<event>
 6    1  0.1298204E-002  0.1847393E+03  0.7546771E-02  0.1066686E+00
        -11   -1    0    0    0    0  0.00000000000E+00  0.00000000000E+00  0.18250000000E+03  0.18250000000E+03  0.00000000000E+00 0. -1.
         11   -1    0    0    0    0 -0.00000000000E+00 -0.00000000000E+00 -0.18250000000E+03  0.18250000000E+03  0.00000000000E+00 0.  1.
        -11    1    1    2    0    0  0.32430652644E+01 -0.57911496982E+01  0.18013850201E+03  0.18026074113E+03  0.00000000000E+00 0. -1.
         11    1    1    2    0    0 -0.37879513463E+01  0.15936993870E+01 -0.14767888581E+03  0.14773605439E+03  0.00000000000E+00 0.  1.
        -15    1    1    2    0    0  0.24319188477E+01 -0.62837856027E+01 -0.12789783053E+02  0.14564905434E+02  0.17770000000E+01 0. -1.
         15    1    1    2    0    0 -0.18870327658E+01  0.10481235914E+02 -0.19669833147E+02  0.22438299044E+02  0.17770000000E+01 0.  1.
</event>
<event>
 6    1  0.1298204E-002  0.1989727E+03  0.7546771E-02  0.1056050E+00
        -11   -1    0    0    0    0  0.00000000000E+00  0.00000000000E+00  0.18250000000E+03  0.18250000000E+03  0.00000000000E+00 0.  1.
         11   -1    0    0    0    0 -0.00000000000E+00 -0.00000000000E+00 -0.18250000000E+03  0.18250000000E+03  0.00000000000E+00 0.  1.
        -11    1    1    2    0    0  0.23161537449E+01 -0.85622022622E+01  0.14290446507E+03  0.14317947483E+03  0.00000000000E+00 0.  1.
         11    1    1    2    0    0 -0.38693857924E+01  0.51100418752E+01 -0.16590351043E+03  0.16602728525E+03  0.00000000000E+00 0.  1.
        -15    1    1    2    0    0 -0.23800700824E+02  0.58596063275E+01  0.65872116357E+01  0.25443219768E+02  0.17770000000E+01 0.  1.
         15    1    1    2    0    0  0.25353932872E+02 -0.24074459405E+01  0.16411833721E+02  0.30350020150E+02  0.17770000000E+01 0. -1.
</event>
<event>
 6    1  0.1298204E-002  0.1828692E+03  0.7546771E-02  0.1068161E+00
        -11   -1    0    0    0    0  0.00000000000E+00  0.00000000000E+00  0.18250000000E+03  0.18250000000E+03  0.00000000000E+00 0. -1.
         11   -1    0    0    0    0 -0.00000000000E+00 -0.00000000000E+00 -0.18250000000E+03  0.18250000000E+03  0.00000000000E+00 0. -1.
        -11    1    1    2    0    0  0.23813703698E+01  0.13663628545E+01  0.18211006005E+03  0.18213075480E+03  0.00000000000E+00 0. -1.
         11    1    1    2    0    0  0.21798104567E+01  0.87009502985E+00 -0.10795930820E+03  0.10798481776E+03  0.00000000000E+00 0. -1.
        -15    1    1    2    0    0 -0.69750480873E+01 -0.18715292958E+01 -0.52677176804E+02  0.53199592130E+02  0.17770000000E+01 0.  1.
         15    1    1    2    0    0  0.24138672608E+01 -0.36492858853E+00 -0.21473575047E+02  0.21684835308E+02  0.17770000000E+01 0. -1.
</event>
<event>
 6    1  0.1298204E-002  0.1842876E+03  0.7546771E-02  0.1067041E+00
        -11   -1    0    0    0    0  0.00000000000E+00  0.00000000000E+00  0.18250000000E+03  0.18250000000E+03  0.00000000000E+00 0. -1.
         11   -1    0    0    0    0 -0.00000000000E+00 -0.00000000000E+00 -0.18250000000E+03  0.18250000000E+03  0.00000000000E+00 0. -1.
        -11    1    1    2    0    0 -0.17532520638E+01  0.31230242684E+01  0.11434499623E+03  0.11440107227E+03  0.00000000000E+00 0. -1.
         11    1    1    2    0    0  0.13280289704E+01 -0.59995459032E+01 -0.18060790347E+03  0.18071240413E+03  0.00000000000E+00 0. -1.
        -15    1    1    2    0    0  0.19899629111E+01 -0.22606109345E+01  0.63491203005E+02  0.63587427234E+02  0.17770000000E+01 0. -1.
         15    1    1    2    0    0 -0.15647398177E+01  0.51371325694E+01  0.27717042347E+01  0.62990963715E+01  0.17770000000E+01 0.  1.
</event>
<event>
 6    1  0.1298204E-002  0.1879658E+03  0.7546771E-02  0.1064185E+00
        -11   -1    0    0    0    0  0.00000000000E+00  0.00000000000E+00  0.18250000000E+03  0.18250000000E+03  0.00000000000E+00 0.  1.
         11   -1    0    0    0    0 -0.00000000000E+00 -0.00000000000E+00 -0.18250000000E+03  0.18250000000E+03  0.00000000000E+00 0.  1.
        -11    1    1    2    0    0 -0.88887350109E+00 -0.28847125034E+01  0.17700842790E+03  0.17703416396E+03  0.00000000000E+00 0.  1.
         11    1    1    2    0    0 -0.15583992197E+01 -0.25795531849E+01 -0.13205129573E+03  0.13208568207E+03  0.00000000000E+00 0.  1.
        -15    1    1    2    0    0  0.88931260835E+01 -0.42593344089E+01 -0.66325654300E+00  0.10041277777E+02  0.17770000000E+01 0. -1.
         15    1    1    2    0    0 -0.64458533627E+01  0.97236000972E+01 -0.44293875624E+02  0.45838876199E+02  0.17770000000E+01 0.  1.
</event>
<event>
 6    1  0.1298204E-002  0.1843248E+03  0.7546771E-02  0.1067011E+00
        -11   -1    0    0    0    0  0.00000000000E+00  0.00000000000E+00  0.18250000000E+03  0.18250000000E+03  0.00000000000E+00 0.  1.
         11   -1    0    0    0    0 -0.00000000000E+00 -0.00000000000E+00 -0.18250000000E+03  0.18250000000E+03  0.00000000000E+00 0.  1.
        -11    1    1    2    0    0 -0.89255023995E+00  0.20297818995E+01  0.12785898697E+03  0.12787821241E+03  0.00000000000E+00 0.  1.
         11    1    1    2    0    0  0.60574717684E+01  0.12431682475E+02 -0.18014515735E+03  0.18067517099E+03  0.00000000000E+00 0.  1.
        -15    1    1    2    0    0 -0.45439528514E+01 -0.17214047107E+02  0.42703115071E+02  0.46299942668E+02  0.17770000000E+01 0.  1.
         15    1    1    2    0    0 -0.62096867708E+00  0.27525827334E+01  0.95830553138E+01  0.10146673935E+02  0.17770000000E+01 0. -1.
</event>
<event>
 6    1  0.1298204E-002  0.1915402E+03  0.7546771E-02  0.1061478E+00
        -11   -1    0    0    0    0  0.00000000000E+00  0.00000000000E+00  0.18250000000E+03  0.18250000000E+03  0.00000000000E+00 0.  1.
         11   -1    0    0    0    0 -0.00000000000E+00 -0.00000000000E+00 -0.18250000000E+03  0.18250000000E+03  0.00000000000E+00 0. -1.
        -11    1    1    2    0    0 -0.15044004374E+02  0.76737545444E+01  0.11266441885E+03  0.11392313133E+03  0.00000000000E+00 0.  1.
         11    1    1    2    0    0 -0.36283743225E+01  0.16645631167E+01 -0.17341384554E+03  0.17345978697E+03  0.00000000000E+00 0. -1.
        -15    1    1    2    0    0  0.17052721906E+01 -0.54797302369E+01 -0.60735641262E+01  0.85429097448E+01  0.17770000000E+01 0. -1.
         15    1    1    2    0    0  0.16967106505E+02 -0.38585874242E+01  0.66822990818E+02  0.69074171953E+02  0.17770000000E+01 0.  1.
</event>
<event>
 6    1  0.1298204E-002  0.1829743E+03  0.7546771E-02  0.1068078E+00
        -11   -1    0    0    0    0  0.00000000000E+00  0.00000000000E+00  0.18250000000E+03  0.18250000000E+03  0.00000000000E+00 0.  1.
         11   -1    0    0    0    0 -0.00000000000E+00 -0.00000000000E+00 -0.18250000000E+03  0.18250000000E+03  0.00000000000E+00 0.  1.
        -11    1    1    2    0    0 -0.24017410763E+01  0.44655750397E+01  0.18195503338E+03  0.18202566823E+03  0.00000000000E+00 0.  1.
         11    1    1    2    0    0 -0.24732468931E+01 -0.18577620716E+00 -0.10702189881E+03  0.10705063422E+03  0.00000000000E+00 0.  1.
        -15    1    1    2    0    0  0.21428363650E+01 -0.29525566232E+01 -0.87293958399E+01  0.96264956775E+01  0.17770000000E+01 0. -1.
         15    1    1    2    0    0  0.27321516043E+01 -0.13272422093E+01 -0.66203738738E+02  0.66297201873E+02  0.17770000000E+01 0.  1.
</event>
<event>
 6    1  0.1298204E-002  0.1828007E+03  0.7546771E-02  0.1068216E+00
        -11   -1    0    0    0    0  0.00000000000E+00  0.00000000000E+00  0.18250000000E+03  0.18250000000E+03  0.00000000000E+00 0.  1.
         11   -1    0    0    0    0 -0.00000000000E+00 -0.00000000000E+00 -0.18250000000E+03  0.18250000000E+03  0.00000000000E+00 0. -1.
        -11    1    1    2    0    0  0.31596341869E+01 -0.29109542295E+00  0.18217168280E+03  0.18219931405E+03  0.00000000000E+00 0.  1.
         11    1    1    2    0    0 -0.96347305393E+00  0.18063257237E+01 -0.10845463165E+03  0.10847395180E+03  0.00000000000E+00 0. -1.
        -15    1    1    2    0    0 -0.43636508369E+01 -0.34893958955E+01 -0.53593612773E+02  0.53913360046E+02  0.17770000000E+01 0. -1.
         15    1    1    2    0    0  0.21674897040E+01  0.19741655948E+01 -0.20123438380E+02  0.20413374113E+02  0.17770000000E+01 0.  1.
</event>
<event>
 6    1  0.1298204E-002  0.1829282E+03  0.7546771E-02  0.1068114E+00
        -11   -1    0    0    0    0  0.00000000000E+00  0.00000000000E+00  0.18250000000E+03  0.18250000000E+03  0.00000000000E+00 0. -1.
         11   -1    0    0    0    0 -0.00000000000E+00 -0.00000000000E+00 -0.18250000000E+03  0.18250000000E+03  0.00000000000E+00 0. -1.
        -11    1    1    2    0    0 -0.20504603555E+01 -0.22247335475E+01  0.18204661447E+03  0.18207175417E+03  0.00000000000E+00 0. -1.
         11    1    1    2    0    0  0.21644539847E+01 -0.65566098423E+00 -0.16016326553E+03  0.16017923204E+03  0.00000000000E+00 0. -1.
        -15    1    1    2    0    0  0.13990874024E+00  0.14244108099E+01 -0.18567171020E+02  0.18706846054E+02  0.17770000000E+01 0.  1.
         15    1    1    2    0    0 -0.25390236944E+00  0.14559837218E+01 -0.33161779216E+01  0.40421677376E+01  0.17770000000E+01 0. -1.
</event>
<event>
 6    1  0.1298204E-002  0.1851092E+03  0.7546771E-02  0.1066397E+00
        -11   -1    0    0    0    0  0.00000000000E+00  0.00000000000E+00  0.18250000000E+03  0.18250000000E+03  0.00000000000E+00 0. -1.
         11   -1    0    0    0    0 -0.00000000000E+00 -0.00000000000E+00 -0.18250000000E+03  0.18250000000E+03  0.00000000000E+00 0. -1.
        -11    1    1    2    0    0 -0.23817534903E+01 -0.19524365426E+01  0.17986438699E+03  0.17989075147E+03  0.00000000000E+00 0. -1.
         11    1    1    2    0    0  0.21113252331E+01 -0.18223969562E+01 -0.17530181777E+03  0.17532400332E+03  0.00000000000E+00 0. -1.
        -15    1    1    2    0    0 -0.11900014600E+01  0.19711217711E+00  0.13238686567E+01  0.25229573728E+01  0.17770000000E+01 0. -1.
         15    1    1    2    0    0  0.14604297172E+01  0.35777213217E+01 -0.58864378755E+01  0.72622878404E+01  0.17770000000E+01 0.  1.
</event>
<event>
 6    1  0.1298204E-002  0.1846491E+03  0.7546771E-02  0.1066757E+00
        -11   -1    0    0    0    0  0.00000000000E+00  0.00000000000E+00  0.18250000000E+03  0.18250000000E+03  0.00000000000E+00 0.  1.
         11   -1    0    0    0    0 -0.00000000000E+00 -0.00000000000E+00 -0.18250000000E+03  0.18250000000E+03  0.00000000000E+00 0.  1.
        -11    1    1    2    0    0 -0.14560757053E+01  0.34512978825E+01  0.17214134942E+03  0.17218210067E+03  0.00000000000E+00 0.  1.
         11    1    1    2    0    0 -0.42685349344E+01  0.59741862374E+00 -0.18029942345E+03  0.18035093400E+03  0.00000000000E+00 0.  1.
        -15    1    1    2    0    0  0.49267521261E+01 -0.11109613850E+01  0.68795219536E+01  0.87173776459E+01  0.17770000000E+01 0. -1.
         15    1    1    2    0    0  0.79785851353E+00 -0.29377551213E+01  0.12785520756E+01  0.37495876800E+01  0.17770000000E+01 0.  1.
</event>
<event>
 6    1  0.1298204E-002  0.1832894E+03  0.7546771E-02  0.1067828E+00
        -11   -1    0    0    0    0  0.00000000000E+00  0.00000000000E+00  0.18250000000E+03  0.18250000000E+03  0.00000000000E+00 0. -1.
         11   -1    0    0    0    0 -0.00000000000E+00 -0.00000000000E+00 -0.18250000000E+03  0.18250000000E+03  0.00000000000E+00 0. -1.
        -11    1    1    2    0    0 -0.32966131627E+01  0.25756047173E+00  0.18168054085E+03  0.18171062963E+03  0.00000000000E+00 0. -1.
         11    1    1    2    0    0  0.29704268010E+00 -0.28033592666E+01 -0.16127776496E+03  0.16130240087E+03  0.00000000000E+00 0. -1.
        -15    1    1    2    0    0 -0.11514374596E+01  0.13611329333E+01 -0.27531295793E+01  0.37304078283E+01  0.17770000000E+01 0. -1.
         15    1    1    2    0    0  0.41510079422E+01  0.11846658616E+01 -0.17649646311E+02  0.18256561671E+02  0.17770000000E+01 0.  1.
</event>
<event>
 6    1  0.1298204E-002  0.1825744E+03  0.7546771E-02  0.1068396E+00
        -11   -1    0    0    0    0  0.00000000000E+00  0.00000000000E+00  0.18250000000E+03  0.18250000000E+03  0.00000000000E+00 0.  1.
         11   -1    0    0    0    0 -0.00000000000E+00 -0.00000000000E+00 -0.18250000000E+03  0.18250000000E+03  0.00000000000E+00 0.  1.
        -11    1    1    2    0    0  0.29657694494E+01 -0.19009609707E+01  0.90098489037E+02  0.90167328716E+02  0.00000000000E+00 0.  1.
         11    1    1    2    0    0 -0.29852996690E+01  0.94082657654E+00 -0.18239874328E+03  0.18242559776E+03  0.00000000000E+00 0.  1.
        -15    1    1    2    0    0  0.65888645421E+00 -0.36448478962E+00  0.28585914139E+02  0.28650989454E+02  0.17770000000E+01 0. -1.
         15    1    1    2    0    0 -0.63935623464E+00  0.13246191837E+01  0.63714340101E+02  0.63756084070E+02  0.17770000000E+01 0.  1.
</event>
<event>
 6    1  0.1298204E-002  0.1937750E+03  0.7546771E-02  0.1059818E+00
        -11   -1    0    0    0    0  0.00000000000E+00  0.00000000000E+00  0.18250000000E+03  0.18250000000E+03  0.00000000000E+00 0.  1.
         11   -1    0    0    0    0 -0.00000000000E+00 -0.00000000000E+00 -0.18250000000E+03  0.18250000000E+03  0.00000000000E+00 0. -1.
        -11    1    1    2    0    0  0.25578147359E+01 -0.96108582160E+00  0.17120323992E+03  0.17122504332E+03  0.00000000000E+00 0.  1.
         11    1    1    2    0    0 -0.11720426303E+01 -0.15427463120E+01 -0.55835757149E+02  0.55869361250E+02  0.00000000000E+00 0. -1.
        -15    1    1    2    0    0 -0.29617053700E+01 -0.83945607924E+00  0.10954665987E+02  0.11516892858E+02  0.17770000000E+01 0.  1.
         15    1    1    2    0    0  0.15759332644E+01  0.33432882128E+01 -0.12632214876E+03  0.12638870257E+03  0.17770000000E+01 0. -1.
</event>
<event>
 6    1  0.1298204E-002  0.1889910E+03  0.7546771E-02  0.1063402E+00
        -11   -1    0    0    0    0  0.00000000000E+00  0.00000000000E+00  0.18250000000E+03  0.18250000000E+03  0.00000000000E+00 0. -1.
         11   -1    0    0    0    0 -0.00000000000E+00 -0.00000000000E+00 -0.18250000000E+03  0.18250000000E+03  0.00000000000E+00 0. -1.
        -11    1    1    2    0    0  0.24287449249E+01  0.65213327724E-01  0.17599225934E+03  0.17600902932E+03  0.00000000000E+00 0. -1.
         11    1    1    2    0    0  0.25979203081E+01 -0.35512666168E-01 -0.14679398385E+03  0.14681697500E+03  0.00000000000E+00 0. -1.
        -15    1    1    2    0    0 -0.13449435902E+01 -0.10841724297E+01  0.61207874727E+01  0.66034893355E+01  0.17770000000E+01 0.  1.
         15    1    1    2    0    0 -0.36817216428E+01  0.10544717681E+01 -0.35319062957E+02  0.35570506352E+02  0.17770000000E+01 0. -1.
</event>
<event>
 6    1  0.1298204E-002  0.1875985E+03  0.7546771E-02  0.1064467E+00
        -11   -1    0    0    0    0  0.00000000000E+00  0.00000000000E+00  0.18250000000E+03  0.18250000000E+03  0.00000000000E+00 0. -1.
         11   -1    0    0    0    0 -0.00000000000E+00 -0.00000000000E+00 -0.18250000000E+03  0.18250000000E+03  0.00000000000E+00 0.  1.
        -11    1    1    2    0    0  0.21809387699E+01  0.68888253157E+01  0.15977164435E+03  0.15993495787E+03  0.00000000000E+00 0. -1.
         11    1    1    2    0    0  0.49086671413E+01  0.44270552299E+01 -0.17727829640E+03  0.17740148873E+03  0.00000000000E+00 0.  1.
        -15    1    1    2    0    0  0.38631022811E+01 -0.23347003516E+01 -0.27734331453E+00  0.48589127673E+01  0.17770000000E+01 0.  1.
         15    1    1    2    0    0 -0.10952708192E+02 -0.89811801941E+01  0.17783995358E+02  0.22804640631E+02  0.17770000000E+01 0. -1.
</event>
<event>
 6    1  0.1298204E-002  0.1830971E+03  0.7546771E-02  0.1067981E+00
        -11   -1    0    0    0    0  0.00000000000E+00  0.00000000000E+00  0.18250000000E+03  0.18250000000E+03  0.00000000000E+00 0.  1.
         11   -1    0    0    0    0 -0.00000000000E+00 -0.00000000000E+00 -0.18250000000E+03  0.18250000000E+03  0.00000000000E+00 0.  1.
        -11    1    1    2    0    0  0.27509507940E+01 -0.14625615691E+01  0.18187626161E+03  0.18190294487E+03  0.00000000000E+00 0.  1.
         11    1    1    2    0    0 -0.15796105863E+01 -0.25901451743E+01 -0.10183280585E+03  0.10187798766E+03  0.00000000000E+00 0.  1.
        -15    1    1    2    0    0 -0.69179579662E+00  0.20571568978E+01 -0.29242401947E+01  0.40520841110E+01  0.17770000000E+01 0. -1.
         15    1    1    2    0    0 -0.47954441101E+00  0.19955498456E+01 -0.77119215563E+02  0.77166983355E+02  0.17770000000E+01 0.  1.
</event>
<event>
 6    1  0.1298204E-002  0.1942809E+03  0.7546771E-02  0.1059446E+00
        -11   -1    0    0    0    0  0.00000000000E+00  0.00000000000E+00  0.18250000000E+03  0.18250000000E+03  0.00000000000E+00 0.  1.
         11   -1    0    0    0    0 -0.00000000000E+00 -0.00000000000E+00 -0.18250000000E+03  0.18250000000E+03  0.00000000000E+00 0. -1.
        -11    1    1    2    0    0  0.10133741079E+02  0.11424876281E+02  0.17003463959E+03  0.17071906504E+03  0.00000000000E+00 0.  1.
         11    1    1    2    0    0 -0.73797973993E+00 -0.24422735517E+01 -0.12582696945E+03  0.12585283292E+03  0.00000000000E+00 0. -1.
        -15    1    1    2    0    0 -0.15081949539E+02 -0.12615195401E+02  0.36392273123E+01  0.20075110494E+02  0.17770000000E+01 0. -1.
         15    1    1    2    0    0  0.56861881997E+01  0.36325926726E+01 -0.47846897459E+02  0.48352991544E+02  0.17770000000E+01 0.  1.
</event>
<event>
 6    1  0.1298204E-002  0.1905905E+03  0.7546771E-02  0.1062191E+00
        -11   -1    0    0    0    0  0.00000000000E+00  0.00000000000E+00  0.18250000000E+03  0.18250000000E+03  0.00000000000E+00 0. -1.
         11   -1    0    0    0    0 -0.00000000000E+00 -0.00000000000E+00 -0.18250000000E+03  0.18250000000E+03  0.00000000000E+00 0.  1.
        -11    1    1    2    0    0 -0.60978849786E+01  0.30340159364E+00  0.17430259030E+03  0.17440948724E+03  0.00000000000E+00 0. -1.
         11    1    1    2    0    0  0.47175810149E+01  0.73153049872E+01 -0.62009863034E+02  0.62617827902E+02  0.00000000000E+00 0.  1.
        -15    1    1    2    0    0 -0.15611228008E+02 -0.91087904004E+01 -0.43485972522E+01  0.18674810027E+02  0.17770000000E+01 0. -1.
         15    1    1    2    0    0  0.16991531972E+02  0.14900838196E+01 -0.10794413002E+03  0.10929787483E+03  0.17770000000E+01 0.  1.
</event>
<event>
 6    1  0.1298204E-002  0.1862785E+03  0.7546771E-02  0.1065486E+00
        -11   -1    0    0    0    0  0.00000000000E+00  0.00000000000E+00  0.18250000000E+03  0.18250000000E+03  0.00000000000E+00 0. -1.
         11   -1    0    0    0    0 -0.00000000000E+00 -0.00000000000E+00 -0.18250000000E+03  0.18250000000E+03  0.00000000000E+00 0.  1.
        -11    1    1    2    0    0  0.23760582958E+00 -0.11012407044E+02  0.14032562005E+03  0.14075727053E+03  0.00000000000E+00 0. -1.
         11    1    1    2    0    0  0.10255284527E+01  0.60137084317E+01 -0.17861739389E+03  0.17872154263E+03  0.00000000000E+00 0.  1.
        -15    1    1    2    0    0  0.82973991650E-01 -0.15709583930E+01 -0.29011036533E+01  0.37481897448E+01  0.17770000000E+01 0.  1.
         15    1    1    2    0    0 -0.13461082740E+01  0.65696570049E+01  0.41192877496E+02  0.41772997092E+02  0.17770000000E+01 0. -1.
</event>
<event>
 6    1  0.1298204E-002  0.1835779E+03  0.7546771E-02  0.1067600E+00
        -11   -1    0    0    0    0  0.00000000000E+00  0.00000000000E+00  0.18250000000E+03  0.18250000000E+03  0.00000000000E+00 0. -1.
         11   -1    0    0    0    0 -0.00000000000E+00 -0.00000000000E+00 -0.18250000000E+03  0.18250000000E+03  0.00000000000E+00 0. -1.
        -11    1    1    2    0    0  0.32574486833E+01  0.30191942793E+01  0.15335964244E+03  0.15342394349E+03  0.00000000000E+00 0. -1.
         11    1    1    2    0    0 -0.25710412609E+00 -0.31057529830E+01 -0.18139537974E+03  0.18142214747E+03  0.00000000000E+00 0. -1.
        -15    1    1    2    0    0 -0.11999668738E+00  0.22225053885E+01  0.13183094214E+01  0.31384069426E+01  0.17770000000E+01 0.  1.
         15    1    1    2    0    0 -0.28803478698E+01 -0.21359466849E+01  0.26717427876E+02  0.27015502094E+02  0.17770000000E+01 0. -1.
</event>
<event>
 6    1  0.1298204E-002  0.1776074E+03  0.7546771E-02  0.1072417E+00
        -11   -1    0    0    0    0  0.00000000000E+00  0.00000000000E+00  0.18250000000E+03  0.18250000000E+03  0.00000000000E+00 0. -1.
         11   -1    0    0    0    0 -0.00000000000E+00 -0.00000000000E+00 -0.18250000000E+03  0.18250000000E+03  0.00000000000E+00 0. -1.
        -11    1    1    2    0    0 -0.23968277714E+01  0.11341000159E+01  0.17637900371E+03  0.17639893400E+03  0.00000000000E+00 0. -1.
         11    1    1    2    0    0 -0.39361902865E+01 -0.13733729667E+01 -0.17883219617E+03  0.17888078190E+03  0.00000000000E+00 0. -1.
        -15    1    1    2    0    0  0.64051045248E+00 -0.15245999920E+01 -0.97877605987E+00  0.26173250372E+01  0.17770000000E+01 0.  1.
         15    1    1    2    0    0  0.56925076054E+01  0.17638729428E+01  0.34319685144E+01  0.71029590650E+01  0.17770000000E+01 0. -1.
</event>
<event>
 6    1  0.1298204E-002  0.1827310E+03  0.7546771E-02  0.1068271E+00
        -11   -1    0    0    0    0  0.00000000000E+00  0.00000000000E+00  0.18250000000E+03  0.18250000000E+03  0.00000000000E+00 0. -1.
         11   -1    0    0    0    0 -0.00000000000E+00 -0.00000000000E+00 -0.18250000000E+03  0.18250000000E+03  0.00000000000E+00 0. -1.
        -11    1    1    2    0    0 -0.32011048949E+01 -0.60475665234E+00  0.18223985367E+03  0.18226896903E+03  0.00000000000E+00 0. -1.
         11    1    1    2    0    0  0.10578763093E+01 -0.23086396952E+01 -0.14995169494E+03  0.14997319672E+03  0.00000000000E+00 0. -1.
        -15    1    1    2    0    0  0.14363789898E+01  0.10550127977E+01 -0.21418420132E+02  0.21565775816E+02  0.17770000000E+01 0. -1.
         15    1    1    2    0    0  0.70684959579E+00  0.18583835498E+01 -0.10869738599E+02  0.11192058434E+02  0.17770000000E+01 0.  1.
</event>
<event>
 6    1  0.1298204E-002  0.1864591E+03  0.7546771E-02  0.1065346E+00
        -11   -1    0    0    0    0  0.00000000000E+00  0.00000000000E+00  0.18250000000E+03  0.18250000000E+03  0.00000000000E+00 0.  1.
         11   -1    0    0    0    0 -0.00000000000E+00 -0.00000000000E+00 -0.18250000000E+03  0.18250000000E+03  0.00000000000E+00 0.  1.
        -11    1    1    2    0    0 -0.60819996105E+01 -0.37208400778E+01  0.16737573859E+03  0.16752752979E+03  0.00000000000E+00 0.  1.
         11    1    1    2    0    0  0.82648957726E+00  0.47964152264E+01 -0.17847450576E+03  0.17854085777E+03  0.00000000000E+00 0.  1.
        -15    1    1    2    0    0  0.10199040547E+01  0.17612739552E+01  0.12946543867E+02  0.13225468511E+02  0.17770000000E+01 0.  1.
         15    1    1    2    0    0  0.42356059786E+01 -0.28368491038E+01 -0.18477766932E+01  0.57061439301E+01  0.17770000000E+01 0. -1.
</event>
<event>
 6    1  0.1298204E-002  0.1855634E+03  0.7546771E-02  0.1066042E+00
        -11   -1    0    0    0    0  0.00000000000E+00  0.00000000000E+00  0.18250000000E+03  0.18250000000E+03  0.00000000000E+00 0. -1.
         11   -1    0    0    0    0 -0.00000000000E+00 -0.00000000000E+00 -0.18250000000E+03  0.18250000000E+03  0.00000000000E+00 0. -1.
        -11    1    1    2    0    0  0.85125670013E+00 -0.19870764057E+01  0.13568235403E+03  0.13569957371E+03  0.00000000000E+00 0. -1.
         11    1    1    2    0    0  0.27961756851E+01  0.85097768362E+00 -0.17941278199E+03  0.17943658797E+03  0.00000000000E+00 0. -1.
        -15    1    1    2    0    0  0.21598503783E+01 -0.49566231512E+00  0.43477594809E+02  0.43570283613E+02  0.17770000000E+01 0.  1.
         15    1    1    2    0    0 -0.58072827635E+01  0.16317610372E+01  0.25283315214E+00  0.62935547015E+01  0.17770000000E+01 0. -1.
</event>
<event>
 6    1  0.1298204E-002  0.1834926E+03  0.7546771E-02  0.1067667E+00
        -11   -1    0    0    0    0  0.00000000000E+00  0.00000000000E+00  0.18250000000E+03  0.18250000000E+03  0.00000000000E+00 0.  1.
         11   -1    0    0    0    0 -0.00000000000E+00 -0.00000000000E+00 -0.18250000000E+03  0.18250000000E+03  0.00000000000E+00 0.  1.
        -11    1    1    2    0    0 -0.49213540428E+01 -0.46828545887E+01  0.18138026484E+03  0.18150743601E+03  0.00000000000E+00 0.  1.
         11    1    1    2    0    0 -0.15336218180E+01 -0.56186288766E+00 -0.10717103876E+03  0.10718348397E+03  0.00000000000E+00 0.  1.
        -15    1    1    2    0    0 -0.16458639719E+01  0.21354264100E+01 -0.55661410016E+02  0.55754992675E+02  0.17770000000E+01 0.  1.
         15    1    1    2    0    0  0.81008398328E+01  0.31092910664E+01 -0.18547816063E+02  0.20554087346E+02  0.17770000000E+01 0.  1.
</event>
<event>
 6    1  0.1298204E-002  0.1846625E+03  0.7546771E-02  0.1066746E+00
        -11   -1    0    0    0    0  0.00000000000E+00  0.00000000000E+00  0.18250000000E+03  0.18250000000E+03  0.00000000000E+00 0.  1.
         11   -1    0    0    0    0 -0.00000000000E+00 -0.00000000000E+00 -0.18250000000E+03  0.18250000000E+03  0.00000000000E+00 0.  1.
        -11    1    1    2    0    0  0.94838608933E+01 -0.12782482903E+01  0.18008345698E+03  0.18033754189E+03  0.00000000000E+00 0.  1.
         11    1    1    2    0    0  0.56651445344E+01  0.13396635730E+01 -0.12354974996E+03  0.12368681933E+03  0.00000000000E+00 0.  1.
        -15    1    1    2    0    0 -0.45002155304E+01  0.42327234291E+01 -0.41400608445E+02  0.41896730135E+02  0.17770000000E+01 0.  1.
         15    1    1    2    0    0 -0.10648789897E+02 -0.42941387118E+01 -0.15133098581E+02  0.19078908648E+02  0.17770000000E+01 0. -1.
</event>
<event>
 6    1  0.1298204E-002  0.1829171E+03  0.7546771E-02  0.1068123E+00
        -11   -1    0    0    0    0  0.00000000000E+00  0.00000000000E+00  0.18250000000E+03  0.18250000000E+03  0.00000000000E+00 0. -1.
         11   -1    0    0    0    0 -0.00000000000E+00 -0.00000000000E+00 -0.18250000000E+03  0.18250000000E+03  0.00000000000E+00 0. -1.
        -11    1    1    2    0    0 -0.18630545593E+01 -0.25851692862E+01  0.14162205196E+03  0.14165789662E+03  0.00000000000E+00 0. -1.
         11    1    1    2    0    0  0.36201345335E+01  0.24428094264E+01 -0.18203048346E+03  0.18208286465E+03  0.00000000000E+00 0. -1.
        -15    1    1    2    0    0  0.12415812046E+01 -0.85412720186E-02  0.32992045180E+02  0.33063187551E+02  0.17770000000E+01 0.  1.
         15    1    1    2    0    0 -0.29986611788E+01  0.15090113184E+00  0.74163863112E+01  0.81960511793E+01  0.17770000000E+01 0.  1.
</event>
<event>
 6    1  0.1298204E-002  0.1906185E+03  0.7546771E-02  0.1062170E+00
        -11   -1    0    0    0    0  0.00000000000E+00  0.00000000000E+00  0.18250000000E+03  0.18250000000E+03  0.00000000000E+00 0.  1.
         11   -1    0    0    0    0 -0.00000000000E+00 -0.00000000000E+00 -0.18250000000E+03  0.18250000000E+03  0.00000000000E+00 0.  1.
        -11    1    1    2    0    0 -0.30264303722E+00 -0.27184797935E+01  0.17436004090E+03  0.17438149439E+03  0.00000000000E+00 0.  1.
         11    1    1    2    0    0 -0.20864427238E+02  0.11608522008E+02 -0.14662107812E+03  0.14855242394E+03  0.00000000000E+00 0.  1.
        -15    1    1    2    0    0  0.59812160513E+01  0.32615370264E+01  0.12113191996E+01  0.71440599403E+01  0.17770000000E+01 0. -1.
         15    1    1    2    0    0  0.15185854224E+02 -0.12151579241E+02 -0.28950281972E+02  0.34922021731E+02  0.17770000000E+01 0.  1.
</event>
<event>
 6    1  0.1298204E-002  0.1762604E+03  0.7546771E-02  0.1073533E+00
        -11   -1    0    0    0    0  0.00000000000E+00  0.00000000000E+00  0.18250000000E+03  0.18250000000E+03  0.00000000000E+00 0.  1.
         11   -1    0    0    0    0 -0.00000000000E+00 -0.00000000000E+00 -0.18250000000E+03  0.18250000000E+03  0.00000000000E+00 0.  1.
        -11    1    1    2    0    0  0.20473944693E+01  0.14285892260E+01  0.17637729381E+03  0.17639496155E+03  0.00000000000E+00 0.  1.
         11    1    1    2    0    0  0.33832291827E+01 -0.11132323834E+01 -0.17613179338E+03  0.17616780116E+03  0.00000000000E+00 0.  1.
        -15    1    1    2    0    0  0.19158072233E+01 -0.12361687484E+01  0.29947392260E+01  0.41622857330E+01  0.17770000000E+01 0.  1.
         15    1    1    2    0    0 -0.73464308754E+01  0.92081190573E+00 -0.32402396493E+01  0.82749515501E+01  0.17770000000E+01 0. -1.
</event>
<event>
 6    1  0.1298204E-002  0.1722947E+03  0.7546771E-02  0.1076881E+00
        -11   -1    0    0    0    0  0.00000000000E+00  0.00000000000E+00  0.18250000000E+03  0.18250000000E+03  0.00000000000E+00 0.  1.
         11   -1    0    0    0    0 -0.00000000000E+00 -0.00000000000E+00 -0.18250000000E+03  0.18250000000E+03  0.00000000000E+00 0. -1.
        -11    1    1    2    0    0  0.65620901635E+01  0.68633497315E+01  0.17339946269E+03  0.17365926482E+03  0.00000000000E+00 0.  1.
         11    1    1    2    0    0 -0.45595278495E+01  0.99632306565E+00 -0.17097048356E+03  0.17103417262E+03  0.00000000000E+00 0. -1.
        -15    1    1    2    0    0 -0.73671537327E+01  0.21669858808E+00  0.39664471089E+01  0.85564212185E+01  0.17770000000E+01 0.  1.
         15    1    1    2    0    0  0.53645914188E+01 -0.80763713852E+01 -0.63954262386E+01  0.11750141345E+02  0.17770000000E+01 0. -1.
</event>
<event>
 6    1  0.1298204E-002  0.1854105E+03  0.7546771E-02  0.1066161E+00
        -11   -1    0    0    0    0  0.00000000000E+00  0.00000000000E+00  0.18250000000E+03  0.18250000000E+03  0.00000000000E+00 0. -1.
         11   -1    0    0    0    0 -0.00000000000E+00 -0.00000000000E+00 -0.18250000000E+03  0.18250000000E+03  0.00000000000E+00 0. -1.
        -11    1    1    2    0    0 -0.17135138456E+01  0.24923325863E+01  0.94677630521E+02  0.94725928723E+02  0.00000000000E+00 0. -1.
         11    1    1    2    0    0  0.16690165377E+01  0.15976802177E+02 -0.17886960332E+03  0.17958947301E+03  0.00000000000E+00 0. -1.
        -15    1    1    2    0    0  0.77363408013E+01 -0.20952089294E+02  0.41149968063E+02  0.46854227294E+02  0.17770000000E+01 0.  1.
         15    1    1    2    0    0 -0.76918434934E+01  0.24829545302E+01  0.43042004733E+02  0.43830370977E+02  0.17770000000E+01 0. -1.
</event>
<event>
 6    1  0.1298204E-002  0.1891875E+03  0.7546771E-02  0.1063253E+00
        -11   -1    0    0    0    0  0.00000000000E+00  0.00000000000E+00  0.18250000000E+03  0.18250000000E+03  0.00000000000E+00 0.  1.
         11   -1    0    0    0    0 -0.00000000000E+00 -0.00000000000E+00 -0.18250000000E+03  0.18250000000E+03  0.00000000000E+00 0.  1.
        -11    1    1    2    0    0  0.31157042050E+01 -0.64181021886E+01  0.17566768309E+03  0.17581249822E+03  0.00000000000E+00 0.  1.
         11    1    1    2    0    0  0.16201294386E+01  0.44815643097E+01 -0.16965347992E+03  0.16972039502E+03  0.00000000000E+00 0.  1.
        -15    1    1    2    0    0 -0.37376057051E+00 -0.34228291336E+01 -0.10395616114E+02  0.11094233621E+02  0.17770000000E+01 0. -1.
         15    1    1    2    0    0 -0.43620730731E+01  0.53593670125E+01  0.43814129440E+01  0.83728731422E+01  0.17770000000E+01 0.  1.
</event>
<event>
 6    1  0.1298204E-002  0.1853560E+03  0.7546771E-02  0.1066204E+00
        -11   -1    0    0    0    0  0.00000000000E+00  0.00000000000E+00  0.18250000000E+03  0.18250000000E+03  0.00000000000E+00 0. -1.
         11   -1    0    0    0    0 -0.00000000000E+00 -0.00000000000E+00 -0.18250000000E+03  0.18250000000E+03  0.00000000000E+00 0. -1.
        -11    1    1    2    0    0  0.39133759939E+01 -0.27778964164E+00  0.16534906756E+03  0.16539560399E+03  0.00000000000E+00 0. -1.
         11    1    1    2    0    0  0.24196938467E+01  0.63631857502E+00 -0.17962655975E+03  0.17964398345E+03  0.00000000000E+00 0. -1.
        -15    1    1    2    0    0 -0.55117320280E+01 -0.54071683891E+01  0.54924093752E+01  0.96405886585E+01  0.17770000000E+01 0. -1.
         15    1    1    2    0    0 -0.82133781270E+00  0.50486394557E+01  0.87850828224E+01  0.10319823901E+02  0.17770000000E+01 0.  1.
</event>
<event>
 6    1  0.1298204E-002  0.1920265E+03  0.7546771E-02  0.1061115E+00
        -11   -1    0    0    0    0  0.00000000000E+00  0.00000000000E+00  0.18250000000E+03  0.18250000000E+03  0.00000000000E+00 0.  1.
         11   -1    0    0    0    0 -0.00000000000E+00 -0.00000000000E+00 -0.18250000000E+03  0.18250000000E+03  0.00000000000E+00 0.  1.
        -11    1    1    2    0    0  0.14456502303E+02  0.88490061879E+01  0.17214102651E+03  0.17297349039E+03  0.00000000000E+00 0.  1.
         11    1    1    2    0    0  0.35771825839E+01  0.18359975545E+01 -0.13459849738E+03  0.13465854083E+03  0.00000000000E+00 0.  1.
        -15    1    1    2    0    0 -0.18035354732E+02 -0.17228300307E+02 -0.68370499095E+01  0.25922795610E+02  0.17770000000E+01 0. -1.
         15    1    1    2    0    0  0.16698449329E-02  0.65432965650E+01 -0.30705479220E+02  0.31445173172E+02  0.17770000000E+01 0.  1.
</event>
<event>
 6    1  0.1298204E-002  0.1859982E+03  0.7546771E-02  0.1065704E+00
        -11   -1    0    0    0    0  0.00000000000E+00  0.00000000000E+00  0.18250000000E+03  0.18250000000E+03  0.00000000000E+00 0.  1.
         11   -1    0    0    0    0 -0.00000000000E+00 -0.00000000000E+00 -0.18250000000E+03  0.18250000000E+03  0.00000000000E+00 0.  1.
        -11    1    1    2    0    0  0.15130537831E+01  0.36955318140E+01  0.17895725416E+03  0.17900180195E+03  0.00000000000E+00 0.  1.
         11    1    1    2    0    0 -0.36250838676E+01 -0.34623521204E+01 -0.17732805375E+03  0.17739889448E+03  0.00000000000E+00 0.  1.
        -15    1    1    2    0    0  0.80499923833E+00  0.31224970966E+01 -0.25508184053E+01  0.44791087762E+01  0.17770000000E+01 0. -1.
         15    1    1    2    0    0  0.13070308461E+01 -0.33556767902E+01  0.92161800224E+00  0.41201947885E+01  0.17770000000E+01 0.  1.
</event>
<event>
 6    1  0.1298204E-002  0.1970408E+03  0.7546771E-02  0.1057436E+00
        -11   -1    0    0    0    0  0.00000000000E+00  0.00000000000E+00  0.18250000000E+03  0.18250000000E+03  0.00000000000E+00 0.  1.
         11   -1    0    0    0    0 -0.00000000000E+00 -0.00000000000E+00 -0.18250000000E+03  0.18250000000E+03  0.00000000000E+00 0.  1.
        -11    1    1    2    0    0 -0.21332204074E+02  0.25677018969E+02  0.16460842225E+03  0.16795923585E+03  0.00000000000E+00 0.  1.
         11    1    1    2    0    0  0.83770555942E+01  0.84502992053E+01 -0.11603543576E+03  0.11664392384E+03  0.00000000000E+00 0.  1.
        -15    1    1    2    0    0 -0.78635463463E+01  0.63494087523E+00 -0.37488720123E+02  0.38351015326E+02  0.17770000000E+01 0.  1.
         15    1    1    2    0    0  0.20818694826E+02 -0.34762259049E+02 -0.11084266370E+02  0.42045824982E+02  0.17770000000E+01 0. -1.
</event>
<event>
 6    1  0.1808647E-002  0.2019808E+03  0.7546771E-02  0.1053926E+00
        -11   -1    0    0    0    0  0.00000000000E+00  0.00000000000E+00  0.18250000000E+03  0.18250000000E+03  0.00000000000E+00 0. -1.
         11   -1    0    0    0    0 -0.00000000000E+00 -0.00000000000E+00 -0.18250000000E+03  0.18250000000E+03  0.00000000000E+00 0.  1.
        -11    1    1    2    0    0  0.28657306359E+01 -0.48338391127E+01  0.16292230654E+03  0.16301919022E+03  0.00000000000E+00 0. -1.
         11    1    1    2    0    0  0.86088710530E+00 -0.75877257165E-01 -0.50139424037E+02  0.50146871555E+02  0.00000000000E+00 0.  1.
        -15    1    1    2    0    0 -0.20386534826E+01  0.10266208009E+01 -0.13202237562E+03  0.13205406261E+03  0.17770000000E+01 0.  1.
         15    1    1    2    0    0 -0.16879642587E+01  0.38830955689E+01  0.19239493124E+02  0.19779875611E+02  0.17770000000E+01 0. -1.
</event>
<event>
 6    1  0.1298204E-002  0.1856634E+03  0.7546771E-02  0.1065964E+00
        -11   -1    0    0    0    0  0.00000000000E+00  0.00000000000E+00  0.18250000000E+03  0.18250000000E+03  0.00000000000E+00 0.  1.
         11   -1    0    0    0    0 -0.00000000000E+00 -0.00000000000E+00 -0.18250000000E+03  0.18250000000E+03  0.00000000000E+00 0. -1.
        -11    1    1    2    0    0  0.11075619115E+00  0.53900299566E+01  0.17925555922E+03  0.17933661143E+03  0.00000000000E+00 0.  1.
         11    1    1    2    0    0  0.19759924410E+00 -0.24812274955E+01 -0.16563261228E+03  0.16565131387E+03  0.00000000000E+00 0. -1.
        -15    1    1    2    0    0 -0.21852888736E+01 -0.55478581469E+01 -0.14865251096E+02  0.16114826608E+02  0.17770000000E+01 0.  1.
         15    1    1    2    0    0  0.18769334383E+01  0.26390556858E+01  0.12423041594E+01  0.38972480893E+01  0.17770000000E+01 0.  1.
</event>
<event>
 6    1  0.1298204E-002  0.1839344E+03  0.7546771E-02  0.1067319E+00
        -11   -1    0    0    0    0  0.00000000000E+00  0.00000000000E+00  0.18250000000E+03  0.18250000000E+03  0.00000000000E+00 0.  1.
         11   -1    0    0    0    0 -0.00000000000E+00 -0.00000000000E+00 -0.18250000000E+03  0.18250000000E+03  0.00000000000E+00 0.  1.
        -11    1    1    2    0    0 -0.45538485158E+01  0.31104499364E+01  0.16949356730E+03  0.16958325917E+03  0.00000000000E+00 0.  1.
         11    1    1    2    0    0  0.29619430820E+01  0.21214684733E+01 -0.18102892838E+03  0.18106558658E+03  0.00000000000E+00 0.  1.
        -15    1    1    2    0    0  0.31668738808E+01 -0.49597914117E+01  0.82342849366E+01  0.10275689682E+02  0.17770000000E+01 0. -1.
         15    1    1    2    0    0 -0.15749684470E+01 -0.27212699803E+00  0.33010761464E+01  0.40754645669E+01  0.17770000000E+01 0.  1.
</event>
<event>
 6    1  0.1298204E-002  0.1826361E+03  0.7546771E-02  0.1068347E+00
        -11   -1    0    0    0    0  0.00000000000E+00  0.00000000000E+00  0.18250000000E+03  0.18250000000E+03  0.00000000000E+00 0. -1.
         11   -1    0    0    0    0 -0.00000000000E+00 -0.00000000000E+00 -0.18250000000E+03  0.18250000000E+03  0.00000000000E+00 0. -1.
        -11    1    1    2    0    0 -0.65740905239E+00 -0.25400843941E+00  0.49810698389E+02  0.49815684086E+02  0.00000000000E+00 0. -1.
         11    1    1    2    0    0  0.23230635314E+01  0.14664195812E+01 -0.18234322695E+03  0.18236392030E+03  0.00000000000E+00 0. -1.
        -15    1    1    2    0    0 -0.16373347435E+01  0.17952627003E+00  0.10863607836E+02  0.11130534532E+02  0.17770000000E+01 0.  1.
         15    1    1    2    0    0 -0.28319735556E-01 -0.13919374119E+01  0.12166892073E+03  0.12168986109E+03  0.17770000000E+01 0. -1.
</event>
<event>
 6    1  0.1298204E-002  0.1907090E+03  0.7546771E-02  0.1062102E+00
        -11   -1    0    0    0    0  0.00000000000E+00  0.00000000000E+00  0.18250000000E+03  0.18250000000E+03  0.00000000000E+00 0. -1.
         11   -1    0    0    0    0 -0.00000000000E+00 -0.00000000000E+00 -0.18250000000E+03  0.18250000000E+03  0.00000000000E+00 0. -1.
        -11    1    1    2    0    0 -0.28713271831E+01 -0.10001855546E+01  0.17099991987E+03  0.17102694960E+03  0.00000000000E+00 0. -1.
         11    1    1    2    0    0  0.55335422185E+01  0.10435980265E+01 -0.17420002670E+03  0.17429101666E+03  0.00000000000E+00 0. -1.
        -15    1    1    2    0    0 -0.13208653560E+01  0.18777613782E+01 -0.77857418976E+01  0.83094030458E+01  0.17770000000E+01 0.  1.
         15    1    1    2    0    0 -0.13413496795E+01 -0.19211738501E+01  0.10985848720E+02  0.11372630700E+02  0.17770000000E+01 0. -1.
</event>
<event>
 6    1  0.1298204E-002  0.1842466E+03  0.7546771E-02  0.1067073E+00
        -11   -1    0    0    0    0  0.00000000000E+00  0.00000000000E+00  0.18250000000E+03  0.18250000000E+03  0.00000000000E+00 0. -1.
         11   -1    0    0    0    0 -0.00000000000E+00 -0.00000000000E+00 -0.18250000000E+03  0.18250000000E+03  0.00000000000E+00 0.  1.
        -11    1    1    2    0    0  0.80704141639E+00  0.44669440664E+01  0.18069636052E+03  0.18075336681E+03  0.00000000000E+00 0. -1.
         11    1    1    2    0    0  0.21955185832E+01 -0.88050104159E+00 -0.10256413189E+03  0.10259140673E+03  0.00000000000E+00 0.  1.
        -15    1    1    2    0    0 -0.60674480594E+01 -0.56486821292E+00 -0.76436733685E+02  0.76699836945E+02  0.17770000000E+01 0. -1.
         15    1    1    2    0    0  0.30648880598E+01 -0.30215748119E+01 -0.16954949451E+01  0.49553895177E+01  0.17770000000E+01 0.  1.
</event>
<event>
 6    1  0.1298204E-002  0.1835119E+03  0.7546771E-02  0.1067652E+00
        -11   -1    0    0    0    0  0.00000000000E+00  0.00000000000E+00  0.18250000000E+03  0.18250000000E+03  0.00000000000E+00 0. -1.
         11   -1    0    0    0    0 -0.00000000000E+00 -0.00000000000E+00 -0.18250000000E+03  0.18250000000E+03  0.00000000000E+00 0.  1.
        -11    1    1    2    0    0 -0.88845264107E+00 -0.61958470397E+00  0.52498195049E+02  0.52509367895E+02  0.00000000000E+00 0. -1.
         11    1    1    2    0    0 -0.39033211038E+01 -0.25885041627E+01 -0.18142762167E+03  0.18148806620E+03  0.00000000000E+00 0.  1.
        -15    1    1    2    0    0  0.48485381433E+01 -0.16195382724E+01  0.64696317921E+01  0.84347549383E+01  0.17770000000E+01 0.  1.
         15    1    1    2    0    0 -0.56764398381E-01  0.48276271390E+01  0.12245979483E+03  0.12256781096E+03  0.17770000000E+01 0. -1.
</event>
<event>
 6    1  0.1298204E-002  0.1601218E+03  0.7546771E-02  0.1087810E+00
        -11   -1    0    0    0    0  0.00000000000E+00  0.00000000000E+00  0.18250000000E+03  0.18250000000E+03  0.00000000000E+00 0. -1.
         11   -1    0    0    0    0 -0.00000000000E+00 -0.00000000000E+00 -0.18250000000E+03  0.18250000000E+03  0.00000000000E+00 0. -1.
        -11    1    1    2    0    0  0.17074950280E+02 -0.29850774082E+02  0.17200003030E+03  0.17540419910E+03  0.00000000000E+00 0. -1.
         11    1    1    2    0    0  0.19045509741E+01 -0.68824199452E+00 -0.18389471773E+02  0.18500639544E+02  0.00000000000E+00 0. -1.
        -15    1    1    2    0    0 -0.11186353911E+02  0.87333102736E+01 -0.14593634955E+03  0.14663553823E+03  0.17770000000E+01 0. -1.
         15    1    1    2    0    0 -0.77931473433E+01  0.21805705803E+02 -0.76742089752E+01  0.24459623126E+02  0.17770000000E+01 0.  1.
</event>
<event>
 6    1  0.1298204E-002  0.1837540E+03  0.7546771E-02  0.1067461E+00
        -11   -1    0    0    0    0  0.00000000000E+00  0.00000000000E+00  0.18250000000E+03  0.18250000000E+03  0.00000000000E+00 0.  1.
         11   -1    0    0    0    0 -0.00000000000E+00 -0.00000000000E+00 -0.18250000000E+03  0.18250000000E+03  0.00000000000E+00 0.  1.
        -11    1    1    2    0    0  0.23732061398E+01 -0.25424736535E+01  0.18121263399E+03  0.18124600684E+03  0.00000000000E+00 0.  1.
         11    1    1    2    0    0  0.17449048233E+01 -0.11633086739E+01 -0.12332962268E+03  0.12334745157E+03  0.00000000000E+00 0.  1.
        -15    1    1    2    0    0 -0.54192649688E+01 -0.54323734475E+01 -0.26035774068E+02  0.27201073037E+02  0.17770000000E+01 0. -1.
         15    1    1    2    0    0  0.13011540057E+01  0.91381557749E+01 -0.31847237241E+02  0.33205468549E+02  0.17770000000E+01 0. -1.
</event>
<event>
 6    1  0.1298204E-002  0.1844665E+03  0.7546771E-02  0.1066900E+00
        -11   -1    0    0    0    0  0.00000000000E+00  0.00000000000E+00  0.18250000000E+03  0.18250000000E+03  0.00000000000E+00 0.  1.
         11   -1    0    0    0    0 -0.00000000000E+00 -0.00000000000E+00 -0.18250000000E+03  0.18250000000E+03  0.00000000000E+00 0. -1.
        -11    1    1    2    0    0  0.23122833396E+00 -0.56980464607E+01  0.75144618697E+02  0.75360698770E+02  0.00000000000E+00 0.  1.
         11    1    1    2    0    0 -0.25848985434E+01 -0.11668280363E+02 -0.18013751498E+03  0.18053352811E+03  0.00000000000E+00 0. -1.
        -15    1    1    2    0    0  0.92460858594E+01  0.23066838237E+01  0.65942787585E+02  0.66651480535E+02  0.17770000000E+01 0.  1.
         15    1    1    2    0    0 -0.68924156499E+01  0.15059643000E+02  0.39050108699E+02  0.42454292589E+02  0.17770000000E+01 0. -1.
</event>
<event>
 6    1  0.1298204E-002  0.1837283E+03  0.7546771E-02  0.1067481E+00
        -11   -1    0    0    0    0  0.00000000000E+00  0.00000000000E+00  0.18250000000E+03  0.18250000000E+03  0.00000000000E+00 0. -1.
         11   -1    0    0    0    0 -0.00000000000E+00 -0.00000000000E+00 -0.18250000000E+03  0.18250000000E+03  0.00000000000E+00 0.  1.
        -11    1    1    2    0    0  0.14571438253E+01  0.15717938147E+01  0.76201112844E+02  0.76231249514E+02  0.00000000000E+00 0. -1.
         11    1    1    2    0    0 -0.45492485962E+01 -0.29251813928E+01 -0.18119101083E+03  0.18127171527E+03  0.00000000000E+00 0.  1.
        -15    1    1    2    0    0 -0.84919753499E+01  0.24324740090E+01  0.23617694933E+02  0.25278129244E+02  0.17770000000E+01 0. -1.
         15    1    1    2    0    0  0.11584080121E+02 -0.10790864309E+01  0.81372203059E+02  0.82218905973E+02  0.17770000000E+01 0.  1.
</event>
<event>
 6    1  0.1298204E-002  0.1832549E+03  0.7546771E-02  0.1067856E+00
        -11   -1    0    0    0    0  0.00000000000E+00  0.00000000000E+00  0.18250000000E+03  0.18250000000E+03  0.00000000000E+00 0. -1.
         11   -1    0    0    0    0 -0.00000000000E+00 -0.00000000000E+00 -0.18250000000E+03  0.18250000000E+03  0.00000000000E+00 0. -1.
        -11    1    1    2    0    0 -0.13370545705E+01 -0.39492976298E+01  0.85075535837E+02  0.85177646508E+02  0.00000000000E+00 0. -1.
         11    1    1    2    0    0 -0.11278914318E+01  0.27469926056E+01 -0.18172085834E+03  0.18174511951E+03  0.00000000000E+00 0. -1.
        -15    1    1    2    0    0 -0.23383688471E+01 -0.66596371567E+01  0.45466304306E+02  0.46045209221E+02  0.17770000000E+01 0.  1.
         15    1    1    2    0    0  0.48033148494E+01  0.78619421810E+01  0.51179018199E+02  0.52032024766E+02  0.17770000000E+01 0. -1.
</event>
<event>
 6    1  0.1298204E-002  0.2158561E+03  0.7546771E-02  0.1044624E+00
        -11   -1    0    0    0    0  0.00000000000E+00  0.00000000000E+00  0.18250000000E+03  0.18250000000E+03  0.00000000000E+00 0. -1.
         11   -1    0    0    0    0 -0.00000000000E+00 -0.00000000000E+00 -0.18250000000E+03  0.18250000000E+03  0.00000000000E+00 0.  1.
        -11    1    1    2    0    0  0.35717593477E+01  0.53471539915E+00  0.14910015053E+03  0.14914388447E+03  0.00000000000E+00 0. -1.
         11    1    1    2    0    0  0.16614293779E+01  0.15365967034E+01 -0.12274357726E+03  0.12276443799E+03  0.00000000000E+00 0.  1.
        -15    1    1    2    0    0  0.39919727018E+01 -0.10090443651E+02  0.31795022727E+02  0.33642742135E+02  0.17770000000E+01 0. -1.
         15    1    1    2    0    0 -0.92251614274E+01  0.80191315488E+01 -0.58151596002E+02  0.59448935404E+02  0.17770000000E+01 0.  1.
</event>
<event>
 6    1  0.1298204E-002  0.1829304E+03  0.7546771E-02  0.1068113E+00
        -11   -1    0    0    0    0  0.00000000000E+00  0.00000000000E+00  0.18250000000E+03  0.18250000000E+03  0.00000000000E+00 0. -1.
         11   -1    0    0    0    0 -0.00000000000E+00 -0.00000000000E+00 -0.18250000000E+03  0.18250000000E+03  0.00000000000E+00 0.  1.
        -11    1    1    2    0    0  0.12630273862E+01 -0.42461167460E+01  0.18201574523E+03  0.18206964672E+03  0.00000000000E+00 0. -1.
         11    1    1    2    0    0 -0.33278336837E+01 -0.88982790011E+00 -0.11326134639E+03  0.11331371874E+03  0.00000000000E+00 0.  1.
        -15    1    1    2    0    0  0.12458376981E+01  0.16273721020E+00 -0.33537611271E+01  0.39980042105E+01  0.17770000000E+01 0.  1.
         15    1    1    2    0    0  0.81896859939E+00  0.49732074359E+01 -0.65400637721E+02  0.65618630320E+02  0.17770000000E+01 0.  1.
</event>
<event>
 6    1  0.1298204E-002  0.1878032E+03  0.7546771E-02  0.1064310E+00
        -11   -1    0    0    0    0  0.00000000000E+00  0.00000000000E+00  0.18250000000E+03  0.18250000000E+03  0.00000000000E+00 0. -1.
         11   -1    0    0    0    0 -0.00000000000E+00 -0.00000000000E+00 -0.18250000000E+03  0.18250000000E+03  0.00000000000E+00 0.  1.
        -11    1    1    2    0    0 -0.75800832944E+01 -0.30027792536E+01  0.17700914044E+03  0.17719681189E+03  0.00000000000E+00 0. -1.
         11    1    1    2    0    0 -0.26485306083E+01 -0.63544548182E+00 -0.16866722679E+03  0.16868921690E+03  0.00000000000E+00 0.  1.
        -15    1    1    2    0    0  0.81942257408E+01  0.32011450277E+01  0.13204672445E+01  0.90716055758E+01  0.17770000000E+01 0. -1.
         15    1    1    2    0    0  0.20343881619E+01  0.43707970772E+00 -0.96623808969E+01  0.10042365631E+02  0.17770000000E+01 0. -1.
</event>
<event>
 6    1  0.1298204E-002  0.1825709E+03  0.7546771E-02  0.1068398E+00
        -11   -1    0    0    0    0  0.00000000000E+00  0.00000000000E+00  0.18250000000E+03  0.18250000000E+03  0.00000000000E+00 0. -1.
         11   -1    0    0    0    0 -0.00000000000E+00 -0.00000000000E+00 -0.18250000000E+03  0.18250000000E+03  0.00000000000E+00 0. -1.
        -11    1    1    2    0    0 -0.17362454982E+00 -0.19234902303E+01  0.44478484044E+02  0.44520394237E+02  0.00000000000E+00 0. -1.
         11    1    1    2    0    0  0.39209750899E+01  0.36135108632E+01 -0.18235115201E+03  0.18242909347E+03  0.00000000000E+00 0. -1.
        -15    1    1    2    0    0  0.62037644035E+00  0.25141056767E+00  0.34766988670E+02  0.34818806763E+02  0.17770000000E+01 0. -1.
         15    1    1    2    0    0 -0.43677269804E+01 -0.19414312006E+01  0.10310567929E+03  0.10323170553E+03  0.17770000000E+01 0. -1.
</event>
<event>
 6    1  0.1298204E-002  0.1877824E+03  0.7546771E-02  0.1064326E+00
        -11   -1    0    0    0    0  0.00000000000E+00  0.00000000000E+00  0.18250000000E+03  0.18250000000E+03  0.00000000000E+00 0. -1.
         11   -1    0    0    0    0 -0.00000000000E+00 -0.00000000000E+00 -0.18250000000E+03  0.18250000000E+03  0.00000000000E+00 0.  1.
        -11    1    1    2    0    0 -0.65002476601E+01 -0.10506634831E+02  0.10902116414E+03  0.10971899027E+03  0.00000000000E+00 0. -1.
         11    1    1    2    0    0  0.13523986987E+01 -0.39539548344E+01 -0.17716830589E+03  0.17721758195E+03  0.00000000000E+00 0.  1.
        -15    1    1    2    0    0 -0.14753944203E+01  0.31599641548E+01 -0.34735603220E+01  0.52331168978E+01  0.17770000000E+01 0.  1.
         15    1    1    2    0    0  0.66232433817E+01  0.11300625510E+02  0.71620702071E+02  0.72830310887E+02  0.17770000000E+01 0. -1.
</event>
<event>
 6    1  0.1298204E-002  0.1830389E+03  0.7546771E-02  0.1068027E+00
        -11   -1    0    0    0    0  0.00000000000E+00  0.00000000000E+00  0.18250000000E+03  0.18250000000E+03  0.00000000000E+00 0.  1.
         11   -1    0    0    0    0 -0.00000000000E+00 -0.00000000000E+00 -0.18250000000E+03  0.18250000000E+03  0.00000000000E+00 0. -1.
        -11    1    1    2    0    0  0.25398717782E+01 -0.30836070574E+01  0.18191723377E+03  0.18196109343E+03  0.00000000000E+00 0.  1.
         11    1    1    2    0    0  0.25805093322E+01 -0.10368665533E+01 -0.97412212534E+02  0.97451902348E+02  0.00000000000E+00 0. -1.
        -15    1    1    2    0    0  0.95025424707E+00 -0.10174518544E+00 -0.24215570239E+01  0.31519839208E+01  0.17770000000E+01 0. -1.
         15    1    1    2    0    0 -0.60706353575E+01  0.42222187962E+01 -0.82083464213E+02  0.82435020297E+02  0.17770000000E+01 0. -1.
</event>
<event>
 6    1  0.1298204E-002  0.1833392E+03  0.7546771E-02  0.1067789E+00
        -11   -1    0    0    0    0  0.00000000000E+00  0.00000000000E+00  0.18250000000E+03  0.18250000000E+03  0.00000000000E+00 0. -1.
         11   -1    0    0    0    0 -0.00000000000E+00 -0.00000000000E+00 -0.18250000000E+03  0.18250000000E+03  0.00000000000E+00 0. -1.
        -11    1    1    2    0    0  0.11434956944E+01  0.17462452153E+01  0.64873808362E+02  0.64907379905E+02  0.00000000000E+00 0. -1.
         11    1    1    2    0    0  0.14079627644E+01 -0.38483514600E+01 -0.18161458603E+03  0.18166081038E+03  0.00000000000E+00 0. -1.
        -15    1    1    2    0    0 -0.92793411651E+01 -0.42713922250E+01  0.54156667726E+02  0.55140306058E+02  0.17770000000E+01 0. -1.
         15    1    1    2    0    0  0.67278827063E+01  0.63734984697E+01  0.62584109945E+02  0.63291503656E+02  0.17770000000E+01 0.  1.
</event>
<event>
 6    1  0.1298204E-002  0.1849966E+03  0.7546771E-02  0.1066485E+00
        -11   -1    0    0    0    0  0.00000000000E+00  0.00000000000E+00  0.18250000000E+03  0.18250000000E+03  0.00000000000E+00 0. -1.
         11   -1    0    0    0    0 -0.00000000000E+00 -0.00000000000E+00 -0.18250000000E+03  0.18250000000E+03  0.00000000000E+00 0. -1.
        -11    1    1    2    0    0 -0.16492181847E+01  0.48210498681E+01  0.17993122299E+03  0.18000335399E+03  0.00000000000E+00 0. -1.
         11    1    1    2    0    0  0.51726206157E+01 -0.10207544883E+01 -0.15416737240E+03  0.15425750113E+03  0.00000000000E+00 0. -1.
        -15    1    1    2    0    0  0.15616327163E+01 -0.10859991420E+01 -0.24421422238E+02  0.24559757409E+02  0.17770000000E+01 0.  1.
         15    1    1    2    0    0 -0.50850351474E+01 -0.27142962377E+01 -0.13424283538E+01  0.61793874616E+01  0.17770000000E+01 0. -1.
</event>
<event>
 6    1  0.1298204E-002  0.1835010E+03  0.7546771E-02  0.1067661E+00
        -11   -1    0    0    0    0  0.00000000000E+00  0.00000000000E+00  0.18250000000E+03  0.18250000000E+03  0.00000000000E+00 0.  1.
         11   -1    0    0    0    0 -0.00000000000E+00 -0.00000000000E+00 -0.18250000000E+03  0.18250000000E+03  0.00000000000E+00 0.  1.
        -11    1    1    2    0    0 -0.72330070242E+00  0.25308062738E+01  0.17374388600E+03  0.17376382267E+03  0.00000000000E+00 0.  1.
         11    1    1    2    0    0 -0.14835255304E+01 -0.23927354058E+01 -0.18147711703E+03  0.18149895326E+03  0.00000000000E+00 0.  1.
        -15    1    1    2    0    0  0.89340459399E+00 -0.20780555221E+01  0.29341694495E+01  0.41089616547E+01  0.17770000000E+01 0. -1.
         15    1    1    2    0    0  0.13134216388E+01  0.19399846542E+01  0.47990615716E+01  0.56282624164E+01  0.17770000000E+01 0.  1.
</event>
<event>
 6    1  0.1298204E-002  0.1841484E+03  0.7546771E-02  0.1067150E+00
        -11   -1    0    0    0    0  0.00000000000E+00  0.00000000000E+00  0.18250000000E+03  0.18250000000E+03  0.00000000000E+00 0. -1.
         11   -1    0    0    0    0 -0.00000000000E+00 -0.00000000000E+00 -0.18250000000E+03  0.18250000000E+03  0.00000000000E+00 0. -1.
        -11    1    1    2    0    0  0.76610633168E+01  0.30273770815E+01  0.14993172009E+03  0.15015784226E+03  0.00000000000E+00 0. -1.
         11    1    1    2    0    0  0.56730811716E+00  0.68851930146E+01 -0.18071961820E+03  0.18085161908E+03  0.00000000000E+00 0. -1.
        -15    1    1    2    0    0 -0.37660372353E+01 -0.62740972040E+01  0.11194753062E+02  0.13491758866E+02  0.17770000000E+01 0. -1.
         15    1    1    2    0    0 -0.44623341986E+01 -0.36384728922E+01  0.19593145040E+02  0.20498779794E+02  0.17770000000E+01 0.  1.
</event>
<event>
 6    1  0.1298204E-002  0.1830327E+03  0.7546771E-02  0.1068032E+00
        -11   -1    0    0    0    0  0.00000000000E+00  0.00000000000E+00  0.18250000000E+03  0.18250000000E+03  0.00000000000E+00 0. -1.
         11   -1    0    0    0    0 -0.00000000000E+00 -0.00000000000E+00 -0.18250000000E+03  0.18250000000E+03  0.00000000000E+00 0. -1.
        -11    1    1    2    0    0 -0.48131961381E+01  0.44299806162E+01  0.18184968667E+03  0.18196730510E+03  0.00000000000E+00 0. -1.
         11    1    1    2    0    0 -0.60867767553E+00 -0.21326918384E+00 -0.45192876358E+02  0.45197478312E+02  0.00000000000E+00 0. -1.
        -15    1    1    2    0    0 -0.27076083574E+01 -0.10203283979E+01 -0.61566246709E+01  0.70309294829E+01  0.17770000000E+01 0.  1.
         15    1    1    2    0    0  0.81294821710E+01 -0.31963830345E+01 -0.13050018564E+03  0.13080428710E+03  0.17770000000E+01 0. -1.
</event>
<event>
 6    1  0.1298204E-002  0.1901582E+03  0.7546771E-02  0.1062517E+00
        -11   -1    0    0    0    0  0.00000000000E+00  0.00000000000E+00  0.18250000000E+03  0.18250000000E+03  0.00000000000E+00 0.  1.
         11   -1    0    0    0    0 -0.00000000000E+00 -0.00000000000E+00 -0.18250000000E+03  0.18250000000E+03  0.00000000000E+00 0. -1.
        -11    1    1    2    0    0  0.28074364581E+01  0.29936184592E+00  0.16461304006E+03  0.16463725057E+03  0.00000000000E+00 0.  1.
         11    1    1    2    0    0 -0.16124818333E+01 -0.29939126622E+01 -0.17480871538E+03  0.17484178729E+03  0.00000000000E+00 0. -1.
        -15    1    1    2    0    0  0.60868590513E+00  0.45034097052E+01 -0.67293718190E+01  0.83122422716E+01  0.17770000000E+01 0.  1.
         15    1    1    2    0    0 -0.18036405299E+01 -0.18088588889E+01  0.16925047145E+02  0.17208719868E+02  0.17770000000E+01 0.  1.
</event>
<event>
 6    1  0.1298204E-002  0.1842902E+03  0.7546771E-02  0.1067039E+00
        -11   -1    0    0    0    0  0.00000000000E+00  0.00000000000E+00  0.18250000000E+03  0.18250000000E+03  0.00000000000E+00 0. -1.
         11   -1    0    0    0    0 -0.00000000000E+00 -0.00000000000E+00 -0.18250000000E+03  0.18250000000E+03  0.00000000000E+00 0.  1.
        -11    1    1    2    0    0 -0.78696555024E+01  0.57414113069E+01  0.18044706485E+03  0.18070981848E+03  0.00000000000E+00 0. -1.
         11    1    1    2    0    0 -0.44794226260E+00 -0.81859998768E+00 -0.53587038128E+02  0.53595162222E+02  0.00000000000E+00 0.  1.
        -15    1    1    2    0    0  0.56166947420E+01 -0.78604390639E-01 -0.28436762296E+01  0.65419922022E+01  0.17770000000E+01 0. -1.
         15    1    1    2    0    0  0.27009030230E+01 -0.48442069286E+01 -0.12401635049E+03  0.12415302710E+03  0.17770000000E+01 0.  1.
</event>
<event>
 6    1  0.1298204E-002  0.1853570E+03  0.7546771E-02  0.1066203E+00
        -11   -1    0    0    0    0  0.00000000000E+00  0.00000000000E+00  0.18250000000E+03  0.18250000000E+03  0.00000000000E+00 0.  1.
         11   -1    0    0    0    0 -0.00000000000E+00 -0.00000000000E+00 -0.18250000000E+03  0.18250000000E+03  0.00000000000E+00 0. -1.
        -11    1    1    2    0    0  0.83301778556E+01  0.74035296205E+00  0.17944826970E+03  0.17964303907E+03  0.00000000000E+00 0.  1.
         11    1    1    2    0    0 -0.19785105735E+01  0.15670151264E+01 -0.16424335326E+03  0.16426274420E+03  0.00000000000E+00 0. -1.
        -15    1    1    2    0    0 -0.49500889397E+00  0.18687101220E+01 -0.13143875417E+02  0.13403592850E+02  0.17770000000E+01 0. -1.
         15    1    1    2    0    0 -0.58566583881E+01 -0.41760782104E+01 -0.20610410257E+01  0.76906238892E+01  0.17770000000E+01 0.  1.
</event>
<event>
 6    1  0.1298204E-002  0.1840887E+03  0.7546771E-02  0.1067197E+00
        -11   -1    0    0    0    0  0.00000000000E+00  0.00000000000E+00  0.18250000000E+03  0.18250000000E+03  0.00000000000E+00 0. -1.
         11   -1    0    0    0    0 -0.00000000000E+00 -0.00000000000E+00 -0.18250000000E+03  0.18250000000E+03  0.00000000000E+00 0. -1.
        -11    1    1    2    0    0  0.61362868308E-01  0.26854729052E+01  0.16805538992E+03  0.16807685626E+03  0.00000000000E+00 0. -1.
         11    1    1    2    0    0 -0.45219372269E+01 -0.34957438946E+01 -0.18082098104E+03  0.18091129132E+03  0.00000000000E+00 0. -1.
        -15    1    1    2    0    0  0.16441627184E+01 -0.66926131195E+00  0.12036274768E+02  0.12295561030E+02  0.17770000000E+01 0.  1.
         15    1    1    2    0    0  0.28164116402E+01  0.14795323013E+01  0.72931635707E+00  0.37162913915E+01  0.17770000000E+01 0. -1.
</event>
<event>
 6    1  0.1298204E-002  0.1838908E+03  0.7546771E-02  0.1067353E+00
        -11   -1    0    0    0    0  0.00000000000E+00  0.00000000000E+00  0.18250000000E+03  0.18250000000E+03  0.00000000000E+00 0.  1.
         11   -1    0    0    0    0 -0.00000000000E+00 -0.00000000000E+00 -0.18250000000E+03  0.18250000000E+03  0.00000000000E+00 0. -1.
        -11    1    1    2    0    0  0.34058915716E+01  0.45202977416E+01  0.18102078841E+03  0.18110924611E+03  0.00000000000E+00 0.  1.
         11    1    1    2    0    0 -0.11116859739E+01  0.27342920242E+01 -0.13538407013E+03  0.13541624217E+03  0.00000000000E+00 0. -1.
        -15    1    1    2    0    0  0.31713706217E+01 -0.80711761446E+01 -0.37165880592E+02  0.38205521658E+02  0.17770000000E+01 0. -1.
         15    1    1    2    0    0 -0.54655762194E+01  0.81658637875E+00 -0.84708376915E+01  0.10268990063E+02  0.17770000000E+01 0.  1.
</event>
<event>
 6    1  0.1298204E-002  0.1825854E+03  0.7546771E-02  0.1068387E+00
        -11   -1    0    0    0    0  0.00000000000E+00  0.00000000000E+00  0.18250000000E+03  0.18250000000E+03  0.00000000000E+00 0.  1.
         11   -1    0    0    0    0 -0.00000000000E+00 -0.00000000000E+00 -0.18250000000E+03  0.18250000000E+03  0.00000000000E+00 0.  1.
        -11    1    1    2    0    0 -0.17605250053E+01  0.33614387838E+01  0.18237517134E+03  0.18241464262E+03  0.00000000000E+00 0.  1.
         11    1    1    2    0    0 -0.59408583465E+00  0.81784056230E-01 -0.17408375068E+02  0.17418701131E+02  0.00000000000E+00 0.  1.
        -15    1    1    2    0    0  0.31796250764E+01  0.52358283524E+00 -0.80514074870E+02  0.80598127372E+02  0.17770000000E+01 0. -1.
         15    1    1    2    0    0 -0.82501423647E+00 -0.39668056753E+01 -0.84452721403E+02  0.84568528881E+02  0.17770000000E+01 0.  1.
</event>
<event>
 6    1  0.1298204E-002  0.1840549E+03  0.7546771E-02  0.1067224E+00
        -11   -1    0    0    0    0  0.00000000000E+00  0.00000000000E+00  0.18250000000E+03  0.18250000000E+03  0.00000000000E+00 0.  1.
         11   -1    0    0    0    0 -0.00000000000E+00 -0.00000000000E+00 -0.18250000000E+03  0.18250000000E+03  0.00000000000E+00 0. -1.
        -11    1    1    2    0    0 -0.35219097875E+01  0.12647161230E+00  0.17881846093E+03  0.17885318508E+03  0.00000000000E+00 0.  1.
         11    1    1    2    0    0  0.36092451756E+01 -0.48261708261E+00 -0.18090847662E+03  0.18094512009E+03  0.00000000000E+00 0. -1.
        -15    1    1    2    0    0  0.12649410910E+01  0.38650411489E+00  0.19712662741E+01  0.29653129882E+01  0.17770000000E+01 0. -1.
         15    1    1    2    0    0 -0.13522764791E+01 -0.30358644571E-01  0.11874942179E+00  0.22363818432E+01  0.17770000000E+01 0. -1.
</event>
<event>
 6    1  0.1298204E-002  0.1852453E+03  0.7546771E-02  0.1066290E+00
        -11   -1    0    0    0    0  0.00000000000E+00  0.00000000000E+00  0.18250000000E+03  0.18250000000E+03  0.00000000000E+00 0. -1.
         11   -1    0    0    0    0 -0.00000000000E+00 -0.00000000000E+00 -0.18250000000E+03  0.18250000000E+03  0.00000000000E+00 0. -1.
        -11    1    1    2    0    0  0.22771757498E+01 -0.38501684784E+01  0.17096285361E+03  0.17102136312E+03  0.00000000000E+00 0. -1.
         11    1    1    2    0    0 -0.61982685795E+01  0.48517265826E+00 -0.17964714542E+03  0.17975469614E+03  0.00000000000E+00 0. -1.
        -15    1    1    2    0    0 -0.86158613194E+00 -0.19394118647E+01 -0.92743499656E-01  0.27694727658E+01  0.17770000000E+01 0. -1.
         15    1    1    2    0    0  0.47826789616E+01  0.53044076848E+01  0.87770353060E+01  0.11454467980E+02  0.17770000000E+01 0.  1.
</event>
<event>
 6    1  0.1298204E-002  0.2149437E+03  0.7546771E-02  0.1045212E+00
        -11   -1    0    0    0    0  0.00000000000E+00  0.00000000000E+00  0.18250000000E+03  0.18250000000E+03  0.00000000000E+00 0.  1.
         11   -1    0    0    0    0 -0.00000000000E+00 -0.00000000000E+00 -0.18250000000E+03  0.18250000000E+03  0.00000000000E+00 0.  1.
        -11    1    1    2    0    0 -0.30298984042E+01  0.22016688725E+01  0.15000951377E+03  0.15005626228E+03  0.00000000000E+00 0.  1.
         11    1    1    2    0    0 -0.18868980962E+01  0.75908855611E+01 -0.96662414656E+02  0.96978370451E+02  0.00000000000E+00 0.  1.
        -15    1    1    2    0    0  0.19200379446E+01 -0.33683012608E+01 -0.85188934592E+02  0.85295628874E+02  0.17770000000E+01 0. -1.
         15    1    1    2    0    0  0.29967585558E+01 -0.64242531728E+01  0.31841835482E+02  0.32669738391E+02  0.17770000000E+01 0.  1.
</event>
<event>
 6    1  0.1298204E-002  0.1857340E+03  0.7546771E-02  0.1065909E+00
        -11   -1    0    0    0    0  0.00000000000E+00  0.00000000000E+00  0.18250000000E+03  0.18250000000E+03  0.00000000000E+00 0. -1.
         11   -1    0    0    0    0 -0.00000000000E+00 -0.00000000000E+00 -0.18250000000E+03  0.18250000000E+03  0.00000000000E+00 0. -1.
        -11    1    1    2    0    0 -0.82369818147E+00  0.25934764679E+01  0.17539931029E+03  0.17542041685E+03  0.00000000000E+00 0. -1.
         11    1    1    2    0    0 -0.69725619451E+00 -0.41669489285E+01 -0.17921624754E+03  0.17926603976E+03  0.00000000000E+00 0. -1.
        -15    1    1    2    0    0  0.14186082983E+01  0.30350691467E+01 -0.18330878602E+01  0.42121294297E+01  0.17770000000E+01 0. -1.
         15    1    1    2    0    0  0.10234607772E+00 -0.14615966861E+01  0.56500251084E+01  0.61014139606E+01  0.17770000000E+01 0. -1.
</event>
<event>
 6    1  0.1298204E-002  0.1836185E+03  0.7546771E-02  0.1067568E+00
        -11   -1    0    0    0    0  0.00000000000E+00  0.00000000000E+00  0.18250000000E+03  0.18250000000E+03  0.00000000000E+00 0.  1.
         11   -1    0    0    0    0 -0.00000000000E+00 -0.00000000000E+00 -0.18250000000E+03  0.18250000000E+03  0.00000000000E+00 0.  1.
        -11    1    1    2    0    0 -0.96133982580E+00 -0.24719887879E+01  0.16697610317E+03  0.16699716744E+03  0.00000000000E+00 0.  1.
         11    1    1    2    0    0  0.60880537798E+00 -0.35665270852E+01 -0.18134544582E+03  0.18138153566E+03  0.00000000000E+00 0.  1.
        -15    1    1    2    0    0 -0.14483745125E+01  0.48791492783E+01  0.11009824719E+02  0.12258786880E+02  0.17770000000E+01 0. -1.
         15    1    1    2    0    0  0.18009089603E+01  0.11593665947E+01  0.33595179324E+01  0.43625100255E+01  0.17770000000E+01 0.  1.
</event>
<event>
 6    1  0.1298204E-002  0.1826270E+03  0.7546771E-02  0.1068354E+00
        -11   -1    0    0    0    0  0.00000000000E+00  0.00000000000E+00  0.18250000000E+03  0.18250000000E+03  0.00000000000E+00 0.  1.
         11   -1    0    0    0    0 -0.00000000000E+00 -0.00000000000E+00 -0.18250000000E+03  0.18250000000E+03  0.00000000000E+00 0.  1.
        -11    1    1    2    0    0 -0.92753288350E+00  0.55654234879E+00  0.59908312649E+02  0.59918077248E+02  0.00000000000E+00 0.  1.
         11    1    1    2    0    0  0.86838288460E+00 -0.38249621476E+01 -0.18233078845E+03  0.18237297179E+03  0.00000000000E+00 0.  1.
        -15    1    1    2    0    0 -0.20880758148E+01  0.31603738890E+01  0.36137527255E+02  0.36378931112E+02  0.17770000000E+01 0. -1.
         15    1    1    2    0    0  0.21472258137E+01  0.10804590979E+00  0.86284948545E+02  0.86330019848E+02  0.17770000000E+01 0.  1.
</event>
<event>
 6    1  0.1298204E-002  0.1906300E+03  0.7546771E-02  0.1062161E+00
        -11   -1    0    0    0    0  0.00000000000E+00  0.00000000000E+00  0.18250000000E+03  0.18250000000E+03  0.00000000000E+00 0. -1.
         11   -1    0    0    0    0 -0.00000000000E+00 -0.00000000000E+00 -0.18250000000E+03  0.18250000000E+03  0.00000000000E+00 0.  1.
        -11    1    1    2    0    0 -0.83723475682E+01 -0.11008067704E+01  0.17416542435E+03  0.17437001755E+03  0.00000000000E+00 0. -1.
         11    1    1    2    0    0  0.23618163244E+01  0.33535635759E+01 -0.16382530615E+03  0.16387664721E+03  0.00000000000E+00 0.  1.
        -15    1    1    2    0    0  0.84493123405E+01 -0.14353526111E+01  0.56779613024E+01  0.10433028788E+02  0.17770000000E+01 0.  1.
         15    1    1    2    0    0 -0.24387810967E+01 -0.81740419439E+00 -0.16018079503E+02  0.16320306456E+02  0.17770000000E+01 0. -1.
</event>
<event>
 6    1  0.1298204E-002  0.2020840E+03  0.7546771E-02  0.1053854E+00
        -11   -1    0    0    0    0  0.00000000000E+00  0.00000000000E+00  0.18250000000E+03  0.18250000000E+03  0.00000000000E+00 0.  1.
         11   -1    0    0    0    0 -0.00000000000E+00 -0.00000000000E+00 -0.18250000000E+03  0.18250000000E+03  0.00000000000E+00 0.  1.
        -11    1    1    2    0    0 -0.14993283733E+00 -0.29441027212E+01  0.72608389231E+02  0.72668207680E+02  0.00000000000E+00 0.  1.
         11    1    1    2    0    0 -0.93773024170E+00  0.21132111813E+01 -0.16289964113E+03  0.16291604611E+03  0.00000000000E+00 0.  1.
        -15    1    1    2    0    0 -0.57059770309E+01  0.23915030127E+01  0.10909409664E+03  0.10928383737E+03  0.17770000000E+01 0.  1.
         15    1    1    2    0    0  0.67936401100E+01 -0.15606114727E+01 -0.18802844736E+02  0.20131908834E+02  0.17770000000E+01 0. -1.
</event>
<event>
 6    1  0.1298204E-002  0.1921361E+03  0.7546771E-02  0.1061033E+00
        -11   -1    0    0    0    0  0.00000000000E+00  0.00000000000E+00  0.18250000000E+03  0.18250000000E+03  0.00000000000E+00 0.  1.
         11   -1    0    0    0    0 -0.00000000000E+00 -0.00000000000E+00 -0.18250000000E+03  0.18250000000E+03  0.00000000000E+00 0. -1.
        -11    1    1    2    0    0 -0.61378090118E+00  0.25575156286E+01  0.17284387298E+03  0.17286388298E+03  0.00000000000E+00 0.  1.
         11    1    1    2    0    0 -0.12460684721E+02 -0.45031137848E+01 -0.14759540662E+03  0.14818890226E+03  0.00000000000E+00 0. -1.
        -15    1    1    2    0    0  0.83400948596E+01  0.16304476702E+02 -0.21443625973E+02  0.28255618320E+02  0.17770000000E+01 0. -1.
         15    1    1    2    0    0  0.47343707626E+01 -0.14358878546E+02 -0.38048403873E+01  0.15691596445E+02  0.17770000000E+01 0.  1.
</event>
<event>
 6    1  0.1298204E-002  0.1858472E+03  0.7546771E-02  0.1065821E+00
        -11   -1    0    0    0    0  0.00000000000E+00  0.00000000000E+00  0.18250000000E+03  0.18250000000E+03  0.00000000000E+00 0. -1.
         11   -1    0    0    0    0 -0.00000000000E+00 -0.00000000000E+00 -0.18250000000E+03  0.18250000000E+03  0.00000000000E+00 0.  1.
        -11    1    1    2    0    0 -0.14486096330E+02  0.42426535723E+01  0.17851581448E+03  0.17915284848E+03  0.00000000000E+00 0. -1.
         11    1    1    2    0    0  0.11358273678E+02  0.40984000831E+01 -0.14513735321E+03  0.14563879483E+03  0.00000000000E+00 0.  1.
        -15    1    1    2    0    0  0.69248762826E+01 -0.53140783773E+01 -0.30098585499E+01  0.94026761095E+01  0.17770000000E+01 0. -1.
         15    1    1    2    0    0 -0.37970536314E+01 -0.30269752780E+01 -0.30368602728E+02  0.30805680584E+02  0.17770000000E+01 0.  1.
</event>
<event>
 6    1  0.1298204E-002  0.1830358E+03  0.7546771E-02  0.1068029E+00
        -11   -1    0    0    0    0  0.00000000000E+00  0.00000000000E+00  0.18250000000E+03  0.18250000000E+03  0.00000000000E+00 0.  1.
         11   -1    0    0    0    0 -0.00000000000E+00 -0.00000000000E+00 -0.18250000000E+03  0.18250000000E+03  0.00000000000E+00 0. -1.
        -11    1    1    2    0    0 -0.49594447322E+01  0.23848918580E+01  0.18188096896E+03  0.18196420162E+03  0.00000000000E+00 0.  1.
         11    1    1    2    0    0  0.63861058502E+01 -0.52440316751E+01 -0.73224633631E+02  0.73689410274E+02  0.00000000000E+00 0. -1.
        -15    1    1    2    0    0 -0.43013541467E+01 -0.20514074997E+01 -0.74529045589E+02  0.74702384739E+02  0.17770000000E+01 0.  1.
         15    1    1    2    0    0  0.28746930288E+01  0.49105473167E+01 -0.34127289742E+02  0.34644003364E+02  0.17770000000E+01 0. -1.
</event>
<event>
 6    1  0.1298204E-002  0.1841994E+03  0.7546771E-02  0.1067110E+00
        -11   -1    0    0    0    0  0.00000000000E+00  0.00000000000E+00  0.18250000000E+03  0.18250000000E+03  0.00000000000E+00 0.  1.
         11   -1    0    0    0    0 -0.00000000000E+00 -0.00000000000E+00 -0.18250000000E+03  0.18250000000E+03  0.00000000000E+00 0.  1.
        -11    1    1    2    0    0  0.13600610322E+01 -0.59497863881E+00  0.81000557711E+02  0.81014159966E+02  0.00000000000E+00 0.  1.
         11    1    1    2    0    0 -0.14505736549E+02 -0.11156727512E+01 -0.18021430082E+03  0.18080059551E+03  0.00000000000E+00 0.  1.
        -15    1    1    2    0    0  0.11361482738E+02  0.10350164479E+02  0.84749191217E+02  0.86149824932E+02  0.17770000000E+01 0.  1.
         15    1    1    2    0    0  0.17841927793E+01 -0.86395130892E+01  0.14464551888E+02  0.17035419591E+02  0.17770000000E+01 0. -1.
</event>
<event>
 6    1  0.1298204E-002  0.1881996E+03  0.7546771E-02  0.1064006E+00
        -11   -1    0    0    0    0  0.00000000000E+00  0.00000000000E+00  0.18250000000E+03  0.18250000000E+03  0.00000000000E+00 0. -1.
         11   -1    0    0    0    0 -0.00000000000E+00 -0.00000000000E+00 -0.18250000000E+03  0.18250000000E+03  0.00000000000E+00 0. -1.
        -11    1    1    2    0    0 -0.49034998679E+00 -0.17274359670E+01  0.99631247799E+02  0.99647428548E+02  0.00000000000E+00 0. -1.
         11    1    1    2    0    0 -0.36829460692E+01  0.49024796365E-01 -0.17676199218E+03  0.17680036305E+03  0.00000000000E+00 0. -1.
        -15    1    1    2    0    0  0.59200656395E+01  0.71163522132E+01  0.80922756971E+02  0.81469871553E+02  0.17770000000E+01 0. -1.
         15    1    1    2    0    0 -0.17467695835E+01 -0.54379410425E+01 -0.37920125892E+01  0.70823368485E+01  0.17770000000E+01 0.  1.
</event>
<event>
 6    1  0.1298204E-002  0.1859665E+03  0.7546771E-02  0.1065728E+00
        -11   -1    0    0    0    0  0.00000000000E+00  0.00000000000E+00  0.18250000000E+03  0.18250000000E+03  0.00000000000E+00 0. -1.
         11   -1    0    0    0    0 -0.00000000000E+00 -0.00000000000E+00 -0.18250000000E+03  0.18250000000E+03  0.00000000000E+00 0. -1.
        -11    1    1    2    0    0 -0.34972713341E+01 -0.52549930782E+01  0.16269505937E+03  0.16281746897E+03  0.00000000000E+00 0. -1.
         11    1    1    2    0    0  0.26793516359E+01 -0.65808403760E-01 -0.17901344343E+03  0.17903350576E+03  0.00000000000E+00 0. -1.
        -15    1    1    2    0    0  0.21902217431E+00  0.45191454945E+01 -0.15980866581E+01  0.51168600411E+01  0.17770000000E+01 0.  1.
         15    1    1    2    0    0  0.59889752392E+00  0.80165598751E+00  0.17916470720E+02  0.18032165223E+02  0.17770000000E+01 0. -1.
</event>
<event>
 6    1  0.1298204E-002  0.1030899E+03  0.7546771E-02  0.1158575E+00
        -11   -1    0    0    0    0  0.00000000000E+00  0.00000000000E+00  0.18250000000E+03  0.18250000000E+03  0.00000000000E+00 0.  1.
         11   -1    0    0    0    0 -0.00000000000E+00 -0.00000000000E+00 -0.18250000000E+03  0.18250000000E+03  0.00000000000E+00 0. -1.
        -11    1    1    2    0    0 -0.37576170013E+01 -0.13988992315E+02  0.13639929535E+03  0.13716624717E+03  0.00000000000E+00 0.  1.
         11    1    1    2    0    0  0.24721362840E+02 -0.20441843516E+02 -0.40583962594E+02  0.51730771953E+02  0.00000000000E+00 0. -1.
        -15    1    1    2    0    0 -0.15693428984E+02  0.83633042005E+02 -0.23207680717E+02  0.88218612557E+02  0.17770000000E+01 0.  1.
         15    1    1    2    0    0 -0.52703168543E+01 -0.49202206174E+02 -0.72607652035E+02  0.87884368321E+02  0.17770000000E+01 0. -1.
</event>
<event>
 6    1  0.1298204E-002  0.1744606E+03  0.7546771E-02  0.1075041E+00
        -11   -1    0    0    0    0  0.00000000000E+00  0.00000000000E+00  0.18250000000E+03  0.18250000000E+03  0.00000000000E+00 0. -1.
         11   -1    0    0    0    0 -0.00000000000E+00 -0.00000000000E+00 -0.18250000000E+03  0.18250000000E+03  0.00000000000E+00 0.  1.
        -11    1    1    2    0    0 -0.67718353177E+00 -0.40045069608E+01  0.17435774000E+03  0.17440503477E+03  0.00000000000E+00 0. -1.
         11    1    1    2    0    0  0.14914975154E+01 -0.20102605407E+01 -0.17455111237E+03  0.17456905952E+03  0.00000000000E+00 0.  1.
        -15    1    1    2    0    0 -0.15848867566E+01  0.48612117098E+01  0.70039524487E+01  0.88519107667E+01  0.17770000000E+01 0. -1.
         15    1    1    2    0    0  0.77057277290E+00  0.11535557917E+01 -0.68105800825E+01  0.71739949416E+01  0.17770000000E+01 0.  1.
</event>
<event>
 6    1  0.1298204E-002  0.1854997E+03  0.7546771E-02  0.1066092E+00
        -11   -1    0    0    0    0  0.00000000000E+00  0.00000000000E+00  0.18250000000E+03  0.18250000000E+03  0.00000000000E+00 0.  1.
         11   -1    0    0    0    0 -0.00000000000E+00 -0.00000000000E+00 -0.18250000000E+03  0.18250000000E+03  0.00000000000E+00 0.  1.
        -11    1    1    2    0    0  0.24695119956E+01  0.27276705473E+01  0.17212154193E+03  0.17216086627E+03  0.00000000000E+00 0.  1.
         11    1    1    2    0    0 -0.19415427861E+01  0.55778816715E+01 -0.17940314961E+03  0.17950034107E+03  0.00000000000E+00 0.  1.
        -15    1    1    2    0    0 -0.11423961730E+01 -0.52721373508E+01  0.53295636228E+00  0.57045834858E+01  0.17770000000E+01 0.  1.
         15    1    1    2    0    0  0.61442696355E+00 -0.30334148679E+01  0.67486513169E+01  0.76342091831E+01  0.17770000000E+01 0. -1.
</event>
<event>
 6    1  0.1298204E-002  0.1840776E+03  0.7546771E-02  0.1067206E+00
        -11   -1    0    0    0    0  0.00000000000E+00  0.00000000000E+00  0.18250000000E+03  0.18250000000E+03  0.00000000000E+00 0.  1.
         11   -1    0    0    0    0 -0.00000000000E+00 -0.00000000000E+00 -0.18250000000E+03  0.18250000000E+03  0.00000000000E+00 0. -1.
        -11    1    1    2    0    0  0.31105228462E+01 -0.28175983180E+01  0.13865154296E+03  0.13871504813E+03  0.00000000000E+00 0.  1.
         11    1    1    2    0    0 -0.74169361424E+01 -0.23359678521E+01 -0.18075524144E+03  0.18092242812E+03  0.00000000000E+00 0. -1.
        -15    1    1    2    0    0  0.96350252917E+00  0.28820033290E+01  0.40519072726E+02  0.40671701020E+02  0.17770000000E+01 0.  1.
         15    1    1    2    0    0  0.33429107670E+01  0.22715628411E+01  0.15846257592E+01  0.46908227352E+01  0.17770000000E+01 0. -1.
</event>
<event>
 6    1  0.1298204E-002  0.1826840E+03  0.7546771E-02  0.1068308E+00
        -11   -1    0    0    0    0  0.00000000000E+00  0.00000000000E+00  0.18250000000E+03  0.18250000000E+03  0.00000000000E+00 0. -1.
         11   -1    0    0    0    0 -0.00000000000E+00 -0.00000000000E+00 -0.18250000000E+03  0.18250000000E+03  0.00000000000E+00 0. -1.
        -11    1    1    2    0    0  0.18147406186E+01  0.19081058485E+01  0.97119038759E+02  0.97154731439E+02  0.00000000000E+00 0. -1.
         11    1    1    2    0    0 -0.40230543254E+01  0.22421914937E+01 -0.18225783425E+03  0.18231601832E+03  0.00000000000E+00 0. -1.
        -15    1    1    2    0    0  0.17059432484E+01 -0.53427765894E+01  0.66979628249E+02  0.67237518049E+02  0.17770000000E+01 0. -1.
         15    1    1    2    0    0  0.50237045837E+00  0.11924792473E+01  0.18159167242E+02  0.18291732197E+02  0.17770000000E+01 0.  1.
</event>
<event>
 6    1  0.1298204E-002  0.1878550E+03  0.7546771E-02  0.1064270E+00
        -11   -1    0    0    0    0  0.00000000000E+00  0.00000000000E+00  0.18250000000E+03  0.18250000000E+03  0.00000000000E+00 0.  1.
         11   -1    0    0    0    0 -0.00000000000E+00 -0.00000000000E+00 -0.18250000000E+03  0.18250000000E+03  0.00000000000E+00 0. -1.
        -11    1    1    2    0    0 -0.89663122624E+01 -0.29508251481E+01  0.15089488648E+03  0.15118984387E+03  0.00000000000E+00 0.  1.
         11    1    1    2    0    0 -0.51582911490E+00 -0.50692189980E+01 -0.17707167673E+03  0.17714497385E+03  0.00000000000E+00 0. -1.
        -15    1    1    2    0    0  0.12809274368E+01  0.92387995498E+01  0.26530357544E+02  0.28178250347E+02  0.17770000000E+01 0.  1.
         15    1    1    2    0    0  0.82012139405E+01 -0.12187554037E+01 -0.35356729335E+00  0.84869319346E+01  0.17770000000E+01 0. -1.
</event>
<event>
 6    1  0.1298204E-002  0.1848043E+03  0.7546771E-02  0.1066635E+00
        -11   -1    0    0    0    0  0.00000000000E+00  0.00000000000E+00  0.18250000000E+03  0.18250000000E+03  0.00000000000E+00 0.  1.
         11   -1    0    0    0    0 -0.00000000000E+00 -0.00000000000E+00 -0.18250000000E+03  0.18250000000E+03  0.00000000000E+00 0. -1.
        -11    1    1    2    0    0 -0.16682379122E+01 -0.33400899702E+00  0.92294719138E+02  0.92310398984E+02  0.00000000000E+00 0.  1.
         11    1    1    2    0    0 -0.45244650831E+01  0.11672408023E+02 -0.17976035040E+03  0.18019572545E+03  0.00000000000E+00 0. -1.
        -15    1    1    2    0    0 -0.92584729949E+01 -0.10623730093E+02  0.48364261743E+02  0.50406770440E+02  0.17770000000E+01 0.  1.
         15    1    1    2    0    0  0.15451175990E+02 -0.71466893287E+00  0.39101369518E+02  0.42087105131E+02  0.17770000000E+01 0. -1.
</event>
<event>
 6    1  0.1298204E-002  0.1827358E+03  0.7546771E-02  0.1068267E+00
        -11   -1    0    0    0    0  0.00000000000E+00  0.00000000000E+00  0.18250000000E+03  0.18250000000E+03  0.00000000000E+00 0.  1.
         11   -1    0    0    0    0 -0.00000000000E+00 -0.00000000000E+00 -0.18250000000E+03  0.18250000000E+03  0.00000000000E+00 0.  1.
        -11    1    1    2    0    0 -0.27797210459E+01 -0.15973743132E+01  0.18223601437E+03  0.18226421313E+03  0.00000000000E+00 0.  1.
         11    1    1    2    0    0  0.32573121123E+01 -0.16200500211E+01 -0.11926859748E+03  0.11932406710E+03  0.00000000000E+00 0.  1.
        -15    1    1    2    0    0  0.16878039286E+01  0.73138616823E-01 -0.10809788870E+02  0.11084371691E+02  0.17770000000E+01 0.  1.
         15    1    1    2    0    0 -0.21653949951E+01  0.31442857175E+01 -0.52157628013E+02  0.52327348081E+02  0.17770000000E+01 0. -1.
</event>
<event>
 6    1  0.1298204E-002  0.1828511E+03  0.7546771E-02  0.1068176E+00
        -11   -1    0    0    0    0  0.00000000000E+00  0.00000000000E+00  0.18250000000E+03  0.18250000000E+03  0.00000000000E+00 0.  1.
         11   -1    0    0    0    0 -0.00000000000E+00 -0.00000000000E+00 -0.18250000000E+03  0.18250000000E+03  0.00000000000E+00 0. -1.
        -11    1    1    2    0    0  0.52835051524E+01  0.29373630187E+01  0.18204857132E+03  0.18214891119E+03  0.00000000000E+00 0.  1.
         11    1    1    2    0    0 -0.98627977779E+00  0.21150012415E+01 -0.11383488460E+03  0.11385880260E+03  0.00000000000E+00 0. -1.
        -15    1    1    2    0    0  0.87251630220E+00  0.19840774519E+00 -0.27991353323E+02  0.28061971424E+02  0.17770000000E+01 0. -1.
         15    1    1    2    0    0 -0.51697416768E+01 -0.52507720054E+01 -0.40222333399E+02  0.40930314789E+02  0.17770000000E+01 0. -1.
</event>
<event>
 6    1  0.1409215E-002  0.1879104E+03  0.7546771E-02  0.1064228E+00
        -11   -1    0    0    0    0  0.00000000000E+00  0.00000000000E+00  0.18250000000E+03  0.18250000000E+03  0.00000000000E+00 0.  1.
         11   -1    0    0    0    0 -0.00000000000E+00 -0.00000000000E+00 -0.18250000000E+03  0.18250000000E+03  0.00000000000E+00 0.  1.
        -11    1    1    2    0    0 -0.34853104068E+01 -0.40153313040E+01  0.17700976837E+03  0.17708960549E+03  0.00000000000E+00 0.  1.
         11    1    1    2    0    0  0.64966133576E+01 -0.82010350324E+01 -0.14949954270E+03  0.14986519352E+03  0.00000000000E+00 0.  1.
        -15    1    1    2    0    0 -0.48096754169E+01  0.10067552430E+02 -0.31140721948E+02  0.33126890618E+02  0.17770000000E+01 0.  1.
         15    1    1    2    0    0  0.17983724661E+01  0.21488139059E+01  0.36304962731E+01  0.49183103723E+01  0.17770000000E+01 0. -1.
</event>
<event>
 6    1  0.1298204E-002  0.1828515E+03  0.7546771E-02  0.1068175E+00
        -11   -1    0    0    0    0  0.00000000000E+00  0.00000000000E+00  0.18250000000E+03  0.18250000000E+03  0.00000000000E+00 0.  1.
         11   -1    0    0    0    0 -0.00000000000E+00 -0.00000000000E+00 -0.18250000000E+03  0.18250000000E+03  0.00000000000E+00 0.  1.
        -11    1    1    2    0    0  0.57947083223E+00 -0.77498774934E+00  0.55832163109E+02  0.55840548259E+02  0.00000000000E+00 0.  1.
         11    1    1    2    0    0  0.58048889445E+01  0.15886434958E+01 -0.18204904702E+03  0.18214849998E+03  0.00000000000E+00 0.  1.
        -15    1    1    2    0    0 -0.27967677816E+01 -0.11859976559E+00  0.72225655378E+01  0.79472736127E+01  0.17770000000E+01 0. -1.
         15    1    1    2    0    0 -0.35875919952E+01 -0.69505598084E+00  0.11899431838E+03  0.11906367815E+03  0.17770000000E+01 0.  1.
</event>
<event>
 6    1  0.1298204E-002  0.1848174E+03  0.7546771E-02  0.1066625E+00
        -11   -1    0    0    0    0  0.00000000000E+00  0.00000000000E+00  0.18250000000E+03  0.18250000000E+03  0.00000000000E+00 0. -1.
         11   -1    0    0    0    0 -0.00000000000E+00 -0.00000000000E+00 -0.18250000000E+03  0.18250000000E+03  0.00000000000E+00 0. -1.
        -11    1    1    2    0    0 -0.11111270963E+00 -0.55900012314E+01  0.12907768952E+03  0.12919872442E+03  0.00000000000E+00 0. -1.
         11    1    1    2    0    0  0.23858280792E+01 -0.31785102860E+01 -0.18013871564E+03  0.18018255181E+03  0.00000000000E+00 0. -1.
        -15    1    1    2    0    0 -0.84989048773E+01 -0.23390704423E+01  0.24795639697E+02  0.26375824378E+02  0.17770000000E+01 0.  1.
         15    1    1    2    0    0  0.62241895077E+01  0.11107581960E+02  0.26265386419E+02  0.29242899390E+02  0.17770000000E+01 0. -1.
</event>
<event>
 6    1  0.1298204E-002  0.1850437E+03  0.7546771E-02  0.1066448E+00
        -11   -1    0    0    0    0  0.00000000000E+00  0.00000000000E+00  0.18250000000E+03  0.18250000000E+03  0.00000000000E+00 0.  1.
         11   -1    0    0    0    0 -0.00000000000E+00 -0.00000000000E+00 -0.18250000000E+03  0.18250000000E+03  0.00000000000E+00 0.  1.
        -11    1    1    2    0    0 -0.27061314667E+01  0.15545209836E+01  0.17992925306E+03  0.17995631634E+03  0.00000000000E+00 0.  1.
         11    1    1    2    0    0  0.28599677411E+01 -0.18272840389E+01 -0.17781506914E+03  0.17784745484E+03  0.00000000000E+00 0.  1.
        -15    1    1    2    0    0 -0.17736439838E+01  0.21196192274E+01 -0.25151833033E+01  0.41379312101E+01  0.17770000000E+01 0. -1.
         15    1    1    2    0    0  0.16198077094E+01 -0.18468561720E+01  0.40099937610E+00  0.30582976041E+01  0.17770000000E+01 0.  1.
</event>
<event>
 6    1  0.1298204E-002  0.1846852E+03  0.7546771E-02  0.1066729E+00
        -11   -1    0    0    0    0  0.00000000000E+00  0.00000000000E+00  0.18250000000E+03  0.18250000000E+03  0.00000000000E+00 0. -1.
         11   -1    0    0    0    0 -0.00000000000E+00 -0.00000000000E+00 -0.18250000000E+03  0.18250000000E+03  0.00000000000E+00 0.  1.
        -11    1    1    2    0    0  0.47905989960E+01  0.72397106659E+01  0.18010570266E+03  0.18031480078E+03  0.00000000000E+00 0. -1.
         11    1    1    2    0    0 -0.26794201662E+01  0.57187063615E+00 -0.13887733054E+03  0.13890435294E+03  0.00000000000E+00 0.  1.
        -15    1    1    2    0    0  0.60884221672E+01  0.78450342407E+00 -0.23593586522E+02  0.24443800525E+02  0.17770000000E+01 0. -1.
         15    1    1    2    0    0 -0.81996009970E+01 -0.85960847261E+01 -0.17634785604E+02  0.21337045752E+02  0.17770000000E+01 0. -1.
</event>
<event>
 6    1  0.1298204E-002  0.1840354E+03  0.7546771E-02  0.1067239E+00
        -11   -1    0    0    0    0  0.00000000000E+00  0.00000000000E+00  0.18250000000E+03  0.18250000000E+03  0.00000000000E+00 0. -1.
         11   -1    0    0    0    0 -0.00000000000E+00 -0.00000000000E+00 -0.18250000000E+03  0.18250000000E+03  0.00000000000E+00 0. -1.
        -11    1    1    2    0    0 -0.59948800579E+00  0.32309385946E+01  0.17171684357E+03  0.17174828301E+03  0.00000000000E+00 0. -1.
         11    1    1    2    0    0  0.13326939316E+00 -0.54683679462E+01 -0.18088187381E+03  0.18096456305E+03  0.00000000000E+00 0. -1.
        -15    1    1    2    0    0 -0.68357851711E+00  0.16170018249E+01 -0.34774870027E+00  0.25220294703E+01  0.17770000000E+01 0.  1.
         15    1    1    2    0    0  0.11497971297E+01  0.62042752665E+00  0.95127789397E+01  0.97651244699E+01  0.17770000000E+01 0. -1.
</event>
<event>
 6    1  0.1298204E-002  0.1833010E+03  0.7546771E-02  0.1067819E+00
        -11   -1    0    0    0    0  0.00000000000E+00  0.00000000000E+00  0.18250000000E+03  0.18250000000E+03  0.00000000000E+00 0. -1.
         11   -1    0    0    0    0 -0.00000000000E+00 -0.00000000000E+00 -0.18250000000E+03  0.18250000000E+03  0.00000000000E+00 0.  1.
        -11    1    1    2    0    0 -0.39395528763E+01 -0.16494673099E+01  0.12887661131E+03  0.12894736043E+03  0.00000000000E+00 0. -1.
         11    1    1    2    0    0  0.11260860475E+01  0.34445361759E+01 -0.18166287752E+03  0.18169902027E+03  0.00000000000E+00 0.  1.
        -15    1    1    2    0    0  0.57333727613E+00 -0.96933355568E+00  0.50641391186E+02  0.50685072294E+02  0.17770000000E+01 0. -1.
         15    1    1    2    0    0  0.22401295526E+01 -0.82573531040E+00  0.21448750215E+01  0.36685469976E+01  0.17770000000E+01 0.  1.
</event>
<event>
 6    1  0.1298204E-002  0.1831877E+03  0.7546771E-02  0.1067909E+00
        -11   -1    0    0    0    0  0.00000000000E+00  0.00000000000E+00  0.18250000000E+03  0.18250000000E+03  0.00000000000E+00 0. -1.
         11   -1    0    0    0    0 -0.00000000000E+00 -0.00000000000E+00 -0.18250000000E+03  0.18250000000E+03  0.00000000000E+00 0. -1.
        -11    1    1    2    0    0 -0.29623914488E+01 -0.15455579863E+01  0.87836284997E+02  0.87899814987E+02  0.00000000000E+00 0. -1.
         11    1    1    2    0    0 -0.34619724199E+01 -0.90967906566E+00 -0.18177709252E+03  0.18181233218E+03  0.00000000000E+00 0. -1.
        -15    1    1    2    0    0 -0.11418028253E+01  0.80243301275E+00  0.20399480365E+01  0.30441303230E+01  0.17770000000E+01 0. -1.
         15    1    1    2    0    0  0.75661666940E+01  0.16528040392E+01  0.91900859484E+02  0.92243722510E+02  0.17770000000E+01 0.  1.
</event>
<event>
 6    1  0.1298204E-002  0.1826144E+03  0.7546771E-02  0.1068364E+00
        -11   -1    0    0    0    0  0.00000000000E+00  0.00000000000E+00  0.18250000000E+03  0.18250000000E+03  0.00000000000E+00 0. -1.
         11   -1    0    0    0    0 -0.00000000000E+00 -0.00000000000E+00 -0.18250000000E+03  0.18250000000E+03  0.00000000000E+00 0. -1.
        -11    1    1    2    0    0 -0.20785196308E+01  0.20800967474E+01  0.18236187632E+03  0.18238558326E+03  0.00000000000E+00 0. -1.
         11    1    1    2    0    0  0.11858609045E+01 -0.16519975522E+01 -0.11501169690E+03  0.11502967350E+03  0.00000000000E+00 0. -1.
        -15    1    1    2    0    0 -0.63823049966E+00  0.35899230100E+00 -0.52079274354E+02  0.52114726900E+02  0.17770000000E+01 0. -1.
         15    1    1    2    0    0  0.15308892260E+01 -0.78709149620E+00 -0.15270905070E+02  0.15470016338E+02  0.17770000000E+01 0. -1.
</event>
<event>
 6    1  0.1298204E-002  0.1738858E+03  0.7546771E-02  0.1075526E+00
        -11   -1    0    0    0    0  0.00000000000E+00  0.00000000000E+00  0.18250000000E+03  0.18250000000E+03  0.00000000000E+00 0.  1.
         11   -1    0    0    0    0 -0.00000000000E+00 -0.00000000000E+00 -0.18250000000E+03  0.18250000000E+03  0.00000000000E+00 0. -1.
        -11    1    1    2    0    0 -0.25526148990E+01  0.32586235212E+00  0.17471484145E+03  0.17473379138E+03  0.00000000000E+00 0.  1.
         11    1    1    2    0    0  0.15678707016E+01  0.23605492544E+01 -0.17303054800E+03  0.17305375162E+03  0.00000000000E+00 0. -1.
        -15    1    1    2    0    0  0.34395403315E+01  0.62156728215E+01  0.11005591939E+01  0.74049973569E+01  0.17770000000E+01 0. -1.
         15    1    1    2    0    0 -0.24547961341E+01 -0.89020844280E+01 -0.27848526471E+01  0.98074596349E+01  0.17770000000E+01 0.  1.
</event>
<event>
 6    1  0.1298204E-002  0.1859387E+03  0.7546771E-02  0.1065750E+00
        -11   -1    0    0    0    0  0.00000000000E+00  0.00000000000E+00  0.18250000000E+03  0.18250000000E+03  0.00000000000E+00 0.  1.
         11   -1    0    0    0    0 -0.00000000000E+00 -0.00000000000E+00 -0.18250000000E+03  0.18250000000E+03  0.00000000000E+00 0.  1.
        -11    1    1    2    0    0 -0.36162986303E+01 -0.53471608648E+00  0.13164326992E+03  0.13169401677E+03  0.00000000000E+00 0.  1.
         11    1    1    2    0    0  0.29133649290E+01 -0.10983949801E+01 -0.17903420437E+03  0.17906127583E+03  0.00000000000E+00 0.  1.
        -15    1    1    2    0    0  0.43538059712E+01 -0.30593975058E+00  0.49177957719E+02  0.49403223376E+02  0.17770000000E+01 0.  1.
         15    1    1    2    0    0 -0.36508722698E+01  0.19390508172E+01 -0.17870232737E+01  0.48414840269E+01  0.17770000000E+01 0.  1.
</event>
<event>
 6    1  0.1298204E-002  0.1831548E+03  0.7546771E-02  0.1067935E+00
        -11   -1    0    0    0    0  0.00000000000E+00  0.00000000000E+00  0.18250000000E+03  0.18250000000E+03  0.00000000000E+00 0.  1.
         11   -1    0    0    0    0 -0.00000000000E+00 -0.00000000000E+00 -0.18250000000E+03  0.18250000000E+03  0.00000000000E+00 0. -1.
        -11    1    1    2    0    0 -0.13896847312E+01  0.22289286466E+01  0.18182623274E+03  0.18184520411E+03  0.00000000000E+00 0.  1.
         11    1    1    2    0    0 -0.21283145087E+01 -0.14575578140E+01 -0.16817146657E+03  0.16819124937E+03  0.00000000000E+00 0. -1.
        -15    1    1    2    0    0 -0.25199041592E+00 -0.55306917830E+00 -0.32606450254E+01  0.37628339941E+01  0.17770000000E+01 0.  1.
         15    1    1    2    0    0  0.37699896557E+01 -0.21830165434E+00 -0.10394121143E+02  0.11200712520E+02  0.17770000000E+01 0.  1.
</event>
<event>
 6    1  0.1298204E-002  0.1834908E+03  0.7546771E-02  0.1067669E+00
        -11   -1    0    0    0    0  0.00000000000E+00  0.00000000000E+00  0.18250000000E+03  0.18250000000E+03  0.00000000000E+00 0. -1.
         11   -1    0    0    0    0 -0.00000000000E+00 -0.00000000000E+00 -0.18250000000E+03  0.18250000000E+03  0.00000000000E+00 0. -1.
        -11    1    1    2    0    0 -0.19471783400E+00 -0.15817500457E+01  0.30806884136E+02  0.30848078683E+02  0.00000000000E+00 0. -1.
         11    1    1    2    0    0 -0.42736248465E+01  0.18192569088E+01 -0.18144975843E+03  0.18150919645E+03  0.00000000000E+00 0. -1.
        -15    1    1    2    0    0  0.61283768889E+01 -0.13916948917E+01  0.98155666048E+01  0.11789694429E+02  0.17770000000E+01 0. -1.
         15    1    1    2    0    0 -0.16600342084E+01  0.11541880286E+01  0.14082730768E+03  0.14085303043E+03  0.17770000000E+01 0. -1.
</event>
<event>
 6    1  0.1298204E-002  0.1914720E+03  0.7546771E-02  0.1061529E+00
        -11   -1    0    0    0    0  0.00000000000E+00  0.00000000000E+00  0.18250000000E+03  0.18250000000E+03  0.00000000000E+00 0. -1.
         11   -1    0    0    0    0 -0.00000000000E+00 -0.00000000000E+00 -0.18250000000E+03  0.18250000000E+03  0.00000000000E+00 0. -1.
        -11    1    1    2    0    0  0.98810613178E+00 -0.76201895139E+00  0.68409902442E+02  0.68421281621E+02  0.00000000000E+00 0. -1.
         11    1    1    2    0    0 -0.26059692693E+02 -0.15489234670E+02 -0.17085943622E+03  0.17352801192E+03  0.00000000000E+00 0. -1.
        -15    1    1    2    0    0  0.10127760482E+02  0.17639855492E+02  0.10564798043E+03  0.10760292529E+03  0.17770000000E+01 0. -1.
         15    1    1    2    0    0  0.14943826080E+02 -0.13886018710E+01 -0.31984466449E+01  0.15447781167E+02  0.17770000000E+01 0.  1.
</event>
<event>
 6    1  0.1298204E-002  0.1944691E+03  0.7546771E-02  0.1059307E+00
        -11   -1    0    0    0    0  0.00000000000E+00  0.00000000000E+00  0.18250000000E+03  0.18250000000E+03  0.00000000000E+00 0.  1.
         11   -1    0    0    0    0 -0.00000000000E+00 -0.00000000000E+00 -0.18250000000E+03  0.18250000000E+03  0.00000000000E+00 0. -1.
        -11    1    1    2    0    0 -0.16179465803E+02 -0.16436573181E+02  0.16896408433E+03  0.17053092930E+03  0.00000000000E+00 0.  1.
         11    1    1    2    0    0 -0.77258586191E+00  0.51525320456E+01 -0.12382562751E+03  0.12393519074E+03  0.00000000000E+00 0. -1.
        -15    1    1    2    0    0  0.47516481229E+01 -0.59593517595E+01 -0.48450925586E+02  0.49078935934E+02  0.17770000000E+01 0. -1.
         15    1    1    2    0    0  0.12200403542E+02  0.17243392895E+02  0.33124687622E+01  0.21454944032E+02  0.17770000000E+01 0.  1.
</event>
<event>
 6    1  0.1298204E-002  0.1803638E+03  0.7546771E-02  0.1070168E+00
        -11   -1    0    0    0    0  0.00000000000E+00  0.00000000000E+00  0.18250000000E+03  0.18250000000E+03  0.00000000000E+00 0. -1.
         11   -1    0    0    0    0 -0.00000000000E+00 -0.00000000000E+00 -0.18250000000E+03  0.18250000000E+03  0.00000000000E+00 0.  1.
        -11    1    1    2    0    0  0.10183178461E+01  0.79772683602E+00  0.55185813751E+01  0.56681637004E+01  0.00000000000E+00 0. -1.
         11    1    1    2    0    0 -0.13639490465E+02  0.32560615494E+01 -0.18117308588E+03  0.18171495449E+03  0.00000000000E+00 0.  1.
        -15    1    1    2    0    0  0.27051286787E+01 -0.83566666325E+00  0.14755966190E+03  0.14759751898E+03  0.17770000000E+01 0.  1.
         15    1    1    2    0    0  0.99160439404E+01 -0.32181217222E+01  0.28094842607E+02  0.30019362834E+02  0.17770000000E+01 0. -1.
</event>
<event>
 6    1  0.1298204E-002  0.1940976E+03  0.7546771E-02  0.1059580E+00
        -11   -1    0    0    0    0  0.00000000000E+00  0.00000000000E+00  0.18250000000E+03  0.18250000000E+03  0.00000000000E+00 0. -1.
         11   -1    0    0    0    0 -0.00000000000E+00 -0.00000000000E+00 -0.18250000000E+03  0.18250000000E+03  0.00000000000E+00 0. -1.
        -11    1    1    2    0    0 -0.37874326919E+01  0.75971018226E+01  0.17069141071E+03  0.17090236479E+03  0.00000000000E+00 0. -1.
         11    1    1    2    0    0 -0.20318598645E+01  0.51828699220E+01 -0.10793453991E+03  0.10807800655E+03  0.00000000000E+00 0. -1.
        -15    1    1    2    0    0  0.42616331152E+01 -0.85515279164E+00 -0.71113089873E+02  0.71267959725E+02  0.17770000000E+01 0.  1.
         15    1    1    2    0    0  0.15576594413E+01 -0.11924818953E+02  0.83562190752E+01  0.14751668930E+02  0.17770000000E+01 0. -1.
</event>
<event>
 6    1  0.1298204E-002  0.1830327E+03  0.7546771E-02  0.1068032E+00
        -11   -1    0    0    0    0  0.00000000000E+00  0.00000000000E+00  0.18250000000E+03  0.18250000000E+03  0.00000000000E+00 0.  1.
         11   -1    0    0    0    0 -0.00000000000E+00 -0.00000000000E+00 -0.18250000000E+03  0.18250000000E+03  0.00000000000E+00 0. -1.
        -11    1    1    2    0    0  0.28237153810E+01 -0.37390265663E+01  0.14868345581E+03  0.14875726442E+03  0.00000000000E+00 0.  1.
         11    1    1    2    0    0  0.11783628294E+00  0.30256280647E+01 -0.18194213698E+03  0.18196733092E+03  0.00000000000E+00 0. -1.
        -15    1    1    2    0    0 -0.11576595227E+01 -0.20683981483E+01  0.25342025039E+02  0.25514592071E+02  0.17770000000E+01 0.  1.
         15    1    1    2    0    0 -0.17838921413E+01  0.27817966499E+01  0.79166561398E+01  0.87608125884E+01  0.17770000000E+01 0. -1.
</event>
<event>
 6    1  0.1298204E-002  0.1863575E+03  0.7546771E-02  0.1065425E+00
        -11   -1    0    0    0    0  0.00000000000E+00  0.00000000000E+00  0.18250000000E+03  0.18250000000E+03  0.00000000000E+00 0. -1.
         11   -1    0    0    0    0 -0.00000000000E+00 -0.00000000000E+00 -0.18250000000E+03  0.18250000000E+03  0.00000000000E+00 0.  1.
        -11    1    1    2    0    0 -0.26895766365E+01 -0.90563823068E+01  0.12485578230E+03  0.12521269208E+03  0.00000000000E+00 0. -1.
         11    1    1    2    0    0 -0.86740426066E+00 -0.79230946162E+01 -0.17846464148E+03  0.17864253714E+03  0.00000000000E+00 0.  1.
        -15    1    1    2    0    0  0.20907464576E+00  0.19882117501E+02  0.52606376238E+02  0.56266605180E+02  0.17770000000E+01 0.  1.
         15    1    1    2    0    0  0.33479062514E+01 -0.29026405784E+01  0.10024829337E+01  0.48781656007E+01  0.17770000000E+01 0. -1.
</event>
<event>
 6    1  0.1298204E-002  0.1853361E+03  0.7546771E-02  0.1066219E+00
        -11   -1    0    0    0    0  0.00000000000E+00  0.00000000000E+00  0.18250000000E+03  0.18250000000E+03  0.00000000000E+00 0. -1.
         11   -1    0    0    0    0 -0.00000000000E+00 -0.00000000000E+00 -0.18250000000E+03  0.18250000000E+03  0.00000000000E+00 0.  1.
        -11    1    1    2    0    0 -0.32641204999E+01 -0.16878767700E+01  0.17962626988E+03  0.17966385347E+03  0.00000000000E+00 0. -1.
         11    1    1    2    0    0  0.95846778582E+00  0.36293938680E+01 -0.15726614077E+03  0.15731093476E+03  0.00000000000E+00 0.  1.
        -15    1    1    2    0    0 -0.40961725519E+01 -0.99528920059E+00 -0.20579872531E+02  0.21082175233E+02  0.17770000000E+01 0.  1.
         15    1    1    2    0    0  0.64018252660E+01 -0.94622789739E+00 -0.17802565777E+01  0.69430365441E+01  0.17770000000E+01 0.  1.
</event>
<event>
 6    1  0.1298204E-002  0.1847813E+03  0.7546771E-02  0.1066653E+00
        -11   -1    0    0    0    0  0.00000000000E+00  0.00000000000E+00  0.18250000000E+03  0.18250000000E+03  0.00000000000E+00 0.  1.
         11   -1    0    0    0    0 -0.00000000000E+00 -0.00000000000E+00 -0.18250000000E+03  0.18250000000E+03  0.00000000000E+00 0.  1.
        -11    1    1    2    0    0 -0.42332034772E+01  0.19625515426E+01  0.18015825496E+03  0.18021866843E+03  0.00000000000E+00 0.  1.
         11    1    1    2    0    0  0.21588598012E+01  0.16557252568E+01 -0.65930877081E+02  0.65986988524E+02  0.00000000000E+00 0.  1.
        -15    1    1    2    0    0  0.91255916046E+01  0.90087350771E+01 -0.22849311495E+02  0.26261806767E+02  0.17770000000E+01 0.  1.
         15    1    1    2    0    0 -0.70512479286E+01 -0.12627011877E+02 -0.91378066382E+02  0.92532536283E+02  0.17770000000E+01 0. -1.
</event>
<event>
 6    1  0.1298204E-002  0.1827570E+03  0.7546771E-02  0.1068250E+00
        -11   -1    0    0    0    0  0.00000000000E+00  0.00000000000E+00  0.18250000000E+03  0.18250000000E+03  0.00000000000E+00 0. -1.
         11   -1    0    0    0    0 -0.00000000000E+00 -0.00000000000E+00 -0.18250000000E+03  0.18250000000E+03  0.00000000000E+00 0. -1.
        -11    1    1    2    0    0 -0.42040441862E+01 -0.14390763676E+01  0.18218879128E+03  0.18224297132E+03  0.00000000000E+00 0. -1.
         11    1    1    2    0    0  0.20424406879E+01 -0.31790835105E+00 -0.12849700964E+03  0.12851363397E+03  0.00000000000E+00 0. -1.
        -15    1    1    2    0    0 -0.24808409167E+00  0.17614004268E+01 -0.44610121788E+02  0.44680921791E+02  0.17770000000E+01 0.  1.
         15    1    1    2    0    0  0.24096875900E+01 -0.44157081859E-02 -0.90816598495E+01  0.95624729230E+01  0.17770000000E+01 0. -1.
</event>
<event>
 6    1  0.1298204E-002  0.1858019E+03  0.7546771E-02  0.1065856E+00
        -11   -1    0    0    0    0  0.00000000000E+00  0.00000000000E+00  0.18250000000E+03  0.18250000000E+03  0.00000000000E+00 0. -1.
         11   -1    0    0    0    0 -0.00000000000E+00 -0.00000000000E+00 -0.18250000000E+03  0.18250000000E+03  0.00000000000E+00 0.  1.
        -11    1    1    2    0    0 -0.73965935800E+01 -0.51717962911E+01  0.12274786737E+03  0.12307922659E+03  0.00000000000E+00 0. -1.
         11    1    1    2    0    0 -0.23787238366E+01  0.67860342055E+01 -0.17905374794E+03  0.17919808380E+03  0.00000000000E+00 0.  1.
        -15    1    1    2    0    0  0.92734090764E+01  0.72162287249E+01  0.50760729100E+02  0.52133285152E+02  0.17770000000E+01 0. -1.
         15    1    1    2    0    0  0.50190834027E+00 -0.88304666392E+01  0.55451514604E+01  0.10589404458E+02  0.17770000000E+01 0.  1.
</event>
<event>
 6    1  0.1298204E-002  0.1831112E+03  0.7546771E-02  0.1067969E+00
        -11   -1    0    0    0    0  0.00000000000E+00  0.00000000000E+00  0.18250000000E+03  0.18250000000E+03  0.00000000000E+00 0.  1.
         11   -1    0    0    0    0 -0.00000000000E+00 -0.00000000000E+00 -0.18250000000E+03  0.18250000000E+03  0.00000000000E+00 0.  1.
        -11    1    1    2    0    0  0.19218545665E+01 -0.30324229159E+01  0.13628694964E+03  0.13633422812E+03  0.00000000000E+00 0.  1.
         11    1    1    2    0    0 -0.25814969954E+01 -0.99749505934E+00 -0.18186771078E+03  0.18188876642E+03  0.00000000000E+00 0.  1.
        -15    1    1    2    0    0 -0.27539883922E+01  0.42137444052E+01  0.14373689192E+02  0.15332995923E+02  0.17770000000E+01 0. -1.
         15    1    1    2    0    0  0.34136308211E+01 -0.18382642988E+00  0.31207071946E+02  0.31444009540E+02  0.17770000000E+01 0.  1.
</event>
<event>
 6    1  0.1298204E-002  0.1848853E+03  0.7546771E-02  0.1066572E+00
        -11   -1    0    0    0    0  0.00000000000E+00  0.00000000000E+00  0.18250000000E+03  0.18250000000E+03  0.00000000000E+00 0. -1.
         11   -1    0    0    0    0 -0.00000000000E+00 -0.00000000000E+00 -0.18250000000E+03  0.18250000000E+03  0.00000000000E+00 0.  1.
        -11    1    1    2    0    0 -0.77513505676E+01  0.70457841813E+01  0.17980988858E+03  0.18011474826E+03  0.00000000000E+00 0. -1.
         11    1    1    2    0    0  0.31495534723E+00 -0.56288252205E+01 -0.12547853052E+03  0.12560511332E+03  0.00000000000E+00 0.  1.
        -15    1    1    2    0    0 -0.58355065565E+01  0.13024705612E+01 -0.47215215938E+01  0.78230468166E+01  0.17770000000E+01 0. -1.
         15    1    1    2    0    0  0.13271901777E+02 -0.27194295221E+01 -0.49609836459E+02  0.51457091603E+02  0.17770000000E+01 0.  1.
</event>
<event>
 6    1  0.1298204E-002  0.1903954E+03  0.7546771E-02  0.1062338E+00
        -11   -1    0    0    0    0  0.00000000000E+00  0.00000000000E+00  0.18250000000E+03  0.18250000000E+03  0.00000000000E+00 0.  1.
         11   -1    0    0    0    0 -0.00000000000E+00 -0.00000000000E+00 -0.18250000000E+03  0.18250000000E+03  0.00000000000E+00 0.  1.
        -11    1    1    2    0    0 -0.32151971900E+01  0.46418013711E+01  0.15815424900E+03  0.15825501663E+03  0.00000000000E+00 0.  1.
         11    1    1    2    0    0  0.33489542737E+01 -0.17578977035E+01 -0.17456360304E+03  0.17460457384E+03  0.00000000000E+00 0.  1.
        -15    1    1    2    0    0 -0.75917922822E+01  0.48939425360E+00 -0.49151103669E+01  0.92298892577E+01  0.17770000000E+01 0. -1.
         15    1    1    2    0    0  0.74580351985E+01 -0.33732979212E+01  0.21324464406E+02  0.22910520271E+02  0.17770000000E+01 0.  1.
</event>
<event>
 6    1  0.1298204E-002  0.1828498E+03  0.7546771E-02  0.1068177E+00
        -11   -1    0    0    0    0  0.00000000000E+00  0.00000000000E+00  0.18250000000E+03  0.18250000000E+03  0.00000000000E+00 0. -1.
         11   -1    0    0    0    0 -0.00000000000E+00 -0.00000000000E+00 -0.18250000000E+03  0.18250000000E+03  0.00000000000E+00 0.  1.
        -11    1    1    2    0    0  0.27836515059E+01 -0.20814903138E+00  0.15058137926E+03  0.15060725023E+03  0.00000000000E+00 0. -1.
         11    1    1    2    0    0 -0.34191726897E+01 -0.44518873631E-01 -0.18211809300E+03  0.18215019221E+03  0.00000000000E+00 0.  1.
        -15    1    1    2    0    0  0.26421703407E+01 -0.11038431116E+01  0.11559441789E+02  0.12040679266E+02  0.17770000000E+01 0. -1.
         15    1    1    2    0    0 -0.20066491569E+01  0.13565110166E+01  0.19977271948E+02  0.20201878291E+02  0.17770000000E+01 0. -1.
</event>
<event>
 6    1  0.1298204E-002  0.2012831E+03  0.7546771E-02  0.1054415E+00
        -11   -1    0    0    0    0  0.00000000000E+00  0.00000000000E+00  0.18250000000E+03  0.18250000000E+03  0.00000000000E+00 0.  1.
         11   -1    0    0    0    0 -0.00000000000E+00 -0.00000000000E+00 -0.18250000000E+03  0.18250000000E+03  0.00000000000E+00 0. -1.
        -11    1    1    2    0    0  0.19653640409E+01  0.15061188676E+01  0.10846220225E+03  0.10849046210E+03  0.00000000000E+00 0.  1.
         11    1    1    2    0    0  0.34656015059E+01  0.39283213694E+01 -0.16363306131E+03  0.16371689240E+03  0.00000000000E+00 0. -1.
        -15    1    1    2    0    0 -0.42527740274E+01 -0.31813576311E+01 -0.18360622887E+02  0.19195763207E+02  0.17770000000E+01 0.  1.
         15    1    1    2    0    0 -0.11781915194E+01 -0.22530826058E+01  0.73531481945E+02  0.73596882288E+02  0.17770000000E+01 0.  1.
</event>
<event>
 6    1  0.1298204E-002  0.1827687E+03  0.7546771E-02  0.1068241E+00
        -11   -1    0    0    0    0  0.00000000000E+00  0.00000000000E+00  0.18250000000E+03  0.18250000000E+03  0.00000000000E+00 0.  1.
         11   -1    0    0    0    0 -0.00000000000E+00 -0.00000000000E+00 -0.18250000000E+03  0.18250000000E+03  0.00000000000E+00 0. -1.
        -11    1    1    2    0    0 -0.11871540501E+01  0.24243346409E+01  0.18221128943E+03  0.18223128362E+03  0.00000000000E+00 0.  1.
         11    1    1    2    0    0  0.22824773550E+01 -0.18439930684E+00 -0.14857722763E+03  0.14859487298E+03  0.00000000000E+00 0. -1.
        -15    1    1    2    0    0 -0.25315459689E+01 -0.18103139546E+01 -0.16644719953E+02  0.17026167888E+02  0.17770000000E+01 0. -1.
         15    1    1    2    0    0  0.14362226641E+01 -0.42962137939E+00 -0.16989341845E+02  0.17147675510E+02  0.17770000000E+01 0.  1.
</event>
<event>
 6    1  0.1298204E-002  0.1832957E+03  0.7546771E-02  0.1067823E+00
        -11   -1    0    0    0    0  0.00000000000E+00  0.00000000000E+00  0.18250000000E+03  0.18250000000E+03  0.00000000000E+00 0.  1.
         11   -1    0    0    0    0 -0.00000000000E+00 -0.00000000000E+00 -0.18250000000E+03  0.18250000000E+03  0.00000000000E+00 0. -1.
        -11    1    1    2    0    0  0.19095322591E+01  0.53583647251E+01  0.18161527149E+03  0.18170433464E+03  0.00000000000E+00 0.  1.
         11    1    1    2    0    0  0.39773345050E+01 -0.16324202069E+01 -0.77839655290E+02  0.77958296038E+02  0.00000000000E+00 0. -1.
        -15    1    1    2    0    0 -0.75768370728E+01 -0.35293070501E+01 -0.10186403843E+03  0.10222183975E+03  0.17770000000E+01 0. -1.
         15    1    1    2    0    0  0.16899703086E+01 -0.19663746810E+00 -0.19115777760E+01  0.31155295748E+01  0.17770000000E+01 0.  1.
</event>
<event>
 6    1  0.1298204E-002  0.1845023E+03  0.7546771E-02  0.1066872E+00
        -11   -1    0    0    0    0  0.00000000000E+00  0.00000000000E+00  0.18250000000E+03  0.18250000000E+03  0.00000000000E+00 0.  1.
         11   -1    0    0    0    0 -0.00000000000E+00 -0.00000000000E+00 -0.18250000000E+03  0.18250000000E+03  0.00000000000E+00 0. -1.
        -11    1    1    2    0    0 -0.12257124698E+01 -0.46363701206E+01  0.18043399111E+03  0.18049771037E+03  0.00000000000E+00 0.  1.
         11    1    1    2    0    0 -0.80923534313E+00 -0.32823146089E+01 -0.49449782119E+02  0.49565203547E+02  0.00000000000E+00 0. -1.
        -15    1    1    2    0    0 -0.48619358324E+01 -0.80908613815E+01 -0.87941070619E+02  0.88464061000E+02  0.17770000000E+01 0. -1.
         15    1    1    2    0    0  0.68968836453E+01  0.16009546111E+02 -0.43043138374E+02  0.46473025087E+02  0.17770000000E+01 0.  1.
</event>
<event>
 6    1  0.1298204E-002  0.1828448E+03  0.7546771E-02  0.1068181E+00
        -11   -1    0    0    0    0  0.00000000000E+00  0.00000000000E+00  0.18250000000E+03  0.18250000000E+03  0.00000000000E+00 0. -1.
         11   -1    0    0    0    0 -0.00000000000E+00 -0.00000000000E+00 -0.18250000000E+03  0.18250000000E+03  0.00000000000E+00 0.  1.
        -11    1    1    2    0    0 -0.74667230772E+01  0.26889315882E+00  0.18200192776E+03  0.18215522492E+03  0.00000000000E+00 0. -1.
         11    1    1    2    0    0  0.79650252887E+00  0.34538751172E+00 -0.38234756442E+02  0.38244611502E+02  0.00000000000E+00 0.  1.
        -15    1    1    2    0    0  0.76036624972E+01 -0.59234415869E+01 -0.87306728849E+02  0.87855139149E+02  0.17770000000E+01 0. -1.
         15    1    1    2    0    0 -0.93344194888E+00  0.53091609163E+01 -0.56460442474E+02  0.56745024424E+02  0.17770000000E+01 0.  1.
</event>
<event>
 6    1  0.1298204E-002  0.1836689E+03  0.7546771E-02  0.1067528E+00
        -11   -1    0    0    0    0  0.00000000000E+00  0.00000000000E+00  0.18250000000E+03  0.18250000000E+03  0.00000000000E+00 0. -1.
         11   -1    0    0    0    0 -0.00000000000E+00 -0.00000000000E+00 -0.18250000000E+03  0.18250000000E+03  0.00000000000E+00 0. -1.
        -11    1    1    2    0    0  0.24531325233E+01  0.90365886617E+00  0.18131222385E+03  0.18133107007E+03  0.00000000000E+00 0. -1.
         11    1    1    2    0    0 -0.15191847807E+01 -0.21164418053E+01 -0.17564763680E+03  0.17566695637E+03  0.00000000000E+00 0. -1.
        -15    1    1    2    0    0 -0.16773631449E+01 -0.75438298187E+00 -0.41085437762E+01  0.48394732941E+01  0.17770000000E+01 0.  1.
         15    1    1    2    0    0  0.74341540232E+00  0.19671659210E+01 -0.15560432703E+01  0.31625002578E+01  0.17770000000E+01 0.  1.
</event>
<event>
 6    1  0.1298204E-002  0.1829110E+03  0.7546771E-02  0.1068128E+00
        -11   -1    0    0    0    0  0.00000000000E+00  0.00000000000E+00  0.18250000000E+03  0.18250000000E+03  0.00000000000E+00 0.  1.
         11   -1    0    0    0    0 -0.00000000000E+00 -0.00000000000E+00 -0.18250000000E+03  0.18250000000E+03  0.00000000000E+00 0.  1.
        -11    1    1    2    0    0 -0.39359711309E+01 -0.10759975286E+01  0.18204329371E+03  0.18208901786E+03  0.00000000000E+00 0.  1.
         11    1    1    2    0    0  0.13741912477E+01  0.22190495779E+01 -0.16010799764E+03  0.16012927118E+03  0.00000000000E+00 0.  1.
        -15    1    1    2    0    0  0.20949698106E+01  0.18600329641E+00 -0.18236217902E+02  0.18442908342E+02  0.17770000000E+01 0. -1.
         15    1    1    2    0    0  0.46681007253E+00 -0.13290553457E+01 -0.36990781753E+01  0.43388026116E+01  0.17770000000E+01 0.  1.
</event>
<event>
 6    1  0.1298204E-002  0.1877814E+03  0.7546771E-02  0.1064327E+00
        -11   -1    0    0    0    0  0.00000000000E+00  0.00000000000E+00  0.18250000000E+03  0.18250000000E+03  0.00000000000E+00 0. -1.
         11   -1    0    0    0    0 -0.00000000000E+00 -0.00000000000E+00 -0.18250000000E+03  0.18250000000E+03  0.00000000000E+00 0. -1.
        -11    1    1    2    0    0 -0.20557220379E+01 -0.41816616353E+00  0.10135343855E+03  0.10137514667E+03  0.00000000000E+00 0. -1.
         11    1    1    2    0    0  0.18249286143E+02 -0.99270380508E+01 -0.17599677714E+03  0.17721864488E+03  0.00000000000E+00 0. -1.
        -15    1    1    2    0    0  0.21067849363E+01 -0.55760769791E+00  0.60962110096E+02  0.61026929019E+02  0.17770000000E+01 0. -1.
         15    1    1    2    0    0 -0.18300349042E+02  0.10902811912E+02  0.13681228493E+02  0.25379279437E+02  0.17770000000E+01 0. -1.
</event>
<event>
 6    1  0.1298204E-002  0.1831520E+03  0.7546771E-02  0.1067937E+00
        -11   -1    0    0    0    0  0.00000000000E+00  0.00000000000E+00  0.18250000000E+03  0.18250000000E+03  0.00000000000E+00 0. -1.
         11   -1    0    0    0    0 -0.00000000000E+00 -0.00000000000E+00 -0.18250000000E+03  0.18250000000E+03  0.00000000000E+00 0. -1.
        -11    1    1    2    0    0 -0.20155519125E+01 -0.22167673154E+01  0.16492100796E+03  0.16494822028E+03  0.00000000000E+00 0. -1.
         11    1    1    2    0    0 -0.15276435356E+01  0.64124402459E+01 -0.18172850534E+03  0.18184802099E+03  0.00000000000E+00 0. -1.
        -15    1    1    2    0    0  0.17732484572E+01 -0.28348921436E+01  0.12293781061E+02  0.12863739944E+02  0.17770000000E+01 0.  1.
         15    1    1    2    0    0  0.17699469908E+01 -0.13607807869E+01  0.45137163129E+01  0.53400187878E+01  0.17770000000E+01 0. -1.
</event>
<event>
 6    1  0.1298204E-002  0.1846974E+03  0.7546771E-02  0.1066719E+00
        -11   -1    0    0    0    0  0.00000000000E+00  0.00000000000E+00  0.18250000000E+03  0.18250000000E+03  0.00000000000E+00 0. -1.
         11   -1    0    0    0    0 -0.00000000000E+00 -0.00000000000E+00 -0.18250000000E+03  0.18250000000E+03  0.00000000000E+00 0. -1.
        -11    1    1    2    0    0  0.19516454204E+01 -0.16902715020E+01  0.17047268270E+03  0.17049223292E+03  0.00000000000E+00 0. -1.
         11    1    1    2    0    0  0.31737355609E+01 -0.10187614280E+01 -0.18027175899E+03  0.18030257225E+03  0.00000000000E+00 0. -1.
        -15    1    1    2    0    0  0.56583736321E+00 -0.79822959018E+00 -0.20894550237E+00  0.20392963549E+01  0.17770000000E+01 0. -1.
         15    1    1    2    0    0 -0.56912183445E+01  0.35072625202E+01  0.10008021790E+02  0.12165898478E+02  0.17770000000E+01 0. -1.
</event>
<event>
 6    1  0.1298204E-002  0.1871214E+03  0.7546771E-02  0.1064835E+00
        -11   -1    0    0    0    0  0.00000000000E+00  0.00000000000E+00  0.18250000000E+03  0.18250000000E+03  0.00000000000E+00 0.  1.
         11   -1    0    0    0    0 -0.00000000000E+00 -0.00000000000E+00 -0.18250000000E+03  0.18250000000E+03  0.00000000000E+00 0. -1.
        -11    1    1    2    0    0  0.40969385292E+01 -0.33959999779E-01  0.17783137116E+03  0.17787856146E+03  0.00000000000E+00 0.  1.
         11    1    1    2    0    0 -0.38826510959E+01 -0.24702029465E+01 -0.15887360626E+03  0.15894023924E+03  0.00000000000E+00 0. -1.
        -15    1    1    2    0    0 -0.64509032442E+01  0.72434542024E+01 -0.17399244891E+02  0.19999330819E+02  0.17770000000E+01 0.  1.
         15    1    1    2    0    0  0.62366158109E+01 -0.47392912561E+01 -0.15585200046E+01  0.81818684900E+01  0.17770000000E+01 0. -1.
</event>
<event>
 6    1  0.1298204E-002  0.1859900E+03  0.7546771E-02  0.1065710E+00
        -11   -1    0    0    0    0  0.00000000000E+00  0.00000000000E+00  0.18250000000E+03  0.18250000000E+03  0.00000000000E+00 0.  1.
         11   -1    0    0    0    0 -0.00000000000E+00 -0.00000000000E+00 -0.18250000000E+03  0.18250000000E+03  0.00000000000E+00 0. -1.
        -11    1    1    2    0    0  0.60699287342E+00  0.61216466286E+01  0.31895253673E+02  0.32483075665E+02  0.00000000000E+00 0.  1.
         11    1    1    2    0    0 -0.68025745195E+01 -0.36744762072E+01 -0.17884291133E+03  0.17900995428E+03  0.00000000000E+00 0. -1.
        -15    1    1    2    0    0  0.43572316655E+01 -0.17512073009E+02  0.12745763318E+03  0.12874107407E+03  0.17770000000E+01 0.  1.
         15    1    1    2    0    0  0.18383499806E+01  0.15064902587E+02  0.19490024485E+02  0.24765895987E+02  0.17770000000E+01 0. -1.
</event>
<event>
 6    1  0.1298204E-002  0.1845661E+03  0.7546771E-02  0.1066822E+00
        -11   -1    0    0    0    0  0.00000000000E+00  0.00000000000E+00  0.18250000000E+03  0.18250000000E+03  0.00000000000E+00 0. -1.
         11   -1    0    0    0    0 -0.00000000000E+00 -0.00000000000E+00 -0.18250000000E+03  0.18250000000E+03  0.00000000000E+00 0. -1.
        -11    1    1    2    0    0 -0.55403834186E+01  0.32220531495E+01  0.15734912096E+03  0.15747959659E+03  0.00000000000E+00 0. -1.
         11    1    1    2    0    0 -0.19149016775E+01  0.34348705554E+01 -0.18039099030E+03  0.18043385094E+03  0.00000000000E+00 0. -1.
        -15    1    1    2    0    0  0.83460584257E+01 -0.34887997800E+01  0.20735680528E+02  0.22692610936E+02  0.17770000000E+01 0. -1.
         15    1    1    2    0    0 -0.89077332954E+00 -0.31681239249E+01  0.23061888176E+01  0.43939415324E+01  0.17770000000E+01 0.  1.
</event>
<event>
 6    1  0.1298204E-002  0.1853697E+03  0.7546771E-02  0.1066193E+00
        -11   -1    0    0    0    0  0.00000000000E+00  0.00000000000E+00  0.18250000000E+03  0.18250000000E+03  0.00000000000E+00 0.  1.
         11   -1    0    0    0    0 -0.00000000000E+00 -0.00000000000E+00 -0.18250000000E+03  0.18250000000E+03  0.00000000000E+00 0. -1.
        -11    1    1    2    0    0 -0.33198819871E+00  0.96128991140E+01  0.17937259681E+03  0.17963030516E+03  0.00000000000E+00 0.  1.
         11    1    1    2    0    0 -0.29111218274E+01 -0.38244601141E+01 -0.16887395181E+03  0.16894233551E+03  0.00000000000E+00 0. -1.
        -15    1    1    2    0    0 -0.14941707515E+01 -0.68918956236E+01 -0.47301704122E+01  0.86754257907E+01  0.17770000000E+01 0.  1.
         15    1    1    2    0    0  0.47372807775E+01  0.11034566237E+01 -0.57684745837E+01  0.77519335464E+01  0.17770000000E+01 0. -1.
</event>
<event>
 6    1  0.1298204E-002  0.1859852E+03  0.7546771E-02  0.1065714E+00
        -11   -1    0    0    0    0  0.00000000000E+00  0.00000000000E+00  0.18250000000E+03  0.18250000000E+03  0.00000000000E+00 0. -1.
         11   -1    0    0    0    0 -0.00000000000E+00 -0.00000000000E+00 -0.18250000000E+03  0.18250000000E+03  0.00000000000E+00 0. -1.
        -11    1    1    2    0    0 -0.28266885176E+01 -0.52665778759E+00  0.17899173631E+03  0.17901482956E+03  0.00000000000E+00 0. -1.
         11    1    1    2    0    0 -0.18405562338E+01 -0.34680545096E+01 -0.13480884015E+03  0.13486600177E+03  0.00000000000E+00 0. -1.
        -15    1    1    2    0    0 -0.79817534384E+01  0.86364405584E+01 -0.24026328135E+02  0.26808928851E+02  0.17770000000E+01 0.  1.
         15    1    1    2    0    0  0.12648998190E+02 -0.46417282612E+01 -0.20156568021E+02  0.24310239815E+02  0.17770000000E+01 0. -1.
</event>
<event>
 6    1  0.1298204E-002  0.1813092E+03  0.7546771E-02  0.1069407E+00
        -11   -1    0    0    0    0  0.00000000000E+00  0.00000000000E+00  0.18250000000E+03  0.18250000000E+03  0.00000000000E+00 0. -1.
         11   -1    0    0    0    0 -0.00000000000E+00 -0.00000000000E+00 -0.18250000000E+03  0.18250000000E+03  0.00000000000E+00 0. -1.
        -11    1    1    2    0    0 -0.16425399289E+01  0.82077420289E+00  0.34243996512E+01  0.38856300237E+01  0.00000000000E+00 0. -1.
         11    1    1    2    0    0 -0.14251823413E+02 -0.13611656751E+02 -0.18037700968E+03  0.18145042654E+03  0.00000000000E+00 0. -1.
        -15    1    1    2    0    0  0.11866503369E+02  0.76293349712E+01  0.38443435779E+02  0.40988731840E+02  0.17770000000E+01 0.  1.
         15    1    1    2    0    0  0.40278599723E+01  0.51615475765E+01  0.13850917425E+03  0.13867521159E+03  0.17770000000E+01 0. -1.
</event>
<event>
 6    1  0.1298204E-002  0.1649342E+03  0.7546771E-02  0.1083366E+00
        -11   -1    0    0    0    0  0.00000000000E+00  0.00000000000E+00  0.18250000000E+03  0.18250000000E+03  0.00000000000E+00 0.  1.
         11   -1    0    0    0    0 -0.00000000000E+00 -0.00000000000E+00 -0.18250000000E+03  0.18250000000E+03  0.00000000000E+00 0. -1.
        -11    1    1    2    0    0 -0.43512741633E+01  0.33317082601E+00  0.16690319280E+03  0.16696023585E+03  0.00000000000E+00 0.  1.
         11    1    1    2    0    0 -0.73978219398E+01 -0.72460745754E+00 -0.16297162887E+03  0.16314105750E+03  0.00000000000E+00 0. -1.
        -15    1    1    2    0    0  0.77691872481E+01  0.45936200178E+01 -0.17650196395E+02  0.19903486558E+02  0.17770000000E+01 0.  1.
         15    1    1    2    0    0  0.39799088549E+01 -0.42021833862E+01  0.13718632468E+02  0.14995220089E+02  0.17770000000E+01 0.  1.
</event>
<event>
 6    1  0.1298204E-002  0.1852742E+03  0.7546771E-02  0.1066268E+00
        -11   -1    0    0    0    0  0.00000000000E+00  0.00000000000E+00  0.18250000000E+03  0.18250000000E+03  0.00000000000E+00 0. -1.
         11   -1    0    0    0    0 -0.00000000000E+00 -0.00000000000E+00 -0.18250000000E+03  0.18250000000E+03  0.00000000000E+00 0. -1.
        -11    1    1    2    0    0 -0.11010925533E+01 -0.27369025851E+01  0.16938462334E+03  0.16941031157E+03  0.00000000000E+00 0. -1.
         11    1    1    2    0    0  0.25761499718E+01  0.10468198294E+01 -0.17970424051E+03  0.17972575341E+03  0.00000000000E+00 0. -1.
        -15    1    1    2    0    0  0.40538302205E+01 -0.22335310936E+01  0.51989448257E+01  0.71839374234E+01  0.17770000000E+01 0. -1.
         15    1    1    2    0    0 -0.55288876390E+01  0.39236138493E+01  0.51206723411E+01  0.86799976031E+01  0.17770000000E+01 0.  1.
</event>
<event>
 6    1  0.1298204E-002  0.1826285E+03  0.7546771E-02  0.1068353E+00
        -11   -1    0    0    0    0  0.00000000000E+00  0.00000000000E+00  0.18250000000E+03  0.18250000000E+03  0.00000000000E+00 0. -1.
         11   -1    0    0    0    0 -0.00000000000E+00 -0.00000000000E+00 -0.18250000000E+03  0.18250000000E+03  0.00000000000E+00 0.  1.
        -11    1    1    2    0    0 -0.59537358794E+00 -0.23449876098E+01  0.77408564423E+02  0.77446363909E+02  0.00000000000E+00 0. -1.
         11    1    1    2    0    0 -0.29056366794E+01  0.89203531074E+00 -0.18234613608E+03  0.18237146650E+03  0.00000000000E+00 0.  1.
        -15    1    1    2    0    0  0.15492796965E+01  0.27913475161E+01  0.77365337874E+02  0.77451566297E+02  0.17770000000E+01 0. -1.
         15    1    1    2    0    0  0.19517305709E+01 -0.13383952170E+01  0.27572233784E+02  0.27730603290E+02  0.17770000000E+01 0.  1.
</event>
<event>
 6    1  0.1298204E-002  0.1923949E+03  0.7546771E-02  0.1060840E+00
        -11   -1    0    0    0    0  0.00000000000E+00  0.00000000000E+00  0.18250000000E+03  0.18250000000E+03  0.00000000000E+00 0.  1.
         11   -1    0    0    0    0 -0.00000000000E+00 -0.00000000000E+00 -0.18250000000E+03  0.18250000000E+03  0.00000000000E+00 0. -1.
        -11    1    1    2    0    0 -0.14753746272E+01  0.36859948654E+01  0.70309381334E+02  0.70421391580E+02  0.00000000000E+00 0.  1.
         11    1    1    2    0    0  0.25612905954E+01 -0.10072284430E+02 -0.17229197548E+03  0.17260514459E+03  0.00000000000E+00 0. -1.
        -15    1    1    2    0    0  0.17661557841E+01  0.12214885358E+02 -0.59607372662E+01  0.13820667434E+02  0.17770000000E+01 0. -1.
         15    1    1    2    0    0 -0.28520717523E+01 -0.58285957935E+01  0.10794333142E+03  0.10815279640E+03  0.17770000000E+01 0.  1.
</event>
<event>
 6    1  0.1298204E-002  0.1833925E+03  0.7546771E-02  0.1067747E+00
        -11   -1    0    0    0    0  0.00000000000E+00  0.00000000000E+00  0.18250000000E+03  0.18250000000E+03  0.00000000000E+00 0.  1.
         11   -1    0    0    0    0 -0.00000000000E+00 -0.00000000000E+00 -0.18250000000E+03  0.18250000000E+03  0.00000000000E+00 0. -1.
        -11    1    1    2    0    0  0.36510670571E+01 -0.12019973917E+01  0.12316347097E+03  0.12322343799E+03  0.00000000000E+00 0.  1.
         11    1    1    2    0    0 -0.27788369838E+01  0.25330005698E+01 -0.18156852993E+03  0.18160745879E+03  0.00000000000E+00 0. -1.
        -15    1    1    2    0    0 -0.36548037770E+01  0.23294363497E+01  0.51346161346E+02  0.51559382059E+02  0.17770000000E+01 0. -1.
         15    1    1    2    0    0  0.27825737037E+01 -0.36604395278E+01  0.70588976101E+01  0.86097211583E+01  0.17770000000E+01 0.  1.
</event>
<event>
 6    1  0.1298204E-002  0.1805452E+03  0.7546771E-02  0.1070022E+00
        -11   -1    0    0    0    0  0.00000000000E+00  0.00000000000E+00  0.18250000000E+03  0.18250000000E+03  0.00000000000E+00 0. -1.
         11   -1    0    0    0    0 -0.00000000000E+00 -0.00000000000E+00 -0.18250000000E+03  0.18250000000E+03  0.00000000000E+00 0.  1.
        -11    1    1    2    0    0  0.96665044675E+01  0.24845494128E+01  0.17518326609E+03  0.17546735027E+03  0.00000000000E+00 0. -1.
         11    1    1    2    0    0 -0.74781135807E+01  0.67496059180E+01 -0.73435435415E+01  0.12466234176E+02  0.00000000000E+00 0.  1.
        -15    1    1    2    0    0  0.10917283837E+01 -0.23855100006E+02 -0.29914812806E+02  0.38318551922E+02  0.17770000000E+01 0. -1.
         15    1    1    2    0    0 -0.32801192705E+01  0.14620944675E+02 -0.13792490974E+03  0.13874786363E+03  0.17770000000E+01 0.  1.
</event>
<event>
 6    1  0.1298204E-002  0.1876774E+03  0.7546771E-02  0.1064407E+00
        -11   -1    0    0    0    0  0.00000000000E+00  0.00000000000E+00  0.18250000000E+03  0.18250000000E+03  0.00000000000E+00 0.  1.
         11   -1    0    0    0    0 -0.00000000000E+00 -0.00000000000E+00 -0.18250000000E+03  0.18250000000E+03  0.00000000000E+00 0. -1.
        -11    1    1    2    0    0 -0.34822452317E+00  0.53182030060E+01  0.16660918925E+03  0.16669441048E+03  0.00000000000E+00 0.  1.
         11    1    1    2    0    0 -0.26403777196E+00  0.25826511413E+01 -0.17730356360E+03  0.17732256898E+03  0.00000000000E+00 0. -1.
        -15    1    1    2    0    0 -0.21668801925E+00 -0.86395874272E+00 -0.40593400510E+01  0.45198837437E+01  0.17770000000E+01 0.  1.
         15    1    1    2    0    0  0.82895031438E+00 -0.70368954046E+01  0.14753714403E+02  0.16463136799E+02  0.17770000000E+01 0. -1.
</event>
<event>
 6    1  0.1298204E-002  0.1830122E+03  0.7546771E-02  0.1068048E+00
        -11   -1    0    0    0    0  0.00000000000E+00  0.00000000000E+00  0.18250000000E+03  0.18250000000E+03  0.00000000000E+00 0.  1.
         11   -1    0    0    0    0 -0.00000000000E+00 -0.00000000000E+00 -0.18250000000E+03  0.18250000000E+03  0.00000000000E+00 0. -1.
        -11    1    1    2    0    0  0.45330796977E+01  0.14139116939E+00  0.18193126873E+03  0.18198778900E+03  0.00000000000E+00 0.  1.
         11    1    1    2    0    0  0.18104452636E+01 -0.10681655021E+01 -0.62362323611E+02  0.62397741111E+02  0.00000000000E+00 0. -1.
        -15    1    1    2    0    0 -0.28563080526E+01  0.23429146848E+01 -0.11112348016E+03  0.11119907066E+03  0.17770000000E+01 0. -1.
         15    1    1    2    0    0 -0.34872169087E+01 -0.14161403520E+01 -0.84454649605E+01  0.94153992302E+01  0.17770000000E+01 0.  1.
</event>
<event>
 6    1  0.1298204E-002  0.1831153E+03  0.7546771E-02  0.1067966E+00
        -11   -1    0    0    0    0  0.00000000000E+00  0.00000000000E+00  0.18250000000E+03  0.18250000000E+03  0.00000000000E+00 0.  1.
         11   -1    0    0    0    0 -0.00000000000E+00 -0.00000000000E+00 -0.18250000000E+03  0.18250000000E+03  0.00000000000E+00 0. -1.
        -11    1    1    2    0    0 -0.54502015692E+00  0.30289955645E+01  0.18185870863E+03  0.18188474858E+03  0.00000000000E+00 0.  1.
         11    1    1    2    0    0 -0.15219974068E+01  0.21702228622E+00 -0.25642603387E+02  0.25688648919E+02  0.00000000000E+00 0. -1.
        -15    1    1    2    0    0  0.35084752372E+01 -0.16038655009E+01 -0.70266243042E+01  0.82105396381E+01  0.17770000000E+01 0.  1.
         15    1    1    2    0    0 -0.14414576735E+01 -0.16421523498E+01 -0.14918948094E+03  0.14921606286E+03  0.17770000000E+01 0. -1.
</event>
<event>
 6    1  0.1298204E-002  0.1980414E+03  0.7546771E-02  0.1056716E+00
        -11   -1    0    0    0    0  0.00000000000E+00  0.00000000000E+00  0.18250000000E+03  0.18250000000E+03  0.00000000000E+00 0.  1.
         11   -1    0    0    0    0 -0.00000000000E+00 -0.00000000000E+00 -0.18250000000E+03  0.18250000000E+03  0.00000000000E+00 0. -1.
        -11    1    1    2    0    0 -0.15835314134E+01  0.32570774658E+01  0.88330637574E+02  0.88404850882E+02  0.00000000000E+00 0.  1.
         11    1    1    2    0    0  0.81801672583E+00 -0.12092935006E+02 -0.16651806780E+03  0.16695860305E+03  0.00000000000E+00 0. -1.
        -15    1    1    2    0    0 -0.19636571592E+02 -0.27102859521E+02  0.22917588762E+02  0.40602137157E+02  0.17770000000E+01 0. -1.
         15    1    1    2    0    0  0.20402086279E+02  0.35938717061E+02  0.55269841467E+02  0.69034408908E+02  0.17770000000E+01 0.  1.
</event>
<event>
 6    1  0.1298204E-002  0.1827841E+03  0.7546771E-02  0.1068229E+00
        -11   -1    0    0    0    0  0.00000000000E+00  0.00000000000E+00  0.18250000000E+03  0.18250000000E+03  0.00000000000E+00 0. -1.
         11   -1    0    0    0    0 -0.00000000000E+00 -0.00000000000E+00 -0.18250000000E+03  0.18250000000E+03  0.00000000000E+00 0.  1.
        -11    1    1    2    0    0  0.18225946089E+01 -0.29963710768E-01  0.13229880020E+03  0.13231135734E+03  0.00000000000E+00 0. -1.
         11    1    1    2    0    0  0.55848860774E+00  0.38093660826E+01 -0.18217522228E+03  0.18221590159E+03  0.00000000000E+00 0.  1.
        -15    1    1    2    0    0 -0.11846753154E+01 -0.46241477491E+01  0.26645472399E+02  0.27127939958E+02  0.17770000000E+01 0.  1.
         15    1    1    2    0    0 -0.11964079012E+01  0.84474537718E+00  0.23230949684E+02  0.23344801110E+02  0.17770000000E+01 0.  1.
</event>
<event>
 6    1  0.1298204E-002  0.2075123E+03  0.7546771E-02  0.1050123E+00
        -11   -1    0    0    0    0  0.00000000000E+00  0.00000000000E+00  0.18250000000E+03  0.18250000000E+03  0.00000000000E+00 0. -1.
         11   -1    0    0    0    0 -0.00000000000E+00 -0.00000000000E+00 -0.18250000000E+03  0.18250000000E+03  0.00000000000E+00 0. -1.
        -11    1    1    2    0    0 -0.39870809146E+01 -0.41589034553E+01  0.96776023492E+02  0.96947367241E+02  0.00000000000E+00 0. -1.
         11    1    1    2    0    0  0.33923320390E+02  0.40419130505E+02 -0.14838422329E+03  0.15748769952E+03  0.00000000000E+00 0. -1.
        -15    1    1    2    0    0  0.49824824717E+01 -0.29015299410E+01  0.61032367870E+02  0.61329859484E+02  0.17770000000E+01 0. -1.
         15    1    1    2    0    0 -0.34918721947E+02 -0.33358697108E+02 -0.94241680704E+01  0.49235073759E+02  0.17770000000E+01 0.  1.
</event>
<event>
 6    1  0.1298204E-002  0.1937223E+03  0.7546771E-02  0.1059857E+00
        -11   -1    0    0    0    0  0.00000000000E+00  0.00000000000E+00  0.18250000000E+03  0.18250000000E+03  0.00000000000E+00 0.  1.
         11   -1    0    0    0    0 -0.00000000000E+00 -0.00000000000E+00 -0.18250000000E+03  0.18250000000E+03  0.00000000000E+00 0. -1.
        -11    1    1    2    0    0 -0.28828539040E+01 -0.45437952332E+01  0.15356632363E+03  0.15366057619E+03  0.00000000000E+00 0.  1.
         11    1    1    2    0    0  0.16604907278E+01  0.22368315811E+01 -0.17125507602E+03  0.17127773267E+03  0.00000000000E+00 0. -1.
        -15    1    1    2    0    0  0.57683691897E+01 -0.68853718065E+01 -0.81169470769E+01  0.12236216199E+02  0.17770000000E+01 0.  1.
         15    1    1    2    0    0 -0.45460060135E+01  0.91923354585E+01  0.25805699462E+02  0.27825474939E+02  0.17770000000E+01 0. -1.
</event>
<event>
 6    1  0.1298204E-002  0.1883101E+03  0.7546771E-02  0.1063922E+00
        -11   -1    0    0    0    0  0.00000000000E+00  0.00000000000E+00  0.18250000000E+03  0.18250000000E+03  0.00000000000E+00 0.  1.
         11   -1    0    0    0    0 -0.00000000000E+00 -0.00000000000E+00 -0.18250000000E+03  0.18250000000E+03  0.00000000000E+00 0.  1.
        -11    1    1    2    0    0 -0.66305652075E+01  0.10309280219E+02  0.17626424026E+03  0.17668992062E+03  0.00000000000E+00 0.  1.
         11    1    1    2    0    0 -0.27413248853E+01 -0.29638888415E+01 -0.11955379732E+03  0.11962194595E+03  0.00000000000E+00 0.  1.
        -15    1    1    2    0    0 -0.13204624154E+02 -0.89473460670E+01 -0.23934847175E+02  0.28817559560E+02  0.17770000000E+01 0.  1.
         15    1    1    2    0    0  0.22576514247E+02  0.16019546898E+01 -0.32775595759E+02  0.39870573870E+02  0.17770000000E+01 0. -1.
</event>
<event>
 6    1  0.1298204E-002  0.1547344E+03  0.7546771E-02  0.1092992E+00
        -11   -1    0    0    0    0  0.00000000000E+00  0.00000000000E+00  0.18250000000E+03  0.18250000000E+03  0.00000000000E+00 0.  1.
         11   -1    0    0    0    0 -0.00000000000E+00 -0.00000000000E+00 -0.18250000000E+03  0.18250000000E+03  0.00000000000E+00 0. -1.
        -11    1    1    2    0    0 -0.54931449656E+01  0.51352755039E+00  0.15204110159E+03  0.15214116775E+03  0.00000000000E+00 0.  1.
         11    1    1    2    0    0 -0.10080664764E+02  0.19382735591E+02 -0.15688122623E+03  0.15839516844E+03  0.00000000000E+00 0. -1.
        -15    1    1    2    0    0  0.22888382311E+01 -0.18672220977E+02 -0.19183446565E+02  0.26926807604E+02  0.17770000000E+01 0. -1.
         15    1    1    2    0    0  0.13284971498E+02 -0.12240421647E+01  0.24023571212E+02  0.27536856206E+02  0.17770000000E+01 0.  1.
</event>
<event>
 6    1  0.1298204E-002  0.1847352E+03  0.7546771E-02  0.1066689E+00
        -11   -1    0    0    0    0  0.00000000000E+00  0.00000000000E+00  0.18250000000E+03  0.18250000000E+03  0.00000000000E+00 0. -1.
         11   -1    0    0    0    0 -0.00000000000E+00 -0.00000000000E+00 -0.18250000000E+03  0.18250000000E+03  0.00000000000E+00 0.  1.
        -11    1    1    2    0    0  0.26473232749E+01  0.39011205086E+01  0.18020313770E+03  0.18026479939E+03  0.00000000000E+00 0. -1.
         11    1    1    2    0    0  0.17490011685E+01 -0.72370126831E+00 -0.22835475321E+02  0.22913788027E+02  0.00000000000E+00 0.  1.
        -15    1    1    2    0    0 -0.32539734231E+01  0.16630486048E+01  0.29140829429E+00  0.40739073988E+01  0.17770000000E+01 0. -1.
         15    1    1    2    0    0 -0.11423510203E+01 -0.48404678451E+01 -0.15765907068E+03  0.15774750518E+03  0.17770000000E+01 0.  1.
</event>
<event>
 6    1  0.1298204E-002  0.1914942E+03  0.7546771E-02  0.1061513E+00
        -11   -1    0    0    0    0  0.00000000000E+00  0.00000000000E+00  0.18250000000E+03  0.18250000000E+03  0.00000000000E+00 0. -1.
         11   -1    0    0    0    0 -0.00000000000E+00 -0.00000000000E+00 -0.18250000000E+03  0.18250000000E+03  0.00000000000E+00 0. -1.
        -11    1    1    2    0    0 -0.81277603557E+01 -0.50581167808E+01  0.14518317202E+03  0.14549844835E+03  0.00000000000E+00 0. -1.
         11    1    1    2    0    0  0.70891785554E+01  0.55242045087E+01 -0.17327288712E+03  0.17350581172E+03  0.00000000000E+00 0. -1.
        -15    1    1    2    0    0  0.71534279608E+01  0.71015893922E+01  0.33285521591E+02  0.34823666953E+02  0.17770000000E+01 0. -1.
         15    1    1    2    0    0 -0.61148461604E+01 -0.75676771201E+01 -0.51958064932E+01  0.11172072980E+02  0.17770000000E+01 0.  1.
</event>
<event>
 6    1  0.1298204E-002  0.1870096E+03  0.7546771E-02  0.1064921E+00
        -11   -1    0    0    0    0  0.00000000000E+00  0.00000000000E+00  0.18250000000E+03  0.18250000000E+03  0.00000000000E+00 0. -1.
         11   -1    0    0    0    0 -0.00000000000E+00 -0.00000000000E+00 -0.18250000000E+03  0.18250000000E+03  0.00000000000E+00 0. -1.
        -11    1    1    2    0    0 -0.34466985838E+01 -0.91926167343E+00  0.14779255646E+03  0.14783559963E+03  0.00000000000E+00 0. -1.
         11    1    1    2    0    0 -0.24662232677E+01 -0.80808805089E+01 -0.17778977406E+03  0.17799041167E+03  0.00000000000E+00 0. -1.
        -15    1    1    2    0    0  0.48061011722E+01  0.83289537931E+01  0.71034189889E+00  0.98047128657E+01  0.17770000000E+01 0.  1.
         15    1    1    2    0    0  0.11068206792E+01  0.67118838922E+00  0.29286875700E+02  0.29369275836E+02  0.17770000000E+01 0. -1.
</event>
<event>
 6    1  0.1298204E-002  0.1841482E+03  0.7546771E-02  0.1067150E+00
        -11   -1    0    0    0    0  0.00000000000E+00  0.00000000000E+00  0.18250000000E+03  0.18250000000E+03  0.00000000000E+00 0. -1.
         11   -1    0    0    0    0 -0.00000000000E+00 -0.00000000000E+00 -0.18250000000E+03  0.18250000000E+03  0.00000000000E+00 0. -1.
        -11    1    1    2    0    0  0.33530543388E+01 -0.16969048026E+01  0.16709640783E+03  0.16713866090E+03  0.00000000000E+00 0. -1.
         11    1    1    2    0    0 -0.81273623683E+00 -0.28723042508E+01 -0.18082715408E+03  0.18085179104E+03  0.00000000000E+00 0. -1.
        -15    1    1    2    0    0 -0.48880232537E+01  0.91904742755E+00  0.62793313020E+01  0.82051904368E+01  0.17770000000E+01 0.  1.
         15    1    1    2    0    0  0.23477051518E+01  0.36501616259E+01  0.74514149436E+01  0.88043576163E+01  0.17770000000E+01 0. -1.
</event>
<event>
 6    1  0.1298204E-002  0.1887178E+03  0.7546771E-02  0.1063610E+00
        -11   -1    0    0    0    0  0.00000000000E+00  0.00000000000E+00  0.18250000000E+03  0.18250000000E+03  0.00000000000E+00 0. -1.
         11   -1    0    0    0    0 -0.00000000000E+00 -0.00000000000E+00 -0.18250000000E+03  0.18250000000E+03  0.00000000000E+00 0.  1.
        -11    1    1    2    0    0 -0.27033434061E+01  0.33760237949E+01  0.16642722360E+03  0.16648341166E+03  0.00000000000E+00 0. -1.
         11    1    1    2    0    0  0.23133440545E+01  0.11441217559E+02 -0.17589534782E+03  0.17628223508E+03  0.00000000000E+00 0.  1.
        -15    1    1    2    0    0  0.13371060786E+01 -0.10943369336E+02 -0.67915998313E+00  0.11187679490E+02  0.17770000000E+01 0. -1.
         15    1    1    2    0    0 -0.94710672694E+00 -0.38738720172E+01  0.10147284204E+02  0.11046673765E+02  0.17770000000E+01 0.  1.
</event>
<event>
 6    1  0.1298204E-002  0.1840357E+03  0.7546771E-02  0.1067239E+00
        -11   -1    0    0    0    0  0.00000000000E+00  0.00000000000E+00  0.18250000000E+03  0.18250000000E+03  0.00000000000E+00 0.  1.
         11   -1    0    0    0    0 -0.00000000000E+00 -0.00000000000E+00 -0.18250000000E+03  0.18250000000E+03  0.00000000000E+00 0. -1.
        -11    1    1    2    0    0  0.23994276543E+01 -0.22626115657E+01  0.18093429140E+03  0.18096434585E+03  0.00000000000E+00 0.  1.
         11    1    1    2    0    0 -0.68006560030E+01  0.50053435408E+01 -0.56120663100E+02  0.56752367465E+02  0.00000000000E+00 0. -1.
        -15    1    1    2    0    0  0.12396318341E+01  0.28786279168E+01 -0.16926550822E+01  0.39807029523E+01  0.17770000000E+01 0.  1.
         15    1    1    2    0    0  0.31615965146E+01 -0.56213598918E+01 -0.12312097322E+03  0.12330258373E+03  0.17770000000E+01 0. -1.
</event>
<event>
 6    1  0.1298204E-002  0.1833994E+03  0.7546771E-02  0.1067741E+00
        -11   -1    0    0    0    0  0.00000000000E+00  0.00000000000E+00  0.18250000000E+03  0.18250000000E+03  0.00000000000E+00 0. -1.
         11   -1    0    0    0    0 -0.00000000000E+00 -0.00000000000E+00 -0.18250000000E+03  0.18250000000E+03  0.00000000000E+00 0. -1.
        -11    1    1    2    0    0 -0.26869348128E+01 -0.39753220763E+01  0.18153724672E+03  0.18160064634E+03  0.00000000000E+00 0. -1.
         11    1    1    2    0    0  0.36738109876E+01 -0.42630331611E+01 -0.14298860643E+03  0.14309930785E+03  0.00000000000E+00 0. -1.
        -15    1    1    2    0    0 -0.29700331016E+01  0.32443594178E+01 -0.86028715195E+01  0.98241585918E+01  0.17770000000E+01 0. -1.
         15    1    1    2    0    0  0.19831569268E+01  0.49939958196E+01 -0.29945768767E+02  0.30475887218E+02  0.17770000000E+01 0.  1.
</event>
<event>
 6    1  0.1298204E-002  0.1833547E+03  0.7546771E-02  0.1067776E+00
        -11   -1    0    0    0    0  0.00000000000E+00  0.00000000000E+00  0.18250000000E+03  0.18250000000E+03  0.00000000000E+00 0.  1.
         11   -1    0    0    0    0 -0.00000000000E+00 -0.00000000000E+00 -0.18250000000E+03  0.18250000000E+03  0.00000000000E+00 0. -1.
        -11    1    1    2    0    0  0.62493060704E+00 -0.26392785317E+01  0.18162501926E+03  0.18164526956E+03  0.00000000000E+00 0.  1.
         11    1    1    2    0    0 -0.31853073490E+01 -0.14221072755E+01 -0.16864549548E+03  0.16868156899E+03  0.00000000000E+00 0. -1.
        -15    1    1    2    0    0  0.57139085119E+00  0.10344241255E+01 -0.18131076818E+01  0.28002873499E+01  0.17770000000E+01 0. -1.
         15    1    1    2    0    0  0.19889858908E+01  0.30269616817E+01 -0.11166416100E+02  0.11872874101E+02  0.17770000000E+01 0.  1.
</event>
<event>
 6    1  0.1298204E-002  0.1856603E+03  0.7546771E-02  0.1065967E+00
        -11   -1    0    0    0    0  0.00000000000E+00  0.00000000000E+00  0.18250000000E+03  0.18250000000E+03  0.00000000000E+00 0. -1.
         11   -1    0    0    0    0 -0.00000000000E+00 -0.00000000000E+00 -0.18250000000E+03  0.18250000000E+03  0.00000000000E+00 0.  1.
        -11    1    1    2    0    0 -0.29561858248E+01  0.15791760517E+01  0.17449479607E+03  0.17452697983E+03  0.00000000000E+00 0. -1.
         11    1    1    2    0    0 -0.94532776676E+00 -0.37203859613E+01 -0.17929860092E+03  0.17933968666E+03  0.00000000000E+00 0.  1.
        -15    1    1    2    0    0  0.26656551951E+01  0.48507959925E+01  0.49888168673E+01  0.76604152704E+01  0.17770000000E+01 0. -1.
         15    1    1    2    0    0  0.12358583965E+01 -0.27095860828E+01 -0.18501201334E+00  0.34729182486E+01  0.17770000000E+01 0. -1.
</event>
<event>
 6    1  0.1298204E-002  0.1566889E+03  0.7546771E-02  0.1091086E+00
        -11   -1    0    0    0    0  0.00000000000E+00  0.00000000000E+00  0.18250000000E+03  0.18250000000E+03  0.00000000000E+00 0.  1.
         11   -1    0    0    0    0 -0.00000000000E+00 -0.00000000000E+00 -0.18250000000E+03  0.18250000000E+03  0.00000000000E+00 0.  1.
        -11    1    1    2    0    0 -0.64507978419E+01 -0.54467263682E+01  0.15719371764E+03  0.15742027978E+03  0.00000000000E+00 0.  1.
         11    1    1    2    0    0 -0.14504893866E+01  0.44734517329E+01 -0.15599014120E+03  0.15606101320E+03  0.00000000000E+00 0.  1.
        -15    1    1    2    0    0  0.69054384832E+01 -0.63484492960E+01 -0.24881927460E+02  0.26650627239E+02  0.17770000000E+01 0. -1.
         15    1    1    2    0    0  0.99584874524E+00  0.73217239313E+01  0.23678351019E+02  0.24868079782E+02  0.17770000000E+01 0.  1.
</event>
<event>
 6    1  0.1298204E-002  0.1826667E+03  0.7546771E-02  0.1068322E+00
        -11   -1    0    0    0    0  0.00000000000E+00  0.00000000000E+00  0.18250000000E+03  0.18250000000E+03  0.00000000000E+00 0.  1.
         11   -1    0    0    0    0 -0.00000000000E+00 -0.00000000000E+00 -0.18250000000E+03  0.18250000000E+03  0.00000000000E+00 0. -1.
        -11    1    1    2    0    0  0.23413615616E+01 -0.12139265336E+00  0.81242912004E+02  0.81276733823E+02  0.00000000000E+00 0.  1.
         11    1    1    2    0    0  0.11195447864E+01 -0.22353097569E+01 -0.18231616939E+03  0.18233330912E+03  0.00000000000E+00 0. -1.
        -15    1    1    2    0    0 -0.28369840794E+01  0.12058004452E+01  0.91352734231E+02  0.91422000710E+02  0.17770000000E+01 0. -1.
         15    1    1    2    0    0 -0.62392226853E+00  0.11509019650E+01  0.97205231596E+01  0.99679563515E+01  0.17770000000E+01 0.  1.
</event>
<event>
 6    1  0.1298204E-002  0.1828554E+03  0.7546771E-02  0.1068172E+00
        -11   -1    0    0    0    0  0.00000000000E+00  0.00000000000E+00  0.18250000000E+03  0.18250000000E+03  0.00000000000E+00 0.  1.
         11   -1    0    0    0    0 -0.00000000000E+00 -0.00000000000E+00 -0.18250000000E+03  0.18250000000E+03  0.00000000000E+00 0. -1.
        -11    1    1    2    0    0 -0.14769124728E+01  0.24145240100E+01  0.18212259110E+03  0.18214458374E+03  0.00000000000E+00 0.  1.
         11    1    1    2    0    0 -0.26527080055E+01 -0.12696679313E+00 -0.14914069095E+03  0.14916433447E+03  0.00000000000E+00 0. -1.
        -15    1    1    2    0    0  0.37642269219E+00 -0.47972200462E+00 -0.49284855310E+01  0.52744218521E+01  0.17770000000E+01 0. -1.
         15    1    1    2    0    0  0.37531977861E+01 -0.18078352123E+01 -0.28053414615E+02  0.28416659943E+02  0.17770000000E+01 0.  1.
</event>
<event>
 6    1  0.1298204E-002  0.1936995E+03  0.7546771E-02  0.1059874E+00
        -11   -1    0    0    0    0  0.00000000000E+00  0.00000000000E+00  0.18250000000E+03  0.18250000000E+03  0.00000000000E+00 0.  1.
         11   -1    0    0    0    0 -0.00000000000E+00 -0.00000000000E+00 -0.18250000000E+03  0.18250000000E+03  0.00000000000E+00 0. -1.
        -11    1    1    2    0    0  0.13791354136E+01  0.18142125481E+01  0.12968554948E+03  0.12970557092E+03  0.00000000000E+00 0.  1.
         11    1    1    2    0    0 -0.57012396166E+01  0.55840748990E+01 -0.17111450924E+03  0.17130049999E+03  0.00000000000E+00 0. -1.
        -15    1    1    2    0    0 -0.31156818216E+01 -0.46602951872E+01 -0.10176315230E+02  0.11753337616E+02  0.17770000000E+01 0. -1.
         15    1    1    2    0    0  0.74377860247E+01 -0.27379922598E+01  0.51605274985E+02  0.52240591476E+02  0.17770000000E+01 0.  1.
</event>
<event>
 6    1  0.1298204E-002  0.1832187E+03  0.7546771E-02  0.1067884E+00
        -11   -1    0    0    0    0  0.00000000000E+00  0.00000000000E+00  0.18250000000E+03  0.18250000000E+03  0.00000000000E+00 0.  1.
         11   -1    0    0    0    0 -0.00000000000E+00 -0.00000000000E+00 -0.18250000000E+03  0.18250000000E+03  0.00000000000E+00 0. -1.
        -11    1    1    2    0    0  0.91318978951E+00 -0.95992312736E-01  0.26926977642E+02  0.26942628956E+02  0.00000000000E+00 0.  1.
         11    1    1    2    0    0  0.41283759914E+01  0.76100647275E+01 -0.18157498186E+03  0.18178127134E+03  0.00000000000E+00 0. -1.
        -15    1    1    2    0    0 -0.12020865926E+02 -0.18381120491E+01  0.64299402955E+02  0.65463354809E+02  0.17770000000E+01 0.  1.
         15    1    1    2    0    0  0.69793001449E+01 -0.56759603657E+01  0.90348601260E+02  0.90812744895E+02  0.17770000000E+01 0. -1.
</event>
<event>
 6    1  0.1298204E-002  0.1850076E+03  0.7546771E-02  0.1066476E+00
        -11   -1    0    0    0    0  0.00000000000E+00  0.00000000000E+00  0.18250000000E+03  0.18250000000E+03  0.00000000000E+00 0.  1.
         11   -1    0    0    0    0 -0.00000000000E+00 -0.00000000000E+00 -0.18250000000E+03  0.18250000000E+03  0.00000000000E+00 0.  1.
        -11    1    1    2    0    0  0.32409346730E+00 -0.36988811394E+01  0.17203244698E+03  0.17207251254E+03  0.00000000000E+00 0.  1.
         11    1    1    2    0    0  0.31897267632E+00 -0.28999869336E+01 -0.17996871554E+03  0.17999236162E+03  0.00000000000E+00 0.  1.
        -15    1    1    2    0    0  0.58272750164E-01  0.16492262620E+01  0.71768823747E+01  0.75755338159E+01  0.17770000000E+01 0.  1.
         15    1    1    2    0    0 -0.70133889378E+00  0.49496418110E+01  0.75938617936E+00  0.53595920247E+01  0.17770000000E+01 0.  1.
</event>
<event>
 6    1  0.1298204E-002  0.1839219E+03  0.7546771E-02  0.1067329E+00
        -11   -1    0    0    0    0  0.00000000000E+00  0.00000000000E+00  0.18250000000E+03  0.18250000000E+03  0.00000000000E+00 0. -1.
         11   -1    0    0    0    0 -0.00000000000E+00 -0.00000000000E+00 -0.18250000000E+03  0.18250000000E+03  0.00000000000E+00 0.  1.
        -11    1    1    2    0    0 -0.38434080986E+01 -0.14645991751E+01  0.18103140975E+03  0.18107812720E+03  0.00000000000E+00 0. -1.
         11    1    1    2    0    0  0.78145558431E+00  0.75731343933E+01 -0.13601632387E+03  0.13622923107E+03  0.00000000000E+00 0.  1.
        -15    1    1    2    0    0 -0.73616322142E+00 -0.15703471877E+00 -0.36236858477E+02  0.36288210723E+02  0.17770000000E+01 0. -1.
         15    1    1    2    0    0  0.37981157357E+01 -0.59515004995E+01 -0.87782273951E+01  0.11404431005E+02  0.17770000000E+01 0.  1.
</event>
<event>
 6    1  0.1298204E-002  0.1829794E+03  0.7546771E-02  0.1068074E+00
        -11   -1    0    0    0    0  0.00000000000E+00  0.00000000000E+00  0.18250000000E+03  0.18250000000E+03  0.00000000000E+00 0. -1.
         11   -1    0    0    0    0 -0.00000000000E+00 -0.00000000000E+00 -0.18250000000E+03  0.18250000000E+03  0.00000000000E+00 0. -1.
        -11    1    1    2    0    0  0.22739132019E+01  0.10927959691E+01  0.18200313527E+03  0.18202062007E+03  0.00000000000E+00 0. -1.
         11    1    1    2    0    0  0.11915131001E+01  0.96514309484E+00 -0.11249754751E+03  0.11250799705E+03  0.00000000000E+00 0. -1.
        -15    1    1    2    0    0 -0.57737230006E+01 -0.45613580994E+01 -0.39280165587E+02  0.40002887427E+02  0.17770000000E+01 0. -1.
         15    1    1    2    0    0  0.23082966986E+01  0.25034190354E+01 -0.30225422174E+02  0.30468495452E+02  0.17770000000E+01 0. -1.
</event>
<event>
 6    1  0.1298204E-002  0.1848564E+03  0.7546771E-02  0.1066594E+00
        -11   -1    0    0    0    0  0.00000000000E+00  0.00000000000E+00  0.18250000000E+03  0.18250000000E+03  0.00000000000E+00 0.  1.
         11   -1    0    0    0    0 -0.00000000000E+00 -0.00000000000E+00 -0.18250000000E+03  0.18250000000E+03  0.00000000000E+00 0.  1.
        -11    1    1    2    0    0  0.40360547566E+01 -0.37278637335E+00  0.15416948655E+03  0.15422275867E+03  0.00000000000E+00 0.  1.
         11    1    1    2    0    0  0.34790318051E+01  0.15076059001E+01 -0.18010369429E+03  0.18014360170E+03  0.00000000000E+00 0.  1.
        -15    1    1    2    0    0  0.24371706043E+00 -0.78169604271E+00  0.21353983351E+02  0.21443432110E+02  0.17770000000E+01 0. -1.
         15    1    1    2    0    0 -0.77588036222E+01 -0.35312348400E+00  0.45802243873E+01  0.91902075211E+01  0.17770000000E+01 0.  1.
</event>
<event>
 6    1  0.1298204E-002  0.1827623E+03  0.7546771E-02  0.1068246E+00
        -11   -1    0    0    0    0  0.00000000000E+00  0.00000000000E+00  0.18250000000E+03  0.18250000000E+03  0.00000000000E+00 0. -1.
         11   -1    0    0    0    0 -0.00000000000E+00 -0.00000000000E+00 -0.18250000000E+03  0.18250000000E+03  0.00000000000E+00 0. -1.
        -11    1    1    2    0    0 -0.46192742451E+01  0.16925103911E+01  0.18217129767E+03  0.18223771284E+03  0.00000000000E+00 0. -1.
         11    1    1    2    0    0 -0.14744583977E+01  0.79772707668E+00 -0.91440046341E+02  0.91455412475E+02  0.00000000000E+00 0. -1.
        -15    1    1    2    0    0  0.54672975194E+01 -0.41665716646E+01 -0.50500747084E+02  0.50997400391E+02  0.17770000000E+01 0.  1.
         15    1    1    2    0    0  0.62643512342E+00  0.16763341969E+01 -0.40230504244E+02  0.40309474296E+02  0.17770000000E+01 0. -1.
</event>
<event>
 6    1  0.1298204E-002  0.1877763E+03  0.7546771E-02  0.1064331E+00
        -11   -1    0    0    0    0  0.00000000000E+00  0.00000000000E+00  0.18250000000E+03  0.18250000000E+03  0.00000000000E+00 0. -1.
         11   -1    0    0    0    0 -0.00000000000E+00 -0.00000000000E+00 -0.18250000000E+03  0.18250000000E+03  0.00000000000E+00 0. -1.
        -11    1    1    2    0    0  0.15479614134E+01  0.23111923347E+01  0.17720183698E+03  0.17722366891E+03  0.00000000000E+00 0. -1.
         11    1    1    2    0    0  0.21814938135E+01 -0.27852976584E+01 -0.16941281426E+03  0.16944975194E+03  0.00000000000E+00 0. -1.
        -15    1    1    2    0    0 -0.68440131360E+01 -0.52132431906E+01 -0.11190924093E+01  0.88559876462E+01  0.17770000000E+01 0. -1.
         15    1    1    2    0    0  0.31145579091E+01  0.56873485143E+01 -0.66699303097E+01  0.94705915036E+01  0.17770000000E+01 0.  1.
</event>
<event>
 6    1  0.1298204E-002  0.1776888E+03  0.7546771E-02  0.1072350E+00
        -11   -1    0    0    0    0  0.00000000000E+00  0.00000000000E+00  0.18250000000E+03  0.18250000000E+03  0.00000000000E+00 0. -1.
         11   -1    0    0    0    0 -0.00000000000E+00 -0.00000000000E+00 -0.18250000000E+03  0.18250000000E+03  0.00000000000E+00 0.  1.
        -11    1    1    2    0    0  0.19491356285E+01 -0.37542427742E+01  0.17944329290E+03  0.17949314426E+03  0.00000000000E+00 0. -1.
         11    1    1    2    0    0  0.42212561292E+01 -0.35585170931E+00 -0.17592810574E+03  0.17597910110E+03  0.00000000000E+00 0.  1.
        -15    1    1    2    0    0 -0.49461152443E+01  0.24088673371E+01 -0.35413005755E+01  0.67797667086E+01  0.17770000000E+01 0.  1.
         15    1    1    2    0    0 -0.12242765135E+01  0.17012271464E+01  0.26113410266E-01  0.27479879358E+01  0.17770000000E+01 0. -1.
</event>
<event>
 6    1  0.1298204E-002  0.1837829E+03  0.7546771E-02  0.1067438E+00
        -11   -1    0    0    0    0  0.00000000000E+00  0.00000000000E+00  0.18250000000E+03  0.18250000000E+03  0.00000000000E+00 0. -1.
         11   -1    0    0    0    0 -0.00000000000E+00 -0.00000000000E+00 -0.18250000000E+03  0.18250000000E+03  0.00000000000E+00 0. -1.
        -11    1    1    2    0    0  0.94126395130E+00 -0.25064559757E+01  0.18119728690E+03  0.18121706619E+03  0.00000000000E+00 0. -1.
         11    1    1    2    0    0 -0.44003544237E+01  0.37366210211E+01 -0.15863512441E+03  0.15874012773E+03  0.00000000000E+00 0. -1.
        -15    1    1    2    0    0  0.50336689101E+01  0.27462245111E+00 -0.52093525460E+01  0.74638008504E+01  0.17770000000E+01 0.  1.
         15    1    1    2    0    0 -0.15745784377E+01 -0.15047874966E+01 -0.17352809945E+02  0.17579005224E+02  0.17770000000E+01 0. -1.
</event>
<event>
 6    1  0.1298204E-002  0.1828703E+03  0.7546771E-02  0.1068160E+00
        -11   -1    0    0    0    0  0.00000000000E+00  0.00000000000E+00  0.18250000000E+03  0.18250000000E+03  0.00000000000E+00 0. -1.
         11   -1    0    0    0    0 -0.00000000000E+00 -0.00000000000E+00 -0.18250000000E+03  0.18250000000E+03  0.00000000000E+00 0. -1.
        -11    1    1    2    0    0  0.24196274583E+01 -0.78605449797E+00  0.15486237303E+03  0.15488326914E+03  0.00000000000E+00 0. -1.
         11    1    1    2    0    0  0.21680364835E+01  0.19332690325E+01 -0.18210655232E+03  0.18212971835E+03  0.00000000000E+00 0. -1.
        -15    1    1    2    0    0 -0.20418675652E+01  0.64495344205E+00  0.13433907141E+02  0.13719066228E+02  0.17770000000E+01 0. -1.
         15    1    1    2    0    0 -0.25457963766E+01 -0.17921679765E+01  0.13810272141E+02  0.14267946273E+02  0.17770000000E+01 0.  1.
</event>
<event>
 6    1  0.1298204E-002  0.1935709E+03  0.7546771E-02  0.1059969E+00
        -11   -1    0    0    0    0  0.00000000000E+00  0.00000000000E+00  0.18250000000E+03  0.18250000000E+03  0.00000000000E+00 0.  1.
         11   -1    0    0    0    0 -0.00000000000E+00 -0.00000000000E+00 -0.18250000000E+03  0.18250000000E+03  0.00000000000E+00 0. -1.
        -11    1    1    2    0    0  0.24981712419E+01  0.30981688558E+00  0.15629491753E+03  0.15631518830E+03  0.00000000000E+00 0.  1.
         11    1    1    2    0    0 -0.36833445173E+01 -0.75744271743E+01 -0.17122208411E+03  0.17142911381E+03  0.00000000000E+00 0. -1.
        -15    1    1    2    0    0 -0.44540438410E-01 -0.10158133497E+02  0.16681801314E+02  0.19611983176E+02  0.17770000000E+01 0. -1.
         15    1    1    2    0    0  0.12297137138E+01  0.17422743786E+02 -0.17546347353E+01  0.17643714714E+02  0.17770000000E+01 0.  1.
</event>
<event>
 6    1  0.1298204E-002  0.1829376E+03  0.7546771E-02  0.1068107E+00
        -11   -1    0    0    0    0  0.00000000000E+00  0.00000000000E+00  0.18250000000E+03  0.18250000000E+03  0.00000000000E+00 0.  1.
         11   -1    0    0    0    0 -0.00000000000E+00 -0.00000000000E+00 -0.18250000000E+03  0.18250000000E+03  0.00000000000E+00 0. -1.
        -11    1    1    2    0    0 -0.34894515466E+01 -0.66006728324E+01  0.18190921431E+03  0.18206237229E+03  0.00000000000E+00 0.  1.
         11    1    1    2    0    0 -0.87685406630E+00  0.36966047667E+00 -0.74248931237E+01  0.74856235425E+01  0.00000000000E+00 0. -1.
        -15    1    1    2    0    0  0.53096172341E+01 -0.23312727123E+00 -0.14832582202E+03  0.14843164619E+03  0.17770000000E+01 0. -1.
         15    1    1    2    0    0 -0.94331162125E+00  0.64641396269E+01 -0.26158499161E+02  0.27020357978E+02  0.17770000000E+01 0.  1.
</event>
<event>
 6    1  0.1298204E-002  0.1830752E+03  0.7546771E-02  0.1067998E+00
        -11   -1    0    0    0    0  0.00000000000E+00  0.00000000000E+00  0.18250000000E+03  0.18250000000E+03  0.00000000000E+00 0.  1.
         11   -1    0    0    0    0 -0.00000000000E+00 -0.00000000000E+00 -0.18250000000E+03  0.18250000000E+03  0.00000000000E+00 0.  1.
        -11    1    1    2    0    0  0.18625059986E+01 -0.27380371508E+00  0.97558848779E+02  0.97577009957E+02  0.00000000000E+00 0.  1.
         11    1    1    2    0    0  0.27814683338E+01 -0.18049289345E+01 -0.18189458755E+03  0.18192480676E+03  0.00000000000E+00 0.  1.
        -15    1    1    2    0    0 -0.80982270359E+00  0.21890250982E+01  0.76813311420E+02  0.76869305864E+02  0.17770000000E+01 0.  1.
         15    1    1    2    0    0 -0.38341516287E+01 -0.11029244864E+00  0.75224273549E+01  0.86288774152E+01  0.17770000000E+01 0. -1.
</event>
<event>
 6    1  0.1298204E-002  0.1827249E+03  0.7546771E-02  0.1068276E+00
        -11   -1    0    0    0    0  0.00000000000E+00  0.00000000000E+00  0.18250000000E+03  0.18250000000E+03  0.00000000000E+00 0. -1.
         11   -1    0    0    0    0 -0.00000000000E+00 -0.00000000000E+00 -0.18250000000E+03  0.18250000000E+03  0.00000000000E+00 0.  1.
        -11    1    1    2    0    0  0.37294778221E+00  0.31440437919E+01  0.31820355917E+02  0.31977478827E+02  0.00000000000E+00 0. -1.
         11    1    1    2    0    0  0.23560199664E+01  0.13068382612E+01 -0.18225516653E+03  0.18227507889E+03  0.00000000000E+00 0.  1.
        -15    1    1    2    0    0  0.19837657836E+01 -0.23456807066E+00  0.25425187344E+02  0.25565371684E+02  0.17770000000E+01 0. -1.
         15    1    1    2    0    0 -0.47127335322E+01 -0.42163139824E+01  0.12500962327E+03  0.12518207060E+03  0.17770000000E+01 0.  1.
</event>
<event>
 6    1  0.1298204E-002  0.1830498E+03  0.7546771E-02  0.1068018E+00
        -11   -1    0    0    0    0  0.00000000000E+00  0.00000000000E+00  0.18250000000E+03  0.18250000000E+03  0.00000000000E+00 0. -1.
         11   -1    0    0    0    0 -0.00000000000E+00 -0.00000000000E+00 -0.18250000000E+03  0.18250000000E+03  0.00000000000E+00 0. -1.
        -11    1    1    2    0    0  0.34650177140E+01 -0.12766255797E+01  0.79046920498E+02  0.79133126824E+02  0.00000000000E+00 0. -1.
         11    1    1    2    0    0  0.46377428867E+01 -0.21972224094E+01 -0.18187779541E+03  0.18195018249E+03  0.00000000000E+00 0. -1.
        -15    1    1    2    0    0 -0.16866538892E+01 -0.20326922304E+01  0.66363981408E+02  0.66440291965E+02  0.17770000000E+01 0. -1.
         15    1    1    2    0    0 -0.64161067115E+01  0.55065402195E+01  0.36466893502E+02  0.37476398722E+02  0.17770000000E+01 0.  1.
</event>
<event>
 6    1  0.1298204E-002  0.1864187E+03  0.7546771E-02  0.1065378E+00
        -11   -1    0    0    0    0  0.00000000000E+00  0.00000000000E+00  0.18250000000E+03  0.18250000000E+03  0.00000000000E+00 0. -1.
         11   -1    0    0    0    0 -0.00000000000E+00 -0.00000000000E+00 -0.18250000000E+03  0.18250000000E+03  0.00000000000E+00 0. -1.
        -11    1    1    2    0    0  0.40118719683E+01  0.77699727459E+00  0.16220581292E+03  0.16225727899E+03  0.00000000000E+00 0. -1.
         11    1    1    2    0    0  0.69232543527E+01 -0.17488882016E+01 -0.17843846788E+03  0.17858128928E+03  0.00000000000E+00 0. -1.
        -15    1    1    2    0    0 -0.69918396169E+01  0.30230408976E+01  0.17535038862E+02  0.19200518597E+02  0.17770000000E+01 0. -1.
         15    1    1    2    0    0 -0.39432867041E+01 -0.20511499706E+01 -0.13023839000E+01  0.49609131272E+01  0.17770000000E+01 0.  1.
</event>
<event>
 6    1  0.1298204E-002  0.1833589E+03  0.7546771E-02  0.1067773E+00
        -11   -1    0    0    0    0  0.00000000000E+00  0.00000000000E+00  0.18250000000E+03  0.18250000000E+03  0.00000000000E+00 0. -1.
         11   -1    0    0    0    0 -0.00000000000E+00 -0.00000000000E+00 -0.18250000000E+03  0.18250000000E+03  0.00000000000E+00 0.  1.
        -11    1    1    2    0    0 -0.16259396505E+01  0.21627758614E+01  0.18162095234E+03  0.18164110661E+03  0.00000000000E+00 0. -1.
         11    1    1    2    0    0  0.36911260271E+01 -0.33893384967E+01 -0.14613769799E+03  0.14622359180E+03  0.00000000000E+00 0.  1.
        -15    1    1    2    0    0  0.20113936193E+01 -0.29711194615E+01 -0.76091426088E+01  0.85982576949E+01  0.17770000000E+01 0.  1.
         15    1    1    2    0    0 -0.40765799959E+01  0.41976820968E+01 -0.27874111749E+02  0.28537043895E+02  0.17770000000E+01 0. -1.
</event>
<event>
 6    1  0.1298204E-002  0.1853052E+03  0.7546771E-02  0.1066244E+00
        -11   -1    0    0    0    0  0.00000000000E+00  0.00000000000E+00  0.18250000000E+03  0.18250000000E+03  0.00000000000E+00 0. -1.
         11   -1    0    0    0    0 -0.00000000000E+00 -0.00000000000E+00 -0.18250000000E+03  0.18250000000E+03  0.00000000000E+00 0. -1.
        -11    1    1    2    0    0 -0.47427492486E+01  0.13893874726E+01  0.17522099945E+03  0.17529068063E+03  0.00000000000E+00 0. -1.
         11    1    1    2    0    0  0.40139907448E+01 -0.35108404108E+00 -0.17964960632E+03  0.17969478689E+03  0.00000000000E+00 0. -1.
        -15    1    1    2    0    0 -0.22337322081E+01  0.11658793917E+01  0.50028224858E+01  0.58766313614E+01  0.17770000000E+01 0.  1.
         15    1    1    2    0    0  0.29624907120E+01 -0.22041828233E+01 -0.57421561168E+00  0.41379011232E+01  0.17770000000E+01 0. -1.
</event>
<event>
 6    1  0.1298204E-002  0.1850345E+03  0.7546771E-02  0.1066455E+00
        -11   -1    0    0    0    0  0.00000000000E+00  0.00000000000E+00  0.18250000000E+03  0.18250000000E+03  0.00000000000E+00 0. -1.
         11   -1    0    0    0    0 -0.00000000000E+00 -0.00000000000E+00 -0.18250000000E+03  0.18250000000E+03  0.00000000000E+00 0. -1.
        -11    1    1    2    0    0  0.64656090813E+01 -0.10074356416E+01  0.17984653041E+03  0.17996553427E+03  0.00000000000E+00 0. -1.
         11    1    1    2    0    0 -0.10539846888E+01  0.86328298349E+01 -0.60758657947E+02  0.61377936999E+02  0.00000000000E+00 0. -1.
        -15    1    1    2    0    0  0.11773211020E+02 -0.18300908930E+01 -0.74839159200E+02  0.75802474954E+02  0.17770000000E+01 0. -1.
         15    1    1    2    0    0 -0.17184835412E+02 -0.57953033003E+01 -0.44248713258E+02  0.47854053773E+02  0.17770000000E+01 0.  1.
</event>
<event>
 6    1  0.1298204E-002  0.1851632E+03  0.7546771E-02  0.1066354E+00
        -11   -1    0    0    0    0  0.00000000000E+00  0.00000000000E+00  0.18250000000E+03  0.18250000000E+03  0.00000000000E+00 0. -1.
         11   -1    0    0    0    0 -0.00000000000E+00 -0.00000000000E+00 -0.18250000000E+03  0.18250000000E+03  0.00000000000E+00 0. -1.
        -11    1    1    2    0    0 -0.24395435826E+01  0.20786365165E+00  0.87109618131E+02  0.87144019595E+02  0.00000000000E+00 0. -1.
         11    1    1    2    0    0 -0.19441380544E+02 -0.64705718438E+01 -0.17866568188E+03  0.17983676337E+03  0.00000000000E+00 0. -1.
        -15    1    1    2    0    0  0.38799149514E+01  0.87302407705E+00  0.66535890459E+02  0.66678320009E+02  0.17770000000E+01 0. -1.
         15    1    1    2    0    0  0.18001009176E+02  0.53896841151E+01  0.25020173288E+02  0.31340897029E+02  0.17770000000E+01 0.  1.
</event>
<event>
 6    1  0.1298204E-002  0.1855022E+03  0.7546771E-02  0.1066090E+00
        -11   -1    0    0    0    0  0.00000000000E+00  0.00000000000E+00  0.18250000000E+03  0.18250000000E+03  0.00000000000E+00 0. -1.
         11   -1    0    0    0    0 -0.00000000000E+00 -0.00000000000E+00 -0.18250000000E+03  0.18250000000E+03  0.00000000000E+00 0. -1.
        -11    1    1    2    0    0  0.66783090071E-01  0.65813167799E+01  0.17937707544E+03  0.17949778100E+03  0.00000000000E+00 0. -1.
         11    1    1    2    0    0 -0.10499322935E+02  0.32593772698E+01 -0.14574951837E+03  0.14616354343E+03  0.00000000000E+00 0. -1.
        -15    1    1    2    0    0  0.87623439001E+01 -0.35031178382E+01 -0.30283260613E+02  0.31769232090E+02  0.17770000000E+01 0.  1.
         15    1    1    2    0    0  0.16701959445E+01 -0.63375762115E+01 -0.33442964552E+01  0.75694434743E+01  0.17770000000E+01 0. -1.
</event>
<event>
 6    1  0.1298204E-002  0.1849179E+03  0.7546771E-02  0.1066546E+00
        -11   -1    0    0    0    0  0.00000000000E+00  0.00000000000E+00  0.18250000000E+03  0.18250000000E+03  0.00000000000E+00 0. -1.
         11   -1    0    0    0    0 -0.00000000000E+00 -0.00000000000E+00 -0.18250000000E+03  0.18250000000E+03  0.00000000000E+00 0. -1.
        -11    1    1    2    0    0  0.34708289862E+01  0.11740133712E+01  0.17548543260E+03  0.17552367936E+03  0.00000000000E+00 0. -1.
         11    1    1    2    0    0 -0.38314416458E+01  0.70519446073E+00 -0.18003997045E+03  0.18008211517E+03  0.00000000000E+00 0. -1.
        -15    1    1    2    0    0 -0.15039401886E+01 -0.17943128194E+01  0.58223064973E+01  0.65221450868E+01  0.17770000000E+01 0. -1.
         15    1    1    2    0    0  0.18645528482E+01 -0.84895012605E-01 -0.12677686495E+01  0.28720603816E+01  0.17770000000E+01 0.  1.
</event>
<event>
 6    1  0.1298204E-002  0.1868090E+03  0.7546771E-02  0.1065076E+00
        -11   -1    0    0    0    0  0.00000000000E+00  0.00000000000E+00  0.18250000000E+03  0.18250000000E+03  0.00000000000E+00 0. -1.
         11   -1    0    0    0    0 -0.00000000000E+00 -0.00000000000E+00 -0.18250000000E+03  0.18250000000E+03  0.00000000000E+00 0. -1.
        -11    1    1    2    0    0 -0.11963259759E+02 -0.77694264500E+00  0.10634745469E+03  0.10702104626E+03  0.00000000000E+00 0. -1.
         11    1    1    2    0    0 -0.65248639377E+00 -0.25908102283E+01 -0.17817093162E+03  0.17819096192E+03  0.00000000000E+00 0. -1.
        -15    1    1    2    0    0  0.93256563759E+01  0.10253974153E+02  0.70462429550E+02  0.71834696073E+02  0.17770000000E+01 0. -1.
         15    1    1    2    0    0  0.32900897769E+01 -0.68862212794E+01  0.13610473780E+01  0.79532957454E+01  0.17770000000E+01 0.  1.
</event>
<event>
 6    1  0.1298204E-002  0.1939244E+03  0.7546771E-02  0.1059708E+00
        -11   -1    0    0    0    0  0.00000000000E+00  0.00000000000E+00  0.18250000000E+03  0.18250000000E+03  0.00000000000E+00 0. -1.
         11   -1    0    0    0    0 -0.00000000000E+00 -0.00000000000E+00 -0.18250000000E+03  0.18250000000E+03  0.00000000000E+00 0. -1.
        -11    1    1    2    0    0 -0.53873093397E+01 -0.23847146576E+00  0.17099054101E+03  0.17107555374E+03  0.00000000000E+00 0. -1.
         11    1    1    2    0    0 -0.25502126399E+00 -0.14699329425E+01 -0.56578362418E+02  0.56598028522E+02  0.00000000000E+00 0. -1.
        -15    1    1    2    0    0 -0.16685685460E+02  0.27624581580E+02 -0.22895504733E+02  0.39609234689E+02  0.17770000000E+01 0.  1.
         15    1    1    2    0    0  0.22328016063E+02 -0.25916177171E+02 -0.91516673860E+02  0.97717183054E+02  0.17770000000E+01 0. -1.
</event>
<event>
 6    1  0.1298204E-002  0.1827521E+03  0.7546771E-02  0.1068254E+00
        -11   -1    0    0    0    0  0.00000000000E+00  0.00000000000E+00  0.18250000000E+03  0.18250000000E+03  0.00000000000E+00 0.  1.
         11   -1    0    0    0    0 -0.00000000000E+00 -0.00000000000E+00 -0.18250000000E+03  0.18250000000E+03  0.00000000000E+00 0.  1.
        -11    1    1    2    0    0 -0.36599052463E+01  0.28301608868E+00  0.13311725181E+03  0.13316785548E+03  0.00000000000E+00 0.  1.
         11    1    1    2    0    0 -0.12994835914E+01 -0.24369602896E+01 -0.18222699701E+03  0.18224792419E+03  0.00000000000E+00 0.  1.
        -15    1    1    2    0    0  0.34324711551E+01  0.22612747469E+01  0.30400611622E+02  0.30728653366E+02  0.17770000000E+01 0.  1.
         15    1    1    2    0    0  0.15269176826E+01 -0.10733054607E+00  0.18709133572E+02  0.18855566963E+02  0.17770000000E+01 0.  1.
</event>
<event>
 6    1  0.1298204E-002  0.1831812E+03  0.7546771E-02  0.1067914E+00
        -11   -1    0    0    0    0  0.00000000000E+00  0.00000000000E+00  0.18250000000E+03  0.18250000000E+03  0.00000000000E+00 0. -1.
         11   -1    0    0    0    0 -0.00000000000E+00 -0.00000000000E+00 -0.18250000000E+03  0.18250000000E+03  0.00000000000E+00 0.  1.
        -11    1    1    2    0    0 -0.55848534786E+01 -0.37069071260E+01  0.10961091581E+03  0.10981568474E+03  0.00000000000E+00 0. -1.
         11    1    1    2    0    0  0.20567561125E+01 -0.17063105942E+01 -0.18179920293E+03  0.18181884371E+03  0.00000000000E+00 0.  1.
        -15    1    1    2    0    0  0.42883081558E+01  0.77733536873E+01  0.63809805838E+02  0.64448922911E+02  0.17770000000E+01 0. -1.
         15    1    1    2    0    0 -0.76021078967E+00 -0.23601359671E+01  0.83784812775E+01  0.89165486454E+01  0.17770000000E+01 0.  1.
</event>
<event>
 6    1  0.1298204E-002  0.1655813E+03  0.7546771E-02  0.1082781E+00
        -11   -1    0    0    0    0  0.00000000000E+00  0.00000000000E+00  0.18250000000E+03  0.18250000000E+03  0.00000000000E+00 0. -1.
         11   -1    0    0    0    0 -0.00000000000E+00 -0.00000000000E+00 -0.18250000000E+03  0.18250000000E+03  0.00000000000E+00 0.  1.
        -11    1    1    2    0    0  0.41068544297E+01  0.38445798190E+01  0.16489209440E+03  0.16498802940E+03  0.00000000000E+00 0. -1.
         11    1    1    2    0    0  0.65569577402E+01  0.48740666349E+00 -0.16624739773E+03  0.16637736779E+03  0.00000000000E+00 0.  1.
        -15    1    1    2    0    0 -0.90244966920E+01 -0.68184130012E+01 -0.13889540692E+02  0.18000260166E+02  0.17770000000E+01 0. -1.
         15    1    1    2    0    0 -0.16393154779E+01  0.24864265188E+01  0.15244844017E+02  0.15634342652E+02  0.17770000000E+01 0. -1.
</event>
<event>
 6    1  0.1298204E-002  0.1834562E+03  0.7546771E-02  0.1067696E+00
        -11   -1    0    0    0    0  0.00000000000E+00  0.00000000000E+00  0.18250000000E+03  0.18250000000E+03  0.00000000000E+00 0. -1.
         11   -1    0    0    0    0 -0.00000000000E+00 -0.00000000000E+00 -0.18250000000E+03  0.18250000000E+03  0.00000000000E+00 0.  1.
        -11    1    1    2    0    0  0.37756081462E+01  0.16598596164E+01  0.18149693267E+03  0.18154378788E+03  0.00000000000E+00 0. -1.
         11    1    1    2    0    0 -0.44396649667E+01 -0.28176274415E+01 -0.14790683852E+03  0.14800027882E+03  0.00000000000E+00 0.  1.
        -15    1    1    2    0    0  0.36878834688E+01  0.91942477057E+00 -0.30464174983E+02  0.30751739996E+02  0.17770000000E+01 0. -1.
         15    1    1    2    0    0 -0.30238266484E+01  0.23834305458E+00 -0.31259191661E+01  0.47041933043E+01  0.17770000000E+01 0.  1.
</event>
<event>
 6    1  0.1298204E-002  0.1850430E+03  0.7546771E-02  0.1066448E+00
        -11   -1    0    0    0    0  0.00000000000E+00  0.00000000000E+00  0.18250000000E+03  0.18250000000E+03  0.00000000000E+00 0.  1.
         11   -1    0    0    0    0 -0.00000000000E+00 -0.00000000000E+00 -0.18250000000E+03  0.18250000000E+03  0.00000000000E+00 0. -1.
        -11    1    1    2    0    0  0.28433879941E+01  0.59956140512E+00  0.47543578785E+02  0.47632302200E+02  0.00000000000E+00 0.  1.
         11    1    1    2    0    0  0.20058730853E+01 -0.15481512395E+01 -0.17993920462E+03  0.17995704392E+03  0.00000000000E+00 0. -1.
        -15    1    1    2    0    0 -0.29968750325E-01 -0.21195823084E+01  0.13129874699E+03  0.13132788058E+03  0.17770000000E+01 0.  1.
         15    1    1    2    0    0 -0.48192923290E+01  0.30681721428E+01  0.10968788454E+01  0.60827733027E+01  0.17770000000E+01 0. -1.
</event>
<event>
 6    1  0.1298204E-002  0.1827170E+03  0.7546771E-02  0.1068282E+00
        -11   -1    0    0    0    0  0.00000000000E+00  0.00000000000E+00  0.18250000000E+03  0.18250000000E+03  0.00000000000E+00 0.  1.
         11   -1    0    0    0    0 -0.00000000000E+00 -0.00000000000E+00 -0.18250000000E+03  0.18250000000E+03  0.00000000000E+00 0. -1.
        -11    1    1    2    0    0  0.26590060072E+01 -0.56620562048E+00  0.18226271152E+03  0.18228298580E+03  0.00000000000E+00 0.  1.
         11    1    1    2    0    0 -0.71981387319E+00  0.19249351183E+01 -0.66626113073E+02  0.66657801122E+02  0.00000000000E+00 0. -1.
        -15    1    1    2    0    0  0.19594083694E-01 -0.13922754409E+01 -0.10706542773E+03  0.10708922616E+03  0.17770000000E+01 0.  1.
         15    1    1    2    0    0 -0.19587862177E+01  0.33545943126E-01 -0.85711707197E+01  0.89699869166E+01  0.17770000000E+01 0.  1.
</event>
<event>
 6    1  0.1298204E-002  0.1855311E+03  0.7546771E-02  0.1066067E+00
        -11   -1    0    0    0    0  0.00000000000E+00  0.00000000000E+00  0.18250000000E+03  0.18250000000E+03  0.00000000000E+00 0. -1.
         11   -1    0    0    0    0 -0.00000000000E+00 -0.00000000000E+00 -0.18250000000E+03  0.18250000000E+03  0.00000000000E+00 0. -1.
        -11    1    1    2    0    0 -0.17132700764E+01 -0.28242805673E+01  0.17943847902E+03  0.17946888200E+03  0.00000000000E+00 0. -1.
         11    1    1    2    0    0  0.47959818377E+01 -0.33245467336E+00 -0.17632455715E+03  0.17639008311E+03  0.00000000000E+00 0. -1.
        -15    1    1    2    0    0 -0.30883660928E+01 -0.12621397169E+01 -0.18761362324E+01  0.42200258235E+01  0.17770000000E+01 0.  1.
         15    1    1    2    0    0  0.56543315026E-02  0.44188749576E+01 -0.12377856414E+01  0.49210090587E+01  0.17770000000E+01 0. -1.
</event>
<event>
 6    1  0.1298204E-002  0.1701333E+03  0.7546771E-02  0.1078748E+00
        -11   -1    0    0    0    0  0.00000000000E+00  0.00000000000E+00  0.18250000000E+03  0.18250000000E+03  0.00000000000E+00 0. -1.
         11   -1    0    0    0    0 -0.00000000000E+00 -0.00000000000E+00 -0.18250000000E+03  0.18250000000E+03  0.00000000000E+00 0. -1.
        -11    1    1    2    0    0  0.33956042490E+00  0.42901052662E+01  0.17374421701E+03  0.17379750645E+03  0.00000000000E+00 0. -1.
         11    1    1    2    0    0 -0.16615144797E+02 -0.27025112749E+01 -0.16609685127E+03  0.16694768824E+03  0.00000000000E+00 0. -1.
        -15    1    1    2    0    0  0.12390782480E+02 -0.64719303941E+01  0.17322044422E+00  0.14092732447E+02  0.17770000000E+01 0. -1.
         15    1    1    2    0    0  0.38848018912E+01  0.48843364027E+01 -0.78205861766E+01  0.10162072868E+02  0.17770000000E+01 0.  1.
</event>
<event>
 6    1  0.1298204E-002  0.1828362E+03  0.7546771E-02  0.1068188E+00
        -11   -1    0    0    0    0  0.00000000000E+00  0.00000000000E+00  0.18250000000E+03  0.18250000000E+03  0.00000000000E+00 0. -1.
         11   -1    0    0    0    0 -0.00000000000E+00 -0.00000000000E+00 -0.18250000000E+03  0.18250000000E+03  0.00000000000E+00 0. -1.
        -11    1    1    2    0    0  0.30358545449E+01 -0.23126585890E+01  0.18212384352E+03  0.18216382511E+03  0.00000000000E+00 0. -1.
         11    1    1    2    0    0  0.18679322362E+01  0.25344139797E+01 -0.82827618237E+02  0.82887434319E+02  0.00000000000E+00 0. -1.
        -15    1    1    2    0    0 -0.20750029074E+01 -0.24054285553E+00 -0.90468403044E+02  0.90509961752E+02  0.17770000000E+01 0.  1.
         15    1    1    2    0    0 -0.28287838737E+01  0.18787464754E-01 -0.88278222342E+01  0.94387788178E+01  0.17770000000E+01 0. -1.
</event>
<event>
 6    1  0.1298204E-002  0.1829210E+03  0.7546771E-02  0.1068120E+00
        -11   -1    0    0    0    0  0.00000000000E+00  0.00000000000E+00  0.18250000000E+03  0.18250000000E+03  0.00000000000E+00 0. -1.
         11   -1    0    0    0    0 -0.00000000000E+00 -0.00000000000E+00 -0.18250000000E+03  0.18250000000E+03  0.00000000000E+00 0.  1.
        -11    1    1    2    0    0  0.15281662043E+00  0.38484113017E+01  0.18203827673E+03  0.18207901532E+03  0.00000000000E+00 0. -1.
         11    1    1    2    0    0 -0.15936113530E+01  0.17219714299E+00 -0.92385163071E+02  0.92399067120E+02  0.00000000000E+00 0.  1.
        -15    1    1    2    0    0  0.15175769889E+01 -0.33684734153E+01 -0.95053296224E+01  0.10351747355E+02  0.17770000000E+01 0. -1.
         15    1    1    2    0    0 -0.76782256362E-01 -0.65213502943E+00 -0.80147784040E+02  0.80170170208E+02  0.17770000000E+01 0.  1.
</event>
<event>
 6    1  0.1298204E-002  0.1831872E+03  0.7546771E-02  0.1067909E+00
        -11   -1    0    0    0    0  0.00000000000E+00  0.00000000000E+00  0.18250000000E+03  0.18250000000E+03  0.00000000000E+00 0. -1.
         11   -1    0    0    0    0 -0.00000000000E+00 -0.00000000000E+00 -0.18250000000E+03  0.18250000000E+03  0.00000000000E+00 0. -1.
        -11    1    1    2    0    0  0.22434394409E+01 -0.12019958052E+01  0.18179499398E+03  0.18181280937E+03  0.00000000000E+00 0. -1.
         11    1    1    2    0    0 -0.43276362985E+01 -0.21432472651E+01 -0.13253799630E+03  0.13262594922E+03  0.00000000000E+00 0. -1.
        -15    1    1    2    0    0  0.59053785020E+00  0.38332858627E+01 -0.67309065751E+01  0.79690430906E+01  0.17770000000E+01 0.  1.
         15    1    1    2    0    0  0.14936590073E+01 -0.48804279240E+00 -0.42526091113E+02  0.42592198315E+02  0.17770000000E+01 0. -1.
</event>
<event>
 6    1  0.1298204E-002  0.1857562E+03  0.7546771E-02  0.1065892E+00
        -11   -1    0    0    0    0  0.00000000000E+00  0.00000000000E+00  0.18250000000E+03  0.18250000000E+03  0.00000000000E+00 0.  1.
         11   -1    0    0    0    0 -0.00000000000E+00 -0.00000000000E+00 -0.18250000000E+03  0.18250000000E+03  0.00000000000E+00 0.  1.
        -11    1    1    2    0    0 -0.11449388777E+01 -0.46609700044E+01  0.17917950422E+03  0.17924377328E+03  0.00000000000E+00 0.  1.
         11    1    1    2    0    0  0.22717530565E+01  0.14387608361E+01 -0.16304430142E+03  0.16306647454E+03  0.00000000000E+00 0.  1.
        -15    1    1    2    0    0  0.61697091379E+01  0.24160482631E+01 -0.28932686861E+01  0.74452221422E+01  0.17770000000E+01 0. -1.
         15    1    1    2    0    0 -0.72965233167E+01  0.80616090523E+00 -0.13241934119E+02  0.15244530040E+02  0.17770000000E+01 0.  1.
</event>
<event>
 6    1  0.1298204E-002  0.1864997E+03  0.7546771E-02  0.1065315E+00
        -11   -1    0    0    0    0  0.00000000000E+00  0.00000000000E+00  0.18250000000E+03  0.18250000000E+03  0.00000000000E+00 0.  1.
         11   -1    0    0    0    0 -0.00000000000E+00 -0.00000000000E+00 -0.18250000000E+03  0.18250000000E+03  0.00000000000E+00 0. -1.
        -11    1    1    2    0    0 -0.10824438656E+02 -0.19440436809E+02  0.17710804533E+03  0.17850030469E+03  0.00000000000E+00 0.  1.
         11    1    1    2    0    0 -0.10061062732E+01 -0.16704762191E+01 -0.12132949544E+03  0.12134516556E+03  0.00000000000E+00 0. -1.
        -15    1    1    2    0    0  0.12361825592E+02  0.24959444287E+02 -0.39771760480E+02  0.48587439239E+02  0.17770000000E+01 0.  1.
         15    1    1    2    0    0 -0.53128066328E+00 -0.38485312590E+01 -0.16006789408E+02  0.16567090516E+02  0.17770000000E+01 0. -1.
</event>
<event>
 6    1  0.1298204E-002  0.1844755E+03  0.7546771E-02  0.1066893E+00
        -11   -1    0    0    0    0  0.00000000000E+00  0.00000000000E+00  0.18250000000E+03  0.18250000000E+03  0.00000000000E+00 0. -1.
         11   -1    0    0    0    0 -0.00000000000E+00 -0.00000000000E+00 -0.18250000000E+03  0.18250000000E+03  0.00000000000E+00 0. -1.
        -11    1    1    2    0    0 -0.42407860011E+01  0.33178775621E+01  0.18044417706E+03  0.18052449588E+03  0.00000000000E+00 0. -1.
         11    1    1    2    0    0  0.14003204838E+01 -0.19680548908E+01 -0.15658751009E+03  0.15660613799E+03  0.00000000000E+00 0. -1.
        -15    1    1    2    0    0 -0.15255282977E+00  0.35438830191E+01 -0.20715735003E+02  0.21092220957E+02  0.17770000000E+01 0. -1.
         15    1    1    2    0    0  0.29930183471E+01 -0.48937056903E+01 -0.31409319599E+01  0.67771451797E+01  0.17770000000E+01 0. -1.
</event>
<event>
 6    1  0.1298204E-002  0.1741099E+03  0.7546771E-02  0.1075337E+00
        -11   -1    0    0    0    0  0.00000000000E+00  0.00000000000E+00  0.18250000000E+03  0.18250000000E+03  0.00000000000E+00 0. -1.
         11   -1    0    0    0    0 -0.00000000000E+00 -0.00000000000E+00 -0.18250000000E+03  0.18250000000E+03  0.00000000000E+00 0. -1.
        -11    1    1    2    0    0 -0.10672724387E+02 -0.20755372875E+01  0.17145484606E+03  0.17179924079E+03  0.00000000000E+00 0. -1.
         11    1    1    2    0    0 -0.26218374203E+01  0.51023867718E+00 -0.17669690728E+03  0.17671709430E+03  0.00000000000E+00 0. -1.
        -15    1    1    2    0    0  0.55923280409E+00  0.20097285716E+01  0.12518986345E+01  0.30127611010E+01  0.17770000000E+01 0.  1.
         15    1    1    2    0    0  0.12735329003E+02 -0.44442996133E+00  0.39901625923E+01  0.13470903805E+02  0.17770000000E+01 0. -1.
</event>
<event>
 6    1  0.1298204E-002  0.1720240E+03  0.7546771E-02  0.1077114E+00
        -11   -1    0    0    0    0  0.00000000000E+00  0.00000000000E+00  0.18250000000E+03  0.18250000000E+03  0.00000000000E+00 0.  1.
         11   -1    0    0    0    0 -0.00000000000E+00 -0.00000000000E+00 -0.18250000000E+03  0.18250000000E+03  0.00000000000E+00 0.  1.
        -11    1    1    2    0    0 -0.56405598224E+01  0.30849977377E+01  0.17089356314E+03  0.17101445275E+03  0.00000000000E+00 0.  1.
         11    1    1    2    0    0  0.40508954523E+01  0.38471474920E+01 -0.17302339196E+03  0.17311355944E+03  0.00000000000E+00 0.  1.
        -15    1    1    2    0    0  0.17154846826E+01 -0.14301770237E+01 -0.83928237012E+01  0.88648470204E+01  0.17770000000E+01 0. -1.
         15    1    1    2    0    0 -0.12582031239E+00 -0.55019682060E+01  0.10522652520E+02  0.12007140790E+02  0.17770000000E+01 0.  1.
</event>
<event>
 6    1  0.1298204E-002  0.1830379E+03  0.7546771E-02  0.1068027E+00
        -11   -1    0    0    0    0  0.00000000000E+00  0.00000000000E+00  0.18250000000E+03  0.18250000000E+03  0.00000000000E+00 0.  1.
         11   -1    0    0    0    0 -0.00000000000E+00 -0.00000000000E+00 -0.18250000000E+03  0.18250000000E+03  0.00000000000E+00 0.  1.
        -11    1    1    2    0    0 -0.33206579987E+01  0.91961634626E+00  0.16792171708E+03  0.16795706455E+03  0.00000000000E+00 0.  1.
         11    1    1    2    0    0  0.22870045579E+01  0.23204505604E+01 -0.18193289187E+03  0.18196206205E+03  0.00000000000E+00 0.  1.
        -15    1    1    2    0    0  0.20335089716E+00 -0.48603235440E+00  0.26983292667E+01  0.32735743261E+01  0.17770000000E+01 0. -1.
         15    1    1    2    0    0  0.83030254365E+00 -0.27540345523E+01  0.11312845525E+02  0.11807299077E+02  0.17770000000E+01 0.  1.
</event>
<event>
 6    1  0.1298204E-002  0.1835796E+03  0.7546771E-02  0.1067599E+00
        -11   -1    0    0    0    0  0.00000000000E+00  0.00000000000E+00  0.18250000000E+03  0.18250000000E+03  0.00000000000E+00 0. -1.
         11   -1    0    0    0    0 -0.00000000000E+00 -0.00000000000E+00 -0.18250000000E+03  0.18250000000E+03  0.00000000000E+00 0.  1.
        -11    1    1    2    0    0  0.22170552092E+01  0.12501803438E+01  0.17223387539E+03  0.17225268102E+03  0.00000000000E+00 0. -1.
         11    1    1    2    0    0  0.23619864429E+01 -0.98290025285E+00 -0.18140231753E+03  0.18142035684E+03  0.00000000000E+00 0.  1.
        -15    1    1    2    0    0 -0.33955234025E+01 -0.89647095630E+00  0.36150561036E+01  0.53441181671E+01  0.17770000000E+01 0.  1.
         15    1    1    2    0    0 -0.11835182496E+01  0.62919086539E+00  0.55533860289E+01  0.59828439707E+01  0.17770000000E+01 0. -1.
</event>
<event>
 6    1  0.1298204E-002  0.1837399E+03  0.7546771E-02  0.1067472E+00
        -11   -1    0    0    0    0  0.00000000000E+00  0.00000000000E+00  0.18250000000E+03  0.18250000000E+03  0.00000000000E+00 0. -1.
         11   -1    0    0    0    0 -0.00000000000E+00 -0.00000000000E+00 -0.18250000000E+03  0.18250000000E+03  0.00000000000E+00 0.  1.
        -11    1    1    2    0    0  0.13613541436E+01 -0.38671751614E+01  0.14618990491E+03  0.14624738161E+03  0.00000000000E+00 0. -1.
         11    1    1    2    0    0 -0.72886666811E+00  0.26271387375E+01 -0.18123958432E+03  0.18126008945E+03  0.00000000000E+00 0.  1.
        -15    1    1    2    0    0  0.16666643979E+00  0.58087194064E+01  0.29167905599E+02  0.29794184749E+02  0.17770000000E+01 0.  1.
         15    1    1    2    0    0 -0.79915391527E+00 -0.45686829825E+01  0.58817738088E+01  0.76983441929E+01  0.17770000000E+01 0. -1.
</event>
<event>
 6    1  0.1298204E-002  0.1765518E+03  0.7546771E-02  0.1073291E+00
        -11   -1    0    0    0    0  0.00000000000E+00  0.00000000000E+00  0.18250000000E+03  0.18250000000E+03  0.00000000000E+00 0. -1.
         11   -1    0    0    0    0 -0.00000000000E+00 -0.00000000000E+00 -0.18250000000E+03  0.18250000000E+03  0.00000000000E+00 0.  1.
        -11    1    1    2    0    0  0.17773719897E+01  0.92249037764E+01  0.17551459894E+03  0.17576584521E+03  0.00000000000E+00 0. -1.
         11    1    1    2    0    0  0.32308390604E+01 -0.12623158276E+01 -0.17743443832E+03  0.17746833989E+03  0.00000000000E+00 0.  1.
        -15    1    1    2    0    0 -0.22243160395E+01  0.46473013922E-01 -0.17533829943E+00  0.28527555282E+01  0.17770000000E+01 0.  1.
         15    1    1    2    0    0 -0.27838950106E+01 -0.80090609627E+01  0.20951776774E+01  0.89130593757E+01  0.17770000000E+01 0. -1.
</event>
<event>
 6    1  0.1298204E-002  0.1850389E+03  0.7546771E-02  0.1066452E+00
        -11   -1    0    0    0    0  0.00000000000E+00  0.00000000000E+00  0.18250000000E+03  0.18250000000E+03  0.00000000000E+00 0. -1.
         11   -1    0    0    0    0 -0.00000000000E+00 -0.00000000000E+00 -0.18250000000E+03  0.18250000000E+03  0.00000000000E+00 0.  1.
        -11    1    1    2    0    0  0.15941847540E+01  0.15037490886E+01  0.15175457839E+03  0.15177040142E+03  0.00000000000E+00 0. -1.
         11    1    1    2    0    0 -0.42560435996E+00 -0.32812021911E+01 -0.17993073085E+03  0.17996114950E+03  0.00000000000E+00 0.  1.
        -15    1    1    2    0    0 -0.22628384409E+01 -0.51335919770E+01  0.24442294425E+02  0.25140757549E+02  0.17770000000E+01 0.  1.
         15    1    1    2    0    0  0.10942580469E+01  0.69110450795E+01  0.37338580357E+01  0.81276915292E+01  0.17770000000E+01 0.  1.
</event>
<event>
 6    1  0.1298204E-002  0.1840657E+03  0.7546771E-02  0.1067215E+00
        -11   -1    0    0    0    0  0.00000000000E+00  0.00000000000E+00  0.18250000000E+03  0.18250000000E+03  0.00000000000E+00 0. -1.
         11   -1    0    0    0    0 -0.00000000000E+00 -0.00000000000E+00 -0.18250000000E+03  0.18250000000E+03  0.00000000000E+00 0. -1.
        -11    1    1    2    0    0  0.29163639541E+01 -0.27989038356E+01  0.16819835303E+03  0.16824691677E+03  0.00000000000E+00 0. -1.
         11    1    1    2    0    0  0.31514054863E+01 -0.21962079480E+01 -0.18089351021E+03  0.18093428841E+03  0.00000000000E+00 0. -1.
        -15    1    1    2    0    0 -0.35517992413E+01  0.44408358858E+01  0.10215468430E+02  0.11825811831E+02  0.17770000000E+01 0. -1.
         15    1    1    2    0    0 -0.25159701991E+01  0.55427589783E+00  0.24796887529E+01  0.39929829858E+01  0.17770000000E+01 0.  1.
</event>
<event>
 6    1  0.1298204E-002  0.1830691E+03  0.7546771E-02  0.1068003E+00
        -11   -1    0    0    0    0  0.00000000000E+00  0.00000000000E+00  0.18250000000E+03  0.18250000000E+03  0.00000000000E+00 0.  1.
         11   -1    0    0    0    0 -0.00000000000E+00 -0.00000000000E+00 -0.18250000000E+03  0.18250000000E+03  0.00000000000E+00 0.  1.
        -11    1    1    2    0    0 -0.57227068337E+00 -0.25198291933E+01  0.78271755893E+02  0.78314397166E+02  0.00000000000E+00 0.  1.
         11    1    1    2    0    0  0.19976686412E+01 -0.23941096581E+01 -0.18190417434E+03  0.18193089645E+03  0.00000000000E+00 0.  1.
        -15    1    1    2    0    0 -0.31968766226E+00  0.48935598139E+01  0.11835213170E+02  0.12933643247E+02  0.17770000000E+01 0.  1.
         15    1    1    2    0    0 -0.11057102956E+01  0.20379037558E-01  0.91797205275E+02  0.91821063138E+02  0.17770000000E+01 0.  1.
</event>
<event>
 6    1  0.1298204E-002  0.1839428E+03  0.7546771E-02  0.1067312E+00
        -11   -1    0    0    0    0  0.00000000000E+00  0.00000000000E+00  0.18250000000E+03  0.18250000000E+03  0.00000000000E+00 0. -1.
         11   -1    0    0    0    0 -0.00000000000E+00 -0.00000000000E+00 -0.18250000000E+03  0.18250000000E+03  0.00000000000E+00 0. -1.
        -11    1    1    2    0    0  0.30994539614E+01  0.50014459969E+01  0.18096154162E+03  0.18105717501E+03  0.00000000000E+00 0. -1.
         11    1    1    2    0    0 -0.16179090867E+01  0.23155414669E+01 -0.13988688772E+03  0.13991540557E+03  0.00000000000E+00 0. -1.
        -15    1    1    2    0    0 -0.39978587957E+01  0.24847580299E+01 -0.19385239881E+02  0.20027534837E+02  0.17770000000E+01 0. -1.
         15    1    1    2    0    0  0.25163139210E+01 -0.98017454937E+01 -0.21689414020E+02  0.23999884583E+02  0.17770000000E+01 0. -1.
</event>
<event>
 6    1  0.1298204E-002  0.1829400E+03  0.7546771E-02  0.1068105E+00
        -11   -1    0    0    0    0  0.00000000000E+00  0.00000000000E+00  0.18250000000E+03  0.18250000000E+03  0.00000000000E+00 0.  1.
         11   -1    0    0    0    0 -0.00000000000E+00 -0.00000000000E+00 -0.18250000000E+03  0.18250000000E+03  0.00000000000E+00 0. -1.
        -11    1    1    2    0    0  0.64579461147E+01 -0.80356953124E+01  0.18176788284E+03  0.18205999203E+03  0.00000000000E+00 0.  1.
         11    1    1    2    0    0 -0.30612438543E+00  0.25672040971E+01 -0.70761307619E+02  0.70808522827E+02  0.00000000000E+00 0. -1.
        -15    1    1    2    0    0 -0.10477316676E+01 -0.16269142033E+01 -0.74671080649E+02  0.74717284518E+02  0.17770000000E+01 0. -1.
         15    1    1    2    0    0 -0.51040900617E+01  0.70954054186E+01 -0.36335494571E+02  0.37414200622E+02  0.17770000000E+01 0. -1.
</event>
<event>
 6    1  0.1298204E-002  0.1757243E+03  0.7546771E-02  0.1073980E+00
        -11   -1    0    0    0    0  0.00000000000E+00  0.00000000000E+00  0.18250000000E+03  0.18250000000E+03  0.00000000000E+00 0.  1.
         11   -1    0    0    0    0 -0.00000000000E+00 -0.00000000000E+00 -0.18250000000E+03  0.18250000000E+03  0.00000000000E+00 0.  1.
        -11    1    1    2    0    0  0.50101622684E+01 -0.19669544214E+01  0.17517260985E+03  0.17525528202E+03  0.00000000000E+00 0.  1.
         11    1    1    2    0    0  0.31020454828E+00 -0.27125147180E+01 -0.17624524854E+03  0.17626639384E+03  0.00000000000E+00 0.  1.
        -15    1    1    2    0    0 -0.60962548884E+01  0.26285702437E+01  0.51016409365E+01  0.85590989266E+01  0.17770000000E+01 0. -1.
         15    1    1    2    0    0  0.77588807171E+00  0.20508988957E+01 -0.40290022438E+01  0.49192252094E+01  0.17770000000E+01 0.  1.
</event>
<event>
 6    1  0.1298204E-002  0.1848354E+03  0.7546771E-02  0.1066611E+00
        -11   -1    0    0    0    0  0.00000000000E+00  0.00000000000E+00  0.18250000000E+03  0.18250000000E+03  0.00000000000E+00 0. -1.
         11   -1    0    0    0    0 -0.00000000000E+00 -0.00000000000E+00 -0.18250000000E+03  0.18250000000E+03  0.00000000000E+00 0. -1.
        -11    1    1    2    0    0  0.28660780743E+01 -0.86897587671E+00  0.17702902505E+03  0.17705435671E+03  0.00000000000E+00 0. -1.
         11    1    1    2    0    0 -0.44039952310E+01 -0.27225425614E-01 -0.18011076434E+03  0.18016460071E+03  0.00000000000E+00 0. -1.
        -15    1    1    2    0    0 -0.76426162222E+00 -0.19577979001E+01  0.14070168432E+00  0.27558291690E+01  0.17770000000E+01 0. -1.
         15    1    1    2    0    0  0.23021787789E+01  0.28539992025E+01  0.29410376125E+01  0.50252134100E+01  0.17770000000E+01 0.  1.
</event>
<event>
 6    1  0.1298204E-002  0.1883466E+03  0.7546771E-02  0.1063894E+00
        -11   -1    0    0    0    0  0.00000000000E+00  0.00000000000E+00  0.18250000000E+03  0.18250000000E+03  0.00000000000E+00 0. -1.
         11   -1    0    0    0    0 -0.00000000000E+00 -0.00000000000E+00 -0.18250000000E+03  0.18250000000E+03  0.00000000000E+00 0.  1.
        -11    1    1    2    0    0 -0.29363971934E+01 -0.14859830894E+02  0.17600281698E+03  0.17665341375E+03  0.00000000000E+00 0. -1.
         11    1    1    2    0    0 -0.13684760308E+00  0.21040987463E+01 -0.58057408675E+02  0.58095685390E+02  0.00000000000E+00 0.  1.
        -15    1    1    2    0    0 -0.20480786039E+01 -0.45202842534E+01 -0.11057689744E+03  0.11070246416E+03  0.17770000000E+01 0. -1.
         15    1    1    2    0    0  0.51213234003E+01  0.17276016401E+02 -0.73685108679E+01  0.19548436702E+02  0.17770000000E+01 0.  1.
</event>
<event>
 6    1  0.1298204E-002  0.1853030E+03  0.7546771E-02  0.1066245E+00
        -11   -1    0    0    0    0  0.00000000000E+00  0.00000000000E+00  0.18250000000E+03  0.18250000000E+03  0.00000000000E+00 0.  1.
         11   -1    0    0    0    0 -0.00000000000E+00 -0.00000000000E+00 -0.18250000000E+03  0.18250000000E+03  0.00000000000E+00 0. -1.
        -11    1    1    2    0    0  0.23410000099E+01 -0.26535363151E+01  0.17452813244E+03  0.17456400130E+03  0.00000000000E+00 0.  1.
         11    1    1    2    0    0 -0.30534087507E+00 -0.41548477814E+01 -0.17964871787E+03  0.17969701674E+03  0.00000000000E+00 0. -1.
        -15    1    1    2    0    0  0.44660907631E+00  0.10648269982E+01  0.34074755564E+01  0.40127216288E+01  0.17770000000E+01 0. -1.
         15    1    1    2    0    0 -0.24822682112E+01  0.57435570983E+01  0.17131098774E+01  0.67262603329E+01  0.17770000000E+01 0. -1.
</event>
<event>
 6    1  0.1298204E-002  0.1877607E+03  0.7546771E-02  0.1064343E+00
        -11   -1    0    0    0    0  0.00000000000E+00  0.00000000000E+00  0.18250000000E+03  0.18250000000E+03  0.00000000000E+00 0. -1.
         11   -1    0    0    0    0 -0.00000000000E+00 -0.00000000000E+00 -0.18250000000E+03  0.18250000000E+03  0.00000000000E+00 0. -1.
        -11    1    1    2    0    0  0.55705870283E+01 -0.24023076383E+01  0.17713545601E+03  0.17723930800E+03  0.00000000000E+00 0. -1.
         11    1    1    2    0    0 -0.68153777849E+01  0.66696196598E+01 -0.15103597990E+03  0.15133671209E+03  0.00000000000E+00 0. -1.
        -15    1    1    2    0    0 -0.21362297113E+01  0.38907954774E+01  0.32117787418E+01  0.57597759082E+01  0.17770000000E+01 0. -1.
         15    1    1    2    0    0  0.33810204679E+01 -0.81581074989E+01 -0.29311254851E+02  0.30664204005E+02  0.17770000000E+01 0.  1.
</event>
<event>
 6    1  0.1298204E-002  0.1828013E+03  0.7546771E-02  0.1068215E+00
        -11   -1    0    0    0    0  0.00000000000E+00  0.00000000000E+00  0.18250000000E+03  0.18250000000E+03  0.00000000000E+00 0. -1.
         11   -1    0    0    0    0 -0.00000000000E+00 -0.00000000000E+00 -0.18250000000E+03  0.18250000000E+03  0.00000000000E+00 0.  1.
        -11    1    1    2    0    0 -0.58147126483E+00  0.36725237990E+01  0.18216074633E+03  0.18219869111E+03  0.00000000000E+00 0. -1.
         11    1    1    2    0    0  0.23160623855E+01  0.88651794905E+00 -0.13790246690E+03  0.13792476368E+03  0.00000000000E+00 0.  1.
        -15    1    1    2    0    0 -0.29192811435E+01 -0.24818699765E+01 -0.20375879279E+02  0.20809038094E+02  0.17770000000E+01 0.  1.
         15    1    1    2    0    0  0.11846900228E+01 -0.20771717715E+01 -0.23882400150E+02  0.24067507119E+02  0.17770000000E+01 0. -1.
</event>
<event>
 6    1  0.1298204E-002  0.1833983E+03  0.7546771E-02  0.1067742E+00
        -11   -1    0    0    0    0  0.00000000000E+00  0.00000000000E+00  0.18250000000E+03  0.18250000000E+03  0.00000000000E+00 0. -1.
         11   -1    0    0    0    0 -0.00000000000E+00 -0.00000000000E+00 -0.18250000000E+03  0.18250000000E+03  0.00000000000E+00 0.  1.
        -11    1    1    2    0    0  0.59409542241E+00 -0.20179662651E+01  0.58324639417E+02  0.58362562489E+02  0.00000000000E+00 0. -1.
         11    1    1    2    0    0 -0.62672781972E+01 -0.58638857785E+01 -0.18139878250E+03  0.18160171317E+03  0.00000000000E+00 0.  1.
        -15    1    1    2    0    0 -0.31987346882E+01 -0.11323584235E+01  0.80402280835E+02  0.80493469497E+02  0.17770000000E+01 0. -1.
         15    1    1    2    0    0  0.88719174630E+01  0.90142104671E+01  0.42671862250E+02  0.44542254845E+02  0.17770000000E+01 0.  1.
</event>
<event>
 6    1  0.1298204E-002  0.1835736E+03  0.7546771E-02  0.1067603E+00
        -11   -1    0    0    0    0  0.00000000000E+00  0.00000000000E+00  0.18250000000E+03  0.18250000000E+03  0.00000000000E+00 0.  1.
         11   -1    0    0    0    0 -0.00000000000E+00 -0.00000000000E+00 -0.18250000000E+03  0.18250000000E+03  0.00000000000E+00 0. -1.
        -11    1    1    2    0    0 -0.48278129664E+01 -0.31721221539E+01  0.84991388281E+02  0.85187476890E+02  0.00000000000E+00 0.  1.
         11    1    1    2    0    0 -0.27995755264E-01 -0.41830417541E+01 -0.18137821683E+03  0.18142644835E+03  0.00000000000E+00 0. -1.
        -15    1    1    2    0    0  0.67622741325E+01 -0.47599731077E+00  0.14718377769E+02  0.16301634827E+02  0.17770000000E+01 0. -1.
         15    1    1    2    0    0 -0.19064654108E+01  0.78311612187E+01  0.81668450780E+02  0.82084439927E+02  0.17770000000E+01 0.  1.
</event>
<event>
 6    1  0.1298204E-002  0.1860307E+03  0.7546771E-02  0.1065679E+00
        -11   -1    0    0    0    0  0.00000000000E+00  0.00000000000E+00  0.18250000000E+03  0.18250000000E+03  0.00000000000E+00 0.  1.
         11   -1    0    0    0    0 -0.00000000000E+00 -0.00000000000E+00 -0.18250000000E+03  0.18250000000E+03  0.00000000000E+00 0.  1.
        -11    1    1    2    0    0 -0.60438982364E+01 -0.64559547900E+01  0.15710951223E+03  0.15735821203E+03  0.00000000000E+00 0.  1.
         11    1    1    2    0    0  0.20921718921E+01 -0.36880186104E+01 -0.17891910199E+03  0.17896933738E+03  0.00000000000E+00 0.  1.
        -15    1    1    2    0    0  0.59636211132E+01  0.11414749411E+02  0.22149606319E+02  0.25683147587E+02  0.17770000000E+01 0. -1.
         15    1    1    2    0    0 -0.20118947689E+01 -0.12707760106E+01 -0.34001656380E+00  0.29893030114E+01  0.17770000000E+01 0.  1.
</event>
<event>
 6    1  0.1298204E-002  0.1952422E+03  0.7546771E-02  0.1058741E+00
        -11   -1    0    0    0    0  0.00000000000E+00  0.00000000000E+00  0.18250000000E+03  0.18250000000E+03  0.00000000000E+00 0. -1.
         11   -1    0    0    0    0 -0.00000000000E+00 -0.00000000000E+00 -0.18250000000E+03  0.18250000000E+03  0.00000000000E+00 0. -1.
        -11    1    1    2    0    0 -0.25669061841E+01 -0.40406921926E+01  0.16549373014E+03  0.16556295152E+03  0.00000000000E+00 0. -1.
         11    1    1    2    0    0  0.74088539189E+01  0.82179120861E+00 -0.16959404936E+03  0.16975779227E+03  0.00000000000E+00 0. -1.
        -15    1    1    2    0    0 -0.86260513661E+01 -0.10107635051E+02  0.74207194251E+01  0.15323115032E+02  0.17770000000E+01 0.  1.
         15    1    1    2    0    0  0.37841036313E+01  0.13326536035E+02 -0.33204002038E+01  0.14356141177E+02  0.17770000000E+01 0. -1.
</event>
<event>
 6    1  0.1298204E-002  0.2026172E+03  0.7546771E-02  0.1053481E+00
        -11   -1    0    0    0    0  0.00000000000E+00  0.00000000000E+00  0.18250000000E+03  0.18250000000E+03  0.00000000000E+00 0.  1.
         11   -1    0    0    0    0 -0.00000000000E+00 -0.00000000000E+00 -0.18250000000E+03  0.18250000000E+03  0.00000000000E+00 0. -1.
        -11    1    1    2    0    0 -0.33916508592E+01  0.18558051009E+01  0.50766669687E+02  0.50913672616E+02  0.00000000000E+00 0.  1.
         11    1    1    2    0    0 -0.33355082360E+01  0.21589548054E+01 -0.16233415636E+03  0.16238277317E+03  0.00000000000E+00 0. -1.
        -15    1    1    2    0    0  0.13375399074E+02  0.33651486661E+01  0.12997228960E+03  0.13071411293E+03  0.17770000000E+01 0.  1.
         15    1    1    2    0    0 -0.66482399789E+01 -0.73799085724E+01 -0.18404802934E+02  0.20989441283E+02  0.17770000000E+01 0. -1.
</event>
<event>
 6    1  0.1298204E-002  0.1838775E+03  0.7546771E-02  0.1067364E+00
        -11   -1    0    0    0    0  0.00000000000E+00  0.00000000000E+00  0.18250000000E+03  0.18250000000E+03  0.00000000000E+00 0.  1.
         11   -1    0    0    0    0 -0.00000000000E+00 -0.00000000000E+00 -0.18250000000E+03  0.18250000000E+03  0.00000000000E+00 0. -1.
        -11    1    1    2    0    0  0.70942343539E+00 -0.37994363026E+01  0.18108124102E+03  0.18112248576E+03  0.00000000000E+00 0.  1.
         11    1    1    2    0    0 -0.21995416704E+01 -0.10558929938E+01 -0.17281718843E+03  0.17283441066E+03  0.00000000000E+00 0. -1.
        -15    1    1    2    0    0  0.17056274625E+01  0.90339160245E+00 -0.48815657839E+01  0.55419035476E+01  0.17770000000E+01 0. -1.
         15    1    1    2    0    0 -0.21550922751E+00  0.39519376940E+01 -0.33824868115E+01  0.55012000322E+01  0.17770000000E+01 0. -1.
</event>
<event>
 6    1  0.1298204E-002  0.1761558E+03  0.7546771E-02  0.1073620E+00
        -11   -1    0    0    0    0  0.00000000000E+00  0.00000000000E+00  0.18250000000E+03  0.18250000000E+03  0.00000000000E+00 0.  1.
         11   -1    0    0    0    0 -0.00000000000E+00 -0.00000000000E+00 -0.18250000000E+03  0.18250000000E+03  0.00000000000E+00 0.  1.
        -11    1    1    2    0    0 -0.56297247445E+01 -0.62342735005E+00  0.17758580067E+03  0.17767610718E+03  0.00000000000E+00 0.  1.
         11    1    1    2    0    0  0.15805568791E+01 -0.27781073358E+01 -0.17465800531E+03  0.17468724870E+03  0.00000000000E+00 0.  1.
        -15    1    1    2    0    0 -0.72858569059E+00  0.26551060529E+01 -0.58561800906E+01  0.67106631204E+01  0.17770000000E+01 0. -1.
         15    1    1    2    0    0  0.47777535560E+01  0.74642863292E+00  0.29283847301E+01  0.59259810052E+01  0.17770000000E+01 0. -1.
</event>
<event>
 6    1  0.1298204E-002  0.1863124E+03  0.7546771E-02  0.1065460E+00
        -11   -1    0    0    0    0  0.00000000000E+00  0.00000000000E+00  0.18250000000E+03  0.18250000000E+03  0.00000000000E+00 0. -1.
         11   -1    0    0    0    0 -0.00000000000E+00 -0.00000000000E+00 -0.18250000000E+03  0.18250000000E+03  0.00000000000E+00 0.  1.
        -11    1    1    2    0    0  0.30003139046E+01 -0.59783577742E+00  0.17484863324E+03  0.17487539518E+03  0.00000000000E+00 0. -1.
         11    1    1    2    0    0 -0.41555386434E+01  0.21932227690E+01 -0.17862583401E+03  0.17868762493E+03  0.00000000000E+00 0.  1.
        -15    1    1    2    0    0 -0.11116925627E+01 -0.19280483461E+01  0.67243627395E+01  0.73026032366E+01  0.17770000000E+01 0. -1.
         15    1    1    2    0    0  0.22669173015E+01  0.33266135452E+00 -0.29471619698E+01  0.41343766526E+01  0.17770000000E+01 0.  1.
</event>
<event>
 6    1  0.1298204E-002  0.1831669E+03  0.7546771E-02  0.1067925E+00
        -11   -1    0    0    0    0  0.00000000000E+00  0.00000000000E+00  0.18250000000E+03  0.18250000000E+03  0.00000000000E+00 0. -1.
         11   -1    0    0    0    0 -0.00000000000E+00 -0.00000000000E+00 -0.18250000000E+03  0.18250000000E+03  0.00000000000E+00 0. -1.
        -11    1    1    2    0    0  0.10764186277E+01  0.24782049144E+01  0.18181302277E+03  0.18183309771E+03  0.00000000000E+00 0. -1.
         11    1    1    2    0    0 -0.26756093355E+01  0.14087338564E+01 -0.13129379904E+03  0.13132861487E+03  0.00000000000E+00 0. -1.
        -15    1    1    2    0    0  0.25825974536E+01 -0.13595695087E+01 -0.46715131263E+02  0.46839934423E+02  0.17770000000E+01 0.  1.
         15    1    1    2    0    0 -0.98340674578E+00 -0.25273692621E+01 -0.38040924583E+01  0.49983529933E+01  0.17770000000E+01 0. -1.
</event>
<event>
 6    1  0.1298204E-002  0.1854012E+03  0.7546771E-02  0.1066169E+00
        -11   -1    0    0    0    0  0.00000000000E+00  0.00000000000E+00  0.18250000000E+03  0.18250000000E+03  0.00000000000E+00 0. -1.
         11   -1    0    0    0    0 -0.00000000000E+00 -0.00000000000E+00 -0.18250000000E+03  0.18250000000E+03  0.00000000000E+00 0. -1.
        -11    1    1    2    0    0  0.10845705164E+01  0.24236223901E+01  0.17514497051E+03  0.17516509622E+03  0.00000000000E+00 0. -1.
         11    1    1    2    0    0 -0.32956646784E+00 -0.32669507211E+01 -0.17956876694E+03  0.17959878518E+03  0.00000000000E+00 0. -1.
        -15    1    1    2    0    0  0.10581574528E+01 -0.26808079708E+01 -0.76315761795E+00  0.34708164920E+01  0.17770000000E+01 0. -1.
         15    1    1    2    0    0 -0.18131615014E+01  0.35241363018E+01  0.51869540409E+01  0.67653021016E+01  0.17770000000E+01 0.  1.
</event>
<event>
 6    1  0.1298204E-002  0.1842679E+03  0.7546771E-02  0.1067056E+00
        -11   -1    0    0    0    0  0.00000000000E+00  0.00000000000E+00  0.18250000000E+03  0.18250000000E+03  0.00000000000E+00 0. -1.
         11   -1    0    0    0    0 -0.00000000000E+00 -0.00000000000E+00 -0.18250000000E+03  0.18250000000E+03  0.00000000000E+00 0. -1.
        -11    1    1    2    0    0  0.48106475675E+01 -0.68439957052E+00  0.10916003155E+03  0.10926812536E+03  0.00000000000E+00 0. -1.
         11    1    1    2    0    0 -0.10025542874E+01 -0.25670565795E+01 -0.18071108666E+03  0.18073209935E+03  0.00000000000E+00 0. -1.
        -15    1    1    2    0    0  0.19893657562E+00  0.43526451851E+01  0.70093066868E+02  0.70250842329E+02  0.17770000000E+01 0. -1.
         15    1    1    2    0    0 -0.40070298558E+01 -0.11011890351E+01  0.14579882385E+01  0.47489329601E+01  0.17770000000E+01 0.  1.
</event>
<event>
 6    1  0.1298204E-002  0.1860234E+03  0.7546771E-02  0.1065684E+00
        -11   -1    0    0    0    0  0.00000000000E+00  0.00000000000E+00  0.18250000000E+03  0.18250000000E+03  0.00000000000E+00 0.  1.
         11   -1    0    0    0    0 -0.00000000000E+00 -0.00000000000E+00 -0.18250000000E+03  0.18250000000E+03  0.00000000000E+00 0.  1.
        -11    1    1    2    0    0  0.21292024248E+01 -0.43146538516E+01  0.16311571088E+03  0.16318665655E+03  0.00000000000E+00 0.  1.
         11    1    1    2    0    0 -0.41857295517E+01  0.15961956873E+01 -0.17892052093E+03  0.17897659340E+03  0.00000000000E+00 0.  1.
        -15    1    1    2    0    0 -0.51701366292E-01  0.30173841586E+01  0.18583626584E+02  0.18910742614E+02  0.17770000000E+01 0.  1.
         15    1    1    2    0    0  0.21082284932E+01 -0.29892599432E+00 -0.27788165264E+01  0.39260074397E+01  0.17770000000E+01 0.  1.
</event>
<event>
 6    1  0.1298204E-002  0.1848136E+03  0.7546771E-02  0.1066628E+00
        -11   -1    0    0    0    0  0.00000000000E+00  0.00000000000E+00  0.18250000000E+03  0.18250000000E+03  0.00000000000E+00 0.  1.
         11   -1    0    0    0    0 -0.00000000000E+00 -0.00000000000E+00 -0.18250000000E+03  0.18250000000E+03  0.00000000000E+00 0.  1.
        -11    1    1    2    0    0 -0.27816730372E+01  0.49777293926E+00  0.15466021168E+03  0.15468602575E+03  0.00000000000E+00 0.  1.
         11    1    1    2    0    0  0.56648989972E+01 -0.42619590024E+00 -0.18009682952E+03  0.18018640550E+03  0.00000000000E+00 0.  1.
        -15    1    1    2    0    0 -0.61800138585E+01 -0.32849715202E+01  0.42606060088E+01  0.83841577837E+01  0.17770000000E+01 0.  1.
         15    1    1    2    0    0  0.32967878985E+01  0.32133944812E+01  0.21176011829E+02  0.21743410968E+02  0.17770000000E+01 0. -1.
</event>
<event>
 6    1  0.1298204E-002  0.1826605E+03  0.7546771E-02  0.1068327E+00
        -11   -1    0    0    0    0  0.00000000000E+00  0.00000000000E+00  0.18250000000E+03  0.18250000000E+03  0.00000000000E+00 0.  1.
         11   -1    0    0    0    0 -0.00000000000E+00 -0.00000000000E+00 -0.18250000000E+03  0.18250000000E+03  0.00000000000E+00 0. -1.
        -11    1    1    2    0    0  0.33797086130E+01  0.39963315875E+01  0.18226435022E+03  0.18233948135E+03  0.00000000000E+00 0.  1.
         11    1    1    2    0    0 -0.15226829943E+00 -0.21886051121E+01 -0.68884775867E+02  0.68919703454E+02  0.00000000000E+00 0. -1.
        -15    1    1    2    0    0 -0.17450197679E+00  0.87934747235E+00 -0.84389030564E+02  0.84412498550E+02  0.17770000000E+01 0. -1.
         15    1    1    2    0    0 -0.30529383368E+01 -0.26870739477E+01 -0.28990543793E+02  0.29328316646E+02  0.17770000000E+01 0.  1.
</event>
<event>
 6    1  0.1298204E-002  0.1827977E+03  0.7546771E-02  0.1068218E+00
        -11   -1    0    0    0    0  0.00000000000E+00  0.00000000000E+00  0.18250000000E+03  0.18250000000E+03  0.00000000000E+00 0.  1.
         11   -1    0    0    0    0 -0.00000000000E+00 -0.00000000000E+00 -0.18250000000E+03  0.18250000000E+03  0.00000000000E+00 0. -1.
        -11    1    1    2    0    0 -0.16887878740E+01 -0.40897393818E+00  0.86179545890E+02  0.86197061400E+02  0.00000000000E+00 0.  1.
         11    1    1    2    0    0 -0.33635200401E+01 -0.95782510872E+00 -0.18216868867E+03  0.18220225528E+03  0.00000000000E+00 0. -1.
        -15    1    1    2    0    0  0.31202854613E+01  0.31826972661E+00  0.88838793165E+02  0.88911902336E+02  0.17770000000E+01 0.  1.
         15    1    1    2    0    0  0.19320224528E+01  0.10485293203E+01  0.71503496131E+01  0.76887809881E+01  0.17770000000E+01 0. -1.
</event>
<event>
 6    1  0.1298204E-002  0.1871751E+03  0.7546771E-02  0.1064793E+00
        -11   -1    0    0    0    0  0.00000000000E+00  0.00000000000E+00  0.18250000000E+03  0.18250000000E+03  0.00000000000E+00 0.  1.
         11   -1    0    0    0    0 -0.00000000000E+00 -0.00000000000E+00 -0.18250000000E+03  0.18250000000E+03  0.00000000000E+00 0. -1.
        -11    1    1    2    0    0  0.16783729406E+01  0.16776900743E+01  0.15898071168E+03  0.15899842221E+03  0.00000000000E+00 0.  1.
         11    1    1    2    0    0 -0.55119963316E+01 -0.65018674762E+01 -0.17762051235E+03  0.17782492174E+03  0.00000000000E+00 0. -1.
        -15    1    1    2    0    0 -0.36821129069E+01  0.50425637148E+01 -0.14506101809E+01  0.66518721556E+01  0.17770000000E+01 0.  1.
         15    1    1    2    0    0  0.75157362979E+01 -0.21838631289E+00  0.20090410849E+02  0.21524783895E+02  0.17770000000E+01 0. -1.
</event>
<event>
 6    1  0.1298204E-002  0.1831056E+03  0.7546771E-02  0.1067974E+00
        -11   -1    0    0    0    0  0.00000000000E+00  0.00000000000E+00  0.18250000000E+03  0.18250000000E+03  0.00000000000E+00 0. -1.
         11   -1    0    0    0    0 -0.00000000000E+00 -0.00000000000E+00 -0.18250000000E+03  0.18250000000E+03  0.00000000000E+00 0. -1.
        -11    1    1    2    0    0 -0.18232199779E+01 -0.28165167401E+01  0.18186346169E+03  0.18189440782E+03  0.00000000000E+00 0. -1.
         11    1    1    2    0    0 -0.24336315747E+01  0.19428719281E+01 -0.13547699785E+03  0.13551278265E+03  0.00000000000E+00 0. -1.
        -15    1    1    2    0    0  0.24404355570E+01 -0.69729595614E+00 -0.42856505731E+02  0.42968357658E+02  0.17770000000E+01 0. -1.
         15    1    1    2    0    0  0.18164159957E+01  0.15709407682E+01 -0.35299581058E+01  0.46244518805E+01  0.17770000000E+01 0. -1.
</event>
<event>
 6    1  0.1298204E-002  0.1861857E+03  0.7546771E-02  0.1065558E+00
        -11   -1    0    0    0    0  0.00000000000E+00  0.00000000000E+00  0.18250000000E+03  0.18250000000E+03  0.00000000000E+00 0.  1.
         11   -1    0    0    0    0 -0.00000000000E+00 -0.00000000000E+00 -0.18250000000E+03  0.18250000000E+03  0.00000000000E+00 0.  1.
        -11    1    1    2    0    0 -0.16322203055E+01  0.33047007100E+01  0.17877631442E+03  0.17881430532E+03  0.00000000000E+00 0.  1.
         11    1    1    2    0    0  0.16194497636E+01  0.81818537723E+01 -0.13615111861E+03  0.13640635046E+03  0.00000000000E+00 0.  1.
        -15    1    1    2    0    0 -0.29285148975E+01 -0.98586130078E+01 -0.44380552440E+02  0.45591222991E+02  0.17770000000E+01 0.  1.
         15    1    1    2    0    0  0.29412854394E+01 -0.16279414746E+01  0.17553566244E+01  0.41881212207E+01  0.17770000000E+01 0. -1.
</event>
<event>
 6    1  0.1298204E-002  0.1851186E+03  0.7546771E-02  0.1066389E+00
        -11   -1    0    0    0    0  0.00000000000E+00  0.00000000000E+00  0.18250000000E+03  0.18250000000E+03  0.00000000000E+00 0. -1.
         11   -1    0    0    0    0 -0.00000000000E+00 -0.00000000000E+00 -0.18250000000E+03  0.18250000000E+03  0.00000000000E+00 0.  1.
        -11    1    1    2    0    0  0.23513877829E+01  0.15417969411E+01  0.17985940275E+03  0.17988138014E+03  0.00000000000E+00 0. -1.
         11    1    1    2    0    0 -0.36381517584E+01 -0.15054723938E+01 -0.16950833039E+03  0.16955405234E+03  0.00000000000E+00 0.  1.
        -15    1    1    2    0    0  0.63438923748E+00 -0.35209750893E+01 -0.10855342818E+02  0.11567018284E+02  0.17770000000E+01 0.  1.
         15    1    1    2    0    0  0.65237473801E+00  0.34846505420E+01  0.50427045504E+00  0.39975492356E+01  0.17770000000E+01 0.  1.
</event>
<event>
 6    1  0.1298204E-002  0.1844766E+03  0.7546771E-02  0.1066892E+00
        -11   -1    0    0    0    0  0.00000000000E+00  0.00000000000E+00  0.18250000000E+03  0.18250000000E+03  0.00000000000E+00 0. -1.
         11   -1    0    0    0    0 -0.00000000000E+00 -0.00000000000E+00 -0.18250000000E+03  0.18250000000E+03  0.00000000000E+00 0. -1.
        -11    1    1    2    0    0  0.15100672037E+02  0.46207653009E+00  0.17989013633E+03  0.18052341942E+03  0.00000000000E+00 0. -1.
         11    1    1    2    0    0 -0.21773236742E+01 -0.10882391982E+01 -0.12989935577E+03  0.12992215990E+03  0.00000000000E+00 0. -1.
        -15    1    1    2    0    0 -0.12482942731E+02  0.95223526386E+00 -0.15454987966E+02  0.19968600183E+02  0.17770000000E+01 0.  1.
         15    1    1    2    0    0 -0.44040563116E+00 -0.32607259572E+00 -0.34535792592E+02  0.34585820497E+02  0.17770000000E+01 0. -1.
</event>
<event>
 6    1  0.1298204E-002  0.1825349E+03  0.7546771E-02  0.1068427E+00
        -11   -1    0    0    0    0  0.00000000000E+00  0.00000000000E+00  0.18250000000E+03  0.18250000000E+03  0.00000000000E+00 0. -1.
         11   -1    0    0    0    0 -0.00000000000E+00 -0.00000000000E+00 -0.18250000000E+03  0.18250000000E+03  0.00000000000E+00 0. -1.
        -11    1    1    2    0    0 -0.37727364742E-01  0.27021612079E+01  0.18244512413E+03  0.18246513754E+03  0.00000000000E+00 0. -1.
         11    1    1    2    0    0 -0.30024744129E+00 -0.88519506675E+00 -0.25643566927E+02  0.25660597101E+02  0.00000000000E+00 0. -1.
        -15    1    1    2    0    0  0.12424962561E+01 -0.84467265926E+00 -0.56043220396E+02  0.56091510500E+02  0.17770000000E+01 0.  1.
         15    1    1    2    0    0 -0.90452145006E+00 -0.97229348186E+00 -0.10075833680E+03  0.10078275486E+03  0.17770000000E+01 0. -1.
</event>
<event>
 6    1  0.1298204E-002  0.1885689E+03  0.7546771E-02  0.1063724E+00
        -11   -1    0    0    0    0  0.00000000000E+00  0.00000000000E+00  0.18250000000E+03  0.18250000000E+03  0.00000000000E+00 0. -1.
         11   -1    0    0    0    0 -0.00000000000E+00 -0.00000000000E+00 -0.18250000000E+03  0.18250000000E+03  0.00000000000E+00 0.  1.
        -11    1    1    2    0    0  0.20427157869E+01  0.48541662531E+01  0.17635248794E+03  0.17643110729E+03  0.00000000000E+00 0. -1.
         11    1    1    2    0    0  0.85914221621E+00  0.54049049604E+01 -0.16787796705E+03  0.16796714841E+03  0.00000000000E+00 0.  1.
        -15    1    1    2    0    0 -0.40764821336E+01 -0.77897268100E+01 -0.12522519125E+02  0.15403530913E+02  0.17770000000E+01 0.  1.
         15    1    1    2    0    0  0.11746241305E+01 -0.24693444035E+01  0.40479982382E+01  0.51982133823E+01  0.17770000000E+01 0. -1.
</event>
<event>
 6    1  0.1298204E-002  0.1880272E+03  0.7546771E-02  0.1064138E+00
        -11   -1    0    0    0    0  0.00000000000E+00  0.00000000000E+00  0.18250000000E+03  0.18250000000E+03  0.00000000000E+00 0. -1.
         11   -1    0    0    0    0 -0.00000000000E+00 -0.00000000000E+00 -0.18250000000E+03  0.18250000000E+03  0.00000000000E+00 0. -1.
        -11    1    1    2    0    0  0.12653129549E+01  0.33623646105E+01  0.17693629325E+03  0.17697276170E+03  0.00000000000E+00 0. -1.
         11    1    1    2    0    0 -0.68672806606E+01  0.26942198161E+01 -0.16435871640E+03  0.16452418065E+03  0.00000000000E+00 0. -1.
        -15    1    1    2    0    0  0.43983116506E+01 -0.12171591665E+02 -0.63885128325E+01  0.14541788551E+02  0.17770000000E+01 0.  1.
         15    1    1    2    0    0  0.12036560551E+01  0.61150072389E+01 -0.61890640210E+01  0.89612691002E+01  0.17770000000E+01 0. -1.
</event>
<event>
 6    1  0.1298204E-002  0.1756814E+03  0.7546771E-02  0.1074016E+00
        -11   -1    0    0    0    0  0.00000000000E+00  0.00000000000E+00  0.18250000000E+03  0.18250000000E+03  0.00000000000E+00 0.  1.
         11   -1    0    0    0    0 -0.00000000000E+00 -0.00000000000E+00 -0.18250000000E+03  0.18250000000E+03  0.00000000000E+00 0. -1.
        -11    1    1    2    0    0  0.29315244218E+01  0.79884201478E+01  0.17687877979E+03  0.17708334600E+03  0.00000000000E+00 0.  1.
         11    1    1    2    0    0 -0.36233556207E+01 -0.25913149968E+01 -0.17427433785E+03  0.17433126068E+03  0.00000000000E+00 0. -1.
        -15    1    1    2    0    0  0.87733219558E+00  0.22338198451E+01 -0.46126510157E+01  0.54949013889E+01  0.17770000000E+01 0.  1.
         15    1    1    2    0    0 -0.18550099671E+00 -0.76309249961E+01  0.20082090712E+01  0.80904919251E+01  0.17770000000E+01 0. -1.
</event>
<event>
 6    1  0.1298204E-002  0.1856075E+03  0.7546771E-02  0.1066008E+00
        -11   -1    0    0    0    0  0.00000000000E+00  0.00000000000E+00  0.18250000000E+03  0.18250000000E+03  0.00000000000E+00 0. -1.
         11   -1    0    0    0    0 -0.00000000000E+00 -0.00000000000E+00 -0.18250000000E+03  0.18250000000E+03  0.00000000000E+00 0.  1.
        -11    1    1    2    0    0  0.65541534030E+00  0.35900695347E+01  0.17935535423E+03  0.17939247827E+03  0.00000000000E+00 0. -1.
         11    1    1    2    0    0  0.34680012690E+01 -0.26724573769E+01 -0.17167486414E+03  0.17173068462E+03  0.00000000000E+00 0.  1.
        -15    1    1    2    0    0  0.10093710479E+00  0.17830817136E+01 -0.81559172459E+01  0.85361750110E+01  0.17770000000E+01 0. -1.
         15    1    1    2    0    0 -0.42243537141E+01 -0.27006938714E+01  0.47542715076E+00  0.53406620998E+01  0.17770000000E+01 0.  1.
</event>
<event>
 6    1  0.1298204E-002  0.1825872E+03  0.7546771E-02  0.1068385E+00
        -11   -1    0    0    0    0  0.00000000000E+00  0.00000000000E+00  0.18250000000E+03  0.18250000000E+03  0.00000000000E+00 0. -1.
         11   -1    0    0    0    0 -0.00000000000E+00 -0.00000000000E+00 -0.18250000000E+03  0.18250000000E+03  0.00000000000E+00 0.  1.
        -11    1    1    2    0    0 -0.30949216682E+01 -0.15471557635E+01  0.18237996998E+03  0.18241278924E+03  0.00000000000E+00 0. -1.
         11    1    1    2    0    0  0.17319700284E+01 -0.71145144949E-01 -0.77894247592E+02  0.77913532777E+02  0.00000000000E+00 0.  1.
        -15    1    1    2    0    0  0.72438117321E+00  0.31768030531E+01 -0.53011835384E+02  0.53141596000E+02  0.17770000000E+01 0. -1.
         15    1    1    2    0    0  0.63857046651E+00 -0.15585021446E+01 -0.51473887001E+02  0.51532081979E+02  0.17770000000E+01 0.  1.
</event>
<event>
 6    1  0.1298204E-002  0.2047696E+03  0.7546771E-02  0.1051992E+00
        -11   -1    0    0    0    0  0.00000000000E+00  0.00000000000E+00  0.18250000000E+03  0.18250000000E+03  0.00000000000E+00 0. -1.
         11   -1    0    0    0    0 -0.00000000000E+00 -0.00000000000E+00 -0.18250000000E+03  0.18250000000E+03  0.00000000000E+00 0.  1.
        -11    1    1    2    0    0 -0.47106940648E+01  0.91129168887E+01  0.15990167434E+03  0.16023040082E+03  0.00000000000E+00 0. -1.
         11    1    1    2    0    0 -0.20615252657E+01 -0.14565258659E+01 -0.92988019706E+02  0.93022272402E+02  0.00000000000E+00 0.  1.
        -15    1    1    2    0    0  0.37600619560E+01 -0.69897444698E+01  0.21642135594E+02  0.23119999042E+02  0.17770000000E+01 0. -1.
         15    1    1    2    0    0  0.30121573745E+01 -0.66664655295E+00 -0.88555790223E+02  0.88627327731E+02  0.17770000000E+01 0. -1.
</event>
<event>
 6    1  0.1298204E-002  0.1829563E+03  0.7546771E-02  0.1068092E+00
        -11   -1    0    0    0    0  0.00000000000E+00  0.00000000000E+00  0.18250000000E+03  0.18250000000E+03  0.00000000000E+00 0. -1.
         11   -1    0    0    0    0 -0.00000000000E+00 -0.00000000000E+00 -0.18250000000E+03  0.18250000000E+03  0.00000000000E+00 0.  1.
        -11    1    1    2    0    0  0.16320921731E+01  0.58803002225E+00  0.52218218555E+02  0.52247027219E+02  0.00000000000E+00 0. -1.
         11    1    1    2    0    0 -0.92322576335E+00  0.30979785445E+01 -0.18201495197E+03  0.18204365564E+03  0.00000000000E+00 0.  1.
        -15    1    1    2    0    0 -0.12527670205E+01 -0.17525617250E+01  0.39689378632E+01  0.48529469984E+01  0.17770000000E+01 0.  1.
         15    1    1    2    0    0  0.54390061071E+00 -0.19334468417E+01  0.12582779555E+03  0.12585637015E+03  0.17770000000E+01 0. -1.
</event>
<event>
 6    1  0.1298204E-002  0.1878363E+03  0.7546771E-02  0.1064285E+00
        -11   -1    0    0    0    0  0.00000000000E+00  0.00000000000E+00  0.18250000000E+03  0.18250000000E+03  0.00000000000E+00 0. -1.
         11   -1    0    0    0    0 -0.00000000000E+00 -0.00000000000E+00 -0.18250000000E+03  0.18250000000E+03  0.00000000000E+00 0. -1.
        -11    1    1    2    0    0 -0.40545714536E+01  0.37802270565E+01  0.14454547561E+03  0.14465173413E+03  0.00000000000E+00 0. -1.
         11    1    1    2    0    0 -0.18171678846E+01  0.28450570977E+01 -0.17713158024E+03  0.17716374677E+03  0.00000000000E+00 0. -1.
        -15    1    1    2    0    0  0.65844695616E+01 -0.33175600709E+01 -0.24273341150E+01  0.79631102051E+01  0.17770000000E+01 0.  1.
         15    1    1    2    0    0 -0.71273022348E+00 -0.33077240832E+01  0.35013438748E+02  0.35221408901E+02  0.17770000000E+01 0. -1.
</event>
<event>
 6    1  0.1298204E-002  0.1835058E+03  0.7546771E-02  0.1067657E+00
        -11   -1    0    0    0    0  0.00000000000E+00  0.00000000000E+00  0.18250000000E+03  0.18250000000E+03  0.00000000000E+00 0.  1.
         11   -1    0    0    0    0 -0.00000000000E+00 -0.00000000000E+00 -0.18250000000E+03  0.18250000000E+03  0.00000000000E+00 0.  1.
        -11    1    1    2    0    0  0.26702896338E+01 -0.75382789435E+01  0.18131794267E+03  0.18149422148E+03  0.00000000000E+00 0.  1.
         11    1    1    2    0    0 -0.16430339836E+01 -0.12868564600E+01 -0.14494913001E+03  0.14496415368E+03  0.00000000000E+00 0.  1.
        -15    1    1    2    0    0  0.28993916188E+01  0.36358154701E+01 -0.23395611894E+02  0.23919406573E+02  0.17770000000E+01 0. -1.
         15    1    1    2    0    0 -0.39266472690E+01  0.51893199334E+01 -0.12973200762E+02  0.14622218271E+02  0.17770000000E+01 0.  1.
</event>
<event>
 6    1  0.1298204E-002  0.1962104E+03  0.7546771E-02  0.1058037E+00
        -11   -1    0    0    0    0  0.00000000000E+00  0.00000000000E+00  0.18250000000E+03  0.18250000000E+03  0.00000000000E+00 0. -1.
         11   -1    0    0    0    0 -0.00000000000E+00 -0.00000000000E+00 -0.18250000000E+03  0.18250000000E+03  0.00000000000E+00 0. -1.
        -11    1    1    2    0    0  0.11415128567E+02 -0.76413548570E+01  0.16822967658E+03  0.16878957179E+03  0.00000000000E+00 0. -1.
         11    1    1    2    0    0  0.77905607262E+00  0.18398764589E+01 -0.83296403432E+02  0.83320363048E+02  0.00000000000E+00 0. -1.
        -15    1    1    2    0    0  0.13119926228E+01  0.56622715188E+01 -0.95472631184E+02  0.95665896105E+02  0.17770000000E+01 0. -1.
         15    1    1    2    0    0 -0.13506177262E+02  0.13920687927E+00  0.10539358035E+02  0.17224169053E+02  0.17770000000E+01 0.  1.
</event>
<event>
 6    1  0.1298204E-002  0.1831063E+03  0.7546771E-02  0.1067973E+00
        -11   -1    0    0    0    0  0.00000000000E+00  0.00000000000E+00  0.18250000000E+03  0.18250000000E+03  0.00000000000E+00 0. -1.
         11   -1    0    0    0    0 -0.00000000000E+00 -0.00000000000E+00 -0.18250000000E+03  0.18250000000E+03  0.00000000000E+00 0.  1.
        -11    1    1    2    0    0  0.25485956883E+01 -0.99367864758E+00  0.14526641300E+03  0.14529216594E+03  0.00000000000E+00 0. -1.
         11    1    1    2    0    0  0.29586986557E+01 -0.37427960797E-01 -0.18186967675E+03  0.18189374541E+03  0.00000000000E+00 0.  1.
        -15    1    1    2    0    0 -0.34187061479E+00  0.70571080258E+00  0.20266405936E+01  0.28071167325E+01  0.17770000000E+01 0. -1.
         15    1    1    2    0    0 -0.51654237292E+01  0.32539580580E+00  0.34576623155E+02  0.35006971913E+02  0.17770000000E+01 0.  1.
</event>
<event>
 6    1  0.1298204E-002  0.2067587E+03  0.7546771E-02  0.1050633E+00
        -11   -1    0    0    0    0  0.00000000000E+00  0.00000000000E+00  0.18250000000E+03  0.18250000000E+03  0.00000000000E+00 0.  1.
         11   -1    0    0    0    0 -0.00000000000E+00 -0.00000000000E+00 -0.18250000000E+03  0.18250000000E+03  0.00000000000E+00 0. -1.
        -11    1    1    2    0    0  0.39242767310E+01  0.22455900802E+02  0.12806004400E+03  0.13007321899E+03  0.00000000000E+00 0.  1.
         11    1    1    2    0    0  0.26789617656E+00 -0.29443924393E+01 -0.15821368720E+03  0.15824130950E+03  0.00000000000E+00 0. -1.
        -15    1    1    2    0    0  0.21563860368E+02  0.12863352175E+02 -0.48151518990E+00  0.25176486829E+02  0.17770000000E+01 0. -1.
         15    1    1    2    0    0 -0.25756033276E+02 -0.32374860538E+02  0.30635158383E+02  0.51508984683E+02  0.17770000000E+01 0.  1.
</event>
<event>
 6    1  0.1298204E-002  0.1834250E+03  0.7546771E-02  0.1067721E+00
        -11   -1    0    0    0    0  0.00000000000E+00  0.00000000000E+00  0.18250000000E+03  0.18250000000E+03  0.00000000000E+00 0.  1.
         11   -1    0    0    0    0 -0.00000000000E+00 -0.00000000000E+00 -0.18250000000E+03  0.18250000000E+03  0.00000000000E+00 0. -1.
        -11    1    1    2    0    0 -0.81861166883E+00  0.28947449506E+01  0.15796831569E+03  0.15799695705E+03  0.00000000000E+00 0.  1.
         11    1    1    2    0    0  0.18921750468E+01 -0.20536460031E+01 -0.18155350319E+03  0.18157497710E+03  0.00000000000E+00 0. -1.
        -15    1    1    2    0    0 -0.33394677621E+01  0.88665104040E+00  0.40728321783E+01  0.56288441046E+01  0.17770000000E+01 0. -1.
         15    1    1    2    0    0  0.22659043841E+01 -0.17277499880E+01  0.19512355320E+02  0.19799221748E+02  0.17770000000E+01 0.  1.
</event>
<event>
 6    1  0.1298204E-002  0.1884710E+03  0.7546771E-02  0.1063799E+00
        -11   -1    0    0    0    0  0.00000000000E+00  0.00000000000E+00  0.18250000000E+03  0.18250000000E+03  0.00000000000E+00 0.  1.
         11   -1    0    0    0    0 -0.00000000000E+00 -0.00000000000E+00 -0.18250000000E+03  0.18250000000E+03  0.00000000000E+00 0.  1.
        -11    1    1    2    0    0  0.41137397775E+01 -0.30154828972E+01  0.17234661383E+03  0.17242207310E+03  0.00000000000E+00 0.  1.
         11    1    1    2    0    0 -0.26230671924E+01 -0.23764627969E+01 -0.17649353814E+03  0.17652902612E+03  0.00000000000E+00 0.  1.
        -15    1    1    2    0    0  0.11811360498E+01  0.93078293125E+00 -0.49221195400E+01  0.54448534415E+01  0.17770000000E+01 0. -1.
         15    1    1    2    0    0 -0.26718086349E+01  0.44611627628E+01  0.90690438534E+01  0.10604047340E+02  0.17770000000E+01 0.  1.
</event>
<event>
 6    1  0.1298204E-002  0.1936137E+03  0.7546771E-02  0.1059937E+00
        -11   -1    0    0    0    0  0.00000000000E+00  0.00000000000E+00  0.18250000000E+03  0.18250000000E+03  0.00000000000E+00 0.  1.
         11   -1    0    0    0    0 -0.00000000000E+00 -0.00000000000E+00 -0.18250000000E+03  0.18250000000E+03  0.00000000000E+00 0. -1.
        -11    1    1    2    0    0 -0.12337151121E+02 -0.25752643584E+01 -0.12468654988E+02  0.17728639020E+02  0.00000000000E+00 0.  1.
         11    1    1    2    0    0  0.41827569444E+01 -0.35946822475E+00 -0.15360025598E+03  0.15365761715E+03  0.00000000000E+00 0. -1.
        -15    1    1    2    0    0  0.33411300738E+02 -0.25990974941E+02  0.29216280806E+02  0.51464498331E+02  0.17770000000E+01 0. -1.
         15    1    1    2    0    0 -0.25256906561E+02  0.28925707524E+02  0.13685263016E+03  0.14214924550E+03  0.17770000000E+01 0.  1.
</event>
<event>
 6    1  0.1298204E-002  0.1948156E+03  0.7546771E-02  0.1059053E+00
        -11   -1    0    0    0    0  0.00000000000E+00  0.00000000000E+00  0.18250000000E+03  0.18250000000E+03  0.00000000000E+00 0.  1.
         11   -1    0    0    0    0 -0.00000000000E+00 -0.00000000000E+00 -0.18250000000E+03  0.18250000000E+03  0.00000000000E+00 0.  1.
        -11    1    1    2    0    0 -0.52834903796E+01  0.32932197736E+01  0.17007046429E+03  0.17018438058E+03  0.00000000000E+00 0.  1.
         11    1    1    2    0    0 -0.20036592221E+02 -0.16188071602E+02 -0.10338695126E+03  0.10654754986E+03  0.00000000000E+00 0.  1.
        -15    1    1    2    0    0  0.31588446937E+01 -0.14750296311E+02 -0.43024114014E+02  0.45626545527E+02  0.17770000000E+01 0.  1.
         15    1    1    2    0    0  0.22161237907E+02  0.27645148140E+02 -0.23659399023E+02  0.42641524039E+02  0.17770000000E+01 0. -1.
</event>
<event>
 6    1  0.1298204E-002  0.1914278E+03  0.7546771E-02  0.1061562E+00
        -11   -1    0    0    0    0  0.00000000000E+00  0.00000000000E+00  0.18250000000E+03  0.18250000000E+03  0.00000000000E+00 0. -1.
         11   -1    0    0    0    0 -0.00000000000E+00 -0.00000000000E+00 -0.18250000000E+03  0.18250000000E+03  0.00000000000E+00 0. -1.
        -11    1    1    2    0    0 -0.41075079923E+01 -0.17662393584E+01  0.17351462990E+03  0.17357222707E+03  0.00000000000E+00 0. -1.
         11    1    1    2    0    0  0.12136425832E+01 -0.11391556457E+02 -0.16327735913E+03  0.16367876005E+03  0.00000000000E+00 0. -1.
        -15    1    1    2    0    0  0.35457120428E+00  0.12541528825E+02 -0.16458343730E+02  0.20771385927E+02  0.17770000000E+01 0. -1.
         15    1    1    2    0    0  0.25392942049E+01  0.61626699081E+00  0.62210729628E+01  0.69776269513E+01  0.17770000000E+01 0.  1.
</event>
<event>
 6    1  0.1298204E-002  0.1827278E+03  0.7546771E-02  0.1068274E+00
        -11   -1    0    0    0    0  0.00000000000E+00  0.00000000000E+00  0.18250000000E+03  0.18250000000E+03  0.00000000000E+00 0. -1.
         11   -1    0    0    0    0 -0.00000000000E+00 -0.00000000000E+00 -0.18250000000E+03  0.18250000000E+03  0.00000000000E+00 0. -1.
        -11    1    1    2    0    0 -0.77623321506E+00 -0.14902759257E+00  0.17652475734E+02  0.17670162613E+02  0.00000000000E+00 0. -1.
         11    1    1    2    0    0  0.12981891563E+01 -0.47827100646E+01 -0.18220482727E+03  0.18227221041E+03  0.00000000000E+00 0. -1.
        -15    1    1    2    0    0  0.20219707761E+01  0.35786483760E+01  0.21316718226E+02  0.21781994742E+02  0.17770000000E+01 0. -1.
         15    1    1    2    0    0 -0.25439267173E+01  0.13530892813E+01  0.14323563330E+03  0.14327563223E+03  0.17770000000E+01 0.  1.
</event>
<event>
 6    1  0.1298204E-002  0.1836850E+03  0.7546771E-02  0.1067515E+00
        -11   -1    0    0    0    0  0.00000000000E+00  0.00000000000E+00  0.18250000000E+03  0.18250000000E+03  0.00000000000E+00 0. -1.
         11   -1    0    0    0    0 -0.00000000000E+00 -0.00000000000E+00 -0.18250000000E+03  0.18250000000E+03  0.00000000000E+00 0.  1.
        -11    1    1    2    0    0  0.22192877568E+00 -0.26987604485E+01  0.18129474015E+03  0.18131496178E+03  0.00000000000E+00 0. -1.
         11    1    1    2    0    0  0.34602163775E+00 -0.65553397034E+01 -0.61085956133E+02  0.61437661465E+02  0.00000000000E+00 0.  1.
        -15    1    1    2    0    0 -0.23286697298E+01  0.12274546299E+01 -0.20287712880E+01  0.37686853833E+01  0.17770000000E+01 0. -1.
         15    1    1    2    0    0  0.17607193164E+01  0.80266455221E+01 -0.11818001273E+03  0.11847869137E+03  0.17770000000E+01 0.  1.
</event>
<event>
 6    1  0.1298204E-002  0.1847585E+03  0.7546771E-02  0.1066671E+00
        -11   -1    0    0    0    0  0.00000000000E+00  0.00000000000E+00  0.18250000000E+03  0.18250000000E+03  0.00000000000E+00 0.  1.
         11   -1    0    0    0    0 -0.00000000000E+00 -0.00000000000E+00 -0.18250000000E+03  0.18250000000E+03  0.00000000000E+00 0.  1.
        -11    1    1    2    0    0  0.24038850718E+01 -0.33065642646E+01  0.18019511133E+03  0.18024147741E+03  0.00000000000E+00 0.  1.
         11    1    1    2    0    0  0.26587862239E+01 -0.34489095845E+01 -0.15636141531E+03  0.15642204550E+03  0.00000000000E+00 0.  1.
        -15    1    1    2    0    0 -0.88553637164E+01  0.63721466588E+01 -0.18405603120E+02  0.21469645428E+02  0.17770000000E+01 0. -1.
         15    1    1    2    0    0  0.37926924208E+01  0.38332719030E+00 -0.54280929028E+01  0.68668316635E+01  0.17770000000E+01 0.  1.
</event>
<event>
 6    1  0.1298204E-002  0.1827880E+03  0.7546771E-02  0.1068226E+00
        -11   -1    0    0    0    0  0.00000000000E+00  0.00000000000E+00  0.18250000000E+03  0.18250000000E+03  0.00000000000E+00 0. -1.
         11   -1    0    0    0    0 -0.00000000000E+00 -0.00000000000E+00 -0.18250000000E+03  0.18250000000E+03  0.00000000000E+00 0.  1.
        -11    1    1    2    0    0  0.72767765539E+00 -0.63012797406E+01  0.18210155289E+03  0.18221199523E+03  0.00000000000E+00 0. -1.
         11    1    1    2    0    0 -0.53076225578E+00  0.22672087123E-01 -0.22983366894E+02  0.22989505788E+02  0.00000000000E+00 0.  1.
        -15    1    1    2    0    0 -0.38087608316E+00 -0.23346530464E+01 -0.98596540785E+02  0.98640920795E+02  0.17770000000E+01 0.  1.
         15    1    1    2    0    0  0.18396068355E+00  0.86132606999E+01 -0.60521645211E+02  0.61157578186E+02  0.17770000000E+01 0.  1.
</event>
<event>
 6    1  0.1298204E-002  0.1851983E+03  0.7546771E-02  0.1066327E+00
        -11   -1    0    0    0    0  0.00000000000E+00  0.00000000000E+00  0.18250000000E+03  0.18250000000E+03  0.00000000000E+00 0. -1.
         11   -1    0    0    0    0 -0.00000000000E+00 -0.00000000000E+00 -0.18250000000E+03  0.18250000000E+03  0.00000000000E+00 0.  1.
        -11    1    1    2    0    0  0.27232781716E+01 -0.55848819901E+01  0.17969430735E+03  0.17980169978E+03  0.00000000000E+00 0. -1.
         11    1    1    2    0    0 -0.13017100450E+01  0.21933225684E+01 -0.14323662008E+03  0.14325932586E+03  0.00000000000E+00 0.  1.
        -15    1    1    2    0    0 -0.39005742859E+00 -0.32172236267E+01 -0.34567700770E+02  0.34764728364E+02  0.17770000000E+01 0. -1.
         15    1    1    2    0    0 -0.10315106979E+01  0.66087830485E+01 -0.18899864934E+01  0.71742459985E+01  0.17770000000E+01 0.  1.
</event>
<event>
 6    1  0.1298204E-002  0.1700977E+03  0.7546771E-02  0.1078779E+00
        -11   -1    0    0    0    0  0.00000000000E+00  0.00000000000E+00  0.18250000000E+03  0.18250000000E+03  0.00000000000E+00 0.  1.
         11   -1    0    0    0    0 -0.00000000000E+00 -0.00000000000E+00 -0.18250000000E+03  0.18250000000E+03  0.00000000000E+00 0.  1.
        -11    1    1    2    0    0 -0.13215852779E+01 -0.22906590948E+01  0.17313698150E+03  0.17315717735E+03  0.00000000000E+00 0.  1.
         11    1    1    2    0    0 -0.21619340663E+01 -0.73857207606E+01 -0.16707050086E+03  0.16724764598E+03  0.00000000000E+00 0.  1.
        -15    1    1    2    0    0  0.52402767702E+01  0.14845255031E+01  0.69542855469E+01  0.90102238077E+01  0.17770000000E+01 0. -1.
         15    1    1    2    0    0 -0.17567574260E+01  0.81918543524E+01 -0.13020766189E+02  0.15584952856E+02  0.17770000000E+01 0. -1.
</event>
<event>
 6    1  0.1298204E-002  0.1829540E+03  0.7546771E-02  0.1068094E+00
        -11   -1    0    0    0    0  0.00000000000E+00  0.00000000000E+00  0.18250000000E+03  0.18250000000E+03  0.00000000000E+00 0.  1.
         11   -1    0    0    0    0 -0.00000000000E+00 -0.00000000000E+00 -0.18250000000E+03  0.18250000000E+03  0.00000000000E+00 0. -1.
        -11    1    1    2    0    0 -0.21227757086E+01  0.64233949308E+00  0.12427270071E+03  0.12429248939E+03  0.00000000000E+00 0.  1.
         11    1    1    2    0    0 -0.48791196282E+00 -0.37449141405E+01 -0.18200677678E+03  0.18204595363E+03  0.00000000000E+00 0. -1.
        -15    1    1    2    0    0 -0.75158174104E+00 -0.25006766940E+01  0.27361477406E+02  0.27543173998E+02  0.17770000000E+01 0.  1.
         15    1    1    2    0    0  0.33622694124E+01  0.56032513414E+01  0.30372598657E+02  0.31118382981E+02  0.17770000000E+01 0.  1.
</event>
<event>
 6    1  0.2162781E-002  0.2070803E+03  0.7546771E-02  0.1050415E+00
        -11   -1    0    0    0    0  0.00000000000E+00  0.00000000000E+00  0.18250000000E+03  0.18250000000E+03  0.00000000000E+00 0. -1.
         11   -1    0    0    0    0 -0.00000000000E+00 -0.00000000000E+00 -0.18250000000E+03  0.18250000000E+03  0.00000000000E+00 0.  1.
        -11    1    1    2    0    0 -0.35164126096E+01  0.17594576578E+02  0.13351599911E+03  0.13471620652E+03  0.00000000000E+00 0. -1.
         11    1    1    2    0    0 -0.65393054322E+01  0.60447099781E+01 -0.15766845886E+03  0.15791973897E+03  0.00000000000E+00 0.  1.
        -15    1    1    2    0    0  0.95953273755E+01 -0.24768970028E+02  0.44525527979E+02  0.51877283608E+02  0.17770000000E+01 0. -1.
         15    1    1    2    0    0  0.46039066628E+00  0.11296834723E+01 -0.20373068221E+02  0.20486770904E+02  0.17770000000E+01 0.  1.
</event>
<event>
 6    1  0.1298204E-002  0.1855721E+03  0.7546771E-02  0.1066035E+00
        -11   -1    0    0    0    0  0.00000000000E+00  0.00000000000E+00  0.18250000000E+03  0.18250000000E+03  0.00000000000E+00 0.  1.
         11   -1    0    0    0    0 -0.00000000000E+00 -0.00000000000E+00 -0.18250000000E+03  0.18250000000E+03  0.00000000000E+00 0.  1.
        -11    1    1    2    0    0 -0.29882459219E+01  0.85724300963E+00  0.16329865180E+03  0.16332824054E+03  0.00000000000E+00 0.  1.
         11    1    1    2    0    0  0.41972757765E+01  0.22922080570E+01 -0.17936415490E+03  0.17942790030E+03  0.00000000000E+00 0.  1.
        -15    1    1    2    0    0 -0.45989340728E+01 -0.19805025348E+01 -0.37197551936E+00  0.53262256508E+01  0.17770000000E+01 0.  1.
         15    1    1    2    0    0  0.33899042181E+01 -0.11689485319E+01  0.16437478618E+02  0.16917633511E+02  0.17770000000E+01 0. -1.
</event>
<event>
 6    1  0.1298204E-002  0.1834197E+03  0.7546771E-02  0.1067725E+00
        -11   -1    0    0    0    0  0.00000000000E+00  0.00000000000E+00  0.18250000000E+03  0.18250000000E+03  0.00000000000E+00 0. -1.
         11   -1    0    0    0    0 -0.00000000000E+00 -0.00000000000E+00 -0.18250000000E+03  0.18250000000E+03  0.00000000000E+00 0.  1.
        -11    1    1    2    0    0  0.54004647312E-02  0.10617536332E+01  0.53530715325E+02  0.53541244225E+02  0.00000000000E+00 0. -1.
         11    1    1    2    0    0 -0.32846365937E+01  0.10464894953E+02 -0.18124876989E+03  0.18158033883E+03  0.00000000000E+00 0.  1.
        -15    1    1    2    0    0  0.34632120292E+01 -0.94475454438E+00  0.38812244957E+01  0.55774574220E+01  0.17770000000E+01 0.  1.
         15    1    1    2    0    0 -0.18397590028E+00 -0.10581894042E+02  0.12383683007E+03  0.12430095952E+03  0.17770000000E+01 0. -1.
</event>
<event>
 6    1  0.1298204E-002  0.1826709E+03  0.7546771E-02  0.1068319E+00
        -11   -1    0    0    0    0  0.00000000000E+00  0.00000000000E+00  0.18250000000E+03  0.18250000000E+03  0.00000000000E+00 0. -1.
         11   -1    0    0    0    0 -0.00000000000E+00 -0.00000000000E+00 -0.18250000000E+03  0.18250000000E+03  0.00000000000E+00 0. -1.
        -11    1    1    2    0    0 -0.38865230369E+01 -0.16124204885E+01  0.18228054193E+03  0.18232910060E+03  0.00000000000E+00 0. -1.
         11    1    1    2    0    0  0.88558463858E+00  0.29276086953E+00 -0.46909333321E+02  0.46918605282E+02  0.00000000000E+00 0. -1.
        -15    1    1    2    0    0 -0.27034234243E+01  0.20232677030E+01 -0.36692530411E+02  0.36890400206E+02  0.17770000000E+01 0. -1.
         15    1    1    2    0    0  0.57043618226E+01 -0.70360808407E+00 -0.98678678195E+02  0.98861893910E+02  0.17770000000E+01 0. -1.
</event>
<event>
 6    1  0.1298204E-002  0.1842292E+03  0.7546771E-02  0.1067087E+00
        -11   -1    0    0    0    0  0.00000000000E+00  0.00000000000E+00  0.18250000000E+03  0.18250000000E+03  0.00000000000E+00 0.  1.
         11   -1    0    0    0    0 -0.00000000000E+00 -0.00000000000E+00 -0.18250000000E+03  0.18250000000E+03  0.00000000000E+00 0. -1.
        -11    1    1    2    0    0  0.37589810598E+01 -0.94879216732E+00  0.18072921828E+03  0.18077079544E+03  0.00000000000E+00 0.  1.
         11    1    1    2    0    0  0.19564258994E+00  0.98704094752E+01 -0.13060889456E+03  0.13098147425E+03  0.00000000000E+00 0. -1.
        -15    1    1    2    0    0 -0.55171739374E+01 -0.94945290203E+01 -0.49501045471E+02  0.50735554804E+02  0.17770000000E+01 0.  1.
         15    1    1    2    0    0  0.15625502876E+01  0.57291171236E+00 -0.61927825007E+00  0.25121755079E+01  0.17770000000E+01 0.  1.
</event>
<event>
 6    1  0.1298204E-002  0.1698267E+03  0.7546771E-02  0.1079016E+00
        -11   -1    0    0    0    0  0.00000000000E+00  0.00000000000E+00  0.18250000000E+03  0.18250000000E+03  0.00000000000E+00 0. -1.
         11   -1    0    0    0    0 -0.00000000000E+00 -0.00000000000E+00 -0.18250000000E+03  0.18250000000E+03  0.00000000000E+00 0. -1.
        -11    1    1    2    0    0 -0.35308271162E+01  0.13507678566E+01  0.17044608594E+03  0.17048800406E+03  0.00000000000E+00 0. -1.
         11    1    1    2    0    0  0.25766460086E+01  0.10907913462E+01 -0.16915477455E+03  0.16917791429E+03  0.00000000000E+00 0. -1.
        -15    1    1    2    0    0 -0.63674533001E+00  0.35543448668E+00 -0.12959245346E+02  0.13100822388E+02  0.17770000000E+01 0.  1.
         15    1    1    2    0    0  0.15909264377E+01 -0.27969936894E+01  0.11667933952E+02  0.12233259269E+02  0.17770000000E+01 0.  1.
</event>
<event>
 6    1  0.1298204E-002  0.1872313E+03  0.7546771E-02  0.1064750E+00
        -11   -1    0    0    0    0  0.00000000000E+00  0.00000000000E+00  0.18250000000E+03  0.18250000000E+03  0.00000000000E+00 0.  1.
         11   -1    0    0    0    0 -0.00000000000E+00 -0.00000000000E+00 -0.18250000000E+03  0.18250000000E+03  0.00000000000E+00 0.  1.
        -11    1    1    2    0    0  0.21662012398E+01 -0.63248471166E+01  0.17764290888E+03  0.17776866764E+03  0.00000000000E+00 0.  1.
         11    1    1    2    0    0  0.43469259615E+01  0.17949449724E+01 -0.16688343290E+03  0.16694968634E+03  0.00000000000E+00 0.  1.
        -15    1    1    2    0    0 -0.10888327456E+02  0.62582023990E+00 -0.73265338970E+01  0.13258323941E+02  0.17770000000E+01 0. -1.
         15    1    1    2    0    0  0.43752002550E+01  0.39040819044E+01 -0.34329420833E+01  0.70233220868E+01  0.17770000000E+01 0.  1.
</event>
<event>
 6    1  0.1298204E-002  0.1390633E+03  0.7546771E-02  0.1109491E+00
        -11   -1    0    0    0    0  0.00000000000E+00  0.00000000000E+00  0.18250000000E+03  0.18250000000E+03  0.00000000000E+00 0. -1.
         11   -1    0    0    0    0 -0.00000000000E+00 -0.00000000000E+00 -0.18250000000E+03  0.18250000000E+03  0.00000000000E+00 0.  1.
        -11    1    1    2    0    0 -0.10807993999E+01  0.43770812531E+02  0.12771083148E+03  0.13500780953E+03  0.00000000000E+00 0. -1.
         11    1    1    2    0    0 -0.11774253264E+02 -0.69914831086E+01 -0.14577283411E+03  0.14641459299E+03  0.00000000000E+00 0.  1.
        -15    1    1    2    0    0  0.33531722175E+02 -0.37805886683E+02  0.30798764717E+02  0.59206275825E+02  0.17770000000E+01 0. -1.
         15    1    1    2    0    0 -0.20676669511E+02  0.10265572603E+01 -0.12736762086E+02  0.24371321657E+02  0.17770000000E+01 0.  1.
</event>
<event>
 6    1  0.1298204E-002  0.1872078E+03  0.7546771E-02  0.1064768E+00
        -11   -1    0    0    0    0  0.00000000000E+00  0.00000000000E+00  0.18250000000E+03  0.18250000000E+03  0.00000000000E+00 0. -1.
         11   -1    0    0    0    0 -0.00000000000E+00 -0.00000000000E+00 -0.18250000000E+03  0.18250000000E+03  0.00000000000E+00 0.  1.
        -11    1    1    2    0    0 -0.55270003705E+01  0.48579626871E+01  0.11774491198E+03  0.11797462367E+03  0.00000000000E+00 0. -1.
         11    1    1    2    0    0 -0.71340800903E+00  0.27638330203E+01 -0.17776925835E+03  0.17779217345E+03  0.00000000000E+00 0.  1.
        -15    1    1    2    0    0 -0.14807164181E+01 -0.11364390515E+02  0.36155837168E+01  0.12147924411E+02  0.17770000000E+01 0.  1.
         15    1    1    2    0    0  0.77211247976E+01  0.37425948074E+01  0.56408762658E+02  0.57085278467E+02  0.17770000000E+01 0. -1.
</event>
<event>
 6    1  0.1298204E-002  0.1832631E+03  0.7546771E-02  0.1067849E+00
        -11   -1    0    0    0    0  0.00000000000E+00  0.00000000000E+00  0.18250000000E+03  0.18250000000E+03  0.00000000000E+00 0. -1.
         11   -1    0    0    0    0 -0.00000000000E+00 -0.00000000000E+00 -0.18250000000E+03  0.18250000000E+03  0.00000000000E+00 0. -1.
        -11    1    1    2    0    0  0.11886785848E+01 -0.63599733469E+01  0.14628178103E+03  0.14642479871E+03  0.00000000000E+00 0. -1.
         11    1    1    2    0    0  0.26523733676E+01 -0.39323932059E-01 -0.18171753250E+03  0.18173689292E+03  0.00000000000E+00 0. -1.
        -15    1    1    2    0    0  0.92293696574E+00  0.20550492992E+00  0.58559236273E+01  0.61922221736E+01  0.17770000000E+01 0.  1.
         15    1    1    2    0    0 -0.47639889181E+01  0.61937923490E+01  0.29579827848E+02  0.30646086187E+02  0.17770000000E+01 0. -1.
</event>
<event>
 6    1  0.1298204E-002  0.1868733E+03  0.7546771E-02  0.1065026E+00
        -11   -1    0    0    0    0  0.00000000000E+00  0.00000000000E+00  0.18250000000E+03  0.18250000000E+03  0.00000000000E+00 0. -1.
         11   -1    0    0    0    0 -0.00000000000E+00 -0.00000000000E+00 -0.18250000000E+03  0.18250000000E+03  0.00000000000E+00 0.  1.
        -11    1    1    2    0    0  0.10265678229E+02  0.78504628432E+01  0.13372004307E+03  0.13434308257E+03  0.00000000000E+00 0. -1.
         11    1    1    2    0    0 -0.14551212548E+00 -0.28278720933E+02 -0.17586759931E+03  0.17812669569E+03  0.00000000000E+00 0.  1.
        -15    1    1    2    0    0  0.17846250222E+00  0.20440391008E+02  0.23877256007E+02  0.31482098356E+02  0.17770000000E+01 0.  1.
         15    1    1    2    0    0 -0.10298628606E+02 -0.12132918164E-01  0.18270300231E+02  0.21048123382E+02  0.17770000000E+01 0. -1.
</event>
<event>
 6    1  0.1298204E-002  0.1840971E+03  0.7546771E-02  0.1067191E+00
        -11   -1    0    0    0    0  0.00000000000E+00  0.00000000000E+00  0.18250000000E+03  0.18250000000E+03  0.00000000000E+00 0. -1.
         11   -1    0    0    0    0 -0.00000000000E+00 -0.00000000000E+00 -0.18250000000E+03  0.18250000000E+03  0.00000000000E+00 0. -1.
        -11    1    1    2    0    0 -0.18081961408E+01 -0.46470465667E+01  0.18083416362E+03  0.18090290033E+03  0.00000000000E+00 0. -1.
         11    1    1    2    0    0  0.23294908509E+01  0.96310125173E+01 -0.14705961590E+03  0.14739305804E+03  0.00000000000E+00 0. -1.
        -15    1    1    2    0    0  0.20305445109E+01 -0.36536827716E+01 -0.32898047868E+02  0.33210115798E+02  0.17770000000E+01 0. -1.
         15    1    1    2    0    0 -0.25518392210E+01 -0.13302831790E+01 -0.87649984771E+00  0.34939258334E+01  0.17770000000E+01 0. -1.
</event>
<event>
 6    1  0.1298204E-002  0.1828106E+03  0.7546771E-02  0.1068208E+00
        -11   -1    0    0    0    0  0.00000000000E+00  0.00000000000E+00  0.18250000000E+03  0.18250000000E+03  0.00000000000E+00 0.  1.
         11   -1    0    0    0    0 -0.00000000000E+00 -0.00000000000E+00 -0.18250000000E+03  0.18250000000E+03  0.00000000000E+00 0. -1.
        -11    1    1    2    0    0 -0.18207563037E+01 -0.35021657348E+01  0.18214661897E+03  0.18218938257E+03  0.00000000000E+00 0.  1.
         11    1    1    2    0    0 -0.23002349162E+01 -0.10135155661E+00 -0.12471273327E+03  0.12473398571E+03  0.00000000000E+00 0. -1.
        -15    1    1    2    0    0  0.10317701029E+01  0.75449992769E+00 -0.51745828574E+01  0.56185279597E+01  0.17770000000E+01 0.  1.
         15    1    1    2    0    0  0.30892211170E+01  0.28490173638E+01 -0.52259302845E+02  0.52458103758E+02  0.17770000000E+01 0. -1.
</event>
<event>
 6    1  0.1298204E-002  0.1831275E+03  0.7546771E-02  0.1067956E+00
        -11   -1    0    0    0    0  0.00000000000E+00  0.00000000000E+00  0.18250000000E+03  0.18250000000E+03  0.00000000000E+00 0. -1.
         11   -1    0    0    0    0 -0.00000000000E+00 -0.00000000000E+00 -0.18250000000E+03  0.18250000000E+03  0.00000000000E+00 0.  1.
        -11    1    1    2    0    0 -0.29007426002E+01 -0.57351070041E+00  0.18184850291E+03  0.18187254117E+03  0.00000000000E+00 0. -1.
         11    1    1    2    0    0 -0.79605654066E+00 -0.15583830271E+01 -0.88637850774E+02  0.88655123109E+02  0.00000000000E+00 0.  1.
        -15    1    1    2    0    0 -0.17662098070E+01  0.47551239972E+00 -0.25213199285E+01  0.35861389134E+01  0.17770000000E+01 0.  1.
         15    1    1    2    0    0  0.54630089479E+01  0.16563813278E+01 -0.90689332203E+02  0.90886196809E+02  0.17770000000E+01 0. -1.
</event>
<event>
 6    1  0.1298204E-002  0.1838682E+03  0.7546771E-02  0.1067371E+00
        -11   -1    0    0    0    0  0.00000000000E+00  0.00000000000E+00  0.18250000000E+03  0.18250000000E+03  0.00000000000E+00 0. -1.
         11   -1    0    0    0    0 -0.00000000000E+00 -0.00000000000E+00 -0.18250000000E+03  0.18250000000E+03  0.00000000000E+00 0.  1.
        -11    1    1    2    0    0 -0.34884784585E+01  0.34773520555E+01  0.18106476718E+03  0.18113175142E+03  0.00000000000E+00 0. -1.
         11    1    1    2    0    0  0.15587424861E+01  0.13754718884E+01 -0.15195125679E+03  0.15196547647E+03  0.00000000000E+00 0.  1.
        -15    1    1    2    0    0  0.16587388892E+01 -0.82920124746E+01 -0.23822391923E+02  0.25341132010E+02  0.17770000000E+01 0.  1.
         15    1    1    2    0    0  0.27099708317E+00  0.34391885307E+01 -0.52911184648E+01  0.65616400981E+01  0.17770000000E+01 0. -1.
</event>
<event>
 6    1  0.1298204E-002  0.1846261E+03  0.7546771E-02  0.1066775E+00
        -11   -1    0    0    0    0  0.00000000000E+00  0.00000000000E+00  0.18250000000E+03  0.18250000000E+03  0.00000000000E+00 0. -1.
         11   -1    0    0    0    0 -0.00000000000E+00 -0.00000000000E+00 -0.18250000000E+03  0.18250000000E+03  0.00000000000E+00 0. -1.
        -11    1    1    2    0    0 -0.21663977682E+00  0.39040181098E+01  0.18033149714E+03  0.18037388157E+03  0.00000000000E+00 0. -1.
         11    1    1    2    0    0  0.48471061436E+01 -0.45592828789E+01 -0.16847469801E+03  0.16860606563E+03  0.00000000000E+00 0. -1.
        -15    1    1    2    0    0 -0.19883655282E+00  0.38070603766E+01 -0.20797862923E+01  0.46921727065E+01  0.17770000000E+01 0.  1.
         15    1    1    2    0    0 -0.44316298139E+01 -0.31517956076E+01 -0.97770128408E+01  0.11327880095E+02  0.17770000000E+01 0. -1.
</event>
<event>
 6    1  0.1298204E-002  0.1895464E+03  0.7546771E-02  0.1062980E+00
        -11   -1    0    0    0    0  0.00000000000E+00  0.00000000000E+00  0.18250000000E+03  0.18250000000E+03  0.00000000000E+00 0. -1.
         11   -1    0    0    0    0 -0.00000000000E+00 -0.00000000000E+00 -0.18250000000E+03  0.18250000000E+03  0.00000000000E+00 0. -1.
        -11    1    1    2    0    0 -0.23230605222E+01 -0.65804814995E+01  0.17531480111E+03  0.17545363728E+03  0.00000000000E+00 0. -1.
         11    1    1    2    0    0  0.72950084330E+01 -0.22147009467E+01 -0.15713522912E+03  0.15732006318E+03  0.00000000000E+00 0. -1.
        -15    1    1    2    0    0 -0.42418867460E+01  0.47632476968E+01  0.52030857815E+01  0.84209240845E+01  0.17770000000E+01 0.  1.
         15    1    1    2    0    0 -0.73006116484E+00  0.40319347494E+01 -0.23382657775E+02  0.23805375459E+02  0.17770000000E+01 0. -1.
</event>
<event>
 6    1  0.1298204E-002  0.1848313E+03  0.7546771E-02  0.1066614E+00
        -11   -1    0    0    0    0  0.00000000000E+00  0.00000000000E+00  0.18250000000E+03  0.18250000000E+03  0.00000000000E+00 0.  1.
         11   -1    0    0    0    0 -0.00000000000E+00 -0.00000000000E+00 -0.18250000000E+03  0.18250000000E+03  0.00000000000E+00 0.  1.
        -11    1    1    2    0    0 -0.21809220803E+01  0.16350641865E+01  0.16614053964E+03  0.16616289829E+03  0.00000000000E+00 0.  1.
         11    1    1    2    0    0  0.28302838348E+01  0.74976975747E+00 -0.18014492677E+03  0.18016871898E+03  0.00000000000E+00 0.  1.
        -15    1    1    2    0    0  0.30826701166E+01  0.78335859603E+00 -0.88003376820E-01  0.36444449964E+01  0.17770000000E+01 0. -1.
         15    1    1    2    0    0 -0.37320318711E+01 -0.31681925400E+01  0.14092390505E+02  0.15023937733E+02  0.17770000000E+01 0. -1.
</event>
<event>
 6    1  0.1298204E-002  0.1839879E+03  0.7546771E-02  0.1067277E+00
        -11   -1    0    0    0    0  0.00000000000E+00  0.00000000000E+00  0.18250000000E+03  0.18250000000E+03  0.00000000000E+00 0.  1.
         11   -1    0    0    0    0 -0.00000000000E+00 -0.00000000000E+00 -0.18250000000E+03  0.18250000000E+03  0.00000000000E+00 0.  1.
        -11    1    1    2    0    0 -0.76791167254E+01  0.47174530239E+01  0.18078763223E+03  0.18101212988E+03  0.00000000000E+00 0.  1.
         11    1    1    2    0    0  0.42885611458E+01  0.65118587269E+00 -0.63951274987E+02  0.64098216607E+02  0.00000000000E+00 0.  1.
        -15    1    1    2    0    0  0.14348395026E+02 -0.35716392433E+01 -0.52222906257E+02  0.54304905061E+02  0.17770000000E+01 0.  1.
         15    1    1    2    0    0 -0.10957839447E+02 -0.17969996532E+01 -0.64613450982E+02  0.65584748455E+02  0.17770000000E+01 0. -1.
</event>
<event>
 6    1  0.1298204E-002  0.1833349E+03  0.7546771E-02  0.1067792E+00
        -11   -1    0    0    0    0  0.00000000000E+00  0.00000000000E+00  0.18250000000E+03  0.18250000000E+03  0.00000000000E+00 0.  1.
         11   -1    0    0    0    0 -0.00000000000E+00 -0.00000000000E+00 -0.18250000000E+03  0.18250000000E+03  0.00000000000E+00 0. -1.
        -11    1    1    2    0    0  0.64062568479E+00 -0.19152988968E+01  0.63043825049E+02  0.63076165451E+02  0.00000000000E+00 0.  1.
         11    1    1    2    0    0  0.18939224500E+01  0.27672538682E+01 -0.18163418211E+03  0.18166513355E+03  0.00000000000E+00 0. -1.
        -15    1    1    2    0    0 -0.26178781707E+01  0.10019056351E+01  0.25384205709E+01  0.41783261018E+01  0.17770000000E+01 0. -1.
         15    1    1    2    0    0  0.83330035998E-01 -0.18538606065E+01  0.11605193649E+03  0.11608037490E+03  0.17770000000E+01 0.  1.
</event>
<event>
 6    1  0.1298204E-002  0.1855663E+03  0.7546771E-02  0.1066040E+00
        -11   -1    0    0    0    0  0.00000000000E+00  0.00000000000E+00  0.18250000000E+03  0.18250000000E+03  0.00000000000E+00 0. -1.
         11   -1    0    0    0    0 -0.00000000000E+00 -0.00000000000E+00 -0.18250000000E+03  0.18250000000E+03  0.00000000000E+00 0. -1.
        -11    1    1    2    0    0  0.50422935233E+01  0.22688366112E+00  0.17936267776E+03  0.17943368238E+03  0.00000000000E+00 0. -1.
         11    1    1    2    0    0 -0.32742457374E+01 -0.79147459353E+00 -0.16767591301E+03  0.16770974606E+03  0.00000000000E+00 0. -1.
        -15    1    1    2    0    0  0.26435518918E+01  0.18313456676E+01 -0.12354821062E+02  0.12889589832E+02  0.17770000000E+01 0. -1.
         15    1    1    2    0    0 -0.44115996777E+01 -0.12667547352E+01  0.66805631533E+00  0.49669817309E+01  0.17770000000E+01 0. -1.
</event>
<event>
 6    1  0.1298204E-002  0.1871639E+03  0.7546771E-02  0.1064802E+00
        -11   -1    0    0    0    0  0.00000000000E+00  0.00000000000E+00  0.18250000000E+03  0.18250000000E+03  0.00000000000E+00 0. -1.
         11   -1    0    0    0    0 -0.00000000000E+00 -0.00000000000E+00 -0.18250000000E+03  0.18250000000E+03  0.00000000000E+00 0.  1.
        -11    1    1    2    0    0 -0.80960591534E+01 -0.74620994777E+00  0.17765015446E+03  0.17783610540E+03  0.00000000000E+00 0. -1.
         11    1    1    2    0    0 -0.46976532418E+01 -0.57405251166E+01 -0.16718404424E+03  0.16734851724E+03  0.00000000000E+00 0.  1.
        -15    1    1    2    0    0  0.13485678468E+00  0.30732441607E+01 -0.16554835758E+01  0.39193584798E+01  0.17770000000E+01 0.  1.
         15    1    1    2    0    0  0.12658855611E+02  0.34134909037E+01 -0.88106266448E+01  0.15896018885E+02  0.17770000000E+01 0. -1.
</event>
<event>
 6    1  0.1298204E-002  0.1900077E+03  0.7546771E-02  0.1062631E+00
        -11   -1    0    0    0    0  0.00000000000E+00  0.00000000000E+00  0.18250000000E+03  0.18250000000E+03  0.00000000000E+00 0.  1.
         11   -1    0    0    0    0 -0.00000000000E+00 -0.00000000000E+00 -0.18250000000E+03  0.18250000000E+03  0.00000000000E+00 0.  1.
        -11    1    1    2    0    0 -0.22187956331E+01  0.26379025449E+01  0.94334748047E+02  0.94397702689E+02  0.00000000000E+00 0.  1.
         11    1    1    2    0    0  0.42612350676E+01  0.24582233625E+02 -0.17320472020E+03  0.17499234107E+03  0.00000000000E+00 0.  1.
        -15    1    1    2    0    0  0.22688261254E+01 -0.33011830107E+02  0.25733934104E+02  0.41956186582E+02  0.17770000000E+01 0. -1.
         15    1    1    2    0    0 -0.43112655599E+01  0.57916939373E+01  0.53136038051E+02  0.53653769655E+02  0.17770000000E+01 0.  1.
</event>
<event>
 6    1  0.1298204E-002  0.1836845E+03  0.7546771E-02  0.1067516E+00
        -11   -1    0    0    0    0  0.00000000000E+00  0.00000000000E+00  0.18250000000E+03  0.18250000000E+03  0.00000000000E+00 0.  1.
         11   -1    0    0    0    0 -0.00000000000E+00 -0.00000000000E+00 -0.18250000000E+03  0.18250000000E+03  0.00000000000E+00 0.  1.
        -11    1    1    2    0    0 -0.26421761374E+00 -0.19725043544E+01  0.67366827046E+02  0.67396216293E+02  0.00000000000E+00 0.  1.
         11    1    1    2    0    0 -0.33773484877E+01 -0.47142109089E+01 -0.18122271956E+03  0.18131548294E+03  0.00000000000E+00 0.  1.
        -15    1    1    2    0    0  0.27280548013E+01  0.26194758342E+01  0.25607203660E+01  0.49009136329E+01  0.17770000000E+01 0. -1.
         15    1    1    2    0    0  0.91351130017E+00  0.40672394291E+01  0.11129517215E+03  0.11138738714E+03  0.17770000000E+01 0.  1.
</event>
<event>
 6    1  0.1298204E-002  0.1841645E+03  0.7546771E-02  0.1067138E+00
        -11   -1    0    0    0    0  0.00000000000E+00  0.00000000000E+00  0.18250000000E+03  0.18250000000E+03  0.00000000000E+00 0. -1.
         11   -1    0    0    0    0 -0.00000000000E+00 -0.00000000000E+00 -0.18250000000E+03  0.18250000000E+03  0.00000000000E+00 0.  1.
        -11    1    1    2    0    0 -0.44223289848E+01 -0.34737591000E+01  0.14424073860E+03  0.14435031925E+03  0.00000000000E+00 0. -1.
         11    1    1    2    0    0 -0.56744814893E+01  0.32535666049E+01 -0.18071717638E+03  0.18083551442E+03  0.00000000000E+00 0.  1.
        -15    1    1    2    0    0  0.80363947476E+01  0.87564258334E+00  0.36044163604E+02  0.36982291024E+02  0.17770000000E+01 0.  1.
         15    1    1    2    0    0  0.20604157266E+01 -0.65545008828E+00  0.43227418041E+00  0.28318753065E+01  0.17770000000E+01 0. -1.
</event>
<event>
 6    1  0.1298204E-002  0.1857541E+03  0.7546771E-02  0.1065894E+00
        -11   -1    0    0    0    0  0.00000000000E+00  0.00000000000E+00  0.18250000000E+03  0.18250000000E+03  0.00000000000E+00 0.  1.
         11   -1    0    0    0    0 -0.00000000000E+00 -0.00000000000E+00 -0.18250000000E+03  0.18250000000E+03  0.00000000000E+00 0.  1.
        -11    1    1    2    0    0  0.27584394886E+01  0.54772862086E+01  0.17914095668E+03  0.17924589818E+03  0.00000000000E+00 0.  1.
         11    1    1    2    0    0 -0.38640560504E+01 -0.32163153497E+00 -0.12458442967E+03  0.12464475317E+03  0.00000000000E+00 0.  1.
        -15    1    1    2    0    0 -0.96741048559E+00 -0.30317337660E+01  0.21934976248E+01  0.42539926546E+01  0.17770000000E+01 0.  1.
         15    1    1    2    0    0  0.20730270474E+01 -0.21239209077E+01 -0.56750024636E+02  0.56855356004E+02  0.17770000000E+01 0. -1.
</event>
<event>
 6    1  0.1298204E-002  0.1865510E+03  0.7546771E-02  0.1065275E+00
        -11   -1    0    0    0    0  0.00000000000E+00  0.00000000000E+00  0.18250000000E+03  0.18250000000E+03  0.00000000000E+00 0. -1.
         11   -1    0    0    0    0 -0.00000000000E+00 -0.00000000000E+00 -0.18250000000E+03  0.18250000000E+03  0.00000000000E+00 0. -1.
        -11    1    1    2    0    0 -0.26527990181E+01 -0.77283428754E+00  0.17842757720E+03  0.17844897007E+03  0.00000000000E+00 0. -1.
         11    1    1    2    0    0  0.36676717069E+01  0.33491214107E+01 -0.17478674245E+03  0.17485729543E+03  0.00000000000E+00 0. -1.
        -15    1    1    2    0    0  0.81070202714E+00 -0.43736991984E+01  0.20456796742E+01  0.52085522734E+01  0.17770000000E+01 0. -1.
         15    1    1    2    0    0 -0.18255747160E+01  0.17974120753E+01 -0.56865144244E+01  0.64851822265E+01  0.17770000000E+01 0.  1.
</event>
<event>
 6    1  0.1298204E-002  0.1869627E+03  0.7546771E-02  0.1064957E+00
        -11   -1    0    0    0    0  0.00000000000E+00  0.00000000000E+00  0.18250000000E+03  0.18250000000E+03  0.00000000000E+00 0.  1.
         11   -1    0    0    0    0 -0.00000000000E+00 -0.00000000000E+00 -0.18250000000E+03  0.18250000000E+03  0.00000000000E+00 0. -1.
        -11    1    1    2    0    0 -0.55143789438E+01 -0.87782765998E+01  0.17773520982E+03  0.17803727510E+03  0.00000000000E+00 0.  1.
         11    1    1    2    0    0  0.15349547477E+01  0.18029569658E+01 -0.16713963852E+03  0.16715641030E+03  0.00000000000E+00 0. -1.
        -15    1    1    2    0    0 -0.21824370896E+01 -0.24541561937E+01 -0.68530000106E+01  0.78043098618E+01  0.17770000000E+01 0.  1.
         15    1    1    2    0    0  0.61618612857E+01  0.94294758277E+01 -0.37425712896E+01  0.12002004739E+02  0.17770000000E+01 0.  1.
</event>
<event>
 6    1  0.1298204E-002  0.1833492E+03  0.7546771E-02  0.1067781E+00
        -11   -1    0    0    0    0  0.00000000000E+00  0.00000000000E+00  0.18250000000E+03  0.18250000000E+03  0.00000000000E+00 0.  1.
         11   -1    0    0    0    0 -0.00000000000E+00 -0.00000000000E+00 -0.18250000000E+03  0.18250000000E+03  0.00000000000E+00 0.  1.
        -11    1    1    2    0    0 -0.11021105230E+01 -0.29322285520E+01  0.14900468987E+03  0.14903761342E+03  0.00000000000E+00 0.  1.
         11    1    1    2    0    0  0.28757816893E+01  0.35921526644E+00 -0.18162770554E+03  0.18165082597E+03  0.00000000000E+00 0.  1.
        -15    1    1    2    0    0 -0.59697133324E+00 -0.36189938412E+01  0.13123603406E+02  0.13741913497E+02  0.17770000000E+01 0.  1.
         15    1    1    2    0    0 -0.11766998330E+01  0.61920071268E+01  0.19499412263E+02  0.20569647113E+02  0.17770000000E+01 0. -1.
</event>
<event>
 6    1  0.1298204E-002  0.1831629E+03  0.7546771E-02  0.1067928E+00
        -11   -1    0    0    0    0  0.00000000000E+00  0.00000000000E+00  0.18250000000E+03  0.18250000000E+03  0.00000000000E+00 0.  1.
         11   -1    0    0    0    0 -0.00000000000E+00 -0.00000000000E+00 -0.18250000000E+03  0.18250000000E+03  0.00000000000E+00 0. -1.
        -11    1    1    2    0    0  0.22190293079E+01  0.49830537464E+00  0.12970179307E+03  0.12972173112E+03  0.00000000000E+00 0.  1.
         11    1    1    2    0    0  0.27163493461E+01 -0.37598971978E+01 -0.18177793965E+03  0.18183711042E+03  0.00000000000E+00 0. -1.
        -15    1    1    2    0    0  0.28829703878E+01  0.81002241379E+00  0.11874113805E+02  0.12374165112E+02  0.17770000000E+01 0. -1.
         15    1    1    2    0    0 -0.78183490417E+01  0.24515694093E+01  0.40202032781E+02  0.41066993352E+02  0.17770000000E+01 0.  1.
</event>
<event>
 6    1  0.1298204E-002  0.1834889E+03  0.7546771E-02  0.1067670E+00
        -11   -1    0    0    0    0  0.00000000000E+00  0.00000000000E+00  0.18250000000E+03  0.18250000000E+03  0.00000000000E+00 0.  1.
         11   -1    0    0    0    0 -0.00000000000E+00 -0.00000000000E+00 -0.18250000000E+03  0.18250000000E+03  0.00000000000E+00 0.  1.
        -11    1    1    2    0    0  0.21488315076E+01 -0.16730662171E+00  0.58285747531E+02  0.58325584726E+02  0.00000000000E+00 0.  1.
         11    1    1    2    0    0  0.75886342023E+01 -0.53553468625E+01 -0.18127335315E+03  0.18151114476E+03  0.00000000000E+00 0.  1.
        -15    1    1    2    0    0 -0.54949700778E+01  0.12068801208E+02  0.98433351597E+02  0.99338477411E+02  0.17770000000E+01 0.  1.
         15    1    1    2    0    0 -0.42424956321E+01 -0.65461477242E+01  0.24554254024E+02  0.25824793104E+02  0.17770000000E+01 0. -1.
</event>
<event>
 6    1  0.1298204E-002  0.1858231E+03  0.7546771E-02  0.1065840E+00
        -11   -1    0    0    0    0  0.00000000000E+00  0.00000000000E+00  0.18250000000E+03  0.18250000000E+03  0.00000000000E+00 0. -1.
         11   -1    0    0    0    0 -0.00000000000E+00 -0.00000000000E+00 -0.18250000000E+03  0.18250000000E+03  0.00000000000E+00 0.  1.
        -11    1    1    2    0    0 -0.27940430376E+01  0.46202507963E+01  0.17909555662E+03  0.17917692875E+03  0.00000000000E+00 0. -1.
         11    1    1    2    0    0  0.11708514953E+01 -0.25857137749E+01 -0.16580073454E+03  0.16582502942E+03  0.00000000000E+00 0.  1.
        -15    1    1    2    0    0 -0.22232888781E+01  0.67246538157E+00  0.22309989379E+01  0.36783567507E+01  0.17770000000E+01 0.  1.
         15    1    1    2    0    0  0.38464804204E+01 -0.27070024030E+01 -0.15525821022E+02  0.16319685078E+02  0.17770000000E+01 0. -1.
</event>
<event>
 6    1  0.1340009E-002  0.1838929E+03  0.7546771E-02  0.1067351E+00
        -11   -1    0    0    0    0  0.00000000000E+00  0.00000000000E+00  0.18250000000E+03  0.18250000000E+03  0.00000000000E+00 0. -1.
         11   -1    0    0    0    0 -0.00000000000E+00 -0.00000000000E+00 -0.18250000000E+03  0.18250000000E+03  0.00000000000E+00 0. -1.
        -11    1    1    2    0    0  0.43814775409E-01 -0.38570196272E+01  0.18106604599E+03  0.18110712722E+03  0.00000000000E+00 0. -1.
         11    1    1    2    0    0  0.12831870090E+01  0.78549319923E+00 -0.27567019096E+02  0.27608044304E+02  0.00000000000E+00 0. -1.
        -15    1    1    2    0    0  0.86034355186E+00  0.14580071751E+01 -0.15297586272E+03  0.15299554986E+03  0.17770000000E+01 0. -1.
         15    1    1    2    0    0 -0.21873453363E+01  0.16135192529E+01 -0.52316418075E+00  0.32892786078E+01  0.17770000000E+01 0.  1.
</event>
<event>
 6    1  0.1298204E-002  0.1827772E+03  0.7546771E-02  0.1068234E+00
        -11   -1    0    0    0    0  0.00000000000E+00  0.00000000000E+00  0.18250000000E+03  0.18250000000E+03  0.00000000000E+00 0.  1.
         11   -1    0    0    0    0 -0.00000000000E+00 -0.00000000000E+00 -0.18250000000E+03  0.18250000000E+03  0.00000000000E+00 0.  1.
        -11    1    1    2    0    0  0.69600686453E+00 -0.67961577550E+00  0.37546076460E+02  0.37558676237E+02  0.00000000000E+00 0.  1.
         11    1    1    2    0    0  0.18805721652E+01  0.72283550959E+01 -0.18206965431E+03  0.18222278862E+03  0.00000000000E+00 0.  1.
        -15    1    1    2    0    0 -0.27368923498E+00 -0.62239786914E+01  0.31611109935E+02  0.32268139346E+02  0.17770000000E+01 0. -1.
         15    1    1    2    0    0 -0.23028897948E+01 -0.32476062900E+00  0.11291246792E+03  0.11295039580E+03  0.17770000000E+01 0.  1.
</event>
<event>
 6    1  0.1298204E-002  0.1831911E+03  0.7546771E-02  0.1067906E+00
        -11   -1    0    0    0    0  0.00000000000E+00  0.00000000000E+00  0.18250000000E+03  0.18250000000E+03  0.00000000000E+00 0.  1.
         11   -1    0    0    0    0 -0.00000000000E+00 -0.00000000000E+00 -0.18250000000E+03  0.18250000000E+03  0.00000000000E+00 0. -1.
        -11    1    1    2    0    0 -0.25711423359E+01  0.19604573081E+00  0.16241254326E+03  0.16243301208E+03  0.00000000000E+00 0.  1.
         11    1    1    2    0    0  0.70370486966E+00  0.36346750724E+01 -0.18177119825E+03  0.18180889575E+03  0.00000000000E+00 0. -1.
        -15    1    1    2    0    0  0.45567153306E+00 -0.15639180154E+01  0.15735311346E+02  0.15918895321E+02  0.17770000000E+01 0. -1.
         15    1    1    2    0    0  0.14117659332E+01 -0.22668027878E+01  0.36233436441E+01  0.48391968437E+01  0.17770000000E+01 0.  1.
</event>
<event>
 6    1  0.1298204E-002  0.1844220E+03  0.7546771E-02  0.1066935E+00
        -11   -1    0    0    0    0  0.00000000000E+00  0.00000000000E+00  0.18250000000E+03  0.18250000000E+03  0.00000000000E+00 0.  1.
         11   -1    0    0    0    0 -0.00000000000E+00 -0.00000000000E+00 -0.18250000000E+03  0.18250000000E+03  0.00000000000E+00 0.  1.
        -11    1    1    2    0    0 -0.46053224531E+01  0.11145012244E+01  0.18051580573E+03  0.18057798102E+03  0.00000000000E+00 0.  1.
         11    1    1    2    0    0  0.11155452462E+01 -0.22943769360E+01 -0.17823305471E+03  0.17825131247E+03  0.00000000000E+00 0.  1.
        -15    1    1    2    0    0  0.11011304104E+01  0.17167966479E+01 -0.98369296928E+00  0.28784127169E+01  0.17770000000E+01 0. -1.
         15    1    1    2    0    0  0.23886467965E+01 -0.53692093629E+00 -0.12990580572E+01  0.32922937971E+01  0.17770000000E+01 0.  1.
</event>
<event>
 6    1  0.1298204E-002  0.1939513E+03  0.7546771E-02  0.1059688E+00
        -11   -1    0    0    0    0  0.00000000000E+00  0.00000000000E+00  0.18250000000E+03  0.18250000000E+03  0.00000000000E+00 0.  1.
         11   -1    0    0    0    0 -0.00000000000E+00 -0.00000000000E+00 -0.18250000000E+03  0.18250000000E+03  0.00000000000E+00 0. -1.
        -11    1    1    2    0    0  0.62572223821E+01  0.50451676402E+01  0.17085972974E+03  0.17104868838E+03  0.00000000000E+00 0.  1.
         11    1    1    2    0    0 -0.33876714614E+01  0.76619179411E+01 -0.14903740517E+03  0.14927266811E+03  0.00000000000E+00 0. -1.
        -15    1    1    2    0    0  0.25438900115E+01  0.30721361930E+01  0.87651147422E+01  0.97925667026E+01  0.17770000000E+01 0. -1.
         15    1    1    2    0    0 -0.54134409322E+01 -0.15779221774E+02 -0.30587439311E+02  0.34886076809E+02  0.17770000000E+01 0.  1.
</event>
<event>
 6    1  0.1298204E-002  0.1840734E+03  0.7546771E-02  0.1067209E+00
        -11   -1    0    0    0    0  0.00000000000E+00  0.00000000000E+00  0.18250000000E+03  0.18250000000E+03  0.00000000000E+00 0. -1.
         11   -1    0    0    0    0 -0.00000000000E+00 -0.00000000000E+00 -0.18250000000E+03  0.18250000000E+03  0.00000000000E+00 0.  1.
        -11    1    1    2    0    0  0.26797364034E+01  0.37996992111E+01  0.18086687197E+03  0.18092662623E+03  0.00000000000E+00 0. -1.
         11    1    1    2    0    0  0.15623239309E+01 -0.79852285633E+01 -0.15581708181E+03  0.15602938094E+03  0.00000000000E+00 0.  1.
        -15    1    1    2    0    0 -0.43418407401E+01  0.70064763792E+01 -0.12644694165E+02  0.15198299635E+02  0.17770000000E+01 0. -1.
         15    1    1    2    0    0  0.99780405791E-01 -0.28209470271E+01 -0.12405095994E+02  0.12845693204E+02  0.17770000000E+01 0.  1.
</event>
<event>
 6    1  0.1298204E-002  0.1776082E+03  0.7546771E-02  0.1072417E+00
        -11   -1    0    0    0    0  0.00000000000E+00  0.00000000000E+00  0.18250000000E+03  0.18250000000E+03  0.00000000000E+00 0. -1.
         11   -1    0    0    0    0 -0.00000000000E+00 -0.00000000000E+00 -0.18250000000E+03  0.18250000000E+03  0.00000000000E+00 0. -1.
        -11    1    1    2    0    0 -0.13336680697E+01  0.31114270354E+01  0.17687685738E+03  0.17690924884E+03  0.00000000000E+00 0. -1.
         11    1    1    2    0    0 -0.30726998425E+01  0.16622085307E+00 -0.17832593731E+03  0.17835248536E+03  0.00000000000E+00 0. -1.
        -15    1    1    2    0    0  0.11792700616E+01 -0.17207621263E+01 -0.27897028044E+01  0.39104821839E+01  0.17770000000E+01 0.  1.
         15    1    1    2    0    0  0.32270978507E+01 -0.15568857622E+01  0.42387827379E+01  0.58277836193E+01  0.17770000000E+01 0. -1.
</event>
<event>
 6    1  0.1298204E-002  0.1632870E+03  0.7546771E-02  0.1084868E+00
        -11   -1    0    0    0    0  0.00000000000E+00  0.00000000000E+00  0.18250000000E+03  0.18250000000E+03  0.00000000000E+00 0. -1.
         11   -1    0    0    0    0 -0.00000000000E+00 -0.00000000000E+00 -0.18250000000E+03  0.18250000000E+03  0.00000000000E+00 0.  1.
        -11    1    1    2    0    0 -0.10007647503E+02 -0.93028471047E+01  0.16881664049E+03  0.16936869273E+03  0.00000000000E+00 0. -1.
         11    1    1    2    0    0 -0.19673240125E+01 -0.68019213396E+01 -0.15784647675E+03  0.15800521105E+03  0.00000000000E+00 0.  1.
        -15    1    1    2    0    0  0.20946350010E+02  0.15870090300E+02 -0.53140747898E+01  0.26870177981E+02  0.17770000000E+01 0. -1.
         15    1    1    2    0    0 -0.89713784941E+01  0.23467814399E+00 -0.56560889497E+01  0.10755918237E+02  0.17770000000E+01 0.  1.
</event>
<event>
 6    1  0.1298204E-002  0.1826074E+03  0.7546771E-02  0.1068369E+00
        -11   -1    0    0    0    0  0.00000000000E+00  0.00000000000E+00  0.18250000000E+03  0.18250000000E+03  0.00000000000E+00 0.  1.
         11   -1    0    0    0    0 -0.00000000000E+00 -0.00000000000E+00 -0.18250000000E+03  0.18250000000E+03  0.00000000000E+00 0. -1.
        -11    1    1    2    0    0 -0.18597692751E+01 -0.73069030740E+00  0.90877194071E+02  0.90899158699E+02  0.00000000000E+00 0.  1.
         11    1    1    2    0    0  0.20530460192E+01  0.19514590342E+01 -0.18237063829E+03  0.18239263389E+03  0.00000000000E+00 0. -1.
        -15    1    1    2    0    0 -0.22791896496E+01 -0.14663913178E+01  0.35638532523E+02  0.35785580034E+02  0.17770000000E+01 0.  1.
         15    1    1    2    0    0  0.20859129055E+01  0.24562259095E+00  0.55854911692E+02  0.55922627372E+02  0.17770000000E+01 0. -1.
</event>
<event>
 6    1  0.1298204E-002  0.1880810E+03  0.7546771E-02  0.1064097E+00
        -11   -1    0    0    0    0  0.00000000000E+00  0.00000000000E+00  0.18250000000E+03  0.18250000000E+03  0.00000000000E+00 0.  1.
         11   -1    0    0    0    0 -0.00000000000E+00 -0.00000000000E+00 -0.18250000000E+03  0.18250000000E+03  0.00000000000E+00 0.  1.
        -11    1    1    2    0    0  0.14609989644E+01  0.34642563584E+01  0.17687906733E+03  0.17691902116E+03  0.00000000000E+00 0.  1.
         11    1    1    2    0    0  0.89394846022E+00  0.14824370074E+02 -0.15436416349E+03  0.15507693594E+03  0.00000000000E+00 0.  1.
        -15    1    1    2    0    0 -0.37404735107E+01 -0.17339493269E+02 -0.24183342254E+02  0.30043983432E+02  0.17770000000E+01 0. -1.
         15    1    1    2    0    0  0.13855260861E+01 -0.94913316344E+00  0.16684384136E+01  0.29600594651E+01  0.17770000000E+01 0.  1.
</event>
<event>
 6    1  0.1298204E-002  0.1589221E+03  0.7546771E-02  0.1088944E+00
        -11   -1    0    0    0    0  0.00000000000E+00  0.00000000000E+00  0.18250000000E+03  0.18250000000E+03  0.00000000000E+00 0. -1.
         11   -1    0    0    0    0 -0.00000000000E+00 -0.00000000000E+00 -0.18250000000E+03  0.18250000000E+03  0.00000000000E+00 0. -1.
        -11    1    1    2    0    0  0.96655047568E+00 -0.31297585059E+01  0.16059739834E+03  0.16063080016E+03  0.00000000000E+00 0. -1.
         11    1    1    2    0    0  0.50023118937E+01  0.25234610862E+01 -0.15718842397E+03  0.15728824371E+03  0.00000000000E+00 0. -1.
        -15    1    1    2    0    0 -0.83484649839E+01  0.17853581733E+02  0.12519336235E+02  0.23416634196E+02  0.17770000000E+01 0.  1.
         15    1    1    2    0    0  0.23796026144E+01 -0.17247284313E+02 -0.15928310605E+02  0.23664321932E+02  0.17770000000E+01 0. -1.
</event>
<event>
 6    1  0.2214897E-002  0.1826131E+03  0.7546771E-02  0.1068365E+00
        -11   -1    0    0    0    0  0.00000000000E+00  0.00000000000E+00  0.18250000000E+03  0.18250000000E+03  0.00000000000E+00 0.  1.
         11   -1    0    0    0    0 -0.00000000000E+00 -0.00000000000E+00 -0.18250000000E+03  0.18250000000E+03  0.00000000000E+00 0. -1.
        -11    1    1    2    0    0  0.25967424309E+01  0.99447820153E+00  0.18236565613E+03  0.18238685423E+03  0.00000000000E+00 0.  1.
         11    1    1    2    0    0 -0.76729379770E+00 -0.14791525630E+01 -0.20691641628E+02  0.20758628696E+02  0.00000000000E+00 0. -1.
        -15    1    1    2    0    0 -0.23376980292E+01  0.38802726844E+00 -0.26045954246E+02  0.26213829534E+02  0.17770000000E+01 0.  1.
         15    1    1    2    0    0  0.50824939601E+00  0.96647093013E-01 -0.13562806026E+03  0.13564068754E+03  0.17770000000E+01 0. -1.
</event>
<event>
 6    1  0.1298204E-002  0.1833506E+03  0.7546771E-02  0.1067780E+00
        -11   -1    0    0    0    0  0.00000000000E+00  0.00000000000E+00  0.18250000000E+03  0.18250000000E+03  0.00000000000E+00 0. -1.
         11   -1    0    0    0    0 -0.00000000000E+00 -0.00000000000E+00 -0.18250000000E+03  0.18250000000E+03  0.00000000000E+00 0.  1.
        -11    1    1    2    0    0 -0.18146116870E+01  0.39191988272E+01  0.18159805836E+03  0.18164940885E+03  0.00000000000E+00 0. -1.
         11    1    1    2    0    0  0.18020735387E+01  0.57216473179E+01 -0.10094822951E+03  0.10112630597E+03  0.00000000000E+00 0.  1.
        -15    1    1    2    0    0  0.47606001471E+01  0.20341064074E-01 -0.27656421113E+02  0.28119372065E+02  0.17770000000E+01 0.  1.
         15    1    1    2    0    0 -0.47480619988E+01 -0.96611872092E+01 -0.52993407737E+02  0.54104913119E+02  0.17770000000E+01 0. -1.
</event>
<event>
 6    1  0.1298204E-002  0.1832747E+03  0.7546771E-02  0.1067840E+00
        -11   -1    0    0    0    0  0.00000000000E+00  0.00000000000E+00  0.18250000000E+03  0.18250000000E+03  0.00000000000E+00 0.  1.
         11   -1    0    0    0    0 -0.00000000000E+00 -0.00000000000E+00 -0.18250000000E+03  0.18250000000E+03  0.00000000000E+00 0.  1.
        -11    1    1    2    0    0 -0.22647198834E+01 -0.27129469337E+01  0.13049019224E+03  0.13053803779E+03  0.00000000000E+00 0.  1.
         11    1    1    2    0    0 -0.68187469890E+01  0.52178365150E+01 -0.18152233123E+03  0.18172528130E+03  0.00000000000E+00 0.  1.
        -15    1    1    2    0    0  0.75314872597E+01 -0.23513071673E+00  0.46532145282E+02  0.47171780339E+02  0.17770000000E+01 0. -1.
         15    1    1    2    0    0  0.15519796128E+01 -0.22697588645E+01  0.44999937074E+01  0.55649005730E+01  0.17770000000E+01 0.  1.
</event>
<event>
 6    1  0.1298204E-002  0.1841773E+03  0.7546771E-02  0.1067127E+00
        -11   -1    0    0    0    0  0.00000000000E+00  0.00000000000E+00  0.18250000000E+03  0.18250000000E+03  0.00000000000E+00 0. -1.
         11   -1    0    0    0    0 -0.00000000000E+00 -0.00000000000E+00 -0.18250000000E+03  0.18250000000E+03  0.00000000000E+00 0. -1.
        -11    1    1    2    0    0 -0.61187797343E+01  0.18294398120E+02  0.17979072949E+03  0.18082265035E+03  0.00000000000E+00 0. -1.
         11    1    1    2    0    0  0.37122362871E-01  0.68825084555E+00 -0.28962442732E+02  0.28970643008E+02  0.00000000000E+00 0. -1.
        -15    1    1    2    0    0  0.46690431186E+01 -0.16417970159E+01 -0.11706269191E+03  0.11718074513E+03  0.17770000000E+01 0. -1.
         15    1    1    2    0    0  0.14126142528E+01 -0.17340851949E+02 -0.33765594842E+02  0.38025961519E+02  0.17770000000E+01 0.  1.
</event>
<event>
 6    1  0.1298204E-002  0.1826161E+03  0.7546771E-02  0.1068362E+00
        -11   -1    0    0    0    0  0.00000000000E+00  0.00000000000E+00  0.18250000000E+03  0.18250000000E+03  0.00000000000E+00 0.  1.
         11   -1    0    0    0    0 -0.00000000000E+00 -0.00000000000E+00 -0.18250000000E+03  0.18250000000E+03  0.00000000000E+00 0. -1.
        -11    1    1    2    0    0 -0.94406045134E+00  0.11817469656E+00  0.47827286484E+02  0.47836748926E+02  0.00000000000E+00 0.  1.
         11    1    1    2    0    0 -0.24782993460E+01  0.14208621137E+01 -0.18236154471E+03  0.18238391871E+03  0.00000000000E+00 0. -1.
        -15    1    1    2    0    0  0.35050048666E+01 -0.44975767785E+00  0.12262511282E+03  0.12268888851E+03  0.17770000000E+01 0.  1.
         15    1    1    2    0    0 -0.82645069227E-01 -0.10892791324E+01  0.11909145403E+02  0.12090443849E+02  0.17770000000E+01 0.  1.
</event>
<event>
 6    1  0.1298204E-002  0.1848372E+03  0.7546771E-02  0.1066609E+00
        -11   -1    0    0    0    0  0.00000000000E+00  0.00000000000E+00  0.18250000000E+03  0.18250000000E+03  0.00000000000E+00 0.  1.
         11   -1    0    0    0    0 -0.00000000000E+00 -0.00000000000E+00 -0.18250000000E+03  0.18250000000E+03  0.00000000000E+00 0.  1.
        -11    1    1    2    0    0 -0.39192677369E+00 -0.53949582747E+01  0.18008160158E+03  0.18016282194E+03  0.00000000000E+00 0.  1.
         11    1    1    2    0    0  0.47519301537E+01 -0.12970230677E+01 -0.17086932410E+03  0.17094030838E+03  0.00000000000E+00 0.  1.
        -15    1    1    2    0    0  0.22800797679E-02  0.72196364123E+00  0.42566538069E-01  0.19185352768E+01  0.17770000000E+01 0.  1.
         15    1    1    2    0    0 -0.43622834598E+01  0.59700177011E+01 -0.92548440156E+01  0.11978334404E+02  0.17770000000E+01 0. -1.
</event>
<event>
 6    1  0.1298204E-002  0.1839108E+03  0.7546771E-02  0.1067337E+00
        -11   -1    0    0    0    0  0.00000000000E+00  0.00000000000E+00  0.18250000000E+03  0.18250000000E+03  0.00000000000E+00 0.  1.
         11   -1    0    0    0    0 -0.00000000000E+00 -0.00000000000E+00 -0.18250000000E+03  0.18250000000E+03  0.00000000000E+00 0.  1.
        -11    1    1    2    0    0  0.98014934195E-01  0.29362657491E+01  0.16188457353E+03  0.16191123003E+03  0.00000000000E+00 0.  1.
         11    1    1    2    0    0 -0.12664695760E+01  0.33365243266E+01 -0.18105406198E+03  0.18108923132E+03  0.00000000000E+00 0.  1.
        -15    1    1    2    0    0  0.30190231503E+01  0.48065609963E+00  0.55042184939E+01  0.65421465359E+01  0.17770000000E+01 0. -1.
         15    1    1    2    0    0 -0.18505685085E+01 -0.67534461753E+01  0.13665269958E+02  0.15457392118E+02  0.17770000000E+01 0.  1.
</event>
<event>
 6    1  0.1298204E-002  0.2100736E+03  0.7546771E-02  0.1048406E+00
        -11   -1    0    0    0    0  0.00000000000E+00  0.00000000000E+00  0.18250000000E+03  0.18250000000E+03  0.00000000000E+00 0.  1.
         11   -1    0    0    0    0 -0.00000000000E+00 -0.00000000000E+00 -0.18250000000E+03  0.18250000000E+03  0.00000000000E+00 0. -1.
        -11    1    1    2    0    0  0.22086581517E+01 -0.23936935551E+01  0.10235107009E+03  0.10240287832E+03  0.00000000000E+00 0.  1.
         11    1    1    2    0    0 -0.85733423918E+01  0.18965455122E+01 -0.15467733597E+03  0.15492636104E+03  0.00000000000E+00 0. -1.
        -15    1    1    2    0    0  0.10413989378E+02 -0.41848139347E+01 -0.26368609726E+02  0.28712804640E+02  0.17770000000E+01 0.  1.
         15    1    1    2    0    0 -0.40493051375E+01  0.46819619776E+01  0.78694875601E+02  0.78957955995E+02  0.17770000000E+01 0.  1.
</event>
<event>
 6    1  0.1298204E-002  0.1906632E+03  0.7546771E-02  0.1062136E+00
        -11   -1    0    0    0    0  0.00000000000E+00  0.00000000000E+00  0.18250000000E+03  0.18250000000E+03  0.00000000000E+00 0.  1.
         11   -1    0    0    0    0 -0.00000000000E+00 -0.00000000000E+00 -0.18250000000E+03  0.18250000000E+03  0.00000000000E+00 0. -1.
        -11    1    1    2    0    0 -0.19282397819E+00 -0.46416332408E+01  0.17427493979E+03  0.17433684802E+03  0.00000000000E+00 0.  1.
         11    1    1    2    0    0  0.87162241577E+00 -0.33034926640E-01 -0.50010249748E+02  0.50017855780E+02  0.00000000000E+00 0. -1.
        -15    1    1    2    0    0  0.72593672290E+01  0.18068191109E+02 -0.47684322841E+01  0.20125943903E+02  0.17770000000E+01 0.  1.
         15    1    1    2    0    0 -0.79381656666E+01 -0.13393522942E+02 -0.11949625776E+03  0.12051935230E+03  0.17770000000E+01 0. -1.
</event>
<event>
 6    1  0.1298204E-002  0.1896190E+03  0.7546771E-02  0.1062925E+00
        -11   -1    0    0    0    0  0.00000000000E+00  0.00000000000E+00  0.18250000000E+03  0.18250000000E+03  0.00000000000E+00 0.  1.
         11   -1    0    0    0    0 -0.00000000000E+00 -0.00000000000E+00 -0.18250000000E+03  0.18250000000E+03  0.00000000000E+00 0. -1.
        -11    1    1    2    0    0 -0.41939056802E+00 -0.28773990449E+01  0.17535690348E+03  0.17538101069E+03  0.00000000000E+00 0.  1.
         11    1    1    2    0    0  0.17348278259E+01 -0.25525740595E+01 -0.16525801116E+03  0.16528682801E+03  0.00000000000E+00 0. -1.
        -15    1    1    2    0    0 -0.10856572737E+01  0.59082909077E+01 -0.16509821055E+02  0.17658382526E+02  0.17770000000E+01 0.  1.
         15    1    1    2    0    0 -0.22977998417E+00 -0.47831780333E+00  0.64109287363E+01  0.66737787665E+01  0.17770000000E+01 0.  1.
</event>
<event>
 6    1  0.1298204E-002  0.2052534E+03  0.7546771E-02  0.1051660E+00
        -11   -1    0    0    0    0  0.00000000000E+00  0.00000000000E+00  0.18250000000E+03  0.18250000000E+03  0.00000000000E+00 0.  1.
         11   -1    0    0    0    0 -0.00000000000E+00 -0.00000000000E+00 -0.18250000000E+03  0.18250000000E+03  0.00000000000E+00 0.  1.
        -11    1    1    2    0    0  0.87693752236E-01  0.11591577967E+02  0.15266397771E+03  0.15310343713E+03  0.00000000000E+00 0.  1.
         11    1    1    2    0    0 -0.80761030048E+00 -0.24890910468E+01 -0.15972513617E+03  0.15974657096E+03  0.00000000000E+00 0.  1.
        -15    1    1    2    0    0  0.11130574405E+01  0.44445991116E+01 -0.20663017484E+02  0.21239382728E+02  0.17770000000E+01 0.  1.
         15    1    1    2    0    0 -0.39314089223E+00 -0.13547086032E+02  0.27724175938E+02  0.30910609185E+02  0.17770000000E+01 0.  1.
</event>
<event>
 6    1  0.1298204E-002  0.1790770E+03  0.7546771E-02  0.1071213E+00
        -11   -1    0    0    0    0  0.00000000000E+00  0.00000000000E+00  0.18250000000E+03  0.18250000000E+03  0.00000000000E+00 0. -1.
         11   -1    0    0    0    0 -0.00000000000E+00 -0.00000000000E+00 -0.18250000000E+03  0.18250000000E+03  0.00000000000E+00 0. -1.
        -11    1    1    2    0    0 -0.63806307015E+00 -0.25923817931E+01  0.17859308599E+03  0.17861303964E+03  0.00000000000E+00 0. -1.
         11    1    1    2    0    0 -0.27466865124E+01  0.22124451901E+01 -0.17952374459E+03  0.17955838624E+03  0.00000000000E+00 0. -1.
        -15    1    1    2    0    0  0.17494453950E+01  0.16384817231E+01 -0.13514457031E+01  0.32755634684E+01  0.17770000000E+01 0. -1.
         15    1    1    2    0    0  0.16353041876E+01 -0.12585451200E+01  0.22821043022E+01  0.35530106461E+01  0.17770000000E+01 0.  1.
</event>
<event>
 6    1  0.1298204E-002  0.1737921E+03  0.7546771E-02  0.1075606E+00
        -11   -1    0    0    0    0  0.00000000000E+00  0.00000000000E+00  0.18250000000E+03  0.18250000000E+03  0.00000000000E+00 0.  1.
         11   -1    0    0    0    0 -0.00000000000E+00 -0.00000000000E+00 -0.18250000000E+03  0.18250000000E+03  0.00000000000E+00 0.  1.
        -11    1    1    2    0    0  0.44667184291E+01 -0.37042332040E+01  0.17166387115E+03  0.17176192120E+03  0.00000000000E+00 0.  1.
         11    1    1    2    0    0 -0.70649891487E+01 -0.41907016302E+01 -0.17575382184E+03  0.17594567895E+03  0.00000000000E+00 0.  1.
        -15    1    1    2    0    0 -0.21828469662E+01  0.28400375435E+01  0.81247531260E+01  0.90553838397E+01  0.17770000000E+01 0.  1.
         15    1    1    2    0    0  0.47811176858E+01  0.50548972907E+01 -0.40348024380E+01  0.82370160045E+01  0.17770000000E+01 0. -1.
</event>
<event>
 6    1  0.1298204E-002  0.1749374E+03  0.7546771E-02  0.1074639E+00
        -11   -1    0    0    0    0  0.00000000000E+00  0.00000000000E+00  0.18250000000E+03  0.18250000000E+03  0.00000000000E+00 0.  1.
         11   -1    0    0    0    0 -0.00000000000E+00 -0.00000000000E+00 -0.18250000000E+03  0.18250000000E+03  0.00000000000E+00 0. -1.
        -11    1    1    2    0    0 -0.12893231848E+01 -0.40921687339E+01  0.17550405828E+03  0.17555649425E+03  0.00000000000E+00 0.  1.
         11    1    1    2    0    0 -0.12317995013E+01 -0.27149896591E+01 -0.17436999404E+03  0.17439547964E+03  0.00000000000E+00 0. -1.
        -15    1    1    2    0    0  0.54934569973E+01  0.77381707595E+01 -0.40068506864E+01  0.10453226196E+02  0.17770000000E+01 0. -1.
         15    1    1    2    0    0 -0.29723343111E+01 -0.93101236654E+00  0.28727864462E+01  0.45947999140E+01  0.17770000000E+01 0.  1.
</event>
<event>
 6    1  0.1298204E-002  0.1845809E+03  0.7546771E-02  0.1066810E+00
        -11   -1    0    0    0    0  0.00000000000E+00  0.00000000000E+00  0.18250000000E+03  0.18250000000E+03  0.00000000000E+00 0.  1.
         11   -1    0    0    0    0 -0.00000000000E+00 -0.00000000000E+00 -0.18250000000E+03  0.18250000000E+03  0.00000000000E+00 0. -1.
        -11    1    1    2    0    0  0.28608154480E+01 -0.11742175244E+01  0.16778537753E+03  0.16781387298E+03  0.00000000000E+00 0.  1.
         11    1    1    2    0    0  0.29589993589E+01  0.77890090277E+00 -0.18039315898E+03  0.18041910700E+03  0.00000000000E+00 0. -1.
        -15    1    1    2    0    0 -0.33657908696E+01  0.20054239429E+01  0.12622916545E+02  0.13335892339E+02  0.17770000000E+01 0. -1.
         15    1    1    2    0    0 -0.24540239373E+01 -0.16101073212E+01 -0.15135100213E-01  0.34311276779E+01  0.17770000000E+01 0. -1.
</event>
<event>
 6    1  0.1298204E-002  0.1842956E+03  0.7546771E-02  0.1067034E+00
        -11   -1    0    0    0    0  0.00000000000E+00  0.00000000000E+00  0.18250000000E+03  0.18250000000E+03  0.00000000000E+00 0. -1.
         11   -1    0    0    0    0 -0.00000000000E+00 -0.00000000000E+00 -0.18250000000E+03  0.18250000000E+03  0.00000000000E+00 0.  1.
        -11    1    1    2    0    0 -0.23712869923E+01  0.15497001680E+01  0.17050387423E+03  0.17052740454E+03  0.00000000000E+00 0. -1.
         11    1    1    2    0    0 -0.32469486240E+01  0.14366418670E+01 -0.18066949782E+03  0.18070438306E+03  0.00000000000E+00 0.  1.
        -15    1    1    2    0    0  0.23339596929E+01 -0.19837672350E+01  0.79235632764E+00  0.36288094247E+01  0.17770000000E+01 0. -1.
         15    1    1    2    0    0  0.32842759234E+01 -0.10025748000E+01  0.93732672584E+01  0.10139402974E+02  0.17770000000E+01 0.  1.
</event>
<event>
 6    1  0.1298204E-002  0.1832342E+03  0.7546771E-02  0.1067872E+00
        -11   -1    0    0    0    0  0.00000000000E+00  0.00000000000E+00  0.18250000000E+03  0.18250000000E+03  0.00000000000E+00 0.  1.
         11   -1    0    0    0    0 -0.00000000000E+00 -0.00000000000E+00 -0.18250000000E+03  0.18250000000E+03  0.00000000000E+00 0.  1.
        -11    1    1    2    0    0  0.13304600920E-01 -0.33205562728E+01  0.12674392048E+03  0.12678741124E+03  0.00000000000E+00 0.  1.
         11    1    1    2    0    0 -0.84469592482E+01 -0.43811062428E+00 -0.18156885434E+03  0.18176576116E+03  0.00000000000E+00 0.  1.
        -15    1    1    2    0    0  0.48840996417E+01  0.48646781068E+01  0.47599964621E+02  0.48129345344E+02  0.17770000000E+01 0.  1.
         15    1    1    2    0    0  0.35495550055E+01 -0.11060112098E+01  0.72249692435E+01  0.83174822574E+01  0.17770000000E+01 0. -1.
</event>
<event>
 6    1  0.1298204E-002  0.1973874E+03  0.7546771E-02  0.1057186E+00
        -11   -1    0    0    0    0  0.00000000000E+00  0.00000000000E+00  0.18250000000E+03  0.18250000000E+03  0.00000000000E+00 0. -1.
         11   -1    0    0    0    0 -0.00000000000E+00 -0.00000000000E+00 -0.18250000000E+03  0.18250000000E+03  0.00000000000E+00 0. -1.
        -11    1    1    2    0    0  0.52034605443E+01  0.31183082518E+00  0.16753152090E+03  0.16761260017E+03  0.00000000000E+00 0. -1.
         11    1    1    2    0    0 -0.26885371521E+01 -0.97298281447E+00 -0.15807720634E+03  0.15810306162E+03  0.00000000000E+00 0. -1.
        -15    1    1    2    0    0  0.23843991288E+01 -0.22323945227E+01 -0.23622423994E+02  0.23913293142E+02  0.17770000000E+01 0.  1.
         15    1    1    2    0    0 -0.48993225210E+01  0.28935465120E+01  0.14168109440E+02  0.15371045074E+02  0.17770000000E+01 0. -1.
</event>
<event>
 6    1  0.1298204E-002  0.1868385E+03  0.7546771E-02  0.1065053E+00
        -11   -1    0    0    0    0  0.00000000000E+00  0.00000000000E+00  0.18250000000E+03  0.18250000000E+03  0.00000000000E+00 0. -1.
         11   -1    0    0    0    0 -0.00000000000E+00 -0.00000000000E+00 -0.18250000000E+03  0.18250000000E+03  0.00000000000E+00 0.  1.
        -11    1    1    2    0    0 -0.25155198374E+01  0.30260210887E+01  0.17811808738E+03  0.17816154943E+03  0.00000000000E+00 0. -1.
         11    1    1    2    0    0 -0.27719088797E+01  0.33955385952E+01 -0.15476552110E+03  0.15482758049E+03  0.00000000000E+00 0.  1.
        -15    1    1    2    0    0  0.22443596253E+01 -0.52656670418E+01  0.20535088035E+01  0.63355368304E+01  0.17770000000E+01 0. -1.
         15    1    1    2    0    0  0.30430690919E+01 -0.11558926421E+01 -0.25406075083E+02  0.25675333249E+02  0.17770000000E+01 0.  1.
</event>
<event>
 6    1  0.1298204E-002  0.1881254E+03  0.7546771E-02  0.1064063E+00
        -11   -1    0    0    0    0  0.00000000000E+00  0.00000000000E+00  0.18250000000E+03  0.18250000000E+03  0.00000000000E+00 0.  1.
         11   -1    0    0    0    0 -0.00000000000E+00 -0.00000000000E+00 -0.18250000000E+03  0.18250000000E+03  0.00000000000E+00 0.  1.
        -11    1    1    2    0    0 -0.24909138985E+01  0.13447415191E+01  0.17685194695E+03  0.17687459999E+03  0.00000000000E+00 0.  1.
         11    1    1    2    0    0 -0.84731249064E+01  0.10475350731E+02 -0.15763840146E+03  0.15821312346E+03  0.00000000000E+00 0.  1.
        -15    1    1    2    0    0  0.86181144365E+01 -0.10333264054E+02 -0.21828570822E+02  0.25703938912E+02  0.17770000000E+01 0. -1.
         15    1    1    2    0    0  0.23459243685E+01 -0.14868281963E+01  0.26150253320E+01  0.42083376427E+01  0.17770000000E+01 0. -1.
</event>
<event>
 6    1  0.1298204E-002  0.1826301E+03  0.7546771E-02  0.1068351E+00
        -11   -1    0    0    0    0  0.00000000000E+00  0.00000000000E+00  0.18250000000E+03  0.18250000000E+03  0.00000000000E+00 0.  1.
         11   -1    0    0    0    0 -0.00000000000E+00 -0.00000000000E+00 -0.18250000000E+03  0.18250000000E+03  0.00000000000E+00 0.  1.
        -11    1    1    2    0    0  0.29575224755E+01 -0.23817021862E+01  0.18233037070E+03  0.18236990850E+03  0.00000000000E+00 0.  1.
         11    1    1    2    0    0 -0.10013715352E+01  0.48974203060E+01 -0.87432377650E+02  0.87575157048E+02  0.00000000000E+00 0.  1.
        -15    1    1    2    0    0 -0.11816989143E+01 -0.50536853038E+00 -0.23433694852E+02  0.23536091287E+02  0.17770000000E+01 0.  1.
         15    1    1    2    0    0 -0.77445202600E+00 -0.20103495894E+01 -0.71464298202E+02  0.71518843167E+02  0.17770000000E+01 0.  1.
</event>
<event>
 6    1  0.1298204E-002  0.1869540E+03  0.7546771E-02  0.1064964E+00
        -11   -1    0    0    0    0  0.00000000000E+00  0.00000000000E+00  0.18250000000E+03  0.18250000000E+03  0.00000000000E+00 0. -1.
         11   -1    0    0    0    0 -0.00000000000E+00 -0.00000000000E+00 -0.18250000000E+03  0.18250000000E+03  0.00000000000E+00 0.  1.
        -11    1    1    2    0    0  0.22843280171E+00  0.29338005471E+01  0.17802165081E+03  0.17804597025E+03  0.00000000000E+00 0. -1.
         11    1    1    2    0    0  0.46901244203E+00 -0.33070416510E+01 -0.17330971342E+03  0.17334189702E+03  0.00000000000E+00 0.  1.
        -15    1    1    2    0    0 -0.50156089014E+00 -0.25301584902E+01  0.35141073414E+01  0.47074350467E+01  0.17770000000E+01 0. -1.
         15    1    1    2    0    0 -0.19588435360E+00  0.29033995941E+01 -0.82260447278E+01  0.89046976786E+01  0.17770000000E+01 0. -1.
</event>
<event>
 6    1  0.1298204E-002  0.1828708E+03  0.7546771E-02  0.1068160E+00
        -11   -1    0    0    0    0  0.00000000000E+00  0.00000000000E+00  0.18250000000E+03  0.18250000000E+03  0.00000000000E+00 0. -1.
         11   -1    0    0    0    0 -0.00000000000E+00 -0.00000000000E+00 -0.18250000000E+03  0.18250000000E+03  0.00000000000E+00 0. -1.
        -11    1    1    2    0    0 -0.38720960948E+01  0.17331896126E+01  0.18207975616E+03  0.18212917031E+03  0.00000000000E+00 0. -1.
         11    1    1    2    0    0  0.80305330003E+00 -0.17075528043E+01 -0.83399555115E+02  0.83420899207E+02  0.00000000000E+00 0. -1.
        -15    1    1    2    0    0 -0.34796195202E+01  0.18530813868E+01 -0.20374578100E+02  0.20828413871E+02  0.17770000000E+01 0.  1.
         15    1    1    2    0    0  0.65486623151E+01 -0.18787181951E+01 -0.78305622946E+02  0.78621516611E+02  0.17770000000E+01 0. -1.
</event>
<event>
 6    1  0.1298204E-002  0.1886992E+03  0.7546771E-02  0.1063625E+00
        -11   -1    0    0    0    0  0.00000000000E+00  0.00000000000E+00  0.18250000000E+03  0.18250000000E+03  0.00000000000E+00 0.  1.
         11   -1    0    0    0    0 -0.00000000000E+00 -0.00000000000E+00 -0.18250000000E+03  0.18250000000E+03  0.00000000000E+00 0.  1.
        -11    1    1    2    0    0  0.11844248783E+01  0.43681470630E+01  0.16652223391E+03  0.16658372657E+03  0.00000000000E+00 0.  1.
         11    1    1    2    0    0  0.50139658530E+00 -0.41665449939E+01 -0.17625084309E+03  0.17630079746E+03  0.00000000000E+00 0.  1.
        -15    1    1    2    0    0 -0.79278864630E+01 -0.12156419144E+01 -0.21940735883E+01  0.85029910587E+01  0.17770000000E+01 0. -1.
         15    1    1    2    0    0  0.62420649994E+01  0.10140398454E+01  0.11922682759E+02  0.13612484911E+02  0.17770000000E+01 0.  1.
</event>
<event>
 6    1  0.1298204E-002  0.1835892E+03  0.7546771E-02  0.1067591E+00
        -11   -1    0    0    0    0  0.00000000000E+00  0.00000000000E+00  0.18250000000E+03  0.18250000000E+03  0.00000000000E+00 0. -1.
         11   -1    0    0    0    0 -0.00000000000E+00 -0.00000000000E+00 -0.18250000000E+03  0.18250000000E+03  0.00000000000E+00 0.  1.
        -11    1    1    2    0    0  0.46448941971E+01  0.35875736983E+01  0.16364525328E+03  0.16375046457E+03  0.00000000000E+00 0. -1.
         11    1    1    2    0    0 -0.16548846151E+01 -0.19672141383E+01 -0.18139258279E+03  0.18141079810E+03  0.00000000000E+00 0.  1.
        -15    1    1    2    0    0  0.19184233115E+01 -0.20003090748E+01  0.96585571510E+01  0.10204265757E+02  0.17770000000E+01 0.  1.
         15    1    1    2    0    0 -0.49084328935E+01  0.37994951485E+00  0.80887723658E+01  0.96344715729E+01  0.17770000000E+01 0. -1.
</event>
<event>
 6    1  0.1298204E-002  0.1832421E+03  0.7546771E-02  0.1067866E+00
        -11   -1    0    0    0    0  0.00000000000E+00  0.00000000000E+00  0.18250000000E+03  0.18250000000E+03  0.00000000000E+00 0.  1.
         11   -1    0    0    0    0 -0.00000000000E+00 -0.00000000000E+00 -0.18250000000E+03  0.18250000000E+03  0.00000000000E+00 0. -1.
        -11    1    1    2    0    0  0.19479005265E+01 -0.46479512770E+01  0.12790877893E+03  0.12800802122E+03  0.00000000000E+00 0.  1.
         11    1    1    2    0    0 -0.47902143756E+00 -0.28967484008E+01 -0.18173416902E+03  0.18175788512E+03  0.00000000000E+00 0. -1.
        -15    1    1    2    0    0 -0.57678483769E+00  0.77583526314E+01  0.51713526680E+02  0.52325627440E+02  0.17770000000E+01 0.  1.
         15    1    1    2    0    0 -0.89209425122E+00 -0.21365295355E+00  0.21118634084E+01  0.29084662270E+01  0.17770000000E+01 0. -1.
</event>
<event>
 6    1  0.1298204E-002  0.1940548E+03  0.7546771E-02  0.1059612E+00
        -11   -1    0    0    0    0  0.00000000000E+00  0.00000000000E+00  0.18250000000E+03  0.18250000000E+03  0.00000000000E+00 0.  1.
         11   -1    0    0    0    0 -0.00000000000E+00 -0.00000000000E+00 -0.18250000000E+03  0.18250000000E+03  0.00000000000E+00 0.  1.
        -11    1    1    2    0    0  0.10546034443E+01  0.22785255028E+01  0.16089797196E+03  0.16091756041E+03  0.00000000000E+00 0.  1.
         11    1    1    2    0    0 -0.10048180472E+02 -0.13090369394E+02 -0.17014684585E+03  0.17094523349E+03  0.00000000000E+00 0.  1.
        -15    1    1    2    0    0 -0.48877147087E+01  0.40207749062E+01  0.15138568847E+02  0.16504253442E+02  0.17770000000E+01 0. -1.
         15    1    1    2    0    0  0.13881291736E+02  0.67910689852E+01 -0.58896949644E+01  0.16632952654E+02  0.17770000000E+01 0.  1.
</event>
<event>
 6    1  0.1298204E-002  0.1838902E+03  0.7546771E-02  0.1067354E+00
        -11   -1    0    0    0    0  0.00000000000E+00  0.00000000000E+00  0.18250000000E+03  0.18250000000E+03  0.00000000000E+00 0.  1.
         11   -1    0    0    0    0 -0.00000000000E+00 -0.00000000000E+00 -0.18250000000E+03  0.18250000000E+03  0.00000000000E+00 0.  1.
        -11    1    1    2    0    0 -0.23529962339E+01  0.27530051578E+00  0.16175334397E+03  0.16177069162E+03  0.00000000000E+00 0.  1.
         11    1    1    2    0    0  0.19381714515E+01  0.28652305076E+01 -0.18107671801E+03  0.18110975639E+03  0.00000000000E+00 0.  1.
        -15    1    1    2    0    0  0.39806950427E+01 -0.20202902379E+01  0.16302288533E+02  0.16995583135E+02  0.17770000000E+01 0.  1.
         15    1    1    2    0    0 -0.35658702604E+01 -0.11202407855E+01  0.30210855085E+01  0.51239688505E+01  0.17770000000E+01 0. -1.
</event>
<event>
 6    1  0.1298204E-002  0.1764426E+03  0.7546771E-02  0.1073381E+00
        -11   -1    0    0    0    0  0.00000000000E+00  0.00000000000E+00  0.18250000000E+03  0.18250000000E+03  0.00000000000E+00 0. -1.
         11   -1    0    0    0    0 -0.00000000000E+00 -0.00000000000E+00 -0.18250000000E+03  0.18250000000E+03  0.00000000000E+00 0.  1.
        -11    1    1    2    0    0 -0.12936654801E+01  0.21097476178E+01  0.17547236627E+03  0.17548981717E+03  0.00000000000E+00 0. -1.
         11    1    1    2    0    0 -0.16242221962E-01 -0.93896897581E+01 -0.17722870220E+03  0.17747726452E+03  0.00000000000E+00 0.  1.
        -15    1    1    2    0    0  0.10054183058E+01  0.14012581647E+01  0.46261734983E+01  0.52472469591E+01  0.17770000000E+01 0. -1.
         15    1    1    2    0    0  0.30448939621E+00  0.58786839755E+01 -0.28698375624E+01  0.67856713530E+01  0.17770000000E+01 0.  1.
</event>
<event>
 6    1  0.1298204E-002  0.1842248E+03  0.7546771E-02  0.1067090E+00
        -11   -1    0    0    0    0  0.00000000000E+00  0.00000000000E+00  0.18250000000E+03  0.18250000000E+03  0.00000000000E+00 0. -1.
         11   -1    0    0    0    0 -0.00000000000E+00 -0.00000000000E+00 -0.18250000000E+03  0.18250000000E+03  0.00000000000E+00 0. -1.
        -11    1    1    2    0    0  0.14771104858E+01  0.49923351665E+01  0.18070018734E+03  0.18077517244E+03  0.00000000000E+00 0. -1.
         11    1    1    2    0    0  0.48165118496E+00 -0.87985153607E+00 -0.68872056906E+02  0.68879360836E+02  0.00000000000E+00 0. -1.
        -15    1    1    2    0    0 -0.11984333134E+02  0.55526708271E+01 -0.68995962772E+02  0.70271309948E+02  0.17770000000E+01 0. -1.
         15    1    1    2    0    0  0.10025571463E+02 -0.96651544575E+01 -0.42832167660E+02  0.45074156779E+02  0.17770000000E+01 0.  1.
</event>
<event>
 6    1  0.1298204E-002  0.1830314E+03  0.7546771E-02  0.1068033E+00
        -11   -1    0    0    0    0  0.00000000000E+00  0.00000000000E+00  0.18250000000E+03  0.18250000000E+03  0.00000000000E+00 0. -1.
         11   -1    0    0    0    0 -0.00000000000E+00 -0.00000000000E+00 -0.18250000000E+03  0.18250000000E+03  0.00000000000E+00 0.  1.
        -11    1    1    2    0    0 -0.28524989297E+01 -0.34847848963E+00  0.18194586545E+03  0.18196855811E+03  0.00000000000E+00 0. -1.
         11    1    1    2    0    0 -0.31983275187E+01 -0.40671159303E+01 -0.56647685594E+02  0.56883486304E+02  0.00000000000E+00 0.  1.
        -15    1    1    2    0    0  0.17593865006E+01 -0.17316449329E+00 -0.43263041231E+01  0.50000063166E+01  0.17770000000E+01 0. -1.
         15    1    1    2    0    0  0.42914399478E+01  0.45887589132E+01 -0.12097187573E+03  0.12114794927E+03  0.17770000000E+01 0.  1.
</event>
<event>
 6    1  0.1298204E-002  0.1832452E+03  0.7546771E-02  0.1067863E+00
        -11   -1    0    0    0    0  0.00000000000E+00  0.00000000000E+00  0.18250000000E+03  0.18250000000E+03  0.00000000000E+00 0. -1.
         11   -1    0    0    0    0 -0.00000000000E+00 -0.00000000000E+00 -0.18250000000E+03  0.18250000000E+03  0.00000000000E+00 0.  1.
        -11    1    1    2    0    0  0.13822392770E+01  0.29551148320E+01  0.16783339599E+03  0.16786510089E+03  0.00000000000E+00 0. -1.
         11    1    1    2    0    0 -0.40235649993E+01 -0.21112162480E+01 -0.18169802595E+03  0.18175483197E+03  0.00000000000E+00 0.  1.
        -15    1    1    2    0    0  0.52432390193E+00 -0.26389135325E+01  0.53066313816E+01  0.62094158989E+01  0.17770000000E+01 0.  1.
         15    1    1    2    0    0  0.21170018204E+01  0.17950149485E+01  0.85579985838E+01  0.91706512382E+01  0.17770000000E+01 0. -1.
</event>
<event>
 6    1  0.1298204E-002  0.1826236E+03  0.7546771E-02  0.1068356E+00
        -11   -1    0    0    0    0  0.00000000000E+00  0.00000000000E+00  0.18250000000E+03  0.18250000000E+03  0.00000000000E+00 0.  1.
         11   -1    0    0    0    0 -0.00000000000E+00 -0.00000000000E+00 -0.18250000000E+03  0.18250000000E+03  0.00000000000E+00 0. -1.
        -11    1    1    2    0    0  0.92760201410E+00  0.15752540556E+01  0.90112866491E+02  0.90131407279E+02  0.00000000000E+00 0.  1.
         11    1    1    2    0    0 -0.41930513333E+01  0.96209212381E+00 -0.18232565569E+03  0.18237640205E+03  0.00000000000E+00 0. -1.
        -15    1    1    2    0    0  0.33035915971E+01 -0.34201662993E+00  0.69885106495E+02  0.69986545361E+02  0.17770000000E+01 0.  1.
         15    1    1    2    0    0 -0.38142277851E-01 -0.21953295495E+01  0.22327682708E+02  0.22505645309E+02  0.17770000000E+01 0. -1.
</event>
<event>
 6    1  0.1298204E-002  0.1855463E+03  0.7546771E-02  0.1066056E+00
        -11   -1    0    0    0    0  0.00000000000E+00  0.00000000000E+00  0.18250000000E+03  0.18250000000E+03  0.00000000000E+00 0. -1.
         11   -1    0    0    0    0 -0.00000000000E+00 -0.00000000000E+00 -0.18250000000E+03  0.18250000000E+03  0.00000000000E+00 0. -1.
        -11    1    1    2    0    0 -0.60511728076E+01  0.25435754373E+01  0.17933365794E+03  0.17945374707E+03  0.00000000000E+00 0. -1.
         11    1    1    2    0    0  0.80862024858E+01  0.13883793983E+01 -0.17253960777E+03  0.17273456665E+03  0.00000000000E+00 0. -1.
        -15    1    1    2    0    0  0.35968778265E+01 -0.10278994288E+01 -0.16470570549E+01  0.44569757994E+01  0.17770000000E+01 0.  1.
         15    1    1    2    0    0 -0.56319075047E+01 -0.29040554068E+01 -0.51469931174E+01  0.83547104736E+01  0.17770000000E+01 0. -1.
</event>
<event>
 6    1  0.1298204E-002  0.1855731E+03  0.7546771E-02  0.1066035E+00
        -11   -1    0    0    0    0  0.00000000000E+00  0.00000000000E+00  0.18250000000E+03  0.18250000000E+03  0.00000000000E+00 0. -1.
         11   -1    0    0    0    0 -0.00000000000E+00 -0.00000000000E+00 -0.18250000000E+03  0.18250000000E+03  0.00000000000E+00 0.  1.
        -11    1    1    2    0    0  0.95005606762E+00  0.97772445090E+01  0.15400414821E+03  0.15431712408E+03  0.00000000000E+00 0. -1.
         11    1    1    2    0    0 -0.30968160148E+01  0.12426620995E+01 -0.17939586872E+03  0.17942689930E+03  0.00000000000E+00 0.  1.
        -15    1    1    2    0    0  0.49884533449E+01 -0.11656714639E+02  0.24632269966E+02  0.27760945871E+02  0.17770000000E+01 0. -1.
         15    1    1    2    0    0 -0.28416933977E+01  0.63680803102E+00  0.75945054153E+00  0.34950307523E+01  0.17770000000E+01 0.  1.
</event>
<event>
 6    1  0.1298204E-002  0.1848192E+03  0.7546771E-02  0.1066624E+00
        -11   -1    0    0    0    0  0.00000000000E+00  0.00000000000E+00  0.18250000000E+03  0.18250000000E+03  0.00000000000E+00 0.  1.
         11   -1    0    0    0    0 -0.00000000000E+00 -0.00000000000E+00 -0.18250000000E+03  0.18250000000E+03  0.00000000000E+00 0. -1.
        -11    1    1    2    0    0  0.61696080637E+00 -0.41227826109E+01  0.54761677528E+02  0.54920117469E+02  0.00000000000E+00 0.  1.
         11    1    1    2    0    0  0.42319046993E+00 -0.27458275261E+01 -0.18015939804E+03  0.18018081852E+03  0.00000000000E+00 0. -1.
        -15    1    1    2    0    0  0.14115640109E+02 -0.17179556176E+01  0.34980553715E+02  0.37802110185E+02  0.17770000000E+01 0. -1.
         15    1    1    2    0    0 -0.15155791385E+02  0.85865657545E+01  0.90417166797E+02  0.92096953829E+02  0.17770000000E+01 0.  1.
</event>
<event>
 6    1  0.1298204E-002  0.1843738E+03  0.7546771E-02  0.1066973E+00
        -11   -1    0    0    0    0  0.00000000000E+00  0.00000000000E+00  0.18250000000E+03  0.18250000000E+03  0.00000000000E+00 0. -1.
         11   -1    0    0    0    0 -0.00000000000E+00 -0.00000000000E+00 -0.18250000000E+03  0.18250000000E+03  0.00000000000E+00 0. -1.
        -11    1    1    2    0    0 -0.14763880777E+01  0.25255527214E+01  0.18060250023E+03  0.18062619197E+03  0.00000000000E+00 0. -1.
         11    1    1    2    0    0  0.62664336449E+00 -0.50706708893E+01 -0.13344674591E+03  0.13354451834E+03  0.00000000000E+00 0. -1.
        -15    1    1    2    0    0  0.11372302134E+01  0.41580170913E+01 -0.48032443177E+02  0.48258219251E+02  0.17770000000E+01 0. -1.
         15    1    1    2    0    0 -0.28748550018E+00 -0.16128989234E+01  0.87668885677E+00  0.25710704388E+01  0.17770000000E+01 0.  1.
</event>
<event>
 6    1  0.1298204E-002  0.9729481E+02  0.7546771E-02  0.1168579E+00
        -11   -1    0    0    0    0  0.00000000000E+00  0.00000000000E+00  0.18250000000E+03  0.18250000000E+03  0.00000000000E+00 0.  1.
         11   -1    0    0    0    0 -0.00000000000E+00 -0.00000000000E+00 -0.18250000000E+03  0.18250000000E+03  0.00000000000E+00 0. -1.
        -11    1    1    2    0    0 -0.32704333475E+01  0.60791633231E+01  0.10348309718E+03  0.10371308192E+03  0.00000000000E+00 0.  1.
         11    1    1    2    0    0 -0.33999250912E+02  0.51694444027E+01 -0.12197682299E+03  0.12673206999E+03  0.00000000000E+00 0. -1.
        -15    1    1    2    0    0  0.18691496807E+02  0.61640748976E+01  0.72326349503E+02  0.74977506185E+02  0.17770000000E+01 0.  1.
         15    1    1    2    0    0  0.18578187452E+02 -0.17412682623E+02 -0.53832623694E+02  0.59577341900E+02  0.17770000000E+01 0. -1.
</event>
<event>
 6    1  0.1298204E-002  0.1829509E+03  0.7546771E-02  0.1068096E+00
        -11   -1    0    0    0    0  0.00000000000E+00  0.00000000000E+00  0.18250000000E+03  0.18250000000E+03  0.00000000000E+00 0.  1.
         11   -1    0    0    0    0 -0.00000000000E+00 -0.00000000000E+00 -0.18250000000E+03  0.18250000000E+03  0.00000000000E+00 0. -1.
        -11    1    1    2    0    0  0.34189389712E+01 -0.19011921968E+01  0.18200708399E+03  0.18204912057E+03  0.00000000000E+00 0.  1.
         11    1    1    2    0    0 -0.36174012142E+01 -0.19401095036E+01 -0.15864015553E+03  0.15869325305E+03  0.00000000000E+00 0. -1.
        -15    1    1    2    0    0  0.67550122150E-01  0.67931421838E+00 -0.28838969030E+01  0.34555203911E+01  0.17770000000E+01 0. -1.
         15    1    1    2    0    0  0.13091212081E+00  0.31619874819E+01 -0.20483031563E+02  0.20802105995E+02  0.17770000000E+01 0. -1.
</event>
<event>
 6    1  0.1298204E-002  0.1828642E+03  0.7546771E-02  0.1068165E+00
        -11   -1    0    0    0    0  0.00000000000E+00  0.00000000000E+00  0.18250000000E+03  0.18250000000E+03  0.00000000000E+00 0. -1.
         11   -1    0    0    0    0 -0.00000000000E+00 -0.00000000000E+00 -0.18250000000E+03  0.18250000000E+03  0.00000000000E+00 0.  1.
        -11    1    1    2    0    0 -0.38216838542E+01  0.50140371171E+00  0.38225250342E+02  0.38419089485E+02  0.00000000000E+00 0. -1.
         11    1    1    2    0    0 -0.52155346889E+01 -0.26539309035E+01 -0.18204179450E+03  0.18213582870E+03  0.00000000000E+00 0.  1.
        -15    1    1    2    0    0  0.91703313052E+01  0.13483204814E+01  0.13771421841E+03  0.13803722913E+03  0.17770000000E+01 0. -1.
         15    1    1    2    0    0 -0.13311276209E+00  0.80420671035E+00  0.61023257463E+01  0.64078526789E+01  0.17770000000E+01 0. -1.
</event>
<event>
 6    1  0.1298204E-002  0.1828423E+03  0.7546771E-02  0.1068183E+00
        -11   -1    0    0    0    0  0.00000000000E+00  0.00000000000E+00  0.18250000000E+03  0.18250000000E+03  0.00000000000E+00 0. -1.
         11   -1    0    0    0    0 -0.00000000000E+00 -0.00000000000E+00 -0.18250000000E+03  0.18250000000E+03  0.00000000000E+00 0.  1.
        -11    1    1    2    0    0  0.80521216321E+00 -0.21196522670E+01  0.15019859742E+03  0.15021571142E+03  0.00000000000E+00 0. -1.
         11    1    1    2    0    0 -0.49348266119E+00 -0.27732738590E+01 -0.18213588062E+03  0.18215766134E+03  0.00000000000E+00 0.  1.
        -15    1    1    2    0    0  0.11615780443E+01  0.16764588471E+01  0.13714854259E+02  0.13979082022E+02  0.17770000000E+01 0. -1.
         15    1    1    2    0    0 -0.14733075463E+01  0.32164672789E+01  0.18222428949E+02  0.18647545219E+02  0.17770000000E+01 0.  1.
</event>
<event>
 6    1  0.1298204E-002  0.1831115E+03  0.7546771E-02  0.1067969E+00
        -11   -1    0    0    0    0  0.00000000000E+00  0.00000000000E+00  0.18250000000E+03  0.18250000000E+03  0.00000000000E+00 0. -1.
         11   -1    0    0    0    0 -0.00000000000E+00 -0.00000000000E+00 -0.18250000000E+03  0.18250000000E+03  0.00000000000E+00 0. -1.
        -11    1    1    2    0    0  0.14498452030E+01  0.20911142331E+01  0.18187068787E+03  0.18188848759E+03  0.00000000000E+00 0. -1.
         11    1    1    2    0    0  0.10659678036E+01  0.15058151929E+01 -0.97652715596E+02  0.97670141958E+02  0.00000000000E+00 0. -1.
        -15    1    1    2    0    0  0.65543456339E+00 -0.57470333630E+01 -0.16213494155E+02  0.17305869196E+02  0.17770000000E+01 0.  1.
         15    1    1    2    0    0 -0.31712475699E+01  0.21501039370E+01 -0.68004478122E+02  0.68135501258E+02  0.17770000000E+01 0. -1.
</event>
<event>
 6    1  0.1298204E-002  0.1918067E+03  0.7546771E-02  0.1061279E+00
        -11   -1    0    0    0    0  0.00000000000E+00  0.00000000000E+00  0.18250000000E+03  0.18250000000E+03  0.00000000000E+00 0. -1.
         11   -1    0    0    0    0 -0.00000000000E+00 -0.00000000000E+00 -0.18250000000E+03  0.18250000000E+03  0.00000000000E+00 0. -1.
        -11    1    1    2    0    0  0.92415466402E+01  0.53474418386E+01  0.17286386245E+03  0.17319329161E+03  0.00000000000E+00 0. -1.
         11    1    1    2    0    0  0.15426029247E+01 -0.81662416470E+00 -0.58230119733E+02  0.58256272992E+02  0.00000000000E+00 0. -1.
        -15    1    1    2    0    0 -0.10220542542E+02 -0.80658567032E+01  0.48446586929E+01  0.14005212639E+02  0.17770000000E+01 0. -1.
         15    1    1    2    0    0 -0.56360702329E+00  0.35350390293E+01 -0.11947840141E+03  0.11954522276E+03  0.17770000000E+01 0. -1.
</event>
<event>
 6    1  0.1298204E-002  0.1828443E+03  0.7546771E-02  0.1068181E+00
        -11   -1    0    0    0    0  0.00000000000E+00  0.00000000000E+00  0.18250000000E+03  0.18250000000E+03  0.00000000000E+00 0.  1.
         11   -1    0    0    0    0 -0.00000000000E+00 -0.00000000000E+00 -0.18250000000E+03  0.18250000000E+03  0.00000000000E+00 0.  1.
        -11    1    1    2    0    0  0.91799989563E+00 -0.22767005496E+01  0.18213910837E+03  0.18215565017E+03  0.00000000000E+00 0.  1.
         11    1    1    2    0    0 -0.12015175100E+01 -0.13740443446E+01 -0.48598752058E+02  0.48633017013E+02  0.00000000000E+00 0.  1.
        -15    1    1    2    0    0  0.15928314560E+01 -0.18959402698E+01 -0.85237990923E+01  0.90523246473E+01  0.17770000000E+01 0.  1.
         15    1    1    2    0    0 -0.13093138416E+01  0.55466851640E+01 -0.12501655722E+03  0.12515900817E+03  0.17770000000E+01 0.  1.
</event>
<event>
 6    1  0.1298204E-002  0.1877740E+03  0.7546771E-02  0.1064332E+00
        -11   -1    0    0    0    0  0.00000000000E+00  0.00000000000E+00  0.18250000000E+03  0.18250000000E+03  0.00000000000E+00 0. -1.
         11   -1    0    0    0    0 -0.00000000000E+00 -0.00000000000E+00 -0.18250000000E+03  0.18250000000E+03  0.00000000000E+00 0. -1.
        -11    1    1    2    0    0  0.34334183850E+01  0.93691049756E+00  0.17442395776E+03  0.17446026253E+03  0.00000000000E+00 0. -1.
         11    1    1    2    0    0 -0.33491697648E+01 -0.10163826141E+01 -0.17719139376E+03  0.17722595745E+03  0.00000000000E+00 0. -1.
        -15    1    1    2    0    0  0.46815854242E+01  0.13610741572E+01  0.53620322887E+01  0.74618284764E+01  0.17770000000E+01 0.  1.
         15    1    1    2    0    0 -0.47658340444E+01 -0.12816020406E+01 -0.25945962842E+01  0.58519515384E+01  0.17770000000E+01 0. -1.
</event>
<event>
 6    1  0.1298204E-002  0.1897291E+03  0.7546771E-02  0.1062842E+00
        -11   -1    0    0    0    0  0.00000000000E+00  0.00000000000E+00  0.18250000000E+03  0.18250000000E+03  0.00000000000E+00 0.  1.
         11   -1    0    0    0    0 -0.00000000000E+00 -0.00000000000E+00 -0.18250000000E+03  0.18250000000E+03  0.00000000000E+00 0. -1.
        -11    1    1    2    0    0  0.20583312431E+02  0.67515835409E+01  0.17392709003E+03  0.17527090254E+03  0.00000000000E+00 0.  1.
         11    1    1    2    0    0 -0.21234643304E+01  0.15608180027E+01 -0.15446551889E+03  0.15448799882E+03  0.00000000000E+00 0. -1.
        -15    1    1    2    0    0 -0.14891717024E+02 -0.97633011404E+01 -0.28800953000E+01  0.18125616211E+02  0.17770000000E+01 0. -1.
         15    1    1    2    0    0 -0.35681310768E+01  0.14508995968E+01 -0.16581475834E+02  0.17115482431E+02  0.17770000000E+01 0. -1.
</event>
<event>
 6    1  0.1298204E-002  0.1834138E+03  0.7546771E-02  0.1067730E+00
        -11   -1    0    0    0    0  0.00000000000E+00  0.00000000000E+00  0.18250000000E+03  0.18250000000E+03  0.00000000000E+00 0.  1.
         11   -1    0    0    0    0 -0.00000000000E+00 -0.00000000000E+00 -0.18250000000E+03  0.18250000000E+03  0.00000000000E+00 0.  1.
        -11    1    1    2    0    0  0.10261839592E+01 -0.22667468578E+01  0.14499841442E+03  0.14501976203E+03  0.00000000000E+00 0.  1.
         11    1    1    2    0    0 -0.38731151876E+01 -0.29901219930E+01 -0.18152028777E+03  0.18158622393E+03  0.00000000000E+00 0.  1.
        -15    1    1    2    0    0  0.50097910095E+01  0.11386683811E+01  0.97509685192E+01  0.11163945884E+02  0.17770000000E+01 0. -1.
         15    1    1    2    0    0 -0.21628597811E+01  0.41182004697E+01  0.26770904823E+02  0.27230068152E+02  0.17770000000E+01 0.  1.
</event>
<event>
 6    1  0.1298204E-002  0.1831218E+03  0.7546771E-02  0.1067961E+00
        -11   -1    0    0    0    0  0.00000000000E+00  0.00000000000E+00  0.18250000000E+03  0.18250000000E+03  0.00000000000E+00 0. -1.
         11   -1    0    0    0    0 -0.00000000000E+00 -0.00000000000E+00 -0.18250000000E+03  0.18250000000E+03  0.00000000000E+00 0. -1.
        -11    1    1    2    0    0  0.17371134895E+01  0.17292011422E+01  0.18186170108E+03  0.18187821755E+03  0.00000000000E+00 0. -1.
         11    1    1    2    0    0 -0.69384229337E+00  0.20092398214E+01 -0.16794468458E+02  0.16928456297E+02  0.00000000000E+00 0. -1.
        -15    1    1    2    0    0  0.14436076407E+01 -0.76356110674E+01 -0.15215687747E+03  0.15236554614E+03  0.17770000000E+01 0. -1.
         15    1    1    2    0    0 -0.24868788369E+01  0.38971701039E+01 -0.12910355149E+02  0.13827780019E+02  0.17770000000E+01 0.  1.
</event>
<event>
 6    1  0.1298204E-002  0.1841494E+03  0.7546771E-02  0.1067149E+00
        -11   -1    0    0    0    0  0.00000000000E+00  0.00000000000E+00  0.18250000000E+03  0.18250000000E+03  0.00000000000E+00 0.  1.
         11   -1    0    0    0    0 -0.00000000000E+00 -0.00000000000E+00 -0.18250000000E+03  0.18250000000E+03  0.00000000000E+00 0.  1.
        -11    1    1    2    0    0 -0.11677866136E+01  0.59002356637E+01  0.18075054583E+03  0.18085059116E+03  0.00000000000E+00 0.  1.
         11    1    1    2    0    0  0.11026214591E+01 -0.20368430122E+01 -0.15407987864E+03  0.15409728585E+03  0.00000000000E+00 0.  1.
        -15    1    1    2    0    0  0.59570953031E+00 -0.53406082100E+01 -0.27063366050E+02  0.27648878402E+02  0.17770000000E+01 0. -1.
         15    1    1    2    0    0 -0.53054437576E+00  0.14772155584E+01  0.39269886235E+00  0.24032445854E+01  0.17770000000E+01 0.  1.
</event>
<event>
 6    1  0.1298204E-002  0.1861760E+03  0.7546771E-02  0.1065566E+00
        -11   -1    0    0    0    0  0.00000000000E+00  0.00000000000E+00  0.18250000000E+03  0.18250000000E+03  0.00000000000E+00 0.  1.
         11   -1    0    0    0    0 -0.00000000000E+00 -0.00000000000E+00 -0.18250000000E+03  0.18250000000E+03  0.00000000000E+00 0.  1.
        -11    1    1    2    0    0 -0.13501717336E+01 -0.24262339660E+01  0.12046779015E+03  0.12049978439E+03  0.00000000000E+00 0.  1.
         11    1    1    2    0    0  0.19507368629E+01  0.99124440424E+01 -0.17853839349E+03  0.17882399132E+03  0.00000000000E+00 0.  1.
        -15    1    1    2    0    0 -0.16644905444E+01  0.75105431166E+01  0.44963805995E+02  0.45651729049E+02  0.17770000000E+01 0. -1.
         15    1    1    2    0    0  0.10639254151E+01 -0.14996753193E+02  0.13106797349E+02  0.20024495234E+02  0.17770000000E+01 0.  1.
</event>
<event>
 6    1  0.1298204E-002  0.1829976E+03  0.7546771E-02  0.1068059E+00
        -11   -1    0    0    0    0  0.00000000000E+00  0.00000000000E+00  0.18250000000E+03  0.18250000000E+03  0.00000000000E+00 0.  1.
         11   -1    0    0    0    0 -0.00000000000E+00 -0.00000000000E+00 -0.18250000000E+03  0.18250000000E+03  0.00000000000E+00 0.  1.
        -11    1    1    2    0    0 -0.11886264501E+01  0.33311045554E+01  0.14978279077E+03  0.14982454238E+03  0.00000000000E+00 0.  1.
         11    1    1    2    0    0 -0.23527547819E+01 -0.35425250974E+01 -0.18195272354E+03  0.18200241356E+03  0.00000000000E+00 0.  1.
        -15    1    1    2    0    0 -0.92008835195E-01 -0.19352558962E+01  0.53051351986E+01  0.59207997336E+01  0.17770000000E+01 0. -1.
         15    1    1    2    0    0  0.36333900671E+01  0.21466764383E+01  0.26864797573E+02  0.27252244325E+02  0.17770000000E+01 0. -1.
</event>
<event>
 6    1  0.1298204E-002  0.2171278E+03  0.7546771E-02  0.1043810E+00
        -11   -1    0    0    0    0  0.00000000000E+00  0.00000000000E+00  0.18250000000E+03  0.18250000000E+03  0.00000000000E+00 0.  1.
         11   -1    0    0    0    0 -0.00000000000E+00 -0.00000000000E+00 -0.18250000000E+03  0.18250000000E+03  0.00000000000E+00 0.  1.
        -11    1    1    2    0    0  0.55744992320E+01 -0.32213154499E+00  0.14776678257E+03  0.14787224500E+03  0.00000000000E+00 0.  1.
         11    1    1    2    0    0 -0.31849346982E+00 -0.22479706695E+01 -0.79360815648E+02  0.79393286055E+02  0.00000000000E+00 0.  1.
        -15    1    1    2    0    0  0.13687696497E+00  0.70858002309E+00 -0.10280369226E+03  0.10282158184E+03  0.17770000000E+01 0.  1.
         15    1    1    2    0    0 -0.53928827272E+01  0.18615221914E+01  0.34397725334E+02  0.34912887107E+02  0.17770000000E+01 0.  1.
</event>
<event>
 6    1  0.1298204E-002  0.1831839E+03  0.7546771E-02  0.1067912E+00
        -11   -1    0    0    0    0  0.00000000000E+00  0.00000000000E+00  0.18250000000E+03  0.18250000000E+03  0.00000000000E+00 0.  1.
         11   -1    0    0    0    0 -0.00000000000E+00 -0.00000000000E+00 -0.18250000000E+03  0.18250000000E+03  0.00000000000E+00 0. -1.
        -11    1    1    2    0    0  0.76359523346E+00 -0.61557248470E+01  0.18171024247E+03  0.18181608357E+03  0.00000000000E+00 0.  1.
         11    1    1    2    0    0  0.14772419170E+01  0.18164353443E+01 -0.13584512360E+03  0.13586529832E+03  0.00000000000E+00 0. -1.
        -15    1    1    2    0    0 -0.32073157326E+01 -0.22915599553E+00 -0.53107664975E+01  0.64576587453E+01  0.17770000000E+01 0. -1.
         15    1    1    2    0    0  0.96647858220E+00  0.45684454982E+01 -0.40554352371E+02  0.40860959367E+02  0.17770000000E+01 0.  1.
</event>
<event>
 6    1  0.1298204E-002  0.1922615E+03  0.7546771E-02  0.1060940E+00
        -11   -1    0    0    0    0  0.00000000000E+00  0.00000000000E+00  0.18250000000E+03  0.18250000000E+03  0.00000000000E+00 0. -1.
         11   -1    0    0    0    0 -0.00000000000E+00 -0.00000000000E+00 -0.18250000000E+03  0.18250000000E+03  0.00000000000E+00 0.  1.
        -11    1    1    2    0    0  0.69001654122E+00 -0.61876999037E+01  0.17262622306E+03  0.17273846312E+03  0.00000000000E+00 0. -1.
         11    1    1    2    0    0  0.13297585438E+01 -0.13270802001E+01 -0.13381489097E+03  0.13382807794E+03  0.00000000000E+00 0.  1.
        -15    1    1    2    0    0  0.19011353630E+01  0.66511166404E+01  0.83957647268E+01  0.11022625031E+02  0.17770000000E+01 0.  1.
         15    1    1    2    0    0 -0.39209104479E+01  0.86366346344E+00 -0.47207096818E+02  0.47410833913E+02  0.17770000000E+01 0.  1.
</event>
<event>
 6    1  0.1298204E-002  0.1641592E+03  0.7546771E-02  0.1084070E+00
        -11   -1    0    0    0    0  0.00000000000E+00  0.00000000000E+00  0.18250000000E+03  0.18250000000E+03  0.00000000000E+00 0.  1.
         11   -1    0    0    0    0 -0.00000000000E+00 -0.00000000000E+00 -0.18250000000E+03  0.18250000000E+03  0.00000000000E+00 0. -1.
        -11    1    1    2    0    0  0.25592856976E+00  0.12737184229E+01  0.17197237035E+02  0.17246240741E+02  0.00000000000E+00 0.  1.
         11    1    1    2    0    0 -0.40425207293E+01 -0.17094276547E+01 -0.16415865057E+03  0.16421731539E+03  0.00000000000E+00 0. -1.
        -15    1    1    2    0    0 -0.21782056674E+00  0.85721871378E+01  0.16395717333E+03  0.16419087141E+03  0.17770000000E+01 0.  1.
         15    1    1    2    0    0  0.40044127262E+01 -0.81364779060E+01 -0.16995759791E+02  0.19345572461E+02  0.17770000000E+01 0. -1.
</event>
<event>
 6    1  0.5974177E-002  0.1210555E+03  0.7546771E-02  0.1131693E+00
        -11   -1    0    0    0    0  0.00000000000E+00  0.00000000000E+00  0.18250000000E+03  0.18250000000E+03  0.00000000000E+00 0.  1.
         11   -1    0    0    0    0 -0.00000000000E+00 -0.00000000000E+00 -0.18250000000E+03  0.18250000000E+03  0.00000000000E+00 0. -1.
        -11    1    1    2    0    0 -0.32781574182E-04 -0.99581844995E+00  0.27370892395E+02  0.27389001531E+02  0.00000000000E+00 0.  1.
         11    1    1    2    0    0  0.21751642317E+02  0.47505437823E+01 -0.95167457696E+02  0.97737130171E+02  0.00000000000E+00 0. -1.
        -15    1    1    2    0    0 -0.24293555776E+02 -0.26452544040E+00 -0.84277864393E+02  0.87727777708E+02  0.17770000000E+01 0. -1.
         15    1    1    2    0    0  0.25419462402E+01 -0.34901998919E+01  0.15207442969E+03  0.15214609059E+03  0.17770000000E+01 0.  1.
</event>
<event>
 6    1  0.1298204E-002  0.1843909E+03  0.7546771E-02  0.1066960E+00
        -11   -1    0    0    0    0  0.00000000000E+00  0.00000000000E+00  0.18250000000E+03  0.18250000000E+03  0.00000000000E+00 0.  1.
         11   -1    0    0    0    0 -0.00000000000E+00 -0.00000000000E+00 -0.18250000000E+03  0.18250000000E+03  0.00000000000E+00 0.  1.
        -11    1    1    2    0    0  0.50849760563E+01 -0.33101421283E+01  0.18050717022E+03  0.18060911528E+03  0.00000000000E+00 0.  1.
         11    1    1    2    0    0 -0.63335736646E+00  0.27932892786E+01 -0.14390135064E+03  0.14392985209E+03  0.00000000000E+00 0.  1.
        -15    1    1    2    0    0 -0.93334641037E+00 -0.49454571869E+00 -0.36323189412E+02  0.36381967086E+02  0.17770000000E+01 0.  1.
         15    1    1    2    0    0 -0.35182722795E+01  0.10113985684E+01 -0.28263017371E+00  0.40790655439E+01  0.17770000000E+01 0. -1.
</event>
<event>
 6    1  0.1298204E-002  0.1830313E+03  0.7546771E-02  0.1068033E+00
        -11   -1    0    0    0    0  0.00000000000E+00  0.00000000000E+00  0.18250000000E+03  0.18250000000E+03  0.00000000000E+00 0.  1.
         11   -1    0    0    0    0 -0.00000000000E+00 -0.00000000000E+00 -0.18250000000E+03  0.18250000000E+03  0.00000000000E+00 0.  1.
        -11    1    1    2    0    0  0.27246943282E+00  0.55827473383E+01  0.18188286177E+03  0.18196872455E+03  0.00000000000E+00 0.  1.
         11    1    1    2    0    0 -0.19108152837E+01  0.49495351052E+00 -0.10592858369E+03  0.10594697276E+03  0.00000000000E+00 0.  1.
        -15    1    1    2    0    0 -0.28848418531E+01 -0.62750663955E+01 -0.28389123487E+02  0.29271126253E+02  0.17770000000E+01 0.  1.
         15    1    1    2    0    0  0.45231877039E+01  0.19736554666E+00 -0.47565154596E+02  0.47813176436E+02  0.17770000000E+01 0.  1.
</event>
<event>
 6    1  0.1298204E-002  0.1829650E+03  0.7546771E-02  0.1068085E+00
        -11   -1    0    0    0    0  0.00000000000E+00  0.00000000000E+00  0.18250000000E+03  0.18250000000E+03  0.00000000000E+00 0.  1.
         11   -1    0    0    0    0 -0.00000000000E+00 -0.00000000000E+00 -0.18250000000E+03  0.18250000000E+03  0.00000000000E+00 0.  1.
        -11    1    1    2    0    0 -0.42813339363E+01  0.36509472235E+01  0.18194806230E+03  0.18203504226E+03  0.00000000000E+00 0.  1.
         11    1    1    2    0    0 -0.13481454219E+01 -0.50183879549E+00 -0.10256261763E+03  0.10257270530E+03  0.00000000000E+00 0.  1.
        -15    1    1    2    0    0  0.35310541400E+01 -0.51109148607E+01 -0.22574082321E+02  0.23480560379E+02  0.17770000000E+01 0.  1.
         15    1    1    2    0    0  0.20984252182E+01  0.19618064327E+01 -0.56811362348E+02  0.56911692066E+02  0.17770000000E+01 0.  1.
</event>
<event>
 6    1  0.1298204E-002  0.1879414E+03  0.7546771E-02  0.1064204E+00
        -11   -1    0    0    0    0  0.00000000000E+00  0.00000000000E+00  0.18250000000E+03  0.18250000000E+03  0.00000000000E+00 0. -1.
         11   -1    0    0    0    0 -0.00000000000E+00 -0.00000000000E+00 -0.18250000000E+03  0.18250000000E+03  0.00000000000E+00 0. -1.
        -11    1    1    2    0    0  0.46460757762E+00 -0.50168824178E+01  0.16394519338E+03  0.16402259418E+03  0.00000000000E+00 0. -1.
         11    1    1    2    0    0 -0.55569503179E+00  0.31678002783E+01 -0.17702936520E+03  0.17705857760E+03  0.00000000000E+00 0. -1.
        -15    1    1    2    0    0  0.72604170001E+01 -0.55169120052E+01  0.82381123969E+01  0.12416690298E+02  0.17770000000E+01 0. -1.
         15    1    1    2    0    0 -0.71693295460E+01  0.73659941448E+01  0.48460594273E+01  0.11502137925E+02  0.17770000000E+01 0.  1.
</event>
<event>
 6    1  0.1298204E-002  0.1834273E+03  0.7546771E-02  0.1067719E+00
        -11   -1    0    0    0    0  0.00000000000E+00  0.00000000000E+00  0.18250000000E+03  0.18250000000E+03  0.00000000000E+00 0. -1.
         11   -1    0    0    0    0 -0.00000000000E+00 -0.00000000000E+00 -0.18250000000E+03  0.18250000000E+03  0.00000000000E+00 0.  1.
        -11    1    1    2    0    0 -0.32596142113E+01 -0.27645139907E+01  0.16458480915E+03  0.16464029587E+03  0.00000000000E+00 0. -1.
         11    1    1    2    0    0  0.29680549617E+01  0.63000310823E+01 -0.18143913405E+03  0.18157273779E+03  0.00000000000E+00 0.  1.
        -15    1    1    2    0    0  0.15461546781E+01  0.10541147149E+01  0.95349859205E+01  0.98780280230E+01  0.17770000000E+01 0. -1.
         15    1    1    2    0    0 -0.12545954286E+01 -0.45896318066E+01  0.73193389845E+01  0.89089383195E+01  0.17770000000E+01 0.  1.
</event>
<event>
 6    1  0.1298204E-002  0.1834292E+03  0.7546771E-02  0.1067718E+00
        -11   -1    0    0    0    0  0.00000000000E+00  0.00000000000E+00  0.18250000000E+03  0.18250000000E+03  0.00000000000E+00 0. -1.
         11   -1    0    0    0    0 -0.00000000000E+00 -0.00000000000E+00 -0.18250000000E+03  0.18250000000E+03  0.00000000000E+00 0.  1.
        -11    1    1    2    0    0 -0.35257759377E+01  0.45060769891E+01  0.16067011373E+03  0.16077195424E+03  0.00000000000E+00 0. -1.
         11    1    1    2    0    0  0.25064561563E+01 -0.65490125316E+00 -0.18155230317E+03  0.18157078511E+03  0.00000000000E+00 0.  1.
        -15    1    1    2    0    0  0.15320749545E+01 -0.21621854401E+01  0.23652750535E+01  0.39717193534E+01  0.17770000000E+01 0. -1.
         15    1    1    2    0    0 -0.51275517314E+00 -0.16889902959E+01  0.18516914389E+02  0.18685541297E+02  0.17770000000E+01 0.  1.
</event>
<event>
 6    1  0.1298204E-002  0.1834628E+03  0.7546771E-02  0.1067691E+00
        -11   -1    0    0    0    0  0.00000000000E+00  0.00000000000E+00  0.18250000000E+03  0.18250000000E+03  0.00000000000E+00 0. -1.
         11   -1    0    0    0    0 -0.00000000000E+00 -0.00000000000E+00 -0.18250000000E+03  0.18250000000E+03  0.00000000000E+00 0. -1.
        -11    1    1    2    0    0  0.13094271315E+02  0.25596860161E+01  0.18104626322E+03  0.18153721756E+03  0.00000000000E+00 0. -1.
         11    1    1    2    0    0 -0.56794560660E+01  0.91797069537E+00 -0.50235843151E+02  0.50564205012E+02  0.00000000000E+00 0. -1.
        -15    1    1    2    0    0 -0.95749073312E+01 -0.45499814491E+01 -0.27228772244E+02  0.29273622060E+02  0.17770000000E+01 0. -1.
         15    1    1    2    0    0  0.21600920825E+01  0.10723247376E+01 -0.10358164783E+03  0.10362495536E+03  0.17770000000E+01 0.  1.
</event>
<event>
 6    1  0.1298204E-002  0.1848413E+03  0.7546771E-02  0.1066606E+00
        -11   -1    0    0    0    0  0.00000000000E+00  0.00000000000E+00  0.18250000000E+03  0.18250000000E+03  0.00000000000E+00 0.  1.
         11   -1    0    0    0    0 -0.00000000000E+00 -0.00000000000E+00 -0.18250000000E+03  0.18250000000E+03  0.00000000000E+00 0.  1.
        -11    1    1    2    0    0  0.66094629243E+00 -0.23701253670E+01  0.17143555794E+03  0.17145321481E+03  0.00000000000E+00 0.  1.
         11    1    1    2    0    0 -0.28739199235E+01  0.53402006522E+01 -0.18005657038E+03  0.18015866811E+03  0.00000000000E+00 0.  1.
        -15    1    1    2    0    0  0.44063560614E+01 -0.48104680346E+01  0.47906433743E+01  0.82864087150E+01  0.17770000000E+01 0.  1.
         15    1    1    2    0    0 -0.21933824304E+01  0.18403927495E+01  0.38303690693E+01  0.51017083575E+01  0.17770000000E+01 0. -1.
</event>
<event>
 6    1  0.1298204E-002  0.1844201E+03  0.7546771E-02  0.1066937E+00
        -11   -1    0    0    0    0  0.00000000000E+00  0.00000000000E+00  0.18250000000E+03  0.18250000000E+03  0.00000000000E+00 0.  1.
         11   -1    0    0    0    0 -0.00000000000E+00 -0.00000000000E+00 -0.18250000000E+03  0.18250000000E+03  0.00000000000E+00 0.  1.
        -11    1    1    2    0    0 -0.24620817460E+01  0.20296264456E+01  0.18055172665E+03  0.18057991923E+03  0.00000000000E+00 0.  1.
         11    1    1    2    0    0  0.10598570559E+01 -0.23102823274E+01 -0.16869217211E+03  0.16871132041E+03  0.00000000000E+00 0.  1.
        -15    1    1    2    0    0 -0.14068096833E+01  0.26593998316E+01 -0.10987031705E+02  0.11529272121E+02  0.17770000000E+01 0. -1.
         15    1    1    2    0    0  0.28090343735E+01 -0.23787439499E+01 -0.87252283669E+00  0.41794882451E+01  0.17770000000E+01 0. -1.
</event>
<event>
 6    1  0.1298204E-002  0.1845798E+03  0.7546771E-02  0.1066811E+00
        -11   -1    0    0    0    0  0.00000000000E+00  0.00000000000E+00  0.18250000000E+03  0.18250000000E+03  0.00000000000E+00 0. -1.
         11   -1    0    0    0    0 -0.00000000000E+00 -0.00000000000E+00 -0.18250000000E+03  0.18250000000E+03  0.00000000000E+00 0. -1.
        -11    1    1    2    0    0 -0.67960578606E+01 -0.68953788678E+01  0.18016026074E+03  0.18042021007E+03  0.00000000000E+00 0. -1.
         11    1    1    2    0    0 -0.26973872034E+01 -0.23494068994E+01 -0.11332126082E+03  0.11337770400E+03  0.00000000000E+00 0. -1.
        -15    1    1    2    0    0  0.30351484743E+01 -0.29435898173E+01 -0.22052847271E+01  0.50889937121E+01  0.17770000000E+01 0.  1.
         15    1    1    2    0    0  0.64582965896E+01  0.12188375585E+02 -0.64633715196E+02  0.66113092223E+02  0.17770000000E+01 0. -1.
</event>
<event>
 6    1  0.1298204E-002  0.1868394E+03  0.7546771E-02  0.1065052E+00
        -11   -1    0    0    0    0  0.00000000000E+00  0.00000000000E+00  0.18250000000E+03  0.18250000000E+03  0.00000000000E+00 0.  1.
         11   -1    0    0    0    0 -0.00000000000E+00 -0.00000000000E+00 -0.18250000000E+03  0.18250000000E+03  0.00000000000E+00 0.  1.
        -11    1    1    2    0    0 -0.89256310220E+01  0.15389230394E+02  0.17727018111E+03  0.17816063654E+03  0.00000000000E+00 0.  1.
         11    1    1    2    0    0  0.50069068193E+01  0.76871709552E+01 -0.12055454889E+03  0.12090310572E+03  0.00000000000E+00 0.  1.
        -15    1    1    2    0    0 -0.10980398411E+01 -0.36224069330E+01 -0.38600876331E+02  0.38826703517E+02  0.17770000000E+01 0.  1.
         15    1    1    2    0    0  0.50167640439E+01 -0.19453994417E+02 -0.18114755889E+02  0.27109554222E+02  0.17770000000E+01 0. -1.
</event>
<event>
 6    1  0.1298204E-002  0.1833183E+03  0.7546771E-02  0.1067805E+00
        -11   -1    0    0    0    0  0.00000000000E+00  0.00000000000E+00  0.18250000000E+03  0.18250000000E+03  0.00000000000E+00 0. -1.
         11   -1    0    0    0    0 -0.00000000000E+00 -0.00000000000E+00 -0.18250000000E+03  0.18250000000E+03  0.00000000000E+00 0. -1.
        -11    1    1    2    0    0 -0.26498575956E+01  0.11886074016E+01  0.18165845945E+03  0.18168167332E+03  0.00000000000E+00 0. -1.
         11    1    1    2    0    0 -0.17134613143E+01  0.55214565636E+01 -0.15085982579E+03  0.15097055829E+03  0.00000000000E+00 0. -1.
        -15    1    1    2    0    0  0.23601657321E+01 -0.53426824234E+01 -0.13869726508E+02  0.15153932828E+02  0.17770000000E+01 0. -1.
         15    1    1    2    0    0  0.20031531778E+01 -0.13673815417E+01 -0.16928907149E+02  0.17193835558E+02  0.17770000000E+01 0.  1.
</event>
<event>
 6    1  0.1298204E-002  0.1869475E+03  0.7546771E-02  0.1064969E+00
        -11   -1    0    0    0    0  0.00000000000E+00  0.00000000000E+00  0.18250000000E+03  0.18250000000E+03  0.00000000000E+00 0. -1.
         11   -1    0    0    0    0 -0.00000000000E+00 -0.00000000000E+00 -0.18250000000E+03  0.18250000000E+03  0.00000000000E+00 0.  1.
        -11    1    1    2    0    0 -0.65542588280E+01  0.27453983450E+02  0.17580103009E+03  0.17805246895E+03  0.00000000000E+00 0. -1.
         11    1    1    2    0    0 -0.16751327340E+01 -0.14164096705E+00 -0.63696836898E+02  0.63719017276E+02  0.00000000000E+00 0.  1.
        -15    1    1    2    0    0  0.73693554694E+01 -0.99719610322E+01 -0.10258873077E+03  0.10335063046E+03  0.17770000000E+01 0.  1.
         15    1    1    2    0    0  0.86003609266E+00 -0.17340381451E+02 -0.95154624222E+01  0.19877883314E+02  0.17770000000E+01 0. -1.
</event>
<event>
 6    1  0.1298204E-002  0.1827495E+03  0.7546771E-02  0.1068256E+00
        -11   -1    0    0    0    0  0.00000000000E+00  0.00000000000E+00  0.18250000000E+03  0.18250000000E+03  0.00000000000E+00 0.  1.
         11   -1    0    0    0    0 -0.00000000000E+00 -0.00000000000E+00 -0.18250000000E+03  0.18250000000E+03  0.00000000000E+00 0.  1.
        -11    1    1    2    0    0  0.36129123547E+01  0.19353972408E+01  0.18220439126E+03  0.18225048447E+03  0.00000000000E+00 0.  1.
         11    1    1    2    0    0 -0.22066420959E+01 -0.66429788476E+00 -0.14429257630E+03  0.14431097719E+03  0.00000000000E+00 0.  1.
        -15    1    1    2    0    0  0.94289346601E+00  0.30399742374E+00 -0.25629560272E+02  0.25710183804E+02  0.17770000000E+01 0.  1.
         15    1    1    2    0    0 -0.23491637248E+01 -0.15750967798E+01 -0.12282254683E+02  0.12728354536E+02  0.17770000000E+01 0.  1.
</event>
<event>
 6    1  0.1298204E-002  0.1837671E+03  0.7546771E-02  0.1067451E+00
        -11   -1    0    0    0    0  0.00000000000E+00  0.00000000000E+00  0.18250000000E+03  0.18250000000E+03  0.00000000000E+00 0.  1.
         11   -1    0    0    0    0 -0.00000000000E+00 -0.00000000000E+00 -0.18250000000E+03  0.18250000000E+03  0.00000000000E+00 0. -1.
        -11    1    1    2    0    0  0.55640558490E+01  0.39370874011E+01  0.18110472034E+03  0.18123294156E+03  0.00000000000E+00 0.  1.
         11    1    1    2    0    0  0.12124649411E+01 -0.26434596991E+01 -0.16238953765E+03  0.16241557773E+03  0.00000000000E+00 0. -1.
        -15    1    1    2    0    0 -0.50581622226E+01  0.23630358809E+01 -0.10996731918E+02  0.12460127829E+02  0.17770000000E+01 0.  1.
         15    1    1    2    0    0 -0.17183585675E+01 -0.36566635829E+01 -0.77184507763E+01  0.88913528842E+01  0.17770000000E+01 0. -1.
</event>
<event>
 6    1  0.1298204E-002  0.1928916E+03  0.7546771E-02  0.1060471E+00
        -11   -1    0    0    0    0  0.00000000000E+00  0.00000000000E+00  0.18250000000E+03  0.18250000000E+03  0.00000000000E+00 0.  1.
         11   -1    0    0    0    0 -0.00000000000E+00 -0.00000000000E+00 -0.18250000000E+03  0.18250000000E+03  0.00000000000E+00 0. -1.
        -11    1    1    2    0    0 -0.22033233846E+01  0.10695637457E+01  0.16077651674E+03  0.16079517075E+03  0.00000000000E+00 0.  1.
         11    1    1    2    0    0 -0.10517623029E+01  0.32412156413E+01 -0.17207464199E+03  0.17210837893E+03  0.00000000000E+00 0. -1.
        -15    1    1    2    0    0 -0.59760330368E+01 -0.99834942797E+01  0.16239255884E+02  0.20056278058E+02  0.17770000000E+01 0. -1.
         15    1    1    2    0    0  0.92311187243E+01  0.56727148926E+01 -0.49411306409E+01  0.12040172265E+02  0.17770000000E+01 0.  1.
</event>
<event>
 6    1  0.1298204E-002  0.1833243E+03  0.7546771E-02  0.1067801E+00
        -11   -1    0    0    0    0  0.00000000000E+00  0.00000000000E+00  0.18250000000E+03  0.18250000000E+03  0.00000000000E+00 0. -1.
         11   -1    0    0    0    0 -0.00000000000E+00 -0.00000000000E+00 -0.18250000000E+03  0.18250000000E+03  0.00000000000E+00 0.  1.
        -11    1    1    2    0    0  0.18523950783E+00 -0.26564170259E+01  0.18165615492E+03  0.18167567114E+03  0.00000000000E+00 0. -1.
         11    1    1    2    0    0 -0.44373590623E+01  0.24875968537E+01 -0.13511650464E+03  0.13521223362E+03  0.00000000000E+00 0.  1.
        -15    1    1    2    0    0 -0.36835595493E+00 -0.47722497504E+01 -0.22730324477E+02  0.23296682889E+02  0.17770000000E+01 0. -1.
         15    1    1    2    0    0  0.46204755094E+01  0.49410699226E+01 -0.23809325802E+02  0.24815412349E+02  0.17770000000E+01 0.  1.
</event>
<event>
 6    1  0.1298204E-002  0.1831952E+03  0.7546771E-02  0.1067903E+00
        -11   -1    0    0    0    0  0.00000000000E+00  0.00000000000E+00  0.18250000000E+03  0.18250000000E+03  0.00000000000E+00 0.  1.
         11   -1    0    0    0    0 -0.00000000000E+00 -0.00000000000E+00 -0.18250000000E+03  0.18250000000E+03  0.00000000000E+00 0. -1.
        -11    1    1    2    0    0  0.42855485847E+01  0.11013460576E+01  0.18175099531E+03  0.18180484918E+03  0.00000000000E+00 0.  1.
         11    1    1    2    0    0 -0.22542152005E+01  0.50950404384E+00 -0.58890634167E+02  0.58935964174E+02  0.00000000000E+00 0. -1.
        -15    1    1    2    0    0 -0.39874139788E+01 -0.20755528735E+01 -0.78590792415E+01  0.92266053071E+01  0.17770000000E+01 0.  1.
         15    1    1    2    0    0  0.19560805945E+01  0.46470277198E+00 -0.11500128190E+03  0.11503258134E+03  0.17770000000E+01 0. -1.
</event>
<event>
 6    1  0.1298204E-002  0.1682920E+03  0.7546771E-02  0.1080363E+00
        -11   -1    0    0    0    0  0.00000000000E+00  0.00000000000E+00  0.18250000000E+03  0.18250000000E+03  0.00000000000E+00 0.  1.
         11   -1    0    0    0    0 -0.00000000000E+00 -0.00000000000E+00 -0.18250000000E+03  0.18250000000E+03  0.00000000000E+00 0.  1.
        -11    1    1    2    0    0 -0.10862202602E+02 -0.55156701364E+01  0.16394505843E+03  0.16439705668E+03  0.00000000000E+00 0.  1.
         11    1    1    2    0    0 -0.10440737021E+02 -0.14500726254E+01 -0.17272520008E+03  0.17304654415E+03  0.00000000000E+00 0.  1.
        -15    1    1    2    0    0  0.15748153331E+02  0.10719078294E+02  0.72043659195E+01  0.20444157848E+02  0.17770000000E+01 0. -1.
         15    1    1    2    0    0  0.55547862918E+01 -0.37533355320E+01  0.15757757337E+01  0.71122413152E+01  0.17770000000E+01 0.  1.
</event>
<event>
 6    1  0.1298204E-002  0.1836783E+03  0.7546771E-02  0.1067521E+00
        -11   -1    0    0    0    0  0.00000000000E+00  0.00000000000E+00  0.18250000000E+03  0.18250000000E+03  0.00000000000E+00 0. -1.
         11   -1    0    0    0    0 -0.00000000000E+00 -0.00000000000E+00 -0.18250000000E+03  0.18250000000E+03  0.00000000000E+00 0.  1.
        -11    1    1    2    0    0  0.46346512128E+01  0.67796572790E+00  0.13281151233E+03  0.13289408353E+03  0.00000000000E+00 0. -1.
         11    1    1    2    0    0 -0.17981182352E+01 -0.17712136200E+01 -0.18130412255E+03  0.18132169004E+03  0.00000000000E+00 0.  1.
        -15    1    1    2    0    0 -0.54760220335E+01 -0.20205114809E+01  0.44134324967E+02  0.44554075608E+02  0.17770000000E+01 0. -1.
         15    1    1    2    0    0  0.26394890559E+01  0.31137593730E+01  0.43582852525E+01  0.62301508209E+01  0.17770000000E+01 0. -1.
</event>
<event>
 6    1  0.1298204E-002  0.1857983E+03  0.7546771E-02  0.1065859E+00
        -11   -1    0    0    0    0  0.00000000000E+00  0.00000000000E+00  0.18250000000E+03  0.18250000000E+03  0.00000000000E+00 0. -1.
         11   -1    0    0    0    0 -0.00000000000E+00 -0.00000000000E+00 -0.18250000000E+03  0.18250000000E+03  0.00000000000E+00 0.  1.
        -11    1    1    2    0    0  0.35271498134E+01  0.38634431741E+00  0.17916655173E+03  0.17920168332E+03  0.00000000000E+00 0. -1.
         11    1    1    2    0    0  0.31209410569E+01 -0.17755896029E+01 -0.17009411989E+03  0.17013201525E+03  0.00000000000E+00 0.  1.
        -15    1    1    2    0    0  0.13075056013E+01  0.60745008439E+00 -0.67898632699E+01  0.71650916761E+01  0.17770000000E+01 0.  1.
         15    1    1    2    0    0 -0.79555964716E+01  0.78179520114E+00 -0.22825685697E+01  0.85012097510E+01  0.17770000000E+01 0. -1.
</event>
<event>
 6    1  0.1298204E-002  0.1836332E+03  0.7546771E-02  0.1067556E+00
        -11   -1    0    0    0    0  0.00000000000E+00  0.00000000000E+00  0.18250000000E+03  0.18250000000E+03  0.00000000000E+00 0. -1.
         11   -1    0    0    0    0 -0.00000000000E+00 -0.00000000000E+00 -0.18250000000E+03  0.18250000000E+03  0.00000000000E+00 0. -1.
        -11    1    1    2    0    0  0.21198949897E+01  0.12819434139E+01  0.17062526526E+03  0.17064324914E+03  0.00000000000E+00 0. -1.
         11    1    1    2    0    0  0.15674010142E+01  0.29086587483E+01 -0.18133666162E+03  0.18136676070E+03  0.00000000000E+00 0. -1.
        -15    1    1    2    0    0 -0.27951170718E+01 -0.40526377588E+01  0.87350282048E+01  0.10183074142E+02  0.17770000000E+01 0. -1.
         15    1    1    2    0    0 -0.89217893205E+00 -0.13796440347E+00  0.19763681532E+01  0.28069160124E+01  0.17770000000E+01 0.  1.
</event>
<event>
 6    1  0.1298204E-002  0.1842218E+03  0.7546771E-02  0.1067092E+00
        -11   -1    0    0    0    0  0.00000000000E+00  0.00000000000E+00  0.18250000000E+03  0.18250000000E+03  0.00000000000E+00 0.  1.
         11   -1    0    0    0    0 -0.00000000000E+00 -0.00000000000E+00 -0.18250000000E+03  0.18250000000E+03  0.00000000000E+00 0. -1.
        -11    1    1    2    0    0 -0.19855120670E+01  0.13373275673E+01  0.15430826732E+03  0.15432683521E+03  0.00000000000E+00 0.  1.
         11    1    1    2    0    0  0.33902879230E+01  0.51134392973E+01 -0.18067407782E+03  0.18077821691E+03  0.00000000000E+00 0. -1.
        -15    1    1    2    0    0 -0.33899258335E+00 -0.78452025440E+01  0.26180486972E+02  0.27390468159E+02  0.17770000000E+01 0. -1.
         15    1    1    2    0    0 -0.10657832727E+01  0.13944356794E+01  0.18532352281E+00  0.25044797177E+01  0.17770000000E+01 0.  1.
</event>
<event>
 6    1  0.1298204E-002  0.1968697E+03  0.7546771E-02  0.1057559E+00
        -11   -1    0    0    0    0  0.00000000000E+00  0.00000000000E+00  0.18250000000E+03  0.18250000000E+03  0.00000000000E+00 0.  1.
         11   -1    0    0    0    0 -0.00000000000E+00 -0.00000000000E+00 -0.18250000000E+03  0.18250000000E+03  0.00000000000E+00 0.  1.
        -11    1    1    2    0    0 -0.12908505026E+01  0.40698046912E+01  0.10326569015E+03  0.10335391800E+03  0.00000000000E+00 0.  1.
         11    1    1    2    0    0  0.15657170195E+00  0.28595587360E+01 -0.16810594174E+03  0.16813033408E+03  0.00000000000E+00 0.  1.
        -15    1    1    2    0    0  0.18223948706E+01 -0.13921270677E+02 -0.10629190819E+02  0.17699161755E+02  0.17770000000E+01 0. -1.
         15    1    1    2    0    0 -0.68811606999E+00  0.69919072502E+01  0.75469442408E+02  0.75816586161E+02  0.17770000000E+01 0.  1.
</event>
<event>
 6    1  0.1298204E-002  0.1833690E+03  0.7546771E-02  0.1067765E+00
        -11   -1    0    0    0    0  0.00000000000E+00  0.00000000000E+00  0.18250000000E+03  0.18250000000E+03  0.00000000000E+00 0.  1.
         11   -1    0    0    0    0 -0.00000000000E+00 -0.00000000000E+00 -0.18250000000E+03  0.18250000000E+03  0.00000000000E+00 0. -1.
        -11    1    1    2    0    0 -0.10895334784E+01 -0.82669594625E+01  0.18143949143E+03  0.18163099613E+03  0.00000000000E+00 0.  1.
         11    1    1    2    0    0 -0.33237259582E+01 -0.16811086118E-01 -0.12967259138E+03  0.12971518181E+03  0.00000000000E+00 0. -1.
        -15    1    1    2    0    0  0.73120107418E+01  0.36936952593E+01 -0.29829434889E+02  0.30984864055E+02  0.17770000000E+01 0.  1.
         15    1    1    2    0    0 -0.28987513052E+01  0.45900752893E+01 -0.21937465169E+02  0.22668958012E+02  0.17770000000E+01 0. -1.
</event>
<event>
 6    1  0.1298204E-002  0.2053687E+03  0.7546771E-02  0.1051581E+00
        -11   -1    0    0    0    0  0.00000000000E+00  0.00000000000E+00  0.18250000000E+03  0.18250000000E+03  0.00000000000E+00 0.  1.
         11   -1    0    0    0    0 -0.00000000000E+00 -0.00000000000E+00 -0.18250000000E+03  0.18250000000E+03  0.00000000000E+00 0. -1.
        -11    1    1    2    0    0 -0.17851859381E+01 -0.24496711751E+01  0.98727668012E+02  0.98774187969E+02  0.00000000000E+00 0.  1.
         11    1    1    2    0    0 -0.17707559060E+01 -0.34810029786E+01 -0.15958355758E+03  0.15963134031E+03  0.00000000000E+00 0. -1.
        -15    1    1    2    0    0  0.21312489485E+01  0.11658123279E+01  0.83392769261E+02  0.83447067261E+02  0.17770000000E+01 0. -1.
         15    1    1    2    0    0  0.14246928957E+01  0.47648618258E+01 -0.22536879690E+02  0.23147404460E+02  0.17770000000E+01 0. -1.
</event>
<event>
 6    1  0.1298204E-002  0.1839480E+03  0.7546771E-02  0.1067308E+00
        -11   -1    0    0    0    0  0.00000000000E+00  0.00000000000E+00  0.18250000000E+03  0.18250000000E+03  0.00000000000E+00 0.  1.
         11   -1    0    0    0    0 -0.00000000000E+00 -0.00000000000E+00 -0.18250000000E+03  0.18250000000E+03  0.00000000000E+00 0. -1.
        -11    1    1    2    0    0 -0.23173896827E+01 -0.12763199760E+01  0.15057284858E+03  0.15059608899E+03  0.00000000000E+00 0.  1.
         11    1    1    2    0    0 -0.52333135691E+01 -0.31523203017E+01 -0.18094886837E+03  0.18105197502E+03  0.00000000000E+00 0. -1.
        -15    1    1    2    0    0  0.92807960399E+01  0.22597080757E+01  0.26713830431E+02  0.28425796753E+02  0.17770000000E+01 0.  1.
         15    1    1    2    0    0 -0.17300927881E+01  0.21689322020E+01  0.36621893537E+01  0.49261392403E+01  0.17770000000E+01 0. -1.
</event>
<event>
 6    1  0.1298204E-002  0.1834760E+03  0.7546771E-02  0.1067681E+00
        -11   -1    0    0    0    0  0.00000000000E+00  0.00000000000E+00  0.18250000000E+03  0.18250000000E+03  0.00000000000E+00 0.  1.
         11   -1    0    0    0    0 -0.00000000000E+00 -0.00000000000E+00 -0.18250000000E+03  0.18250000000E+03  0.00000000000E+00 0.  1.
        -11    1    1    2    0    0 -0.27491461179E+01  0.17514453311E+01  0.18149477955E+03  0.18152404901E+03  0.00000000000E+00 0.  1.
         11    1    1    2    0    0 -0.51301877368E+00 -0.43859865176E+01 -0.16174348141E+03  0.16180375102E+03  0.00000000000E+00 0.  1.
        -15    1    1    2    0    0  0.27758334860E+00 -0.78796399115E+00 -0.82855417335E+00  0.21312369143E+01  0.17770000000E+01 0. -1.
         15    1    1    2    0    0  0.29845815429E+01  0.34225051776E+01 -0.18922743968E+02  0.19540963051E+02  0.17770000000E+01 0.  1.
</event>
<event>
 6    1  0.1298204E-002  0.1859632E+03  0.7546771E-02  0.1065731E+00
        -11   -1    0    0    0    0  0.00000000000E+00  0.00000000000E+00  0.18250000000E+03  0.18250000000E+03  0.00000000000E+00 0. -1.
         11   -1    0    0    0    0 -0.00000000000E+00 -0.00000000000E+00 -0.18250000000E+03  0.18250000000E+03  0.00000000000E+00 0.  1.
        -11    1    1    2    0    0  0.29679069676E+01 -0.13319749874E+01  0.17329452906E+03  0.17332506002E+03  0.00000000000E+00 0. -1.
         11    1    1    2    0    0  0.30461837375E+01  0.98352404165E+00 -0.17900814559E+03  0.17903676366E+03  0.00000000000E+00 0.  1.
        -15    1    1    2    0    0  0.99334524013E+00 -0.24938725555E+01  0.30266706108E+01  0.44186648521E+01  0.17770000000E+01 0. -1.
         15    1    1    2    0    0 -0.70074359452E+01  0.28423235013E+01  0.26869459158E+01  0.82195114676E+01  0.17770000000E+01 0.  1.
</event>
<event>
 6    1  0.1298204E-002  0.1842345E+03  0.7546771E-02  0.1067083E+00
        -11   -1    0    0    0    0  0.00000000000E+00  0.00000000000E+00  0.18250000000E+03  0.18250000000E+03  0.00000000000E+00 0. -1.
         11   -1    0    0    0    0 -0.00000000000E+00 -0.00000000000E+00 -0.18250000000E+03  0.18250000000E+03  0.00000000000E+00 0.  1.
        -11    1    1    2    0    0  0.43890784374E+01  0.12111958997E+01  0.18070819690E+03  0.18076554824E+03  0.00000000000E+00 0. -1.
         11    1    1    2    0    0  0.27958908016E+01  0.20581664747E+01 -0.16205002206E+03  0.16208720709E+03  0.00000000000E+00 0.  1.
        -15    1    1    2    0    0 -0.39689911257E+01 -0.25658013780E+01 -0.26393442340E+01  0.56973760849E+01  0.17770000000E+01 0. -1.
         15    1    1    2    0    0 -0.32159781133E+01 -0.70356099638E+00 -0.16018830607E+02  0.16449868581E+02  0.17770000000E+01 0.  1.
</event>
<event>
 6    1  0.1298204E-002  0.1956874E+03  0.7546771E-02  0.1058417E+00
        -11   -1    0    0    0    0  0.00000000000E+00  0.00000000000E+00  0.18250000000E+03  0.18250000000E+03  0.00000000000E+00 0. -1.
         11   -1    0    0    0    0 -0.00000000000E+00 -0.00000000000E+00 -0.18250000000E+03  0.18250000000E+03  0.00000000000E+00 0. -1.
        -11    1    1    2    0    0  0.18408986965E+01 -0.28243034596E+01  0.12774131545E+03  0.12778579448E+03  0.00000000000E+00 0. -1.
         11    1    1    2    0    0  0.32890155443E+00  0.63475702844E+01 -0.16919322996E+03  0.16931257747E+03  0.00000000000E+00 0. -1.
        -15    1    1    2    0    0 -0.10594926910E+01  0.17012731796E+01  0.54043104437E+02  0.54109442073E+02  0.17770000000E+01 0. -1.
         15    1    1    2    0    0 -0.11103075599E+01 -0.52245400045E+01 -0.12591189925E+02  0.13792185971E+02  0.17770000000E+01 0. -1.
</event>
<event>
 6    1  0.1298204E-002  0.1830799E+03  0.7546771E-02  0.1067994E+00
        -11   -1    0    0    0    0  0.00000000000E+00  0.00000000000E+00  0.18250000000E+03  0.18250000000E+03  0.00000000000E+00 0. -1.
         11   -1    0    0    0    0 -0.00000000000E+00 -0.00000000000E+00 -0.18250000000E+03  0.18250000000E+03  0.00000000000E+00 0. -1.
        -11    1    1    2    0    0 -0.25602667223E+01  0.26267408938E+01  0.18188310676E+03  0.18192009031E+03  0.00000000000E+00 0. -1.
         11    1    1    2    0    0  0.12173399555E+01  0.16947361312E+01 -0.14540831155E+03  0.14542328257E+03  0.00000000000E+00 0. -1.
        -15    1    1    2    0    0  0.38167842197E+00 -0.13615577463E+01 -0.20923063320E+01  0.30878783495E+01  0.17770000000E+01 0. -1.
         15    1    1    2    0    0  0.96124834489E+00 -0.29599192787E+01 -0.34382488881E+02  0.34568748765E+02  0.17770000000E+01 0. -1.
</event>
<event>
 6    1  0.1298204E-002  0.1940720E+03  0.7546771E-02  0.1059599E+00
        -11   -1    0    0    0    0  0.00000000000E+00  0.00000000000E+00  0.18250000000E+03  0.18250000000E+03  0.00000000000E+00 0.  1.
         11   -1    0    0    0    0 -0.00000000000E+00 -0.00000000000E+00 -0.18250000000E+03  0.18250000000E+03  0.00000000000E+00 0.  1.
        -11    1    1    2    0    0 -0.10029314160E+02 -0.37194665382E+01  0.17059293872E+03  0.17092797405E+03  0.00000000000E+00 0.  1.
         11    1    1    2    0    0  0.27439722625E+01  0.41862828518E-03 -0.14630658170E+03  0.14633231096E+03  0.00000000000E+00 0.  1.
        -15    1    1    2    0    0  0.22010118092E+02 -0.53263433917E+01 -0.18905523405E+02  0.29553202475E+02  0.17770000000E+01 0.  1.
         15    1    1    2    0    0 -0.14724776194E+02  0.90453913016E+01 -0.53808336164E+01  0.18186512507E+02  0.17770000000E+01 0. -1.
</event>
<event>
 6    1  0.1298204E-002  0.1851114E+03  0.7546771E-02  0.1066395E+00
        -11   -1    0    0    0    0  0.00000000000E+00  0.00000000000E+00  0.18250000000E+03  0.18250000000E+03  0.00000000000E+00 0. -1.
         11   -1    0    0    0    0 -0.00000000000E+00 -0.00000000000E+00 -0.18250000000E+03  0.18250000000E+03  0.00000000000E+00 0.  1.
        -11    1    1    2    0    0  0.71106051411E+00  0.28895037855E+01  0.17986401083E+03  0.17988862452E+03  0.00000000000E+00 0. -1.
         11    1    1    2    0    0 -0.32129412684E+01  0.17136544767E+01 -0.17504182474E+03  0.17507969617E+03  0.00000000000E+00 0.  1.
        -15    1    1    2    0    0  0.35350648848E+01 -0.61262962134E+00 -0.35882141774E+01  0.53763378591E+01  0.17770000000E+01 0. -1.
         15    1    1    2    0    0 -0.10331841305E+01 -0.39905286408E+01 -0.12339719131E+01  0.46553414443E+01  0.17770000000E+01 0.  1.
</event>
<event>
 6    1  0.1298204E-002  0.1861366E+03  0.7546771E-02  0.1065596E+00
        -11   -1    0    0    0    0  0.00000000000E+00  0.00000000000E+00  0.18250000000E+03  0.18250000000E+03  0.00000000000E+00 0. -1.
         11   -1    0    0    0    0 -0.00000000000E+00 -0.00000000000E+00 -0.18250000000E+03  0.18250000000E+03  0.00000000000E+00 0. -1.
        -11    1    1    2    0    0 -0.15684377431E+01  0.84085134495E+01  0.17865880339E+03  0.17886344267E+03  0.00000000000E+00 0. -1.
         11    1    1    2    0    0  0.12134551629E+02  0.83376826749E+01 -0.11238024608E+03  0.11334056646E+03  0.00000000000E+00 0. -1.
        -15    1    1    2    0    0 -0.17540379217E+02 -0.11704312097E+02 -0.43297852748E+02  0.48192505707E+02  0.17770000000E+01 0. -1.
         15    1    1    2    0    0  0.69742653309E+01 -0.50418840275E+01 -0.22980704558E+02  0.24603485169E+02  0.17770000000E+01 0.  1.
</event>
<event>
 6    1  0.1298204E-002  0.1897720E+03  0.7546771E-02  0.1062809E+00
        -11   -1    0    0    0    0  0.00000000000E+00  0.00000000000E+00  0.18250000000E+03  0.18250000000E+03  0.00000000000E+00 0.  1.
         11   -1    0    0    0    0 -0.00000000000E+00 -0.00000000000E+00 -0.18250000000E+03  0.18250000000E+03  0.00000000000E+00 0.  1.
        -11    1    1    2    0    0 -0.23719106988E+01  0.97306295342E+01  0.17494157266E+03  0.17522803701E+03  0.00000000000E+00 0.  1.
         11    1    1    2    0    0 -0.43453387198E+01  0.31660767656E+01 -0.16143920217E+03  0.16152870335E+03  0.00000000000E+00 0.  1.
        -15    1    1    2    0    0  0.42948778357E+01 -0.65013723709E+01 -0.18118763355E+02  0.19803058674E+02  0.17770000000E+01 0.  1.
         15    1    1    2    0    0  0.24223715829E+01 -0.63953339288E+01  0.46163928633E+01  0.84402009582E+01  0.17770000000E+01 0. -1.
</event>
<event>
 6    1  0.1298204E-002  0.1837844E+03  0.7546771E-02  0.1067437E+00
        -11   -1    0    0    0    0  0.00000000000E+00  0.00000000000E+00  0.18250000000E+03  0.18250000000E+03  0.00000000000E+00 0.  1.
         11   -1    0    0    0    0 -0.00000000000E+00 -0.00000000000E+00 -0.18250000000E+03  0.18250000000E+03  0.00000000000E+00 0. -1.
        -11    1    1    2    0    0 -0.60255295035E+01 -0.33337413207E+01  0.18108472808E+03  0.18121561628E+03  0.00000000000E+00 0.  1.
         11    1    1    2    0    0 -0.13982090389E+01  0.14214602079E+01 -0.12225956692E+03  0.12227582444E+03  0.00000000000E+00 0. -1.
        -15    1    1    2    0    0  0.51795884690E+01  0.30123267858E+01 -0.62316674166E+01  0.88257383353E+01  0.17770000000E+01 0.  1.
         15    1    1    2    0    0  0.22441500734E+01 -0.11000456730E+01 -0.52593493747E+02  0.52682820952E+02  0.17770000000E+01 0.  1.
</event>
<event>
 6    1  0.1298204E-002  0.1868406E+03  0.7546771E-02  0.1065051E+00
        -11   -1    0    0    0    0  0.00000000000E+00  0.00000000000E+00  0.18250000000E+03  0.18250000000E+03  0.00000000000E+00 0. -1.
         11   -1    0    0    0    0 -0.00000000000E+00 -0.00000000000E+00 -0.18250000000E+03  0.18250000000E+03  0.00000000000E+00 0.  1.
        -11    1    1    2    0    0  0.14355011805E+01  0.55894462213E+01  0.17806594119E+03  0.17815942856E+03  0.00000000000E+00 0. -1.
         11    1    1    2    0    0  0.41278528739E+00 -0.20608507408E+01 -0.13323503345E+03  0.13325161026E+03  0.00000000000E+00 0.  1.
        -15    1    1    2    0    0  0.52633254688E+01 -0.11856367495E+02 -0.85206802028E+01  0.15621644129E+02  0.17770000000E+01 0. -1.
         15    1    1    2    0    0 -0.71116119366E+01  0.83277720145E+01 -0.36310227536E+02  0.37967317048E+02  0.17770000000E+01 0.  1.
</event>
<event>
 6    1  0.1298204E-002  0.1938829E+03  0.7546771E-02  0.1059739E+00
        -11   -1    0    0    0    0  0.00000000000E+00  0.00000000000E+00  0.18250000000E+03  0.18250000000E+03  0.00000000000E+00 0. -1.
         11   -1    0    0    0    0 -0.00000000000E+00 -0.00000000000E+00 -0.18250000000E+03  0.18250000000E+03  0.00000000000E+00 0.  1.
        -11    1    1    2    0    0 -0.72612197935E+01  0.14575161238E+01  0.17095676292E+03  0.17111710743E+03  0.00000000000E+00 0. -1.
         11    1    1    2    0    0 -0.23976781710E+01 -0.12006587777E+02 -0.14331235327E+03  0.14383441038E+03  0.00000000000E+00 0.  1.
        -15    1    1    2    0    0 -0.39993783678E+01 -0.11610706895E+02 -0.18747731989E+02  0.22481964453E+02  0.17770000000E+01 0. -1.
         15    1    1    2    0    0  0.13658276332E+02  0.22159778548E+02 -0.88966776603E+01  0.27566517736E+02  0.17770000000E+01 0.  1.
</event>
<event>
 6    1  0.1298204E-002  0.1840463E+03  0.7546771E-02  0.1067231E+00
        -11   -1    0    0    0    0  0.00000000000E+00  0.00000000000E+00  0.18250000000E+03  0.18250000000E+03  0.00000000000E+00 0. -1.
         11   -1    0    0    0    0 -0.00000000000E+00 -0.00000000000E+00 -0.18250000000E+03  0.18250000000E+03  0.00000000000E+00 0.  1.
        -11    1    1    2    0    0  0.47820600421E+01  0.70812749561E+01  0.18075186800E+03  0.18095372430E+03  0.00000000000E+00 0. -1.
         11    1    1    2    0    0  0.79440496607E+01  0.21106893245E+01 -0.23039871172E+02  0.24462187107E+02  0.00000000000E+00 0.  1.
        -15    1    1    2    0    0  0.13268046855E+01 -0.76257169526E+01 -0.28410167817E+02  0.29499276841E+02  0.17770000000E+01 0. -1.
         15    1    1    2    0    0 -0.14052914388E+02 -0.15662473281E+01 -0.12930182901E+03  0.13008481175E+03  0.17770000000E+01 0.  1.
</event>
<event>
 6    1  0.1298204E-002  0.1828520E+03  0.7546771E-02  0.1068175E+00
        -11   -1    0    0    0    0  0.00000000000E+00  0.00000000000E+00  0.18250000000E+03  0.18250000000E+03  0.00000000000E+00 0. -1.
         11   -1    0    0    0    0 -0.00000000000E+00 -0.00000000000E+00 -0.18250000000E+03  0.18250000000E+03  0.00000000000E+00 0. -1.
        -11    1    1    2    0    0  0.25840582414E+01 -0.60714365402E+01  0.18202843296E+03  0.18214798957E+03  0.00000000000E+00 0. -1.
         11    1    1    2    0    0  0.72355723058E+00  0.22928454138E+01 -0.15456005345E+03  0.15457875273E+03  0.00000000000E+00 0. -1.
        -15    1    1    2    0    0 -0.62987705318E+00  0.84121791444E+00 -0.13035663077E+02  0.13198129925E+02  0.17770000000E+01 0. -1.
         15    1    1    2    0    0 -0.26777384188E+01  0.29373732119E+01 -0.14432716441E+02  0.15075127770E+02  0.17770000000E+01 0.  1.
</event>
<event>
 6    1  0.1298204E-002  0.1866262E+03  0.7546771E-02  0.1065217E+00
        -11   -1    0    0    0    0  0.00000000000E+00  0.00000000000E+00  0.18250000000E+03  0.18250000000E+03  0.00000000000E+00 0. -1.
         11   -1    0    0    0    0 -0.00000000000E+00 -0.00000000000E+00 -0.18250000000E+03  0.18250000000E+03  0.00000000000E+00 0. -1.
        -11    1    1    2    0    0  0.49687076336E+01 -0.82831297567E+00  0.17830268852E+03  0.17837382906E+03  0.00000000000E+00 0. -1.
         11    1    1    2    0    0 -0.79162188570E+00 -0.23388988053E+01 -0.15922037511E+03  0.15923952073E+03  0.00000000000E+00 0. -1.
        -15    1    1    2    0    0 -0.19145768835E+01  0.57069438094E+01  0.14971474851E+01  0.64524407691E+01  0.17770000000E+01 0. -1.
         15    1    1    2    0    0 -0.22625088644E+01 -0.25397320285E+01 -0.20579460898E+02  0.20934209442E+02  0.17770000000E+01 0.  1.
</event>
<event>
 6    1  0.1298204E-002  0.1825554E+03  0.7546771E-02  0.1068411E+00
        -11   -1    0    0    0    0  0.00000000000E+00  0.00000000000E+00  0.18250000000E+03  0.18250000000E+03  0.00000000000E+00 0.  1.
         11   -1    0    0    0    0 -0.00000000000E+00 -0.00000000000E+00 -0.18250000000E+03  0.18250000000E+03  0.00000000000E+00 0.  1.
        -11    1    1    2    0    0  0.55794882089E+00 -0.73237941204E+00  0.61643785604E+02  0.61650660906E+02  0.00000000000E+00 0.  1.
         11    1    1    2    0    0 -0.34702111975E+01  0.45724187700E-02 -0.18241155209E+03  0.18244455794E+03  0.00000000000E+00 0.  1.
        -15    1    1    2    0    0  0.25445457641E+01  0.15629230456E+00  0.10047020281E+03  0.10051824970E+03  0.17770000000E+01 0.  1.
         15    1    1    2    0    0  0.36771661247E+00  0.57151468871E+00  0.20297563675E+02  0.20386531453E+02  0.17770000000E+01 0. -1.
</event>
<event>
 6    1  0.1298204E-002  0.1862334E+03  0.7546771E-02  0.1065521E+00
        -11   -1    0    0    0    0  0.00000000000E+00  0.00000000000E+00  0.18250000000E+03  0.18250000000E+03  0.00000000000E+00 0. -1.
         11   -1    0    0    0    0 -0.00000000000E+00 -0.00000000000E+00 -0.18250000000E+03  0.18250000000E+03  0.00000000000E+00 0.  1.
        -11    1    1    2    0    0  0.51407461270E+01  0.24400599612E+01  0.17867603281E+03  0.17876662402E+03  0.00000000000E+00 0. -1.
         11    1    1    2    0    0  0.95258963929E+00 -0.26641654451E+01 -0.17496812858E+03  0.17499100326E+03  0.00000000000E+00 0.  1.
        -15    1    1    2    0    0  0.16113342478E+01 -0.97445306865E+00 -0.56749697166E+00  0.26506109964E+01  0.17770000000E+01 0.  1.
         15    1    1    2    0    0 -0.77046700142E+01  0.11985585526E+01 -0.31404072630E+01  0.85917617174E+01  0.17770000000E+01 0.  1.
</event>
<event>
 6    1  0.1298204E-002  0.1828002E+03  0.7546771E-02  0.1068216E+00
        -11   -1    0    0    0    0  0.00000000000E+00  0.00000000000E+00  0.18250000000E+03  0.18250000000E+03  0.00000000000E+00 0. -1.
         11   -1    0    0    0    0 -0.00000000000E+00 -0.00000000000E+00 -0.18250000000E+03  0.18250000000E+03  0.00000000000E+00 0.  1.
        -11    1    1    2    0    0 -0.89470747382E+00 -0.11398840748E+01  0.59221691839E+02  0.59239417801E+02  0.00000000000E+00 0. -1.
         11    1    1    2    0    0  0.81001859722E+00  0.34009835847E+01 -0.18216624029E+03  0.18219978573E+03  0.00000000000E+00 0.  1.
        -15    1    1    2    0    0 -0.46254283722E+01 -0.93471103429E+00  0.26476957194E+02  0.26952834055E+02  0.17770000000E+01 0.  1.
         15    1    1    2    0    0  0.47101172488E+01 -0.13263884756E+01  0.96467591253E+02  0.96607962415E+02  0.17770000000E+01 0. -1.
</event>
<event>
 6    1  0.1298204E-002  0.1771499E+03  0.7546771E-02  0.1072795E+00
        -11   -1    0    0    0    0  0.00000000000E+00  0.00000000000E+00  0.18250000000E+03  0.18250000000E+03  0.00000000000E+00 0.  1.
         11   -1    0    0    0    0 -0.00000000000E+00 -0.00000000000E+00 -0.18250000000E+03  0.18250000000E+03  0.00000000000E+00 0.  1.
        -11    1    1    2    0    0 -0.32983857724E+01  0.36128602705E+01  0.17767813030E+03  0.17774546434E+03  0.00000000000E+00 0.  1.
         11    1    1    2    0    0  0.33379491281E+01  0.44512707670E+01 -0.17656024962E+03  0.17664789119E+03  0.00000000000E+00 0.  1.
        -15    1    1    2    0    0 -0.15623061367E+01 -0.47274545924E+01  0.18107111490E+01  0.55880257027E+01  0.17770000000E+01 0.  1.
         15    1    1    2    0    0  0.15227427810E+01 -0.33366764450E+01 -0.29285918252E+01  0.50186187696E+01  0.17770000000E+01 0. -1.
</event>
<event>
 6    1  0.1298204E-002  0.1834133E+03  0.7546771E-02  0.1067730E+00
        -11   -1    0    0    0    0  0.00000000000E+00  0.00000000000E+00  0.18250000000E+03  0.18250000000E+03  0.00000000000E+00 0. -1.
         11   -1    0    0    0    0 -0.00000000000E+00 -0.00000000000E+00 -0.18250000000E+03  0.18250000000E+03  0.00000000000E+00 0. -1.
        -11    1    1    2    0    0  0.85437260940E+01  0.46284433845E+00  0.70333171539E+02  0.70851707807E+02  0.00000000000E+00 0. -1.
         11    1    1    2    0    0 -0.27097604469E+01 -0.76917981139E+00 -0.18156489085E+03  0.18158673968E+03  0.00000000000E+00 0. -1.
        -15    1    1    2    0    0 -0.61355170608E+01 -0.61521795804E+01  0.37894610227E+02  0.38918544378E+02  0.17770000000E+01 0.  1.
         15    1    1    2    0    0  0.30155141365E+00  0.64585150533E+01  0.73337109081E+02  0.73643008135E+02  0.17770000000E+01 0. -1.
</event>
<event>
 6    1  0.1298204E-002  0.1918365E+03  0.7546771E-02  0.1061257E+00
        -11   -1    0    0    0    0  0.00000000000E+00  0.00000000000E+00  0.18250000000E+03  0.18250000000E+03  0.00000000000E+00 0. -1.
         11   -1    0    0    0    0 -0.00000000000E+00 -0.00000000000E+00 -0.18250000000E+03  0.18250000000E+03  0.00000000000E+00 0.  1.
        -11    1    1    2    0    0  0.92702048800E+00 -0.24062459887E+01  0.16058989285E+03  0.16061059452E+03  0.00000000000E+00 0. -1.
         11    1    1    2    0    0  0.49760167813E+01  0.12015314742E+01 -0.17308785624E+03  0.17316353657E+03  0.00000000000E+00 0.  1.
        -15    1    1    2    0    0 -0.49039470236E+01  0.10110247262E+02  0.17452506233E+02  0.20832990638E+02  0.17770000000E+01 0. -1.
         15    1    1    2    0    0 -0.99909024567E+00 -0.89055327474E+01 -0.49545428471E+01  0.10392878266E+02  0.17770000000E+01 0.  1.
</event>
<event>
 6    1  0.1298204E-002  0.1870147E+03  0.7546771E-02  0.1064917E+00
        -11   -1    0    0    0    0  0.00000000000E+00  0.00000000000E+00  0.18250000000E+03  0.18250000000E+03  0.00000000000E+00 0.  1.
         11   -1    0    0    0    0 -0.00000000000E+00 -0.00000000000E+00 -0.18250000000E+03  0.18250000000E+03  0.00000000000E+00 0. -1.
        -11    1    1    2    0    0 -0.49430404259E+01  0.96746513455E+00  0.17791403113E+03  0.17798531431E+03  0.00000000000E+00 0.  1.
         11    1    1    2    0    0  0.74716072160E+01 -0.11438403377E+02 -0.15785798564E+03  0.15844811649E+03  0.00000000000E+00 0. -1.
        -15    1    1    2    0    0 -0.50296462976E+01  0.11647173743E+02 -0.21460403801E+02  0.24993212246E+02  0.17770000000E+01 0. -1.
         15    1    1    2    0    0  0.25010795075E+01 -0.11762355009E+01  0.14043583109E+01  0.35733569542E+01  0.17770000000E+01 0.  1.
</event>
<event>
 6    1  0.1298204E-002  0.1910679E+03  0.7546771E-02  0.1061832E+00
        -11   -1    0    0    0    0  0.00000000000E+00  0.00000000000E+00  0.18250000000E+03  0.18250000000E+03  0.00000000000E+00 0. -1.
         11   -1    0    0    0    0 -0.00000000000E+00 -0.00000000000E+00 -0.18250000000E+03  0.18250000000E+03  0.00000000000E+00 0. -1.
        -11    1    1    2    0    0 -0.23121790932E+01  0.15483533502E+01  0.16608953910E+03  0.16611284890E+03  0.00000000000E+00 0. -1.
         11    1    1    2    0    0  0.55797205324E+01  0.60020163723E+00 -0.17384157491E+03  0.17393213242E+03  0.00000000000E+00 0. -1.
        -15    1    1    2    0    0  0.11423323452E+01 -0.27253163776E+01  0.15482155076E+02  0.15861498269E+02  0.17770000000E+01 0. -1.
         15    1    1    2    0    0 -0.44098737843E+01  0.57676139022E+00 -0.77301192699E+01  0.90935204086E+01  0.17770000000E+01 0. -1.
</event>
<event>
 6    1  0.1298204E-002  0.1827597E+03  0.7546771E-02  0.1068248E+00
        -11   -1    0    0    0    0  0.00000000000E+00  0.00000000000E+00  0.18250000000E+03  0.18250000000E+03  0.00000000000E+00 0. -1.
         11   -1    0    0    0    0 -0.00000000000E+00 -0.00000000000E+00 -0.18250000000E+03  0.18250000000E+03  0.00000000000E+00 0.  1.
        -11    1    1    2    0    0  0.98633215470E+00  0.18340336797E+01  0.55090454668E+02  0.55129798894E+02  0.00000000000E+00 0. -1.
         11    1    1    2    0    0  0.22786763348E+01  0.19056755736E+01 -0.18221604293E+03  0.18224025424E+03  0.00000000000E+00 0.  1.
        -15    1    1    2    0    0 -0.34004143434E+01 -0.87645027805E+00  0.11431894319E+03  0.11438666655E+03  0.17770000000E+01 0. -1.
         15    1    1    2    0    0  0.13540585392E+00 -0.28632589753E+01  0.12806645066E+02  0.13243280317E+02  0.17770000000E+01 0.  1.
</event>
<event>
 6    1  0.1298204E-002  0.1829106E+03  0.7546771E-02  0.1068128E+00
        -11   -1    0    0    0    0  0.00000000000E+00  0.00000000000E+00  0.18250000000E+03  0.18250000000E+03  0.00000000000E+00 0.  1.
         11   -1    0    0    0    0 -0.00000000000E+00 -0.00000000000E+00 -0.18250000000E+03  0.18250000000E+03  0.00000000000E+00 0.  1.
        -11    1    1    2    0    0  0.22623186269E+01 -0.95068669902E+00  0.12944211588E+03  0.12946537473E+03  0.00000000000E+00 0.  1.
         11    1    1    2    0    0  0.42639560872E+00 -0.56221748103E+01 -0.18200211979E+03  0.18208943481E+03  0.00000000000E+00 0.  1.
        -15    1    1    2    0    0 -0.19857407532E+01  0.47370314979E+01  0.18489600528E+02  0.19271888606E+02  0.17770000000E+01 0. -1.
         15    1    1    2    0    0 -0.70297348239E+00  0.18358300114E+01  0.34070403381E+02  0.34173301847E+02  0.17770000000E+01 0.  1.
</event>
<event>
 6    1  0.1298204E-002  0.1420788E+03  0.7546771E-02  0.1106135E+00
        -11   -1    0    0    0    0  0.00000000000E+00  0.00000000000E+00  0.18250000000E+03  0.18250000000E+03  0.00000000000E+00 0.  1.
         11   -1    0    0    0    0 -0.00000000000E+00 -0.00000000000E+00 -0.18250000000E+03  0.18250000000E+03  0.00000000000E+00 0. -1.
        -11    1    1    2    0    0  0.63373238401E+00 -0.81585106400E+01  0.13806129629E+03  0.13830359521E+03  0.00000000000E+00 0.  1.
         11    1    1    2    0    0  0.94492771202E+01 -0.14430652238E+02 -0.14602462313E+03  0.14703986916E+03  0.00000000000E+00 0. -1.
        -15    1    1    2    0    0 -0.17036692923E+02  0.23580017015E+02 -0.29517772844E+02  0.41481595326E+02  0.17770000000E+01 0. -1.
         15    1    1    2    0    0  0.69536834185E+01 -0.99085413702E+00  0.37481099683E+02  0.38174940307E+02  0.17770000000E+01 0.  1.
</event>
<event>
 6    1  0.1298204E-002  0.1840323E+03  0.7546771E-02  0.1067242E+00
        -11   -1    0    0    0    0  0.00000000000E+00  0.00000000000E+00  0.18250000000E+03  0.18250000000E+03  0.00000000000E+00 0. -1.
         11   -1    0    0    0    0 -0.00000000000E+00 -0.00000000000E+00 -0.18250000000E+03  0.18250000000E+03  0.00000000000E+00 0. -1.
        -11    1    1    2    0    0 -0.56645339302E+01 -0.15362373615E+01  0.18087254113E+03  0.18096774051E+03  0.00000000000E+00 0. -1.
         11    1    1    2    0    0 -0.48995279446E+01  0.29606546941E+00 -0.61703453113E+02  0.61898377644E+02  0.00000000000E+00 0. -1.
        -15    1    1    2    0    0  0.11879647522E+02  0.91691130318E+01 -0.44149717110E+02  0.46664268010E+02  0.17770000000E+01 0.  1.
         15    1    1    2    0    0 -0.13155856475E+01 -0.79289411397E+01 -0.75019370904E+02  0.75469613840E+02  0.17770000000E+01 0. -1.
</event>
<event>
 6    1  0.1298204E-002  0.1831369E+03  0.7546771E-02  0.1067949E+00
        -11   -1    0    0    0    0  0.00000000000E+00  0.00000000000E+00  0.18250000000E+03  0.18250000000E+03  0.00000000000E+00 0. -1.
         11   -1    0    0    0    0 -0.00000000000E+00 -0.00000000000E+00 -0.18250000000E+03  0.18250000000E+03  0.00000000000E+00 0. -1.
        -11    1    1    2    0    0 -0.23085908061E+00  0.23307480875E+01  0.15680021107E+03  0.15681770268E+03  0.00000000000E+00 0. -1.
         11    1    1    2    0    0 -0.13261306501E+01  0.43687866643E+01 -0.18180577946E+03  0.18186309786E+03  0.00000000000E+00 0. -1.
        -15    1    1    2    0    0 -0.31694809740E-01 -0.33972932375E+01  0.86050075693E+01  0.94205355564E+01  0.17770000000E+01 0.  1.
         15    1    1    2    0    0  0.15886845405E+01 -0.33022415142E+01  0.16400560820E+02  0.16898663906E+02  0.17770000000E+01 0. -1.
</event>
<event>
 6    1  0.1298204E-002  0.1763498E+03  0.7546771E-02  0.1073459E+00
        -11   -1    0    0    0    0  0.00000000000E+00  0.00000000000E+00  0.18250000000E+03  0.18250000000E+03  0.00000000000E+00 0.  1.
         11   -1    0    0    0    0 -0.00000000000E+00 -0.00000000000E+00 -0.18250000000E+03  0.18250000000E+03  0.00000000000E+00 0.  1.
        -11    1    1    2    0    0 -0.12661390725E+01 -0.53101550049E+01  0.17702305355E+03  0.17710720579E+03  0.00000000000E+00 0.  1.
         11    1    1    2    0    0 -0.51177684654E+01  0.17607613555E+00 -0.17561571961E+03  0.17569036266E+03  0.00000000000E+00 0.  1.
        -15    1    1    2    0    0  0.77777228243E+01  0.19896241832E+01 -0.57527650594E+00  0.82425875051E+01  0.17770000000E+01 0. -1.
         15    1    1    2    0    0 -0.13938152864E+01  0.31444546862E+01 -0.83205743682E+00  0.39598440505E+01  0.17770000000E+01 0.  1.
</event>
<event>
 6    1  0.1298204E-002  0.1836651E+03  0.7546771E-02  0.1067531E+00
        -11   -1    0    0    0    0  0.00000000000E+00  0.00000000000E+00  0.18250000000E+03  0.18250000000E+03  0.00000000000E+00 0.  1.
         11   -1    0    0    0    0 -0.00000000000E+00 -0.00000000000E+00 -0.18250000000E+03  0.18250000000E+03  0.00000000000E+00 0.  1.
        -11    1    1    2    0    0  0.27462947814E+01 -0.28841591176E+01  0.16076573488E+03  0.16081505532E+03  0.00000000000E+00 0.  1.
         11    1    1    2    0    0 -0.42935787190E+00  0.68196887720E+01 -0.18120609657E+03  0.18133488892E+03  0.00000000000E+00 0.  1.
        -15    1    1    2    0    0 -0.26121587187E+01  0.57922534470E+00  0.15823085240E+02  0.16145792971E+02  0.17770000000E+01 0. -1.
         15    1    1    2    0    0  0.29522180915E+00 -0.45147549991E+01  0.46172764589E+01  0.67042627869E+01  0.17770000000E+01 0.  1.
</event>
<event>
 6    1  0.1298204E-002  0.1845891E+03  0.7546771E-02  0.1066804E+00
        -11   -1    0    0    0    0  0.00000000000E+00  0.00000000000E+00  0.18250000000E+03  0.18250000000E+03  0.00000000000E+00 0.  1.
         11   -1    0    0    0    0 -0.00000000000E+00 -0.00000000000E+00 -0.18250000000E+03  0.18250000000E+03  0.00000000000E+00 0.  1.
        -11    1    1    2    0    0 -0.45894318338E+00  0.27904021936E+01  0.16041326597E+03  0.16043819020E+03  0.00000000000E+00 0.  1.
         11    1    1    2    0    0 -0.24265700547E+01  0.27492934746E+00 -0.18039432577E+03  0.18041085499E+03  0.00000000000E+00 0.  1.
        -15    1    1    2    0    0 -0.12177433125E+01  0.43633132204E+01  0.79508228187E+01  0.93217333972E+01  0.17770000000E+01 0. -1.
         15    1    1    2    0    0  0.41032565506E+01 -0.74286447614E+01  0.12030236973E+02  0.14829221420E+02  0.17770000000E+01 0. -1.
</event>
<event>
 6    1  0.1298204E-002  0.1793983E+03  0.7546771E-02  0.1070951E+00
        -11   -1    0    0    0    0  0.00000000000E+00  0.00000000000E+00  0.18250000000E+03  0.18250000000E+03  0.00000000000E+00 0. -1.
         11   -1    0    0    0    0 -0.00000000000E+00 -0.00000000000E+00 -0.18250000000E+03  0.18250000000E+03  0.00000000000E+00 0. -1.
        -11    1    1    2    0    0 -0.27194348843E+01  0.12672060498E+01  0.17861341759E+03  0.17863861307E+03  0.00000000000E+00 0. -1.
         11    1    1    2    0    0  0.38836783430E+00 -0.25291852831E+01 -0.18015281893E+03  0.18017099039E+03  0.00000000000E+00 0. -1.
        -15    1    1    2    0    0  0.21180218508E-01  0.14784815948E+01 -0.80080472707E+00  0.24465023275E+01  0.17770000000E+01 0.  1.
         15    1    1    2    0    0  0.23098868315E+01 -0.21650236148E+00  0.23402060702E+01  0.37438942156E+01  0.17770000000E+01 0.  1.
</event>
<event>
 6    1  0.1298204E-002  0.1697493E+03  0.7546771E-02  0.1079083E+00
        -11   -1    0    0    0    0  0.00000000000E+00  0.00000000000E+00  0.18250000000E+03  0.18250000000E+03  0.00000000000E+00 0.  1.
         11   -1    0    0    0    0 -0.00000000000E+00 -0.00000000000E+00 -0.18250000000E+03  0.18250000000E+03  0.00000000000E+00 0.  1.
        -11    1    1    2    0    0  0.16626308760E+01  0.31632937265E+01  0.17088866871E+03  0.17092603038E+03  0.00000000000E+00 0.  1.
         11    1    1    2    0    0  0.21028313080E+01  0.42193568662E+01 -0.16861533227E+03  0.16868122347E+03  0.00000000000E+00 0.  1.
        -15    1    1    2    0    0 -0.56127268336E+01 -0.22575809269E+01 -0.12312600172E+02  0.13833192912E+02  0.17770000000E+01 0.  1.
         15    1    1    2    0    0  0.18472646497E+01 -0.51250696657E+01  0.10039263736E+02  0.11559553241E+02  0.17770000000E+01 0. -1.
</event>
<event>
 6    1  0.1298204E-002  0.1846755E+03  0.7546771E-02  0.1066736E+00
        -11   -1    0    0    0    0  0.00000000000E+00  0.00000000000E+00  0.18250000000E+03  0.18250000000E+03  0.00000000000E+00 0.  1.
         11   -1    0    0    0    0 -0.00000000000E+00 -0.00000000000E+00 -0.18250000000E+03  0.18250000000E+03  0.00000000000E+00 0.  1.
        -11    1    1    2    0    0  0.30473092980E+01 -0.58778668925E+00  0.18029776228E+03  0.18032447053E+03  0.00000000000E+00 0.  1.
         11    1    1    2    0    0  0.21772697116E+01  0.27855714478E+01 -0.17535587497E+03  0.17539151290E+03  0.00000000000E+00 0.  1.
        -15    1    1    2    0    0 -0.27628919525E+01 -0.26177280416E+01 -0.45527361728E+01  0.61944497496E+01  0.17770000000E+01 0. -1.
         15    1    1    2    0    0 -0.24616870571E+01  0.41994328307E+00 -0.38915113974E+00  0.30895668204E+01  0.17770000000E+01 0.  1.
</event>
<event>
 6    1  0.1298204E-002  0.1850358E+03  0.7546771E-02  0.1066454E+00
        -11   -1    0    0    0    0  0.00000000000E+00  0.00000000000E+00  0.18250000000E+03  0.18250000000E+03  0.00000000000E+00 0. -1.
         11   -1    0    0    0    0 -0.00000000000E+00 -0.00000000000E+00 -0.18250000000E+03  0.18250000000E+03  0.00000000000E+00 0.  1.
        -11    1    1    2    0    0 -0.30372002974E+01 -0.37895299213E+01  0.17989863168E+03  0.17996417089E+03  0.00000000000E+00 0. -1.
         11    1    1    2    0    0 -0.16059047585E+01  0.25847062545E+00 -0.40062933526E+02  0.40095939693E+02  0.00000000000E+00 0.  1.
        -15    1    1    2    0    0  0.50784978633E+01 -0.11487112099E+02 -0.11611058221E+03  0.11680141230E+03  0.17770000000E+01 0.  1.
         15    1    1    2    0    0 -0.43539280736E+00  0.15018171395E+02 -0.23725115943E+02  0.28138477116E+02  0.17770000000E+01 0. -1.
</event>
<event>
 6    1  0.1298204E-002  0.1850195E+03  0.7546771E-02  0.1066467E+00
        -11   -1    0    0    0    0  0.00000000000E+00  0.00000000000E+00  0.18250000000E+03  0.18250000000E+03  0.00000000000E+00 0. -1.
         11   -1    0    0    0    0 -0.00000000000E+00 -0.00000000000E+00 -0.18250000000E+03  0.18250000000E+03  0.00000000000E+00 0. -1.
        -11    1    1    2    0    0 -0.20413995361E+01 -0.16617137737E+01  0.17320520687E+03  0.17322520686E+03  0.00000000000E+00 0. -1.
         11    1    1    2    0    0  0.32187764791E+01  0.28228766430E+01 -0.17992958882E+03  0.17998051586E+03  0.00000000000E+00 0. -1.
        -15    1    1    2    0    0  0.31077444973E+01 -0.19493401414E+01  0.56513526129E+01  0.69680354622E+01  0.17770000000E+01 0.  1.
         15    1    1    2    0    0 -0.42851214403E+01  0.78817727218E+00  0.10730293413E+01  0.48262418234E+01  0.17770000000E+01 0. -1.
</event>
<event>
 6    1  0.1298204E-002  0.1835684E+03  0.7546771E-02  0.1067608E+00
        -11   -1    0    0    0    0  0.00000000000E+00  0.00000000000E+00  0.18250000000E+03  0.18250000000E+03  0.00000000000E+00 0.  1.
         11   -1    0    0    0    0 -0.00000000000E+00 -0.00000000000E+00 -0.18250000000E+03  0.18250000000E+03  0.00000000000E+00 0. -1.
        -11    1    1    2    0    0  0.10025162764E+00 -0.53985223036E+01  0.18135123980E+03  0.18143160219E+03  0.00000000000E+00 0.  1.
         11    1    1    2    0    0  0.30137727264E+01 -0.44827642699E+01 -0.15145710781E+03  0.15155340150E+03  0.00000000000E+00 0. -1.
        -15    1    1    2    0    0 -0.15047683192E+01  0.64450753692E+01 -0.14137668659E+02  0.15710974773E+02  0.17770000000E+01 0. -1.
         15    1    1    2    0    0 -0.16092560349E+01  0.34362112043E+01 -0.15756463336E+02  0.16304021537E+02  0.17770000000E+01 0.  1.
</event>
<event>
 6    1  0.1298204E-002  0.1832036E+03  0.7546771E-02  0.1067896E+00
        -11   -1    0    0    0    0  0.00000000000E+00  0.00000000000E+00  0.18250000000E+03  0.18250000000E+03  0.00000000000E+00 0. -1.
         11   -1    0    0    0    0 -0.00000000000E+00 -0.00000000000E+00 -0.18250000000E+03  0.18250000000E+03  0.00000000000E+00 0. -1.
        -11    1    1    2    0    0 -0.22097141711E+01  0.40626903110E-01  0.43511612563E+02  0.43567704955E+02  0.00000000000E+00 0. -1.
         11    1    1    2    0    0  0.24782835586E-01  0.28166462600E+01 -0.18177459007E+03  0.18179641280E+03  0.00000000000E+00 0. -1.
        -15    1    1    2    0    0 -0.33573046031E+01 -0.66475646821E+01  0.24669943769E+02  0.25830707791E+02  0.17770000000E+01 0.  1.
         15    1    1    2    0    0  0.55422359386E+01  0.37902915189E+01  0.11359303374E+03  0.11380517445E+03  0.17770000000E+01 0. -1.
</event>
<event>
 6    1  0.1298204E-002  0.1885386E+03  0.7546771E-02  0.1063747E+00
        -11   -1    0    0    0    0  0.00000000000E+00  0.00000000000E+00  0.18250000000E+03  0.18250000000E+03  0.00000000000E+00 0.  1.
         11   -1    0    0    0    0 -0.00000000000E+00 -0.00000000000E+00 -0.18250000000E+03  0.18250000000E+03  0.00000000000E+00 0.  1.
        -11    1    1    2    0    0 -0.49250967834E+01 -0.47496181658E+01  0.15854823533E+03  0.15869580453E+03  0.00000000000E+00 0.  1.
         11    1    1    2    0    0 -0.10826073697E+01 -0.21760807332E+01 -0.17644464138E+03  0.17646138058E+03  0.00000000000E+00 0.  1.
        -15    1    1    2    0    0  0.28746936734E+01  0.40482121643E+01  0.22629349210E+02  0.23235685058E+02  0.17770000000E+01 0. -1.
         15    1    1    2    0    0  0.31330104797E+01  0.28774867346E+01 -0.47329431611E+01  0.66071298262E+01  0.17770000000E+01 0. -1.
</event>
<event>
 6    1  0.1298204E-002  0.1766292E+03  0.7546771E-02  0.1073226E+00
        -11   -1    0    0    0    0  0.00000000000E+00  0.00000000000E+00  0.18250000000E+03  0.18250000000E+03  0.00000000000E+00 0.  1.
         11   -1    0    0    0    0 -0.00000000000E+00 -0.00000000000E+00 -0.18250000000E+03  0.18250000000E+03  0.00000000000E+00 0. -1.
        -11    1    1    2    0    0  0.27060243763E+00 -0.28287834862E+01  0.17537035481E+03  0.17539337669E+03  0.00000000000E+00 0.  1.
         11    1    1    2    0    0 -0.11584062369E+01 -0.31177352749E+01 -0.17789418881E+03  0.17792527811E+03  0.00000000000E+00 0. -1.
        -15    1    1    2    0    0  0.27361498022E+01  0.61998015559E+01 -0.12453968913E+01  0.71156726660E+01  0.17770000000E+01 0. -1.
         15    1    1    2    0    0 -0.18483460029E+01 -0.25328279483E+00  0.37692308952E+01  0.45656725312E+01  0.17770000000E+01 0.  1.
</event>
<event>
 6    1  0.1298204E-002  0.1832821E+03  0.7546771E-02  0.1067834E+00
        -11   -1    0    0    0    0  0.00000000000E+00  0.00000000000E+00  0.18250000000E+03  0.18250000000E+03  0.00000000000E+00 0. -1.
         11   -1    0    0    0    0 -0.00000000000E+00 -0.00000000000E+00 -0.18250000000E+03  0.18250000000E+03  0.00000000000E+00 0. -1.
        -11    1    1    2    0    0  0.19306288504E+01  0.77074665364E+01  0.11039549886E+03  0.11068106675E+03  0.00000000000E+00 0. -1.
         11    1    1    2    0    0  0.17788403444E+01 -0.51702405563E+01 -0.18163565918E+03  0.18171793622E+03  0.00000000000E+00 0. -1.
        -15    1    1    2    0    0 -0.47804568224E+01 -0.57264736182E+01  0.63653590649E+02  0.64113825335E+02  0.17770000000E+01 0. -1.
         15    1    1    2    0    0  0.10709876275E+01  0.31892476381E+01  0.75865696641E+01  0.84871716881E+01  0.17770000000E+01 0.  1.
</event>
<event>
 6    1  0.1298204E-002  0.1834689E+03  0.7546771E-02  0.1067686E+00
        -11   -1    0    0    0    0  0.00000000000E+00  0.00000000000E+00  0.18250000000E+03  0.18250000000E+03  0.00000000000E+00 0. -1.
         11   -1    0    0    0    0 -0.00000000000E+00 -0.00000000000E+00 -0.18250000000E+03  0.18250000000E+03  0.00000000000E+00 0. -1.
        -11    1    1    2    0    0 -0.12791703338E+01  0.21743998993E+01  0.17139463139E+03  0.17141319657E+03  0.00000000000E+00 0. -1.
         11    1    1    2    0    0  0.23269502204E+01  0.13146511206E+01 -0.18151140686E+03  0.18153108225E+03  0.00000000000E+00 0. -1.
        -15    1    1    2    0    0 -0.33827169519E+00 -0.19146674826E+01  0.89260922468E+01  0.93066229701E+01  0.17770000000E+01 0.  1.
         15    1    1    2    0    0 -0.70950819132E+00 -0.15743835372E+01  0.11906832220E+01  0.27490982032E+01  0.17770000000E+01 0. -1.
</event>
<event>
 6    1  0.1298204E-002  0.1834380E+03  0.7546771E-02  0.1067711E+00
        -11   -1    0    0    0    0  0.00000000000E+00  0.00000000000E+00  0.18250000000E+03  0.18250000000E+03  0.00000000000E+00 0. -1.
         11   -1    0    0    0    0 -0.00000000000E+00 -0.00000000000E+00 -0.18250000000E+03  0.18250000000E+03  0.00000000000E+00 0.  1.
        -11    1    1    2    0    0 -0.47706366902E+00  0.79166007650E+01  0.26859791258E+02  0.28006223305E+02  0.00000000000E+00 0. -1.
         11    1    1    2    0    0  0.56324644557E+00 -0.46142901341E+01 -0.18150250480E+03  0.18156202293E+03  0.00000000000E+00 0.  1.
        -15    1    1    2    0    0 -0.23708643018E+01 -0.52424092274E+01  0.14584309309E+03  0.14596735725E+03  0.17770000000E+01 0. -1.
         15    1    1    2    0    0  0.22846815253E+01  0.19400985965E+01  0.87996204578E+01  0.94643965174E+01  0.17770000000E+01 0.  1.
</event>
<event>
 6    1  0.1298204E-002  0.1835117E+03  0.7546771E-02  0.1067652E+00
        -11   -1    0    0    0    0  0.00000000000E+00  0.00000000000E+00  0.18250000000E+03  0.18250000000E+03  0.00000000000E+00 0.  1.
         11   -1    0    0    0    0 -0.00000000000E+00 -0.00000000000E+00 -0.18250000000E+03  0.18250000000E+03  0.00000000000E+00 0. -1.
        -11    1    1    2    0    0 -0.21508217281E+01 -0.10562390382E+00  0.11403859766E+03  0.11405892752E+03  0.00000000000E+00 0.  1.
         11    1    1    2    0    0 -0.26687525090E+01 -0.13700546187E+01 -0.18146350031E+03  0.18148829503E+03  0.00000000000E+00 0. -1.
        -15    1    1    2    0    0  0.17109768095E+01 -0.65844700024E+01  0.19639227348E+02  0.20860001598E+02  0.17770000000E+01 0. -1.
         15    1    1    2    0    0  0.31085974276E+01  0.80601485249E+01  0.47785675295E+02  0.48592775848E+02  0.17770000000E+01 0.  1.
</event>
<event>
 6    1  0.1298204E-002  0.1891068E+03  0.7546771E-02  0.1063314E+00
        -11   -1    0    0    0    0  0.00000000000E+00  0.00000000000E+00  0.18250000000E+03  0.18250000000E+03  0.00000000000E+00 0. -1.
         11   -1    0    0    0    0 -0.00000000000E+00 -0.00000000000E+00 -0.18250000000E+03  0.18250000000E+03  0.00000000000E+00 0. -1.
        -11    1    1    2    0    0 -0.31123435646E+01 -0.14874431135E+01  0.16488348544E+03  0.16491956506E+03  0.00000000000E+00 0. -1.
         11    1    1    2    0    0  0.42014913090E+01  0.19040771013E+01 -0.17583269603E+03  0.17589319211E+03  0.00000000000E+00 0. -1.
        -15    1    1    2    0    0  0.27511965692E+01  0.73322723860E+01  0.12852830793E+02  0.15155338640E+02  0.17770000000E+01 0. -1.
         15    1    1    2    0    0 -0.38403443136E+01 -0.77489063738E+01 -0.19036202023E+01  0.90319041908E+01  0.17770000000E+01 0.  1.
</event>
<event>
 6    1  0.1298204E-002  0.1828023E+03  0.7546771E-02  0.1068214E+00
        -11   -1    0    0    0    0  0.00000000000E+00  0.00000000000E+00  0.18250000000E+03  0.18250000000E+03  0.00000000000E+00 0.  1.
         11   -1    0    0    0    0 -0.00000000000E+00 -0.00000000000E+00 -0.18250000000E+03  0.18250000000E+03  0.00000000000E+00 0. -1.
        -11    1    1    2    0    0 -0.48011182449E+00  0.33305020679E+01  0.18216664415E+03  0.18219771951E+03  0.00000000000E+00 0.  1.
         11    1    1    2    0    0 -0.15178491759E+01 -0.29320241078E+01 -0.96365096100E+02  0.96421638535E+02  0.00000000000E+00 0. -1.
        -15    1    1    2    0    0 -0.12755440545E+01 -0.15447547259E+01 -0.71889573639E+01  0.76715133303E+01  0.17770000000E+01 0.  1.
         15    1    1    2    0    0  0.32735050549E+01  0.11462767658E+01 -0.78612590688E+02  0.78709128629E+02  0.17770000000E+01 0. -1.
</event>
<event>
 6    1  0.1298204E-002  0.1829864E+03  0.7546771E-02  0.1068068E+00
        -11   -1    0    0    0    0  0.00000000000E+00  0.00000000000E+00  0.18250000000E+03  0.18250000000E+03  0.00000000000E+00 0. -1.
         11   -1    0    0    0    0 -0.00000000000E+00 -0.00000000000E+00 -0.18250000000E+03  0.18250000000E+03  0.00000000000E+00 0.  1.
        -11    1    1    2    0    0  0.27707415256E+01  0.38777465466E+01  0.52785130247E+02  0.52999848133E+02  0.00000000000E+00 0. -1.
         11    1    1    2    0    0 -0.37142236369E+01  0.31938419087E+01 -0.18194770058E+03  0.18201363089E+03  0.00000000000E+00 0.  1.
        -15    1    1    2    0    0  0.54460462814E+01  0.35093143127E+00  0.53340500084E+02  0.53648385355E+02  0.17770000000E+01 0. -1.
         15    1    1    2    0    0 -0.45025641700E+01 -0.74225198866E+01  0.75822070245E+02  0.76338135626E+02  0.17770000000E+01 0.  1.
</event>
<event>
 6    1  0.1298204E-002  0.1690974E+03  0.7546771E-02  0.1079654E+00
        -11   -1    0    0    0    0  0.00000000000E+00  0.00000000000E+00  0.18250000000E+03  0.18250000000E+03  0.00000000000E+00 0. -1.
         11   -1    0    0    0    0 -0.00000000000E+00 -0.00000000000E+00 -0.18250000000E+03  0.18250000000E+03  0.00000000000E+00 0.  1.
        -11    1    1    2    0    0 -0.29044924043E+01  0.88187785674E+00  0.16936855966E+03  0.16939575787E+03  0.00000000000E+00 0. -1.
         11    1    1    2    0    0  0.33378582849E+01 -0.16965711137E+02 -0.16829737725E+03  0.16918328475E+03  0.00000000000E+00 0.  1.
        -15    1    1    2    0    0 -0.22067706397E+01  0.20625550979E+02 -0.26725853175E+01  0.20990084114E+02  0.17770000000E+01 0. -1.
         15    1    1    2    0    0  0.17734047591E+01 -0.45417176984E+01  0.16014029042E+01  0.54308732588E+01  0.17770000000E+01 0.  1.
</event>
<event>
 6    1  0.1298204E-002  0.1852292E+03  0.7546771E-02  0.1066303E+00
        -11   -1    0    0    0    0  0.00000000000E+00  0.00000000000E+00  0.18250000000E+03  0.18250000000E+03  0.00000000000E+00 0.  1.
         11   -1    0    0    0    0 -0.00000000000E+00 -0.00000000000E+00 -0.18250000000E+03  0.18250000000E+03  0.00000000000E+00 0. -1.
        -11    1    1    2    0    0  0.24161236909E+01  0.26856718657E+00  0.17975439056E+03  0.17977082830E+03  0.00000000000E+00 0.  1.
         11    1    1    2    0    0 -0.48872580887E+00 -0.36792404857E+01 -0.16862327603E+03  0.16866411854E+03  0.00000000000E+00 0. -1.
        -15    1    1    2    0    0 -0.29227650035E+00 -0.26696945806E+01  0.46202316628E+00  0.32532889685E+01  0.17770000000E+01 0.  1.
         15    1    1    2    0    0 -0.16351213817E+01  0.60803678797E+01 -0.11593137694E+02  0.13311764199E+02  0.17770000000E+01 0. -1.
</event>
<event>
 6    1  0.1298204E-002  0.1882025E+03  0.7546771E-02  0.1064004E+00
        -11   -1    0    0    0    0  0.00000000000E+00  0.00000000000E+00  0.18250000000E+03  0.18250000000E+03  0.00000000000E+00 0. -1.
         11   -1    0    0    0    0 -0.00000000000E+00 -0.00000000000E+00 -0.18250000000E+03  0.18250000000E+03  0.00000000000E+00 0. -1.
        -11    1    1    2    0    0 -0.30512728414E+01  0.18089132199E+02  0.12712205223E+03  0.12843886924E+03  0.00000000000E+00 0. -1.
         11    1    1    2    0    0  0.52995705003E+01  0.42942407042E+01 -0.17666591340E+03  0.17679754215E+03  0.00000000000E+00 0. -1.
        -15    1    1    2    0    0 -0.39983687300E+01 -0.16395294669E+02  0.50437572404E+02  0.53215590562E+02  0.17770000000E+01 0. -1.
         15    1    1    2    0    0  0.17500710712E+01 -0.59880782337E+01 -0.89371122966E+00  0.65479980490E+01  0.17770000000E+01 0.  1.
</event>
<event>
 6    1  0.1298204E-002  0.1723240E+03  0.7546771E-02  0.1076856E+00
        -11   -1    0    0    0    0  0.00000000000E+00  0.00000000000E+00  0.18250000000E+03  0.18250000000E+03  0.00000000000E+00 0.  1.
         11   -1    0    0    0    0 -0.00000000000E+00 -0.00000000000E+00 -0.18250000000E+03  0.18250000000E+03  0.00000000000E+00 0. -1.
        -11    1    1    2    0    0 -0.28790794247E+01  0.11581040772E+01  0.16959458507E+03  0.16962297483E+03  0.00000000000E+00 0.  1.
         11    1    1    2    0    0 -0.66795588896E+01 -0.55856533862E+01 -0.17501204012E+03  0.17522850858E+03  0.00000000000E+00 0. -1.
        -15    1    1    2    0    0  0.12864464968E+01 -0.30855255002E+01  0.77228234194E+01  0.86008803485E+01  0.17770000000E+01 0. -1.
         15    1    1    2    0    0  0.82721918175E+01  0.75130748092E+01 -0.23053683739E+01  0.11547636247E+02  0.17770000000E+01 0. -1.
</event>
<event>
 6    1  0.1298204E-002  0.1827656E+03  0.7546771E-02  0.1068244E+00
        -11   -1    0    0    0    0  0.00000000000E+00  0.00000000000E+00  0.18250000000E+03  0.18250000000E+03  0.00000000000E+00 0. -1.
         11   -1    0    0    0    0 -0.00000000000E+00 -0.00000000000E+00 -0.18250000000E+03  0.18250000000E+03  0.00000000000E+00 0.  1.
        -11    1    1    2    0    0  0.26851114667E+00 -0.27559206614E+01  0.18221340714E+03  0.18223444498E+03  0.00000000000E+00 0. -1.
         11    1    1    2    0    0  0.21330448815E+00 -0.83448934097E+00 -0.17017243729E+02  0.17039027419E+02  0.00000000000E+00 0.  1.
        -15    1    1    2    0    0 -0.14638721624E+01  0.43771561376E+01 -0.23554296495E+02  0.24067925335E+02  0.17770000000E+01 0.  1.
         15    1    1    2    0    0  0.98205652754E+00 -0.78674613516E+00 -0.14164186691E+03  0.14165860227E+03  0.17770000000E+01 0.  1.
</event>
<event>
 6    1  0.1298204E-002  0.1837778E+03  0.7546771E-02  0.1067442E+00
        -11   -1    0    0    0    0  0.00000000000E+00  0.00000000000E+00  0.18250000000E+03  0.18250000000E+03  0.00000000000E+00 0. -1.
         11   -1    0    0    0    0 -0.00000000000E+00 -0.00000000000E+00 -0.18250000000E+03  0.18250000000E+03  0.00000000000E+00 0. -1.
        -11    1    1    2    0    0 -0.41548649474E+01 -0.58452209448E+01  0.18108023336E+03  0.18122218525E+03  0.00000000000E+00 0. -1.
         11    1    1    2    0    0  0.18227560167E+01 -0.17437440155E+01 -0.15353376641E+03  0.15355448711E+03  0.00000000000E+00 0. -1.
        -15    1    1    2    0    0 -0.72069340434E-01  0.56359066703E+01 -0.25352444675E+02  0.26032149700E+02  0.17770000000E+01 0. -1.
         15    1    1    2    0    0  0.24041782711E+01  0.19530582901E+01 -0.21940222791E+01  0.41911779496E+01  0.17770000000E+01 0.  1.
</event>
<event>
 6    1  0.1298204E-002  0.1844108E+03  0.7546771E-02  0.1066944E+00
        -11   -1    0    0    0    0  0.00000000000E+00  0.00000000000E+00  0.18250000000E+03  0.18250000000E+03  0.00000000000E+00 0. -1.
         11   -1    0    0    0    0 -0.00000000000E+00 -0.00000000000E+00 -0.18250000000E+03  0.18250000000E+03  0.00000000000E+00 0. -1.
        -11    1    1    2    0    0 -0.20997999649E+01  0.11058145675E+02  0.18023803653E+03  0.18058915127E+03  0.00000000000E+00 0. -1.
         11    1    1    2    0    0  0.98051035105E+00  0.21484177293E+01 -0.11556534536E+03  0.11558947248E+03  0.00000000000E+00 0. -1.
        -15    1    1    2    0    0 -0.81242714804E+00  0.10117421528E+01 -0.41160958151E+02  0.41219726649E+02  0.17770000000E+01 0. -1.
         15    1    1    2    0    0  0.19317167619E+01 -0.14218305557E+02 -0.23511733012E+02  0.27601649603E+02  0.17770000000E+01 0.  1.
</event>
<event>
 6    1  0.1298204E-002  0.1873244E+03  0.7546771E-02  0.1064678E+00
        -11   -1    0    0    0    0  0.00000000000E+00  0.00000000000E+00  0.18250000000E+03  0.18250000000E+03  0.00000000000E+00 0.  1.
         11   -1    0    0    0    0 -0.00000000000E+00 -0.00000000000E+00 -0.18250000000E+03  0.18250000000E+03  0.00000000000E+00 0. -1.
        -11    1    1    2    0    0 -0.28916332116E+01 -0.39549375220E+00  0.17765166922E+03  0.17767564137E+03  0.00000000000E+00 0.  1.
         11    1    1    2    0    0  0.33818061907E+01 -0.23944442193E+01 -0.15984656384E+03  0.15990026250E+03  0.00000000000E+00 0. -1.
        -15    1    1    2    0    0  0.30274816542E+01  0.16831956788E+01  0.37966392159E+01  0.54379215878E+01  0.17770000000E+01 0.  1.
         15    1    1    2    0    0 -0.35176546332E+01  0.11067422927E+01 -0.21601744594E+02  0.21986174545E+02  0.17770000000E+01 0.  1.
</event>
<event>
 6    1  0.1298204E-002  0.1833414E+03  0.7546771E-02  0.1067787E+00
        -11   -1    0    0    0    0  0.00000000000E+00  0.00000000000E+00  0.18250000000E+03  0.18250000000E+03  0.00000000000E+00 0. -1.
         11   -1    0    0    0    0 -0.00000000000E+00 -0.00000000000E+00 -0.18250000000E+03  0.18250000000E+03  0.00000000000E+00 0. -1.
        -11    1    1    2    0    0  0.25868219482E+01 -0.15661152566E+01  0.16257095617E+03  0.16259907796E+03  0.00000000000E+00 0. -1.
         11    1    1    2    0    0  0.11993390926E+01 -0.21383049631E+01 -0.18164203841E+03  0.18165858328E+03  0.00000000000E+00 0. -1.
        -15    1    1    2    0    0  0.83571384826E+00  0.42603408214E+00  0.71046986114E+01  0.73833863528E+01  0.17770000000E+01 0.  1.
         15    1    1    2    0    0 -0.46218748891E+01  0.32783861376E+01  0.11966383632E+02  0.13358952406E+02  0.17770000000E+01 0. -1.
</event>
<event>
 6    1  0.1298204E-002  0.1830661E+03  0.7546771E-02  0.1068005E+00
        -11   -1    0    0    0    0  0.00000000000E+00  0.00000000000E+00  0.18250000000E+03  0.18250000000E+03  0.00000000000E+00 0.  1.
         11   -1    0    0    0    0 -0.00000000000E+00 -0.00000000000E+00 -0.18250000000E+03  0.18250000000E+03  0.00000000000E+00 0. -1.
        -11    1    1    2    0    0  0.13292976047E+01  0.24182716225E+01  0.16793086884E+03  0.16795354054E+03  0.00000000000E+00 0.  1.
         11    1    1    2    0    0 -0.22099223018E+01  0.14078776918E+01 -0.18191500449E+03  0.18193387462E+03  0.00000000000E+00 0. -1.
        -15    1    1    2    0    0  0.17994141177E+00 -0.10906737085E+01  0.31952231301E+01  0.38195716908E+01  0.17770000000E+01 0.  1.
         15    1    1    2    0    0  0.70068328541E+00 -0.27354756058E+01  0.10788912515E+02  0.11293013155E+02  0.17770000000E+01 0. -1.
</event>
<event>
 6    1  0.1298204E-002  0.1896058E+03  0.7546771E-02  0.1062935E+00
        -11   -1    0    0    0    0  0.00000000000E+00  0.00000000000E+00  0.18250000000E+03  0.18250000000E+03  0.00000000000E+00 0. -1.
         11   -1    0    0    0    0 -0.00000000000E+00 -0.00000000000E+00 -0.18250000000E+03  0.18250000000E+03  0.00000000000E+00 0. -1.
        -11    1    1    2    0    0 -0.27285413671E+01 -0.30536318375E+01  0.17534642450E+03  0.17539423648E+03  0.00000000000E+00 0. -1.
         11    1    1    2    0    0  0.23387417449E+01  0.18425162499E+01 -0.15138794726E+03  0.15141722212E+03  0.00000000000E+00 0. -1.
        -15    1    1    2    0    0 -0.48156591403E+01  0.84416375225E+00 -0.29745014790E+02  0.30196470311E+02  0.17770000000E+01 0.  1.
         15    1    1    2    0    0  0.52054587625E+01  0.36695183542E+00  0.57865375427E+01  0.79920710902E+01  0.17770000000E+01 0. -1.
</event>
<event>
 6    1  0.4085144E-002  0.1944174E+03  0.7546771E-02  0.1059345E+00
        -11   -1    0    0    0    0  0.00000000000E+00  0.00000000000E+00  0.18250000000E+03  0.18250000000E+03  0.00000000000E+00 0. -1.
         11   -1    0    0    0    0 -0.00000000000E+00 -0.00000000000E+00 -0.18250000000E+03  0.18250000000E+03  0.00000000000E+00 0. -1.
        -11    1    1    2    0    0 -0.78348548717E+00  0.22364048300E+01  0.17056618098E+03  0.17058264112E+03  0.00000000000E+00 0. -1.
         11    1    1    2    0    0  0.23087184246E+01 -0.15976685809E+02 -0.15784295879E+03  0.15866626708E+03  0.00000000000E+00 0. -1.
        -15    1    1    2    0    0 -0.27311530975E+01  0.16613246938E+02 -0.20856016512E+02  0.26862433338E+02  0.17770000000E+01 0.  1.
         15    1    1    2    0    0  0.12059201601E+01 -0.28729659596E+01  0.81327943203E+01  0.88886584642E+01  0.17770000000E+01 0.  1.
</event>
<event>
 6    1  0.1298204E-002  0.1850607E+03  0.7546771E-02  0.1066435E+00
        -11   -1    0    0    0    0  0.00000000000E+00  0.00000000000E+00  0.18250000000E+03  0.18250000000E+03  0.00000000000E+00 0.  1.
         11   -1    0    0    0    0 -0.00000000000E+00 -0.00000000000E+00 -0.18250000000E+03  0.18250000000E+03  0.00000000000E+00 0. -1.
        -11    1    1    2    0    0 -0.22874713046E+01 -0.18647286086E+01  0.17991512999E+03  0.17993933349E+03  0.00000000000E+00 0.  1.
         11    1    1    2    0    0 -0.14482864324E+01  0.21956010996E+01 -0.13974627681E+03  0.13977102732E+03  0.00000000000E+00 0. -1.
        -15    1    1    2    0    0 -0.18852534170E-01 -0.40696359690E+01 -0.39398682498E+02  0.39648155114E+02  0.17770000000E+01 0.  1.
         15    1    1    2    0    0  0.37546102712E+01  0.37387634780E+01 -0.77017068356E+00  0.56414840702E+01  0.17770000000E+01 0. -1.
</event>
<event>
 6    1  0.1298204E-002  0.1825742E+03  0.7546771E-02  0.1068396E+00
        -11   -1    0    0    0    0  0.00000000000E+00  0.00000000000E+00  0.18250000000E+03  0.18250000000E+03  0.00000000000E+00 0.  1.
         11   -1    0    0    0    0 -0.00000000000E+00 -0.00000000000E+00 -0.18250000000E+03  0.18250000000E+03  0.00000000000E+00 0.  1.
        -11    1    1    2    0    0  0.38846217548E+01 -0.98396101223E+00  0.18238179549E+03  0.18242581449E+03  0.00000000000E+00 0.  1.
         11    1    1    2    0    0 -0.11845279029E+01 -0.84561597853E+00 -0.38845749704E+02  0.38873004036E+02  0.00000000000E+00 0.  1.
        -15    1    1    2    0    0 -0.12554150075E+01 -0.14970405898E+01 -0.40504232112E+02  0.40590241997E+02  0.17770000000E+01 0. -1.
         15    1    1    2    0    0 -0.14446788444E+01  0.33266175806E+01 -0.10303181368E+03  0.10311093948E+03  0.17770000000E+01 0.  1.
</event>
<event>
 6    1  0.1298204E-002  0.1828951E+03  0.7546771E-02  0.1068141E+00
        -11   -1    0    0    0    0  0.00000000000E+00  0.00000000000E+00  0.18250000000E+03  0.18250000000E+03  0.00000000000E+00 0.  1.
         11   -1    0    0    0    0 -0.00000000000E+00 -0.00000000000E+00 -0.18250000000E+03  0.18250000000E+03  0.00000000000E+00 0. -1.
        -11    1    1    2    0    0  0.15369309180E+01 -0.20555464971E+01  0.18208681563E+03  0.18210490343E+03  0.00000000000E+00 0.  1.
         11    1    1    2    0    0  0.30697740048E+01 -0.13069002600E+01 -0.13489676637E+03  0.13493801940E+03  0.00000000000E+00 0. -1.
        -15    1    1    2    0    0 -0.34695626206E+01  0.43452418659E+01 -0.39291454274E+02  0.39722727747E+02  0.17770000000E+01 0. -1.
         15    1    1    2    0    0 -0.11371423022E+01 -0.98279510887E+00 -0.78985949791E+01  0.82343494270E+01  0.17770000000E+01 0. -1.
</event>
<event>
 6    1  0.1298204E-002  0.1892844E+03  0.7546771E-02  0.1063179E+00
        -11   -1    0    0    0    0  0.00000000000E+00  0.00000000000E+00  0.18250000000E+03  0.18250000000E+03  0.00000000000E+00 0. -1.
         11   -1    0    0    0    0 -0.00000000000E+00 -0.00000000000E+00 -0.18250000000E+03  0.18250000000E+03  0.00000000000E+00 0. -1.
        -11    1    1    2    0    0 -0.72824559995E+01 -0.38031453531E+01  0.17552339193E+03  0.17571556333E+03  0.00000000000E+00 0. -1.
         11    1    1    2    0    0 -0.55309760212E+01  0.28336011869E+01 -0.13021470489E+03  0.13036291790E+03  0.00000000000E+00 0. -1.
        -15    1    1    2    0    0 -0.57924716402E+01 -0.92491381507E+01 -0.31873643532E+02  0.33737014765E+02  0.17770000000E+01 0. -1.
         15    1    1    2    0    0  0.18605903661E+02  0.10218682317E+02 -0.13435043506E+02  0.25184504012E+02  0.17770000000E+01 0.  1.
</event>
<event>
 6    1  0.1298204E-002  0.1826968E+03  0.7546771E-02  0.1068298E+00
        -11   -1    0    0    0    0  0.00000000000E+00  0.00000000000E+00  0.18250000000E+03  0.18250000000E+03  0.00000000000E+00 0. -1.
         11   -1    0    0    0    0 -0.00000000000E+00 -0.00000000000E+00 -0.18250000000E+03  0.18250000000E+03  0.00000000000E+00 0.  1.
        -11    1    1    2    0    0  0.17971108934E+01  0.21289726468E+01  0.18228193579E+03  0.18230322610E+03  0.00000000000E+00 0. -1.
         11    1    1    2    0    0  0.14218675197E+01 -0.23262384988E+00 -0.92728678485E+02  0.92739870793E+02  0.00000000000E+00 0.  1.
        -15    1    1    2    0    0 -0.48174625018E+01 -0.27033039663E+01 -0.53008699456E+02  0.53325376176E+02  0.17770000000E+01 0. -1.
         15    1    1    2    0    0  0.15984840886E+01  0.80695516938E+00 -0.36544557846E+02  0.36631526930E+02  0.17770000000E+01 0. -1.
</event>
<event>
 6    1  0.1298204E-002  0.1842944E+03  0.7546771E-02  0.1067035E+00
        -11   -1    0    0    0    0  0.00000000000E+00  0.00000000000E+00  0.18250000000E+03  0.18250000000E+03  0.00000000000E+00 0. -1.
         11   -1    0    0    0    0 -0.00000000000E+00 -0.00000000000E+00 -0.18250000000E+03  0.18250000000E+03  0.00000000000E+00 0.  1.
        -11    1    1    2    0    0 -0.18123260095E+01 -0.17972281798E+01  0.18068758218E+03  0.18070560841E+03  0.00000000000E+00 0. -1.
         11    1    1    2    0    0  0.38519529439E+00  0.31726263995E+01 -0.16839070960E+03  0.16842103495E+03  0.00000000000E+00 0.  1.
        -15    1    1    2    0    0  0.14076867437E+01  0.16000463094E+01  0.31624768861E+00  0.27927534372E+01  0.17770000000E+01 0. -1.
         15    1    1    2    0    0  0.19443971349E-01 -0.29754445291E+01 -0.12613120269E+02  0.13080603203E+02  0.17770000000E+01 0. -1.
</event>
