<event>
 6    1  0.2408691E-003  0.5010635E+03  0.7546771E-02  0.9397433E-01
        -11   -1    0    0    0    0  0.00000000000E+00  0.00000000000E+00  0.50000000000E+03  0.50000000000E+03  0.00000000000E+00 0.  1.
         11   -1    0    0    0    0 -0.00000000000E+00 -0.00000000000E+00 -0.50000000000E+03  0.50000000000E+03  0.00000000000E+00 0.  1.
        -11    1    1    2    0    0  0.92623739505E+01  0.36650514687E+01  0.49883700794E+03  0.49893645353E+03  0.00000000000E+00 0.  1.
         11    1    1    2    0    0 -0.13412473302E+02 -0.36484453916E+01 -0.22223488042E+03  0.22266914395E+03  0.00000000000E+00 0.  1.
        -15    1    1    2    0    0 -0.16287009710E+01  0.72745675876E+01 -0.17324338996E+02  0.18943665197E+02  0.17770000000E+01 0. -1.
         15    1    1    2    0    0  0.57788003222E+01 -0.72911736647E+01 -0.25927778852E+03  0.25945073732E+03  0.17770000000E+01 0.  1.
</event>
<event>
 6    1  0.2408691E-003  0.5007944E+03  0.7546771E-02  0.9398034E-01
        -11   -1    0    0    0    0  0.00000000000E+00  0.00000000000E+00  0.50000000000E+03  0.50000000000E+03  0.00000000000E+00 0.  1.
         11   -1    0    0    0    0 -0.00000000000E+00 -0.00000000000E+00 -0.50000000000E+03  0.50000000000E+03  0.00000000000E+00 0. -1.
        -11    1    1    2    0    0 -0.50058798963E+01  0.13485535332E+02  0.28546611161E+03  0.28582830402E+03  0.00000000000E+00 0.  1.
         11    1    1    2    0    0  0.89507903892E+01  0.95053148738E+00 -0.49912441433E+03  0.49920557002E+03  0.00000000000E+00 0. -1.
        -15    1    1    2    0    0  0.13249778194E+01  0.38199877868E+01  0.51387145758E+02  0.51576587238E+02  0.17770000000E+01 0. -1.
         15    1    1    2    0    0 -0.52698883122E+01 -0.18256054606E+02  0.16227115696E+03  0.16338953872E+03  0.17770000000E+01 0.  1.
</event>
<event>
 6    1  0.2408691E-003  0.5055521E+03  0.7546771E-02  0.9387472E-01
        -11   -1    0    0    0    0  0.00000000000E+00  0.00000000000E+00  0.50000000000E+03  0.50000000000E+03  0.00000000000E+00 0. -1.
         11   -1    0    0    0    0 -0.00000000000E+00 -0.00000000000E+00 -0.50000000000E+03  0.50000000000E+03  0.00000000000E+00 0. -1.
        -11    1    1    2    0    0 -0.86887161299E+01  0.91350433625E+01  0.49428716864E+03  0.49444792232E+03  0.00000000000E+00 0. -1.
         11    1    1    2    0    0  0.18347960888E+01  0.78380824898E+01 -0.46426598061E+03  0.46433576512E+03  0.00000000000E+00 0. -1.
        -15    1    1    2    0    0  0.79625113646E+01 -0.13853302320E+02 -0.64097711904E+01  0.17307757455E+02  0.17770000000E+01 0. -1.
         15    1    1    2    0    0 -0.11085913234E+01 -0.31198235325E+01 -0.23611416833E+02  0.23908555110E+02  0.17770000000E+01 0.  1.
</event>
<event>
 6    1  0.2408691E-003  0.5294500E+03  0.7546771E-02  0.9336222E-01
        -11   -1    0    0    0    0  0.00000000000E+00  0.00000000000E+00  0.50000000000E+03  0.50000000000E+03  0.00000000000E+00 0. -1.
         11   -1    0    0    0    0 -0.00000000000E+00 -0.00000000000E+00 -0.50000000000E+03  0.50000000000E+03  0.00000000000E+00 0. -1.
        -11    1    1    2    0    0 -0.18138153206E+01 -0.72203583687E+01  0.47049112455E+03  0.47055002049E+03  0.00000000000E+00 0. -1.
         11    1    1    2    0    0  0.13493203791E+02  0.44135856727E+01 -0.36426203619E+03  0.36453858136E+03  0.00000000000E+00 0. -1.
        -15    1    1    2    0    0  0.12644006866E+02 -0.16116655168E+01  0.26727398784E+02  0.29664456006E+02  0.17770000000E+01 0.  1.
         15    1    1    2    0    0 -0.24323395337E+02  0.44184382128E+01 -0.13295648714E+03  0.13524694215E+03  0.17770000000E+01 0. -1.
</event>
<event>
 6    1  0.2408691E-003  0.5012639E+03  0.7546771E-02  0.9396986E-01
        -11   -1    0    0    0    0  0.00000000000E+00  0.00000000000E+00  0.50000000000E+03  0.50000000000E+03  0.00000000000E+00 0.  1.
         11   -1    0    0    0    0 -0.00000000000E+00 -0.00000000000E+00 -0.50000000000E+03  0.50000000000E+03  0.00000000000E+00 0.  1.
        -11    1    1    2    0    0  0.40519084711E+01 -0.84845521773E+01  0.49864747632E+03  0.49873611382E+03  0.00000000000E+00 0.  1.
         11    1    1    2    0    0 -0.35329578257E+01 -0.35594608789E+01 -0.32686388512E+03  0.32690235690E+03  0.00000000000E+00 0.  1.
        -15    1    1    2    0    0  0.24046981184E+01  0.39078889076E+01 -0.15746042765E+03  0.15753729137E+03  0.17770000000E+01 0.  1.
         15    1    1    2    0    0 -0.29236487637E+01  0.81361241486E+01 -0.14323163548E+02  0.16824237911E+02  0.17770000000E+01 0.  1.
</event>
<event>
 6    1  0.2408691E-003  0.4869423E+03  0.7546771E-02  0.9429511E-01
        -11   -1    0    0    0    0  0.00000000000E+00  0.00000000000E+00  0.50000000000E+03  0.50000000000E+03  0.00000000000E+00 0. -1.
         11   -1    0    0    0    0 -0.00000000000E+00 -0.00000000000E+00 -0.50000000000E+03  0.50000000000E+03  0.00000000000E+00 0. -1.
        -11    1    1    2    0    0 -0.16259344595E+00  0.90450037467E+00  0.45325860768E+02  0.45335176320E+02  0.00000000000E+00 0. -1.
         11    1    1    2    0    0 -0.66093577537E+01  0.41159222178E+01 -0.48928232408E+03  0.48934427255E+03  0.00000000000E+00 0. -1.
        -15    1    1    2    0    0  0.19800378642E+02 -0.62684601531E+02  0.33453828360E+03  0.34094051561E+03  0.17770000000E+01 0. -1.
         15    1    1    2    0    0 -0.13028427442E+02  0.57664178938E+02  0.10941817971E+03  0.12438003551E+03  0.17770000000E+01 0.  1.
</event>
<event>
 6    1  0.2408691E-003  0.5043998E+03  0.7546771E-02  0.9390018E-01
        -11   -1    0    0    0    0  0.00000000000E+00  0.00000000000E+00  0.50000000000E+03  0.50000000000E+03  0.00000000000E+00 0.  1.
         11   -1    0    0    0    0 -0.00000000000E+00 -0.00000000000E+00 -0.50000000000E+03  0.50000000000E+03  0.00000000000E+00 0.  1.
        -11    1    1    2    0    0 -0.31694377056E+01 -0.73515568982E+01  0.49553550583E+03  0.49560016976E+03  0.00000000000E+00 0.  1.
         11    1    1    2    0    0 -0.85543932169E+01  0.15771217282E+00 -0.44143722846E+03  0.44152013452E+03  0.00000000000E+00 0.  1.
        -15    1    1    2    0    0  0.10213559984E+02  0.12242756331E+02 -0.54958527541E+02  0.57252068684E+02  0.17770000000E+01 0.  1.
         15    1    1    2    0    0  0.15102709390E+01 -0.50489116059E+01  0.86025016579E+00  0.56276270364E+01  0.17770000000E+01 0. -1.
</event>
<event>
 6    1  0.2408691E-003  0.5101257E+03  0.7546771E-02  0.9377434E-01
        -11   -1    0    0    0    0  0.00000000000E+00  0.00000000000E+00  0.50000000000E+03  0.50000000000E+03  0.00000000000E+00 0.  1.
         11   -1    0    0    0    0 -0.00000000000E+00 -0.00000000000E+00 -0.50000000000E+03  0.50000000000E+03  0.00000000000E+00 0.  1.
        -11    1    1    2    0    0  0.13039388059E+02  0.15332651028E+02  0.45061625362E+03  0.45106554275E+03  0.00000000000E+00 0.  1.
         11    1    1    2    0    0 -0.11182585837E+02 -0.22849398247E+01 -0.48974134578E+03  0.48987432770E+03  0.00000000000E+00 0.  1.
        -15    1    1    2    0    0  0.65865159377E+01 -0.56078814745E+01 -0.71753053329E+01  0.11378631836E+02  0.17770000000E+01 0. -1.
         15    1    1    2    0    0 -0.84433181604E+01 -0.74398297288E+01  0.46300397484E+02  0.47681497713E+02  0.17770000000E+01 0.  1.
</event>
<event>
 6    1  0.2408691E-003  0.5008716E+03  0.7546771E-02  0.9397862E-01
        -11   -1    0    0    0    0  0.00000000000E+00  0.00000000000E+00  0.50000000000E+03  0.50000000000E+03  0.00000000000E+00 0.  1.
         11   -1    0    0    0    0 -0.00000000000E+00 -0.00000000000E+00 -0.50000000000E+03  0.50000000000E+03  0.00000000000E+00 0.  1.
        -11    1    1    2    0    0 -0.42951143780E+01  0.63155766465E+01  0.23930326453E+03  0.23942511758E+03  0.00000000000E+00 0.  1.
         11    1    1    2    0    0 -0.37194782707E+01 -0.69992666199E+01 -0.49906549517E+03  0.49912843309E+03  0.00000000000E+00 0.  1.
        -15    1    1    2    0    0  0.83598178279E+01  0.21462228236E+00  0.25940103154E+03  0.25954187622E+03  0.17770000000E+01 0.  1.
         15    1    1    2    0    0 -0.34522517921E+00  0.46906769105E+00  0.36119910458E+00  0.19045731061E+01  0.17770000000E+01 0. -1.
</event>
<event>
 6    1  0.2408691E-003  0.5032188E+03  0.7546771E-02  0.9392636E-01
        -11   -1    0    0    0    0  0.00000000000E+00  0.00000000000E+00  0.50000000000E+03  0.50000000000E+03  0.00000000000E+00 0.  1.
         11   -1    0    0    0    0 -0.00000000000E+00 -0.00000000000E+00 -0.50000000000E+03  0.50000000000E+03  0.00000000000E+00 0.  1.
        -11    1    1    2    0    0  0.30154773368E+02  0.26976538154E+02  0.49513079705E+03  0.49678118942E+03  0.00000000000E+00 0.  1.
         11    1    1    2    0    0  0.11057586864E+02 -0.56428325388E+01 -0.32795859509E+03  0.32819346715E+03  0.00000000000E+00 0.  1.
        -15    1    1    2    0    0 -0.35861227302E+02 -0.22433396039E+02 -0.11514162582E+03  0.12267859066E+03  0.17770000000E+01 0.  1.
         15    1    1    2    0    0 -0.53511329291E+01  0.10996904237E+01 -0.52030576146E+02  0.52346752772E+02  0.17770000000E+01 0. -1.
</event>
<event>
 6    1  0.2408691E-003  0.5050175E+03  0.7546771E-02  0.9388652E-01
        -11   -1    0    0    0    0  0.00000000000E+00  0.00000000000E+00  0.50000000000E+03  0.50000000000E+03  0.00000000000E+00 0.  1.
         11   -1    0    0    0    0 -0.00000000000E+00 -0.00000000000E+00 -0.50000000000E+03  0.50000000000E+03  0.00000000000E+00 0. -1.
        -11    1    1    2    0    0 -0.33819577815E+01  0.27873966719E+01  0.31198281618E+03  0.31201359715E+03  0.00000000000E+00 0.  1.
         11    1    1    2    0    0  0.23791320966E+02 -0.26708644347E+02 -0.49368843743E+03  0.49498247634E+03  0.00000000000E+00 0. -1.
        -15    1    1    2    0    0 -0.17231561619E+02 -0.83860506548E+01  0.18866658250E+02  0.26951086879E+02  0.17770000000E+01 0. -1.
         15    1    1    2    0    0 -0.31778015655E+01  0.32307298330E+02  0.16283896300E+03  0.16605283963E+03  0.17770000000E+01 0.  1.
</event>
<event>
 6    1  0.2408691E-003  0.5062061E+03  0.7546771E-02  0.9386029E-01
        -11   -1    0    0    0    0  0.00000000000E+00  0.00000000000E+00  0.50000000000E+03  0.50000000000E+03  0.00000000000E+00 0.  1.
         11   -1    0    0    0    0 -0.00000000000E+00 -0.00000000000E+00 -0.50000000000E+03  0.50000000000E+03  0.00000000000E+00 0.  1.
        -11    1    1    2    0    0 -0.10402249699E+02 -0.60699901651E+01  0.49364697831E+03  0.49379387478E+03  0.00000000000E+00 0.  1.
         11    1    1    2    0    0  0.23882680413E+02  0.91728476398E+01 -0.28046561072E+03  0.28163004519E+03  0.00000000000E+00 0.  1.
        -15    1    1    2    0    0  0.62921704375E+01  0.20931799817E+02 -0.22705943706E+02  0.31566584563E+02  0.17770000000E+01 0. -1.
         15    1    1    2    0    0 -0.19772601151E+02 -0.24034657292E+02 -0.19047542388E+03  0.19300949546E+03  0.17770000000E+01 0.  1.
</event>
<event>
 6    1  0.2408691E-003  0.5017557E+03  0.7546771E-02  0.9395890E-01
        -11   -1    0    0    0    0  0.00000000000E+00  0.00000000000E+00  0.50000000000E+03  0.50000000000E+03  0.00000000000E+00 0.  1.
         11   -1    0    0    0    0 -0.00000000000E+00 -0.00000000000E+00 -0.50000000000E+03  0.50000000000E+03  0.00000000000E+00 0.  1.
        -11    1    1    2    0    0  0.53210174197E+01 -0.77187540323E+01  0.42901216674E+03  0.42911459029E+03  0.00000000000E+00 0.  1.
         11    1    1    2    0    0  0.26456659524E+01  0.62810791848E+01 -0.49819770119E+03  0.49824431856E+03  0.00000000000E+00 0.  1.
        -15    1    1    2    0    0  0.21661122981E+01 -0.43065443411E+01  0.48998310970E+02  0.49266931847E+02  0.17770000000E+01 0.  1.
         15    1    1    2    0    0 -0.10132795670E+02  0.57442191887E+01  0.20187223485E+02  0.23374159305E+02  0.17770000000E+01 0. -1.
</event>
<event>
 6    1  0.2408691E-003  0.5005438E+03  0.7546771E-02  0.9398594E-01
        -11   -1    0    0    0    0  0.00000000000E+00  0.00000000000E+00  0.50000000000E+03  0.50000000000E+03  0.00000000000E+00 0. -1.
         11   -1    0    0    0    0 -0.00000000000E+00 -0.00000000000E+00 -0.50000000000E+03  0.50000000000E+03  0.00000000000E+00 0.  1.
        -11    1    1    2    0    0  0.17938236160E+02 -0.17872871830E+01  0.49913077469E+03  0.49945620925E+03  0.00000000000E+00 0. -1.
         11    1    1    2    0    0 -0.75359652452E+01  0.62255208254E+01 -0.66293099148E+02  0.67009871484E+02  0.00000000000E+00 0.  1.
        -15    1    1    2    0    0  0.64201507004E-01 -0.11565354428E+02 -0.19028229061E+03  0.19064173046E+03  0.17770000000E+01 0.  1.
         15    1    1    2    0    0 -0.10466472422E+02  0.71271207860E+01 -0.24255538493E+03  0.24289218881E+03  0.17770000000E+01 0. -1.
</event>
<event>
 6    1  0.2408691E-003  0.5100744E+03  0.7546771E-02  0.9377545E-01
        -11   -1    0    0    0    0  0.00000000000E+00  0.00000000000E+00  0.50000000000E+03  0.50000000000E+03  0.00000000000E+00 0.  1.
         11   -1    0    0    0    0 -0.00000000000E+00 -0.00000000000E+00 -0.50000000000E+03  0.50000000000E+03  0.00000000000E+00 0.  1.
        -11    1    1    2    0    0 -0.11911504243E+02 -0.25841271060E+00  0.46447307722E+03  0.46462586042E+03  0.00000000000E+00 0.  1.
         11    1    1    2    0    0  0.51733021087E+01 -0.10948740517E+02 -0.48977590566E+03  0.48992558184E+03  0.00000000000E+00 0.  1.
        -15    1    1    2    0    0 -0.12653094906E+01  0.99394498476E+01 -0.68342581873E+01  0.12257996792E+02  0.17770000000E+01 0. -1.
         15    1    1    2    0    0  0.80035116246E+01  0.12677033805E+01  0.32137086630E+02  0.33190560951E+02  0.17770000000E+01 0.  1.
</event>
<event>
 6    1  0.2408691E-003  0.5152764E+03  0.7546771E-02  0.9366262E-01
        -11   -1    0    0    0    0  0.00000000000E+00  0.00000000000E+00  0.50000000000E+03  0.50000000000E+03  0.00000000000E+00 0. -1.
         11   -1    0    0    0    0 -0.00000000000E+00 -0.00000000000E+00 -0.50000000000E+03  0.50000000000E+03  0.00000000000E+00 0.  1.
        -11    1    1    2    0    0  0.23375064082E+01  0.17026204896E+02  0.40797814455E+03  0.40833995888E+03  0.00000000000E+00 0. -1.
         11    1    1    2    0    0 -0.69870945992E+01  0.43133500839E+01 -0.48465400784E+03  0.48472356224E+03  0.00000000000E+00 0.  1.
        -15    1    1    2    0    0  0.62421085712E+01 -0.30507428196E+02  0.87298640041E+02  0.92703168104E+02  0.17770000000E+01 0.  1.
         15    1    1    2    0    0 -0.15925203803E+01  0.91678732156E+01 -0.10622776753E+02  0.14233310768E+02  0.17770000000E+01 0. -1.
</event>
<event>
 6    1  0.2408691E-003  0.5021625E+03  0.7546771E-02  0.9394984E-01
        -11   -1    0    0    0    0  0.00000000000E+00  0.00000000000E+00  0.50000000000E+03  0.50000000000E+03  0.00000000000E+00 0. -1.
         11   -1    0    0    0    0 -0.00000000000E+00 -0.00000000000E+00 -0.50000000000E+03  0.50000000000E+03  0.00000000000E+00 0. -1.
        -11    1    1    2    0    0 -0.30952853003E+01  0.72130675725E+01  0.45048605672E+03  0.45055443226E+03  0.00000000000E+00 0. -1.
         11    1    1    2    0    0 -0.34687146412E+01  0.67209971541E+01 -0.49778000709E+03  0.49783746267E+03  0.00000000000E+00 0. -1.
        -15    1    1    2    0    0  0.78782541360E+01 -0.10748072070E+02  0.45290029620E+02  0.47243332370E+02  0.17770000000E+01 0. -1.
         15    1    1    2    0    0 -0.13142541944E+01 -0.31859926567E+01  0.20039207538E+01  0.43647726955E+01  0.17770000000E+01 0.  1.
</event>
<event>
 6    1  0.2408691E-003  0.5006916E+03  0.7546771E-02  0.9398264E-01
        -11   -1    0    0    0    0  0.00000000000E+00  0.00000000000E+00  0.50000000000E+03  0.50000000000E+03  0.00000000000E+00 0. -1.
         11   -1    0    0    0    0 -0.00000000000E+00 -0.00000000000E+00 -0.50000000000E+03  0.50000000000E+03  0.00000000000E+00 0. -1.
        -11    1    1    2    0    0 -0.18064602437E+01  0.12847085463E+00  0.12309392056E+03  0.12310724220E+03  0.00000000000E+00 0. -1.
         11    1    1    2    0    0 -0.23793931736E+01  0.71398383319E+01 -0.49925166624E+03  0.49930838672E+03  0.00000000000E+00 0. -1.
        -15    1    1    2    0    0  0.15378149592E+02 -0.82457345438E+01  0.30672663721E+03  0.30722771249E+03  0.17770000000E+01 0. -1.
         15    1    1    2    0    0 -0.11192296175E+02  0.97742535720E+00  0.69431108480E+02  0.70356658589E+02  0.17770000000E+01 0.  1.
</event>
<event>
 6    1  0.2408691E-003  0.5022133E+03  0.7546771E-02  0.9394871E-01
        -11   -1    0    0    0    0  0.00000000000E+00  0.00000000000E+00  0.50000000000E+03  0.50000000000E+03  0.00000000000E+00 0. -1.
         11   -1    0    0    0    0 -0.00000000000E+00 -0.00000000000E+00 -0.50000000000E+03  0.50000000000E+03  0.00000000000E+00 0.  1.
        -11    1    1    2    0    0  0.29947658631E+01 -0.62299912605E+01  0.49773869062E+03  0.49778668680E+03  0.00000000000E+00 0. -1.
         11    1    1    2    0    0 -0.16342195892E+02 -0.82065145228E+01 -0.42521898518E+03  0.42561202945E+03  0.00000000000E+00 0.  1.
        -15    1    1    2    0    0  0.15327171319E+02  0.13168767172E+02 -0.51089104373E+02  0.54969017856E+02  0.17770000000E+01 0.  1.
         15    1    1    2    0    0 -0.19797412902E+01  0.12677386113E+01 -0.21430601066E+02  0.21632265897E+02  0.17770000000E+01 0. -1.
</event>
<event>
 6    1  0.2408691E-003  0.5018052E+03  0.7546771E-02  0.9395779E-01
        -11   -1    0    0    0    0  0.00000000000E+00  0.00000000000E+00  0.50000000000E+03  0.50000000000E+03  0.00000000000E+00 0. -1.
         11   -1    0    0    0    0 -0.00000000000E+00 -0.00000000000E+00 -0.50000000000E+03  0.50000000000E+03  0.00000000000E+00 0.  1.
        -11    1    1    2    0    0  0.50190728376E+00 -0.61913266452E+00  0.50217382861E+02  0.50223707326E+02  0.00000000000E+00 0. -1.
         11    1    1    2    0    0 -0.12720613834E+02  0.13672285558E+02 -0.49784463809E+03  0.49819477023E+03  0.00000000000E+00 0.  1.
        -15    1    1    2    0    0 -0.13465367695E+01 -0.34098927690E+02  0.28201243967E+03  0.28407520815E+03  0.17770000000E+01 0. -1.
         15    1    1    2    0    0  0.13565243320E+02  0.21045774796E+02  0.16561481556E+03  0.16750631429E+03  0.17770000000E+01 0.  1.
</event>
<event>
 6    1  0.2408691E-003  0.5023643E+03  0.7546771E-02  0.9394535E-01
        -11   -1    0    0    0    0  0.00000000000E+00  0.00000000000E+00  0.50000000000E+03  0.50000000000E+03  0.00000000000E+00 0. -1.
         11   -1    0    0    0    0 -0.00000000000E+00 -0.00000000000E+00 -0.50000000000E+03  0.50000000000E+03  0.00000000000E+00 0. -1.
        -11    1    1    2    0    0  0.27095245279E+01 -0.74626854915E+01  0.49757237391E+03  0.49763571061E+03  0.00000000000E+00 0. -1.
         11    1    1    2    0    0  0.27372102427E+01  0.88851333271E+01 -0.46114268227E+03  0.46123639419E+03  0.00000000000E+00 0. -1.
        -15    1    1    2    0    0 -0.67309095366E+01 -0.67341908263E+01 -0.33096697788E+02  0.34484831488E+02  0.17770000000E+01 0. -1.
         15    1    1    2    0    0  0.12841747661E+01  0.53117429907E+01 -0.33329938465E+01  0.66430637066E+01  0.17770000000E+01 0.  1.
</event>
<event>
 6    1  0.2408691E-003  0.5004064E+03  0.7546771E-02  0.9398901E-01
        -11   -1    0    0    0    0  0.00000000000E+00  0.00000000000E+00  0.50000000000E+03  0.50000000000E+03  0.00000000000E+00 0. -1.
         11   -1    0    0    0    0 -0.00000000000E+00 -0.00000000000E+00 -0.50000000000E+03  0.50000000000E+03  0.00000000000E+00 0. -1.
        -11    1    1    2    0    0 -0.24368141203E+01 -0.16231329639E+02  0.49932392292E+03  0.49959360897E+03  0.00000000000E+00 0. -1.
         11    1    1    2    0    0 -0.44640042813E+01  0.23072871615E+01 -0.12444560531E+03  0.12454701758E+03  0.00000000000E+00 0. -1.
        -15    1    1    2    0    0 -0.42813980629E+01 -0.37444263646E+01 -0.65686645752E+02  0.65956381475E+02  0.17770000000E+01 0.  1.
         15    1    1    2    0    0  0.11182216464E+02  0.17668468842E+02 -0.30919167186E+03  0.30990299197E+03  0.17770000000E+01 0. -1.
</event>
<event>
 6    1  0.2408691E-003  0.5271398E+03  0.7546771E-02  0.9341049E-01
        -11   -1    0    0    0    0  0.00000000000E+00  0.00000000000E+00  0.50000000000E+03  0.50000000000E+03  0.00000000000E+00 0. -1.
         11   -1    0    0    0    0 -0.00000000000E+00 -0.00000000000E+00 -0.50000000000E+03  0.50000000000E+03  0.00000000000E+00 0. -1.
        -11    1    1    2    0    0  0.60052414324E+01 -0.51596289185E+01  0.47279387729E+03  0.47286016443E+03  0.00000000000E+00 0. -1.
         11    1    1    2    0    0 -0.32941132038E+02  0.20055352701E+02 -0.37444186081E+03  0.37642269124E+03  0.00000000000E+00 0. -1.
        -15    1    1    2    0    0  0.52985325853E+01  0.95346045528E+01  0.22744666381E+02  0.25287560367E+02  0.17770000000E+01 0.  1.
         15    1    1    2    0    0  0.21637358020E+02 -0.24430328335E+02 -0.12109668287E+03  0.12542958397E+03  0.17770000000E+01 0. -1.
</event>
<event>
 6    1  0.2408691E-003  0.5093541E+03  0.7546771E-02  0.9379119E-01
        -11   -1    0    0    0    0  0.00000000000E+00  0.00000000000E+00  0.50000000000E+03  0.50000000000E+03  0.00000000000E+00 0.  1.
         11   -1    0    0    0    0 -0.00000000000E+00 -0.00000000000E+00 -0.50000000000E+03  0.50000000000E+03  0.00000000000E+00 0. -1.
        -11    1    1    2    0    0  0.16490688859E+02  0.46452621627E-01  0.49036865707E+03  0.49064586497E+03  0.00000000000E+00 0.  1.
         11    1    1    2    0    0 -0.43812759789E+01  0.60678885894E+01 -0.47142599698E+03  0.47148540326E+03  0.00000000000E+00 0. -1.
        -15    1    1    2    0    0 -0.13020584450E+02 -0.52001658532E+00  0.43330669481E+01  0.13846993711E+02  0.17770000000E+01 0.  1.
         15    1    1    2    0    0  0.91117156914E+00 -0.55943246257E+01 -0.23275727033E+02  0.24021738063E+02  0.17770000000E+01 0. -1.
</event>
<event>
 6    1  0.2408691E-003  0.5100150E+03  0.7546771E-02  0.9377675E-01
        -11   -1    0    0    0    0  0.00000000000E+00  0.00000000000E+00  0.50000000000E+03  0.50000000000E+03  0.00000000000E+00 0.  1.
         11   -1    0    0    0    0 -0.00000000000E+00 -0.00000000000E+00 -0.50000000000E+03  0.50000000000E+03  0.00000000000E+00 0.  1.
        -11    1    1    2    0    0  0.44908774202E+01 -0.51655336580E+01  0.48993718517E+03  0.48998499582E+03  0.00000000000E+00 0.  1.
         11    1    1    2    0    0 -0.11083900178E+02 -0.78206441272E+01 -0.45280219672E+03  0.45300534728E+03  0.00000000000E+00 0.  1.
        -15    1    1    2    0    0  0.40301666018E+01  0.37257894399E+01  0.85373259923E+01  0.10303757270E+02  0.17770000000E+01 0. -1.
         15    1    1    2    0    0  0.25628561557E+01  0.92603883453E+01 -0.45672314445E+02  0.46705899625E+02  0.17770000000E+01 0.  1.
</event>
<event>
 6    1  0.2408691E-003  0.5167306E+03  0.7546771E-02  0.9363133E-01
        -11   -1    0    0    0    0  0.00000000000E+00  0.00000000000E+00  0.50000000000E+03  0.50000000000E+03  0.00000000000E+00 0.  1.
         11   -1    0    0    0    0 -0.00000000000E+00 -0.00000000000E+00 -0.50000000000E+03  0.50000000000E+03  0.00000000000E+00 0.  1.
        -11    1    1    2    0    0  0.10782734852E+02 -0.36566050192E+01  0.48313525681E+03  0.48326940158E+03  0.00000000000E+00 0.  1.
         11    1    1    2    0    0 -0.21587543340E+02 -0.23841902313E+01 -0.43909504268E+03  0.43963184928E+03  0.00000000000E+00 0.  1.
        -15    1    1    2    0    0  0.12038806725E+02  0.99076174434E+01 -0.59231237489E+02  0.61274717252E+02  0.17770000000E+01 0.  1.
         15    1    1    2    0    0 -0.12339982373E+01 -0.38668221930E+01  0.15191023357E+02  0.15824031887E+02  0.17770000000E+01 0. -1.
</event>
<event>
 6    1  0.2408691E-003  0.5091308E+03  0.7546771E-02  0.9379607E-01
        -11   -1    0    0    0    0  0.00000000000E+00  0.00000000000E+00  0.50000000000E+03  0.50000000000E+03  0.00000000000E+00 0.  1.
         11   -1    0    0    0    0 -0.00000000000E+00 -0.00000000000E+00 -0.50000000000E+03  0.50000000000E+03  0.00000000000E+00 0. -1.
        -11    1    1    2    0    0  0.14177742473E+00  0.93313985144E+01  0.49078046712E+03  0.49086919032E+03  0.00000000000E+00 0.  1.
         11    1    1    2    0    0 -0.39649408697E+01  0.13550734320E+02 -0.47106722595E+03  0.47127876519E+03  0.00000000000E+00 0. -1.
        -15    1    1    2    0    0  0.36205044627E+01 -0.21092188362E+02 -0.24413429249E+02  0.32514023423E+02  0.17770000000E+01 0.  1.
         15    1    1    2    0    0  0.20265898229E+00 -0.17899444727E+01  0.47001880785E+01  0.53380210614E+01  0.17770000000E+01 0.  1.
</event>
<event>
 6    1  0.2408691E-003  0.5003946E+03  0.7546771E-02  0.9398927E-01
        -11   -1    0    0    0    0  0.00000000000E+00  0.00000000000E+00  0.50000000000E+03  0.50000000000E+03  0.00000000000E+00 0.  1.
         11   -1    0    0    0    0 -0.00000000000E+00 -0.00000000000E+00 -0.50000000000E+03  0.50000000000E+03  0.00000000000E+00 0. -1.
        -11    1    1    2    0    0  0.63323391662E+01  0.64940765839E+00  0.39260040992E+03  0.39265201148E+03  0.00000000000E+00 0.  1.
         11    1    1    2    0    0 -0.26523042423E+01  0.65026585942E+01 -0.49955607328E+03  0.49960543396E+03  0.00000000000E+00 0. -1.
        -15    1    1    2    0    0 -0.44674319941E+01 -0.35874109794E+01  0.93386898424E+02  0.93579367343E+02  0.17770000000E+01 0. -1.
         15    1    1    2    0    0  0.78739707024E+00 -0.35646552732E+01  0.13568764939E+02  0.14163187224E+02  0.17770000000E+01 0.  1.
</event>
<event>
 6    1  0.2408691E-003  0.5035010E+03  0.7546771E-02  0.9392010E-01
        -11   -1    0    0    0    0  0.00000000000E+00  0.00000000000E+00  0.50000000000E+03  0.50000000000E+03  0.00000000000E+00 0. -1.
         11   -1    0    0    0    0 -0.00000000000E+00 -0.00000000000E+00 -0.50000000000E+03  0.50000000000E+03  0.00000000000E+00 0. -1.
        -11    1    1    2    0    0 -0.11242002662E+02 -0.13680507855E+02  0.49618314207E+03  0.49649899234E+03  0.00000000000E+00 0. -1.
         11    1    1    2    0    0  0.50554438711E+01  0.54439432341E+00 -0.24142658713E+03  0.24148012517E+03  0.00000000000E+00 0. -1.
        -15    1    1    2    0    0  0.10120364489E+02  0.19982954197E+02 -0.31910641117E+02  0.39028028150E+02  0.17770000000E+01 0. -1.
         15    1    1    2    0    0 -0.39338056979E+01 -0.68468406652E+01 -0.22284591382E+03  0.22299285435E+03  0.17770000000E+01 0.  1.
</event>
<event>
 6    1  0.2408691E-003  0.5171103E+03  0.7546771E-02  0.9362318E-01
        -11   -1    0    0    0    0  0.00000000000E+00  0.00000000000E+00  0.50000000000E+03  0.50000000000E+03  0.00000000000E+00 0. -1.
         11   -1    0    0    0    0 -0.00000000000E+00 -0.00000000000E+00 -0.50000000000E+03  0.50000000000E+03  0.00000000000E+00 0. -1.
        -11    1    1    2    0    0 -0.15029637835E+02 -0.15769341324E+02  0.48239806246E+03  0.48288969010E+03  0.00000000000E+00 0. -1.
         11    1    1    2    0    0 -0.43312526698E+01 -0.15948801922E+01 -0.25646143316E+03  0.25650296313E+03  0.00000000000E+00 0. -1.
        -15    1    1    2    0    0  0.29131280873E+02 -0.12062744552E+02 -0.22733544962E+03  0.22951842130E+03  0.17770000000E+01 0. -1.
         15    1    1    2    0    0 -0.97703903687E+01  0.29426966068E+02  0.13988203303E+01  0.31088925476E+02  0.17770000000E+01 0.  1.
</event>
<event>
 6    1  0.2408691E-003  0.5137962E+03  0.7546771E-02  0.9369458E-01
        -11   -1    0    0    0    0  0.00000000000E+00  0.00000000000E+00  0.50000000000E+03  0.50000000000E+03  0.00000000000E+00 0.  1.
         11   -1    0    0    0    0 -0.00000000000E+00 -0.00000000000E+00 -0.50000000000E+03  0.50000000000E+03  0.00000000000E+00 0.  1.
        -11    1    1    2    0    0 -0.97367894640E+00  0.28577287012E+00  0.16029775629E+02  0.16061862394E+02  0.00000000000E+00 0.  1.
         11    1    1    2    0    0  0.14691906051E+02  0.65028850020E+01 -0.47746930861E+03  0.47773955277E+03  0.00000000000E+00 0.  1.
        -15    1    1    2    0    0 -0.98407031302E+02 -0.52821978002E+02  0.24639556673E+03  0.27053287823E+03  0.17770000000E+01 0. -1.
         15    1    1    2    0    0  0.84688804198E+02  0.46033320130E+02  0.21504396625E+03  0.23566570660E+03  0.17770000000E+01 0.  1.
</event>
<event>
 6    1  0.2408691E-003  0.5157060E+03  0.7546771E-02  0.9365336E-01
        -11   -1    0    0    0    0  0.00000000000E+00  0.00000000000E+00  0.50000000000E+03  0.50000000000E+03  0.00000000000E+00 0. -1.
         11   -1    0    0    0    0 -0.00000000000E+00 -0.00000000000E+00 -0.50000000000E+03  0.50000000000E+03  0.00000000000E+00 0. -1.
        -11    1    1    2    0    0  0.80483089520E+01 -0.37526935018E+01  0.48421254923E+03  0.48429397148E+03  0.00000000000E+00 0. -1.
         11    1    1    2    0    0 -0.35499575546E+02 -0.44792722007E+02 -0.29427984150E+03  0.29977863987E+03  0.00000000000E+00 0. -1.
        -15    1    1    2    0    0  0.70199125647E+01  0.36148981066E+02 -0.15727528262E+02  0.40081677594E+02  0.17770000000E+01 0. -1.
         15    1    1    2    0    0  0.20431354029E+02  0.12396434443E+02 -0.17420517946E+03  0.17584571105E+03  0.17770000000E+01 0.  1.
</event>
<event>
 6    1  0.2408691E-003  0.5181200E+03  0.7546771E-02  0.9360153E-01
        -11   -1    0    0    0    0  0.00000000000E+00  0.00000000000E+00  0.50000000000E+03  0.50000000000E+03  0.00000000000E+00 0. -1.
         11   -1    0    0    0    0 -0.00000000000E+00 -0.00000000000E+00 -0.50000000000E+03  0.50000000000E+03  0.00000000000E+00 0. -1.
        -11    1    1    2    0    0 -0.16207578752E+01 -0.66169947283E+01  0.48183185722E+03  0.48188001630E+03  0.00000000000E+00 0. -1.
         11    1    1    2    0    0 -0.65319510005E+01 -0.47213831277E+01 -0.46457352932E+03  0.46464343532E+03  0.00000000000E+00 0. -1.
        -15    1    1    2    0    0 -0.93588918438E+01 -0.17723690590E+01 -0.27572876246E+02  0.29225868372E+02  0.17770000000E+01 0. -1.
         15    1    1    2    0    0  0.17511600719E+02  0.13110746915E+02  0.10314548348E+02  0.24250680012E+02  0.17770000000E+01 0.  1.
</event>
<event>
 6    1  0.2408691E-003  0.5166728E+03  0.7546771E-02  0.9363257E-01
        -11   -1    0    0    0    0  0.00000000000E+00  0.00000000000E+00  0.50000000000E+03  0.50000000000E+03  0.00000000000E+00 0. -1.
         11   -1    0    0    0    0 -0.00000000000E+00 -0.00000000000E+00 -0.50000000000E+03  0.50000000000E+03  0.00000000000E+00 0. -1.
        -11    1    1    2    0    0 -0.88296526557E+01  0.14669490421E+01  0.41899517118E+03  0.41909076365E+03  0.00000000000E+00 0. -1.
         11    1    1    2    0    0 -0.45548049192E+01 -0.77512429947E+01 -0.48324361162E+03  0.48332723510E+03  0.00000000000E+00 0. -1.
        -15    1    1    2    0    0  0.17063242794E+02 -0.14513498121E+01  0.78769631189E+02  0.80629232897E+02  0.17770000000E+01 0. -1.
         15    1    1    2    0    0 -0.36787852192E+01  0.77356437647E+01 -0.14521190744E+02  0.16952768351E+02  0.17770000000E+01 0.  1.
</event>
<event>
 6    1  0.2408691E-003  0.5028277E+03  0.7546771E-02  0.9393505E-01
        -11   -1    0    0    0    0  0.00000000000E+00  0.00000000000E+00  0.50000000000E+03  0.50000000000E+03  0.00000000000E+00 0.  1.
         11   -1    0    0    0    0 -0.00000000000E+00 -0.00000000000E+00 -0.50000000000E+03  0.50000000000E+03  0.00000000000E+00 0.  1.
        -11    1    1    2    0    0  0.11931086819E+02 -0.23198047117E+02  0.49648748476E+03  0.49717232701E+03  0.00000000000E+00 0.  1.
         11    1    1    2    0    0  0.48307926808E+01  0.93876170316E+01 -0.32676433337E+03  0.32693484592E+03  0.00000000000E+00 0.  1.
        -15    1    1    2    0    0 -0.11550879867E+02 -0.86105372648E+01 -0.12219314666E+03  0.12305237502E+03  0.17770000000E+01 0. -1.
         15    1    1    2    0    0 -0.52109996323E+01  0.22420967350E+02 -0.47530004731E+02  0.52840452050E+02  0.17770000000E+01 0.  1.
</event>
<event>
 6    1  0.2408691E-003  0.5035489E+03  0.7546771E-02  0.9391904E-01
        -11   -1    0    0    0    0  0.00000000000E+00  0.00000000000E+00  0.50000000000E+03  0.50000000000E+03  0.00000000000E+00 0.  1.
         11   -1    0    0    0    0 -0.00000000000E+00 -0.00000000000E+00 -0.50000000000E+03  0.50000000000E+03  0.00000000000E+00 0.  1.
        -11    1    1    2    0    0 -0.32819229432E+01  0.72888601840E+01  0.49638675902E+03  0.49645111847E+03  0.00000000000E+00 0.  1.
         11    1    1    2    0    0 -0.82668815216E+01  0.19711308353E+00 -0.47666688129E+03  0.47673860333E+03  0.00000000000E+00 0.  1.
        -15    1    1    2    0    0  0.74865669884E+01 -0.17638424050E+00 -0.34572979982E+01  0.84374424514E+01  0.17770000000E+01 0. -1.
         15    1    1    2    0    0  0.40622374763E+01 -0.73095890270E+01 -0.16262579731E+02  0.18372835752E+02  0.17770000000E+01 0.  1.
</event>
<event>
 6    1  0.2408691E-003  0.5146498E+03  0.7546771E-02  0.9367613E-01
        -11   -1    0    0    0    0  0.00000000000E+00  0.00000000000E+00  0.50000000000E+03  0.50000000000E+03  0.00000000000E+00 0.  1.
         11   -1    0    0    0    0 -0.00000000000E+00 -0.00000000000E+00 -0.50000000000E+03  0.50000000000E+03  0.00000000000E+00 0.  1.
        -11    1    1    2    0    0 -0.53143019323E+01  0.78606369406E+01  0.44843164217E+03  0.44853201571E+03  0.00000000000E+00 0.  1.
         11    1    1    2    0    0  0.26535079090E+02 -0.19049327468E+02 -0.48424971061E+03  0.48535015147E+03  0.00000000000E+00 0.  1.
        -15    1    1    2    0    0 -0.16182582138E+02  0.12318851905E+02 -0.80250051988E+01  0.21936009535E+02  0.17770000000E+01 0. -1.
         15    1    1    2    0    0 -0.50381950196E+01 -0.11301613778E+01  0.43843073643E+02  0.44181823290E+02  0.17770000000E+01 0.  1.
</event>
<event>
 6    1  0.2408691E-003  0.5022071E+03  0.7546771E-02  0.9394885E-01
        -11   -1    0    0    0    0  0.00000000000E+00  0.00000000000E+00  0.50000000000E+03  0.50000000000E+03  0.00000000000E+00 0. -1.
         11   -1    0    0    0    0 -0.00000000000E+00 -0.00000000000E+00 -0.50000000000E+03  0.50000000000E+03  0.00000000000E+00 0.  1.
        -11    1    1    2    0    0  0.45691681969E+01 -0.89849948613E+00  0.25599890617E+03  0.25604125558E+03  0.00000000000E+00 0. -1.
         11    1    1    2    0    0  0.36420933387E+01 -0.77291109309E+01 -0.49771957988E+03  0.49779291297E+03  0.00000000000E+00 0.  1.
        -15    1    1    2    0    0  0.78235081706E+00  0.42740802876E+01  0.48793446531E+00  0.47197080576E+01  0.17770000000E+01 0.  1.
         15    1    1    2    0    0 -0.89936123527E+01  0.43535301294E+01  0.24123273925E+03  0.24144612340E+03  0.17770000000E+01 0. -1.
</event>
<event>
 6    1  0.2408691E-003  0.5003958E+03  0.7546771E-02  0.9398925E-01
        -11   -1    0    0    0    0  0.00000000000E+00  0.00000000000E+00  0.50000000000E+03  0.50000000000E+03  0.00000000000E+00 0.  1.
         11   -1    0    0    0    0 -0.00000000000E+00 -0.00000000000E+00 -0.50000000000E+03  0.50000000000E+03  0.00000000000E+00 0.  1.
        -11    1    1    2    0    0  0.55200857797E+01  0.10647364397E+01  0.14565090942E+03  0.14575936479E+03  0.00000000000E+00 0.  1.
         11    1    1    2    0    0 -0.11823125686E+02  0.11352031760E+02 -0.49933525819E+03  0.49960419834E+03  0.00000000000E+00 0.  1.
        -15    1    1    2    0    0  0.11525791973E+02 -0.55133382172E+01  0.10416999856E+03  0.10496564728E+03  0.17770000000E+01 0. -1.
         15    1    1    2    0    0 -0.52227520662E+01 -0.69034299822E+01  0.24951435021E+03  0.24967078959E+03  0.17770000000E+01 0.  1.
</event>
<event>
 6    1  0.2408691E-003  0.5031760E+03  0.7546771E-02  0.9392731E-01
        -11   -1    0    0    0    0  0.00000000000E+00  0.00000000000E+00  0.50000000000E+03  0.50000000000E+03  0.00000000000E+00 0.  1.
         11   -1    0    0    0    0 -0.00000000000E+00 -0.00000000000E+00 -0.50000000000E+03  0.50000000000E+03  0.00000000000E+00 0. -1.
        -11    1    1    2    0    0 -0.29752507281E+01  0.73284104365E+01  0.49676102398E+03  0.49682398560E+03  0.00000000000E+00 0.  1.
         11    1    1    2    0    0 -0.67178014046E+01  0.12955220981E+01 -0.46417341527E+03  0.46422383252E+03  0.00000000000E+00 0. -1.
        -15    1    1    2    0    0  0.78332326565E+01 -0.65595133510E+01 -0.56426312662E+01  0.11806090202E+02  0.17770000000E+01 0.  1.
         15    1    1    2    0    0  0.18598194762E+01 -0.20644191836E+01 -0.26944977448E+02  0.27146091684E+02  0.17770000000E+01 0. -1.
</event>
<event>
 6    1  0.2408691E-003  0.5170810E+03  0.7546771E-02  0.9362380E-01
        -11   -1    0    0    0    0  0.00000000000E+00  0.00000000000E+00  0.50000000000E+03  0.50000000000E+03  0.00000000000E+00 0. -1.
         11   -1    0    0    0    0 -0.00000000000E+00 -0.00000000000E+00 -0.50000000000E+03  0.50000000000E+03  0.00000000000E+00 0.  1.
        -11    1    1    2    0    0  0.72225138128E+01 -0.15778267482E+02  0.39399031466E+03  0.39437226890E+03  0.00000000000E+00 0. -1.
         11    1    1    2    0    0 -0.29437295574E+01 -0.97199195218E+01 -0.48281223509E+03  0.48291903745E+03  0.00000000000E+00 0.  1.
        -15    1    1    2    0    0 -0.52226355677E+01  0.13760412895E+02  0.10307473835E+03  0.10413541328E+03  0.17770000000E+01 0. -1.
         15    1    1    2    0    0  0.94385131236E+00  0.11737774109E+02 -0.14252817912E+02  0.18573280372E+02  0.17770000000E+01 0. -1.
</event>
<event>
 6    1  0.2408691E-003  0.5343840E+03  0.7546771E-02  0.9325998E-01
        -11   -1    0    0    0    0  0.00000000000E+00  0.00000000000E+00  0.50000000000E+03  0.50000000000E+03  0.00000000000E+00 0.  1.
         11   -1    0    0    0    0 -0.00000000000E+00 -0.00000000000E+00 -0.50000000000E+03  0.50000000000E+03  0.00000000000E+00 0.  1.
        -11    1    1    2    0    0  0.31294095364E+02  0.16282489249E+02  0.46427773544E+03  0.46561599574E+03  0.00000000000E+00 0.  1.
         11    1    1    2    0    0  0.88349919170E+01  0.97619927621E+01 -0.38518388608E+03  0.38540884743E+03  0.00000000000E+00 0.  1.
        -15    1    1    2    0    0  0.33818998862E+02 -0.18899723605E+02  0.21855488287E+01  0.38844029001E+02  0.17770000000E+01 0.  1.
         15    1    1    2    0    0 -0.73948086143E+02 -0.71447584063E+01 -0.81279398194E+02  0.11013112783E+03  0.17770000000E+01 0. -1.
</event>
<event>
 6    1  0.2408691E-003  0.5098776E+03  0.7546771E-02  0.9377975E-01
        -11   -1    0    0    0    0  0.00000000000E+00  0.00000000000E+00  0.50000000000E+03  0.50000000000E+03  0.00000000000E+00 0.  1.
         11   -1    0    0    0    0 -0.00000000000E+00 -0.00000000000E+00 -0.50000000000E+03  0.50000000000E+03  0.00000000000E+00 0.  1.
        -11    1    1    2    0    0  0.46926336408E+01  0.17915996669E+02  0.23233982337E+03  0.23307680552E+03  0.00000000000E+00 0.  1.
         11    1    1    2    0    0  0.16444332343E+02 -0.22555235130E+02 -0.48932693924E+03  0.49012244201E+03  0.00000000000E+00 0.  1.
        -15    1    1    2    0    0 -0.32884687631E+02  0.29319534133E+02  0.24117620594E+03  0.24517372984E+03  0.17770000000E+01 0. -1.
         15    1    1    2    0    0  0.11747721647E+02 -0.24680295673E+02  0.15810909930E+02  0.31627022627E+02  0.17770000000E+01 0.  1.
</event>
<event>
 6    1  0.2408691E-003  0.5019801E+03  0.7546771E-02  0.9395390E-01
        -11   -1    0    0    0    0  0.00000000000E+00  0.00000000000E+00  0.50000000000E+03  0.50000000000E+03  0.00000000000E+00 0.  1.
         11   -1    0    0    0    0 -0.00000000000E+00 -0.00000000000E+00 -0.50000000000E+03  0.50000000000E+03  0.00000000000E+00 0. -1.
        -11    1    1    2    0    0 -0.69355040022E+01 -0.85921615073E+00  0.49797089994E+03  0.49801993600E+03  0.00000000000E+00 0.  1.
         11    1    1    2    0    0 -0.67883051060E+01  0.10731130525E+02 -0.45006493706E+03  0.45024402919E+03  0.00000000000E+00 0. -1.
        -15    1    1    2    0    0  0.12028955410E+02 -0.36004326283E+01 -0.33915491052E+02  0.36208799285E+02  0.17770000000E+01 0.  1.
         15    1    1    2    0    0  0.16948536985E+01 -0.62714817464E+01 -0.13990471821E+02  0.15527235528E+02  0.17770000000E+01 0. -1.
</event>
<event>
 6    1  0.2408691E-003  0.5037260E+03  0.7546771E-02  0.9391511E-01
        -11   -1    0    0    0    0  0.00000000000E+00  0.00000000000E+00  0.50000000000E+03  0.50000000000E+03  0.00000000000E+00 0. -1.
         11   -1    0    0    0    0 -0.00000000000E+00 -0.00000000000E+00 -0.50000000000E+03  0.50000000000E+03  0.00000000000E+00 0. -1.
        -11    1    1    2    0    0  0.29596948933E+01  0.10018263985E+02  0.49616403088E+03  0.49627398778E+03  0.00000000000E+00 0. -1.
         11    1    1    2    0    0 -0.10533663875E+02 -0.73691306190E+01 -0.35555617855E+03  0.35578850215E+03  0.00000000000E+00 0. -1.
        -15    1    1    2    0    0  0.59750952949E+01  0.18867934538E+02 -0.36069210089E+02  0.41180655203E+02  0.17770000000E+01 0.  1.
         15    1    1    2    0    0  0.15988736867E+01 -0.21517067905E+02 -0.10453864225E+03  0.10675685486E+03  0.17770000000E+01 0. -1.
</event>
<event>
 6    1  0.2408691E-003  0.5019619E+03  0.7546771E-02  0.9395430E-01
        -11   -1    0    0    0    0  0.00000000000E+00  0.00000000000E+00  0.50000000000E+03  0.50000000000E+03  0.00000000000E+00 0.  1.
         11   -1    0    0    0    0 -0.00000000000E+00 -0.00000000000E+00 -0.50000000000E+03  0.50000000000E+03  0.00000000000E+00 0. -1.
        -11    1    1    2    0    0 -0.12896813756E+01 -0.19209377837E+02  0.49766584085E+03  0.49803810359E+03  0.00000000000E+00 0.  1.
         11    1    1    2    0    0 -0.25352507164E+00  0.11235704565E+01 -0.46608683686E+02  0.46622913685E+02  0.00000000000E+00 0. -1.
        -15    1    1    2    0    0 -0.11131607322E+02  0.21536803412E+02 -0.70911781089E+02  0.74962557381E+02  0.17770000000E+01 0.  1.
         15    1    1    2    0    0  0.12674813770E+02 -0.34509960312E+01 -0.38014537608E+03  0.38037642535E+03  0.17770000000E+01 0. -1.
</event>
<event>
 6    1  0.2408691E-003  0.5003484E+03  0.7546771E-02  0.9399030E-01
        -11   -1    0    0    0    0  0.00000000000E+00  0.00000000000E+00  0.50000000000E+03  0.50000000000E+03  0.00000000000E+00 0.  1.
         11   -1    0    0    0    0 -0.00000000000E+00 -0.00000000000E+00 -0.50000000000E+03  0.50000000000E+03  0.00000000000E+00 0. -1.
        -11    1    1    2    0    0 -0.26807470974E+01 -0.97073991622E+01  0.49955005661E+03  0.49965155765E+03  0.00000000000E+00 0.  1.
         11    1    1    2    0    0  0.35183284283E+01 -0.58683583309E+01 -0.16990176026E+03  0.17003947896E+03  0.00000000000E+00 0. -1.
        -15    1    1    2    0    0  0.35033071783E+01  0.42156675756E+01 -0.19911176134E+03  0.19919512104E+03  0.17770000000E+01 0. -1.
         15    1    1    2    0    0 -0.43408885092E+01  0.11360089918E+02 -0.13053653501E+03  0.13111384236E+03  0.17770000000E+01 0.  1.
</event>
<event>
 6    1  0.2408691E-003  0.5105997E+03  0.7546771E-02  0.9376400E-01
        -11   -1    0    0    0    0  0.00000000000E+00  0.00000000000E+00  0.50000000000E+03  0.50000000000E+03  0.00000000000E+00 0.  1.
         11   -1    0    0    0    0 -0.00000000000E+00 -0.00000000000E+00 -0.50000000000E+03  0.50000000000E+03  0.00000000000E+00 0. -1.
        -11    1    1    2    0    0  0.23090018392E+01  0.64977325946E+01  0.12571544679E+03  0.12590443034E+03  0.00000000000E+00 0.  1.
         11    1    1    2    0    0  0.24198652453E+01  0.13810132343E+02 -0.48919943192E+03  0.48940030619E+03  0.00000000000E+00 0. -1.
        -15    1    1    2    0    0 -0.86596217856E+01 -0.11531675185E+02 -0.55335340482E+01  0.15548193146E+02  0.17770000000E+01 0. -1.
         15    1    1    2    0    0  0.39307547011E+01 -0.87761897531E+01  0.36901751918E+03  0.36914707032E+03  0.17770000000E+01 0.  1.
</event>
<event>
 6    1  0.2408691E-003  0.5286466E+03  0.7546771E-02  0.9337898E-01
        -11   -1    0    0    0    0  0.00000000000E+00  0.00000000000E+00  0.50000000000E+03  0.50000000000E+03  0.00000000000E+00 0. -1.
         11   -1    0    0    0    0 -0.00000000000E+00 -0.00000000000E+00 -0.50000000000E+03  0.50000000000E+03  0.00000000000E+00 0.  1.
        -11    1    1    2    0    0 -0.13479534897E+02  0.15232345501E+02  0.32761264582E+03  0.32824345829E+03  0.00000000000E+00 0. -1.
         11    1    1    2    0    0  0.15077041178E+02  0.96445442032E+01 -0.47101342859E+03  0.47135335399E+03  0.00000000000E+00 0.  1.
        -15    1    1    2    0    0 -0.15553102323E+02 -0.33935256597E+01 -0.25198948578E+02  0.29858997751E+02  0.17770000000E+01 0.  1.
         15    1    1    2    0    0  0.13955596042E+02 -0.21483364045E+02  0.16859973135E+03  0.17054418997E+03  0.17770000000E+01 0. -1.
</event>
<event>
 6    1  0.2408691E-003  0.5046473E+03  0.7546771E-02  0.9389471E-01
        -11   -1    0    0    0    0  0.00000000000E+00  0.00000000000E+00  0.50000000000E+03  0.50000000000E+03  0.00000000000E+00 0.  1.
         11   -1    0    0    0    0 -0.00000000000E+00 -0.00000000000E+00 -0.50000000000E+03  0.50000000000E+03  0.00000000000E+00 0.  1.
        -11    1    1    2    0    0  0.22037911006E+01 -0.99726439982E+01  0.49524738720E+03  0.49535268734E+03  0.00000000000E+00 0.  1.
         11    1    1    2    0    0 -0.15254462640E+01  0.15797671012E+02 -0.38574919287E+03  0.38607555374E+03  0.00000000000E+00 0.  1.
        -15    1    1    2    0    0 -0.56272272751E+01  0.87675230814E+01 -0.30505301107E+01  0.10999936852E+02  0.17770000000E+01 0.  1.
         15    1    1    2    0    0  0.49488824385E+01 -0.14592550096E+02 -0.10644766423E+03  0.10757182207E+03  0.17770000000E+01 0. -1.
</event>
<event>
 6    1  0.2408691E-003  0.5017547E+03  0.7546771E-02  0.9395892E-01
        -11   -1    0    0    0    0  0.00000000000E+00  0.00000000000E+00  0.50000000000E+03  0.50000000000E+03  0.00000000000E+00 0. -1.
         11   -1    0    0    0    0 -0.00000000000E+00 -0.00000000000E+00 -0.50000000000E+03  0.50000000000E+03  0.00000000000E+00 0. -1.
        -11    1    1    2    0    0  0.15326249945E+02  0.33950942458E+01  0.36230299192E+03  0.36264290777E+03  0.00000000000E+00 0. -1.
         11    1    1    2    0    0 -0.20127869669E+02 -0.52068497022E+01 -0.49781137244E+03  0.49824532607E+03  0.00000000000E+00 0. -1.
        -15    1    1    2    0    0  0.16348108296E+02  0.48521447773E+01  0.52461696881E+02  0.55192312167E+02  0.17770000000E+01 0.  1.
         15    1    1    2    0    0 -0.11546488572E+02 -0.30403893210E+01  0.83046683641E+02  0.83919453992E+02  0.17770000000E+01 0. -1.
</event>
<event>
 6    1  0.2408691E-003  0.5232809E+03  0.7546771E-02  0.9349173E-01
        -11   -1    0    0    0    0  0.00000000000E+00  0.00000000000E+00  0.50000000000E+03  0.50000000000E+03  0.00000000000E+00 0. -1.
         11   -1    0    0    0    0 -0.00000000000E+00 -0.00000000000E+00 -0.50000000000E+03  0.50000000000E+03  0.00000000000E+00 0. -1.
        -11    1    1    2    0    0 -0.28350640614E+02 -0.93967278616E+01  0.47578255144E+03  0.47671909294E+03  0.00000000000E+00 0. -1.
         11    1    1    2    0    0  0.12739849645E+02 -0.20042303246E+01 -0.42763590745E+03  0.42783032857E+03  0.00000000000E+00 0. -1.
        -15    1    1    2    0    0  0.11411721391E+02 -0.12472493259E+02 -0.64140869502E+02  0.66355100351E+02  0.17770000000E+01 0.  1.
         15    1    1    2    0    0  0.41990695771E+01  0.23873451445E+02  0.15994225508E+02  0.29095478134E+02  0.17770000000E+01 0. -1.
</event>
<event>
 6    1  0.2408691E-003  0.4835422E+03  0.7546771E-02  0.9437408E-01
        -11   -1    0    0    0    0  0.00000000000E+00  0.00000000000E+00  0.50000000000E+03  0.50000000000E+03  0.00000000000E+00 0.  1.
         11   -1    0    0    0    0 -0.00000000000E+00 -0.00000000000E+00 -0.50000000000E+03  0.50000000000E+03  0.00000000000E+00 0.  1.
        -11    1    1    2    0    0 -0.69141366909E+01  0.43490236249E+01  0.48204721003E+03  0.48211640917E+03  0.00000000000E+00 0.  1.
         11    1    1    2    0    0  0.11810257935E+02 -0.12390500752E+01 -0.48484397662E+03  0.48498938040E+03  0.00000000000E+00 0.  1.
        -15    1    1    2    0    0 -0.12037255316E+02 -0.92916001198E+01 -0.89366894553E+01  0.17727140089E+02  0.17770000000E+01 0. -1.
         15    1    1    2    0    0  0.71411340712E+01  0.61816265702E+01  0.11733456043E+02  0.15167070336E+02  0.17770000000E+01 0.  1.
</event>
<event>
 6    1  0.2408691E-003  0.5043392E+03  0.7546771E-02  0.9390152E-01
        -11   -1    0    0    0    0  0.00000000000E+00  0.00000000000E+00  0.50000000000E+03  0.50000000000E+03  0.00000000000E+00 0. -1.
         11   -1    0    0    0    0 -0.00000000000E+00 -0.00000000000E+00 -0.50000000000E+03  0.50000000000E+03  0.00000000000E+00 0.  1.
        -11    1    1    2    0    0  0.11257925043E+02  0.10330883723E+02  0.49542522523E+03  0.49566079311E+03  0.00000000000E+00 0. -1.
         11    1    1    2    0    0  0.97025914678E+01  0.12158642150E+02 -0.30708874417E+03  0.30748247049E+03  0.00000000000E+00 0.  1.
        -15    1    1    2    0    0 -0.25460072728E+02 -0.16422660318E+02 -0.51331579524E+02  0.59632271973E+02  0.17770000000E+01 0. -1.
         15    1    1    2    0    0  0.44995562179E+01 -0.60668655547E+01 -0.13700490154E+03  0.13722446443E+03  0.17770000000E+01 0.  1.
</event>
<event>
 6    1  0.2408691E-003  0.5097189E+03  0.7546771E-02  0.9378322E-01
        -11   -1    0    0    0    0  0.00000000000E+00  0.00000000000E+00  0.50000000000E+03  0.50000000000E+03  0.00000000000E+00 0. -1.
         11   -1    0    0    0    0 -0.00000000000E+00 -0.00000000000E+00 -0.50000000000E+03  0.50000000000E+03  0.00000000000E+00 0.  1.
        -11    1    1    2    0    0 -0.37410554613E+01  0.24479922910E+02  0.48965529409E+03  0.49028111237E+03  0.00000000000E+00 0. -1.
         11    1    1    2    0    0  0.20913715994E+01 -0.23941425654E+02 -0.36722220836E+03  0.36800776624E+03  0.00000000000E+00 0.  1.
        -15    1    1    2    0    0  0.34057704585E+01  0.11394175364E+02 -0.12781877332E+03  0.12838311044E+03  0.17770000000E+01 0.  1.
         15    1    1    2    0    0 -0.17560865967E+01 -0.11932672620E+02  0.53856875906E+01  0.13328010948E+02  0.17770000000E+01 0. -1.
</event>
<event>
 6    1  0.2408691E-003  0.5018642E+03  0.7546771E-02  0.9395648E-01
        -11   -1    0    0    0    0  0.00000000000E+00  0.00000000000E+00  0.50000000000E+03  0.50000000000E+03  0.00000000000E+00 0. -1.
         11   -1    0    0    0    0 -0.00000000000E+00 -0.00000000000E+00 -0.50000000000E+03  0.50000000000E+03  0.00000000000E+00 0. -1.
        -11    1    1    2    0    0 -0.42070688796E+01  0.51630621710E+01  0.23819791682E+03  0.23829100742E+03  0.00000000000E+00 0. -1.
         11    1    1    2    0    0 -0.28134533696E+01 -0.93899616459E+01 -0.49803939174E+03  0.49813584756E+03  0.00000000000E+00 0. -1.
        -15    1    1    2    0    0  0.70114570636E+01 -0.57383376624E+01  0.24722742855E+03  0.24739977406E+03  0.17770000000E+01 0.  1.
         15    1    1    2    0    0  0.90651855717E-02  0.99652371372E+01  0.12614046363E+02  0.16173370955E+02  0.17770000000E+01 0.  1.
</event>
<event>
 6    1  0.2408691E-003  0.5004489E+03  0.7546771E-02  0.9398806E-01
        -11   -1    0    0    0    0  0.00000000000E+00  0.00000000000E+00  0.50000000000E+03  0.50000000000E+03  0.00000000000E+00 0.  1.
         11   -1    0    0    0    0 -0.00000000000E+00 -0.00000000000E+00 -0.50000000000E+03  0.50000000000E+03  0.00000000000E+00 0. -1.
        -11    1    1    2    0    0  0.66528383496E+01 -0.21933087283E+01  0.38596357475E+03  0.38602713881E+03  0.00000000000E+00 0.  1.
         11    1    1    2    0    0 -0.14231846247E+01 -0.72937037838E+01 -0.49949586259E+03  0.49955113883E+03  0.00000000000E+00 0. -1.
        -15    1    1    2    0    0 -0.45126683594E+01  0.10708441663E+02  0.10133352930E+03  0.10201312067E+03  0.17770000000E+01 0. -1.
         15    1    1    2    0    0 -0.71698536557E+00 -0.12214291513E+01  0.12198758529E+02  0.12408601688E+02  0.17770000000E+01 0.  1.
</event>
<event>
 6    1  0.2408691E-003  0.5845430E+03  0.7546771E-02  0.9228277E-01
        -11   -1    0    0    0    0  0.00000000000E+00  0.00000000000E+00  0.50000000000E+03  0.50000000000E+03  0.00000000000E+00 0.  1.
         11   -1    0    0    0    0 -0.00000000000E+00 -0.00000000000E+00 -0.50000000000E+03  0.50000000000E+03  0.00000000000E+00 0.  1.
        -11    1    1    2    0    0  0.68949795081E+01 -0.41851826525E+02  0.41328614720E+03  0.41545704422E+03  0.00000000000E+00 0.  1.
         11    1    1    2    0    0 -0.23151738631E+02 -0.93062701186E+01 -0.23853923116E+03  0.23984072729E+03  0.00000000000E+00 0.  1.
        -15    1    1    2    0    0  0.40109652493E+01  0.24001063458E+02 -0.25650754886E+03  0.25766532410E+03  0.17770000000E+01 0.  1.
         15    1    1    2    0    0  0.12245793874E+02  0.27157033186E+02  0.81760632815E+02  0.87036904393E+02  0.17770000000E+01 0. -1.
</event>
<event>
 6    1  0.2408691E-003  0.5331699E+03  0.7546771E-02  0.9328503E-01
        -11   -1    0    0    0    0  0.00000000000E+00  0.00000000000E+00  0.50000000000E+03  0.50000000000E+03  0.00000000000E+00 0.  1.
         11   -1    0    0    0    0 -0.00000000000E+00 -0.00000000000E+00 -0.50000000000E+03  0.50000000000E+03  0.00000000000E+00 0.  1.
        -11    1    1    2    0    0  0.46097545131E+02 -0.38362123971E+02  0.33065442712E+03  0.33604908332E+03  0.00000000000E+00 0.  1.
         11    1    1    2    0    0 -0.39666884633E+02  0.46023282316E+02 -0.46285926044E+03  0.46683005390E+03  0.00000000000E+00 0.  1.
        -15    1    1    2    0    0 -0.64572094340E+02  0.13794986817E+02  0.11526342836E+03  0.13284830701E+03  0.17770000000E+01 0. -1.
         15    1    1    2    0    0  0.58141433842E+02 -0.21456145163E+02  0.16941404960E+02  0.64272555772E+02  0.17770000000E+01 0.  1.
</event>
<event>
 6    1  0.2408691E-003  0.5004481E+03  0.7546771E-02  0.9398808E-01
        -11   -1    0    0    0    0  0.00000000000E+00  0.00000000000E+00  0.50000000000E+03  0.50000000000E+03  0.00000000000E+00 0. -1.
         11   -1    0    0    0    0 -0.00000000000E+00 -0.00000000000E+00 -0.50000000000E+03  0.50000000000E+03  0.00000000000E+00 0. -1.
        -11    1    1    2    0    0  0.35273773543E+00  0.70821302445E+01  0.49950158363E+03  0.49955191226E+03  0.00000000000E+00 0. -1.
         11    1    1    2    0    0  0.50082092478E+01  0.35564961511E+01 -0.33378164042E+03  0.33383815585E+03  0.00000000000E+00 0. -1.
        -15    1    1    2    0    0 -0.14595628157E+01 -0.10847328247E+02 -0.77905266169E+02  0.78690425590E+02  0.17770000000E+01 0.  1.
         15    1    1    2    0    0 -0.39013841676E+01  0.20870185122E+00 -0.87814677042E+02  0.87919506299E+02  0.17770000000E+01 0. -1.
</event>
<event>
 6    1  0.2408691E-003  0.5008975E+03  0.7546771E-02  0.9397804E-01
        -11   -1    0    0    0    0  0.00000000000E+00  0.00000000000E+00  0.50000000000E+03  0.50000000000E+03  0.00000000000E+00 0.  1.
         11   -1    0    0    0    0 -0.00000000000E+00 -0.00000000000E+00 -0.50000000000E+03  0.50000000000E+03  0.00000000000E+00 0.  1.
        -11    1    1    2    0    0  0.73389212784E+00  0.55365837644E+01  0.40100461878E+03  0.40104350966E+03  0.00000000000E+00 0.  1.
         11    1    1    2    0    0  0.50320385913E+01  0.76766017901E+01 -0.49901806491E+03  0.49910247518E+03  0.00000000000E+00 0.  1.
        -15    1    1    2    0    0 -0.42678205385E+01 -0.11592588237E+02  0.43180818263E+02  0.44948227874E+02  0.17770000000E+01 0.  1.
         15    1    1    2    0    0 -0.14981101807E+01 -0.16205973176E+01  0.54832627869E+02  0.54905787288E+02  0.17770000000E+01 0. -1.
</event>
<event>
 6    1  0.2408691E-003  0.5093867E+03  0.7546771E-02  0.9379048E-01
        -11   -1    0    0    0    0  0.00000000000E+00  0.00000000000E+00  0.50000000000E+03  0.50000000000E+03  0.00000000000E+00 0. -1.
         11   -1    0    0    0    0 -0.00000000000E+00 -0.00000000000E+00 -0.50000000000E+03  0.50000000000E+03  0.00000000000E+00 0.  1.
        -11    1    1    2    0    0  0.63612162971E+01 -0.25684453556E+01  0.49056537883E+03  0.49061334358E+03  0.00000000000E+00 0. -1.
         11    1    1    2    0    0 -0.27089691830E+02 -0.62510871809E+01 -0.40567286373E+03  0.40662439654E+03  0.00000000000E+00 0.  1.
        -15    1    1    2    0    0 -0.70258657978E+01 -0.16032773641E+02 -0.44145726378E+02  0.47522789347E+02  0.17770000000E+01 0.  1.
         15    1    1    2    0    0  0.27754341331E+02  0.24852306178E+02 -0.40746788729E+02  0.55239470542E+02  0.17770000000E+01 0. -1.
</event>
<event>
 6    1  0.2408691E-003  0.5001098E+03  0.7546771E-02  0.9399564E-01
        -11   -1    0    0    0    0  0.00000000000E+00  0.00000000000E+00  0.50000000000E+03  0.50000000000E+03  0.00000000000E+00 0.  1.
         11   -1    0    0    0    0 -0.00000000000E+00 -0.00000000000E+00 -0.50000000000E+03  0.50000000000E+03  0.00000000000E+00 0. -1.
        -11    1    1    2    0    0  0.91815944693E-01 -0.18447157142E+01  0.63498134735E+02  0.63524991311E+02  0.00000000000E+00 0.  1.
         11    1    1    2    0    0  0.75555407844E+01 -0.39124098224E+01 -0.49981780985E+03  0.49989022414E+03  0.00000000000E+00 0. -1.
        -15    1    1    2    0    0 -0.88138464272E+01  0.13747369052E+01  0.35690551160E+03  0.35702139394E+03  0.17770000000E+01 0.  1.
         15    1    1    2    0    0  0.11664896981E+01  0.43823886314E+01  0.79414163521E+02  0.79563390608E+02  0.17770000000E+01 0. -1.
</event>
<event>
 6    1  0.2408691E-003  0.5124816E+03  0.7546771E-02  0.9372306E-01
        -11   -1    0    0    0    0  0.00000000000E+00  0.00000000000E+00  0.50000000000E+03  0.50000000000E+03  0.00000000000E+00 0.  1.
         11   -1    0    0    0    0 -0.00000000000E+00 -0.00000000000E+00 -0.50000000000E+03  0.50000000000E+03  0.00000000000E+00 0.  1.
        -11    1    1    2    0    0 -0.23296401637E+02 -0.66262332711E+01  0.37457271094E+03  0.37535495878E+03  0.00000000000E+00 0.  1.
         11    1    1    2    0    0 -0.15135217818E+02  0.11738308512E+02 -0.48714200416E+03  0.48751840470E+03  0.00000000000E+00 0.  1.
        -15    1    1    2    0    0 -0.13026810332E+01 -0.30760434371E+02  0.40443724552E+02  0.50860140437E+02  0.17770000000E+01 0. -1.
         15    1    1    2    0    0  0.39734300489E+02  0.25648359130E+02  0.72125568667E+02  0.86266496080E+02  0.17770000000E+01 0.  1.
</event>
<event>
 6    1  0.2408691E-003  0.5117785E+03  0.7546771E-02  0.9373833E-01
        -11   -1    0    0    0    0  0.00000000000E+00  0.00000000000E+00  0.50000000000E+03  0.50000000000E+03  0.00000000000E+00 0.  1.
         11   -1    0    0    0    0 -0.00000000000E+00 -0.00000000000E+00 -0.50000000000E+03  0.50000000000E+03  0.00000000000E+00 0. -1.
        -11    1    1    2    0    0  0.16691175192E+01  0.12432836690E+02  0.48806030101E+03  0.48822148540E+03  0.00000000000E+00 0.  1.
         11    1    1    2    0    0 -0.12515058340E+02  0.28291438122E+01 -0.41211214104E+03  0.41231183288E+03  0.00000000000E+00 0. -1.
        -15    1    1    2    0    0  0.10208557765E+02  0.11735608316E+00 -0.82132264780E+02  0.82783422682E+02  0.17770000000E+01 0. -1.
         15    1    1    2    0    0  0.63738305615E+00 -0.15379336585E+02  0.61841048079E+01  0.16683259041E+02  0.17770000000E+01 0. -1.
</event>
<event>
 6    1  0.2408691E-003  0.5086384E+03  0.7546771E-02  0.9380685E-01
        -11   -1    0    0    0    0  0.00000000000E+00  0.00000000000E+00  0.50000000000E+03  0.50000000000E+03  0.00000000000E+00 0. -1.
         11   -1    0    0    0    0 -0.00000000000E+00 -0.00000000000E+00 -0.50000000000E+03  0.50000000000E+03  0.00000000000E+00 0.  1.
        -11    1    1    2    0    0 -0.71825826341E+01  0.86356095559E+01  0.49123318392E+03  0.49136158197E+03  0.00000000000E+00 0. -1.
         11    1    1    2    0    0  0.96779906283E+00 -0.85892821174E+01 -0.41370592943E+03  0.41379621609E+03  0.00000000000E+00 0.  1.
        -15    1    1    2    0    0  0.54782481864E+01 -0.14986566911E+01  0.76157320540E+01  0.96651062482E+01  0.17770000000E+01 0. -1.
         15    1    1    2    0    0  0.73653538482E+00  0.14523292526E+01 -0.85142986542E+02  0.85177095694E+02  0.17770000000E+01 0.  1.
</event>
<event>
 6    1  0.2408691E-003  0.5029320E+03  0.7546771E-02  0.9393273E-01
        -11   -1    0    0    0    0  0.00000000000E+00  0.00000000000E+00  0.50000000000E+03  0.50000000000E+03  0.00000000000E+00 0.  1.
         11   -1    0    0    0    0 -0.00000000000E+00 -0.00000000000E+00 -0.50000000000E+03  0.50000000000E+03  0.00000000000E+00 0. -1.
        -11    1    1    2    0    0 -0.78930713030E+00 -0.24967102092E+02  0.49643997535E+03  0.49706803188E+03  0.00000000000E+00 0.  1.
         11    1    1    2    0    0 -0.55899936015E+01 -0.27099795008E+01 -0.18558442216E+03  0.18568836734E+03  0.00000000000E+00 0. -1.
        -15    1    1    2    0    0 -0.47380186722E+01  0.91271925987E+01 -0.27592239782E+03  0.27611968748E+03  0.17770000000E+01 0. -1.
         15    1    1    2    0    0  0.11117319404E+02  0.18549888994E+02 -0.34933155375E+02  0.41123913310E+02  0.17770000000E+01 0.  1.
</event>
<event>
 6    1  0.2408691E-003  0.5078084E+03  0.7546771E-02  0.9382505E-01
        -11   -1    0    0    0    0  0.00000000000E+00  0.00000000000E+00  0.50000000000E+03  0.50000000000E+03  0.00000000000E+00 0.  1.
         11   -1    0    0    0    0 -0.00000000000E+00 -0.00000000000E+00 -0.50000000000E+03  0.50000000000E+03  0.00000000000E+00 0.  1.
        -11    1    1    2    0    0 -0.96526946040E+01  0.13012487179E+02  0.49192482074E+03  0.49219155681E+03  0.00000000000E+00 0.  1.
         11    1    1    2    0    0  0.14515829199E+02 -0.43636753733E+01 -0.48222800021E+03  0.48246615959E+03  0.00000000000E+00 0.  1.
        -15    1    1    2    0    0  0.55957431397E+01 -0.59082721948E+01  0.27389138247E+01  0.87680898463E+01  0.17770000000E+01 0.  1.
         15    1    1    2    0    0 -0.10458877735E+02 -0.27405396111E+01 -0.12435734348E+02  0.16574193754E+02  0.17770000000E+01 0. -1.
</event>
<event>
 6    1  0.2408691E-003  0.5080828E+03  0.7546771E-02  0.9381903E-01
        -11   -1    0    0    0    0  0.00000000000E+00  0.00000000000E+00  0.50000000000E+03  0.50000000000E+03  0.00000000000E+00 0.  1.
         11   -1    0    0    0    0 -0.00000000000E+00 -0.00000000000E+00 -0.50000000000E+03  0.50000000000E+03  0.00000000000E+00 0.  1.
        -11    1    1    2    0    0 -0.14380030926E+02  0.79263938994E+00  0.30701590113E+03  0.30735350512E+03  0.00000000000E+00 0.  1.
         11    1    1    2    0    0 -0.83084979051E+00  0.80557428679E+01 -0.49185051671E+03  0.49191718419E+03  0.00000000000E+00 0.  1.
        -15    1    1    2    0    0  0.64822445851E+01 -0.89874497848E+01  0.19006671129E+03  0.19039775791E+03  0.17770000000E+01 0.  1.
         15    1    1    2    0    0  0.87286361314E+01  0.13906752703E+00 -0.52320956994E+01  0.10331552783E+02  0.17770000000E+01 0. -1.
</event>
<event>
 6    1  0.2408691E-003  0.5004348E+03  0.7546771E-02  0.9398837E-01
        -11   -1    0    0    0    0  0.00000000000E+00  0.00000000000E+00  0.50000000000E+03  0.50000000000E+03  0.00000000000E+00 0.  1.
         11   -1    0    0    0    0 -0.00000000000E+00 -0.00000000000E+00 -0.50000000000E+03  0.50000000000E+03  0.00000000000E+00 0.  1.
        -11    1    1    2    0    0  0.45351920725E+01  0.65985118977E+01  0.49950098752E+03  0.49956515577E+03  0.00000000000E+00 0.  1.
         11    1    1    2    0    0  0.56473610125E+01  0.28722089425E+01 -0.29118337937E+03  0.29125230075E+03  0.00000000000E+00 0.  1.
        -15    1    1    2    0    0 -0.13247420761E+00  0.25528307770E+01 -0.43912625363E+02  0.44022845088E+02  0.17770000000E+01 0. -1.
         15    1    1    2    0    0 -0.10050078877E+02 -0.12023551617E+02 -0.16440498279E+03  0.16515969839E+03  0.17770000000E+01 0. -1.
</event>
<event>
 6    1  0.2408691E-003  0.5003880E+03  0.7546771E-02  0.9398942E-01
        -11   -1    0    0    0    0  0.00000000000E+00  0.00000000000E+00  0.50000000000E+03  0.50000000000E+03  0.00000000000E+00 0.  1.
         11   -1    0    0    0    0 -0.00000000000E+00 -0.00000000000E+00 -0.50000000000E+03  0.50000000000E+03  0.00000000000E+00 0.  1.
        -11    1    1    2    0    0  0.86403922956E+01  0.47520480508E+01  0.49951466883E+03  0.49961199217E+03  0.00000000000E+00 0.  1.
         11    1    1    2    0    0 -0.54924241851E+01 -0.13443475195E+01 -0.37107405740E+03  0.37111713793E+03  0.00000000000E+00 0.  1.
        -15    1    1    2    0    0  0.32285558912E+01 -0.49949074443E+01 -0.32394965362E+02  0.32984302075E+02  0.17770000000E+01 0.  1.
         15    1    1    2    0    0 -0.63765240018E+01  0.15872069130E+01 -0.96045646075E+02  0.96286567823E+02  0.17770000000E+01 0.  1.
</event>
<event>
 6    1  0.2408691E-003  0.5153486E+03  0.7546771E-02  0.9366106E-01
        -11   -1    0    0    0    0  0.00000000000E+00  0.00000000000E+00  0.50000000000E+03  0.50000000000E+03  0.00000000000E+00 0. -1.
         11   -1    0    0    0    0 -0.00000000000E+00 -0.00000000000E+00 -0.50000000000E+03  0.50000000000E+03  0.00000000000E+00 0. -1.
        -11    1    1    2    0    0 -0.22942503729E+02 -0.45931988205E+01  0.40679339976E+03  0.40746573604E+03  0.00000000000E+00 0. -1.
         11    1    1    2    0    0  0.80015480086E+01  0.92714392712E+01 -0.48449659972E+03  0.48465135871E+03  0.00000000000E+00 0. -1.
        -15    1    1    2    0    0 -0.16945054091E+01 -0.11013038603E+02 -0.11965832245E+02  0.16446800241E+02  0.17770000000E+01 0.  1.
         15    1    1    2    0    0  0.16635461129E+02  0.63347981523E+01  0.89669032202E+02  0.91436105011E+02  0.17770000000E+01 0. -1.
</event>
<event>
 6    1  0.2408691E-003  0.5046573E+03  0.7546771E-02  0.9389449E-01
        -11   -1    0    0    0    0  0.00000000000E+00  0.00000000000E+00  0.50000000000E+03  0.50000000000E+03  0.00000000000E+00 0.  1.
         11   -1    0    0    0    0 -0.00000000000E+00 -0.00000000000E+00 -0.50000000000E+03  0.50000000000E+03  0.00000000000E+00 0. -1.
        -11    1    1    2    0    0 -0.73185496022E+01  0.32070322693E+01  0.44338381444E+03  0.44345580741E+03  0.00000000000E+00 0.  1.
         11    1    1    2    0    0  0.58015701523E+01  0.87201505378E+01 -0.49523200012E+03  0.49534274314E+03  0.00000000000E+00 0. -1.
        -15    1    1    2    0    0  0.41132052560E+00 -0.19662472863E+02  0.48771874230E+02  0.52617824628E+02  0.17770000000E+01 0.  1.
         15    1    1    2    0    0  0.11056589243E+01  0.77352900560E+01  0.30763114492E+01  0.85836248194E+01  0.17770000000E+01 0. -1.
</event>
<event>
 6    1  0.2408691E-003  0.5188425E+03  0.7546771E-02  0.9358608E-01
        -11   -1    0    0    0    0  0.00000000000E+00  0.00000000000E+00  0.50000000000E+03  0.50000000000E+03  0.00000000000E+00 0.  1.
         11   -1    0    0    0    0 -0.00000000000E+00 -0.00000000000E+00 -0.50000000000E+03  0.50000000000E+03  0.00000000000E+00 0.  1.
        -11    1    1    2    0    0  0.10366126630E+01  0.82987627374E+01  0.36678315980E+03  0.36687849533E+03  0.00000000000E+00 0.  1.
         11    1    1    2    0    0  0.90557946873E+01  0.35220147145E+01 -0.48105933663E+03  0.48115745589E+03  0.00000000000E+00 0.  1.
        -15    1    1    2    0    0  0.94315440553E+00  0.53506387072E+01 -0.17600350477E+02  0.18505375995E+02  0.17770000000E+01 0. -1.
         15    1    1    2    0    0 -0.11035561756E+02 -0.17171416159E+02  0.13187652731E+03  0.13345867278E+03  0.17770000000E+01 0.  1.
</event>
<event>
 6    1  0.2408691E-003  0.5050350E+03  0.7546771E-02  0.9388613E-01
        -11   -1    0    0    0    0  0.00000000000E+00  0.00000000000E+00  0.50000000000E+03  0.50000000000E+03  0.00000000000E+00 0. -1.
         11   -1    0    0    0    0 -0.00000000000E+00 -0.00000000000E+00 -0.50000000000E+03  0.50000000000E+03  0.00000000000E+00 0. -1.
        -11    1    1    2    0    0 -0.87898143544E+01  0.14566001084E+02  0.49467251756E+03  0.49496497740E+03  0.00000000000E+00 0. -1.
         11    1    1    2    0    0 -0.76188103423E+01 -0.15533882664E+01 -0.42242675644E+03  0.42249831223E+03  0.00000000000E+00 0. -1.
        -15    1    1    2    0    0  0.11773116465E+01 -0.50020316304E+01 -0.62388052982E+02  0.62624542050E+02  0.17770000000E+01 0. -1.
         15    1    1    2    0    0  0.15231313050E+02 -0.80105811876E+01 -0.98577081407E+01  0.19912168314E+02  0.17770000000E+01 0.  1.
</event>
<event>
 6    1  0.2408691E-003  0.4993880E+03  0.7546771E-02  0.9401180E-01
        -11   -1    0    0    0    0  0.00000000000E+00  0.00000000000E+00  0.50000000000E+03  0.50000000000E+03  0.00000000000E+00 0. -1.
         11   -1    0    0    0    0 -0.00000000000E+00 -0.00000000000E+00 -0.50000000000E+03  0.50000000000E+03  0.00000000000E+00 0.  1.
        -11    1    1    2    0    0  0.56078168343E+01 -0.91887954135E+00  0.78984852032E+01  0.97302629853E+01  0.00000000000E+00 0. -1.
         11    1    1    2    0    0 -0.18769793930E+02  0.10815300738E+02 -0.49439552304E+03  0.49486989107E+03  0.00000000000E+00 0.  1.
        -15    1    1    2    0    0  0.24087583581E+02  0.85202039211E+01  0.46242138413E+03  0.46313011108E+03  0.17770000000E+01 0. -1.
         15    1    1    2    0    0 -0.10925606486E+02 -0.18416625118E+02  0.24075653703E+02  0.32269734862E+02  0.17770000000E+01 0.  1.
</event>
<event>
 6    1  0.2408691E-003  0.4865294E+03  0.7546771E-02  0.9430466E-01
        -11   -1    0    0    0    0  0.00000000000E+00  0.00000000000E+00  0.50000000000E+03  0.50000000000E+03  0.00000000000E+00 0. -1.
         11   -1    0    0    0    0 -0.00000000000E+00 -0.00000000000E+00 -0.50000000000E+03  0.50000000000E+03  0.00000000000E+00 0. -1.
        -11    1    1    2    0    0  0.75762409537E+01  0.74725189074E+01  0.48681265875E+03  0.48692895034E+03  0.00000000000E+00 0. -1.
         11    1    1    2    0    0  0.79407555139E+01 -0.87309505174E+01 -0.48611138522E+03  0.48625462871E+03  0.00000000000E+00 0. -1.
        -15    1    1    2    0    0 -0.11116911969E+02  0.48661865950E+01 -0.99635087203E+01  0.15801732143E+02  0.17770000000E+01 0. -1.
         15    1    1    2    0    0 -0.44000844984E+01 -0.36077549850E+01  0.92622351987E+01  0.11014688806E+02  0.17770000000E+01 0.  1.
</event>
<event>
 6    1  0.2408691E-003  0.5248191E+03  0.7546771E-02  0.9345926E-01
        -11   -1    0    0    0    0  0.00000000000E+00  0.00000000000E+00  0.50000000000E+03  0.50000000000E+03  0.00000000000E+00 0.  1.
         11   -1    0    0    0    0 -0.00000000000E+00 -0.00000000000E+00 -0.50000000000E+03  0.50000000000E+03  0.00000000000E+00 0.  1.
        -11    1    1    2    0    0 -0.12266009118E+02  0.93242983507E+01  0.47493102778E+03  0.47518089047E+03  0.00000000000E+00 0.  1.
         11    1    1    2    0    0  0.11501974063E+01  0.55398767734E+01 -0.41577312383E+03  0.41581162044E+03  0.00000000000E+00 0.  1.
        -15    1    1    2    0    0  0.34350249254E+02  0.85788179247E+01 -0.66307583871E+02  0.75189022793E+02  0.17770000000E+01 0. -1.
         15    1    1    2    0    0 -0.23234437543E+02 -0.23442993049E+02  0.71496799279E+01  0.33818466303E+02  0.17770000000E+01 0.  1.
</event>
<event>
 6    1  0.2408691E-003  0.5190163E+03  0.7546771E-02  0.9358237E-01
        -11   -1    0    0    0    0  0.00000000000E+00  0.00000000000E+00  0.50000000000E+03  0.50000000000E+03  0.00000000000E+00 0.  1.
         11   -1    0    0    0    0 -0.00000000000E+00 -0.00000000000E+00 -0.50000000000E+03  0.50000000000E+03  0.00000000000E+00 0. -1.
        -11    1    1    2    0    0 -0.52363378565E+01 -0.86207166053E+01  0.48087796741E+03  0.48098373728E+03  0.00000000000E+00 0.  1.
         11    1    1    2    0    0 -0.18934078832E+02 -0.67288647906E+01 -0.41541050921E+03  0.41589622278E+03  0.00000000000E+00 0. -1.
        -15    1    1    2    0    0  0.25345841985E+02  0.21430736349E+02 -0.80322106695E+02  0.86928054846E+02  0.17770000000E+01 0.  1.
         15    1    1    2    0    0 -0.11754252966E+01 -0.60811549529E+01  0.14854648496E+02  0.16191985089E+02  0.17770000000E+01 0. -1.
</event>
<event>
 6    1  0.2408691E-003  0.5153085E+03  0.7546771E-02  0.9366193E-01
        -11   -1    0    0    0    0  0.00000000000E+00  0.00000000000E+00  0.50000000000E+03  0.50000000000E+03  0.00000000000E+00 0. -1.
         11   -1    0    0    0    0 -0.00000000000E+00 -0.00000000000E+00 -0.50000000000E+03  0.50000000000E+03  0.00000000000E+00 0.  1.
        -11    1    1    2    0    0 -0.19507392777E+02 -0.10604645511E+02  0.48418268506E+03  0.48469151983E+03  0.00000000000E+00 0. -1.
         11    1    1    2    0    0  0.15458761061E+02 -0.58632109060E+02 -0.26598713688E+03  0.27281102340E+03  0.00000000000E+00 0.  1.
        -15    1    1    2    0    0  0.33180331543E+02  0.48951756153E+02 -0.18360156640E+03  0.19289868259E+03  0.17770000000E+01 0. -1.
         15    1    1    2    0    0 -0.29131699827E+02  0.20284998418E+02 -0.34593981779E+02  0.49598774178E+02  0.17770000000E+01 0.  1.
</event>
<event>
 6    1  0.2408691E-003  0.5011111E+03  0.7546771E-02  0.9397327E-01
        -11   -1    0    0    0    0  0.00000000000E+00  0.00000000000E+00  0.50000000000E+03  0.50000000000E+03  0.00000000000E+00 0. -1.
         11   -1    0    0    0    0 -0.00000000000E+00 -0.00000000000E+00 -0.50000000000E+03  0.50000000000E+03  0.00000000000E+00 0. -1.
        -11    1    1    2    0    0 -0.37899314197E+01  0.24967960138E+01  0.96215202509E+02  0.96322182099E+02  0.00000000000E+00 0. -1.
         11    1    1    2    0    0  0.28585532942E+00  0.18546283621E+02 -0.49854398688E+03  0.49888891870E+03  0.00000000000E+00 0. -1.
        -15    1    1    2    0    0  0.17765830495E+02 -0.14394941778E+02  0.32754605228E+03  0.32834800620E+03  0.17770000000E+01 0. -1.
         15    1    1    2    0    0 -0.14261754404E+02 -0.66481378571E+01  0.74782732086E+02  0.76440893001E+02  0.17770000000E+01 0.  1.
</event>
<event>
 6    1  0.2408691E-003  0.5129136E+03  0.7546771E-02  0.9371369E-01
        -11   -1    0    0    0    0  0.00000000000E+00  0.00000000000E+00  0.50000000000E+03  0.50000000000E+03  0.00000000000E+00 0. -1.
         11   -1    0    0    0    0 -0.00000000000E+00 -0.00000000000E+00 -0.50000000000E+03  0.50000000000E+03  0.00000000000E+00 0.  1.
        -11    1    1    2    0    0  0.19452962571E+02  0.32425894481E+02  0.48561637293E+03  0.48708635584E+03  0.00000000000E+00 0. -1.
         11    1    1    2    0    0  0.42729312280E+01  0.15344627040E+02 -0.33858992174E+03  0.33896437958E+03  0.00000000000E+00 0.  1.
        -15    1    1    2    0    0 -0.28420145633E+01 -0.56806939076E+01 -0.11905724560E+03  0.11923981209E+03  0.17770000000E+01 0.  1.
         15    1    1    2    0    0 -0.20883879236E+02 -0.42089827614E+02 -0.27969205595E+02  0.54709452484E+02  0.17770000000E+01 0. -1.
</event>
<event>
 6    1  0.2408691E-003  0.5001145E+03  0.7546771E-02  0.9399553E-01
        -11   -1    0    0    0    0  0.00000000000E+00  0.00000000000E+00  0.50000000000E+03  0.50000000000E+03  0.00000000000E+00 0.  1.
         11   -1    0    0    0    0 -0.00000000000E+00 -0.00000000000E+00 -0.50000000000E+03  0.50000000000E+03  0.00000000000E+00 0.  1.
        -11    1    1    2    0    0 -0.92756213858E+00  0.18230522589E+01  0.32534498240E+02  0.32598734128E+02  0.00000000000E+00 0.  1.
         11    1    1    2    0    0 -0.96308055355E+01 -0.32316847622E+01 -0.49978223847E+03  0.49988546897E+03  0.00000000000E+00 0.  1.
        -15    1    1    2    0    0  0.45367556895E+01  0.23981043648E+01  0.37922788985E+03  0.37926677053E+03  0.17770000000E+01 0.  1.
         15    1    1    2    0    0  0.60216119845E+01 -0.98947186147E+00  0.88019850377E+02  0.88249026367E+02  0.17770000000E+01 0. -1.
</event>
<event>
 6    1  0.2408691E-003  0.5000977E+03  0.7546771E-02  0.9399591E-01
        -11   -1    0    0    0    0  0.00000000000E+00  0.00000000000E+00  0.50000000000E+03  0.50000000000E+03  0.00000000000E+00 0.  1.
         11   -1    0    0    0    0 -0.00000000000E+00 -0.00000000000E+00 -0.50000000000E+03  0.50000000000E+03  0.00000000000E+00 0. -1.
        -11    1    1    2    0    0  0.72926088969E+01  0.28988064312E+02  0.49900782069E+03  0.49990228558E+03  0.00000000000E+00 0.  1.
         11    1    1    2    0    0  0.64398037371E+00  0.10370436271E+00 -0.13954187815E+02  0.13969424573E+02  0.00000000000E+00 0. -1.
        -15    1    1    2    0    0 -0.81579286803E+01 -0.21348004541E+02 -0.41343384152E+03  0.41406882054E+03  0.17770000000E+01 0. -1.
         15    1    1    2    0    0  0.22133940971E+00 -0.77437641335E+01 -0.71619791356E+02  0.72059469308E+02  0.17770000000E+01 0.  1.
</event>
<event>
 6    1  0.2408691E-003  0.4784136E+03  0.7546771E-02  0.9449450E-01
        -11   -1    0    0    0    0  0.00000000000E+00  0.00000000000E+00  0.50000000000E+03  0.50000000000E+03  0.00000000000E+00 0.  1.
         11   -1    0    0    0    0 -0.00000000000E+00 -0.00000000000E+00 -0.50000000000E+03  0.50000000000E+03  0.00000000000E+00 0.  1.
        -11    1    1    2    0    0  0.81889231399E+01 -0.18521158591E+01  0.48200611312E+03  0.48207922780E+03  0.00000000000E+00 0.  1.
         11    1    1    2    0    0  0.12309060113E+02 -0.46967318866E+01 -0.47483410143E+03  0.47501683774E+03  0.00000000000E+00 0.  1.
        -15    1    1    2    0    0  0.34110106271E+00  0.76145765888E+00  0.13076845839E+02  0.13223380573E+02  0.17770000000E+01 0. -1.
         15    1    1    2    0    0 -0.20839084316E+02  0.57873900869E+01 -0.20248857521E+02  0.29680553887E+02  0.17770000000E+01 0.  1.
</event>
<event>
 6    1  0.2408691E-003  0.5892126E+03  0.7546771E-02  0.9219711E-01
        -11   -1    0    0    0    0  0.00000000000E+00  0.00000000000E+00  0.50000000000E+03  0.50000000000E+03  0.00000000000E+00 0.  1.
         11   -1    0    0    0    0 -0.00000000000E+00 -0.00000000000E+00 -0.50000000000E+03  0.50000000000E+03  0.00000000000E+00 0. -1.
        -11    1    1    2    0    0 -0.86727359373E+01  0.67036842444E+01  0.26673491366E+03  0.26696005300E+03  0.00000000000E+00 0.  1.
         11    1    1    2    0    0 -0.90614354056E+01 -0.19072037621E+02 -0.41024436037E+03  0.41078739933E+03  0.00000000000E+00 0. -1.
        -15    1    1    2    0    0  0.65176396507E+01 -0.29885150021E+02  0.22643171692E+03  0.22849525591E+03  0.17770000000E+01 0.  1.
         15    1    1    2    0    0  0.11216531692E+02  0.42253503398E+02 -0.82922270210E+02  0.93757291761E+02  0.17770000000E+01 0. -1.
</event>
<event>
 6    1  0.2408691E-003  0.3665102E+03  0.7546771E-02  0.9760881E-01
        -11   -1    0    0    0    0  0.00000000000E+00  0.00000000000E+00  0.50000000000E+03  0.50000000000E+03  0.00000000000E+00 0.  1.
         11   -1    0    0    0    0 -0.00000000000E+00 -0.00000000000E+00 -0.50000000000E+03  0.50000000000E+03  0.00000000000E+00 0.  1.
        -11    1    1    2    0    0 -0.21877444126E+02  0.42239346785E+02  0.40100341617E+03  0.40381496351E+03  0.00000000000E+00 0.  1.
         11    1    1    2    0    0  0.61741781753E+01  0.55675387097E+02 -0.33422890285E+03  0.33889058515E+03  0.00000000000E+00 0.  1.
        -15    1    1    2    0    0 -0.65088293784E+01 -0.87157026817E+02 -0.14827202874E+03  0.17212339881E+03  0.17770000000E+01 0.  1.
         15    1    1    2    0    0  0.22212095329E+02 -0.10757707065E+02  0.81497515415E+02  0.85171052524E+02  0.17770000000E+01 0. -1.
</event>
<event>
 6    1  0.2408691E-003  0.5092508E+03  0.7546771E-02  0.9379345E-01
        -11   -1    0    0    0    0  0.00000000000E+00  0.00000000000E+00  0.50000000000E+03  0.50000000000E+03  0.00000000000E+00 0. -1.
         11   -1    0    0    0    0 -0.00000000000E+00 -0.00000000000E+00 -0.50000000000E+03  0.50000000000E+03  0.00000000000E+00 0. -1.
        -11    1    1    2    0    0  0.20089598190E+02 -0.15964480065E+01  0.49033518283E+03  0.49074915397E+03  0.00000000000E+00 0. -1.
         11    1    1    2    0    0  0.14723897540E+02  0.23092322599E+02 -0.43593699381E+03  0.43679641836E+03  0.00000000000E+00 0. -1.
        -15    1    1    2    0    0 -0.24394579699E+02 -0.76994437444E+01 -0.15788221216E+02  0.30113163415E+02  0.17770000000E+01 0. -1.
         15    1    1    2    0    0 -0.10418916031E+02 -0.13796430848E+02 -0.38609967803E+02  0.42341264249E+02  0.17770000000E+01 0.  1.
</event>
<event>
 6    1  0.2408691E-003  0.5239312E+03  0.7546771E-02  0.9347799E-01
        -11   -1    0    0    0    0  0.00000000000E+00  0.00000000000E+00  0.50000000000E+03  0.50000000000E+03  0.00000000000E+00 0. -1.
         11   -1    0    0    0    0 -0.00000000000E+00 -0.00000000000E+00 -0.50000000000E+03  0.50000000000E+03  0.00000000000E+00 0.  1.
        -11    1    1    2    0    0  0.34099300289E+01  0.24853473980E+02  0.39205610041E+03  0.39285787336E+03  0.00000000000E+00 0. -1.
         11    1    1    2    0    0  0.21866375486E+02 -0.15276790406E+02 -0.47532096860E+03  0.47606884154E+03  0.00000000000E+00 0.  1.
        -15    1    1    2    0    0  0.13774078891E+02  0.26511882926E+02 -0.26214791602E+01  0.30043885693E+02  0.17770000000E+01 0.  1.
         15    1    1    2    0    0 -0.39050384406E+02 -0.36088566500E+02  0.85886347341E+02  0.10102939940E+03  0.17770000000E+01 0. -1.
</event>
<event>
 6    1  0.2408691E-003  0.5078342E+03  0.7546771E-02  0.9382449E-01
        -11   -1    0    0    0    0  0.00000000000E+00  0.00000000000E+00  0.50000000000E+03  0.50000000000E+03  0.00000000000E+00 0. -1.
         11   -1    0    0    0    0 -0.00000000000E+00 -0.00000000000E+00 -0.50000000000E+03  0.50000000000E+03  0.00000000000E+00 0. -1.
        -11    1    1    2    0    0  0.73083276160E+01 -0.10354038025E+02  0.45351856132E+03  0.45369560634E+03  0.00000000000E+00 0. -1.
         11    1    1    2    0    0  0.20310166232E+01 -0.79482609703E+01 -0.49209743377E+03  0.49216580966E+03  0.00000000000E+00 0. -1.
        -15    1    1    2    0    0  0.23040218358E+01  0.93984165268E+01  0.38117126483E+02  0.39366379185E+02  0.17770000000E+01 0.  1.
         15    1    1    2    0    0 -0.11643366075E+02  0.89038824689E+01  0.46174596818E+00  0.14772204809E+02  0.17770000000E+01 0. -1.
</event>
<event>
 6    1  0.2408691E-003  0.5005947E+03  0.7546771E-02  0.9398480E-01
        -11   -1    0    0    0    0  0.00000000000E+00  0.00000000000E+00  0.50000000000E+03  0.50000000000E+03  0.00000000000E+00 0. -1.
         11   -1    0    0    0    0 -0.00000000000E+00 -0.00000000000E+00 -0.50000000000E+03  0.50000000000E+03  0.00000000000E+00 0.  1.
        -11    1    1    2    0    0 -0.86379013997E+01 -0.33556260367E+01  0.49931927857E+03  0.49940526180E+03  0.00000000000E+00 0. -1.
         11    1    1    2    0    0  0.17199846230E+01  0.39665803113E+01 -0.25534541397E+03  0.25538201296E+03  0.00000000000E+00 0.  1.
        -15    1    1    2    0    0  0.55456235858E+01  0.10442633299E+02 -0.16563920081E+03  0.16607018126E+03  0.17770000000E+01 0.  1.
         15    1    1    2    0    0  0.13722931908E+01 -0.11053587573E+02 -0.78334663790E+02  0.79142543976E+02  0.17770000000E+01 0. -1.
</event>
<event>
 6    1  0.2408691E-003  0.5027635E+03  0.7546771E-02  0.9393647E-01
        -11   -1    0    0    0    0  0.00000000000E+00  0.00000000000E+00  0.50000000000E+03  0.50000000000E+03  0.00000000000E+00 0.  1.
         11   -1    0    0    0    0 -0.00000000000E+00 -0.00000000000E+00 -0.50000000000E+03  0.50000000000E+03  0.00000000000E+00 0.  1.
        -11    1    1    2    0    0  0.82152773631E+01 -0.45307073862E+01  0.49714802977E+03  0.49723654491E+03  0.00000000000E+00 0.  1.
         11    1    1    2    0    0 -0.11396339846E+01 -0.78347969271E+01 -0.44285417282E+03  0.44292493856E+03  0.00000000000E+00 0.  1.
        -15    1    1    2    0    0 -0.56452804980E+01  0.33931500462E+01 -0.48367657837E+02  0.48846399179E+02  0.17770000000E+01 0.  1.
         15    1    1    2    0    0 -0.14303628805E+01  0.89723542672E+01 -0.59261991070E+01  0.10992117354E+02  0.17770000000E+01 0. -1.
</event>
<event>
 6    1  0.2408691E-003  0.5029896E+03  0.7546771E-02  0.9393145E-01
        -11   -1    0    0    0    0  0.00000000000E+00  0.00000000000E+00  0.50000000000E+03  0.50000000000E+03  0.00000000000E+00 0. -1.
         11   -1    0    0    0    0 -0.00000000000E+00 -0.00000000000E+00 -0.50000000000E+03  0.50000000000E+03  0.00000000000E+00 0. -1.
        -11    1    1    2    0    0  0.88218275731E+01 -0.57205570682E+00  0.49693173475E+03  0.49701036296E+03  0.00000000000E+00 0. -1.
         11    1    1    2    0    0 -0.45345685223E+01 -0.50313890326E+01 -0.45035318038E+03  0.45040411218E+03  0.00000000000E+00 0. -1.
        -15    1    1    2    0    0  0.25312810063E+01  0.90352047662E+01 -0.60474893020E+01  0.11303635015E+02  0.17770000000E+01 0.  1.
         15    1    1    2    0    0 -0.68185400571E+01 -0.34317600269E+01 -0.40531065061E+02  0.41281889848E+02  0.17770000000E+01 0. -1.
</event>
<event>
 6    1  0.2408691E-003  0.5047159E+03  0.7546771E-02  0.9389319E-01
        -11   -1    0    0    0    0  0.00000000000E+00  0.00000000000E+00  0.50000000000E+03  0.50000000000E+03  0.00000000000E+00 0. -1.
         11   -1    0    0    0    0 -0.00000000000E+00 -0.00000000000E+00 -0.50000000000E+03  0.50000000000E+03  0.00000000000E+00 0. -1.
        -11    1    1    2    0    0 -0.35733942558E+00  0.66196427555E+01  0.43405784341E+03  0.43410846432E+03  0.00000000000E+00 0. -1.
         11    1    1    2    0    0  0.20131791082E+01 -0.71319485097E+01 -0.49522860822E+03  0.49528405181E+03  0.00000000000E+00 0. -1.
        -15    1    1    2    0    0 -0.15074432574E+02  0.34699812305E+00  0.11284161683E+02  0.18916896125E+02  0.17770000000E+01 0. -1.
         15    1    1    2    0    0  0.13418592891E+02  0.16530763109E+00  0.49886603121E+02  0.51690587748E+02  0.17770000000E+01 0.  1.
</event>
<event>
 6    1  0.2408691E-003  0.5052241E+03  0.7546771E-02  0.9388196E-01
        -11   -1    0    0    0    0  0.00000000000E+00  0.00000000000E+00  0.50000000000E+03  0.50000000000E+03  0.00000000000E+00 0.  1.
         11   -1    0    0    0    0 -0.00000000000E+00 -0.00000000000E+00 -0.50000000000E+03  0.50000000000E+03  0.00000000000E+00 0. -1.
        -11    1    1    2    0    0  0.90547768527E+01  0.21965579464E+01  0.49468816207E+03  0.49477590033E+03  0.00000000000E+00 0.  1.
         11    1    1    2    0    0  0.61768129323E+01  0.59374354666E+01 -0.42793362731E+03  0.42801938687E+03  0.00000000000E+00 0. -1.
        -15    1    1    2    0    0  0.98443725703E+01 -0.82723516982E+00 -0.78432968453E+01  0.12738564430E+02  0.17770000000E+01 0. -1.
         15    1    1    2    0    0 -0.25075962355E+02 -0.73067582432E+01 -0.58911237917E+02  0.64466148372E+02  0.17770000000E+01 0. -1.
</event>
<event>
 6    1  0.2408691E-003  0.5024685E+03  0.7546771E-02  0.9394303E-01
        -11   -1    0    0    0    0  0.00000000000E+00  0.00000000000E+00  0.50000000000E+03  0.50000000000E+03  0.00000000000E+00 0.  1.
         11   -1    0    0    0    0 -0.00000000000E+00 -0.00000000000E+00 -0.50000000000E+03  0.50000000000E+03  0.00000000000E+00 0.  1.
        -11    1    1    2    0    0  0.87025072038E+01 -0.69171044850E+01  0.49740726156E+03  0.49753147018E+03  0.00000000000E+00 0.  1.
         11    1    1    2    0    0 -0.63565676715E+01 -0.42320565517E+00 -0.44799660733E+03  0.44804190120E+03  0.00000000000E+00 0.  1.
        -15    1    1    2    0    0 -0.80411594557E+01  0.63660075770E+01 -0.96009936479E+01  0.14160618132E+02  0.17770000000E+01 0.  1.
         15    1    1    2    0    0  0.56952199234E+01  0.97430256318E+00 -0.39809660583E+02  0.40266010483E+02  0.17770000000E+01 0. -1.
</event>
<event>
 6    1  0.2408691E-003  0.5013747E+03  0.7546771E-02  0.9396739E-01
        -11   -1    0    0    0    0  0.00000000000E+00  0.00000000000E+00  0.50000000000E+03  0.50000000000E+03  0.00000000000E+00 0. -1.
         11   -1    0    0    0    0 -0.00000000000E+00 -0.00000000000E+00 -0.50000000000E+03  0.50000000000E+03  0.00000000000E+00 0. -1.
        -11    1    1    2    0    0  0.44489559168E+01  0.20613270203E+01  0.34896342060E+03  0.34899786703E+03  0.00000000000E+00 0. -1.
         11    1    1    2    0    0 -0.25630393702E+01 -0.80715533519E+01 -0.49855339691E+03  0.49862531897E+03  0.00000000000E+00 0. -1.
        -15    1    1    2    0    0 -0.10291580089E+02  0.13260387223E+00  0.21899433687E+02  0.24262669460E+02  0.17770000000E+01 0.  1.
         15    1    1    2    0    0  0.84056635420E+01  0.58776224594E+01  0.12769054263E+03  0.12811414454E+03  0.17770000000E+01 0. -1.
</event>
<event>
 6    1  0.2408691E-003  0.5308137E+03  0.7546771E-02  0.9333384E-01
        -11   -1    0    0    0    0  0.00000000000E+00  0.00000000000E+00  0.50000000000E+03  0.50000000000E+03  0.00000000000E+00 0.  1.
         11   -1    0    0    0    0 -0.00000000000E+00 -0.00000000000E+00 -0.50000000000E+03  0.50000000000E+03  0.00000000000E+00 0.  1.
        -11    1    1    2    0    0 -0.76697404982E+01 -0.81798276063E+01  0.43525441619E+03  0.43539883017E+03  0.00000000000E+00 0.  1.
         11    1    1    2    0    0 -0.29866116676E+01  0.79407192763E+01 -0.46910958498E+03  0.46918629306E+03  0.00000000000E+00 0.  1.
        -15    1    1    2    0    0  0.95911738614E+01 -0.18691061090E+02 -0.25495697667E+02  0.33083752949E+02  0.17770000000E+01 0. -1.
         15    1    1    2    0    0  0.10651783044E+01  0.18930169420E+02  0.59350866460E+02  0.62331123828E+02  0.17770000000E+01 0.  1.
</event>
<event>
 6    1  0.2408691E-003  0.5008199E+03  0.7546771E-02  0.9397977E-01
        -11   -1    0    0    0    0  0.00000000000E+00  0.00000000000E+00  0.50000000000E+03  0.50000000000E+03  0.00000000000E+00 0. -1.
         11   -1    0    0    0    0 -0.00000000000E+00 -0.00000000000E+00 -0.50000000000E+03  0.50000000000E+03  0.00000000000E+00 0.  1.
        -11    1    1    2    0    0 -0.62571596003E+01  0.82433306618E+00  0.89150650767E+02  0.89373766304E+02  0.00000000000E+00 0. -1.
         11    1    1    2    0    0 -0.11275445034E+02 -0.17337360126E+02 -0.49875152169E+03  0.49918012791E+03  0.00000000000E+00 0.  1.
        -15    1    1    2    0    0  0.22588779065E+02  0.13412657937E+01  0.22260430830E+03  0.22375854785E+03  0.17770000000E+01 0. -1.
         15    1    1    2    0    0 -0.50561744315E+01  0.15171761266E+02  0.18699656262E+03  0.18768755793E+03  0.17770000000E+01 0.  1.
</event>
<event>
 6    1  0.2408691E-003  0.5015285E+03  0.7546771E-02  0.9396396E-01
        -11   -1    0    0    0    0  0.00000000000E+00  0.00000000000E+00  0.50000000000E+03  0.50000000000E+03  0.00000000000E+00 0.  1.
         11   -1    0    0    0    0 -0.00000000000E+00 -0.00000000000E+00 -0.50000000000E+03  0.50000000000E+03  0.00000000000E+00 0. -1.
        -11    1    1    2    0    0 -0.12195278711E+02  0.66945644982E+01  0.49827736500E+03  0.49847153829E+03  0.00000000000E+00 0.  1.
         11    1    1    2    0    0  0.12779877964E+01  0.67233569958E+01 -0.44804001932E+03  0.44809228479E+03  0.00000000000E+00 0. -1.
        -15    1    1    2    0    0  0.32696428423E+01 -0.33818522822E+01 -0.20024254347E+02  0.20645967653E+02  0.17770000000E+01 0.  1.
         15    1    1    2    0    0  0.76476480721E+01 -0.10036069212E+02 -0.30213091335E+02  0.32790209260E+02  0.17770000000E+01 0. -1.
</event>
<event>
 6    1  0.2408691E-003  0.2463595E+03  0.7546771E-02  0.1026609E+00
        -11   -1    0    0    0    0  0.00000000000E+00  0.00000000000E+00  0.50000000000E+03  0.50000000000E+03  0.00000000000E+00 0.  1.
         11   -1    0    0    0    0 -0.00000000000E+00 -0.00000000000E+00 -0.50000000000E+03  0.50000000000E+03  0.00000000000E+00 0. -1.
        -11    1    1    2    0    0  0.21898742134E+01  0.44994888083E+02  0.27084194217E+03  0.27456273080E+03  0.00000000000E+00 0.  1.
         11    1    1    2    0    0  0.56813660532E+02  0.85498236019E+01 -0.29399050460E+03  0.29955184577E+03  0.00000000000E+00 0. -1.
        -15    1    1    2    0    0  0.48760769195E+02 -0.24683640398E+02  0.20520101905E+03  0.21236174482E+03  0.17770000000E+01 0.  1.
         15    1    1    2    0    0 -0.10776430394E+03 -0.28861071287E+02 -0.18205245662E+03  0.21352367862E+03  0.17770000000E+01 0. -1.
</event>
<event>
 6    1  0.2408691E-003  0.5003256E+03  0.7546771E-02  0.9399081E-01
        -11   -1    0    0    0    0  0.00000000000E+00  0.00000000000E+00  0.50000000000E+03  0.50000000000E+03  0.00000000000E+00 0. -1.
         11   -1    0    0    0    0 -0.00000000000E+00 -0.00000000000E+00 -0.50000000000E+03  0.50000000000E+03  0.00000000000E+00 0.  1.
        -11    1    1    2    0    0  0.24239652283E+01 -0.67845731622E+00  0.18412042977E+03  0.18413763485E+03  0.00000000000E+00 0. -1.
         11    1    1    2    0    0 -0.71530841987E+01 -0.29332233586E+01 -0.49961460121E+03  0.49967441415E+03  0.00000000000E+00 0.  1.
        -15    1    1    2    0    0  0.73271516779E+01  0.46898535597E+00  0.43068479245E+02  0.43725950332E+02  0.17770000000E+01 0. -1.
         15    1    1    2    0    0 -0.25980327075E+01  0.31426953189E+01  0.27242569220E+03  0.27246200066E+03  0.17770000000E+01 0.  1.
</event>
<event>
 6    1  0.2408691E-003  0.5025318E+03  0.7546771E-02  0.9394162E-01
        -11   -1    0    0    0    0  0.00000000000E+00  0.00000000000E+00  0.50000000000E+03  0.50000000000E+03  0.00000000000E+00 0. -1.
         11   -1    0    0    0    0 -0.00000000000E+00 -0.00000000000E+00 -0.50000000000E+03  0.50000000000E+03  0.00000000000E+00 0.  1.
        -11    1    1    2    0    0 -0.14066096802E+02  0.26747039519E+01  0.49726205483E+03  0.49746815003E+03  0.00000000000E+00 0. -1.
         11    1    1    2    0    0 -0.52800966904E+01  0.31206739437E-01 -0.36286833518E+03  0.36290674983E+03  0.00000000000E+00 0.  1.
        -15    1    1    2    0    0 -0.68052828100E+00  0.81463664822E+00 -0.97010123860E+02  0.97032203994E+02  0.17770000000E+01 0. -1.
         15    1    1    2    0    0  0.20026721773E+02 -0.35205473395E+01 -0.37383595793E+02  0.42592896145E+02  0.17770000000E+01 0.  1.
</event>
<event>
 6    1  0.2408691E-003  0.5112859E+03  0.7546771E-02  0.9374905E-01
        -11   -1    0    0    0    0  0.00000000000E+00  0.00000000000E+00  0.50000000000E+03  0.50000000000E+03  0.00000000000E+00 0. -1.
         11   -1    0    0    0    0 -0.00000000000E+00 -0.00000000000E+00 -0.50000000000E+03  0.50000000000E+03  0.00000000000E+00 0.  1.
        -11    1    1    2    0    0 -0.87107089866E+01 -0.21601059425E+01  0.20054128551E+03  0.20074199786E+03  0.00000000000E+00 0. -1.
         11    1    1    2    0    0  0.99346917782E+01  0.74183077653E+01 -0.48855677122E+03  0.48871407601E+03  0.00000000000E+00 0.  1.
        -15    1    1    2    0    0  0.69588717236E+01 -0.21992544702E+02  0.12508184391E+01  0.23169380525E+02  0.17770000000E+01 0.  1.
         15    1    1    2    0    0 -0.81828545153E+01  0.16734342879E+02  0.28676466727E+03  0.28737454560E+03  0.17770000000E+01 0. -1.
</event>
<event>
 6    1  0.2408691E-003  0.5002426E+03  0.7546771E-02  0.9399267E-01
        -11   -1    0    0    0    0  0.00000000000E+00  0.00000000000E+00  0.50000000000E+03  0.50000000000E+03  0.00000000000E+00 0. -1.
         11   -1    0    0    0    0 -0.00000000000E+00 -0.00000000000E+00 -0.50000000000E+03  0.50000000000E+03  0.00000000000E+00 0.  1.
        -11    1    1    2    0    0  0.73743343144E+01 -0.19912442313E+01  0.49969904491E+03  0.49975742250E+03  0.00000000000E+00 0. -1.
         11    1    1    2    0    0 -0.37753356769E+01  0.42489992472E+01 -0.25632362249E+03  0.25638663499E+03  0.00000000000E+00 0.  1.
        -15    1    1    2    0    0  0.25840494491E+00 -0.32391125538E+01 -0.22247446709E+03  0.22250529176E+03  0.17770000000E+01 0.  1.
         15    1    1    2    0    0 -0.38574035825E+01  0.98135753789E+00 -0.20900955331E+02  0.21350650757E+02  0.17770000000E+01 0. -1.
</event>
<event>
 6    1  0.2408691E-003  0.5018840E+03  0.7546771E-02  0.9395604E-01
        -11   -1    0    0    0    0  0.00000000000E+00  0.00000000000E+00  0.50000000000E+03  0.50000000000E+03  0.00000000000E+00 0.  1.
         11   -1    0    0    0    0 -0.00000000000E+00 -0.00000000000E+00 -0.50000000000E+03  0.50000000000E+03  0.00000000000E+00 0.  1.
        -11    1    1    2    0    0  0.31244669710E+01 -0.11722933907E+02  0.30381487584E+03  0.30405701481E+03  0.00000000000E+00 0.  1.
         11    1    1    2    0    0  0.48987527397E+01  0.94999039822E+01 -0.49800126789E+03  0.49811595917E+03  0.00000000000E+00 0.  1.
        -15    1    1    2    0    0 -0.11708877373E+02  0.17448236958E+02  0.88902969763E+02  0.91369768217E+02  0.17770000000E+01 0.  1.
         15    1    1    2    0    0  0.36856576624E+01 -0.15225207033E+02  0.10528342229E+03  0.10645725781E+03  0.17770000000E+01 0. -1.
</event>
<event>
 6    1  0.2408691E-003  0.5146947E+03  0.7546771E-02  0.9367516E-01
        -11   -1    0    0    0    0  0.00000000000E+00  0.00000000000E+00  0.50000000000E+03  0.50000000000E+03  0.00000000000E+00 0.  1.
         11   -1    0    0    0    0 -0.00000000000E+00 -0.00000000000E+00 -0.50000000000E+03  0.50000000000E+03  0.00000000000E+00 0.  1.
        -11    1    1    2    0    0 -0.26477117343E+00 -0.72600879885E+01  0.48525091254E+03  0.48530529268E+03  0.00000000000E+00 0.  1.
         11    1    1    2    0    0 -0.77346386680E+01  0.86087731868E+01 -0.47169305321E+03  0.47183500512E+03  0.00000000000E+00 0.  1.
        -15    1    1    2    0    0  0.55092837760E+01 -0.15851525629E+01  0.13947334769E+02  0.15183899121E+02  0.17770000000E+01 0.  1.
         15    1    1    2    0    0  0.24901260654E+01  0.23646736472E+00 -0.27505194098E+02  0.27675803078E+02  0.17770000000E+01 0. -1.
</event>
<event>
 6    1  0.2408691E-003  0.5040632E+03  0.7546771E-02  0.9390764E-01
        -11   -1    0    0    0    0  0.00000000000E+00  0.00000000000E+00  0.50000000000E+03  0.50000000000E+03  0.00000000000E+00 0. -1.
         11   -1    0    0    0    0 -0.00000000000E+00 -0.00000000000E+00 -0.50000000000E+03  0.50000000000E+03  0.00000000000E+00 0. -1.
        -11    1    1    2    0    0 -0.42164998043E+02 -0.19430715005E+02  0.49375888376E+03  0.49593676516E+03  0.00000000000E+00 0. -1.
         11    1    1    2    0    0  0.34676314726E+01 -0.15324720101E+01 -0.24988366931E+03  0.24991242691E+03  0.00000000000E+00 0. -1.
        -15    1    1    2    0    0  0.25338764880E+02 -0.11523435388E+02 -0.51322096151E+02  0.58411966678E+02  0.17770000000E+01 0.  1.
         15    1    1    2    0    0  0.13358601690E+02  0.32486622403E+02 -0.19255311830E+03  0.19573884124E+03  0.17770000000E+01 0. -1.
</event>
<event>
 6    1  0.2408691E-003  0.5024361E+03  0.7546771E-02  0.9394375E-01
        -11   -1    0    0    0    0  0.00000000000E+00  0.00000000000E+00  0.50000000000E+03  0.50000000000E+03  0.00000000000E+00 0.  1.
         11   -1    0    0    0    0 -0.00000000000E+00 -0.00000000000E+00 -0.50000000000E+03  0.50000000000E+03  0.00000000000E+00 0.  1.
        -11    1    1    2    0    0 -0.11075852985E+02  0.26976210526E+01  0.49743328427E+03  0.49756388935E+03  0.00000000000E+00 0.  1.
         11    1    1    2    0    0  0.53372624911E+01  0.71338599283E+01 -0.44947401915E+03  0.44956231184E+03  0.00000000000E+00 0.  1.
        -15    1    1    2    0    0 -0.29911261168E+01 -0.10081621849E+02 -0.38184879262E+02  0.39646294502E+02  0.17770000000E+01 0. -1.
         15    1    1    2    0    0  0.87297166106E+01  0.25014086778E+00 -0.97743858566E+01  0.13227504316E+02  0.17770000000E+01 0.  1.
</event>
<event>
 6    1  0.2408691E-003  0.5041248E+03  0.7546771E-02  0.9390627E-01
        -11   -1    0    0    0    0  0.00000000000E+00  0.00000000000E+00  0.50000000000E+03  0.50000000000E+03  0.00000000000E+00 0. -1.
         11   -1    0    0    0    0 -0.00000000000E+00 -0.00000000000E+00 -0.50000000000E+03  0.50000000000E+03  0.00000000000E+00 0.  1.
        -11    1    1    2    0    0 -0.16502259086E+02  0.59450427071E+01  0.33652379736E+03  0.33698061410E+03  0.00000000000E+00 0. -1.
         11    1    1    2    0    0  0.60215720103E+01 -0.85135364199E+01 -0.49576557092E+03  0.49587522719E+03  0.00000000000E+00 0.  1.
        -15    1    1    2    0    0 -0.22461811834E+01  0.15711127580E+02  0.15578939502E+02  0.22310220635E+02  0.17770000000E+01 0.  1.
         15    1    1    2    0    0  0.12726868259E+02 -0.13142633867E+02  0.14366283406E+03  0.14483393808E+03  0.17770000000E+01 0. -1.
</event>
<event>
 6    1  0.2408691E-003  0.5240647E+03  0.7546771E-02  0.9347517E-01
        -11   -1    0    0    0    0  0.00000000000E+00  0.00000000000E+00  0.50000000000E+03  0.50000000000E+03  0.00000000000E+00 0.  1.
         11   -1    0    0    0    0 -0.00000000000E+00 -0.00000000000E+00 -0.50000000000E+03  0.50000000000E+03  0.00000000000E+00 0.  1.
        -11    1    1    2    0    0  0.16176210343E+01  0.16713883052E+02  0.44668268760E+03  0.44699820356E+03  0.00000000000E+00 0.  1.
         11    1    1    2    0    0  0.17347287033E+02 -0.26701183350E+02 -0.47486899689E+03  0.47593533780E+03  0.00000000000E+00 0.  1.
        -15    1    1    2    0    0  0.69288696437E+01 -0.86133643258E+01  0.41118402406E+02  0.42615490435E+02  0.17770000000E+01 0.  1.
         15    1    1    2    0    0 -0.25893777711E+02  0.18600664624E+02 -0.12932093121E+02  0.34450968202E+02  0.17770000000E+01 0. -1.
</event>
<event>
 6    1  0.2408691E-003  0.5015034E+03  0.7546771E-02  0.9396452E-01
        -11   -1    0    0    0    0  0.00000000000E+00  0.00000000000E+00  0.50000000000E+03  0.50000000000E+03  0.00000000000E+00 0.  1.
         11   -1    0    0    0    0 -0.00000000000E+00 -0.00000000000E+00 -0.50000000000E+03  0.50000000000E+03  0.00000000000E+00 0. -1.
        -11    1    1    2    0    0 -0.72999776774E+01  0.10176823435E+02  0.49833922940E+03  0.49849658471E+03  0.00000000000E+00 0.  1.
         11    1    1    2    0    0 -0.10837790948E+02  0.80268445993E+01 -0.35698426570E+03  0.35723893111E+03  0.00000000000E+00 0. -1.
        -15    1    1    2    0    0 -0.20252469945E+00 -0.65657360943E+01 -0.26475030141E+02  0.27335596878E+02  0.17770000000E+01 0. -1.
         15    1    1    2    0    0  0.18340293325E+02 -0.11637931940E+02 -0.11487993357E+03  0.11692888730E+03  0.17770000000E+01 0.  1.
</event>
<event>
 6    1  0.2408691E-003  0.5032774E+03  0.7546771E-02  0.9392506E-01
        -11   -1    0    0    0    0  0.00000000000E+00  0.00000000000E+00  0.50000000000E+03  0.50000000000E+03  0.00000000000E+00 0.  1.
         11   -1    0    0    0    0 -0.00000000000E+00 -0.00000000000E+00 -0.50000000000E+03  0.50000000000E+03  0.00000000000E+00 0. -1.
        -11    1    1    2    0    0 -0.75379267072E+01 -0.31566703419E+01  0.44194888209E+03  0.44202443291E+03  0.00000000000E+00 0.  1.
         11    1    1    2    0    0 -0.52332850993E+01  0.67818076493E+01 -0.49664871142E+03  0.49672258127E+03  0.00000000000E+00 0. -1.
        -15    1    1    2    0    0  0.69656229615E+01 -0.10131354933E+02  0.10802053081E+02  0.16462270068E+02  0.17770000000E+01 0.  1.
         15    1    1    2    0    0  0.58055888450E+01  0.65062176253E+01  0.43897776245E+02  0.44790715755E+02  0.17770000000E+01 0. -1.
</event>
<event>
 6    1  0.2408691E-003  0.4875922E+03  0.7546771E-02  0.9428009E-01
        -11   -1    0    0    0    0  0.00000000000E+00  0.00000000000E+00  0.50000000000E+03  0.50000000000E+03  0.00000000000E+00 0.  1.
         11   -1    0    0    0    0 -0.00000000000E+00 -0.00000000000E+00 -0.50000000000E+03  0.50000000000E+03  0.00000000000E+00 0.  1.
        -11    1    1    2    0    0 -0.66181489287E+01  0.23787439643E+01  0.48805338031E+03  0.48810404665E+03  0.00000000000E+00 0.  1.
         11    1    1    2    0    0  0.82613493712E+01 -0.16555174295E+01 -0.48700978198E+03  0.48708266072E+03  0.00000000000E+00 0.  1.
        -15    1    1    2    0    0  0.17998966380E+01 -0.32557304048E+01  0.11087440100E+02  0.11829136289E+02  0.17770000000E+01 0. -1.
         15    1    1    2    0    0 -0.34430970805E+01  0.25325038701E+01 -0.12131038433E+02  0.12984156339E+02  0.17770000000E+01 0.  1.
</event>
<event>
 6    1  0.2408691E-003  0.5048257E+03  0.7546771E-02  0.9389076E-01
        -11   -1    0    0    0    0  0.00000000000E+00  0.00000000000E+00  0.50000000000E+03  0.50000000000E+03  0.00000000000E+00 0.  1.
         11   -1    0    0    0    0 -0.00000000000E+00 -0.00000000000E+00 -0.50000000000E+03  0.50000000000E+03  0.00000000000E+00 0. -1.
        -11    1    1    2    0    0 -0.44990139758E+01  0.13211234931E+02  0.44967596364E+03  0.44989248730E+03  0.00000000000E+00 0.  1.
         11    1    1    2    0    0 -0.53242392673E+01 -0.69070724889E+01 -0.49509746981E+03  0.49517427214E+03  0.00000000000E+00 0. -1.
        -15    1    1    2    0    0  0.42105631344E+01 -0.54678256635E+01  0.47946338886E+02  0.48473034782E+02  0.17770000000E+01 0. -1.
         15    1    1    2    0    0  0.56126901087E+01 -0.83633677902E+00 -0.25248327141E+01  0.64602057783E+01  0.17770000000E+01 0.  1.
</event>
<event>
 6    1  0.2408691E-003  0.5224249E+03  0.7546771E-02  0.9350985E-01
        -11   -1    0    0    0    0  0.00000000000E+00  0.00000000000E+00  0.50000000000E+03  0.50000000000E+03  0.00000000000E+00 0. -1.
         11   -1    0    0    0    0 -0.00000000000E+00 -0.00000000000E+00 -0.50000000000E+03  0.50000000000E+03  0.00000000000E+00 0. -1.
        -11    1    1    2    0    0  0.22033850082E+02 -0.38553746473E+02  0.36364240842E+03  0.36634366805E+03  0.00000000000E+00 0. -1.
         11    1    1    2    0    0  0.17566192424E+01  0.63721257210E+01 -0.47752940051E+03  0.47757514387E+03  0.00000000000E+00 0. -1.
        -15    1    1    2    0    0 -0.84644241400E+01 -0.10017146530E+02 -0.14753686635E+02  0.19819654360E+02  0.17770000000E+01 0.  1.
         15    1    1    2    0    0 -0.15326045185E+02  0.42198767282E+02  0.12864067872E+03  0.13626153372E+03  0.17770000000E+01 0. -1.
</event>
<event>
 6    1  0.2408691E-003  0.5018443E+03  0.7546771E-02  0.9395692E-01
        -11   -1    0    0    0    0  0.00000000000E+00  0.00000000000E+00  0.50000000000E+03  0.50000000000E+03  0.00000000000E+00 0. -1.
         11   -1    0    0    0    0 -0.00000000000E+00 -0.00000000000E+00 -0.50000000000E+03  0.50000000000E+03  0.00000000000E+00 0. -1.
        -11    1    1    2    0    0  0.58002624215E+01  0.38848398653E+01  0.49810679049E+03  0.49815570834E+03  0.00000000000E+00 0. -1.
         11    1    1    2    0    0  0.18646231708E+01 -0.56304405709E+01 -0.43149694674E+03  0.43153770835E+03  0.00000000000E+00 0. -1.
        -15    1    1    2    0    0 -0.37992523917E+01 -0.30360152813E+01 -0.62469645521E+02  0.62683857955E+02  0.17770000000E+01 0. -1.
         15    1    1    2    0    0 -0.38656332006E+01  0.47816159869E+01 -0.41401982265E+01  0.76227253553E+01  0.17770000000E+01 0.  1.
</event>
<event>
 6    1  0.2408691E-003  0.5037477E+03  0.7546771E-02  0.9391463E-01
        -11   -1    0    0    0    0  0.00000000000E+00  0.00000000000E+00  0.50000000000E+03  0.50000000000E+03  0.00000000000E+00 0. -1.
         11   -1    0    0    0    0 -0.00000000000E+00 -0.00000000000E+00 -0.50000000000E+03  0.50000000000E+03  0.00000000000E+00 0.  1.
        -11    1    1    2    0    0  0.44718179648E+01  0.66171865352E+01  0.32430060911E+03  0.32439893554E+03  0.00000000000E+00 0. -1.
         11    1    1    2    0    0 -0.12226128961E+02 -0.33622642401E+01 -0.49609029271E+03  0.49625231643E+03  0.00000000000E+00 0.  1.
        -15    1    1    2    0    0 -0.13753085569E+01 -0.55018393341E+01  0.16937636480E+03  0.16948059592E+03  0.17770000000E+01 0.  1.
         15    1    1    2    0    0  0.91296195528E+01  0.22469170390E+01  0.24133187931E+01  0.98681521044E+01  0.17770000000E+01 0.  1.
</event>
<event>
 6    1  0.2408691E-003  0.5004411E+03  0.7546771E-02  0.9398823E-01
        -11   -1    0    0    0    0  0.00000000000E+00  0.00000000000E+00  0.50000000000E+03  0.50000000000E+03  0.00000000000E+00 0.  1.
         11   -1    0    0    0    0 -0.00000000000E+00 -0.00000000000E+00 -0.50000000000E+03  0.50000000000E+03  0.00000000000E+00 0. -1.
        -11    1    1    2    0    0  0.14145404582E+02  0.11957962733E+01  0.22748180282E+03  0.22792431423E+03  0.00000000000E+00 0.  1.
         11    1    1    2    0    0 -0.30267548038E+01 -0.69420366740E+01 -0.49950144723E+03  0.49955885430E+03  0.00000000000E+00 0. -1.
        -15    1    1    2    0    0  0.10385794529E+01  0.25641792239E+01  0.87169221109E+02  0.87231212878E+02  0.17770000000E+01 0. -1.
         15    1    1    2    0    0 -0.12157229231E+02  0.31820611768E+01  0.18485042330E+03  0.18528561860E+03  0.17770000000E+01 0.  1.
</event>
<event>
 6    1  0.2408691E-003  0.5011097E+03  0.7546771E-02  0.9397330E-01
        -11   -1    0    0    0    0  0.00000000000E+00  0.00000000000E+00  0.50000000000E+03  0.50000000000E+03  0.00000000000E+00 0.  1.
         11   -1    0    0    0    0 -0.00000000000E+00 -0.00000000000E+00 -0.50000000000E+03  0.50000000000E+03  0.00000000000E+00 0.  1.
        -11    1    1    2    0    0  0.43092366994E+01  0.19310850047E+01  0.31647987294E+03  0.31651510009E+03  0.00000000000E+00 0.  1.
         11    1    1    2    0    0 -0.63010271140E+01  0.11941587853E+02 -0.49870754840E+03  0.49889029184E+03  0.00000000000E+00 0.  1.
        -15    1    1    2    0    0  0.31890789930E+01 -0.13784074718E+02  0.42076474845E+02  0.44427000855E+02  0.17770000000E+01 0. -1.
         15    1    1    2    0    0 -0.11972885784E+01 -0.88598140061E-01  0.14015120061E+03  0.14016760721E+03  0.17770000000E+01 0. -1.
</event>
<event>
 6    1  0.2408691E-003  0.4872379E+03  0.7546771E-02  0.9428828E-01
        -11   -1    0    0    0    0  0.00000000000E+00  0.00000000000E+00  0.50000000000E+03  0.50000000000E+03  0.00000000000E+00 0.  1.
         11   -1    0    0    0    0 -0.00000000000E+00 -0.00000000000E+00 -0.50000000000E+03  0.50000000000E+03  0.00000000000E+00 0.  1.
        -11    1    1    2    0    0  0.17151785049E+01 -0.78656088012E+01  0.49804684139E+03  0.49811190094E+03  0.00000000000E+00 0.  1.
         11    1    1    2    0    0  0.27807765693E+01 -0.21694406345E+01 -0.28280566071E+02  0.28499642249E+02  0.00000000000E+00 0.  1.
        -15    1    1    2    0    0  0.53636169792E+01  0.31362371358E+02 -0.19221202617E+03  0.19483579614E+03  0.17770000000E+01 0.  1.
         15    1    1    2    0    0 -0.98595720534E+01 -0.21327321922E+02 -0.27755424914E+03  0.27855266067E+03  0.17770000000E+01 0. -1.
</event>
<event>
 6    1  0.2408691E-003  0.5028754E+03  0.7546771E-02  0.9393399E-01
        -11   -1    0    0    0    0  0.00000000000E+00  0.00000000000E+00  0.50000000000E+03  0.50000000000E+03  0.00000000000E+00 0.  1.
         11   -1    0    0    0    0 -0.00000000000E+00 -0.00000000000E+00 -0.50000000000E+03  0.50000000000E+03  0.00000000000E+00 0.  1.
        -11    1    1    2    0    0 -0.87785351590E+01  0.64654818672E-01  0.31674379847E+03  0.31686543000E+03  0.00000000000E+00 0.  1.
         11    1    1    2    0    0  0.66105620039E+01  0.21666148221E+01 -0.49707595964E+03  0.49712463568E+03  0.00000000000E+00 0.  1.
        -15    1    1    2    0    0  0.12368363269E+02  0.86582192567E+00  0.17175908893E+03  0.17221518056E+03  0.17770000000E+01 0.  1.
         15    1    1    2    0    0 -0.10200390114E+02 -0.30970915664E+01  0.85730722370E+01  0.13794753758E+02  0.17770000000E+01 0.  1.
</event>
<event>
 6    1  0.2408691E-003  0.5031147E+03  0.7546771E-02  0.9392867E-01
        -11   -1    0    0    0    0  0.00000000000E+00  0.00000000000E+00  0.50000000000E+03  0.50000000000E+03  0.00000000000E+00 0. -1.
         11   -1    0    0    0    0 -0.00000000000E+00 -0.00000000000E+00 -0.50000000000E+03  0.50000000000E+03  0.00000000000E+00 0. -1.
        -11    1    1    2    0    0  0.58431152531E+00  0.12337281007E+01  0.91252453512E+02  0.91262663652E+02  0.00000000000E+00 0. -1.
         11    1    1    2    0    0  0.11091111252E+02 -0.10558570126E+02 -0.49664927266E+03  0.49688529480E+03  0.00000000000E+00 0. -1.
        -15    1    1    2    0    0  0.14651103163E+02  0.32060660305E+02  0.25759277192E+03  0.25999948968E+03  0.17770000000E+01 0.  1.
         15    1    1    2    0    0 -0.26326525940E+02 -0.22735818280E+02  0.14780404723E+03  0.15185255186E+03  0.17770000000E+01 0. -1.
</event>
<event>
 6    1  0.2408691E-003  0.5027439E+03  0.7546771E-02  0.9393691E-01
        -11   -1    0    0    0    0  0.00000000000E+00  0.00000000000E+00  0.50000000000E+03  0.50000000000E+03  0.00000000000E+00 0.  1.
         11   -1    0    0    0    0 -0.00000000000E+00 -0.00000000000E+00 -0.50000000000E+03  0.50000000000E+03  0.00000000000E+00 0.  1.
        -11    1    1    2    0    0 -0.18991777508E+02 -0.38017588347E+01  0.49687875320E+03  0.49725610741E+03  0.00000000000E+00 0.  1.
         11    1    1    2    0    0 -0.69438891162E+01  0.38003160501E+01 -0.22765928515E+03  0.22779686151E+03  0.00000000000E+00 0.  1.
        -15    1    1    2    0    0  0.44095819454E+01  0.53271197024E+01 -0.22796460625E+03  0.22807639520E+03  0.17770000000E+01 0. -1.
         15    1    1    2    0    0  0.21526084679E+02 -0.53256769178E+01 -0.41254861791E+02  0.46870635867E+02  0.17770000000E+01 0.  1.
</event>
<event>
 6    1  0.2408691E-003  0.5096784E+03  0.7546771E-02  0.9378410E-01
        -11   -1    0    0    0    0  0.00000000000E+00  0.00000000000E+00  0.50000000000E+03  0.50000000000E+03  0.00000000000E+00 0.  1.
         11   -1    0    0    0    0 -0.00000000000E+00 -0.00000000000E+00 -0.50000000000E+03  0.50000000000E+03  0.00000000000E+00 0. -1.
        -11    1    1    2    0    0 -0.15810987576E+01 -0.12889732426E+02  0.41544463501E+03  0.41564755483E+03  0.00000000000E+00 0.  1.
         11    1    1    2    0    0 -0.10085534832E+01 -0.85712882474E+01 -0.49024565671E+03  0.49032161699E+03  0.00000000000E+00 0. -1.
        -15    1    1    2    0    0  0.65347718361E+00  0.12043157129E+02  0.81352699535E+02  0.82261072912E+02  0.17770000000E+01 0.  1.
         15    1    1    2    0    0  0.19361750571E+01  0.94178635443E+01 -0.65516778369E+01  0.11769755268E+02  0.17770000000E+01 0.  1.
</event>
<event>
 6    1  0.2408691E-003  0.5013016E+03  0.7546771E-02  0.9396902E-01
        -11   -1    0    0    0    0  0.00000000000E+00  0.00000000000E+00  0.50000000000E+03  0.50000000000E+03  0.00000000000E+00 0. -1.
         11   -1    0    0    0    0 -0.00000000000E+00 -0.00000000000E+00 -0.50000000000E+03  0.50000000000E+03  0.00000000000E+00 0.  1.
        -11    1    1    2    0    0  0.49646314003E+01 -0.96614151865E+01  0.49858013333E+03  0.49869844582E+03  0.00000000000E+00 0. -1.
         11    1    1    2    0    0 -0.25534900418E+01  0.57080025116E+01 -0.37841171588E+03  0.37846337778E+03  0.00000000000E+00 0.  1.
        -15    1    1    2    0    0  0.82505192779E+00 -0.44236651699E+01 -0.10506919491E+03  0.10518052564E+03  0.17770000000E+01 0. -1.
         15    1    1    2    0    0 -0.32361932863E+01  0.83770778448E+01 -0.15099222543E+02  0.17657650767E+02  0.17770000000E+01 0.  1.
</event>
<event>
 6    1  0.2408691E-003  0.5093350E+03  0.7546771E-02  0.9379161E-01
        -11   -1    0    0    0    0  0.00000000000E+00  0.00000000000E+00  0.50000000000E+03  0.50000000000E+03  0.00000000000E+00 0.  1.
         11   -1    0    0    0    0 -0.00000000000E+00 -0.00000000000E+00 -0.50000000000E+03  0.50000000000E+03  0.00000000000E+00 0.  1.
        -11    1    1    2    0    0  0.20798718355E+01 -0.16970586312E+02  0.35713614815E+03  0.35754517894E+03  0.00000000000E+00 0.  1.
         11    1    1    2    0    0 -0.42337462867E+02 -0.33932589834E+02 -0.48765587964E+03  0.49066499607E+03  0.00000000000E+00 0.  1.
        -15    1    1    2    0    0  0.21775950367E+01  0.26440974604E+02  0.78148777349E+02  0.82548508093E+02  0.17770000000E+01 0. -1.
         15    1    1    2    0    0  0.38079995995E+02  0.24462201542E+02  0.52370954147E+02  0.69241316904E+02  0.17770000000E+01 0.  1.
</event>
<event>
 6    1  0.2408691E-003  0.5015819E+03  0.7546771E-02  0.9396277E-01
        -11   -1    0    0    0    0  0.00000000000E+00  0.00000000000E+00  0.50000000000E+03  0.50000000000E+03  0.00000000000E+00 0. -1.
         11   -1    0    0    0    0 -0.00000000000E+00 -0.00000000000E+00 -0.50000000000E+03  0.50000000000E+03  0.00000000000E+00 0. -1.
        -11    1    1    2    0    0 -0.55739673423E+01 -0.89033290855E+01  0.36819872290E+03  0.36834852779E+03  0.00000000000E+00 0. -1.
         11    1    1    2    0    0  0.31296375065E+01 -0.14004403050E+02 -0.49821143802E+03  0.49841805235E+03  0.00000000000E+00 0. -1.
        -15    1    1    2    0    0  0.59293911271E+00  0.20691773512E+02  0.12702936054E+03  0.12871719868E+03  0.17770000000E+01 0. -1.
         15    1    1    2    0    0  0.18513907231E+01  0.22159586230E+01  0.29833545712E+01  0.45162211777E+01  0.17770000000E+01 0.  1.
</event>
<event>
 6    1  0.2408691E-003  0.5031679E+03  0.7546771E-02  0.9392749E-01
        -11   -1    0    0    0    0  0.00000000000E+00  0.00000000000E+00  0.50000000000E+03  0.50000000000E+03  0.00000000000E+00 0. -1.
         11   -1    0    0    0    0 -0.00000000000E+00 -0.00000000000E+00 -0.50000000000E+03  0.50000000000E+03  0.00000000000E+00 0.  1.
        -11    1    1    2    0    0  0.72941261651E+01 -0.54830060657E+01  0.47132913667E+03  0.47141746118E+03  0.00000000000E+00 0. -1.
         11    1    1    2    0    0 -0.67961932040E+01 -0.14577655981E+00 -0.49678557821E+03  0.49683208452E+03  0.00000000000E+00 0.  1.
        -15    1    1    2    0    0  0.78550513167E+01  0.21666965636E+01  0.61651846461E+01  0.10371289019E+02  0.17770000000E+01 0.  1.
         15    1    1    2    0    0 -0.83529842777E+01  0.34620860619E+01  0.19291256900E+02  0.21379165279E+02  0.17770000000E+01 0.  1.
</event>
<event>
 6    1  0.2408691E-003  0.5006706E+03  0.7546771E-02  0.9398311E-01
        -11   -1    0    0    0    0  0.00000000000E+00  0.00000000000E+00  0.50000000000E+03  0.50000000000E+03  0.00000000000E+00 0.  1.
         11   -1    0    0    0    0 -0.00000000000E+00 -0.00000000000E+00 -0.50000000000E+03  0.50000000000E+03  0.00000000000E+00 0. -1.
        -11    1    1    2    0    0 -0.46261115210E+01 -0.61573330736E+01  0.49927002817E+03  0.49932942502E+03  0.00000000000E+00 0.  1.
         11    1    1    2    0    0 -0.26928385080E+01  0.97124274706E+01 -0.10204246090E+03  0.10253899967E+03  0.00000000000E+00 0. -1.
        -15    1    1    2    0    0  0.23669266211E+01  0.43159920910E+01 -0.17025924563E+02  0.17812073591E+02  0.17770000000E+01 0.  1.
         15    1    1    2    0    0  0.49520234079E+01 -0.78710864880E+01 -0.38020164271E+03  0.38031950172E+03  0.17770000000E+01 0. -1.
</event>
<event>
 6    1  0.2408691E-003  0.5003754E+03  0.7546771E-02  0.9398970E-01
        -11   -1    0    0    0    0  0.00000000000E+00  0.00000000000E+00  0.50000000000E+03  0.50000000000E+03  0.00000000000E+00 0. -1.
         11   -1    0    0    0    0 -0.00000000000E+00 -0.00000000000E+00 -0.50000000000E+03  0.50000000000E+03  0.00000000000E+00 0.  1.
        -11    1    1    2    0    0 -0.25261611722E+01 -0.10978025894E+02  0.22624145049E+03  0.22652172625E+03  0.00000000000E+00 0. -1.
         11    1    1    2    0    0  0.64180447511E+01  0.32596697497E+01 -0.49957278832E+03  0.49962464668E+03  0.00000000000E+00 0.  1.
        -15    1    1    2    0    0 -0.26216336251E+01  0.10866009617E+02  0.24538527598E+03  0.24564615716E+03  0.17770000000E+01 0. -1.
         15    1    1    2    0    0 -0.12702499538E+01 -0.31476534721E+01  0.27946061847E+02  0.28207469917E+02  0.17770000000E+01 0.  1.
</event>
<event>
 6    1  0.2408691E-003  0.5000541E+03  0.7546771E-02  0.9399689E-01
        -11   -1    0    0    0    0  0.00000000000E+00  0.00000000000E+00  0.50000000000E+03  0.50000000000E+03  0.00000000000E+00 0.  1.
         11   -1    0    0    0    0 -0.00000000000E+00 -0.00000000000E+00 -0.50000000000E+03  0.50000000000E+03  0.00000000000E+00 0. -1.
        -11    1    1    2    0    0 -0.24144067654E+01 -0.15893790168E+01  0.19152155842E+03  0.19154337062E+03  0.00000000000E+00 0.  1.
         11    1    1    2    0    0  0.57322557726E+01  0.78209942918E+01 -0.49985183622E+03  0.49994588195E+03  0.00000000000E+00 0. -1.
        -15    1    1    2    0    0 -0.44829544563E+01 -0.53875500296E+01  0.27815944877E+03  0.27825340833E+03  0.17770000000E+01 0. -1.
         15    1    1    2    0    0  0.11651054491E+01 -0.84406524543E+00  0.30170829021E+02  0.30257339105E+02  0.17770000000E+01 0. -1.
</event>
<event>
 6    1  0.2408691E-003  0.5266607E+03  0.7546771E-02  0.9342054E-01
        -11   -1    0    0    0    0  0.00000000000E+00  0.00000000000E+00  0.50000000000E+03  0.50000000000E+03  0.00000000000E+00 0.  1.
         11   -1    0    0    0    0 -0.00000000000E+00 -0.00000000000E+00 -0.50000000000E+03  0.50000000000E+03  0.00000000000E+00 0.  1.
        -11    1    1    2    0    0  0.13749920449E+02  0.40920914820E+02  0.37166094887E+03  0.37415964841E+03  0.00000000000E+00 0.  1.
         11    1    1    2    0    0 -0.35106635708E+01 -0.13587477987E+02 -0.47313121902E+03  0.47333930191E+03  0.00000000000E+00 0.  1.
        -15    1    1    2    0    0  0.30879222641E+02  0.14392254306E+01 -0.80704625010E+01  0.31998247682E+02  0.17770000000E+01 0. -1.
         15    1    1    2    0    0 -0.41118479520E+02 -0.28772662264E+02  0.10954073265E+03  0.12050280200E+03  0.17770000000E+01 0.  1.
</event>
<event>
 6    1  0.2408691E-003  0.4714679E+03  0.7546771E-02  0.9466018E-01
        -11   -1    0    0    0    0  0.00000000000E+00  0.00000000000E+00  0.50000000000E+03  0.50000000000E+03  0.00000000000E+00 0. -1.
         11   -1    0    0    0    0 -0.00000000000E+00 -0.00000000000E+00 -0.50000000000E+03  0.50000000000E+03  0.00000000000E+00 0.  1.
        -11    1    1    2    0    0 -0.13184632867E+02  0.13168371079E+02  0.46558391681E+03  0.46595667624E+03  0.00000000000E+00 0. -1.
         11    1    1    2    0    0  0.13055609007E+02  0.14411553211E+02 -0.47705604774E+03  0.47745221172E+03  0.00000000000E+00 0.  1.
        -15    1    1    2    0    0  0.13454063356E+02 -0.15080380958E+02  0.26143704806E+02  0.33092004180E+02  0.17770000000E+01 0. -1.
         15    1    1    2    0    0 -0.13325039496E+02 -0.12499543331E+02 -0.14671573875E+02  0.23499107856E+02  0.17770000000E+01 0.  1.
</event>
<event>
 6    1  0.2408691E-003  0.5024972E+03  0.7546771E-02  0.9394239E-01
        -11   -1    0    0    0    0  0.00000000000E+00  0.00000000000E+00  0.50000000000E+03  0.50000000000E+03  0.00000000000E+00 0.  1.
         11   -1    0    0    0    0 -0.00000000000E+00 -0.00000000000E+00 -0.50000000000E+03  0.50000000000E+03  0.00000000000E+00 0. -1.
        -11    1    1    2    0    0  0.70163266213E+01  0.12771064588E+01  0.28252855022E+03  0.28261854421E+03  0.00000000000E+00 0.  1.
         11    1    1    2    0    0 -0.36341823403E+01  0.58655584666E+01 -0.49745498673E+03  0.49750284007E+03  0.00000000000E+00 0. -1.
        -15    1    1    2    0    0  0.27448674503E+01 -0.52676835485E+01  0.15397778637E+01  0.63883825932E+01  0.17770000000E+01 0. -1.
         15    1    1    2    0    0 -0.61270117313E+01 -0.18749813768E+01  0.21338665864E+03  0.21349023313E+03  0.17770000000E+01 0.  1.
</event>
<event>
 6    1  0.2408691E-003  0.3669247E+03  0.7546771E-02  0.9759515E-01
        -11   -1    0    0    0    0  0.00000000000E+00  0.00000000000E+00  0.50000000000E+03  0.50000000000E+03  0.00000000000E+00 0.  1.
         11   -1    0    0    0    0 -0.00000000000E+00 -0.00000000000E+00 -0.50000000000E+03  0.50000000000E+03  0.00000000000E+00 0. -1.
        -11    1    1    2    0    0 -0.42278350901E+01  0.65374621686E+00  0.15478615451E+03  0.15484526342E+03  0.00000000000E+00 0.  1.
         11    1    1    2    0    0 -0.43472181156E+01  0.71628457279E+01 -0.42229767462E+03  0.42238078869E+03  0.00000000000E+00 0. -1.
        -15    1    1    2    0    0 -0.57279146358E+02 -0.65243357784E+02  0.31259775793E+03  0.32443506644E+03  0.17770000000E+01 0.  1.
         15    1    1    2    0    0  0.65854199563E+02  0.57426765839E+02 -0.45086237821E+02  0.98338881449E+02  0.17770000000E+01 0. -1.
</event>
<event>
 6    1  0.2408691E-003  0.5015451E+03  0.7546771E-02  0.9396359E-01
        -11   -1    0    0    0    0  0.00000000000E+00  0.00000000000E+00  0.50000000000E+03  0.50000000000E+03  0.00000000000E+00 0. -1.
         11   -1    0    0    0    0 -0.00000000000E+00 -0.00000000000E+00 -0.50000000000E+03  0.50000000000E+03  0.00000000000E+00 0.  1.
        -11    1    1    2    0    0 -0.12717577343E+01 -0.49879814176E+01  0.32429938385E+03  0.32434023446E+03  0.00000000000E+00 0. -1.
         11    1    1    2    0    0  0.14479790407E+01 -0.10259764518E+02 -0.49834721480E+03  0.49845491864E+03  0.00000000000E+00 0.  1.
        -15    1    1    2    0    0 -0.21741134268E+01  0.93844930227E+01  0.14335694285E+02  0.17362757216E+02  0.17770000000E+01 0. -1.
         15    1    1    2    0    0  0.19978921204E+01  0.58632529125E+01  0.15971213667E+03  0.15984208969E+03  0.17770000000E+01 0. -1.
</event>
<event>
 6    1  0.2408691E-003  0.5112895E+03  0.7546771E-02  0.9374897E-01
        -11   -1    0    0    0    0  0.00000000000E+00  0.00000000000E+00  0.50000000000E+03  0.50000000000E+03  0.00000000000E+00 0. -1.
         11   -1    0    0    0    0 -0.00000000000E+00 -0.00000000000E+00 -0.50000000000E+03  0.50000000000E+03  0.00000000000E+00 0.  1.
        -11    1    1    2    0    0 -0.57320394045E+01 -0.16558156487E+02  0.40353438969E+03  0.40391463515E+03  0.00000000000E+00 0. -1.
         11    1    1    2    0    0 -0.10957076250E+02  0.11006808734E+02 -0.48846369321E+03  0.48871053493E+03  0.00000000000E+00 0.  1.
        -15    1    1    2    0    0  0.13623308848E+01  0.33469499950E+02  0.48263500512E+02  0.58775731242E+02  0.17770000000E+01 0.  1.
         15    1    1    2    0    0  0.15326784769E+02 -0.27918152198E+02  0.36665803008E+02  0.48599098683E+02  0.17770000000E+01 0. -1.
</event>
<event>
 6    1  0.2408691E-003  0.5001128E+03  0.7546771E-02  0.9399557E-01
        -11   -1    0    0    0    0  0.00000000000E+00  0.00000000000E+00  0.50000000000E+03  0.50000000000E+03  0.00000000000E+00 0.  1.
         11   -1    0    0    0    0 -0.00000000000E+00 -0.00000000000E+00 -0.50000000000E+03  0.50000000000E+03  0.00000000000E+00 0.  1.
        -11    1    1    2    0    0  0.17511895045E+01  0.25540531445E+01  0.16216204346E+03  0.16219160950E+03  0.00000000000E+00 0.  1.
         11    1    1    2    0    0 -0.32904673220E+01  0.83888053597E+01 -0.49980594618E+03  0.49988717034E+03  0.00000000000E+00 0.  1.
        -15    1    1    2    0    0  0.41166267910E+01 -0.73667251798E+01  0.18115386237E+03  0.18135902194E+03  0.17770000000E+01 0. -1.
         15    1    1    2    0    0 -0.25773489735E+01 -0.35761333244E+01  0.15649004035E+03  0.15656219823E+03  0.17770000000E+01 0. -1.
</event>
<event>
 6    1  0.2408691E-003  0.5171003E+03  0.7546771E-02  0.9362339E-01
        -11   -1    0    0    0    0  0.00000000000E+00  0.00000000000E+00  0.50000000000E+03  0.50000000000E+03  0.00000000000E+00 0. -1.
         11   -1    0    0    0    0 -0.00000000000E+00 -0.00000000000E+00 -0.50000000000E+03  0.50000000000E+03  0.00000000000E+00 0. -1.
        -11    1    1    2    0    0  0.75354954672E+01  0.77998485542E+01  0.26023811114E+03  0.26046400101E+03  0.00000000000E+00 0. -1.
         11    1    1    2    0    0 -0.11151754078E+02  0.43922139552E+01 -0.48275090444E+03  0.48289966753E+03  0.00000000000E+00 0. -1.
        -15    1    1    2    0    0  0.73560595649E+00  0.83058320376E+01 -0.15515249651E+02  0.17703351736E+02  0.17770000000E+01 0. -1.
         15    1    1    2    0    0  0.28806526541E+01 -0.20497894547E+02  0.23802804295E+03  0.23893297972E+03  0.17770000000E+01 0.  1.
</event>
<event>
 6    1  0.7407104E-003  0.5051141E+03  0.7546771E-02  0.9388439E-01
        -11   -1    0    0    0    0  0.00000000000E+00  0.00000000000E+00  0.50000000000E+03  0.50000000000E+03  0.00000000000E+00 0. -1.
         11   -1    0    0    0    0 -0.00000000000E+00 -0.00000000000E+00 -0.50000000000E+03  0.50000000000E+03  0.00000000000E+00 0. -1.
        -11    1    1    2    0    0 -0.13638114621E+01 -0.42579739046E+01  0.28905413737E+03  0.28908871416E+03  0.00000000000E+00 0. -1.
         11    1    1    2    0    0 -0.16077465720E+02  0.40759891689E+02 -0.49294242821E+03  0.49488593757E+03  0.00000000000E+00 0. -1.
        -15    1    1    2    0    0  0.37803921493E+01  0.36564868030E+01  0.13493973557E+03  0.13505388267E+03  0.17770000000E+01 0. -1.
         15    1    1    2    0    0  0.13660885033E+02 -0.40158404587E+02  0.68948555270E+02  0.80971465602E+02  0.17770000000E+01 0. -1.
</event>
<event>
 6    1  0.2408691E-003  0.5022243E+03  0.7546771E-02  0.9394846E-01
        -11   -1    0    0    0    0  0.00000000000E+00  0.00000000000E+00  0.50000000000E+03  0.50000000000E+03  0.00000000000E+00 0.  1.
         11   -1    0    0    0    0 -0.00000000000E+00 -0.00000000000E+00 -0.50000000000E+03  0.50000000000E+03  0.00000000000E+00 0. -1.
        -11    1    1    2    0    0 -0.14514534890E+02 -0.12605323237E+01  0.14986138560E+03  0.15056791012E+03  0.00000000000E+00 0.  1.
         11    1    1    2    0    0 -0.22574883051E+01 -0.15851703147E+02 -0.49751811914E+03  0.49777570412E+03  0.00000000000E+00 0. -1.
        -15    1    1    2    0    0 -0.45056585368E+01 -0.12474893863E+02  0.15488233073E+03  0.15545937745E+03  0.17770000000E+01 0.  1.
         15    1    1    2    0    0  0.21277681732E+02  0.29587129333E+02  0.19277440281E+03  0.19619700831E+03  0.17770000000E+01 0. -1.
</event>
<event>
 6    1  0.2408691E-003  0.5734240E+03  0.7546771E-02  0.9249020E-01
        -11   -1    0    0    0    0  0.00000000000E+00  0.00000000000E+00  0.50000000000E+03  0.50000000000E+03  0.00000000000E+00 0.  1.
         11   -1    0    0    0    0 -0.00000000000E+00 -0.00000000000E+00 -0.50000000000E+03  0.50000000000E+03  0.00000000000E+00 0. -1.
        -11    1    1    2    0    0 -0.42723885576E+01  0.11573667661E+02  0.37644014151E+03  0.37664224833E+03  0.00000000000E+00 0.  1.
         11    1    1    2    0    0  0.64106732667E+01 -0.28002200125E+01 -0.42651865645E+03  0.42657602167E+03  0.00000000000E+00 0. -1.
        -15    1    1    2    0    0  0.31067902365E+02 -0.24694549984E+02  0.11524984279E+03  0.12190455015E+03  0.17770000000E+01 0.  1.
         15    1    1    2    0    0 -0.33206187074E+02  0.15921102335E+02 -0.65171327844E+02  0.74877179845E+02  0.17770000000E+01 0. -1.
</event>
<event>
 6    1  0.2408691E-003  0.4818220E+03  0.7546771E-02  0.9441429E-01
        -11   -1    0    0    0    0  0.00000000000E+00  0.00000000000E+00  0.50000000000E+03  0.50000000000E+03  0.00000000000E+00 0.  1.
         11   -1    0    0    0    0 -0.00000000000E+00 -0.00000000000E+00 -0.50000000000E+03  0.50000000000E+03  0.00000000000E+00 0. -1.
        -11    1    1    2    0    0 -0.10458139409E+02  0.21782911583E+02  0.47696945776E+03  0.47758112562E+03  0.00000000000E+00 0.  1.
         11    1    1    2    0    0  0.81447063395E+01 -0.70080901049E+00 -0.48627249303E+03  0.48634120209E+03  0.00000000000E+00 0. -1.
        -15    1    1    2    0    0 -0.73937205334E+01  0.33463192752E+01  0.39225933777E+01  0.91874601400E+01  0.17770000000E+01 0.  1.
         15    1    1    2    0    0  0.97071536029E+01 -0.24428421847E+02  0.53804418939E+01  0.26890212141E+02  0.17770000000E+01 0. -1.
</event>
<event>
 6    1  0.2408691E-003  0.4864813E+03  0.7546771E-02  0.9430578E-01
        -11   -1    0    0    0    0  0.00000000000E+00  0.00000000000E+00  0.50000000000E+03  0.50000000000E+03  0.00000000000E+00 0. -1.
         11   -1    0    0    0    0 -0.00000000000E+00 -0.00000000000E+00 -0.50000000000E+03  0.50000000000E+03  0.00000000000E+00 0. -1.
        -11    1    1    2    0    0  0.16897480647E+02  0.45899168115E+01  0.48793037823E+03  0.48824445331E+03  0.00000000000E+00 0. -1.
         11    1    1    2    0    0  0.47088092982E+01 -0.78393747762E+01 -0.48488194350E+03  0.48496817196E+03  0.00000000000E+00 0. -1.
        -15    1    1    2    0    0 -0.16042552547E+02 -0.44999785898E+01 -0.54214455725E+00  0.16764991776E+02  0.17770000000E+01 0.  1.
         15    1    1    2    0    0 -0.55637373982E+01  0.77494365546E+01 -0.25062901752E+01  0.10022382960E+02  0.17770000000E+01 0. -1.
</event>
<event>
 6    1  0.2408691E-003  0.5098306E+03  0.7546771E-02  0.9378078E-01
        -11   -1    0    0    0    0  0.00000000000E+00  0.00000000000E+00  0.50000000000E+03  0.50000000000E+03  0.00000000000E+00 0.  1.
         11   -1    0    0    0    0 -0.00000000000E+00 -0.00000000000E+00 -0.50000000000E+03  0.50000000000E+03  0.00000000000E+00 0.  1.
        -11    1    1    2    0    0 -0.42323128287E+01  0.61103335257E+01  0.47826001237E+03  0.47831776893E+03  0.00000000000E+00 0.  1.
         11    1    1    2    0    0  0.11701932477E+02 -0.19945120163E+01 -0.49002566947E+03  0.49016942993E+03  0.00000000000E+00 0.  1.
        -15    1    1    2    0    0 -0.16079621326E+02 -0.82352665016E+01  0.12069708083E+02  0.21799298579E+02  0.17770000000E+01 0.  1.
         15    1    1    2    0    0  0.86100016776E+01  0.41194449923E+01 -0.30405098097E+00  0.97135025573E+01  0.17770000000E+01 0. -1.
</event>
<event>
 6    1  0.2408691E-003  0.5194638E+03  0.7546771E-02  0.9357281E-01
        -11   -1    0    0    0    0  0.00000000000E+00  0.00000000000E+00  0.50000000000E+03  0.50000000000E+03  0.00000000000E+00 0.  1.
         11   -1    0    0    0    0 -0.00000000000E+00 -0.00000000000E+00 -0.50000000000E+03  0.50000000000E+03  0.00000000000E+00 0. -1.
        -11    1    1    2    0    0 -0.12096511134E+02  0.32538080066E+01  0.48037289533E+03  0.48053619157E+03  0.00000000000E+00 0.  1.
         11    1    1    2    0    0  0.94574786115E+01  0.32862466216E+01 -0.41496635024E+03  0.41508711754E+03  0.00000000000E+00 0. -1.
        -15    1    1    2    0    0  0.11284049539E+02  0.14566212394E+01  0.17319131502E+02  0.20798114443E+02  0.17770000000E+01 0. -1.
         15    1    1    2    0    0 -0.86450170166E+01 -0.79966758676E+01 -0.82725676591E+02  0.83578576445E+02  0.17770000000E+01 0.  1.
</event>
<event>
 6    1  0.2408691E-003  0.5055434E+03  0.7546771E-02  0.9387491E-01
        -11   -1    0    0    0    0  0.00000000000E+00  0.00000000000E+00  0.50000000000E+03  0.50000000000E+03  0.00000000000E+00 0. -1.
         11   -1    0    0    0    0 -0.00000000000E+00 -0.00000000000E+00 -0.50000000000E+03  0.50000000000E+03  0.00000000000E+00 0.  1.
        -11    1    1    2    0    0 -0.47676132194E+00 -0.56831680871E+00  0.43803463820E+02  0.43809744670E+02  0.00000000000E+00 0. -1.
         11    1    1    2    0    0 -0.16373847030E+02  0.17244580502E+02 -0.49388445450E+03  0.49445660357E+03  0.00000000000E+00 0.  1.
        -15    1    1    2    0    0 -0.23755001784E+01 -0.96371824577E+01  0.43754428407E+03  0.43766045805E+03  0.17770000000E+01 0. -1.
         15    1    1    2    0    0  0.19226108530E+02 -0.70390812355E+01  0.12536706603E+02  0.24073193708E+02  0.17770000000E+01 0.  1.
</event>
<event>
 6    1  0.2408691E-003  0.5010761E+03  0.7546771E-02  0.9397405E-01
        -11   -1    0    0    0    0  0.00000000000E+00  0.00000000000E+00  0.50000000000E+03  0.50000000000E+03  0.00000000000E+00 0. -1.
         11   -1    0    0    0    0 -0.00000000000E+00 -0.00000000000E+00 -0.50000000000E+03  0.50000000000E+03  0.00000000000E+00 0. -1.
        -11    1    1    2    0    0 -0.63865086539E+01  0.63940994631E+00  0.18065766042E+03  0.18077164216E+03  0.00000000000E+00 0. -1.
         11    1    1    2    0    0 -0.71400398594E+01  0.54896325603E+01 -0.49884258045E+03  0.49892387826E+03  0.00000000000E+00 0. -1.
        -15    1    1    2    0    0  0.18443219154E+01 -0.58484929926E+01  0.98199015415E+01  0.11713009387E+02  0.17770000000E+01 0. -1.
         15    1    1    2    0    0  0.11682226598E+02 -0.28054951406E+00  0.30836501848E+03  0.30859147019E+03  0.17770000000E+01 0.  1.
</event>
<event>
 6    1  0.2408691E-003  0.5010802E+03  0.7546771E-02  0.9397396E-01
        -11   -1    0    0    0    0  0.00000000000E+00  0.00000000000E+00  0.50000000000E+03  0.50000000000E+03  0.00000000000E+00 0. -1.
         11   -1    0    0    0    0 -0.00000000000E+00 -0.00000000000E+00 -0.50000000000E+03  0.50000000000E+03  0.00000000000E+00 0.  1.
        -11    1    1    2    0    0  0.24150673721E+01 -0.67813168060E+01  0.49886787281E+03  0.49891980651E+03  0.00000000000E+00 0. -1.
         11    1    1    2    0    0  0.49985505603E+01  0.11833940635E+01 -0.31348762374E+03  0.31352970540E+03  0.00000000000E+00 0.  1.
        -15    1    1    2    0    0 -0.54626065820E+01  0.63600129479E+01 -0.16023027139E+02  0.18170992352E+02  0.17770000000E+01 0. -1.
         15    1    1    2    0    0 -0.19510113503E+01 -0.76209020534E+00 -0.16935722193E+03  0.16937949574E+03  0.17770000000E+01 0.  1.
</event>
<event>
 6    1  0.2408691E-003  0.4859662E+03  0.7546771E-02  0.9431771E-01
        -11   -1    0    0    0    0  0.00000000000E+00  0.00000000000E+00  0.50000000000E+03  0.50000000000E+03  0.00000000000E+00 0. -1.
         11   -1    0    0    0    0 -0.00000000000E+00 -0.00000000000E+00 -0.50000000000E+03  0.50000000000E+03  0.00000000000E+00 0.  1.
        -11    1    1    2    0    0 -0.52133864141E+01  0.82770695718E+01  0.48730142461E+03  0.48739959756E+03  0.00000000000E+00 0. -1.
         11    1    1    2    0    0 -0.11806673557E+02  0.55853870724E+01 -0.48460830434E+03  0.48478428473E+03  0.00000000000E+00 0.  1.
        -15    1    1    2    0    0  0.16310387392E+02 -0.10817687482E+02  0.41500370388E+01  0.20085607677E+02  0.17770000000E+01 0.  1.
         15    1    1    2    0    0  0.70967257875E+00 -0.30447691621E+01 -0.68431573086E+01  0.77305100330E+01  0.17770000000E+01 0. -1.
</event>
<event>
 6    1  0.2408691E-003  0.5000989E+03  0.7546771E-02  0.9399588E-01
        -11   -1    0    0    0    0  0.00000000000E+00  0.00000000000E+00  0.50000000000E+03  0.50000000000E+03  0.00000000000E+00 0. -1.
         11   -1    0    0    0    0 -0.00000000000E+00 -0.00000000000E+00 -0.50000000000E+03  0.50000000000E+03  0.00000000000E+00 0.  1.
        -11    1    1    2    0    0  0.27438707851E+00  0.27099123470E+01  0.10853762469E+03  0.10857179600E+03  0.00000000000E+00 0. -1.
         11    1    1    2    0    0 -0.78268744499E+01 -0.19002470921E+01 -0.49983618050E+03  0.49990106846E+03  0.00000000000E+00 0.  1.
        -15    1    1    2    0    0  0.62145519262E+01 -0.22466631016E+01  0.37017369146E+03  0.37023693458E+03  0.17770000000E+01 0. -1.
         15    1    1    2    0    0  0.13379354452E+01  0.14369978468E+01  0.21124864360E+02  0.21290200969E+02  0.17770000000E+01 0. -1.
</event>
<event>
 6    1  0.2408691E-003  0.4916562E+03  0.7546771E-02  0.9418676E-01
        -11   -1    0    0    0    0  0.00000000000E+00  0.00000000000E+00  0.50000000000E+03  0.50000000000E+03  0.00000000000E+00 0. -1.
         11   -1    0    0    0    0 -0.00000000000E+00 -0.00000000000E+00 -0.50000000000E+03  0.50000000000E+03  0.00000000000E+00 0. -1.
        -11    1    1    2    0    0  0.46542697630E+01  0.64435713954E+01  0.49328485146E+03  0.49334888925E+03  0.00000000000E+00 0. -1.
         11    1    1    2    0    0  0.72617042805E+01 -0.56328139612E+01 -0.48995540477E+03  0.49004158967E+03  0.00000000000E+00 0. -1.
        -15    1    1    2    0    0 -0.35539378201E+01 -0.34767156190E+01  0.25842099489E+01  0.58782561687E+01  0.17770000000E+01 0. -1.
         15    1    1    2    0    0 -0.83620362234E+01  0.26659581848E+01 -0.59136566385E+01  0.10731264915E+02  0.17770000000E+01 0.  1.
</event>
<event>
 6    1  0.2408691E-003  0.5046636E+03  0.7546771E-02  0.9389435E-01
        -11   -1    0    0    0    0  0.00000000000E+00  0.00000000000E+00  0.50000000000E+03  0.50000000000E+03  0.00000000000E+00 0. -1.
         11   -1    0    0    0    0 -0.00000000000E+00 -0.00000000000E+00 -0.50000000000E+03  0.50000000000E+03  0.00000000000E+00 0.  1.
        -11    1    1    2    0    0  0.53006568838E+01 -0.64368411375E+01  0.47094336151E+03  0.47101717553E+03  0.00000000000E+00 0. -1.
         11    1    1    2    0    0  0.13720707208E+00 -0.10286030586E+02 -0.49522954661E+03  0.49533637570E+03  0.00000000000E+00 0.  1.
        -15    1    1    2    0    0 -0.64697969453E-01  0.56116245407E+01  0.19366755736E+02  0.20241627221E+02  0.17770000000E+01 0. -1.
         15    1    1    2    0    0 -0.53731659864E+01  0.11111247182E+02  0.49194293646E+01  0.13404821556E+02  0.17770000000E+01 0.  1.
</event>
<event>
 6    1  0.2408691E-003  0.5059881E+03  0.7546771E-02  0.9386510E-01
        -11   -1    0    0    0    0  0.00000000000E+00  0.00000000000E+00  0.50000000000E+03  0.50000000000E+03  0.00000000000E+00 0. -1.
         11   -1    0    0    0    0 -0.00000000000E+00 -0.00000000000E+00 -0.50000000000E+03  0.50000000000E+03  0.00000000000E+00 0.  1.
        -11    1    1    2    0    0 -0.54981043510E+01  0.32114191746E+01  0.42002241566E+03  0.42007067504E+03  0.00000000000E+00 0. -1.
         11    1    1    2    0    0 -0.63424789314E+01  0.40235472177E+01 -0.49395474799E+03  0.49401185111E+03  0.00000000000E+00 0.  1.
        -15    1    1    2    0    0  0.16493746227E+02 -0.20639607232E+01  0.76490212243E+02  0.78295682489E+02  0.17770000000E+01 0.  1.
         15    1    1    2    0    0 -0.46531629450E+01 -0.51710056691E+01 -0.25578799172E+01  0.76217913704E+01  0.17770000000E+01 0. -1.
</event>
<event>
 6    1  0.2408691E-003  0.5000699E+03  0.7546771E-02  0.9399653E-01
        -11   -1    0    0    0    0  0.00000000000E+00  0.00000000000E+00  0.50000000000E+03  0.50000000000E+03  0.00000000000E+00 0.  1.
         11   -1    0    0    0    0 -0.00000000000E+00 -0.00000000000E+00 -0.50000000000E+03  0.50000000000E+03  0.00000000000E+00 0.  1.
        -11    1    1    2    0    0 -0.35295361876E+01 -0.47929481123E+01  0.13112127220E+03  0.13125630652E+03  0.00000000000E+00 0.  1.
         11    1    1    2    0    0  0.85114330769E+01  0.11912831296E+01 -0.49985619307E+03  0.49993007251E+03  0.00000000000E+00 0.  1.
        -15    1    1    2    0    0 -0.25131166570E+01  0.41631558185E+00  0.18393052080E+03  0.18395674297E+03  0.17770000000E+01 0.  1.
         15    1    1    2    0    0 -0.24687802323E+01  0.31853494008E+01  0.18480440008E+03  0.18485687800E+03  0.17770000000E+01 0.  1.
</event>
<event>
 6    1  0.2408691E-003  0.5106326E+03  0.7546771E-02  0.9376328E-01
        -11   -1    0    0    0    0  0.00000000000E+00  0.00000000000E+00  0.50000000000E+03  0.50000000000E+03  0.00000000000E+00 0. -1.
         11   -1    0    0    0    0 -0.00000000000E+00 -0.00000000000E+00 -0.50000000000E+03  0.50000000000E+03  0.00000000000E+00 0. -1.
        -11    1    1    2    0    0  0.14798721702E+02  0.84860754297E+01  0.48906997459E+03  0.48936740358E+03  0.00000000000E+00 0. -1.
         11    1    1    2    0    0 -0.56005310238E+01 -0.28801138746E+01 -0.45352575210E+03  0.45356947519E+03  0.00000000000E+00 0. -1.
        -15    1    1    2    0    0  0.59482221516E+01  0.25843666654E+01 -0.38860352238E+02  0.39437862555E+02  0.17770000000E+01 0. -1.
         15    1    1    2    0    0 -0.15146412830E+02 -0.81903282205E+01  0.33161297456E+01  0.17625258678E+02  0.17770000000E+01 0.  1.
</event>
<event>
 6    1  0.2408691E-003  0.5053631E+03  0.7546771E-02  0.9387889E-01
        -11   -1    0    0    0    0  0.00000000000E+00  0.00000000000E+00  0.50000000000E+03  0.50000000000E+03  0.00000000000E+00 0. -1.
         11   -1    0    0    0    0 -0.00000000000E+00 -0.00000000000E+00 -0.50000000000E+03  0.50000000000E+03  0.00000000000E+00 0. -1.
        -11    1    1    2    0    0  0.20993843715E+01 -0.11131378610E+02  0.49450715344E+03  0.49463687672E+03  0.00000000000E+00 0. -1.
         11    1    1    2    0    0  0.21607309649E+01 -0.69247796558E+01 -0.47078093075E+03  0.47083681471E+03  0.00000000000E+00 0. -1.
        -15    1    1    2    0    0 -0.64934071982E+01  0.85429818545E+01 -0.21865574831E+02  0.24421465306E+02  0.17770000000E+01 0.  1.
         15    1    1    2    0    0  0.22332918619E+01  0.95131764109E+01 -0.18606478580E+01  0.10104843265E+02  0.17770000000E+01 0. -1.
</event>
<event>
 6    1  0.2408691E-003  0.5123669E+03  0.7546771E-02  0.9372555E-01
        -11   -1    0    0    0    0  0.00000000000E+00  0.00000000000E+00  0.50000000000E+03  0.50000000000E+03  0.00000000000E+00 0. -1.
         11   -1    0    0    0    0 -0.00000000000E+00 -0.00000000000E+00 -0.50000000000E+03  0.50000000000E+03  0.00000000000E+00 0.  1.
        -11    1    1    2    0    0  0.17354292317E+01  0.55115155143E+01  0.35713732260E+03  0.35718406419E+03  0.00000000000E+00 0. -1.
         11    1    1    2    0    0 -0.33680795219E+01  0.11867624129E+02 -0.48747700714E+03  0.48763307615E+03  0.00000000000E+00 0.  1.
        -15    1    1    2    0    0 -0.10660165109E+01 -0.92825397339E+01  0.14105164225E+03  0.14137194009E+03  0.17770000000E+01 0. -1.
         15    1    1    2    0    0  0.26986668011E+01 -0.80965999098E+01 -0.10711957700E+02  0.13810919570E+02  0.17770000000E+01 0.  1.
</event>
<event>
 6    1  0.2408691E-003  0.5122217E+03  0.7546771E-02  0.9372871E-01
        -11   -1    0    0    0    0  0.00000000000E+00  0.00000000000E+00  0.50000000000E+03  0.50000000000E+03  0.00000000000E+00 0. -1.
         11   -1    0    0    0    0 -0.00000000000E+00 -0.00000000000E+00 -0.50000000000E+03  0.50000000000E+03  0.00000000000E+00 0.  1.
        -11    1    1    2    0    0  0.13172772954E+02  0.89848962844E+01  0.44120588954E+03  0.44149392666E+03  0.00000000000E+00 0. -1.
         11    1    1    2    0    0  0.21309889011E+02 -0.22768699519E+02 -0.48678042714E+03  0.48777834033E+03  0.00000000000E+00 0.  1.
        -15    1    1    2    0    0 -0.14111722453E+02  0.67258751217E+01  0.46486144152E+02  0.49076444797E+02  0.17770000000E+01 0. -1.
         15    1    1    2    0    0 -0.20370939513E+02  0.70579281130E+01 -0.91160655798E+00  0.21651288216E+02  0.17770000000E+01 0.  1.
</event>
<event>
 6    1  0.2408691E-003  0.5292092E+03  0.7546771E-02  0.9336724E-01
        -11   -1    0    0    0    0  0.00000000000E+00  0.00000000000E+00  0.50000000000E+03  0.50000000000E+03  0.00000000000E+00 0. -1.
         11   -1    0    0    0    0 -0.00000000000E+00 -0.00000000000E+00 -0.50000000000E+03  0.50000000000E+03  0.00000000000E+00 0.  1.
        -11    1    1    2    0    0 -0.33599230496E+01  0.59028153567E+01  0.47074184929E+03  0.47079084633E+03  0.00000000000E+00 0. -1.
         11    1    1    2    0    0 -0.13951218671E+02  0.15063279655E+01 -0.45881248260E+03  0.45902701415E+03  0.00000000000E+00 0.  1.
        -15    1    1    2    0    0 -0.77633750162E+00 -0.49092877595E+01  0.26806659096E+02  0.27321392847E+02  0.17770000000E+01 0. -1.
         15    1    1    2    0    0  0.18087479222E+02 -0.24998555627E+01 -0.38736025792E+02  0.42860746676E+02  0.17770000000E+01 0. -1.
</event>
<event>
 6    1  0.2408691E-003  0.5008087E+03  0.7546771E-02  0.9398002E-01
        -11   -1    0    0    0    0  0.00000000000E+00  0.00000000000E+00  0.50000000000E+03  0.50000000000E+03  0.00000000000E+00 0.  1.
         11   -1    0    0    0    0 -0.00000000000E+00 -0.00000000000E+00 -0.50000000000E+03  0.50000000000E+03  0.00000000000E+00 0. -1.
        -11    1    1    2    0    0 -0.25937560508E+01 -0.91915656889E+01  0.35666074555E+03  0.35678859268E+03  0.00000000000E+00 0.  1.
         11    1    1    2    0    0  0.48602458021E+00 -0.10788364528E+02 -0.49907447850E+03  0.49919130613E+03  0.00000000000E+00 0. -1.
        -15    1    1    2    0    0 -0.14283189546E+01  0.64856271006E+01  0.62666547555E+02  0.63042504435E+02  0.17770000000E+01 0. -1.
         15    1    1    2    0    0  0.35360504252E+01  0.13494303116E+02  0.79747185391E+02  0.80977596754E+02  0.17770000000E+01 0.  1.
</event>
<event>
 6    1  0.2408691E-003  0.5102397E+03  0.7546771E-02  0.9377185E-01
        -11   -1    0    0    0    0  0.00000000000E+00  0.00000000000E+00  0.50000000000E+03  0.50000000000E+03  0.00000000000E+00 0. -1.
         11   -1    0    0    0    0 -0.00000000000E+00 -0.00000000000E+00 -0.50000000000E+03  0.50000000000E+03  0.00000000000E+00 0. -1.
        -11    1    1    2    0    0 -0.63033467545E+01  0.18269116557E+02  0.48937889861E+03  0.48976034875E+03  0.00000000000E+00 0. -1.
         11    1    1    2    0    0  0.67004162245E+01  0.24101160325E+01 -0.45297448833E+03  0.45303045296E+03  0.00000000000E+00 0. -1.
        -15    1    1    2    0    0  0.84721407783E+01 -0.83801402709E+01  0.50265324915E+01  0.13054795219E+02  0.17770000000E+01 0.  1.
         15    1    1    2    0    0 -0.88692102483E+01 -0.12299092318E+02 -0.41430942775E+02  0.44154403071E+02  0.17770000000E+01 0. -1.
</event>
<event>
 6    1  0.2408691E-003  0.5176129E+03  0.7546771E-02  0.9361240E-01
        -11   -1    0    0    0    0  0.00000000000E+00  0.00000000000E+00  0.50000000000E+03  0.50000000000E+03  0.00000000000E+00 0. -1.
         11   -1    0    0    0    0 -0.00000000000E+00 -0.00000000000E+00 -0.50000000000E+03  0.50000000000E+03  0.00000000000E+00 0. -1.
        -11    1    1    2    0    0  0.31534334477E+01 -0.16115647197E+02  0.47268706266E+03  0.47297221634E+03  0.00000000000E+00 0. -1.
         11    1    1    2    0    0 -0.17574541333E+02  0.12765074534E+02 -0.48189778046E+03  0.48238706704E+03  0.00000000000E+00 0. -1.
        -15    1    1    2    0    0  0.22687706280E+02 -0.94596119302E+01 -0.32658746236E+01  0.24860409091E+02  0.17770000000E+01 0. -1.
         15    1    1    2    0    0 -0.82665983941E+01  0.12810184593E+02  0.12476592427E+02  0.19780307528E+02  0.17770000000E+01 0.  1.
</event>
<event>
 6    1  0.2408691E-003  0.4848356E+03  0.7546771E-02  0.9434395E-01
        -11   -1    0    0    0    0  0.00000000000E+00  0.00000000000E+00  0.50000000000E+03  0.50000000000E+03  0.00000000000E+00 0.  1.
         11   -1    0    0    0    0 -0.00000000000E+00 -0.00000000000E+00 -0.50000000000E+03  0.50000000000E+03  0.00000000000E+00 0.  1.
        -11    1    1    2    0    0  0.39083407360E+01 -0.64147595498E+01  0.48111325185E+03  0.48117188755E+03  0.00000000000E+00 0.  1.
         11    1    1    2    0    0 -0.10606311091E+02 -0.13003145842E+02 -0.48845654907E+03  0.48874469405E+03  0.00000000000E+00 0.  1.
        -15    1    1    2    0    0  0.46009625409E+01  0.16412702022E+02 -0.43667596149E+01  0.17685360118E+02  0.17770000000E+01 0. -1.
         15    1    1    2    0    0  0.20970078138E+01  0.30052033704E+01  0.11710056833E+02  0.12398058280E+02  0.17770000000E+01 0.  1.
</event>
<event>
 6    1  0.2408691E-003  0.5009375E+03  0.7546771E-02  0.9397714E-01
        -11   -1    0    0    0    0  0.00000000000E+00  0.00000000000E+00  0.50000000000E+03  0.50000000000E+03  0.00000000000E+00 0.  1.
         11   -1    0    0    0    0 -0.00000000000E+00 -0.00000000000E+00 -0.50000000000E+03  0.50000000000E+03  0.00000000000E+00 0.  1.
        -11    1    1    2    0    0 -0.43488344328E+01  0.53270762460E+01  0.49901511106E+03  0.49906249225E+03  0.00000000000E+00 0.  1.
         11    1    1    2    0    0 -0.79241396866E+01 -0.40417836816E+00 -0.34649275992E+03  0.34658359458E+03  0.00000000000E+00 0.  1.
        -15    1    1    2    0    0  0.13211872253E+02 -0.10097952479E+02 -0.13333067554E+03  0.13437540319E+03  0.17770000000E+01 0.  1.
         15    1    1    2    0    0 -0.93889813401E+00  0.51750546013E+01 -0.19191675597E+02  0.19978509980E+02  0.17770000000E+01 0. -1.
</event>
<event>
 6    1  0.2408691E-003  0.5065411E+03  0.7546771E-02  0.9385291E-01
        -11   -1    0    0    0    0  0.00000000000E+00  0.00000000000E+00  0.50000000000E+03  0.50000000000E+03  0.00000000000E+00 0. -1.
         11   -1    0    0    0    0 -0.00000000000E+00 -0.00000000000E+00 -0.50000000000E+03  0.50000000000E+03  0.00000000000E+00 0. -1.
        -11    1    1    2    0    0 -0.17464071781E+02 -0.15668308092E+02  0.49290076555E+03  0.49345886795E+03  0.00000000000E+00 0. -1.
         11    1    1    2    0    0 -0.36535623173E+01  0.83445990342E+01 -0.44138747153E+03  0.44148146153E+03  0.00000000000E+00 0. -1.
        -15    1    1    2    0    0  0.15353827971E+02 -0.96509801099E+01 -0.12526839750E+02  0.22112460143E+02  0.17770000000E+01 0. -1.
         15    1    1    2    0    0  0.57638061269E+01  0.16974689168E+02 -0.38986454273E+02  0.42947210378E+02  0.17770000000E+01 0.  1.
</event>
<event>
 6    1  0.2408691E-003  0.5056177E+03  0.7546771E-02  0.9387327E-01
        -11   -1    0    0    0    0  0.00000000000E+00  0.00000000000E+00  0.50000000000E+03  0.50000000000E+03  0.00000000000E+00 0.  1.
         11   -1    0    0    0    0 -0.00000000000E+00 -0.00000000000E+00 -0.50000000000E+03  0.50000000000E+03  0.00000000000E+00 0. -1.
        -11    1    1    2    0    0  0.42250763343E+01 -0.75649523654E+01  0.49430633946E+03  0.49438227820E+03  0.00000000000E+00 0.  1.
         11    1    1    2    0    0  0.29858018688E+01 -0.35433980466E+01 -0.33353806874E+03  0.33357025344E+03  0.00000000000E+00 0. -1.
        -15    1    1    2    0    0 -0.16209477553E+02  0.14257038350E+02 -0.15936200987E+02  0.26891086552E+02  0.17770000000E+01 0.  1.
         15    1    1    2    0    0  0.89985993502E+01 -0.31486879379E+01 -0.14483206973E+03  0.14515638180E+03  0.17770000000E+01 0. -1.
</event>
<event>
 6    1  0.2408691E-003  0.5002603E+03  0.7546771E-02  0.9399227E-01
        -11   -1    0    0    0    0  0.00000000000E+00  0.00000000000E+00  0.50000000000E+03  0.50000000000E+03  0.00000000000E+00 0.  1.
         11   -1    0    0    0    0 -0.00000000000E+00 -0.00000000000E+00 -0.50000000000E+03  0.50000000000E+03  0.00000000000E+00 0. -1.
        -11    1    1    2    0    0  0.58508038960E+01 -0.41185488715E+01  0.49968846023E+03  0.49973968387E+03  0.00000000000E+00 0.  1.
         11    1    1    2    0    0 -0.18046061858E+01 -0.23191129311E+01 -0.20504102451E+03  0.20506207992E+03  0.00000000000E+00 0. -1.
        -15    1    1    2    0    0  0.54117010819E+01  0.43898104149E+01 -0.17470237788E+03  0.17485032316E+03  0.17770000000E+01 0. -1.
         15    1    1    2    0    0 -0.94578987921E+01  0.20478513877E+01 -0.11994505784E+03  0.12034791304E+03  0.17770000000E+01 0. -1.
</event>
<event>
 6    1  0.2408691E-003  0.5006570E+03  0.7546771E-02  0.9398341E-01
        -11   -1    0    0    0    0  0.00000000000E+00  0.00000000000E+00  0.50000000000E+03  0.50000000000E+03  0.00000000000E+00 0. -1.
         11   -1    0    0    0    0 -0.00000000000E+00 -0.00000000000E+00 -0.50000000000E+03  0.50000000000E+03  0.00000000000E+00 0.  1.
        -11    1    1    2    0    0  0.73080970252E+01 -0.95330468128E+01  0.49919853497E+03  0.49934303298E+03  0.00000000000E+00 0. -1.
         11    1    1    2    0    0  0.19096790337E+01  0.43363661795E+01 -0.29464232314E+03  0.29468041932E+03  0.00000000000E+00 0.  1.
        -15    1    1    2    0    0 -0.27301786062E+01  0.84828451691E+01 -0.32193531665E+02  0.33451363910E+02  0.17770000000E+01 0. -1.
         15    1    1    2    0    0 -0.64875974527E+01 -0.32861645358E+01 -0.17236268017E+03  0.17252518380E+03  0.17770000000E+01 0.  1.
</event>
<event>
 6    1  0.2408691E-003  0.4927834E+03  0.7546771E-02  0.9416104E-01
        -11   -1    0    0    0    0  0.00000000000E+00  0.00000000000E+00  0.50000000000E+03  0.50000000000E+03  0.00000000000E+00 0.  1.
         11   -1    0    0    0    0 -0.00000000000E+00 -0.00000000000E+00 -0.50000000000E+03  0.50000000000E+03  0.00000000000E+00 0. -1.
        -11    1    1    2    0    0 -0.11750704520E+01  0.69583322899E+01  0.49469252381E+03  0.49474285471E+03  0.00000000000E+00 0.  1.
         11    1    1    2    0    0 -0.70582635263E+01 -0.39949057785E+01 -0.49080349574E+03  0.49087050206E+03  0.00000000000E+00 0. -1.
        -15    1    1    2    0    0 -0.17733090246E+00 -0.39387248888E+01  0.10146278087E+01  0.44420939419E+01  0.17770000000E+01 0.  1.
         15    1    1    2    0    0  0.84106648807E+01  0.97529837738E+00 -0.49036558713E+01  0.99445492892E+01  0.17770000000E+01 0. -1.
</event>
<event>
 6    1  0.2408691E-003  0.5073300E+03  0.7546771E-02  0.9383556E-01
        -11   -1    0    0    0    0  0.00000000000E+00  0.00000000000E+00  0.50000000000E+03  0.50000000000E+03  0.00000000000E+00 0.  1.
         11   -1    0    0    0    0 -0.00000000000E+00 -0.00000000000E+00 -0.50000000000E+03  0.50000000000E+03  0.00000000000E+00 0. -1.
        -11    1    1    2    0    0 -0.10086935613E+02  0.12414012573E+02  0.49241029167E+03  0.49267002072E+03  0.00000000000E+00 0.  1.
         11    1    1    2    0    0  0.30267898249E+01  0.13620537897E+02 -0.44662006060E+03  0.44683795613E+03  0.00000000000E+00 0. -1.
        -15    1    1    2    0    0 -0.10576271351E+02 -0.62299558594E+01 -0.19481660410E+02  0.23094646285E+02  0.17770000000E+01 0. -1.
         15    1    1    2    0    0  0.17636417139E+02 -0.19804594610E+02 -0.26308570655E+02  0.37397376861E+02  0.17770000000E+01 0.  1.
</event>
<event>
 6    1  0.2408691E-003  0.4987480E+03  0.7546771E-02  0.9402615E-01
        -11   -1    0    0    0    0  0.00000000000E+00  0.00000000000E+00  0.50000000000E+03  0.50000000000E+03  0.00000000000E+00 0.  1.
         11   -1    0    0    0    0 -0.00000000000E+00 -0.00000000000E+00 -0.50000000000E+03  0.50000000000E+03  0.00000000000E+00 0. -1.
        -11    1    1    2    0    0 -0.77517324456E+00 -0.71478084007E+01  0.49853112145E+03  0.49858296312E+03  0.00000000000E+00 0.  1.
         11    1    1    2    0    0 -0.29017754415E+01 -0.96116387430E+00 -0.19450127444E+01  0.36231493597E+01  0.00000000000E+00 0. -1.
        -15    1    1    2    0    0  0.18344925931E+02  0.71002680628E+01 -0.30178649076E+03  0.30243213098E+03  0.17770000000E+01 0. -1.
         15    1    1    2    0    0 -0.14667977245E+02  0.10087042122E+01 -0.19479961795E+03  0.19536175655E+03  0.17770000000E+01 0. -1.
</event>
<event>
 6    1  0.2408691E-003  0.5070851E+03  0.7546771E-02  0.9384094E-01
        -11   -1    0    0    0    0  0.00000000000E+00  0.00000000000E+00  0.50000000000E+03  0.50000000000E+03  0.00000000000E+00 0.  1.
         11   -1    0    0    0    0 -0.00000000000E+00 -0.00000000000E+00 -0.50000000000E+03  0.50000000000E+03  0.00000000000E+00 0.  1.
        -11    1    1    2    0    0 -0.12365584877E+02 -0.22277956232E+02  0.38462299592E+03  0.38546603484E+03  0.00000000000E+00 0.  1.
         11    1    1    2    0    0 -0.44601221686E+01  0.69593360558E+01 -0.49284557500E+03  0.49291488702E+03  0.00000000000E+00 0.  1.
        -15    1    1    2    0    0  0.26471043141E+02 -0.92521055921E+00  0.25720883177E+02  0.36963410285E+02  0.17770000000E+01 0. -1.
         15    1    1    2    0    0 -0.96453360953E+01  0.16243830736E+02  0.82501695900E+02  0.84655667859E+02  0.17770000000E+01 0.  1.
</event>
<event>
 6    1  0.2408691E-003  0.5112325E+03  0.7546771E-02  0.9375021E-01
        -11   -1    0    0    0    0  0.00000000000E+00  0.00000000000E+00  0.50000000000E+03  0.50000000000E+03  0.00000000000E+00 0.  1.
         11   -1    0    0    0    0 -0.00000000000E+00 -0.00000000000E+00 -0.50000000000E+03  0.50000000000E+03  0.00000000000E+00 0.  1.
        -11    1    1    2    0    0 -0.19853009394E+02  0.15091061519E+02  0.36955436840E+03  0.37039480736E+03  0.00000000000E+00 0.  1.
         11    1    1    2    0    0  0.23059689914E+01  0.16252243101E+02 -0.48849177984E+03  0.48876750288E+03  0.00000000000E+00 0.  1.
        -15    1    1    2    0    0  0.16106715970E+02 -0.20981523002E+02  0.12556080474E+03  0.12832896798E+03  0.17770000000E+01 0.  1.
         15    1    1    2    0    0  0.14403244330E+01 -0.10361781618E+02 -0.66233932943E+01  0.12508721777E+02  0.17770000000E+01 0. -1.
</event>
<event>
 6    1  0.2408691E-003  0.5033186E+03  0.7546771E-02  0.9392415E-01
        -11   -1    0    0    0    0  0.00000000000E+00  0.00000000000E+00  0.50000000000E+03  0.50000000000E+03  0.00000000000E+00 0.  1.
         11   -1    0    0    0    0 -0.00000000000E+00 -0.00000000000E+00 -0.50000000000E+03  0.50000000000E+03  0.00000000000E+00 0.  1.
        -11    1    1    2    0    0  0.21447599460E+01 -0.97243008770E+01  0.49658157425E+03  0.49668140886E+03  0.00000000000E+00 0.  1.
         11    1    1    2    0    0  0.42924370802E+01 -0.44977488561E+01 -0.44916468838E+03  0.44920771593E+03  0.00000000000E+00 0.  1.
        -15    1    1    2    0    0 -0.91570926730E+01  0.11315861016E+02 -0.13556050666E+02  0.19970610793E+02  0.17770000000E+01 0.  1.
         15    1    1    2    0    0  0.27198956468E+01  0.29061887168E+01 -0.33860835200E+02  0.34140264419E+02  0.17770000000E+01 0. -1.
</event>
<event>
 6    1  0.2408691E-003  0.5006201E+03  0.7546771E-02  0.9398423E-01
        -11   -1    0    0    0    0  0.00000000000E+00  0.00000000000E+00  0.50000000000E+03  0.50000000000E+03  0.00000000000E+00 0. -1.
         11   -1    0    0    0    0 -0.00000000000E+00 -0.00000000000E+00 -0.50000000000E+03  0.50000000000E+03  0.00000000000E+00 0. -1.
        -11    1    1    2    0    0  0.50396269683E+01  0.10544203066E+02  0.49924313907E+03  0.49937990545E+03  0.00000000000E+00 0. -1.
         11    1    1    2    0    0  0.33335876123E+01 -0.67059438260E+00 -0.11793831414E+03  0.11798732324E+03  0.00000000000E+00 0. -1.
        -15    1    1    2    0    0  0.16790558159E+01  0.95675007553E+01 -0.11248086585E+03  0.11291350322E+03  0.17770000000E+01 0.  1.
         15    1    1    2    0    0 -0.10052270397E+02 -0.19441109438E+02 -0.26882395908E+03  0.26971926809E+03  0.17770000000E+01 0. -1.
</event>
<event>
 6    1  0.2408691E-003  0.5005188E+03  0.7546771E-02  0.9398650E-01
        -11   -1    0    0    0    0  0.00000000000E+00  0.00000000000E+00  0.50000000000E+03  0.50000000000E+03  0.00000000000E+00 0.  1.
         11   -1    0    0    0    0 -0.00000000000E+00 -0.00000000000E+00 -0.50000000000E+03  0.50000000000E+03  0.00000000000E+00 0. -1.
        -11    1    1    2    0    0 -0.77443961156E+01 -0.43513153034E+01  0.49940222037E+03  0.49948121819E+03  0.00000000000E+00 0.  1.
         11    1    1    2    0    0  0.21061663598E+01 -0.58759661022E+01 -0.33033097699E+03  0.33038994729E+03  0.00000000000E+00 0. -1.
        -15    1    1    2    0    0  0.57485295390E+01  0.78015509937E+01 -0.16350314361E+03  0.16379971150E+03  0.17770000000E+01 0. -1.
         15    1    1    2    0    0 -0.11029978327E+00  0.24257304120E+01 -0.55680997714E+01  0.63291230149E+01  0.17770000000E+01 0.  1.
</event>
<event>
 6    1  0.3097483E-003  0.5019991E+03  0.7546771E-02  0.9395348E-01
        -11   -1    0    0    0    0  0.00000000000E+00  0.00000000000E+00  0.50000000000E+03  0.50000000000E+03  0.00000000000E+00 0. -1.
         11   -1    0    0    0    0 -0.00000000000E+00 -0.00000000000E+00 -0.50000000000E+03  0.50000000000E+03  0.00000000000E+00 0.  1.
        -11    1    1    2    0    0 -0.54813934373E+01  0.10956009288E+00  0.39188343007E+03  0.39192177847E+03  0.00000000000E+00 0. -1.
         11    1    1    2    0    0  0.94399021821E+01  0.92664545860E+01 -0.49782518137E+03  0.49800089371E+03  0.00000000000E+00 0.  1.
        -15    1    1    2    0    0  0.51444843645E+01 -0.13513734411E+01  0.88923961170E+02  0.89100620249E+02  0.17770000000E+01 0.  1.
         15    1    1    2    0    0 -0.91029931092E+01 -0.80246412378E+01  0.17017790127E+02  0.20976707567E+02  0.17770000000E+01 0. -1.
</event>
<event>
 6    1  0.2408691E-003  0.5021262E+03  0.7546771E-02  0.9395065E-01
        -11   -1    0    0    0    0  0.00000000000E+00  0.00000000000E+00  0.50000000000E+03  0.50000000000E+03  0.00000000000E+00 0.  1.
         11   -1    0    0    0    0 -0.00000000000E+00 -0.00000000000E+00 -0.50000000000E+03  0.50000000000E+03  0.00000000000E+00 0.  1.
        -11    1    1    2    0    0 -0.69764566683E+01 -0.41421690167E+01  0.36169625365E+03  0.36178724192E+03  0.00000000000E+00 0.  1.
         11    1    1    2    0    0 -0.82406428797E+01 -0.12310279562E+02 -0.49765332467E+03  0.49787376185E+03  0.00000000000E+00 0.  1.
        -15    1    1    2    0    0 -0.57432731980E+01  0.11707432889E+02  0.47267061277E+02  0.49065079055E+02  0.17770000000E+01 0.  1.
         15    1    1    2    0    0  0.20960372746E+02  0.47450156897E+01  0.88690009742E+02  0.91273917176E+02  0.17770000000E+01 0. -1.
</event>
<event>
 6    1  0.2408691E-003  0.5149273E+03  0.7546771E-02  0.9367015E-01
        -11   -1    0    0    0    0  0.00000000000E+00  0.00000000000E+00  0.50000000000E+03  0.50000000000E+03  0.00000000000E+00 0. -1.
         11   -1    0    0    0    0 -0.00000000000E+00 -0.00000000000E+00 -0.50000000000E+03  0.50000000000E+03  0.00000000000E+00 0.  1.
        -11    1    1    2    0    0  0.22772827870E+01 -0.49340718699E+01  0.32282556976E+03  0.32287130497E+03  0.00000000000E+00 0. -1.
         11    1    1    2    0    0  0.76855226999E+01 -0.55853861842E+01 -0.48497964210E+03  0.48507269254E+03  0.00000000000E+00 0.  1.
        -15    1    1    2    0    0 -0.73416870839E+01 -0.40003217512E+02  0.11820183244E+03  0.12501595379E+03  0.17770000000E+01 0.  1.
         15    1    1    2    0    0 -0.26211184029E+01  0.50522675566E+02  0.43952239899E+02  0.67040048697E+02  0.17770000000E+01 0. -1.
</event>
<event>
 6    1  0.2408691E-003  0.5406683E+03  0.7546771E-02  0.9313144E-01
        -11   -1    0    0    0    0  0.00000000000E+00  0.00000000000E+00  0.50000000000E+03  0.50000000000E+03  0.00000000000E+00 0. -1.
         11   -1    0    0    0    0 -0.00000000000E+00 -0.00000000000E+00 -0.50000000000E+03  0.50000000000E+03  0.00000000000E+00 0. -1.
        -11    1    1    2    0    0  0.61111062318E+02  0.39227999339E+01  0.13332769556E+03  0.14671818122E+03  0.00000000000E+00 0. -1.
         11    1    1    2    0    0 -0.87925554504E+01  0.32960465244E+01 -0.45923568322E+03  0.45933167286E+03  0.00000000000E+00 0. -1.
        -15    1    1    2    0    0 -0.33077740150E+02  0.51248403605E+02 -0.12626406821E+01  0.61035135422E+02  0.17770000000E+01 0.  1.
         15    1    1    2    0    0 -0.19240766717E+02 -0.58467250064E+02  0.32717062835E+03  0.33291501050E+03  0.17770000000E+01 0. -1.
</event>
<event>
 6    1  0.2408691E-003  0.5155988E+03  0.7546771E-02  0.9365567E-01
        -11   -1    0    0    0    0  0.00000000000E+00  0.00000000000E+00  0.50000000000E+03  0.50000000000E+03  0.00000000000E+00 0.  1.
         11   -1    0    0    0    0 -0.00000000000E+00 -0.00000000000E+00 -0.50000000000E+03  0.50000000000E+03  0.00000000000E+00 0. -1.
        -11    1    1    2    0    0  0.29013407778E+01 -0.60314148761E+01  0.47893773774E+03  0.47898450119E+03  0.00000000000E+00 0.  1.
         11    1    1    2    0    0 -0.10505550410E+02  0.80535456288E+01 -0.48422032181E+03  0.48440122444E+03  0.00000000000E+00 0. -1.
        -15    1    1    2    0    0 -0.84353353960E+01  0.11228259594E+02 -0.24144896179E+01  0.14360229311E+02  0.17770000000E+01 0.  1.
         15    1    1    2    0    0  0.16039545028E+02 -0.13250390347E+02  0.76970736860E+01  0.22254045057E+02  0.17770000000E+01 0. -1.
</event>
<event>
 6    1  0.2408691E-003  0.4376877E+03  0.7546771E-02  0.9551165E-01
        -11   -1    0    0    0    0  0.00000000000E+00  0.00000000000E+00  0.50000000000E+03  0.50000000000E+03  0.00000000000E+00 0. -1.
         11   -1    0    0    0    0 -0.00000000000E+00 -0.00000000000E+00 -0.50000000000E+03  0.50000000000E+03  0.00000000000E+00 0.  1.
        -11    1    1    2    0    0  0.63189125757E+01 -0.39336870735E+00  0.44577943878E+03  0.44582439529E+03  0.00000000000E+00 0. -1.
         11    1    1    2    0    0  0.21881169280E+02  0.18209417031E+01 -0.42959509554E+03  0.43015584095E+03  0.00000000000E+00 0.  1.
        -15    1    1    2    0    0 -0.35080915520E+02 -0.13666819240E+02 -0.63933891935E+02  0.74216931011E+02  0.17770000000E+01 0. -1.
         15    1    1    2    0    0  0.68808336644E+01  0.12239246244E+02  0.47749548688E+02  0.49802832745E+02  0.17770000000E+01 0.  1.
</event>
<event>
 6    1  0.2408691E-003  0.5047776E+03  0.7546771E-02  0.9389182E-01
        -11   -1    0    0    0    0  0.00000000000E+00  0.00000000000E+00  0.50000000000E+03  0.50000000000E+03  0.00000000000E+00 0. -1.
         11   -1    0    0    0    0 -0.00000000000E+00 -0.00000000000E+00 -0.50000000000E+03  0.50000000000E+03  0.00000000000E+00 0. -1.
        -11    1    1    2    0    0  0.79646565678E+01 -0.44916658108E+01  0.47185963502E+03  0.47194822383E+03  0.00000000000E+00 0. -1.
         11    1    1    2    0    0 -0.85946577488E+01 -0.57269049924E+01 -0.49511466875E+03  0.49522237509E+03  0.00000000000E+00 0. -1.
        -15    1    1    2    0    0  0.84530452219E+00  0.11897540255E+02  0.26291477362E+02  0.28925170954E+02  0.17770000000E+01 0.  1.
         15    1    1    2    0    0 -0.21530334118E+00 -0.16789694522E+01 -0.30364436298E+01  0.39042301248E+01  0.17770000000E+01 0. -1.
</event>
<event>
 6    1  0.2408691E-003  0.5502299E+03  0.7546771E-02  0.9293938E-01
        -11   -1    0    0    0    0  0.00000000000E+00  0.00000000000E+00  0.50000000000E+03  0.50000000000E+03  0.00000000000E+00 0. -1.
         11   -1    0    0    0    0 -0.00000000000E+00 -0.00000000000E+00 -0.50000000000E+03  0.50000000000E+03  0.00000000000E+00 0. -1.
        -11    1    1    2    0    0 -0.75015710221E+01  0.11298957520E+02  0.42102326885E+03  0.42124165621E+03  0.00000000000E+00 0. -1.
         11    1    1    2    0    0 -0.24739260867E+02 -0.34040719636E+02 -0.44779724880E+03  0.44977013869E+03  0.00000000000E+00 0. -1.
        -15    1    1    2    0    0 -0.41863590300E+02  0.80022673571E+01 -0.11627271402E+02  0.44214789889E+02  0.17770000000E+01 0.  1.
         15    1    1    2    0    0  0.74104422189E+02  0.14739494759E+02  0.38401251350E+02  0.84773415219E+02  0.17770000000E+01 0. -1.
</event>
<event>
 6    1  0.2408691E-003  0.5012203E+03  0.7546771E-02  0.9397083E-01
        -11   -1    0    0    0    0  0.00000000000E+00  0.00000000000E+00  0.50000000000E+03  0.50000000000E+03  0.00000000000E+00 0. -1.
         11   -1    0    0    0    0 -0.00000000000E+00 -0.00000000000E+00 -0.50000000000E+03  0.50000000000E+03  0.00000000000E+00 0. -1.
        -11    1    1    2    0    0  0.23018659135E+01 -0.52972229734E+01  0.41779826037E+03  0.41783818103E+03  0.00000000000E+00 0. -1.
         11    1    1    2    0    0  0.29152486348E+00 -0.73078611913E+01 -0.49872609046E+03  0.49877971403E+03  0.00000000000E+00 0. -1.
        -15    1    1    2    0    0 -0.41565363059E+01  0.95772562526E+01  0.22934971899E+02  0.25262052498E+02  0.17770000000E+01 0.  1.
         15    1    1    2    0    0  0.15631455290E+01  0.30278279122E+01  0.57992858194E+02  0.58120052446E+02  0.17770000000E+01 0. -1.
</event>
<event>
 6    1  0.2408691E-003  0.5004534E+03  0.7546771E-02  0.9398796E-01
        -11   -1    0    0    0    0  0.00000000000E+00  0.00000000000E+00  0.50000000000E+03  0.50000000000E+03  0.00000000000E+00 0. -1.
         11   -1    0    0    0    0 -0.00000000000E+00 -0.00000000000E+00 -0.50000000000E+03  0.50000000000E+03  0.00000000000E+00 0.  1.
        -11    1    1    2    0    0  0.69668560330E+01  0.33062390958E+00  0.30251087105E+03  0.30259126474E+03  0.00000000000E+00 0. -1.
         11    1    1    2    0    0 -0.32554069817E+01  0.87595765588E+01 -0.49945921399E+03  0.49954662876E+03  0.00000000000E+00 0.  1.
        -15    1    1    2    0    0  0.29968153920E+01 -0.49365762340E+01  0.24857344876E+02  0.25581165155E+02  0.17770000000E+01 0.  1.
         15    1    1    2    0    0 -0.67082644433E+01 -0.41536242343E+01  0.17209099807E+03  0.17228094135E+03  0.17770000000E+01 0. -1.
</event>
<event>
 6    1  0.2408691E-003  0.5060212E+03  0.7546771E-02  0.9386437E-01
        -11   -1    0    0    0    0  0.00000000000E+00  0.00000000000E+00  0.50000000000E+03  0.50000000000E+03  0.00000000000E+00 0. -1.
         11   -1    0    0    0    0 -0.00000000000E+00 -0.00000000000E+00 -0.50000000000E+03  0.50000000000E+03  0.00000000000E+00 0.  1.
        -11    1    1    2    0    0  0.52254503788E+01  0.70252562042E+01  0.49390119066E+03  0.49397879073E+03  0.00000000000E+00 0. -1.
         11    1    1    2    0    0 -0.49766615369E+01  0.42817979056E+01 -0.31061719674E+03  0.31068656853E+03  0.00000000000E+00 0.  1.
        -15    1    1    2    0    0 -0.28643490337E+01 -0.21156159665E+01  0.52290165882E+01  0.65712000262E+01  0.17770000000E+01 0. -1.
         15    1    1    2    0    0  0.26155601918E+01 -0.91914381433E+01 -0.18851301050E+03  0.18876344071E+03  0.17770000000E+01 0. -1.
</event>
<event>
 6    1  0.2408691E-003  0.5014682E+03  0.7546771E-02  0.9396531E-01
        -11   -1    0    0    0    0  0.00000000000E+00  0.00000000000E+00  0.50000000000E+03  0.50000000000E+03  0.00000000000E+00 0.  1.
         11   -1    0    0    0    0 -0.00000000000E+00 -0.00000000000E+00 -0.50000000000E+03  0.50000000000E+03  0.00000000000E+00 0.  1.
        -11    1    1    2    0    0  0.84049330095E+00 -0.88055845120E+01  0.49845335252E+03  0.49853183387E+03  0.00000000000E+00 0.  1.
         11    1    1    2    0    0  0.46627518756E+01  0.58977912300E+01 -0.47558467876E+02  0.48149071260E+02  0.00000000000E+00 0.  1.
        -15    1    1    2    0    0 -0.46883535468E+01 -0.14500048937E+02 -0.56815781663E+02  0.58850852611E+02  0.17770000000E+01 0. -1.
         15    1    1    2    0    0 -0.81489162974E+00  0.17407842219E+02 -0.39407910298E+03  0.39446824226E+03  0.17770000000E+01 0.  1.
</event>
<event>
 6    1  0.4321002E-003  0.5004626E+03  0.7546771E-02  0.9398775E-01
        -11   -1    0    0    0    0  0.00000000000E+00  0.00000000000E+00  0.50000000000E+03  0.50000000000E+03  0.00000000000E+00 0.  1.
         11   -1    0    0    0    0 -0.00000000000E+00 -0.00000000000E+00 -0.50000000000E+03  0.50000000000E+03  0.00000000000E+00 0.  1.
        -11    1    1    2    0    0  0.16219165055E+02 -0.31481441596E+01  0.49926414900E+03  0.49953744865E+03  0.00000000000E+00 0.  1.
         11    1    1    2    0    0 -0.81345573075E+00  0.96549421538E-01 -0.51095494272E+02  0.51102060300E+02  0.00000000000E+00 0.  1.
        -15    1    1    2    0    0 -0.22865503482E+01 -0.43001914751E+01 -0.34933268648E+03  0.34937115441E+03  0.17770000000E+01 0.  1.
         15    1    1    2    0    0 -0.13119158976E+02  0.73517862132E+01 -0.98835968247E+02  0.99989336637E+02  0.17770000000E+01 0. -1.
</event>
<event>
 6    1  0.2408691E-003  0.5015825E+03  0.7546771E-02  0.9396276E-01
        -11   -1    0    0    0    0  0.00000000000E+00  0.00000000000E+00  0.50000000000E+03  0.50000000000E+03  0.00000000000E+00 0. -1.
         11   -1    0    0    0    0 -0.00000000000E+00 -0.00000000000E+00 -0.50000000000E+03  0.50000000000E+03  0.00000000000E+00 0. -1.
        -11    1    1    2    0    0  0.29990153479E+01 -0.48256723914E+01  0.16310547531E+03  0.16320440338E+03  0.00000000000E+00 0. -1.
         11    1    1    2    0    0  0.14672161887E+02  0.14238751418E+02 -0.49799793486E+03  0.49841745305E+03  0.00000000000E+00 0. -1.
        -15    1    1    2    0    0 -0.87722011148E+01  0.23307062300E+01  0.30363880859E+03  0.30377963644E+03  0.17770000000E+01 0. -1.
         15    1    1    2    0    0 -0.88989761199E+01 -0.11743785257E+02  0.31253650967E+02  0.34598507134E+02  0.17770000000E+01 0.  1.
</event>
<event>
 6    1  0.2408691E-003  0.5013669E+03  0.7546771E-02  0.9396756E-01
        -11   -1    0    0    0    0  0.00000000000E+00  0.00000000000E+00  0.50000000000E+03  0.50000000000E+03  0.00000000000E+00 0. -1.
         11   -1    0    0    0    0 -0.00000000000E+00 -0.00000000000E+00 -0.50000000000E+03  0.50000000000E+03  0.00000000000E+00 0. -1.
        -11    1    1    2    0    0 -0.15904221093E+02 -0.19172450847E+00  0.49837940528E+03  0.49863314432E+03  0.00000000000E+00 0. -1.
         11    1    1    2    0    0 -0.11871091276E+01  0.66909411281E+01 -0.38201101851E+03  0.38207145429E+03  0.00000000000E+00 0. -1.
        -15    1    1    2    0    0  0.56174742047E+01 -0.36497134559E+01 -0.94948345770E+01  0.11755255735E+02  0.17770000000E+01 0.  1.
         15    1    1    2    0    0  0.11473856016E+02 -0.28495031637E+01 -0.10687355219E+03  0.10754014565E+03  0.17770000000E+01 0. -1.
</event>
<event>
 6    1  0.2408691E-003  0.5517243E+03  0.7546771E-02  0.9290974E-01
        -11   -1    0    0    0    0  0.00000000000E+00  0.00000000000E+00  0.50000000000E+03  0.50000000000E+03  0.00000000000E+00 0. -1.
         11   -1    0    0    0    0 -0.00000000000E+00 -0.00000000000E+00 -0.50000000000E+03  0.50000000000E+03  0.00000000000E+00 0.  1.
        -11    1    1    2    0    0 -0.86452751647E+01  0.21533037308E+02  0.42866392496E+03  0.42929147795E+03  0.00000000000E+00 0. -1.
         11    1    1    2    0    0  0.56150569966E+01 -0.46840840859E+01 -0.44821604411E+03  0.44827568716E+03  0.00000000000E+00 0.  1.
        -15    1    1    2    0    0 -0.35503089217E+02  0.29830573693E+01 -0.36845913358E+02  0.51284959154E+02  0.17770000000E+01 0. -1.
         15    1    1    2    0    0  0.38533307385E+02 -0.19832010591E+02  0.56398032506E+02  0.71147875735E+02  0.17770000000E+01 0.  1.
</event>
<event>
 6    1  0.2408691E-003  0.5042480E+03  0.7546771E-02  0.9390354E-01
        -11   -1    0    0    0    0  0.00000000000E+00  0.00000000000E+00  0.50000000000E+03  0.50000000000E+03  0.00000000000E+00 0. -1.
         11   -1    0    0    0    0 -0.00000000000E+00 -0.00000000000E+00 -0.50000000000E+03  0.50000000000E+03  0.00000000000E+00 0. -1.
        -11    1    1    2    0    0  0.69932302555E+01 -0.26316981933E+01  0.49569569218E+03  0.49575200489E+03  0.00000000000E+00 0. -1.
         11    1    1    2    0    0 -0.13209980133E+02 -0.11133405506E+02 -0.46878668449E+03  0.46910490495E+03  0.00000000000E+00 0. -1.
        -15    1    1    2    0    0 -0.28187091991E+01  0.35893493084E+01  0.43470036500E-01  0.48977718047E+01  0.17770000000E+01 0.  1.
         15    1    1    2    0    0  0.90354590768E+01  0.10175754391E+02 -0.26952477729E+02  0.30245318363E+02  0.17770000000E+01 0. -1.
</event>
<event>
 6    1  0.2408691E-003  0.5001479E+03  0.7546771E-02  0.9399479E-01
        -11   -1    0    0    0    0  0.00000000000E+00  0.00000000000E+00  0.50000000000E+03  0.50000000000E+03  0.00000000000E+00 0.  1.
         11   -1    0    0    0    0 -0.00000000000E+00 -0.00000000000E+00 -0.50000000000E+03  0.50000000000E+03  0.00000000000E+00 0. -1.
        -11    1    1    2    0    0  0.37250712095E+01 -0.24840951516E+01  0.27019362513E+03  0.27023071984E+03  0.00000000000E+00 0.  1.
         11    1    1    2    0    0  0.33497345316E+01  0.70242098063E+01 -0.49979150882E+03  0.49985209066E+03  0.00000000000E+00 0. -1.
        -15    1    1    2    0    0 -0.34732271700E+01 -0.63728115295E+01  0.12183324315E+03  0.12206216817E+03  0.17770000000E+01 0.  1.
         15    1    1    2    0    0 -0.36015785711E+01  0.18326968747E+01  0.10776464055E+03  0.10785502134E+03  0.17770000000E+01 0. -1.
</event>
<event>
 6    1  0.3369909E-003  0.5001320E+03  0.7546771E-02  0.9399514E-01
        -11   -1    0    0    0    0  0.00000000000E+00  0.00000000000E+00  0.50000000000E+03  0.50000000000E+03  0.00000000000E+00 0.  1.
         11   -1    0    0    0    0 -0.00000000000E+00 -0.00000000000E+00 -0.50000000000E+03  0.50000000000E+03  0.00000000000E+00 0.  1.
        -11    1    1    2    0    0 -0.74766580465E+01  0.10786685091E+01  0.49981094839E+03  0.49986803065E+03  0.00000000000E+00 0.  1.
         11    1    1    2    0    0 -0.27489389749E+00  0.11232033813E+01 -0.66711936565E+02  0.66721957651E+02  0.00000000000E+00 0.  1.
        -15    1    1    2    0    0 -0.33023855840E+01 -0.13704146250E+01 -0.20098753266E+03  0.20102718672E+03  0.17770000000E+01 0. -1.
         15    1    1    2    0    0  0.11053937528E+02 -0.83145726538E+00 -0.23211147916E+03  0.23238282497E+03  0.17770000000E+01 0.  1.
</event>
<event>
 6    1  0.2408691E-003  0.5004254E+03  0.7546771E-02  0.9398858E-01
        -11   -1    0    0    0    0  0.00000000000E+00  0.00000000000E+00  0.50000000000E+03  0.50000000000E+03  0.00000000000E+00 0. -1.
         11   -1    0    0    0    0 -0.00000000000E+00 -0.00000000000E+00 -0.50000000000E+03  0.50000000000E+03  0.00000000000E+00 0. -1.
        -11    1    1    2    0    0  0.32652830770E+01 -0.32973069278E+01  0.28407746099E+03  0.28411536063E+03  0.00000000000E+00 0. -1.
         11    1    1    2    0    0 -0.94068479254E+01 -0.28610228784E+01 -0.49947782056E+03  0.49957458649E+03  0.00000000000E+00 0. -1.
        -15    1    1    2    0    0 -0.28295865719E+00  0.11272582634E+02  0.12347183723E+03  0.12399840121E+03  0.17770000000E+01 0.  1.
         15    1    1    2    0    0  0.64245235056E+01 -0.51142528274E+01  0.91928522343E+02  0.92311651666E+02  0.17770000000E+01 0. -1.
</event>
<event>
 6    1  0.2408691E-003  0.5001134E+03  0.7546771E-02  0.9399556E-01
        -11   -1    0    0    0    0  0.00000000000E+00  0.00000000000E+00  0.50000000000E+03  0.50000000000E+03  0.00000000000E+00 0. -1.
         11   -1    0    0    0    0 -0.00000000000E+00 -0.00000000000E+00 -0.50000000000E+03  0.50000000000E+03  0.00000000000E+00 0.  1.
        -11    1    1    2    0    0 -0.20070911980E+01  0.26144597254E+01  0.65084469038E+02  0.65167874944E+02  0.00000000000E+00 0. -1.
         11    1    1    2    0    0 -0.10440251727E+02 -0.20686172471E+01 -0.49977323427E+03  0.49988655086E+03  0.00000000000E+00 0.  1.
        -15    1    1    2    0    0  0.16768925479E+01  0.24831385116E+01  0.79703350434E+02  0.79779444376E+02  0.17770000000E+01 0. -1.
         15    1    1    2    0    0  0.10770450377E+02 -0.30289809900E+01  0.35498541480E+03  0.35516612983E+03  0.17770000000E+01 0.  1.
</event>
<event>
 6    1  0.2408691E-003  0.5207924E+03  0.7546771E-02  0.9354450E-01
        -11   -1    0    0    0    0  0.00000000000E+00  0.00000000000E+00  0.50000000000E+03  0.50000000000E+03  0.00000000000E+00 0.  1.
         11   -1    0    0    0    0 -0.00000000000E+00 -0.00000000000E+00 -0.50000000000E+03  0.50000000000E+03  0.00000000000E+00 0.  1.
        -11    1    1    2    0    0 -0.46546889852E+02 -0.37392007219E+02  0.47547356098E+03  0.47920755665E+03  0.00000000000E+00 0.  1.
         11    1    1    2    0    0 -0.57757332426E+01  0.23561594756E+01 -0.18875779766E+03  0.18886083966E+03  0.00000000000E+00 0.  1.
        -15    1    1    2    0    0  0.61611854891E+02  0.89571506273E+02 -0.21872559329E+03  0.24426034940E+03  0.17770000000E+01 0.  1.
         15    1    1    2    0    0 -0.92892317968E+01 -0.54535658530E+02 -0.67990170026E+02  0.87671254284E+02  0.17770000000E+01 0. -1.
</event>
<event>
 6    1  0.2408691E-003  0.5057564E+03  0.7546771E-02  0.9387021E-01
        -11   -1    0    0    0    0  0.00000000000E+00  0.00000000000E+00  0.50000000000E+03  0.50000000000E+03  0.00000000000E+00 0.  1.
         11   -1    0    0    0    0 -0.00000000000E+00 -0.00000000000E+00 -0.50000000000E+03  0.50000000000E+03  0.00000000000E+00 0. -1.
        -11    1    1    2    0    0 -0.14701692006E+02 -0.76356811253E+00  0.39537204665E+03  0.39564602621E+03  0.00000000000E+00 0.  1.
         11    1    1    2    0    0 -0.45760992583E+01  0.14218561834E+02 -0.49401780528E+03  0.49424356355E+03  0.00000000000E+00 0. -1.
        -15    1    1    2    0    0  0.92607820677E+01 -0.81218910958E+01  0.17869828472E+01  0.12572916773E+02  0.17770000000E+01 0.  1.
         15    1    1    2    0    0  0.10017009197E+02 -0.53331026257E+01  0.96858775775E+02  0.97537493461E+02  0.17770000000E+01 0. -1.
</event>
<event>
 6    1  0.2408691E-003  0.5196846E+03  0.7546771E-02  0.9356810E-01
        -11   -1    0    0    0    0  0.00000000000E+00  0.00000000000E+00  0.50000000000E+03  0.50000000000E+03  0.00000000000E+00 0. -1.
         11   -1    0    0    0    0 -0.00000000000E+00 -0.00000000000E+00 -0.50000000000E+03  0.50000000000E+03  0.00000000000E+00 0. -1.
        -11    1    1    2    0    0 -0.33407133011E+02 -0.31515931284E+02  0.26056174005E+03  0.26457836426E+03  0.00000000000E+00 0. -1.
         11    1    1    2    0    0 -0.52406502339E+01  0.85375500894E+01 -0.48021090192E+03  0.48031538025E+03  0.00000000000E+00 0. -1.
        -15    1    1    2    0    0  0.40413783704E+02 -0.28579492802E+02  0.28573407467E+02  0.57180929210E+02  0.17770000000E+01 0. -1.
         15    1    1    2    0    0 -0.17660004589E+01  0.51557873996E+02  0.19107575441E+03  0.19792532628E+03  0.17770000000E+01 0.  1.
</event>
<event>
 6    1  0.2408691E-003  0.5068361E+03  0.7546771E-02  0.9384642E-01
        -11   -1    0    0    0    0  0.00000000000E+00  0.00000000000E+00  0.50000000000E+03  0.50000000000E+03  0.00000000000E+00 0.  1.
         11   -1    0    0    0    0 -0.00000000000E+00 -0.00000000000E+00 -0.50000000000E+03  0.50000000000E+03  0.00000000000E+00 0. -1.
        -11    1    1    2    0    0 -0.52981631414E+01  0.36751518513E+01  0.41337243675E+03  0.41342272402E+03  0.00000000000E+00 0.  1.
         11    1    1    2    0    0 -0.36217023460E+01  0.85988944947E+01 -0.49307563352E+03  0.49316390590E+03  0.00000000000E+00 0. -1.
        -15    1    1    2    0    0  0.20464799258E+02  0.90258883786E+00  0.70714300592E+02  0.73643008578E+02  0.17770000000E+01 0. -1.
         15    1    1    2    0    0 -0.11544933770E+02 -0.13176635184E+02  0.89888961780E+01  0.19770361505E+02  0.17770000000E+01 0.  1.
</event>
<event>
 6    1  0.2408691E-003  0.5624818E+03  0.7546771E-02  0.9269925E-01
        -11   -1    0    0    0    0  0.00000000000E+00  0.00000000000E+00  0.50000000000E+03  0.50000000000E+03  0.00000000000E+00 0.  1.
         11   -1    0    0    0    0 -0.00000000000E+00 -0.00000000000E+00 -0.50000000000E+03  0.50000000000E+03  0.00000000000E+00 0.  1.
        -11    1    1    2    0    0 -0.16200842778E+02  0.39637856701E+01  0.34225212670E+03  0.34265828041E+03  0.00000000000E+00 0.  1.
         11    1    1    2    0    0 -0.25442764686E+02  0.17203648373E+02 -0.43643881903E+03  0.43751816253E+03  0.00000000000E+00 0.  1.
        -15    1    1    2    0    0  0.19008418662E+02  0.34207709352E+01 -0.59475943318E+02  0.62558510343E+02  0.17770000000E+01 0. -1.
         15    1    1    2    0    0  0.22635188802E+02 -0.24588204978E+02  0.15366263564E+03  0.15726504671E+03  0.17770000000E+01 0.  1.
</event>
<event>
 6    1  0.2408691E-003  0.5048110E+03  0.7546771E-02  0.9389109E-01
        -11   -1    0    0    0    0  0.00000000000E+00  0.00000000000E+00  0.50000000000E+03  0.50000000000E+03  0.00000000000E+00 0. -1.
         11   -1    0    0    0    0 -0.00000000000E+00 -0.00000000000E+00 -0.50000000000E+03  0.50000000000E+03  0.00000000000E+00 0. -1.
        -11    1    1    2    0    0 -0.42951799040E+01 -0.12118526865E+02  0.49502202185E+03  0.49518896330E+03  0.00000000000E+00 0. -1.
         11    1    1    2    0    0 -0.85957121858E+01 -0.44854925001E+00 -0.39656915420E+03  0.39666255372E+03  0.00000000000E+00 0. -1.
        -15    1    1    2    0    0  0.15366682379E+02  0.19059335998E+02 -0.27612205148E+02  0.36945700943E+02  0.17770000000E+01 0.  1.
         15    1    1    2    0    0 -0.24757902894E+01 -0.64922598825E+01 -0.70840662500E+02  0.71202782027E+02  0.17770000000E+01 0. -1.
</event>
<event>
 6    1  0.2408691E-003  0.5035673E+03  0.7546771E-02  0.9391863E-01
        -11   -1    0    0    0    0  0.00000000000E+00  0.00000000000E+00  0.50000000000E+03  0.50000000000E+03  0.00000000000E+00 0.  1.
         11   -1    0    0    0    0 -0.00000000000E+00 -0.00000000000E+00 -0.50000000000E+03  0.50000000000E+03  0.00000000000E+00 0. -1.
        -11    1    1    2    0    0 -0.51996931216E+01 -0.57035800619E+01  0.49637266542E+03  0.49643266472E+03  0.00000000000E+00 0.  1.
         11    1    1    2    0    0  0.28608341751E+01 -0.68209773017E+01 -0.45376523606E+03  0.45382551665E+03  0.00000000000E+00 0. -1.
        -15    1    1    2    0    0  0.63850522860E+01  0.16479808289E+01 -0.35208444009E+02  0.35864703986E+02  0.17770000000E+01 0. -1.
         15    1    1    2    0    0 -0.40461933395E+01  0.10876576535E+02 -0.73989853479E+01  0.13877114644E+02  0.17770000000E+01 0.  1.
</event>
<event>
 6    1  0.2408691E-003  0.5010420E+03  0.7546771E-02  0.9397481E-01
        -11   -1    0    0    0    0  0.00000000000E+00  0.00000000000E+00  0.50000000000E+03  0.50000000000E+03  0.00000000000E+00 0.  1.
         11   -1    0    0    0    0 -0.00000000000E+00 -0.00000000000E+00 -0.50000000000E+03  0.50000000000E+03  0.00000000000E+00 0. -1.
        -11    1    1    2    0    0 -0.32396595361E+01 -0.64292416959E+01  0.37608667615E+03  0.37615557754E+03  0.00000000000E+00 0.  1.
         11    1    1    2    0    0  0.80118271622E+01 -0.28225093203E+00 -0.49889355355E+03  0.49895796097E+03  0.00000000000E+00 0. -1.
        -15    1    1    2    0    0 -0.32357448392E+01 -0.16574839781E+00  0.11072954574E+03  0.11079118894E+03  0.17770000000E+01 0.  1.
         15    1    1    2    0    0 -0.15364227869E+01  0.68772410257E+01  0.12077331667E+02  0.14095272552E+02  0.17770000000E+01 0. -1.
</event>
<event>
 6    1  0.2408691E-003  0.5215457E+03  0.7546771E-02  0.9352850E-01
        -11   -1    0    0    0    0  0.00000000000E+00  0.00000000000E+00  0.50000000000E+03  0.50000000000E+03  0.00000000000E+00 0.  1.
         11   -1    0    0    0    0 -0.00000000000E+00 -0.00000000000E+00 -0.50000000000E+03  0.50000000000E+03  0.00000000000E+00 0. -1.
        -11    1    1    2    0    0  0.13354692148E+02  0.77141909752E+01  0.35389343715E+03  0.35422933447E+03  0.00000000000E+00 0.  1.
         11    1    1    2    0    0 -0.23879998357E+02  0.92033078363E+01 -0.47776938839E+03  0.47845432768E+03  0.00000000000E+00 0. -1.
        -15    1    1    2    0    0  0.24091711260E+02 -0.24964437397E+02 -0.70370929475E+01  0.35444493114E+02  0.17770000000E+01 0.  1.
         15    1    1    2    0    0 -0.13566405051E+02  0.80469385851E+01  0.13091304418E+03  0.13187184473E+03  0.17770000000E+01 0. -1.
</event>
<event>
 6    1  0.2408691E-003  0.5022749E+03  0.7546771E-02  0.9394734E-01
        -11   -1    0    0    0    0  0.00000000000E+00  0.00000000000E+00  0.50000000000E+03  0.50000000000E+03  0.00000000000E+00 0.  1.
         11   -1    0    0    0    0 -0.00000000000E+00 -0.00000000000E+00 -0.50000000000E+03  0.50000000000E+03  0.00000000000E+00 0. -1.
        -11    1    1    2    0    0 -0.99629248155E+00  0.69734889524E-01  0.25851043853E+02  0.25870329143E+02  0.00000000000E+00 0.  1.
         11    1    1    2    0    0 -0.70012445627E+01 -0.32300790535E+01 -0.49766538147E+03  0.49772510762E+03  0.00000000000E+00 0. -1.
        -15    1    1    2    0    0  0.13214555526E+02  0.12683859620E+00  0.17279144248E+02  0.21825836083E+02  0.17770000000E+01 0. -1.
         15    1    1    2    0    0 -0.52170184816E+01  0.30335055678E+01  0.45453519337E+03  0.45457872715E+03  0.17770000000E+01 0.  1.
</event>
<event>
 6    1  0.2408691E-003  0.5027709E+03  0.7546771E-02  0.9393631E-01
        -11   -1    0    0    0    0  0.00000000000E+00  0.00000000000E+00  0.50000000000E+03  0.50000000000E+03  0.00000000000E+00 0.  1.
         11   -1    0    0    0    0 -0.00000000000E+00 -0.00000000000E+00 -0.50000000000E+03  0.50000000000E+03  0.00000000000E+00 0.  1.
        -11    1    1    2    0    0 -0.84583114201E+01  0.72344278557E+01  0.46146386540E+03  0.46159807089E+03  0.00000000000E+00 0.  1.
         11    1    1    2    0    0 -0.43798065242E+01 -0.78912035757E+01 -0.49714716377E+03  0.49722907824E+03  0.00000000000E+00 0.  1.
        -15    1    1    2    0    0  0.10305452220E+02  0.54861308756E+01  0.12121390561E+02  0.16922937557E+02  0.17770000000E+01 0. -1.
         15    1    1    2    0    0  0.25326657246E+01 -0.48293551557E+01  0.23561907810E+02  0.24249913309E+02  0.17770000000E+01 0.  1.
</event>
<event>
 6    1  0.2408691E-003  0.5181126E+03  0.7546771E-02  0.9360169E-01
        -11   -1    0    0    0    0  0.00000000000E+00  0.00000000000E+00  0.50000000000E+03  0.50000000000E+03  0.00000000000E+00 0. -1.
         11   -1    0    0    0    0 -0.00000000000E+00 -0.00000000000E+00 -0.50000000000E+03  0.50000000000E+03  0.00000000000E+00 0. -1.
        -11    1    1    2    0    0 -0.54620711797E+01  0.15367663903E+02  0.48161131509E+03  0.48188739155E+03  0.00000000000E+00 0. -1.
         11    1    1    2    0    0 -0.95758902024E+01 -0.16591607911E+02 -0.39571497321E+03  0.39617839309E+03  0.00000000000E+00 0. -1.
        -15    1    1    2    0    0  0.89556258840E+01 -0.23485028465E+02  0.65486650859E+01  0.26034449109E+02  0.17770000000E+01 0.  1.
         15    1    1    2    0    0  0.60823354981E+01  0.24708972473E+02 -0.92445006962E+02  0.95899766251E+02  0.17770000000E+01 0. -1.
</event>
<event>
 6    1  0.2408691E-003  0.5037774E+03  0.7546771E-02  0.9391397E-01
        -11   -1    0    0    0    0  0.00000000000E+00  0.00000000000E+00  0.50000000000E+03  0.50000000000E+03  0.00000000000E+00 0.  1.
         11   -1    0    0    0    0 -0.00000000000E+00 -0.00000000000E+00 -0.50000000000E+03  0.50000000000E+03  0.00000000000E+00 0. -1.
        -11    1    1    2    0    0 -0.19500566701E+01 -0.86294196063E+01  0.49614368480E+03  0.49622255649E+03  0.00000000000E+00 0.  1.
         11    1    1    2    0    0 -0.31196252647E+01  0.70888974684E+01 -0.45096343222E+03  0.45102993441E+03  0.00000000000E+00 0. -1.
        -15    1    1    2    0    0 -0.24378524827E+01 -0.45596645317E+01 -0.42082124162E+02  0.42435793481E+02  0.17770000000E+01 0. -1.
         15    1    1    2    0    0  0.75075344175E+01  0.61001866697E+01 -0.30981284149E+01  0.10311715624E+02  0.17770000000E+01 0.  1.
</event>
<event>
 6    1  0.2408691E-003  0.5230709E+03  0.7546771E-02  0.9349617E-01
        -11   -1    0    0    0    0  0.00000000000E+00  0.00000000000E+00  0.50000000000E+03  0.50000000000E+03  0.00000000000E+00 0.  1.
         11   -1    0    0    0    0 -0.00000000000E+00 -0.00000000000E+00 -0.50000000000E+03  0.50000000000E+03  0.00000000000E+00 0. -1.
        -11    1    1    2    0    0  0.60287623777E+01  0.28601273188E+01  0.47688243341E+03  0.47692911591E+03  0.00000000000E+00 0.  1.
         11    1    1    2    0    0  0.11948959570E+02  0.10564435760E+02 -0.33758737546E+03  0.33796393448E+03  0.00000000000E+00 0. -1.
        -15    1    1    2    0    0  0.11835388810E+02 -0.92803175907E+01 -0.15173533480E+03  0.15248924643E+03  0.17770000000E+01 0. -1.
         15    1    1    2    0    0 -0.29813110757E+02 -0.41442454877E+01  0.12440276850E+02  0.32617703181E+02  0.17770000000E+01 0.  1.
</event>
<event>
 6    1  0.2408691E-003  0.4219339E+03  0.7546771E-02  0.9593725E-01
        -11   -1    0    0    0    0  0.00000000000E+00  0.00000000000E+00  0.50000000000E+03  0.50000000000E+03  0.00000000000E+00 0. -1.
         11   -1    0    0    0    0 -0.00000000000E+00 -0.00000000000E+00 -0.50000000000E+03  0.50000000000E+03  0.00000000000E+00 0.  1.
        -11    1    1    2    0    0 -0.27321090769E+02  0.69623950465E+02  0.40890164620E+03  0.41568556956E+03  0.00000000000E+00 0. -1.
         11    1    1    2    0    0 -0.30401544146E+02 -0.20788273868E+02 -0.43025845986E+03  0.43183185211E+03  0.00000000000E+00 0.  1.
        -15    1    1    2    0    0  0.22887159377E+02 -0.12965617551E+01 -0.52889682181E+02  0.57671304363E+02  0.17770000000E+01 0.  1.
         15    1    1    2    0    0  0.34835475538E+02 -0.47539114843E+02  0.74246495845E+02  0.94811273962E+02  0.17770000000E+01 0. -1.
</event>
<event>
 6    1  0.2408691E-003  0.5101770E+03  0.7546771E-02  0.9377322E-01
        -11   -1    0    0    0    0  0.00000000000E+00  0.00000000000E+00  0.50000000000E+03  0.50000000000E+03  0.00000000000E+00 0. -1.
         11   -1    0    0    0    0 -0.00000000000E+00 -0.00000000000E+00 -0.50000000000E+03  0.50000000000E+03  0.00000000000E+00 0. -1.
        -11    1    1    2    0    0 -0.60682922066E+00  0.77620313861E+01  0.48976113897E+03  0.48982301969E+03  0.00000000000E+00 0. -1.
         11    1    1    2    0    0 -0.86747749998E+01 -0.77487154128E+01 -0.47675511477E+03  0.47689698445E+03  0.00000000000E+00 0. -1.
        -15    1    1    2    0    0 -0.80170191784E+00  0.44563721074E+01 -0.19676163212E+02  0.20268475672E+02  0.17770000000E+01 0.  1.
         15    1    1    2    0    0  0.10083306138E+02 -0.44696880807E+01  0.66701390210E+01  0.13011520195E+02  0.17770000000E+01 0. -1.
</event>
<event>
 6    1  0.2408691E-003  0.5138570E+03  0.7546771E-02  0.9369327E-01
        -11   -1    0    0    0    0  0.00000000000E+00  0.00000000000E+00  0.50000000000E+03  0.50000000000E+03  0.00000000000E+00 0. -1.
         11   -1    0    0    0    0 -0.00000000000E+00 -0.00000000000E+00 -0.50000000000E+03  0.50000000000E+03  0.00000000000E+00 0.  1.
        -11    1    1    2    0    0 -0.16857644848E+02  0.12506508793E+02  0.39008431168E+03  0.39064864414E+03  0.00000000000E+00 0. -1.
         11    1    1    2    0    0  0.77985736872E+01 -0.12594638698E+01 -0.48607885984E+03  0.48614304683E+03  0.00000000000E+00 0.  1.
        -15    1    1    2    0    0  0.26520179787E+02  0.25886001107E+01  0.22089187598E+01  0.26796601231E+02  0.17770000000E+01 0. -1.
         15    1    1    2    0    0 -0.17461108626E+02 -0.13835645034E+02  0.93785629401E+02  0.96411707791E+02  0.17770000000E+01 0.  1.
</event>
<event>
 6    1  0.2408691E-003  0.5028911E+03  0.7546771E-02  0.9393364E-01
        -11   -1    0    0    0    0  0.00000000000E+00  0.00000000000E+00  0.50000000000E+03  0.50000000000E+03  0.00000000000E+00 0. -1.
         11   -1    0    0    0    0 -0.00000000000E+00 -0.00000000000E+00 -0.50000000000E+03  0.50000000000E+03  0.00000000000E+00 0. -1.
        -11    1    1    2    0    0 -0.56876368891E+01  0.62820939323E+01  0.40052533470E+03  0.40061497433E+03  0.00000000000E+00 0. -1.
         11    1    1    2    0    0 -0.98160265897E+01 -0.93124968353E+01 -0.49692470512E+03  0.49710888097E+03  0.00000000000E+00 0. -1.
        -15    1    1    2    0    0  0.13708039752E+02  0.16768569004E+01  0.13722461695E+02  0.19549575107E+02  0.17770000000E+01 0. -1.
         15    1    1    2    0    0  0.17956237272E+01  0.13535460025E+01  0.82676908729E+02  0.82726569597E+02  0.17770000000E+01 0.  1.
</event>
<event>
 6    1  0.2408691E-003  0.5022203E+03  0.7546771E-02  0.9394855E-01
        -11   -1    0    0    0    0  0.00000000000E+00  0.00000000000E+00  0.50000000000E+03  0.50000000000E+03  0.00000000000E+00 0. -1.
         11   -1    0    0    0    0 -0.00000000000E+00 -0.00000000000E+00 -0.50000000000E+03  0.50000000000E+03  0.00000000000E+00 0. -1.
        -11    1    1    2    0    0  0.40523987594E+01 -0.57247110535E+01  0.36143868579E+03  0.36150673277E+03  0.00000000000E+00 0. -1.
         11    1    1    2    0    0  0.12225798413E+02 -0.97984384297E+01 -0.49753305536E+03  0.49777969094E+03  0.00000000000E+00 0. -1.
        -15    1    1    2    0    0 -0.20635253298E+02  0.90785526869E+01  0.58641720608E+02  0.62850958007E+02  0.17770000000E+01 0.  1.
         15    1    1    2    0    0  0.43570561256E+01  0.64445967963E+01  0.77452648954E+02  0.77862618277E+02  0.17770000000E+01 0. -1.
</event>
<event>
 6    1  0.2408691E-003  0.5095596E+03  0.7546771E-02  0.9378670E-01
        -11   -1    0    0    0    0  0.00000000000E+00  0.00000000000E+00  0.50000000000E+03  0.50000000000E+03  0.00000000000E+00 0. -1.
         11   -1    0    0    0    0 -0.00000000000E+00 -0.00000000000E+00 -0.50000000000E+03  0.50000000000E+03  0.00000000000E+00 0. -1.
        -11    1    1    2    0    0 -0.65343175487E+01  0.19000377251E+02  0.49002868120E+03  0.49044043476E+03  0.00000000000E+00 0. -1.
         11    1    1    2    0    0  0.14696884656E+02 -0.46116993111E+01 -0.44556018004E+03  0.44582635659E+03  0.00000000000E+00 0. -1.
        -15    1    1    2    0    0 -0.16155538659E+01 -0.11228453589E+02  0.58322963823E+01  0.12878726427E+02  0.17770000000E+01 0. -1.
         15    1    1    2    0    0 -0.65470132411E+01 -0.31602243502E+01 -0.50300797544E+02  0.50854482230E+02  0.17770000000E+01 0.  1.
</event>
<event>
 6    1  0.2408691E-003  0.5002458E+03  0.7546771E-02  0.9399260E-01
        -11   -1    0    0    0    0  0.00000000000E+00  0.00000000000E+00  0.50000000000E+03  0.50000000000E+03  0.00000000000E+00 0. -1.
         11   -1    0    0    0    0 -0.00000000000E+00 -0.00000000000E+00 -0.50000000000E+03  0.50000000000E+03  0.00000000000E+00 0.  1.
        -11    1    1    2    0    0 -0.52193501692E+01 -0.56252321861E+01  0.49969523751E+03  0.49975415480E+03  0.00000000000E+00 0. -1.
         11    1    1    2    0    0  0.19277637413E+01 -0.13468442035E+00 -0.21224950345E+02  0.21312741027E+02  0.00000000000E+00 0.  1.
        -15    1    1    2    0    0 -0.49911153245E-01  0.12426121003E+02 -0.35741054465E+03  0.35763090768E+03  0.17770000000E+01 0.  1.
         15    1    1    2    0    0  0.33414975811E+01 -0.66662043967E+01 -0.12105974251E+03  0.12130219649E+03  0.17770000000E+01 0. -1.
</event>
<event>
 6    1  0.2408691E-003  0.5053478E+03  0.7546771E-02  0.9387923E-01
        -11   -1    0    0    0    0  0.00000000000E+00  0.00000000000E+00  0.50000000000E+03  0.50000000000E+03  0.00000000000E+00 0.  1.
         11   -1    0    0    0    0 -0.00000000000E+00 -0.00000000000E+00 -0.50000000000E+03  0.50000000000E+03  0.00000000000E+00 0. -1.
        -11    1    1    2    0    0  0.16795474630E+01 -0.80344713644E+01  0.36196691675E+03  0.36205997077E+03  0.00000000000E+00 0.  1.
         11    1    1    2    0    0 -0.39520473673E+01 -0.76409139176E+01 -0.49457743934E+03  0.49465224729E+03  0.00000000000E+00 0. -1.
        -15    1    1    2    0    0 -0.10596081936E+02  0.93893179588E+01  0.53922090338E+01  0.15253520623E+02  0.17770000000E+01 0. -1.
         15    1    1    2    0    0  0.12868581840E+02  0.62860673232E+01  0.12721831355E+03  0.12803426132E+03  0.17770000000E+01 0.  1.
</event>
<event>
 6    1  0.2408691E-003  0.4719386E+03  0.7546771E-02  0.9464886E-01
        -11   -1    0    0    0    0  0.00000000000E+00  0.00000000000E+00  0.50000000000E+03  0.50000000000E+03  0.00000000000E+00 0.  1.
         11   -1    0    0    0    0 -0.00000000000E+00 -0.00000000000E+00 -0.50000000000E+03  0.50000000000E+03  0.00000000000E+00 0.  1.
        -11    1    1    2    0    0 -0.18598876146E+02  0.13694506347E+02  0.46611727920E+03  0.46668916386E+03  0.00000000000E+00 0.  1.
         11    1    1    2    0    0 -0.67768737921E+00 -0.17117150508E+02 -0.47714808588E+03  0.47745549736E+03  0.00000000000E+00 0.  1.
        -15    1    1    2    0    0  0.30601292500E+02  0.15503461596E+02  0.16789293228E+02  0.38233944607E+02  0.17770000000E+01 0.  1.
         15    1    1    2    0    0 -0.11324728976E+02 -0.12080817435E+02 -0.57584865481E+01  0.17621394173E+02  0.17770000000E+01 0. -1.
</event>
<event>
 6    1  0.2408691E-003  0.5022193E+03  0.7546771E-02  0.9394857E-01
        -11   -1    0    0    0    0  0.00000000000E+00  0.00000000000E+00  0.50000000000E+03  0.50000000000E+03  0.00000000000E+00 0. -1.
         11   -1    0    0    0    0 -0.00000000000E+00 -0.00000000000E+00 -0.50000000000E+03  0.50000000000E+03  0.00000000000E+00 0. -1.
        -11    1    1    2    0    0  0.57490256942E+01 -0.31272933118E+01  0.34225048383E+03  0.34231305109E+03  0.00000000000E+00 0. -1.
         11    1    1    2    0    0  0.98894822806E+01  0.40458201126E+01 -0.49766595798E+03  0.49778065074E+03  0.00000000000E+00 0. -1.
        -15    1    1    2    0    0 -0.11246724145E+02 -0.10427598279E+01  0.15468976988E+03  0.15511176225E+03  0.17770000000E+01 0. -1.
         15    1    1    2    0    0 -0.43917838295E+01  0.12423302718E+00  0.72570426975E+00  0.47945359251E+01  0.17770000000E+01 0.  1.
</event>
<event>
 6    1  0.2408691E-003  0.5002372E+03  0.7546771E-02  0.9399279E-01
        -11   -1    0    0    0    0  0.00000000000E+00  0.00000000000E+00  0.50000000000E+03  0.50000000000E+03  0.00000000000E+00 0.  1.
         11   -1    0    0    0    0 -0.00000000000E+00 -0.00000000000E+00 -0.50000000000E+03  0.50000000000E+03  0.00000000000E+00 0. -1.
        -11    1    1    2    0    0 -0.34754523292E+01  0.78463171420E-01  0.25727690738E+03  0.25730039253E+03  0.00000000000E+00 0.  1.
         11    1    1    2    0    0  0.36821966334E+01 -0.66976663588E+01 -0.49970438628E+03  0.49976283473E+03  0.00000000000E+00 0. -1.
        -15    1    1    2    0    0 -0.17123951314E+01  0.89472812788E+01  0.90717351671E+02  0.91190908333E+02  0.17770000000E+01 0. -1.
         15    1    1    2    0    0  0.15056508272E+01 -0.23280780915E+01  0.15171012723E+03  0.15174586441E+03  0.17770000000E+01 0.  1.
</event>
<event>
 6    1  0.2408691E-003  0.4712020E+03  0.7546771E-02  0.9466658E-01
        -11   -1    0    0    0    0  0.00000000000E+00  0.00000000000E+00  0.50000000000E+03  0.50000000000E+03  0.00000000000E+00 0.  1.
         11   -1    0    0    0    0 -0.00000000000E+00 -0.00000000000E+00 -0.50000000000E+03  0.50000000000E+03  0.00000000000E+00 0. -1.
        -11    1    1    2    0    0  0.20150773131E+01 -0.64492982254E+01  0.47128521947E+03  0.47133365260E+03  0.00000000000E+00 0.  1.
         11    1    1    2    0    0  0.27193354889E+01  0.20710107421E+02 -0.47072707216E+03  0.47119027982E+03  0.00000000000E+00 0. -1.
        -15    1    1    2    0    0  0.87371777771E+01  0.12694677892E+02  0.16627290676E+02  0.22740220898E+02  0.17770000000E+01 0.  1.
         15    1    1    2    0    0 -0.13471590579E+02 -0.26955487087E+02 -0.17185437989E+02  0.34735846682E+02  0.17770000000E+01 0. -1.
</event>
<event>
 6    1  0.2408691E-003  0.5007211E+03  0.7546771E-02  0.9398198E-01
        -11   -1    0    0    0    0  0.00000000000E+00  0.00000000000E+00  0.50000000000E+03  0.50000000000E+03  0.00000000000E+00 0.  1.
         11   -1    0    0    0    0 -0.00000000000E+00 -0.00000000000E+00 -0.50000000000E+03  0.50000000000E+03  0.00000000000E+00 0.  1.
        -11    1    1    2    0    0 -0.50530558218E+01  0.45780996987E+01  0.49923236710E+03  0.49927892879E+03  0.00000000000E+00 0.  1.
         11    1    1    2    0    0  0.58085253854E+01  0.41720315059E+00 -0.40996295697E+03  0.41000431597E+03  0.00000000000E+00 0.  1.
        -15    1    1    2    0    0  0.29660789043E+01  0.73571224092E+00 -0.48446904906E+01  0.59973036873E+01  0.17770000000E+01 0. -1.
         15    1    1    2    0    0 -0.37215484680E+01 -0.57310150902E+01 -0.84424719640E+02  0.84719451558E+02  0.17770000000E+01 0.  1.
</event>
<event>
 6    1  0.2408691E-003  0.5030336E+03  0.7546771E-02  0.9393047E-01
        -11   -1    0    0    0    0  0.00000000000E+00  0.00000000000E+00  0.50000000000E+03  0.50000000000E+03  0.00000000000E+00 0.  1.
         11   -1    0    0    0    0 -0.00000000000E+00 -0.00000000000E+00 -0.50000000000E+03  0.50000000000E+03  0.00000000000E+00 0. -1.
        -11    1    1    2    0    0  0.24218194762E+01  0.65192826240E+01  0.31065743807E+03  0.31073527332E+03  0.00000000000E+00 0.  1.
         11    1    1    2    0    0 -0.20829897193E+01 -0.11994118461E+02 -0.49681724852E+03  0.49696637326E+03  0.00000000000E+00 0. -1.
        -15    1    1    2    0    0  0.19425586998E+02  0.36789557183E+01  0.14726492860E+03  0.14859678688E+03  0.17770000000E+01 0.  1.
         15    1    1    2    0    0 -0.19764416755E+02  0.17958801183E+01  0.38894881847E+02  0.43701566539E+02  0.17770000000E+01 0. -1.
</event>
<event>
 6    1  0.2408691E-003  0.5050564E+03  0.7546771E-02  0.9388566E-01
        -11   -1    0    0    0    0  0.00000000000E+00  0.00000000000E+00  0.50000000000E+03  0.50000000000E+03  0.00000000000E+00 0.  1.
         11   -1    0    0    0    0 -0.00000000000E+00 -0.00000000000E+00 -0.50000000000E+03  0.50000000000E+03  0.00000000000E+00 0.  1.
        -11    1    1    2    0    0  0.10523527227E+01  0.93941304679E+01  0.39338325537E+03  0.39349681414E+03  0.00000000000E+00 0.  1.
         11    1    1    2    0    0  0.17583397020E+01 -0.11293972302E+02 -0.49481164331E+03  0.49494364116E+03  0.00000000000E+00 0.  1.
        -15    1    1    2    0    0 -0.76728578344E+01  0.14550399085E+01  0.10496770027E+03  0.10527281567E+03  0.17770000000E+01 0.  1.
         15    1    1    2    0    0  0.48621654098E+01  0.44480192539E+00 -0.35393123331E+01  0.62867290395E+01  0.17770000000E+01 0. -1.
</event>
<event>
 6    1  0.2408691E-003  0.5024468E+03  0.7546771E-02  0.9394351E-01
        -11   -1    0    0    0    0  0.00000000000E+00  0.00000000000E+00  0.50000000000E+03  0.50000000000E+03  0.00000000000E+00 0. -1.
         11   -1    0    0    0    0 -0.00000000000E+00 -0.00000000000E+00 -0.50000000000E+03  0.50000000000E+03  0.00000000000E+00 0.  1.
        -11    1    1    2    0    0 -0.87890718598E-01  0.52256137046E+01  0.37554349503E+03  0.37557986025E+03  0.00000000000E+00 0. -1.
         11    1    1    2    0    0  0.28272329406E+01  0.76973582428E+01 -0.49748565014E+03  0.49755322797E+03  0.00000000000E+00 0.  1.
        -15    1    1    2    0    0  0.28809685691E+01 -0.75170062111E+01  0.49795211127E+01  0.96311329441E+01  0.17770000000E+01 0. -1.
         15    1    1    2    0    0 -0.56203107911E+01 -0.54059657363E+01  0.11696263400E+03  0.11723577883E+03  0.17770000000E+01 0.  1.
</event>
<event>
 6    1  0.2408691E-003  0.5011863E+03  0.7546771E-02  0.9397159E-01
        -11   -1    0    0    0    0  0.00000000000E+00  0.00000000000E+00  0.50000000000E+03  0.50000000000E+03  0.00000000000E+00 0.  1.
         11   -1    0    0    0    0 -0.00000000000E+00 -0.00000000000E+00 -0.50000000000E+03  0.50000000000E+03  0.00000000000E+00 0.  1.
        -11    1    1    2    0    0 -0.11683575171E+01  0.97567475136E+01  0.49871693127E+03  0.49881372948E+03  0.00000000000E+00 0.  1.
         11    1    1    2    0    0 -0.13998230182E+02 -0.32762100375E+01 -0.29958211016E+03  0.29992686563E+03  0.00000000000E+00 0.  1.
        -15    1    1    2    0    0  0.18674364593E+02  0.92882248957E-01 -0.94458350838E+02  0.96303054428E+02  0.17770000000E+01 0. -1.
         15    1    1    2    0    0 -0.35077768942E+01 -0.65734197250E+01 -0.10467647027E+03  0.10495635046E+03  0.17770000000E+01 0.  1.
</event>
<event>
 6    1  0.2408691E-003  0.5054971E+03  0.7546771E-02  0.9387593E-01
        -11   -1    0    0    0    0  0.00000000000E+00  0.00000000000E+00  0.50000000000E+03  0.50000000000E+03  0.00000000000E+00 0.  1.
         11   -1    0    0    0    0 -0.00000000000E+00 -0.00000000000E+00 -0.50000000000E+03  0.50000000000E+03  0.00000000000E+00 0.  1.
        -11    1    1    2    0    0 -0.24031190794E+02 -0.84966375154E+01  0.49384557909E+03  0.49450292918E+03  0.00000000000E+00 0.  1.
         11    1    1    2    0    0  0.55708278057E+01 -0.70599095978E+01 -0.44290156550E+03  0.44299285905E+03  0.00000000000E+00 0.  1.
        -15    1    1    2    0    0  0.19555802693E+01  0.17304717796E+02 -0.15730138175E+02  0.23534496557E+02  0.17770000000E+01 0. -1.
         15    1    1    2    0    0  0.16504782719E+02 -0.17481706830E+01 -0.35213875414E+02  0.38969715216E+02  0.17770000000E+01 0.  1.
</event>
<event>
 6    1  0.2408691E-003  0.5004301E+03  0.7546771E-02  0.9398848E-01
        -11   -1    0    0    0    0  0.00000000000E+00  0.00000000000E+00  0.50000000000E+03  0.50000000000E+03  0.00000000000E+00 0.  1.
         11   -1    0    0    0    0 -0.00000000000E+00 -0.00000000000E+00 -0.50000000000E+03  0.50000000000E+03  0.00000000000E+00 0.  1.
        -11    1    1    2    0    0  0.13520533206E+02  0.85927187700E+01  0.49931296600E+03  0.49956989266E+03  0.00000000000E+00 0.  1.
         11    1    1    2    0    0 -0.74050941477E+01  0.19498789363E+01 -0.32254012012E+03  0.32263100678E+03  0.00000000000E+00 0.  1.
        -15    1    1    2    0    0  0.28555993131E+01 -0.17918429637E+00 -0.76977962668E+02  0.77051612701E+02  0.17770000000E+01 0.  1.
         15    1    1    2    0    0 -0.89710383718E+01 -0.10363413410E+02 -0.99794883214E+02  0.10074748787E+03  0.17770000000E+01 0. -1.
</event>
<event>
 6    1  0.2408691E-003  0.5000995E+03  0.7546771E-02  0.9399587E-01
        -11   -1    0    0    0    0  0.00000000000E+00  0.00000000000E+00  0.50000000000E+03  0.50000000000E+03  0.00000000000E+00 0.  1.
         11   -1    0    0    0    0 -0.00000000000E+00 -0.00000000000E+00 -0.50000000000E+03  0.50000000000E+03  0.00000000000E+00 0. -1.
        -11    1    1    2    0    0  0.67328578260E+01  0.74517130754E+01  0.49979957711E+03  0.49990046678E+03  0.00000000000E+00 0.  1.
         11    1    1    2    0    0  0.33878260576E+00 -0.22056271792E+01 -0.44184230255E+02  0.44240544393E+02  0.00000000000E+00 0. -1.
        -15    1    1    2    0    0  0.22451150633E+01 -0.36261860768E+01 -0.91553897606E+02  0.91670407782E+02  0.17770000000E+01 0.  1.
         15    1    1    2    0    0 -0.93167554950E+01 -0.16198998194E+01 -0.36406144925E+03  0.36418858105E+03  0.17770000000E+01 0. -1.
</event>
<event>
 6    1  0.2408691E-003  0.5021002E+03  0.7546771E-02  0.9395123E-01
        -11   -1    0    0    0    0  0.00000000000E+00  0.00000000000E+00  0.50000000000E+03  0.50000000000E+03  0.00000000000E+00 0.  1.
         11   -1    0    0    0    0 -0.00000000000E+00 -0.00000000000E+00 -0.50000000000E+03  0.50000000000E+03  0.00000000000E+00 0.  1.
        -11    1    1    2    0    0  0.71623511572E+01 -0.56967251285E+01  0.49781565326E+03  0.49789976560E+03  0.00000000000E+00 0.  1.
         11    1    1    2    0    0  0.65512460044E+01 -0.16305245564E+00 -0.45871841419E+03  0.45876522201E+03  0.00000000000E+00 0.  1.
        -15    1    1    2    0    0 -0.10983606978E+02  0.32540506439E+01 -0.15411297184E+02  0.19284560605E+02  0.17770000000E+01 0.  1.
         15    1    1    2    0    0 -0.27299901839E+01  0.26057269402E+01 -0.23685941886E+02  0.24050451790E+02  0.17770000000E+01 0. -1.
</event>
<event>
 6    1  0.2408691E-003  0.5007664E+03  0.7546771E-02  0.9398096E-01
        -11   -1    0    0    0    0  0.00000000000E+00  0.00000000000E+00  0.50000000000E+03  0.50000000000E+03  0.00000000000E+00 0. -1.
         11   -1    0    0    0    0 -0.00000000000E+00 -0.00000000000E+00 -0.50000000000E+03  0.50000000000E+03  0.00000000000E+00 0. -1.
        -11    1    1    2    0    0 -0.35565096926E+00  0.26879290840E+01  0.12393450925E+03  0.12396416431E+03  0.00000000000E+00 0. -1.
         11    1    1    2    0    0  0.24456923328E+01  0.67078596779E+01 -0.49918251263E+03  0.49923357030E+03  0.00000000000E+00 0. -1.
        -15    1    1    2    0    0 -0.16926377212E+01 -0.48012384474E+01  0.36794283551E+03  0.36798234312E+03  0.17770000000E+01 0. -1.
         15    1    1    2    0    0 -0.39740364226E+00 -0.45945503146E+01  0.73051678686E+01  0.88199222693E+01  0.17770000000E+01 0.  1.
</event>
<event>
 6    1  0.2408691E-003  0.5041210E+03  0.7546771E-02  0.9390636E-01
        -11   -1    0    0    0    0  0.00000000000E+00  0.00000000000E+00  0.50000000000E+03  0.50000000000E+03  0.00000000000E+00 0.  1.
         11   -1    0    0    0    0 -0.00000000000E+00 -0.00000000000E+00 -0.50000000000E+03  0.50000000000E+03  0.00000000000E+00 0. -1.
        -11    1    1    2    0    0 -0.11079188298E+01 -0.11098170496E+02  0.49575355910E+03  0.49587900563E+03  0.00000000000E+00 0.  1.
         11    1    1    2    0    0  0.20416305304E+01  0.64551235604E+01 -0.48839173636E+03  0.48843866044E+03  0.00000000000E+00 0. -1.
        -15    1    1    2    0    0  0.13418497736E+01  0.31367605191E+01  0.29633316238E+01  0.48558099923E+01  0.17770000000E+01 0.  1.
         15    1    1    2    0    0 -0.22755614742E+01  0.15062864162E+01 -0.10325154364E+02  0.10826523931E+02  0.17770000000E+01 0. -1.
</event>
<event>
 6    1  0.2408691E-003  0.5010387E+03  0.7546771E-02  0.9397489E-01
        -11   -1    0    0    0    0  0.00000000000E+00  0.00000000000E+00  0.50000000000E+03  0.50000000000E+03  0.00000000000E+00 0.  1.
         11   -1    0    0    0    0 -0.00000000000E+00 -0.00000000000E+00 -0.50000000000E+03  0.50000000000E+03  0.00000000000E+00 0. -1.
        -11    1    1    2    0    0 -0.61675940806E+01 -0.23993412124E+01  0.36252729395E+03  0.36258769273E+03  0.00000000000E+00 0.  1.
         11    1    1    2    0    0  0.12169930905E+02 -0.26279084627E+01 -0.49880593513E+03  0.49896129514E+03  0.00000000000E+00 0. -1.
        -15    1    1    2    0    0  0.37103290583E+01  0.19071129974E+01  0.11154560969E+03  0.11163773731E+03  0.17770000000E+01 0.  1.
         15    1    1    2    0    0 -0.97126658828E+01  0.31201366777E+01  0.24733031491E+02  0.26813274832E+02  0.17770000000E+01 0. -1.
</event>
<event>
 6    1  0.2408691E-003  0.5003775E+03  0.7546771E-02  0.9398965E-01
        -11   -1    0    0    0    0  0.00000000000E+00  0.00000000000E+00  0.50000000000E+03  0.50000000000E+03  0.00000000000E+00 0.  1.
         11   -1    0    0    0    0 -0.00000000000E+00 -0.00000000000E+00 -0.50000000000E+03  0.50000000000E+03  0.00000000000E+00 0. -1.
        -11    1    1    2    0    0  0.10978690682E+02 -0.22325066969E+01  0.36550541161E+03  0.36567707291E+03  0.00000000000E+00 0.  1.
         11    1    1    2    0    0 -0.53536086756E+01 -0.50218850058E+01 -0.49956854048E+03  0.49962246456E+03  0.00000000000E+00 0. -1.
        -15    1    1    2    0    0  0.12580153205E+00  0.66847990026E+01  0.62238119718E+02  0.62621431145E+02  0.17770000000E+01 0. -1.
         15    1    1    2    0    0 -0.57508835384E+01  0.56959270016E+00  0.71825009150E+02  0.72079031387E+02  0.17770000000E+01 0.  1.
</event>
<event>
 6    1  0.2408691E-003  0.5148410E+03  0.7546771E-02  0.9367201E-01
        -11   -1    0    0    0    0  0.00000000000E+00  0.00000000000E+00  0.50000000000E+03  0.50000000000E+03  0.00000000000E+00 0. -1.
         11   -1    0    0    0    0 -0.00000000000E+00 -0.00000000000E+00 -0.50000000000E+03  0.50000000000E+03  0.00000000000E+00 0. -1.
        -11    1    1    2    0    0 -0.19104650947E+00 -0.19546158731E+02  0.48476507197E+03  0.48515900880E+03  0.00000000000E+00 0. -1.
         11    1    1    2    0    0 -0.39171390321E+00  0.63475955058E+01 -0.16822988932E+03  0.16835005515E+03  0.00000000000E+00 0. -1.
        -15    1    1    2    0    0  0.37784001078E+02 -0.52186492395E+02 -0.12348589672E+03  0.13929459840E+03  0.17770000000E+01 0.  1.
         15    1    1    2    0    0 -0.37201240666E+02  0.65385055620E+02 -0.19304928593E+03  0.20719633764E+03  0.17770000000E+01 0. -1.
</event>
<event>
 6    1  0.2408691E-003  0.5024129E+03  0.7546771E-02  0.9394427E-01
        -11   -1    0    0    0    0  0.00000000000E+00  0.00000000000E+00  0.50000000000E+03  0.50000000000E+03  0.00000000000E+00 0. -1.
         11   -1    0    0    0    0 -0.00000000000E+00 -0.00000000000E+00 -0.50000000000E+03  0.50000000000E+03  0.00000000000E+00 0. -1.
        -11    1    1    2    0    0 -0.80924076759E+01 -0.10118288365E+02  0.12435156917E+03  0.12502471586E+03  0.00000000000E+00 0. -1.
         11    1    1    2    0    0 -0.67779831133E+01  0.70622663298E+01 -0.49749079488E+03  0.49758708549E+03  0.00000000000E+00 0. -1.
        -15    1    1    2    0    0  0.30427165496E+02  0.11201184838E+01  0.33083185327E+03  0.33223476629E+03  0.17770000000E+01 0. -1.
         15    1    1    2    0    0 -0.15556774707E+02  0.19359035518E+01  0.42307372435E+02  0.45153432352E+02  0.17770000000E+01 0.  1.
</event>
<event>
 6    1  0.2408691E-003  0.5033034E+03  0.7546771E-02  0.9392448E-01
        -11   -1    0    0    0    0  0.00000000000E+00  0.00000000000E+00  0.50000000000E+03  0.50000000000E+03  0.00000000000E+00 0. -1.
         11   -1    0    0    0    0 -0.00000000000E+00 -0.00000000000E+00 -0.50000000000E+03  0.50000000000E+03  0.00000000000E+00 0.  1.
        -11    1    1    2    0    0  0.75450030635E+01 -0.54012498755E+01  0.47341499761E+03  0.47350592450E+03  0.00000000000E+00 0. -1.
         11    1    1    2    0    0 -0.65659541984E+01  0.47343010293E+01 -0.49663060857E+03  0.49669657410E+03  0.00000000000E+00 0.  1.
        -15    1    1    2    0    0 -0.50334753276E+01  0.14722119617E+01  0.24500347868E+02  0.25118281322E+02  0.17770000000E+01 0.  1.
         15    1    1    2    0    0  0.40544264625E+01 -0.80526311546E+00 -0.12847369106E+01  0.46792200797E+01  0.17770000000E+01 0. -1.
</event>
<event>
 6    1  0.2408691E-003  0.5103182E+03  0.7546771E-02  0.9377013E-01
        -11   -1    0    0    0    0  0.00000000000E+00  0.00000000000E+00  0.50000000000E+03  0.50000000000E+03  0.00000000000E+00 0.  1.
         11   -1    0    0    0    0 -0.00000000000E+00 -0.00000000000E+00 -0.50000000000E+03  0.50000000000E+03  0.00000000000E+00 0. -1.
        -11    1    1    2    0    0  0.74402297346E+01 -0.55203955914E+01  0.46578711626E+03  0.46587924343E+03  0.00000000000E+00 0.  1.
         11    1    1    2    0    0 -0.21950919001E+02  0.13001472225E+01 -0.48918784102E+03  0.48968181203E+03  0.00000000000E+00 0. -1.
        -15    1    1    2    0    0  0.13583814431E+02  0.10317905068E+02  0.30423680426E+02  0.34924736780E+02  0.17770000000E+01 0. -1.
         15    1    1    2    0    0  0.92687483584E+00 -0.60976566991E+01 -0.70229556576E+01  0.95142077626E+01  0.17770000000E+01 0.  1.
</event>
<event>
 6    1  0.2408691E-003  0.4860869E+03  0.7546771E-02  0.9431491E-01
        -11   -1    0    0    0    0  0.00000000000E+00  0.00000000000E+00  0.50000000000E+03  0.50000000000E+03  0.00000000000E+00 0. -1.
         11   -1    0    0    0    0 -0.00000000000E+00 -0.00000000000E+00 -0.50000000000E+03  0.50000000000E+03  0.00000000000E+00 0.  1.
        -11    1    1    2    0    0 -0.13972295924E+02  0.52178604712E+01  0.48274426420E+03  0.48297461189E+03  0.00000000000E+00 0. -1.
         11    1    1    2    0    0  0.46265809677E+01  0.88724928784E+01 -0.48926568722E+03  0.48936799964E+03  0.00000000000E+00 0.  1.
        -15    1    1    2    0    0 -0.14570283640E+01 -0.94578445458E+01 -0.51383021629E+01  0.11006072561E+02  0.17770000000E+01 0.  1.
         15    1    1    2    0    0  0.10802743320E+02 -0.46325088039E+01  0.11659725184E+02  0.16651315907E+02  0.17770000000E+01 0. -1.
</event>
<event>
 6    1  0.2408691E-003  0.5282521E+03  0.7546771E-02  0.9338722E-01
        -11   -1    0    0    0    0  0.00000000000E+00  0.00000000000E+00  0.50000000000E+03  0.50000000000E+03  0.00000000000E+00 0.  1.
         11   -1    0    0    0    0 -0.00000000000E+00 -0.00000000000E+00 -0.50000000000E+03  0.50000000000E+03  0.00000000000E+00 0.  1.
        -11    1    1    2    0    0 -0.82861114076E+01  0.31883237989E+02  0.37956609564E+03  0.38099294149E+03  0.00000000000E+00 0.  1.
         11    1    1    2    0    0  0.23863216600E+02 -0.78935760612E-01 -0.47114397470E+03  0.47174792446E+03  0.00000000000E+00 0.  1.
        -15    1    1    2    0    0  0.36281889913E+02  0.28585426820E+01 -0.46993545374E-02  0.36437680401E+02  0.17770000000E+01 0. -1.
         15    1    1    2    0    0 -0.51858995105E+02 -0.34662844911E+02  0.91582578419E+02  0.11082145365E+03  0.17770000000E+01 0.  1.
</event>
<event>
 6    1  0.2408691E-003  0.5108603E+03  0.7546771E-02  0.9375832E-01
        -11   -1    0    0    0    0  0.00000000000E+00  0.00000000000E+00  0.50000000000E+03  0.50000000000E+03  0.00000000000E+00 0.  1.
         11   -1    0    0    0    0 -0.00000000000E+00 -0.00000000000E+00 -0.50000000000E+03  0.50000000000E+03  0.00000000000E+00 0. -1.
        -11    1    1    2    0    0 -0.15430861243E+02  0.20083444110E+02  0.48848359510E+03  0.48913973350E+03  0.00000000000E+00 0.  1.
         11    1    1    2    0    0  0.23210343906E+02  0.32293767732E+02 -0.28651774059E+03  0.28926462482E+03  0.00000000000E+00 0. -1.
        -15    1    1    2    0    0  0.10043165753E+02 -0.51196906843E+01  0.18911500921E+01  0.11567652688E+02  0.17770000000E+01 0.  1.
         15    1    1    2    0    0 -0.17822648416E+02 -0.47257521158E+02 -0.20385700461E+03  0.21002798899E+03  0.17770000000E+01 0. -1.
</event>
<event>
 6    1  0.2408691E-003  0.5184567E+03  0.7546771E-02  0.9359433E-01
        -11   -1    0    0    0    0  0.00000000000E+00  0.00000000000E+00  0.50000000000E+03  0.50000000000E+03  0.00000000000E+00 0. -1.
         11   -1    0    0    0    0 -0.00000000000E+00 -0.00000000000E+00 -0.50000000000E+03  0.50000000000E+03  0.00000000000E+00 0.  1.
        -11    1    1    2    0    0 -0.69694077349E+01 -0.27713373836E+01  0.46237344922E+03  0.46243427587E+03  0.00000000000E+00 0. -1.
         11    1    1    2    0    0  0.73653177813E+01  0.46616417209E+01 -0.48146436233E+03  0.48154325974E+03  0.00000000000E+00 0.  1.
        -15    1    1    2    0    0  0.81518593346E+01  0.16891039974E+02  0.27777282668E+02  0.33563301439E+02  0.17770000000E+01 0.  1.
         15    1    1    2    0    0 -0.85477693811E+01 -0.18781344312E+02 -0.86863695593E+01  0.22459162956E+02  0.17770000000E+01 0. -1.
</event>
<event>
 6    1  0.2408691E-003  0.5077514E+03  0.7546771E-02  0.9382630E-01
        -11   -1    0    0    0    0  0.00000000000E+00  0.00000000000E+00  0.50000000000E+03  0.50000000000E+03  0.00000000000E+00 0.  1.
         11   -1    0    0    0    0 -0.00000000000E+00 -0.00000000000E+00 -0.50000000000E+03  0.50000000000E+03  0.00000000000E+00 0. -1.
        -11    1    1    2    0    0  0.73542692793E+01 -0.66535614873E+01  0.27386966504E+03  0.27404917184E+03  0.00000000000E+00 0.  1.
         11    1    1    2    0    0 -0.14047700995E+02 -0.37325286253E+00 -0.49204796100E+03  0.49224858877E+03  0.00000000000E+00 0. -1.
        -15    1    1    2    0    0  0.78334196551E+01  0.24922556840E+02  0.21348009241E+03  0.21507999416E+03  0.17770000000E+01 0.  1.
         15    1    1    2    0    0 -0.11399879397E+01 -0.17895742491E+02  0.46982035490E+01  0.18622245229E+02  0.17770000000E+01 0. -1.
</event>
<event>
 6    1  0.2408691E-003  0.5004664E+03  0.7546771E-02  0.9398767E-01
        -11   -1    0    0    0    0  0.00000000000E+00  0.00000000000E+00  0.50000000000E+03  0.50000000000E+03  0.00000000000E+00 0. -1.
         11   -1    0    0    0    0 -0.00000000000E+00 -0.00000000000E+00 -0.50000000000E+03  0.50000000000E+03  0.00000000000E+00 0.  1.
        -11    1    1    2    0    0 -0.84180165933E+01  0.82669567779E+01  0.49939424209E+03  0.49953359708E+03  0.00000000000E+00 0. -1.
         11    1    1    2    0    0 -0.20153637612E+01 -0.36365197487E+01 -0.28242117493E+03  0.28245177645E+03  0.00000000000E+00 0.  1.
        -15    1    1    2    0    0  0.10476955808E+02 -0.86773935606E+01 -0.97575599351E+02  0.98535369689E+02  0.17770000000E+01 0.  1.
         15    1    1    2    0    0 -0.43575453279E-01  0.40469565314E+01 -0.11939746780E+03  0.11947925679E+03  0.17770000000E+01 0.  1.
</event>
<event>
 6    1  0.2408691E-003  0.5008732E+03  0.7546771E-02  0.9397858E-01
        -11   -1    0    0    0    0  0.00000000000E+00  0.00000000000E+00  0.50000000000E+03  0.50000000000E+03  0.00000000000E+00 0.  1.
         11   -1    0    0    0    0 -0.00000000000E+00 -0.00000000000E+00 -0.50000000000E+03  0.50000000000E+03  0.00000000000E+00 0.  1.
        -11    1    1    2    0    0 -0.85138859494E+01  0.25588670990E+01  0.37424279053E+03  0.37434836759E+03  0.00000000000E+00 0.  1.
         11    1    1    2    0    0 -0.51575421178E+01  0.59154091052E+01 -0.49906505408E+03  0.49912675796E+03  0.00000000000E+00 0.  1.
        -15    1    1    2    0    0  0.61920555544E+01 -0.92949853419E+01  0.47985983902E+02  0.49300615458E+02  0.17770000000E+01 0.  1.
         15    1    1    2    0    0  0.74793725127E+01  0.82070913779E+00  0.76836279649E+02  0.77224258987E+02  0.17770000000E+01 0. -1.
</event>
<event>
 6    1  0.2408691E-003  0.5007235E+03  0.7546771E-02  0.9398192E-01
        -11   -1    0    0    0    0  0.00000000000E+00  0.00000000000E+00  0.50000000000E+03  0.50000000000E+03  0.00000000000E+00 0. -1.
         11   -1    0    0    0    0 -0.00000000000E+00 -0.00000000000E+00 -0.50000000000E+03  0.50000000000E+03  0.00000000000E+00 0.  1.
        -11    1    1    2    0    0 -0.22764789123E+00 -0.44123449652E+01  0.11198550278E+03  0.11207262576E+03  0.00000000000E+00 0. -1.
         11    1    1    2    0    0 -0.10303644269E+01  0.10455620278E+02 -0.49916599301E+03  0.49927654683E+03  0.00000000000E+00 0.  1.
        -15    1    1    2    0    0 -0.97807961947E+01 -0.42238529557E+00  0.39122421533E+02  0.40367858243E+02  0.17770000000E+01 0.  1.
         15    1    1    2    0    0  0.11038808513E+02 -0.56208900172E+01  0.34805806870E+03  0.34828296917E+03  0.17770000000E+01 0. -1.
</event>
<event>
 6    1  0.2408691E-003  0.5019800E+03  0.7546771E-02  0.9395390E-01
        -11   -1    0    0    0    0  0.00000000000E+00  0.00000000000E+00  0.50000000000E+03  0.50000000000E+03  0.00000000000E+00 0.  1.
         11   -1    0    0    0    0 -0.00000000000E+00 -0.00000000000E+00 -0.50000000000E+03  0.50000000000E+03  0.00000000000E+00 0. -1.
        -11    1    1    2    0    0 -0.26680088910E+01 -0.86562320683E+01  0.24174155927E+03  0.24191120293E+03  0.00000000000E+00 0.  1.
         11    1    1    2    0    0  0.10145225575E+01  0.12890509678E+02 -0.49785209967E+03  0.49801998719E+03  0.00000000000E+00 0. -1.
        -15    1    1    2    0    0  0.69784659506E+00 -0.24366016502E+02  0.15957277467E+03  0.16143363310E+03  0.17770000000E+01 0.  1.
         15    1    1    2    0    0  0.95563973842E+00  0.20131738892E+02  0.96537765725E+02  0.98635176780E+02  0.17770000000E+01 0.  1.
</event>
<event>
 6    1  0.2408691E-003  0.5005254E+03  0.7546771E-02  0.9398635E-01
        -11   -1    0    0    0    0  0.00000000000E+00  0.00000000000E+00  0.50000000000E+03  0.50000000000E+03  0.00000000000E+00 0. -1.
         11   -1    0    0    0    0 -0.00000000000E+00 -0.00000000000E+00 -0.50000000000E+03  0.50000000000E+03  0.00000000000E+00 0.  1.
        -11    1    1    2    0    0  0.38313955807E+01  0.26557170627E+00  0.24425624222E+03  0.24428643430E+03  0.00000000000E+00 0. -1.
         11    1    1    2    0    0 -0.63248441497E+01 -0.46233562788E+01 -0.49941317217E+03  0.49947461959E+03  0.00000000000E+00 0.  1.
        -15    1    1    2    0    0  0.54347377420E+01  0.65308341727E+01  0.35549824860E+02  0.36594206453E+02  0.17770000000E+01 0. -1.
         15    1    1    2    0    0 -0.29412891730E+01 -0.21730496001E+01  0.21960710509E+03  0.21964473966E+03  0.17770000000E+01 0. -1.
</event>
<event>
 6    1  0.2408691E-003  0.5097632E+03  0.7546771E-02  0.9378225E-01
        -11   -1    0    0    0    0  0.00000000000E+00  0.00000000000E+00  0.50000000000E+03  0.50000000000E+03  0.00000000000E+00 0.  1.
         11   -1    0    0    0    0 -0.00000000000E+00 -0.00000000000E+00 -0.50000000000E+03  0.50000000000E+03  0.00000000000E+00 0.  1.
        -11    1    1    2    0    0 -0.41891146246E+01  0.16875139948E+02  0.48992833886E+03  0.49023677570E+03  0.00000000000E+00 0.  1.
         11    1    1    2    0    0 -0.53471529520E+01  0.11248160167E+02 -0.47032074508E+03  0.47048561764E+03  0.00000000000E+00 0.  1.
        -15    1    1    2    0    0  0.84494858154E+01 -0.86022130322E+01 -0.10009049050E+01  0.12229121768E+02  0.17770000000E+01 0. -1.
         15    1    1    2    0    0  0.10867817613E+01 -0.19521087082E+02 -0.18606688874E+02  0.27048484899E+02  0.17770000000E+01 0.  1.
</event>
<event>
 6    1  0.2408691E-003  0.5032561E+03  0.7546771E-02  0.9392553E-01
        -11   -1    0    0    0    0  0.00000000000E+00  0.00000000000E+00  0.50000000000E+03  0.50000000000E+03  0.00000000000E+00 0.  1.
         11   -1    0    0    0    0 -0.00000000000E+00 -0.00000000000E+00 -0.50000000000E+03  0.50000000000E+03  0.00000000000E+00 0. -1.
        -11    1    1    2    0    0  0.68394970091E+01  0.15828214019E+01  0.49669426305E+03  0.49674387263E+03  0.00000000000E+00 0.  1.
         11    1    1    2    0    0 -0.36661856054E+01  0.57403461490E+01 -0.39411674107E+03  0.39417559295E+03  0.00000000000E+00 0. -1.
        -15    1    1    2    0    0  0.63778511634E-02 -0.61980958886E+01 -0.10457705901E+03  0.10477564332E+03  0.17770000000E+01 0. -1.
         15    1    1    2    0    0 -0.31796892549E+01 -0.11250716622E+01  0.19995370276E+01  0.43048910935E+01  0.17770000000E+01 0.  1.
</event>
<event>
 6    1  0.2408691E-003  0.5029628E+03  0.7546771E-02  0.9393205E-01
        -11   -1    0    0    0    0  0.00000000000E+00  0.00000000000E+00  0.50000000000E+03  0.50000000000E+03  0.00000000000E+00 0. -1.
         11   -1    0    0    0    0 -0.00000000000E+00 -0.00000000000E+00 -0.50000000000E+03  0.50000000000E+03  0.00000000000E+00 0. -1.
        -11    1    1    2    0    0  0.47594776932E+01 -0.48361066097E+01  0.49699087292E+03  0.49703719008E+03  0.00000000000E+00 0. -1.
         11    1    1    2    0    0  0.16743825026E+02  0.16149030880E+02 -0.30087966273E+03  0.30177759744E+03  0.00000000000E+00 0. -1.
        -15    1    1    2    0    0 -0.20365637428E+02 -0.14321746007E+02 -0.19592182328E+03  0.19750541806E+03  0.17770000000E+01 0.  1.
         15    1    1    2    0    0 -0.11376652909E+01  0.30088217368E+01 -0.18938691505E+00  0.36797944184E+01  0.17770000000E+01 0. -1.
</event>
<event>
 6    1  0.2408691E-003  0.5020538E+03  0.7546771E-02  0.9395226E-01
        -11   -1    0    0    0    0  0.00000000000E+00  0.00000000000E+00  0.50000000000E+03  0.50000000000E+03  0.00000000000E+00 0. -1.
         11   -1    0    0    0    0 -0.00000000000E+00 -0.00000000000E+00 -0.50000000000E+03  0.50000000000E+03  0.00000000000E+00 0.  1.
        -11    1    1    2    0    0 -0.35195038974E+01 -0.27614135004E+01  0.20043474582E+03  0.20048466186E+03  0.00000000000E+00 0. -1.
         11    1    1    2    0    0  0.24250977580E+01 -0.10353948021E+02 -0.49783263923E+03  0.49794620394E+03  0.00000000000E+00 0.  1.
        -15    1    1    2    0    0 -0.12133495592E+02 -0.86753950930E+01  0.37183201755E+02  0.40102773184E+02  0.17770000000E+01 0.  1.
         15    1    1    2    0    0  0.13227901732E+02  0.21790756614E+02  0.26021469166E+03  0.26146636101E+03  0.17770000000E+01 0. -1.
</event>
<event>
 6    1  0.2408691E-003  0.5025244E+03  0.7546771E-02  0.9394179E-01
        -11   -1    0    0    0    0  0.00000000000E+00  0.00000000000E+00  0.50000000000E+03  0.50000000000E+03  0.00000000000E+00 0.  1.
         11   -1    0    0    0    0 -0.00000000000E+00 -0.00000000000E+00 -0.50000000000E+03  0.50000000000E+03  0.00000000000E+00 0. -1.
        -11    1    1    2    0    0 -0.45242145539E+01  0.74132181502E+01  0.36270844236E+03  0.36281240122E+03  0.00000000000E+00 0.  1.
         11    1    1    2    0    0  0.36414297854E+01  0.15722823677E+02 -0.49721376688E+03  0.49747562470E+03  0.00000000000E+00 0. -1.
        -15    1    1    2    0    0 -0.95915891555E+01 -0.24677585985E+02  0.84553882933E+02  0.88619967731E+02  0.17770000000E+01 0.  1.
         15    1    1    2    0    0  0.10474373924E+02  0.15415441569E+01  0.49951441587E+02  0.51092006352E+02  0.17770000000E+01 0. -1.
</event>
<event>
 6    1  0.2408691E-003  0.5233862E+03  0.7546771E-02  0.9348950E-01
        -11   -1    0    0    0    0  0.00000000000E+00  0.00000000000E+00  0.50000000000E+03  0.50000000000E+03  0.00000000000E+00 0.  1.
         11   -1    0    0    0    0 -0.00000000000E+00 -0.00000000000E+00 -0.50000000000E+03  0.50000000000E+03  0.00000000000E+00 0.  1.
        -11    1    1    2    0    0  0.46885810827E+00 -0.38365629610E+02  0.13318624542E+03  0.13860273205E+03  0.00000000000E+00 0.  1.
         11    1    1    2    0    0 -0.10324422851E+03  0.22118434800E+03 -0.40936391373E+03  0.47661378535E+03  0.00000000000E+00 0.  1.
        -15    1    1    2    0    0  0.65587171846E+02 -0.19865369427E+02  0.83278625184E+01  0.69056650921E+02  0.17770000000E+01 0. -1.
         15    1    1    2    0    0  0.37188198560E+02 -0.16295334897E+03  0.26784980579E+03  0.31572683168E+03  0.17770000000E+01 0.  1.
</event>
<event>
 6    1  0.2408691E-003  0.5801616E+03  0.7546771E-02  0.9236392E-01
        -11   -1    0    0    0    0  0.00000000000E+00  0.00000000000E+00  0.50000000000E+03  0.50000000000E+03  0.00000000000E+00 0. -1.
         11   -1    0    0    0    0 -0.00000000000E+00 -0.00000000000E+00 -0.50000000000E+03  0.50000000000E+03  0.00000000000E+00 0.  1.
        -11    1    1    2    0    0  0.31900871288E+01 -0.64156726972E+01  0.41977722494E+03  0.41983836901E+03  0.00000000000E+00 0. -1.
         11    1    1    2    0    0 -0.12370959097E+02  0.10584118126E+02 -0.39302546350E+03  0.39336252890E+03  0.00000000000E+00 0.  1.
        -15    1    1    2    0    0 -0.44811662220E+01  0.10049847269E+02  0.78709893198E+02  0.79495190402E+02  0.17770000000E+01 0. -1.
         15    1    1    2    0    0  0.13662038190E+02 -0.14218292698E+02 -0.10546165464E+03  0.10730391169E+03  0.17770000000E+01 0.  1.
</event>
<event>
 6    1  0.2408691E-003  0.5098623E+03  0.7546771E-02  0.9378009E-01
        -11   -1    0    0    0    0  0.00000000000E+00  0.00000000000E+00  0.50000000000E+03  0.50000000000E+03  0.00000000000E+00 0. -1.
         11   -1    0    0    0    0 -0.00000000000E+00 -0.00000000000E+00 -0.50000000000E+03  0.50000000000E+03  0.00000000000E+00 0. -1.
        -11    1    1    2    0    0  0.23062166319E+02 -0.20313067246E+01  0.48959064584E+03  0.49013772576E+03  0.00000000000E+00 0. -1.
         11    1    1    2    0    0  0.88258134039E+01  0.57676748678E+01 -0.46140969416E+03  0.46153013652E+03  0.00000000000E+00 0. -1.
        -15    1    1    2    0    0 -0.27370806337E+02 -0.60222944046E+01 -0.10708223323E+02  0.30054165189E+02  0.17770000000E+01 0.  1.
         15    1    1    2    0    0 -0.45171733853E+01  0.22859262613E+01 -0.17472728362E+02  0.18277972526E+02  0.17770000000E+01 0. -1.
</event>
<event>
 6    1  0.2408691E-003  0.5095438E+03  0.7546771E-02  0.9378704E-01
        -11   -1    0    0    0    0  0.00000000000E+00  0.00000000000E+00  0.50000000000E+03  0.50000000000E+03  0.00000000000E+00 0.  1.
         11   -1    0    0    0    0 -0.00000000000E+00 -0.00000000000E+00 -0.50000000000E+03  0.50000000000E+03  0.00000000000E+00 0. -1.
        -11    1    1    2    0    0 -0.82342349258E+01  0.78753723180E+01  0.49032381684E+03  0.49045618507E+03  0.00000000000E+00 0.  1.
         11    1    1    2    0    0  0.24644210329E+01  0.80470587123E+01 -0.43941141437E+03  0.43949200175E+03  0.00000000000E+00 0. -1.
        -15    1    1    2    0    0  0.62891534850E+01 -0.14001375602E+02  0.32783028807E+01  0.15795473057E+02  0.17770000000E+01 0.  1.
         15    1    1    2    0    0 -0.51933959212E+00 -0.19210554278E+01 -0.54190705356E+02  0.54256340123E+02  0.17770000000E+01 0. -1.
</event>
<event>
 6    1  0.2408691E-003  0.5033617E+03  0.7546771E-02  0.9392319E-01
        -11   -1    0    0    0    0  0.00000000000E+00  0.00000000000E+00  0.50000000000E+03  0.50000000000E+03  0.00000000000E+00 0. -1.
         11   -1    0    0    0    0 -0.00000000000E+00 -0.00000000000E+00 -0.50000000000E+03  0.50000000000E+03  0.00000000000E+00 0. -1.
        -11    1    1    2    0    0 -0.15661193832E+02 -0.46862877690E+01  0.49636914176E+03  0.49663825787E+03  0.00000000000E+00 0. -1.
         11    1    1    2    0    0  0.49031478342E+01 -0.29531184792E+01 -0.38562591737E+03  0.38566839372E+03  0.00000000000E+00 0. -1.
        -15    1    1    2    0    0 -0.65990924934E+01 -0.11557405533E+02 -0.46812437651E+02  0.48699935239E+02  0.17770000000E+01 0.  1.
         15    1    1    2    0    0  0.17357138491E+02  0.19196811782E+02 -0.63930786739E+02  0.68993413173E+02  0.17770000000E+01 0. -1.
</event>
<event>
 6    1  0.2408691E-003  0.5460449E+03  0.7546771E-02  0.9302293E-01
        -11   -1    0    0    0    0  0.00000000000E+00  0.00000000000E+00  0.50000000000E+03  0.50000000000E+03  0.00000000000E+00 0.  1.
         11   -1    0    0    0    0 -0.00000000000E+00 -0.00000000000E+00 -0.50000000000E+03  0.50000000000E+03  0.00000000000E+00 0. -1.
        -11    1    1    2    0    0  0.96015741112E+01  0.86978905795E+01  0.45377023513E+03  0.45395514075E+03  0.00000000000E+00 0.  1.
         11    1    1    2    0    0  0.26188210650E+01  0.15993399315E+02 -0.27214465098E+03  0.27262677437E+03  0.00000000000E+00 0. -1.
        -15    1    1    2    0    0  0.38104679336E+02  0.39222403613E+02  0.18200439498E+02  0.57660881535E+02  0.17770000000E+01 0.  1.
         15    1    1    2    0    0 -0.50325074512E+02 -0.63913693507E+02 -0.19982602364E+03  0.21575720334E+03  0.17770000000E+01 0. -1.
</event>
<event>
 6    1  0.2408691E-003  0.5049895E+03  0.7546771E-02  0.9388714E-01
        -11   -1    0    0    0    0  0.00000000000E+00  0.00000000000E+00  0.50000000000E+03  0.50000000000E+03  0.00000000000E+00 0.  1.
         11   -1    0    0    0    0 -0.00000000000E+00 -0.00000000000E+00 -0.50000000000E+03  0.50000000000E+03  0.00000000000E+00 0.  1.
        -11    1    1    2    0    0  0.97736584387E+01  0.21068709212E+01  0.42831034353E+03  0.42842702258E+03  0.00000000000E+00 0.  1.
         11    1    1    2    0    0 -0.10585927478E+02  0.98338322127E+01 -0.49479958301E+03  0.49501049834E+03  0.00000000000E+00 0.  1.
        -15    1    1    2    0    0  0.78058832025E+01  0.46252689497E-02 -0.60860098658E+00  0.80286959169E+01  0.17770000000E+01 0. -1.
         15    1    1    2    0    0 -0.69936141634E+01 -0.11945328403E+02  0.67097840473E+02  0.68533783164E+02  0.17770000000E+01 0.  1.
</event>
<event>
 6    1  0.2408691E-003  0.5127760E+03  0.7546771E-02  0.9371668E-01
        -11   -1    0    0    0    0  0.00000000000E+00  0.00000000000E+00  0.50000000000E+03  0.50000000000E+03  0.00000000000E+00 0. -1.
         11   -1    0    0    0    0 -0.00000000000E+00 -0.00000000000E+00 -0.50000000000E+03  0.50000000000E+03  0.00000000000E+00 0. -1.
        -11    1    1    2    0    0 -0.12510623165E+01  0.84419048738E+01  0.47457143668E+03  0.47464816383E+03  0.00000000000E+00 0. -1.
         11    1    1    2    0    0 -0.53453622522E+01  0.41160686812E+01 -0.48717726482E+03  0.48722397547E+03  0.00000000000E+00 0. -1.
        -15    1    1    2    0    0 -0.47215386396E+01 -0.18520871436E+02 -0.11866326726E+01  0.19232301786E+02  0.17770000000E+01 0. -1.
         15    1    1    2    0    0  0.11317963208E+02  0.59628978815E+01  0.13792460808E+02  0.18895558908E+02  0.17770000000E+01 0.  1.
</event>
<event>
 6    1  0.2408691E-003  0.5101460E+03  0.7546771E-02  0.9377389E-01
        -11   -1    0    0    0    0  0.00000000000E+00  0.00000000000E+00  0.50000000000E+03  0.50000000000E+03  0.00000000000E+00 0.  1.
         11   -1    0    0    0    0 -0.00000000000E+00 -0.00000000000E+00 -0.50000000000E+03  0.50000000000E+03  0.00000000000E+00 0. -1.
        -11    1    1    2    0    0  0.35854358072E+01 -0.59966306323E+01 -0.11349936076E+02  0.13328014774E+02  0.00000000000E+00 0.  1.
         11    1    1    2    0    0  0.25663174590E+01  0.80679564409E+01 -0.47645074438E+03  0.47652595914E+03  0.00000000000E+00 0. -1.
        -15    1    1    2    0    0  0.44408767945E+02 -0.33079912536E+02  0.40215071367E+03  0.40594922530E+03  0.17770000000E+01 0.  1.
         15    1    1    2    0    0 -0.50560521211E+02  0.31008586728E+02  0.85649966787E+02  0.10419680079E+03  0.17770000000E+01 0. -1.
</event>
<event>
 6    1  0.2408691E-003  0.5011366E+03  0.7546771E-02  0.9397270E-01
        -11   -1    0    0    0    0  0.00000000000E+00  0.00000000000E+00  0.50000000000E+03  0.50000000000E+03  0.00000000000E+00 0.  1.
         11   -1    0    0    0    0 -0.00000000000E+00 -0.00000000000E+00 -0.50000000000E+03  0.50000000000E+03  0.00000000000E+00 0.  1.
        -11    1    1    2    0    0 -0.17046426857E+01  0.61019552319E+01  0.35236118406E+03  0.35241813758E+03  0.00000000000E+00 0.  1.
         11    1    1    2    0    0 -0.62462622920E+01  0.49401005821E+01 -0.49879986606E+03  0.49886343499E+03  0.00000000000E+00 0.  1.
        -15    1    1    2    0    0 -0.24221085137E+01 -0.25459574823E+01  0.39094820265E+01  0.55488996990E+01  0.17770000000E+01 0. -1.
         15    1    1    2    0    0  0.10373013491E+02 -0.84960983317E+01  0.14252919998E+03  0.14316952773E+03  0.17770000000E+01 0.  1.
</event>
<event>
 6    1  0.2408691E-003  0.5004210E+03  0.7546771E-02  0.9398868E-01
        -11   -1    0    0    0    0  0.00000000000E+00  0.00000000000E+00  0.50000000000E+03  0.50000000000E+03  0.00000000000E+00 0.  1.
         11   -1    0    0    0    0 -0.00000000000E+00 -0.00000000000E+00 -0.50000000000E+03  0.50000000000E+03  0.00000000000E+00 0. -1.
        -11    1    1    2    0    0 -0.33837821177E+01  0.35595279997E+01  0.29481486211E+03  0.29485576667E+03  0.00000000000E+00 0.  1.
         11    1    1    2    0    0 -0.10320105723E+02  0.15834783656E+01 -0.49946989348E+03  0.49957900924E+03  0.00000000000E+00 0. -1.
        -15    1    1    2    0    0  0.54378800720E+01 -0.26029630056E+01  0.15528154957E+03  0.15540869771E+03  0.17770000000E+01 0.  1.
         15    1    1    2    0    0  0.82660077682E+01 -0.25400433597E+01  0.49373481794E+02  0.50156526377E+02  0.17770000000E+01 0. -1.
</event>
<event>
 6    1  0.2408691E-003  0.5043754E+03  0.7546771E-02  0.9390072E-01
        -11   -1    0    0    0    0  0.00000000000E+00  0.00000000000E+00  0.50000000000E+03  0.50000000000E+03  0.00000000000E+00 0. -1.
         11   -1    0    0    0    0 -0.00000000000E+00 -0.00000000000E+00 -0.50000000000E+03  0.50000000000E+03  0.00000000000E+00 0. -1.
        -11    1    1    2    0    0 -0.11398756965E+02  0.57204700796E+01  0.35053822493E+03  0.35077015634E+03  0.00000000000E+00 0. -1.
         11    1    1    2    0    0  0.99977079106E+01  0.39740554686E+02 -0.49392757510E+03  0.49562457092E+03  0.00000000000E+00 0. -1.
        -15    1    1    2    0    0 -0.88651525018E+00 -0.43787855195E+02  0.14370875428E+03  0.15024488663E+03  0.17770000000E+01 0. -1.
         15    1    1    2    0    0  0.22875643048E+01 -0.16731695713E+01 -0.31940411175E+00  0.33603861161E+01  0.17770000000E+01 0.  1.
</event>
<event>
 6    1  0.2408691E-003  0.5078636E+03  0.7546771E-02  0.9382384E-01
        -11   -1    0    0    0    0  0.00000000000E+00  0.00000000000E+00  0.50000000000E+03  0.50000000000E+03  0.00000000000E+00 0. -1.
         11   -1    0    0    0    0 -0.00000000000E+00 -0.00000000000E+00 -0.50000000000E+03  0.50000000000E+03  0.00000000000E+00 0.  1.
        -11    1    1    2    0    0  0.86144026380E+01  0.14505155630E+02  0.49184717150E+03  0.49213641156E+03  0.00000000000E+00 0. -1.
         11    1    1    2    0    0 -0.17954938842E+02  0.12901318562E+02 -0.42611942872E+03  0.42669261932E+03  0.00000000000E+00 0.  1.
        -15    1    1    2    0    0  0.44249667205E+01 -0.17482644388E+02 -0.41636110618E+01  0.18593455068E+02  0.17770000000E+01 0. -1.
         15    1    1    2    0    0  0.49155694836E+01 -0.99238298030E+01 -0.61564131722E+02  0.62577514052E+02  0.17770000000E+01 0.  1.
</event>
<event>
 6    1  0.2408691E-003  0.4475276E+03  0.7546771E-02  0.9525539E-01
        -11   -1    0    0    0    0  0.00000000000E+00  0.00000000000E+00  0.50000000000E+03  0.50000000000E+03  0.00000000000E+00 0. -1.
         11   -1    0    0    0    0 -0.00000000000E+00 -0.00000000000E+00 -0.50000000000E+03  0.50000000000E+03  0.00000000000E+00 0.  1.
        -11    1    1    2    0    0 -0.11908501804E+02  0.34432227370E+01  0.45296702391E+03  0.45313661621E+03  0.00000000000E+00 0. -1.
         11    1    1    2    0    0 -0.30423169679E+02 -0.39760622171E+02 -0.44090257163E+03  0.44373590569E+03  0.00000000000E+00 0.  1.
        -15    1    1    2    0    0  0.35843035667E+02  0.56171579427E+02 -0.32229876613E+02  0.74039801571E+02  0.17770000000E+01 0.  1.
         15    1    1    2    0    0  0.64886358153E+01 -0.19854179993E+02  0.20165424333E+02  0.29087676523E+02  0.17770000000E+01 0. -1.
</event>
<event>
 6    1  0.2408691E-003  0.5138896E+03  0.7546771E-02  0.9369256E-01
        -11   -1    0    0    0    0  0.00000000000E+00  0.00000000000E+00  0.50000000000E+03  0.50000000000E+03  0.00000000000E+00 0.  1.
         11   -1    0    0    0    0 -0.00000000000E+00 -0.00000000000E+00 -0.50000000000E+03  0.50000000000E+03  0.00000000000E+00 0.  1.
        -11    1    1    2    0    0  0.20553423401E+02 -0.32776642447E+02  0.33216165334E+03  0.33440711035E+03  0.00000000000E+00 0.  1.
         11    1    1    2    0    0 -0.33316984944E+02 -0.14893663929E+02 -0.48473860275E+03  0.48611043571E+03  0.00000000000E+00 0.  1.
        -15    1    1    2    0    0  0.34085978146E+02  0.17158380707E+02  0.22862610799E+02  0.44521013423E+02  0.17770000000E+01 0.  1.
         15    1    1    2    0    0 -0.21322416603E+02  0.30511925668E+02  0.12971433861E+03  0.13496144052E+03  0.17770000000E+01 0. -1.
</event>
<event>
 6    1  0.2408691E-003  0.4951731E+03  0.7546771E-02  0.9410676E-01
        -11   -1    0    0    0    0  0.00000000000E+00  0.00000000000E+00  0.50000000000E+03  0.50000000000E+03  0.00000000000E+00 0. -1.
         11   -1    0    0    0    0 -0.00000000000E+00 -0.00000000000E+00 -0.50000000000E+03  0.50000000000E+03  0.00000000000E+00 0. -1.
        -11    1    1    2    0    0 -0.26341613523E+01  0.12400306827E+02  0.49761286077E+03  0.49777431193E+03  0.00000000000E+00 0. -1.
         11    1    1    2    0    0 -0.43286511491E+00  0.39405807474E+00 -0.13903135152E+02  0.13915452599E+02  0.00000000000E+00 0. -1.
        -15    1    1    2    0    0  0.22819250554E+02 -0.72914549348E+01 -0.43182378207E+03  0.43249141032E+03  0.17770000000E+01 0. -1.
         15    1    1    2    0    0 -0.19752224087E+02 -0.55029099667E+01 -0.51885943542E+02  0.55818825146E+02  0.17770000000E+01 0.  1.
</event>
<event>
 6    1  0.2408691E-003  0.5054964E+03  0.7546771E-02  0.9387594E-01
        -11   -1    0    0    0    0  0.00000000000E+00  0.00000000000E+00  0.50000000000E+03  0.50000000000E+03  0.00000000000E+00 0.  1.
         11   -1    0    0    0    0 -0.00000000000E+00 -0.00000000000E+00 -0.50000000000E+03  0.50000000000E+03  0.00000000000E+00 0.  1.
        -11    1    1    2    0    0 -0.15626068547E+01 -0.59363992058E+01  0.45107095825E+03  0.45111272643E+03  0.00000000000E+00 0.  1.
         11    1    1    2    0    0  0.13846419160E+02 -0.96650600220E+01 -0.49421518248E+03  0.49450357259E+03  0.00000000000E+00 0.  1.
        -15    1    1    2    0    0 -0.12908270248E+02  0.36420454224E+01  0.50986882429E+01  0.14458294728E+02  0.17770000000E+01 0. -1.
         15    1    1    2    0    0  0.62445794254E+00  0.11959413805E+02  0.38045535990E+02  0.39925406248E+02  0.17770000000E+01 0.  1.
</event>
<event>
 6    1  0.2408691E-003  0.5027780E+03  0.7546771E-02  0.9393615E-01
        -11   -1    0    0    0    0  0.00000000000E+00  0.00000000000E+00  0.50000000000E+03  0.50000000000E+03  0.00000000000E+00 0.  1.
         11   -1    0    0    0    0 -0.00000000000E+00 -0.00000000000E+00 -0.50000000000E+03  0.50000000000E+03  0.00000000000E+00 0. -1.
        -11    1    1    2    0    0 -0.61158102192E+00  0.65210314589E+01  0.47592893639E+03  0.47597400179E+03  0.00000000000E+00 0.  1.
         11    1    1    2    0    0 -0.33677445886E+01  0.64303484167E+01 -0.49716899186E+03  0.49722198016E+03  0.00000000000E+00 0. -1.
        -15    1    1    2    0    0  0.10745530942E+01 -0.12771725442E+02  0.16885125304E+02  0.21272912839E+02  0.17770000000E+01 0.  1.
         15    1    1    2    0    0  0.29047725164E+01 -0.17965443362E+00  0.43549301688E+01  0.55311052117E+01  0.17770000000E+01 0. -1.
</event>
<event>
 6    1  0.2408691E-003  0.5027630E+03  0.7546771E-02  0.9393648E-01
        -11   -1    0    0    0    0  0.00000000000E+00  0.00000000000E+00  0.50000000000E+03  0.50000000000E+03  0.00000000000E+00 0. -1.
         11   -1    0    0    0    0 -0.00000000000E+00 -0.00000000000E+00 -0.50000000000E+03  0.50000000000E+03  0.00000000000E+00 0. -1.
        -11    1    1    2    0    0  0.51580530013E+01  0.64777504736E+01  0.44415037998E+03  0.44422756196E+03  0.00000000000E+00 0. -1.
         11    1    1    2    0    0 -0.27838948990E+01 -0.63864097813E+01 -0.49718817157E+03  0.49723697997E+03  0.00000000000E+00 0. -1.
        -15    1    1    2    0    0 -0.56403174359E+01 -0.11337775930E+02  0.30563433445E+02  0.33130643470E+02  0.17770000000E+01 0.  1.
         15    1    1    2    0    0  0.32661593337E+01  0.11246435238E+02  0.22474358141E+02  0.25404814607E+02  0.17770000000E+01 0. -1.
</event>
<event>
 6    1  0.2408691E-003  0.5248047E+03  0.7546771E-02  0.9345956E-01
        -11   -1    0    0    0    0  0.00000000000E+00  0.00000000000E+00  0.50000000000E+03  0.50000000000E+03  0.00000000000E+00 0. -1.
         11   -1    0    0    0    0 -0.00000000000E+00 -0.00000000000E+00 -0.50000000000E+03  0.50000000000E+03  0.00000000000E+00 0. -1.
        -11    1    1    2    0    0 -0.18086138499E+02  0.14395252525E+01  0.47484884922E+03  0.47519533903E+03  0.00000000000E+00 0. -1.
         11    1    1    2    0    0  0.26961670246E+02 -0.40563470466E+02 -0.41912663411E+03  0.42194722682E+03  0.00000000000E+00 0. -1.
        -15    1    1    2    0    0 -0.20663456023E+02  0.49524228532E+02 -0.65163786214E+02  0.84434023884E+02  0.17770000000E+01 0. -1.
         15    1    1    2    0    0  0.11787924276E+02 -0.10400283319E+02  0.94415711059E+01  0.18423410265E+02  0.17770000000E+01 0.  1.
</event>
<event>
 6    1  0.2408691E-003  0.5064677E+03  0.7546771E-02  0.9385453E-01
        -11   -1    0    0    0    0  0.00000000000E+00  0.00000000000E+00  0.50000000000E+03  0.50000000000E+03  0.00000000000E+00 0.  1.
         11   -1    0    0    0    0 -0.00000000000E+00 -0.00000000000E+00 -0.50000000000E+03  0.50000000000E+03  0.00000000000E+00 0. -1.
        -11    1    1    2    0    0 -0.60427597088E+01 -0.77479222877E+01  0.45131176423E+03  0.45141871226E+03  0.00000000000E+00 0.  1.
         11    1    1    2    0    0  0.87093695690E+00 -0.17307913042E+02 -0.49322794454E+03  0.49353229647E+03  0.00000000000E+00 0. -1.
        -15    1    1    2    0    0  0.98658523555E+01  0.24024210242E+02  0.20803147637E+02  0.33323061100E+02  0.17770000000E+01 0.  1.
         15    1    1    2    0    0 -0.46940296035E+01  0.10316250877E+01  0.21113032668E+02  0.21725930169E+02  0.17770000000E+01 0. -1.
</event>
<event>
 6    1  0.2408691E-003  0.5005079E+03  0.7546771E-02  0.9398674E-01
        -11   -1    0    0    0    0  0.00000000000E+00  0.00000000000E+00  0.50000000000E+03  0.50000000000E+03  0.00000000000E+00 0. -1.
         11   -1    0    0    0    0 -0.00000000000E+00 -0.00000000000E+00 -0.50000000000E+03  0.50000000000E+03  0.00000000000E+00 0. -1.
        -11    1    1    2    0    0  0.10594836836E+02 -0.20511202086E+00  0.38454632457E+03  0.38469230351E+03  0.00000000000E+00 0. -1.
         11    1    1    2    0    0 -0.60038991261E+01 -0.35027187695E+01 -0.49944372039E+03  0.49949208770E+03  0.00000000000E+00 0. -1.
        -15    1    1    2    0    0 -0.77151471634E+01 -0.13650918158E+01  0.52793884963E+02  0.53401675909E+02  0.17770000000E+01 0. -1.
         15    1    1    2    0    0  0.31242094531E+01  0.50729226062E+01  0.62103510854E+02  0.62413932883E+02  0.17770000000E+01 0.  1.
</event>
<event>
 6    1  0.2408691E-003  0.4901008E+03  0.7546771E-02  0.9422237E-01
        -11   -1    0    0    0    0  0.00000000000E+00  0.00000000000E+00  0.50000000000E+03  0.50000000000E+03  0.00000000000E+00 0. -1.
         11   -1    0    0    0    0 -0.00000000000E+00 -0.00000000000E+00 -0.50000000000E+03  0.50000000000E+03  0.00000000000E+00 0.  1.
        -11    1    1    2    0    0 -0.11446866700E+02 -0.33965511484E+01  0.48985549083E+03  0.49000098899E+03  0.00000000000E+00 0. -1.
         11    1    1    2    0    0 -0.23590423283E+01  0.98942767884E+01 -0.49021386136E+03  0.49031937720E+03  0.00000000000E+00 0.  1.
        -15    1    1    2    0    0  0.26884616308E+01 -0.38307712277E-01 -0.47420015244E+01  0.57335504601E+01  0.17770000000E+01 0. -1.
         15    1    1    2    0    0  0.11117447398E+02 -0.64594179277E+01  0.51003720499E+01  0.13946083345E+02  0.17770000000E+01 0.  1.
</event>
<event>
 6    1  0.2408691E-003  0.4820015E+03  0.7546771E-02  0.9441008E-01
        -11   -1    0    0    0    0  0.00000000000E+00  0.00000000000E+00  0.50000000000E+03  0.50000000000E+03  0.00000000000E+00 0. -1.
         11   -1    0    0    0    0 -0.00000000000E+00 -0.00000000000E+00 -0.50000000000E+03  0.50000000000E+03  0.00000000000E+00 0. -1.
        -11    1    1    2    0    0 -0.10548727978E+02 -0.11240971583E+02  0.48429245118E+03  0.48453773163E+03  0.00000000000E+00 0. -1.
         11    1    1    2    0    0  0.12654638207E+01 -0.13040991474E+02 -0.47964802040E+03  0.47982693998E+03  0.00000000000E+00 0. -1.
        -15    1    1    2    0    0  0.71762478332E+01  0.20214311743E+02 -0.13571579678E+02  0.25445283181E+02  0.17770000000E+01 0.  1.
         15    1    1    2    0    0  0.21070163240E+01  0.40676513135E+01  0.89271488963E+01  0.10190045212E+02  0.17770000000E+01 0. -1.
</event>
<event>
 6    1  0.2408691E-003  0.5006778E+03  0.7546771E-02  0.9398294E-01
        -11   -1    0    0    0    0  0.00000000000E+00  0.00000000000E+00  0.50000000000E+03  0.50000000000E+03  0.00000000000E+00 0. -1.
         11   -1    0    0    0    0 -0.00000000000E+00 -0.00000000000E+00 -0.50000000000E+03  0.50000000000E+03  0.00000000000E+00 0. -1.
        -11    1    1    2    0    0  0.58903411784E+01  0.59363379700E+01  0.49925217451E+03  0.49932221058E+03  0.00000000000E+00 0. -1.
         11    1    1    2    0    0 -0.47268709815E+00 -0.16829821784E+01 -0.39174896784E+02  0.39213880198E+02  0.00000000000E+00 0. -1.
        -15    1    1    2    0    0  0.10820152842E+02  0.70318373841E+01 -0.10075630666E+03  0.10159484980E+03  0.17770000000E+01 0. -1.
         15    1    1    2    0    0 -0.16237806922E+02 -0.11285193176E+02 -0.35932097106E+03  0.35986905943E+03  0.17770000000E+01 0.  1.
</event>
<event>
 6    1  0.2408691E-003  0.5080195E+03  0.7546771E-02  0.9382042E-01
        -11   -1    0    0    0    0  0.00000000000E+00  0.00000000000E+00  0.50000000000E+03  0.50000000000E+03  0.00000000000E+00 0. -1.
         11   -1    0    0    0    0 -0.00000000000E+00 -0.00000000000E+00 -0.50000000000E+03  0.50000000000E+03  0.00000000000E+00 0.  1.
        -11    1    1    2    0    0  0.20414926397E+01  0.76977241639E+01  0.46841250646E+03  0.46848020114E+03  0.00000000000E+00 0. -1.
         11    1    1    2    0    0 -0.20788957789E+00  0.11202436966E+02 -0.49185285813E+03  0.49198045882E+03  0.00000000000E+00 0.  1.
        -15    1    1    2    0    0 -0.97036139832E+00 -0.44963816098E+01 -0.53563875078E+01  0.72806363018E+01  0.17770000000E+01 0. -1.
         15    1    1    2    0    0 -0.86324166344E+00 -0.14403779520E+02  0.28796739173E+02  0.32258703734E+02  0.17770000000E+01 0.  1.
</event>
<event>
 6    1  0.2408691E-003  0.5007231E+03  0.7546771E-02  0.9398193E-01
        -11   -1    0    0    0    0  0.00000000000E+00  0.00000000000E+00  0.50000000000E+03  0.50000000000E+03  0.00000000000E+00 0. -1.
         11   -1    0    0    0    0 -0.00000000000E+00 -0.00000000000E+00 -0.50000000000E+03  0.50000000000E+03  0.00000000000E+00 0. -1.
        -11    1    1    2    0    0  0.55063992731E+01 -0.42993422685E+00  0.35152556137E+03  0.35156894853E+03  0.00000000000E+00 0. -1.
         11    1    1    2    0    0  0.11938690161E+02  0.92838613327E+01 -0.49904780840E+03  0.49927691462E+03  0.00000000000E+00 0. -1.
        -15    1    1    2    0    0 -0.17723999477E+02 -0.83907231895E+01  0.12345869970E+03  0.12501900917E+03  0.17770000000E+01 0. -1.
         15    1    1    2    0    0  0.27891004332E+00 -0.46320391640E+00  0.24063547328E+02  0.24135127671E+02  0.17770000000E+01 0. -1.
</event>
<event>
 6    1  0.2408691E-003  0.5398752E+03  0.7546771E-02  0.9314756E-01
        -11   -1    0    0    0    0  0.00000000000E+00  0.00000000000E+00  0.50000000000E+03  0.50000000000E+03  0.00000000000E+00 0. -1.
         11   -1    0    0    0    0 -0.00000000000E+00 -0.00000000000E+00 -0.50000000000E+03  0.50000000000E+03  0.00000000000E+00 0.  1.
        -11    1    1    2    0    0  0.68677523260E+01  0.45772711484E+01  0.22842589380E+03  0.22857494699E+03  0.00000000000E+00 0. -1.
         11    1    1    2    0    0 -0.22726583268E+02 -0.84810976158E+01 -0.45948493298E+03  0.46012479855E+03  0.00000000000E+00 0.  1.
        -15    1    1    2    0    0  0.14601685662E+01  0.50485240098E+02 -0.20879712823E+02  0.54680999411E+02  0.17770000000E+01 0.  1.
         15    1    1    2    0    0  0.14398662376E+02 -0.46581413630E+02  0.25193875200E+03  0.25661925505E+03  0.17770000000E+01 0. -1.
</event>
<event>
 6    1  0.2408691E-003  0.5101854E+03  0.7546771E-02  0.9377303E-01
        -11   -1    0    0    0    0  0.00000000000E+00  0.00000000000E+00  0.50000000000E+03  0.50000000000E+03  0.00000000000E+00 0.  1.
         11   -1    0    0    0    0 -0.00000000000E+00 -0.00000000000E+00 -0.50000000000E+03  0.50000000000E+03  0.00000000000E+00 0. -1.
        -11    1    1    2    0    0 -0.17946660387E+01 -0.87168476167E+01  0.48012533960E+03  0.48020781542E+03  0.00000000000E+00 0.  1.
         11    1    1    2    0    0  0.50594961967E+01  0.52364494325E+01 -0.48976048391E+03  0.48981460830E+03  0.00000000000E+00 0. -1.
        -15    1    1    2    0    0 -0.47958318508E+01 -0.39070686258E+01 -0.82626710748E+01  0.10473521408E+02  0.17770000000E+01 0.  1.
         15    1    1    2    0    0  0.15310016928E+01  0.73874668099E+01  0.17897815384E+02  0.19504054875E+02  0.17770000000E+01 0.  1.
</event>
<event>
 6    1  0.2408691E-003  0.5006190E+03  0.7546771E-02  0.9398426E-01
        -11   -1    0    0    0    0  0.00000000000E+00  0.00000000000E+00  0.50000000000E+03  0.50000000000E+03  0.00000000000E+00 0.  1.
         11   -1    0    0    0    0 -0.00000000000E+00 -0.00000000000E+00 -0.50000000000E+03  0.50000000000E+03  0.00000000000E+00 0.  1.
        -11    1    1    2    0    0 -0.63611475285E+01 -0.17850577263E+01  0.45492073976E+03  0.45496871331E+03  0.00000000000E+00 0.  1.
         11    1    1    2    0    0  0.73539348438E+01  0.64634230878E+01 -0.49928504215E+03  0.49938102638E+03  0.00000000000E+00 0.  1.
        -15    1    1    2    0    0  0.29722999540E+01  0.50733105669E+00  0.22270042501E+02  0.22543390912E+02  0.17770000000E+01 0.  1.
         15    1    1    2    0    0 -0.39650872694E+01 -0.51856964182E+01  0.22094259886E+02  0.23106869396E+02  0.17770000000E+01 0. -1.
</event>
<event>
 6    1  0.2408691E-003  0.5203999E+03  0.7546771E-02  0.9355286E-01
        -11   -1    0    0    0    0  0.00000000000E+00  0.00000000000E+00  0.50000000000E+03  0.50000000000E+03  0.00000000000E+00 0. -1.
         11   -1    0    0    0    0 -0.00000000000E+00 -0.00000000000E+00 -0.50000000000E+03  0.50000000000E+03  0.00000000000E+00 0.  1.
        -11    1    1    2    0    0  0.29351152834E+01  0.75403389001E+01  0.47953181870E+03  0.47960008002E+03  0.00000000000E+00 0. -1.
         11    1    1    2    0    0  0.64479752579E+01  0.84141617345E+00 -0.46027616977E+03  0.46032210117E+03  0.00000000000E+00 0.  1.
        -15    1    1    2    0    0 -0.35110180347E+00 -0.10693419742E+02  0.18337672413E+02  0.21304939727E+02  0.17770000000E+01 0.  1.
         15    1    1    2    0    0 -0.90319887379E+01  0.23116646686E+01 -0.37593321340E+02  0.38772879084E+02  0.17770000000E+01 0. -1.
</event>
<event>
 6    1  0.2408691E-003  0.5354727E+03  0.7546771E-02  0.9323758E-01
        -11   -1    0    0    0    0  0.00000000000E+00  0.00000000000E+00  0.50000000000E+03  0.50000000000E+03  0.00000000000E+00 0.  1.
         11   -1    0    0    0    0 -0.00000000000E+00 -0.00000000000E+00 -0.50000000000E+03  0.50000000000E+03  0.00000000000E+00 0.  1.
        -11    1    1    2    0    0  0.45680941706E+02  0.15793900416E+02  0.46200587787E+03  0.46452731557E+03  0.00000000000E+00 0.  1.
         11    1    1    2    0    0 -0.29291349535E+02 -0.15022680436E+02 -0.30703479197E+03  0.30879447463E+03  0.00000000000E+00 0.  1.
        -15    1    1    2    0    0  0.90469813013E+01  0.32076852236E+02 -0.17665543287E+03  0.17978062190E+03  0.17770000000E+01 0.  1.
         15    1    1    2    0    0 -0.25436573472E+02 -0.32848072216E+02  0.21684346970E+02  0.46897587900E+02  0.17770000000E+01 0. -1.
</event>
<event>
 6    1  0.2408691E-003  0.5131737E+03  0.7546771E-02  0.9370806E-01
        -11   -1    0    0    0    0  0.00000000000E+00  0.00000000000E+00  0.50000000000E+03  0.50000000000E+03  0.00000000000E+00 0. -1.
         11   -1    0    0    0    0 -0.00000000000E+00 -0.00000000000E+00 -0.50000000000E+03  0.50000000000E+03  0.00000000000E+00 0. -1.
        -11    1    1    2    0    0 -0.75733404262E+01 -0.29631746535E+02  0.48586464164E+03  0.48682629950E+03  0.00000000000E+00 0. -1.
         11    1    1    2    0    0  0.61577206662E+01 -0.52712581353E+00 -0.45182438367E+03  0.45186664965E+03  0.00000000000E+00 0. -1.
        -15    1    1    2    0    0 -0.14595792783E+01  0.17191445570E+02 -0.42194600051E+02  0.45620370175E+02  0.17770000000E+01 0.  1.
         15    1    1    2    0    0  0.28751990383E+01  0.12967426778E+02  0.81543420860E+01  0.15686680675E+02  0.17770000000E+01 0. -1.
</event>
<event>
 6    1  0.2408691E-003  0.5077173E+03  0.7546771E-02  0.9382705E-01
        -11   -1    0    0    0    0  0.00000000000E+00  0.00000000000E+00  0.50000000000E+03  0.50000000000E+03  0.00000000000E+00 0. -1.
         11   -1    0    0    0    0 -0.00000000000E+00 -0.00000000000E+00 -0.50000000000E+03  0.50000000000E+03  0.00000000000E+00 0.  1.
        -11    1    1    2    0    0 -0.72493946587E+01  0.16117359917E+01  0.40923280964E+03  0.40930018801E+03  0.00000000000E+00 0. -1.
         11    1    1    2    0    0  0.25414893469E+02  0.16120699930E+01 -0.49162354445E+03  0.49228266782E+03  0.00000000000E+00 0.  1.
        -15    1    1    2    0    0 -0.25034176456E+02 -0.43039415700E+01  0.12877745992E+02  0.28534680210E+02  0.17770000000E+01 0. -1.
         15    1    1    2    0    0  0.68686776449E+01  0.10801355854E+01  0.69512988816E+02  0.69882463956E+02  0.17770000000E+01 0.  1.
</event>
<event>
 6    1  0.2408691E-003  0.5054897E+03  0.7546771E-02  0.9387609E-01
        -11   -1    0    0    0    0  0.00000000000E+00  0.00000000000E+00  0.50000000000E+03  0.50000000000E+03  0.00000000000E+00 0.  1.
         11   -1    0    0    0    0 -0.00000000000E+00 -0.00000000000E+00 -0.50000000000E+03  0.50000000000E+03  0.00000000000E+00 0. -1.
        -11    1    1    2    0    0 -0.21323674391E+02  0.11700876206E+01  0.43710991043E+03  0.43763128543E+03  0.00000000000E+00 0.  1.
         11    1    1    2    0    0 -0.10806964856E+01  0.75011017396E+01 -0.49445223494E+03  0.49451031037E+03  0.00000000000E+00 0. -1.
        -15    1    1    2    0    0  0.15909274899E+02  0.14137241515E+01  0.52321116507E+02  0.54733541867E+02  0.17770000000E+01 0.  1.
         15    1    1    2    0    0  0.64950959773E+01 -0.10084913512E+02  0.50212079998E+01  0.13124862326E+02  0.17770000000E+01 0. -1.
</event>
<event>
 6    1  0.2408691E-003  0.5002239E+03  0.7546771E-02  0.9399309E-01
        -11   -1    0    0    0    0  0.00000000000E+00  0.00000000000E+00  0.50000000000E+03  0.50000000000E+03  0.00000000000E+00 0.  1.
         11   -1    0    0    0    0 -0.00000000000E+00 -0.00000000000E+00 -0.50000000000E+03  0.50000000000E+03  0.00000000000E+00 0. -1.
        -11    1    1    2    0    0  0.21003224653E+01  0.75282378545E+01  0.49971494825E+03  0.49977606508E+03  0.00000000000E+00 0.  1.
         11    1    1    2    0    0 -0.70129272158E+01 -0.31550513211E+01 -0.31838223579E+03  0.31847509096E+03  0.00000000000E+00 0. -1.
        -15    1    1    2    0    0  0.62302929190E+01 -0.94796363533E+00 -0.61658956812E+02  0.62005643849E+02  0.17770000000E+01 0.  1.
         15    1    1    2    0    0 -0.13176881686E+01 -0.34252228980E+01 -0.11967375565E+03  0.11974320012E+03  0.17770000000E+01 0. -1.
</event>
<event>
 6    1  0.2408691E-003  0.5074730E+03  0.7546771E-02  0.9383242E-01
        -11   -1    0    0    0    0  0.00000000000E+00  0.00000000000E+00  0.50000000000E+03  0.50000000000E+03  0.00000000000E+00 0. -1.
         11   -1    0    0    0    0 -0.00000000000E+00 -0.00000000000E+00 -0.50000000000E+03  0.50000000000E+03  0.00000000000E+00 0. -1.
        -11    1    1    2    0    0  0.17756260218E+01 -0.73571693402E+01  0.49246889474E+03  0.49252704806E+03  0.00000000000E+00 0. -1.
         11    1    1    2    0    0  0.14956450592E+01  0.79213826726E+01 -0.48189608523E+03  0.48196350714E+03  0.00000000000E+00 0. -1.
        -15    1    1    2    0    0 -0.14100384234E+01 -0.24015923921E+00  0.71977672877E+01  0.75505938669E+01  0.17770000000E+01 0.  1.
         15    1    1    2    0    0 -0.18612326577E+01 -0.32405409324E+00 -0.17770576797E+02  0.17958850931E+02  0.17770000000E+01 0. -1.
</event>
<event>
 6    1  0.2408691E-003  0.5137951E+03  0.7546771E-02  0.9369460E-01
        -11   -1    0    0    0    0  0.00000000000E+00  0.00000000000E+00  0.50000000000E+03  0.50000000000E+03  0.00000000000E+00 0. -1.
         11   -1    0    0    0    0 -0.00000000000E+00 -0.00000000000E+00 -0.50000000000E+03  0.50000000000E+03  0.00000000000E+00 0. -1.
        -11    1    1    2    0    0 -0.20923471169E+02  0.18939725393E+02  0.44239603523E+03  0.44329533816E+03  0.00000000000E+00 0. -1.
         11    1    1    2    0    0 -0.56763452906E+01  0.17301041826E+02 -0.48586386010E+03  0.48620493364E+03  0.00000000000E+00 0. -1.
        -15    1    1    2    0    0  0.10168648952E+02 -0.44118388980E+01 -0.31717252956E+01  0.11665475315E+02  0.17770000000E+01 0. -1.
         15    1    1    2    0    0  0.16431167508E+02 -0.31828928321E+02  0.46639550168E+02  0.58834252886E+02  0.17770000000E+01 0.  1.
</event>
<event>
 6    1  0.2408691E-003  0.5008050E+03  0.7546771E-02  0.9398010E-01
        -11   -1    0    0    0    0  0.00000000000E+00  0.00000000000E+00  0.50000000000E+03  0.50000000000E+03  0.00000000000E+00 0.  1.
         11   -1    0    0    0    0 -0.00000000000E+00 -0.00000000000E+00 -0.50000000000E+03  0.50000000000E+03  0.00000000000E+00 0.  1.
        -11    1    1    2    0    0 -0.50757357397E+01  0.24898933963E+01  0.36789897860E+03  0.36794241549E+03  0.00000000000E+00 0.  1.
         11    1    1    2    0    0 -0.53330897397E+01 -0.53200076254E+01 -0.49913820768E+03  0.49919504674E+03  0.00000000000E+00 0.  1.
        -15    1    1    2    0    0  0.11834607560E+02  0.83990748319E+01  0.97690071243E+02  0.98778085336E+02  0.17770000000E+01 0.  1.
         15    1    1    2    0    0 -0.14257820801E+01 -0.55689606027E+01  0.33549157836E+02  0.34084452427E+02  0.17770000000E+01 0. -1.
</event>
<event>
 6    1  0.2408691E-003  0.5015073E+03  0.7546771E-02  0.9396443E-01
        -11   -1    0    0    0    0  0.00000000000E+00  0.00000000000E+00  0.50000000000E+03  0.50000000000E+03  0.00000000000E+00 0.  1.
         11   -1    0    0    0    0 -0.00000000000E+00 -0.00000000000E+00 -0.50000000000E+03  0.50000000000E+03  0.00000000000E+00 0.  1.
        -11    1    1    2    0    0 -0.76991465809E+01 -0.10472165670E+02  0.24020641827E+03  0.24055782359E+03  0.00000000000E+00 0.  1.
         11    1    1    2    0    0 -0.11068436642E+02 -0.11317034454E+02 -0.49824127114E+03  0.49849267781E+03  0.00000000000E+00 0.  1.
        -15    1    1    2    0    0  0.18943964131E+02  0.17053267184E+02  0.25092251851E+03  0.25222005417E+03  0.17770000000E+01 0.  1.
         15    1    1    2    0    0 -0.17638090784E+00  0.47359329395E+01  0.71123343591E+01  0.87294444306E+01  0.17770000000E+01 0. -1.
</event>
<event>
 6    1  0.2408691E-003  0.4730674E+03  0.7546771E-02  0.9462176E-01
        -11   -1    0    0    0    0  0.00000000000E+00  0.00000000000E+00  0.50000000000E+03  0.50000000000E+03  0.00000000000E+00 0. -1.
         11   -1    0    0    0    0 -0.00000000000E+00 -0.00000000000E+00 -0.50000000000E+03  0.50000000000E+03  0.00000000000E+00 0.  1.
        -11    1    1    2    0    0 -0.87366884191E+01  0.36003118480E+00  0.48162665165E+03  0.48170602127E+03  0.00000000000E+00 0. -1.
         11    1    1    2    0    0 -0.17932744438E+02  0.20315792890E+02 -0.46439718732E+03  0.46518712617E+03  0.00000000000E+00 0.  1.
        -15    1    1    2    0    0  0.35705272649E+02 -0.14493750586E+02 -0.99449692549E+01  0.39837111385E+02  0.17770000000E+01 0. -1.
         15    1    1    2    0    0 -0.90358397922E+01 -0.61820734890E+01 -0.72844950754E+01  0.13269741176E+02  0.17770000000E+01 0.  1.
</event>
<event>
 6    1  0.2408691E-003  0.5005237E+03  0.7546771E-02  0.9398639E-01
        -11   -1    0    0    0    0  0.00000000000E+00  0.00000000000E+00  0.50000000000E+03  0.50000000000E+03  0.00000000000E+00 0.  1.
         11   -1    0    0    0    0 -0.00000000000E+00 -0.00000000000E+00 -0.50000000000E+03  0.50000000000E+03  0.00000000000E+00 0.  1.
        -11    1    1    2    0    0  0.10271653589E+02  0.43270532843E+01  0.28136629919E+03  0.28158697516E+03  0.00000000000E+00 0.  1.
         11    1    1    2    0    0 -0.68934719573E+01  0.13455001311E+02 -0.49924742551E+03  0.49947627461E+03  0.00000000000E+00 0.  1.
        -15    1    1    2    0    0 -0.92715483892E+00 -0.58377683918E+01  0.13536910953E+03  0.13550975131E+03  0.17770000000E+01 0.  1.
         15    1    1    2    0    0 -0.24510267925E+01 -0.11944286203E+02  0.82512016790E+02  0.83426998921E+02  0.17770000000E+01 0. -1.
</event>
<event>
 6    1  0.2408691E-003  0.5000934E+03  0.7546771E-02  0.9399601E-01
        -11   -1    0    0    0    0  0.00000000000E+00  0.00000000000E+00  0.50000000000E+03  0.50000000000E+03  0.00000000000E+00 0.  1.
         11   -1    0    0    0    0 -0.00000000000E+00 -0.00000000000E+00 -0.50000000000E+03  0.50000000000E+03  0.00000000000E+00 0. -1.
        -11    1    1    2    0    0  0.27647636858E+01 -0.11043555683E+02  0.49977693878E+03  0.49990658385E+03  0.00000000000E+00 0.  1.
         11    1    1    2    0    0  0.74894525442E+00  0.23884189682E+00 -0.44891410450E+02  0.44898292803E+02  0.00000000000E+00 0. -1.
        -15    1    1    2    0    0 -0.39095346534E+01  0.12246282074E+02 -0.43138153965E+03  0.43157669812E+03  0.17770000000E+01 0. -1.
         15    1    1    2    0    0  0.39582571324E+00 -0.14415682871E+01 -0.23503988681E+02  0.23618425224E+02  0.17770000000E+01 0. -1.
</event>
<event>
 6    1  0.2408691E-003  0.5212833E+03  0.7546771E-02  0.9353407E-01
        -11   -1    0    0    0    0  0.00000000000E+00  0.00000000000E+00  0.50000000000E+03  0.50000000000E+03  0.00000000000E+00 0. -1.
         11   -1    0    0    0    0 -0.00000000000E+00 -0.00000000000E+00 -0.50000000000E+03  0.50000000000E+03  0.00000000000E+00 0.  1.
        -11    1    1    2    0    0 -0.26487774683E+01 -0.83585287152E+01  0.47863638393E+03  0.47871668975E+03  0.00000000000E+00 0. -1.
         11    1    1    2    0    0 -0.68327734921E+01  0.64023228163E+01 -0.37959784126E+03  0.37971330977E+03  0.00000000000E+00 0.  1.
        -15    1    1    2    0    0 -0.10096675007E+02 -0.20579810673E+02 -0.10794500230E+03  0.11036644736E+03  0.17770000000E+01 0.  1.
         15    1    1    2    0    0  0.19578225968E+02  0.22536016572E+02  0.89064596267E+01  0.31203553116E+02  0.17770000000E+01 0. -1.
</event>
<event>
 6    1  0.2408691E-003  0.5167262E+03  0.7546771E-02  0.9363142E-01
        -11   -1    0    0    0    0  0.00000000000E+00  0.00000000000E+00  0.50000000000E+03  0.50000000000E+03  0.00000000000E+00 0.  1.
         11   -1    0    0    0    0 -0.00000000000E+00 -0.00000000000E+00 -0.50000000000E+03  0.50000000000E+03  0.00000000000E+00 0. -1.
        -11    1    1    2    0    0 -0.20504423837E+02 -0.12530863446E+02  0.48267600153E+03  0.48327381099E+03  0.00000000000E+00 0.  1.
         11    1    1    2    0    0  0.21914989110E-02 -0.63263704443E+01 -0.33096768179E+03  0.33102813982E+03  0.00000000000E+00 0. -1.
        -15    1    1    2    0    0 -0.23138832061E+02  0.44919681231E+02 -0.45845423554E+02  0.68250596340E+02  0.17770000000E+01 0.  1.
         15    1    1    2    0    0  0.43641064398E+02 -0.26062447341E+02 -0.10586289619E+03  0.11744745285E+03  0.17770000000E+01 0. -1.
</event>
<event>
 6    1  0.2408691E-003  0.5027053E+03  0.7546771E-02  0.9393777E-01
        -11   -1    0    0    0    0  0.00000000000E+00  0.00000000000E+00  0.50000000000E+03  0.50000000000E+03  0.00000000000E+00 0. -1.
         11   -1    0    0    0    0 -0.00000000000E+00 -0.00000000000E+00 -0.50000000000E+03  0.50000000000E+03  0.00000000000E+00 0. -1.
        -11    1    1    2    0    0 -0.16324287809E+02 -0.44740985338E+01  0.49700654748E+03  0.49729468947E+03  0.00000000000E+00 0. -1.
         11    1    1    2    0    0 -0.44547802536E+01 -0.36993793187E+01 -0.39773010735E+03  0.39777225741E+03  0.00000000000E+00 0. -1.
        -15    1    1    2    0    0  0.37396762791E+01 -0.10538420783E+01 -0.55048668745E+00  0.43077286813E+01  0.17770000000E+01 0.  1.
         15    1    1    2    0    0  0.17039391783E+02  0.92273199308E+01 -0.98725953444E+02  0.10062532444E+03  0.17770000000E+01 0. -1.
</event>
<event>
 6    1  0.2408691E-003  0.3835131E+03  0.7546771E-02  0.9706409E-01
        -11   -1    0    0    0    0  0.00000000000E+00  0.00000000000E+00  0.50000000000E+03  0.50000000000E+03  0.00000000000E+00 0.  1.
         11   -1    0    0    0    0 -0.00000000000E+00 -0.00000000000E+00 -0.50000000000E+03  0.50000000000E+03  0.00000000000E+00 0. -1.
        -11    1    1    2    0    0 -0.11376660338E+02  0.23323408172E+02  0.38274591556E+03  0.38362461554E+03  0.00000000000E+00 0.  1.
         11    1    1    2    0    0 -0.12126693870E+02  0.24212988614E+02 -0.38428100071E+03  0.38523397180E+03  0.00000000000E+00 0. -1.
        -15    1    1    2    0    0 -0.35007258924E+01 -0.47037621520E+02  0.10981516043E+03  0.11952957839E+03  0.17770000000E+01 0.  1.
         15    1    1    2    0    0  0.27004080101E+02 -0.49877526577E+00 -0.10828007527E+03  0.11161183427E+03  0.17770000000E+01 0. -1.
</event>
<event>
 6    1  0.2408691E-003  0.4013955E+03  0.7546771E-02  0.9652286E-01
        -11   -1    0    0    0    0  0.00000000000E+00  0.00000000000E+00  0.50000000000E+03  0.50000000000E+03  0.00000000000E+00 0. -1.
         11   -1    0    0    0    0 -0.00000000000E+00 -0.00000000000E+00 -0.50000000000E+03  0.50000000000E+03  0.00000000000E+00 0. -1.
        -11    1    1    2    0    0 -0.25035285140E+02 -0.16714735623E+01  0.94085809390E+01  0.26797028216E+02  0.00000000000E+00 0. -1.
         11    1    1    2    0    0 -0.10450401734E+02 -0.50082650102E+01 -0.43141777943E+03  0.43157339355E+03  0.00000000000E+00 0. -1.
        -15    1    1    2    0    0 -0.75201333398E+02 -0.90280584479E+02  0.36561228163E+03  0.38403297084E+03  0.17770000000E+01 0. -1.
         15    1    1    2    0    0  0.11068702027E+03  0.96960323051E+02  0.56396916855E+02  0.15759660740E+03  0.17770000000E+01 0.  1.
</event>
<event>
 6    1  0.2408691E-003  0.5007588E+03  0.7546771E-02  0.9398113E-01
        -11   -1    0    0    0    0  0.00000000000E+00  0.00000000000E+00  0.50000000000E+03  0.50000000000E+03  0.00000000000E+00 0. -1.
         11   -1    0    0    0    0 -0.00000000000E+00 -0.00000000000E+00 -0.50000000000E+03  0.50000000000E+03  0.00000000000E+00 0.  1.
        -11    1    1    2    0    0  0.44025148625E+01  0.73657128181E+01  0.32763060887E+03  0.32774296595E+03  0.00000000000E+00 0. -1.
         11    1    1    2    0    0  0.21628656130E+01 -0.93303519490E+01 -0.49914928714E+03  0.49924116848E+03  0.00000000000E+00 0.  1.
        -15    1    1    2    0    0 -0.35080623075E+01  0.16098617773E+01  0.54574966911E+01  0.69166578077E+01  0.17770000000E+01 0.  1.
         15    1    1    2    0    0 -0.30573181679E+01  0.35477735370E+00  0.16606118158E+03  0.16609920776E+03  0.17770000000E+01 0. -1.
</event>
<event>
 6    1  0.2408691E-003  0.5002754E+03  0.7546771E-02  0.9399194E-01
        -11   -1    0    0    0    0  0.00000000000E+00  0.00000000000E+00  0.50000000000E+03  0.50000000000E+03  0.00000000000E+00 0. -1.
         11   -1    0    0    0    0 -0.00000000000E+00 -0.00000000000E+00 -0.50000000000E+03  0.50000000000E+03  0.00000000000E+00 0. -1.
        -11    1    1    2    0    0 -0.60579864161E+01 -0.80241849247E+00  0.34929055727E+03  0.34934400879E+03  0.00000000000E+00 0. -1.
         11    1    1    2    0    0  0.79239022391E+01 -0.46787389481E+01 -0.49963989445E+03  0.49972462712E+03  0.00000000000E+00 0. -1.
        -15    1    1    2    0    0 -0.58588698992E+01  0.27417959777E+01  0.11632505799E+03  0.11651832751E+03  0.17770000000E+01 0. -1.
         15    1    1    2    0    0  0.39929540762E+01  0.27393614628E+01  0.34024279189E+02  0.34413036582E+02  0.17770000000E+01 0.  1.
</event>
<event>
 6    1  0.2408691E-003  0.5054949E+03  0.7546771E-02  0.9387598E-01
        -11   -1    0    0    0    0  0.00000000000E+00  0.00000000000E+00  0.50000000000E+03  0.50000000000E+03  0.00000000000E+00 0.  1.
         11   -1    0    0    0    0 -0.00000000000E+00 -0.00000000000E+00 -0.50000000000E+03  0.50000000000E+03  0.00000000000E+00 0. -1.
        -11    1    1    2    0    0 -0.77397329784E+00 -0.74960849631E+01  0.49444766406E+03  0.49450508877E+03  0.00000000000E+00 0.  1.
         11    1    1    2    0    0 -0.35852136988E+01  0.13482966306E+02 -0.44969798367E+03  0.44991434813E+03  0.00000000000E+00 0. -1.
        -15    1    1    2    0    0  0.22662332831E+01 -0.10518207234E+02 -0.48094158644E+02  0.49315051672E+02  0.17770000000E+01 0.  1.
         15    1    1    2    0    0  0.20929537135E+01  0.45313258917E+01  0.33444782519E+01  0.62655114205E+01  0.17770000000E+01 0. -1.
</event>
<event>
 6    1  0.2408691E-003  0.5016827E+03  0.7546771E-02  0.9396052E-01
        -11   -1    0    0    0    0  0.00000000000E+00  0.00000000000E+00  0.50000000000E+03  0.50000000000E+03  0.00000000000E+00 0.  1.
         11   -1    0    0    0    0 -0.00000000000E+00 -0.00000000000E+00 -0.50000000000E+03  0.50000000000E+03  0.00000000000E+00 0. -1.
        -11    1    1    2    0    0 -0.10719840504E+02 -0.50321567785E+01  0.49817653954E+03  0.49831727055E+03  0.00000000000E+00 0.  1.
         11    1    1    2    0    0  0.88376249843E+01 -0.62796552003E+00 -0.44718890700E+03  0.44727666662E+03  0.00000000000E+00 0. -1.
        -15    1    1    2    0    0 -0.33739452287E+00 -0.49942043727E+00 -0.45869460166E+02  0.45907824613E+02  0.17770000000E+01 0.  1.
         15    1    1    2    0    0  0.22196100424E+01  0.61595427359E+01 -0.51181723674E+01  0.84982382197E+01  0.17770000000E+01 0. -1.
</event>
<event>
 6    1  0.2408691E-003  0.5001344E+03  0.7546771E-02  0.9399509E-01
        -11   -1    0    0    0    0  0.00000000000E+00  0.00000000000E+00  0.50000000000E+03  0.50000000000E+03  0.00000000000E+00 0. -1.
         11   -1    0    0    0    0 -0.00000000000E+00 -0.00000000000E+00 -0.50000000000E+03  0.50000000000E+03  0.00000000000E+00 0. -1.
        -11    1    1    2    0    0 -0.42349370298E+01  0.11995494922E+02  0.49970370736E+03  0.49986560368E+03  0.00000000000E+00 0. -1.
         11    1    1    2    0    0  0.22724970976E+01 -0.14913294408E+01 -0.73040824020E+02  0.73091383076E+02  0.00000000000E+00 0. -1.
        -15    1    1    2    0    0 -0.20123299017E+01  0.89345089620E+00 -0.20215226109E+02  0.20412271352E+02  0.17770000000E+01 0. -1.
         15    1    1    2    0    0  0.39747698340E+01 -0.11397616377E+02 -0.40644765723E+03  0.40663074189E+03  0.17770000000E+01 0. -1.
</event>
<event>
 6    1  0.2408691E-003  0.5041766E+03  0.7546771E-02  0.9390512E-01
        -11   -1    0    0    0    0  0.00000000000E+00  0.00000000000E+00  0.50000000000E+03  0.50000000000E+03  0.00000000000E+00 0. -1.
         11   -1    0    0    0    0 -0.00000000000E+00 -0.00000000000E+00 -0.50000000000E+03  0.50000000000E+03  0.00000000000E+00 0.  1.
        -11    1    1    2    0    0  0.12114451634E+02 -0.29297333007E+01  0.49566674124E+03  0.49582341781E+03  0.00000000000E+00 0. -1.
         11    1    1    2    0    0 -0.15553256266E+01  0.88749792439E+01 -0.43200168309E+03  0.43209563581E+03  0.00000000000E+00 0.  1.
        -15    1    1    2    0    0 -0.10696711195E+02 -0.12085167720E+02 -0.12429439219E+02  0.20447972944E+02  0.17770000000E+01 0.  1.
         15    1    1    2    0    0  0.13758518758E+00  0.61399217765E+01 -0.51235618936E+02  0.51632973436E+02  0.17770000000E+01 0. -1.
</event>
<event>
 6    1  0.2408691E-003  0.4974784E+03  0.7546771E-02  0.9405470E-01
        -11   -1    0    0    0    0  0.00000000000E+00  0.00000000000E+00  0.50000000000E+03  0.50000000000E+03  0.00000000000E+00 0. -1.
         11   -1    0    0    0    0 -0.00000000000E+00 -0.00000000000E+00 -0.50000000000E+03  0.50000000000E+03  0.00000000000E+00 0.  1.
        -11    1    1    2    0    0  0.42963649282E+00  0.12837903687E+02  0.49793670922E+03  0.49810236172E+03  0.00000000000E+00 0. -1.
         11    1    1    2    0    0 -0.16808451626E+01  0.16028913762E+01 -0.80715965442E+01  0.83991173344E+01  0.00000000000E+00 0.  1.
        -15    1    1    2    0    0  0.16186052817E+02  0.34764783850E+01 -0.44395490339E+02  0.47415097798E+02  0.17770000000E+01 0. -1.
         15    1    1    2    0    0 -0.14934844147E+02 -0.17917273448E+02 -0.44546962234E+03  0.44608342315E+03  0.17770000000E+01 0.  1.
</event>
<event>
 6    1  0.2408691E-003  0.5297706E+03  0.7546771E-02  0.9335554E-01
        -11   -1    0    0    0    0  0.00000000000E+00  0.00000000000E+00  0.50000000000E+03  0.50000000000E+03  0.00000000000E+00 0. -1.
         11   -1    0    0    0    0 -0.00000000000E+00 -0.00000000000E+00 -0.50000000000E+03  0.50000000000E+03  0.00000000000E+00 0.  1.
        -11    1    1    2    0    0  0.29770212183E+02  0.58008920479E+01  0.46925024120E+03  0.47022941714E+03  0.00000000000E+00 0. -1.
         11    1    1    2    0    0 -0.50804080204E+01 -0.55161254578E+01 -0.23692551955E+03  0.23704417310E+03  0.00000000000E+00 0.  1.
        -15    1    1    2    0    0 -0.32399556126E+02 -0.16732715192E+02  0.18713735778E+02  0.41025316948E+02  0.17770000000E+01 0.  1.
         15    1    1    2    0    0  0.77097519637E+01  0.16447948602E+02 -0.25103845742E+03  0.25170109281E+03  0.17770000000E+01 0. -1.
</event>
<event>
 6    1  0.2408691E-003  0.5079911E+03  0.7546771E-02  0.9382105E-01
        -11   -1    0    0    0    0  0.00000000000E+00  0.00000000000E+00  0.50000000000E+03  0.50000000000E+03  0.00000000000E+00 0. -1.
         11   -1    0    0    0    0 -0.00000000000E+00 -0.00000000000E+00 -0.50000000000E+03  0.50000000000E+03  0.00000000000E+00 0.  1.
        -11    1    1    2    0    0  0.12011851131E+02 -0.31981332023E+01  0.49185188580E+03  0.49200893304E+03  0.00000000000E+00 0. -1.
         11    1    1    2    0    0  0.76348037732E+00 -0.15290521601E+02 -0.46387311056E+03  0.46412567873E+03  0.00000000000E+00 0.  1.
        -15    1    1    2    0    0 -0.18129903192E+02  0.11850835442E+02 -0.27622302871E+02  0.35146621962E+02  0.17770000000E+01 0. -1.
         15    1    1    2    0    0  0.53545716845E+01  0.66378193610E+01 -0.35647236860E+00  0.87187662742E+01  0.17770000000E+01 0.  1.
</event>
<event>
 6    1  0.2408691E-003  0.5029134E+03  0.7546771E-02  0.9393314E-01
        -11   -1    0    0    0    0  0.00000000000E+00  0.00000000000E+00  0.50000000000E+03  0.50000000000E+03  0.00000000000E+00 0.  1.
         11   -1    0    0    0    0 -0.00000000000E+00 -0.00000000000E+00 -0.50000000000E+03  0.50000000000E+03  0.00000000000E+00 0.  1.
        -11    1    1    2    0    0  0.73888210303E+01  0.12970535212E+02  0.49686240505E+03  0.49708659106E+03  0.00000000000E+00 0.  1.
         11    1    1    2    0    0 -0.26488870944E+02 -0.12703028272E+02 -0.36521381370E+03  0.36639344553E+03  0.00000000000E+00 0.  1.
        -15    1    1    2    0    0  0.10514077801E+02 -0.82886349566E+01 -0.11643336992E+03  0.11721405488E+03  0.17770000000E+01 0.  1.
         15    1    1    2    0    0  0.85859721126E+01  0.80211280172E+01 -0.15215221429E+02  0.19305908524E+02  0.17770000000E+01 0. -1.
</event>
<event>
 6    1  0.2408691E-003  0.5048325E+03  0.7546771E-02  0.9389061E-01
        -11   -1    0    0    0    0  0.00000000000E+00  0.00000000000E+00  0.50000000000E+03  0.50000000000E+03  0.00000000000E+00 0. -1.
         11   -1    0    0    0    0 -0.00000000000E+00 -0.00000000000E+00 -0.50000000000E+03  0.50000000000E+03  0.00000000000E+00 0. -1.
        -11    1    1    2    0    0  0.60075304091E+01 -0.30584274736E+01  0.49512156564E+03  0.49516745568E+03  0.00000000000E+00 0. -1.
         11    1    1    2    0    0  0.51493823047E+01 -0.55610835293E+01 -0.46938215196E+03  0.46944333669E+03  0.00000000000E+00 0. -1.
        -15    1    1    2    0    0 -0.13248532993E+01 -0.68393719293E+00 -0.20710936806E+02  0.20840432786E+02  0.17770000000E+01 0.  1.
         15    1    1    2    0    0 -0.98320594145E+01  0.93034481958E+01 -0.50284768790E+01  0.14548774841E+02  0.17770000000E+01 0. -1.
</event>
<event>
 6    1  0.2408691E-003  0.5005859E+03  0.7546771E-02  0.9398500E-01
        -11   -1    0    0    0    0  0.00000000000E+00  0.00000000000E+00  0.50000000000E+03  0.50000000000E+03  0.00000000000E+00 0.  1.
         11   -1    0    0    0    0 -0.00000000000E+00 -0.00000000000E+00 -0.50000000000E+03  0.50000000000E+03  0.00000000000E+00 0. -1.
        -11    1    1    2    0    0 -0.10001960853E+01 -0.11412400395E+01  0.36470885554E+02  0.36502442578E+02  0.00000000000E+00 0.  1.
         11    1    1    2    0    0 -0.13272455624E+02 -0.11674620791E+02 -0.49910114855E+03  0.49941406802E+03  0.00000000000E+00 0. -1.
        -15    1    1    2    0    0 -0.16958530117E+00  0.94433994842E+01  0.38197797354E+02  0.39388272426E+02  0.17770000000E+01 0. -1.
         15    1    1    2    0    0  0.14442237010E+02  0.33724613466E+01  0.42443246564E+03  0.42469521698E+03  0.17770000000E+01 0.  1.
</event>
<event>
 6    1  0.2408691E-003  0.5044396E+03  0.7546771E-02  0.9389930E-01
        -11   -1    0    0    0    0  0.00000000000E+00  0.00000000000E+00  0.50000000000E+03  0.50000000000E+03  0.00000000000E+00 0. -1.
         11   -1    0    0    0    0 -0.00000000000E+00 -0.00000000000E+00 -0.50000000000E+03  0.50000000000E+03  0.00000000000E+00 0. -1.
        -11    1    1    2    0    0  0.13716641310E+01  0.83483735779E+01  0.49548822508E+03  0.49556044838E+03  0.00000000000E+00 0. -1.
         11    1    1    2    0    0 -0.56736295556E+00 -0.84855691219E+01 -0.44268363340E+03  0.44276531714E+03  0.00000000000E+00 0. -1.
        -15    1    1    2    0    0  0.56597164294E+01  0.23950223762E+01 -0.54104976244E+02  0.54481875019E+02  0.17770000000E+01 0.  1.
         15    1    1    2    0    0 -0.64640176049E+01 -0.22578268321E+01  0.13003845573E+01  0.71923594597E+01  0.17770000000E+01 0. -1.
</event>
<event>
 6    1  0.2408691E-003  0.4782389E+03  0.7546771E-02  0.9449863E-01
        -11   -1    0    0    0    0  0.00000000000E+00  0.00000000000E+00  0.50000000000E+03  0.50000000000E+03  0.00000000000E+00 0. -1.
         11   -1    0    0    0    0 -0.00000000000E+00 -0.00000000000E+00 -0.50000000000E+03  0.50000000000E+03  0.00000000000E+00 0.  1.
        -11    1    1    2    0    0 -0.91385660765E+01 -0.50910260070E+01  0.48352927098E+03  0.48364241732E+03  0.00000000000E+00 0. -1.
         11    1    1    2    0    0 -0.32926558337E+01 -0.98470507072E+01 -0.47297697629E+03  0.47309092793E+03  0.00000000000E+00 0.  1.
        -15    1    1    2    0    0  0.89457060332E+01  0.19071949209E+02  0.89453675917E+01  0.22955222356E+02  0.17770000000E+01 0. -1.
         15    1    1    2    0    0  0.34855158770E+01 -0.41338724947E+01 -0.19497662275E+02  0.20311432395E+02  0.17770000000E+01 0.  1.
</event>
<event>
 6    1  0.2408691E-003  0.5004411E+03  0.7546771E-02  0.9398823E-01
        -11   -1    0    0    0    0  0.00000000000E+00  0.00000000000E+00  0.50000000000E+03  0.50000000000E+03  0.00000000000E+00 0.  1.
         11   -1    0    0    0    0 -0.00000000000E+00 -0.00000000000E+00 -0.50000000000E+03  0.50000000000E+03  0.00000000000E+00 0. -1.
        -11    1    1    2    0    0  0.94455464760E+01  0.58301752820E+00  0.49946920693E+03  0.49955885232E+03  0.00000000000E+00 0.  1.
         11    1    1    2    0    0 -0.59718777763E+01 -0.10138804672E+01 -0.33747818770E+03  0.33753254429E+03  0.00000000000E+00 0. -1.
        -15    1    1    2    0    0  0.57768192369E+01 -0.34521265854E+01 -0.75266733757E+02  0.75587881025E+02  0.17770000000E+01 0. -1.
         15    1    1    2    0    0 -0.92504879366E+01  0.38829895243E+01 -0.86724285474E+02  0.87320722367E+02  0.17770000000E+01 0. -1.
</event>
<event>
 6    1  0.2408691E-003  0.5026706E+03  0.7546771E-02  0.9393854E-01
        -11   -1    0    0    0    0  0.00000000000E+00  0.00000000000E+00  0.50000000000E+03  0.50000000000E+03  0.00000000000E+00 0. -1.
         11   -1    0    0    0    0 -0.00000000000E+00 -0.00000000000E+00 -0.50000000000E+03  0.50000000000E+03  0.00000000000E+00 0. -1.
        -11    1    1    2    0    0  0.44516395659E+01  0.71215127236E+01  0.49725850512E+03  0.49732942197E+03  0.00000000000E+00 0. -1.
         11    1    1    2    0    0 -0.12233537484E+02  0.62385489327E+01 -0.44341390134E+03  0.44362649474E+03  0.00000000000E+00 0. -1.
        -15    1    1    2    0    0  0.13220059599E+02 -0.11604348910E+02 -0.34077538855E+02  0.38390979055E+02  0.17770000000E+01 0. -1.
         15    1    1    2    0    0 -0.54381616817E+01 -0.17557127460E+01 -0.19767064926E+02  0.20653104234E+02  0.17770000000E+01 0.  1.
</event>
<event>
 6    1  0.2408691E-003  0.5019779E+03  0.7546771E-02  0.9395395E-01
        -11   -1    0    0    0    0  0.00000000000E+00  0.00000000000E+00  0.50000000000E+03  0.50000000000E+03  0.00000000000E+00 0.  1.
         11   -1    0    0    0    0 -0.00000000000E+00 -0.00000000000E+00 -0.50000000000E+03  0.50000000000E+03  0.00000000000E+00 0.  1.
        -11    1    1    2    0    0 -0.91530563205E+01  0.76469978068E+01  0.49787927849E+03  0.49802211895E+03  0.00000000000E+00 0.  1.
         11    1    1    2    0    0 -0.76092196608E+00 -0.51546540169E+01 -0.11203697779E+03  0.11215807529E+03  0.00000000000E+00 0.  1.
        -15    1    1    2    0    0  0.21848259351E+02  0.74153545035E+01 -0.72820021893E+02  0.76408423859E+02  0.17770000000E+01 0. -1.
         15    1    1    2    0    0 -0.11934281064E+02 -0.99076982934E+01 -0.31302227881E+03  0.31341138191E+03  0.17770000000E+01 0.  1.
</event>
<event>
 6    1  0.2408691E-003  0.5170772E+03  0.7546771E-02  0.9362389E-01
        -11   -1    0    0    0    0  0.00000000000E+00  0.00000000000E+00  0.50000000000E+03  0.50000000000E+03  0.00000000000E+00 0. -1.
         11   -1    0    0    0    0 -0.00000000000E+00 -0.00000000000E+00 -0.50000000000E+03  0.50000000000E+03  0.00000000000E+00 0.  1.
        -11    1    1    2    0    0  0.17403970819E+00 -0.94099392162E+01  0.44339166231E+03  0.44349153707E+03  0.00000000000E+00 0. -1.
         11    1    1    2    0    0  0.86449690516E+01 -0.24490522342E+02 -0.48222391194E+03  0.48292279137E+03  0.00000000000E+00 0.  1.
        -15    1    1    2    0    0 -0.99094548621E+01  0.33457391895E+02  0.24552774015E+00  0.34940125657E+02  0.17770000000E+01 0. -1.
         15    1    1    2    0    0  0.10904461023E+01  0.44306966336E+00  0.38586721892E+02  0.38645545911E+02  0.17770000000E+01 0.  1.
</event>
<event>
 6    1  0.2408691E-003  0.5030075E+03  0.7546771E-02  0.9393105E-01
        -11   -1    0    0    0    0  0.00000000000E+00  0.00000000000E+00  0.50000000000E+03  0.50000000000E+03  0.00000000000E+00 0. -1.
         11   -1    0    0    0    0 -0.00000000000E+00 -0.00000000000E+00 -0.50000000000E+03  0.50000000000E+03  0.00000000000E+00 0.  1.
        -11    1    1    2    0    0  0.64877657413E+01 -0.38652615744E+01  0.47123722923E+03  0.47129773770E+03  0.00000000000E+00 0. -1.
         11    1    1    2    0    0  0.37834211118E+00  0.12165923955E+02 -0.49684338636E+03  0.49699245811E+03  0.00000000000E+00 0.  1.
        -15    1    1    2    0    0 -0.29419325210E+01 -0.81426072437E+01  0.40413830300E+01  0.97184116747E+01  0.17770000000E+01 0. -1.
         15    1    1    2    0    0 -0.39241753315E+01 -0.15805513744E+00  0.21564774104E+02  0.21991392512E+02  0.17770000000E+01 0.  1.
</event>
<event>
 6    1  0.2408691E-003  0.5004291E+03  0.7546771E-02  0.9398850E-01
        -11   -1    0    0    0    0  0.00000000000E+00  0.00000000000E+00  0.50000000000E+03  0.50000000000E+03  0.00000000000E+00 0.  1.
         11   -1    0    0    0    0 -0.00000000000E+00 -0.00000000000E+00 -0.50000000000E+03  0.50000000000E+03  0.00000000000E+00 0.  1.
        -11    1    1    2    0    0 -0.18267177754E+00  0.19051011285E+01  0.12899644408E+03  0.12901064051E+03  0.00000000000E+00 0.  1.
         11    1    1    2    0    0  0.23080998702E+01 -0.13901712217E+02 -0.49937214006E+03  0.49957093510E+03  0.00000000000E+00 0.  1.
        -15    1    1    2    0    0 -0.31455292312E-01 -0.40919161881E+01  0.23780237936E+03  0.23784422239E+03  0.17770000000E+01 0.  1.
         15    1    1    2    0    0 -0.20939728004E+01  0.16088527276E+02  0.13257331662E+03  0.13357420200E+03  0.17770000000E+01 0.  1.
</event>
<event>
 6    1  0.2408691E-003  0.5036051E+03  0.7546771E-02  0.9391779E-01
        -11   -1    0    0    0    0  0.00000000000E+00  0.00000000000E+00  0.50000000000E+03  0.50000000000E+03  0.00000000000E+00 0.  1.
         11   -1    0    0    0    0 -0.00000000000E+00 -0.00000000000E+00 -0.50000000000E+03  0.50000000000E+03  0.00000000000E+00 0.  1.
        -11    1    1    2    0    0  0.26071224779E+01 -0.70032733460E+01  0.48394092595E+03  0.48399861853E+03  0.00000000000E+00 0.  1.
         11    1    1    2    0    0 -0.50030287758E+01  0.50268019298E+01 -0.49634418633E+03  0.49639485325E+03  0.00000000000E+00 0.  1.
        -15    1    1    2    0    0  0.28880545979E+01  0.95972749050E+00  0.15481204544E+02  0.15877259189E+02  0.17770000000E+01 0. -1.
         15    1    1    2    0    0 -0.49214829999E+00  0.10167439257E+01 -0.30779441722E+01  0.37292690285E+01  0.17770000000E+01 0.  1.
</event>
<event>
 6    1  0.2408691E-003  0.5262010E+03  0.7546771E-02  0.9343019E-01
        -11   -1    0    0    0    0  0.00000000000E+00  0.00000000000E+00  0.50000000000E+03  0.50000000000E+03  0.00000000000E+00 0. -1.
         11   -1    0    0    0    0 -0.00000000000E+00 -0.00000000000E+00 -0.50000000000E+03  0.50000000000E+03  0.00000000000E+00 0.  1.
        -11    1    1    2    0    0 -0.18731150408E+02 -0.92720543404E+01  0.44869900622E+03  0.44918551309E+03  0.00000000000E+00 0. -1.
         11    1    1    2    0    0  0.99799319454E+01  0.58998278091E+01 -0.47365715974E+03  0.47379902066E+03  0.00000000000E+00 0.  1.
        -15    1    1    2    0    0  0.14169927702E+02  0.18731479622E+02  0.45202908747E+02  0.50971716355E+02  0.17770000000E+01 0. -1.
         15    1    1    2    0    0 -0.54187092399E+01 -0.15359253091E+02 -0.20244755229E+02  0.26043749896E+02  0.17770000000E+01 0.  1.
</event>
<event>
 6    1  0.2408691E-003  0.5100326E+03  0.7546771E-02  0.9377637E-01
        -11   -1    0    0    0    0  0.00000000000E+00  0.00000000000E+00  0.50000000000E+03  0.50000000000E+03  0.00000000000E+00 0. -1.
         11   -1    0    0    0    0 -0.00000000000E+00 -0.00000000000E+00 -0.50000000000E+03  0.50000000000E+03  0.00000000000E+00 0. -1.
        -11    1    1    2    0    0 -0.39319872804E+01  0.57300690718E+01  0.48991809215E+03  0.48996737772E+03  0.00000000000E+00 0. -1.
         11    1    1    2    0    0  0.73715797372E+01 -0.13847478614E+02 -0.42583195780E+03  0.42612081518E+03  0.00000000000E+00 0. -1.
        -15    1    1    2    0    0 -0.27965533517E+02  0.71323538367E+01 -0.28137009589E+02  0.40345886702E+02  0.17770000000E+01 0. -1.
         15    1    1    2    0    0  0.24525941061E+02  0.98505570531E+00 -0.35949124764E+02  0.43565920396E+02  0.17770000000E+01 0.  1.
</event>
<event>
 6    1  0.2408691E-003  0.5514525E+03  0.7546771E-02  0.9291512E-01
        -11   -1    0    0    0    0  0.00000000000E+00  0.00000000000E+00  0.50000000000E+03  0.50000000000E+03  0.00000000000E+00 0. -1.
         11   -1    0    0    0    0 -0.00000000000E+00 -0.00000000000E+00 -0.50000000000E+03  0.50000000000E+03  0.00000000000E+00 0.  1.
        -11    1    1    2    0    0 -0.46412062394E+02  0.73643742064E+01  0.33093488950E+03  0.33425471519E+03  0.00000000000E+00 0. -1.
         11    1    1    2    0    0  0.15904852804E+02 -0.64590909829E+01 -0.44821886259E+03  0.44854747015E+03  0.00000000000E+00 0.  1.
        -15    1    1    2    0    0  0.28531155676E+02 -0.39123101484E+01  0.16591317698E+03  0.16840330472E+03  0.17770000000E+01 0. -1.
         15    1    1    2    0    0  0.19760539141E+01  0.30070269249E+01 -0.48629203890E+02  0.48794509937E+02  0.17770000000E+01 0.  1.
</event>
<event>
 6    1  0.2408691E-003  0.5646702E+03  0.7546771E-02  0.9265704E-01
        -11   -1    0    0    0    0  0.00000000000E+00  0.00000000000E+00  0.50000000000E+03  0.50000000000E+03  0.00000000000E+00 0. -1.
         11   -1    0    0    0    0 -0.00000000000E+00 -0.00000000000E+00 -0.50000000000E+03  0.50000000000E+03  0.00000000000E+00 0.  1.
        -11    1    1    2    0    0 -0.38657912553E+01  0.81005644222E+01  0.31083622957E+03  0.31096579410E+03  0.00000000000E+00 0. -1.
         11    1    1    2    0    0 -0.26170003581E+01 -0.95416785927E+01 -0.43521738505E+03  0.43532983423E+03  0.00000000000E+00 0.  1.
        -15    1    1    2    0    0  0.15277772446E+02  0.34188226027E+02 -0.57521720708E+02  0.68659676754E+02  0.17770000000E+01 0.  1.
         15    1    1    2    0    0 -0.87949808323E+01 -0.32747111857E+02  0.18190287618E+03  0.18504469491E+03  0.17770000000E+01 0. -1.
</event>
<event>
 6    1  0.2408691E-003  0.5002679E+03  0.7546771E-02  0.9399210E-01
        -11   -1    0    0    0    0  0.00000000000E+00  0.00000000000E+00  0.50000000000E+03  0.50000000000E+03  0.00000000000E+00 0. -1.
         11   -1    0    0    0    0 -0.00000000000E+00 -0.00000000000E+00 -0.50000000000E+03  0.50000000000E+03  0.00000000000E+00 0.  1.
        -11    1    1    2    0    0 -0.12448271804E+01 -0.49573531458E+01  0.30981538756E+03  0.30985754681E+03  0.00000000000E+00 0. -1.
         11    1    1    2    0    0 -0.28874433450E+01  0.72502872357E+01 -0.49967116368E+03  0.49973210404E+03  0.00000000000E+00 0.  1.
        -15    1    1    2    0    0  0.29197682216E+01  0.12481409259E+01  0.17349266587E+03  0.17353082073E+03  0.17770000000E+01 0. -1.
         15    1    1    2    0    0  0.12125023038E+01 -0.35410750158E+01  0.16363110245E+02  0.16879528429E+02  0.17770000000E+01 0.  1.
</event>
<event>
 6    1  0.2408691E-003  0.5196703E+03  0.7546771E-02  0.9356841E-01
        -11   -1    0    0    0    0  0.00000000000E+00  0.00000000000E+00  0.50000000000E+03  0.50000000000E+03  0.00000000000E+00 0. -1.
         11   -1    0    0    0    0 -0.00000000000E+00 -0.00000000000E+00 -0.50000000000E+03  0.50000000000E+03  0.00000000000E+00 0. -1.
        -11    1    1    2    0    0  0.29124815554E+02  0.46400215707E+02  0.33883365405E+03  0.34323385617E+03  0.00000000000E+00 0. -1.
         11    1    1    2    0    0 -0.71391448064E+00 -0.21108852732E+02 -0.47986515767E+03  0.48032974391E+03  0.00000000000E+00 0. -1.
        -15    1    1    2    0    0  0.10470432143E+02  0.14529759569E+02 -0.61933534925E+01  0.19033108492E+02  0.17770000000E+01 0.  1.
         15    1    1    2    0    0 -0.38881333216E+02 -0.39821122544E+02  0.14722485711E+03  0.15740329143E+03  0.17770000000E+01 0. -1.
</event>
<event>
 6    1  0.2408691E-003  0.5014329E+03  0.7546771E-02  0.9396609E-01
        -11   -1    0    0    0    0  0.00000000000E+00  0.00000000000E+00  0.50000000000E+03  0.50000000000E+03  0.00000000000E+00 0.  1.
         11   -1    0    0    0    0 -0.00000000000E+00 -0.00000000000E+00 -0.50000000000E+03  0.50000000000E+03  0.00000000000E+00 0. -1.
        -11    1    1    2    0    0 -0.49207539718E+00  0.15601065870E+00  0.32771872425E+02  0.32775937816E+02  0.00000000000E+00 0.  1.
         11    1    1    2    0    0  0.43435739433E+02  0.17881434024E+02 -0.49634937064E+03  0.49856705354E+03  0.00000000000E+00 0. -1.
        -15    1    1    2    0    0  0.74695317759E+01 -0.12456786489E+01  0.14601236795E+02  0.16543864880E+02  0.17770000000E+01 0.  1.
         15    1    1    2    0    0 -0.50413195811E+02 -0.16791766033E+02  0.44897626142E+03  0.45211314376E+03  0.17770000000E+01 0.  1.
</event>
<event>
 6    1  0.2408691E-003  0.5004183E+03  0.7546771E-02  0.9398874E-01
        -11   -1    0    0    0    0  0.00000000000E+00  0.00000000000E+00  0.50000000000E+03  0.50000000000E+03  0.00000000000E+00 0. -1.
         11   -1    0    0    0    0 -0.00000000000E+00 -0.00000000000E+00 -0.50000000000E+03  0.50000000000E+03  0.00000000000E+00 0. -1.
        -11    1    1    2    0    0 -0.68000486356E+01  0.18382060483E+01  0.49953200264E+03  0.49958166632E+03  0.00000000000E+00 0. -1.
         11    1    1    2    0    0 -0.45633053797E+01  0.13268736685E+01 -0.13093456536E+03  0.13102077986E+03  0.00000000000E+00 0. -1.
        -15    1    1    2    0    0 -0.24964031210E+01 -0.49243650485E+01 -0.23270682861E+03  0.23277909531E+03  0.17770000000E+01 0.  1.
         15    1    1    2    0    0  0.13859757136E+02  0.17592853316E+01 -0.13589060867E+03  0.13661845851E+03  0.17770000000E+01 0. -1.
</event>
<event>
 6    1  0.2408691E-003  0.5051178E+03  0.7546771E-02  0.9388431E-01
        -11   -1    0    0    0    0  0.00000000000E+00  0.00000000000E+00  0.50000000000E+03  0.50000000000E+03  0.00000000000E+00 0.  1.
         11   -1    0    0    0    0 -0.00000000000E+00 -0.00000000000E+00 -0.50000000000E+03  0.50000000000E+03  0.00000000000E+00 0.  1.
        -11    1    1    2    0    0  0.93278135017E+01 -0.71393001846E+01  0.49474279803E+03  0.49488222226E+03  0.00000000000E+00 0.  1.
         11    1    1    2    0    0 -0.34254235766E-01 -0.65199200928E+01 -0.48088922978E+03  0.48093342766E+03  0.00000000000E+00 0.  1.
        -15    1    1    2    0    0 -0.10035597941E+02  0.12000925512E+02 -0.76999400534E+01  0.17526615332E+02  0.17770000000E+01 0.  1.
         15    1    1    2    0    0  0.74203867541E+00  0.16582947658E+01 -0.61536281964E+01  0.66577347428E+01  0.17770000000E+01 0. -1.
</event>
<event>
 6    1  0.2408691E-003  0.5011857E+03  0.7546771E-02  0.9397161E-01
        -11   -1    0    0    0    0  0.00000000000E+00  0.00000000000E+00  0.50000000000E+03  0.50000000000E+03  0.00000000000E+00 0. -1.
         11   -1    0    0    0    0 -0.00000000000E+00 -0.00000000000E+00 -0.50000000000E+03  0.50000000000E+03  0.00000000000E+00 0.  1.
        -11    1    1    2    0    0 -0.14620562643E+02 -0.22577113971E+01  0.49859487493E+03  0.49881430154E+03  0.00000000000E+00 0. -1.
         11    1    1    2    0    0 -0.47399911233E+01  0.73005187791E+01 -0.38712590776E+03  0.38722375127E+03  0.00000000000E+00 0.  1.
        -15    1    1    2    0    0  0.15311201611E+02 -0.10305181868E+01 -0.98248198364E+02  0.99455321996E+02  0.17770000000E+01 0. -1.
         15    1    1    2    0    0  0.40493521551E+01 -0.40122891951E+01 -0.13220768808E+02  0.14506625188E+02  0.17770000000E+01 0.  1.
</event>
<event>
 6    1  0.2455247E-003  0.5334598E+03  0.7546771E-02  0.9327904E-01
        -11   -1    0    0    0    0  0.00000000000E+00  0.00000000000E+00  0.50000000000E+03  0.50000000000E+03  0.00000000000E+00 0.  1.
         11   -1    0    0    0    0 -0.00000000000E+00 -0.00000000000E+00 -0.50000000000E+03  0.50000000000E+03  0.00000000000E+00 0.  1.
        -11    1    1    2    0    0 -0.31122786437E+02  0.31744875673E+02  0.27078492666E+03  0.27440998792E+03  0.00000000000E+00 0.  1.
         11    1    1    2    0    0 -0.35835505082E+01 -0.61793051376E+01 -0.46648551346E+03  0.46654020182E+03  0.00000000000E+00 0.  1.
        -15    1    1    2    0    0  0.31604351063E+02 -0.21593980693E+02  0.22552163338E+03  0.22875379748E+03  0.17770000000E+01 0.  1.
         15    1    1    2    0    0  0.31019858826E+01 -0.39715898420E+01 -0.29821046581E+02  0.30296012781E+02  0.17770000000E+01 0. -1.
</event>
<event>
 6    1  0.2408691E-003  0.5096676E+03  0.7546771E-02  0.9378434E-01
        -11   -1    0    0    0    0  0.00000000000E+00  0.00000000000E+00  0.50000000000E+03  0.50000000000E+03  0.00000000000E+00 0.  1.
         11   -1    0    0    0    0 -0.00000000000E+00 -0.00000000000E+00 -0.50000000000E+03  0.50000000000E+03  0.00000000000E+00 0.  1.
        -11    1    1    2    0    0  0.49578022343E+01  0.67865897853E+01  0.46230657781E+03  0.46238296843E+03  0.00000000000E+00 0.  1.
         11    1    1    2    0    0  0.94170184894E+01 -0.11318634001E+02 -0.49011129883E+03  0.49033241475E+03  0.00000000000E+00 0.  1.
        -15    1    1    2    0    0  0.74595964602E+01  0.58497186639E+01 -0.24094114113E+01  0.99412162306E+01  0.17770000000E+01 0. -1.
         15    1    1    2    0    0 -0.21834417184E+02 -0.13176744485E+01  0.30214132435E+02  0.37343400589E+02  0.17770000000E+01 0.  1.
</event>
<event>
 6    1  0.2408691E-003  0.4882602E+03  0.7546771E-02  0.9426468E-01
        -11   -1    0    0    0    0  0.00000000000E+00  0.00000000000E+00  0.50000000000E+03  0.50000000000E+03  0.00000000000E+00 0.  1.
         11   -1    0    0    0    0 -0.00000000000E+00 -0.00000000000E+00 -0.50000000000E+03  0.50000000000E+03  0.00000000000E+00 0.  1.
        -11    1    1    2    0    0  0.85112642056E+01 -0.10158653061E+01  0.48545568845E+03  0.48553135743E+03  0.00000000000E+00 0.  1.
         11    1    1    2    0    0 -0.76523767878E+00 -0.65796933043E+01 -0.49102046559E+03  0.49106514393E+03  0.00000000000E+00 0.  1.
        -15    1    1    2    0    0  0.33363703914E+01  0.96311147455E+01 -0.73502288833E+00  0.10372450351E+02  0.17770000000E+01 0.  1.
         15    1    1    2    0    0 -0.11082396918E+02 -0.20355561350E+01  0.62998000304E+01  0.13031048295E+02  0.17770000000E+01 0.  1.
</event>
<event>
 6    1  0.2408691E-003  0.5067544E+03  0.7546771E-02  0.9384822E-01
        -11   -1    0    0    0    0  0.00000000000E+00  0.00000000000E+00  0.50000000000E+03  0.50000000000E+03  0.00000000000E+00 0. -1.
         11   -1    0    0    0    0 -0.00000000000E+00 -0.00000000000E+00 -0.50000000000E+03  0.50000000000E+03  0.00000000000E+00 0.  1.
        -11    1    1    2    0    0  0.18617943159E+02  0.25510845954E-02  0.43549915117E+03  0.43589693562E+03  0.00000000000E+00 0. -1.
         11    1    1    2    0    0  0.14091875319E+01 -0.13675400220E+02 -0.49305392710E+03  0.49324555488E+03  0.00000000000E+00 0.  1.
        -15    1    1    2    0    0 -0.57529647348E+01  0.22837486124E+02  0.39486335036E+02  0.46010604857E+02  0.17770000000E+01 0. -1.
         15    1    1    2    0    0 -0.14274165956E+02 -0.91646369894E+01  0.18068440900E+02  0.24846904645E+02  0.17770000000E+01 0.  1.
</event>
<event>
 6    1  0.2408691E-003  0.5056428E+03  0.7546771E-02  0.9387271E-01
        -11   -1    0    0    0    0  0.00000000000E+00  0.00000000000E+00  0.50000000000E+03  0.50000000000E+03  0.00000000000E+00 0. -1.
         11   -1    0    0    0    0 -0.00000000000E+00 -0.00000000000E+00 -0.50000000000E+03  0.50000000000E+03  0.00000000000E+00 0.  1.
        -11    1    1    2    0    0  0.63572612548E+01 -0.43753411756E+01  0.49429691312E+03  0.49435715500E+03  0.00000000000E+00 0. -1.
         11    1    1    2    0    0  0.19144765464E+02 -0.28758696524E+02 -0.12650204597E+03  0.13113486304E+03  0.00000000000E+00 0.  1.
        -15    1    1    2    0    0 -0.12547877660E+02  0.60102676660E-01 -0.13820466809E+02  0.18751423357E+02  0.17770000000E+01 0. -1.
         15    1    1    2    0    0 -0.12954149058E+02  0.33073935023E+02 -0.35397440034E+03  0.35575655860E+03  0.17770000000E+01 0.  1.
</event>
<event>
 6    1  0.2408691E-003  0.5226280E+03  0.7546771E-02  0.9350554E-01
        -11   -1    0    0    0    0  0.00000000000E+00  0.00000000000E+00  0.50000000000E+03  0.50000000000E+03  0.00000000000E+00 0. -1.
         11   -1    0    0    0    0 -0.00000000000E+00 -0.00000000000E+00 -0.50000000000E+03  0.50000000000E+03  0.00000000000E+00 0. -1.
        -11    1    1    2    0    0  0.26517665730E+02  0.66788217792E+00  0.45146301972E+03  0.45224162882E+03  0.00000000000E+00 0. -1.
         11    1    1    2    0    0 -0.56320899681E+01  0.14777314561E+02 -0.47710997810E+03  0.47737199401E+03  0.00000000000E+00 0. -1.
        -15    1    1    2    0    0  0.20507333816E+02 -0.56513022390E+01  0.13973776170E+01  0.21391548575E+02  0.17770000000E+01 0.  1.
         15    1    1    2    0    0 -0.41392909577E+02 -0.97938945001E+01  0.24249580759E+02  0.48994828592E+02  0.17770000000E+01 0. -1.
</event>
<event>
 6    1  0.2408691E-003  0.5000356E+03  0.7546771E-02  0.9399730E-01
        -11   -1    0    0    0    0  0.00000000000E+00  0.00000000000E+00  0.50000000000E+03  0.50000000000E+03  0.00000000000E+00 0. -1.
         11   -1    0    0    0    0 -0.00000000000E+00 -0.00000000000E+00 -0.50000000000E+03  0.50000000000E+03  0.00000000000E+00 0.  1.
        -11    1    1    2    0    0  0.44706186152E+01  0.13599965425E+02  0.49975941839E+03  0.49996442049E+03  0.00000000000E+00 0. -1.
         11    1    1    2    0    0 -0.12748755053E+01 -0.11559551271E+01 -0.59457999765E+02  0.59482899020E+02  0.00000000000E+00 0.  1.
        -15    1    1    2    0    0  0.84687011419E+00 -0.38897260562E+01 -0.76659599262E+02  0.76783455548E+02  0.17770000000E+01 0. -1.
         15    1    1    2    0    0 -0.40426132242E+01 -0.85542842417E+01 -0.36364181936E+03  0.36376922494E+03  0.17770000000E+01 0.  1.
</event>
<event>
 6    1  0.2408691E-003  0.5140710E+03  0.7546771E-02  0.9368864E-01
        -11   -1    0    0    0    0  0.00000000000E+00  0.00000000000E+00  0.50000000000E+03  0.50000000000E+03  0.00000000000E+00 0. -1.
         11   -1    0    0    0    0 -0.00000000000E+00 -0.00000000000E+00 -0.50000000000E+03  0.50000000000E+03  0.00000000000E+00 0.  1.
        -11    1    1    2    0    0  0.35042854888E+01  0.79234214754E+01  0.48585174755E+03  0.48592898784E+03  0.00000000000E+00 0. -1.
         11    1    1    2    0    0 -0.99491673490E+01  0.13447634173E+01 -0.43290408242E+03  0.43302048323E+03  0.00000000000E+00 0.  1.
        -15    1    1    2    0    0  0.13425591535E+02 -0.71528874467E+01 -0.65039061032E+02  0.66818017748E+02  0.17770000000E+01 0.  1.
         15    1    1    2    0    0 -0.69807096747E+01 -0.21152974460E+01  0.12091395900E+02  0.14232511186E+02  0.17770000000E+01 0. -1.
</event>
<event>
 6    1  0.2408691E-003  0.5000607E+03  0.7546771E-02  0.9399674E-01
        -11   -1    0    0    0    0  0.00000000000E+00  0.00000000000E+00  0.50000000000E+03  0.50000000000E+03  0.00000000000E+00 0. -1.
         11   -1    0    0    0    0 -0.00000000000E+00 -0.00000000000E+00 -0.50000000000E+03  0.50000000000E+03  0.00000000000E+00 0. -1.
        -11    1    1    2    0    0 -0.85427972074E+01  0.67434377681E+01  0.49982083146E+03  0.49993931322E+03  0.00000000000E+00 0. -1.
         11    1    1    2    0    0  0.32629518931E+00  0.14066350868E+01 -0.49142062188E+02  0.49163272541E+02  0.00000000000E+00 0. -1.
        -15    1    1    2    0    0  0.13340358986E+01 -0.76195147983E+00 -0.29324393977E+02  0.29418328180E+02  0.17770000000E+01 0.  1.
         15    1    1    2    0    0  0.68824661195E+01 -0.73881213751E+01 -0.42135437530E+03  0.42147908606E+03  0.17770000000E+01 0. -1.
</event>
<event>
 6    1  0.2408691E-003  0.5072760E+03  0.7546771E-02  0.9383675E-01
        -11   -1    0    0    0    0  0.00000000000E+00  0.00000000000E+00  0.50000000000E+03  0.50000000000E+03  0.00000000000E+00 0. -1.
         11   -1    0    0    0    0 -0.00000000000E+00 -0.00000000000E+00 -0.50000000000E+03  0.50000000000E+03  0.00000000000E+00 0. -1.
        -11    1    1    2    0    0  0.73715746374E+01 -0.52449307052E+00  0.37750231614E+03  0.37757464678E+03  0.00000000000E+00 0. -1.
         11    1    1    2    0    0  0.92631988990E+01 -0.66426118914E+01 -0.49259213081E+03  0.49272399828E+03  0.00000000000E+00 0. -1.
        -15    1    1    2    0    0 -0.29092456763E+02 -0.90867524595E+00  0.25093124537E+02  0.38471019732E+02  0.17770000000E+01 0. -1.
         15    1    1    2    0    0  0.12457683227E+02  0.80757802079E+01  0.89996690135E+02  0.91230335205E+02  0.17770000000E+01 0.  1.
</event>
<event>
 6    1  0.2408691E-003  0.5059167E+03  0.7546771E-02  0.9386667E-01
        -11   -1    0    0    0    0  0.00000000000E+00  0.00000000000E+00  0.50000000000E+03  0.50000000000E+03  0.00000000000E+00 0. -1.
         11   -1    0    0    0    0 -0.00000000000E+00 -0.00000000000E+00 -0.50000000000E+03  0.50000000000E+03  0.00000000000E+00 0. -1.
        -11    1    1    2    0    0 -0.24742049474E+01 -0.45522047918E+02  0.49197554122E+03  0.49408330441E+03  0.00000000000E+00 0. -1.
         11    1    1    2    0    0 -0.42264847206E+01  0.53778937198E+01 -0.21408286456E+03  0.21419210493E+03  0.00000000000E+00 0. -1.
        -15    1    1    2    0    0  0.29701506889E+02  0.55972227816E+01 -0.20970590414E+03  0.21188023120E+03  0.17770000000E+01 0. -1.
         15    1    1    2    0    0 -0.23000817221E+02  0.34546931416E+02 -0.68186772520E+02  0.79844359468E+02  0.17770000000E+01 0.  1.
</event>
<event>
 6    1  0.2408691E-003  0.4952469E+03  0.7546771E-02  0.9410508E-01
        -11   -1    0    0    0    0  0.00000000000E+00  0.00000000000E+00  0.50000000000E+03  0.50000000000E+03  0.00000000000E+00 0.  1.
         11   -1    0    0    0    0 -0.00000000000E+00 -0.00000000000E+00 -0.50000000000E+03  0.50000000000E+03  0.00000000000E+00 0.  1.
        -11    1    1    2    0    0 -0.12809189257E+01 -0.95033958642E+00  0.96590918526E+01  0.97898903998E+01  0.00000000000E+00 0.  1.
         11    1    1    2    0    0  0.79787530380E+01  0.59037973898E+01 -0.49968228530E+03  0.49978085355E+03  0.00000000000E+00 0.  1.
        -15    1    1    2    0    0 -0.10961993746E+02  0.10593513482E+01  0.20331263430E+03  0.20361844840E+03  0.17770000000E+01 0.  1.
         15    1    1    2    0    0  0.42641596339E+01 -0.60128091516E+01  0.28671055915E+03  0.28681080765E+03  0.17770000000E+01 0. -1.
</event>
<event>
 6    1  0.2408691E-003  0.5585890E+03  0.7546771E-02  0.9277484E-01
        -11   -1    0    0    0    0  0.00000000000E+00  0.00000000000E+00  0.50000000000E+03  0.50000000000E+03  0.00000000000E+00 0. -1.
         11   -1    0    0    0    0 -0.00000000000E+00 -0.00000000000E+00 -0.50000000000E+03  0.50000000000E+03  0.00000000000E+00 0.  1.
        -11    1    1    2    0    0 -0.25264386630E+02  0.16611241130E+01  0.41271723618E+03  0.41349312643E+03  0.00000000000E+00 0. -1.
         11    1    1    2    0    0  0.12238084117E+01 -0.60488152050E+01 -0.44136788620E+03  0.44141102936E+03  0.00000000000E+00 0.  1.
        -15    1    1    2    0    0  0.13795651370E+02 -0.11380693225E+02 -0.55766745344E+02  0.58591192088E+02  0.17770000000E+01 0.  1.
         15    1    1    2    0    0  0.10244926849E+02  0.15768384317E+02  0.84417395367E+02  0.86504652127E+02  0.17770000000E+01 0. -1.
</event>
<event>
 6    1  0.2408691E-003  0.5047530E+03  0.7546771E-02  0.9389237E-01
        -11   -1    0    0    0    0  0.00000000000E+00  0.00000000000E+00  0.50000000000E+03  0.50000000000E+03  0.00000000000E+00 0.  1.
         11   -1    0    0    0    0 -0.00000000000E+00 -0.00000000000E+00 -0.50000000000E+03  0.50000000000E+03  0.00000000000E+00 0. -1.
        -11    1    1    2    0    0 -0.79389759919E+01  0.57425604240E+01  0.49515002005E+03  0.49524695526E+03  0.00000000000E+00 0.  1.
         11    1    1    2    0    0 -0.12328068113E+02 -0.33375339792E+01 -0.47415239542E+03  0.47432437686E+03  0.00000000000E+00 0. -1.
        -15    1    1    2    0    0  0.15669304280E+02  0.11055573271E+01 -0.13460336119E+02  0.20762652313E+02  0.17770000000E+01 0. -1.
         15    1    1    2    0    0  0.45977398252E+01 -0.35105837718E+01 -0.75372885070E+01  0.96660155678E+01  0.17770000000E+01 0.  1.
</event>
<event>
 6    1  0.2408691E-003  0.5001876E+03  0.7546771E-02  0.9399390E-01
        -11   -1    0    0    0    0  0.00000000000E+00  0.00000000000E+00  0.50000000000E+03  0.50000000000E+03  0.00000000000E+00 0. -1.
         11   -1    0    0    0    0 -0.00000000000E+00 -0.00000000000E+00 -0.50000000000E+03  0.50000000000E+03  0.00000000000E+00 0. -1.
        -11    1    1    2    0    0 -0.21234044329E+01  0.74682813166E+01  0.49975204421E+03  0.49981235456E+03  0.00000000000E+00 0. -1.
         11    1    1    2    0    0  0.10256888100E+01  0.26668595461E+01 -0.67519375474E+02  0.67579806465E+02  0.00000000000E+00 0. -1.
        -15    1    1    2    0    0  0.49789168463E+01 -0.58125399180E+01 -0.36908513253E+03  0.36916875276E+03  0.17770000000E+01 0. -1.
         15    1    1    2    0    0 -0.38812012234E+01 -0.43226009447E+01 -0.63147536212E+02  0.63439086221E+02  0.17770000000E+01 0.  1.
</event>
<event>
 6    1  0.2408691E-003  0.5029119E+03  0.7546771E-02  0.9393318E-01
        -11   -1    0    0    0    0  0.00000000000E+00  0.00000000000E+00  0.50000000000E+03  0.50000000000E+03  0.00000000000E+00 0. -1.
         11   -1    0    0    0    0 -0.00000000000E+00 -0.00000000000E+00 -0.50000000000E+03  0.50000000000E+03  0.00000000000E+00 0.  1.
        -11    1    1    2    0    0 -0.26620916558E+01  0.58563867669E+01  0.43543914708E+03  0.43548666433E+03  0.00000000000E+00 0. -1.
         11    1    1    2    0    0 -0.12610118362E+00  0.69234620550E+01 -0.49703989861E+03  0.49708813206E+03  0.00000000000E+00 0.  1.
        -15    1    1    2    0    0 -0.13469948374E+01 -0.48375935032E+01  0.18006130647E+00  0.53298083519E+01  0.17770000000E+01 0.  1.
         15    1    1    2    0    0  0.41351876768E+01 -0.79422553188E+01  0.61420690219E+02  0.62095395262E+02  0.17770000000E+01 0. -1.
</event>
<event>
 6    1  0.2408691E-003  0.5007450E+03  0.7546771E-02  0.9398144E-01
        -11   -1    0    0    0    0  0.00000000000E+00  0.00000000000E+00  0.50000000000E+03  0.50000000000E+03  0.00000000000E+00 0. -1.
         11   -1    0    0    0    0 -0.00000000000E+00 -0.00000000000E+00 -0.50000000000E+03  0.50000000000E+03  0.00000000000E+00 0. -1.
        -11    1    1    2    0    0 -0.51951133298E+01 -0.35598313800E+01  0.32498468427E+03  0.32504569927E+03  0.00000000000E+00 0. -1.
         11    1    1    2    0    0  0.17402952031E+02  0.10059573631E+02 -0.49885015280E+03  0.49925497765E+03  0.00000000000E+00 0. -1.
        -15    1    1    2    0    0 -0.16615606540E+02 -0.36605368974E+01  0.87494823871E+02  0.89151443310E+02  0.17770000000E+01 0.  1.
         15    1    1    2    0    0  0.44077678393E+01 -0.28392053538E+01  0.86370644660E+02  0.86547879768E+02  0.17770000000E+01 0. -1.
</event>
<event>
 6    1  0.2408691E-003  0.5003820E+03  0.7546771E-02  0.9398955E-01
        -11   -1    0    0    0    0  0.00000000000E+00  0.00000000000E+00  0.50000000000E+03  0.50000000000E+03  0.00000000000E+00 0.  1.
         11   -1    0    0    0    0 -0.00000000000E+00 -0.00000000000E+00 -0.50000000000E+03  0.50000000000E+03  0.00000000000E+00 0. -1.
        -11    1    1    2    0    0 -0.78081067286E+01  0.22624447646E+01  0.49955185794E+03  0.49961799804E+03  0.00000000000E+00 0.  1.
         11    1    1    2    0    0 -0.22003761746E+01 -0.33188470325E+00 -0.19765260332E+02  0.19890131190E+02  0.00000000000E+00 0. -1.
        -15    1    1    2    0    0 -0.43891060969E+00 -0.50142758911E+01 -0.38903116506E+03  0.38906778423E+03  0.17770000000E+01 0. -1.
         15    1    1    2    0    0  0.10447393513E+02  0.30837158297E+01 -0.90755432548E+02  0.91424086544E+02  0.17770000000E+01 0.  1.
</event>
<event>
 6    1  0.2408691E-003  0.5007451E+03  0.7546771E-02  0.9398144E-01
        -11   -1    0    0    0    0  0.00000000000E+00  0.00000000000E+00  0.50000000000E+03  0.50000000000E+03  0.00000000000E+00 0.  1.
         11   -1    0    0    0    0 -0.00000000000E+00 -0.00000000000E+00 -0.50000000000E+03  0.50000000000E+03  0.00000000000E+00 0.  1.
        -11    1    1    2    0    0 -0.84168688603E+01 -0.13859455682E+02  0.49899147880E+03  0.49925486889E+03  0.00000000000E+00 0.  1.
         11    1    1    2    0    0 -0.39474428401E+00 -0.44041514706E+01 -0.18792158009E+03  0.18797359559E+03  0.00000000000E+00 0.  1.
        -15    1    1    2    0    0  0.79130868861E+01  0.58425231827E+01 -0.25939395278E+03  0.25958646438E+03  0.17770000000E+01 0. -1.
         15    1    1    2    0    0  0.89852625813E+00  0.12421083970E+02 -0.51675945924E+02  0.53185071144E+02  0.17770000000E+01 0.  1.
</event>
<event>
 6    1  0.2408691E-003  0.5087334E+03  0.7546771E-02  0.9380477E-01
        -11   -1    0    0    0    0  0.00000000000E+00  0.00000000000E+00  0.50000000000E+03  0.50000000000E+03  0.00000000000E+00 0. -1.
         11   -1    0    0    0    0 -0.00000000000E+00 -0.00000000000E+00 -0.50000000000E+03  0.50000000000E+03  0.00000000000E+00 0. -1.
        -11    1    1    2    0    0 -0.58971136470E+00  0.91958659745E+00  0.35533517438E+02  0.35550306054E+02  0.00000000000E+00 0. -1.
         11    1    1    2    0    0 -0.14672242206E+02 -0.31144759309E+02 -0.49005881182E+03  0.49126663816E+03  0.00000000000E+00 0. -1.
        -15    1    1    2    0    0 -0.17349426824E+02  0.18509142060E+02  0.10033393515E+02  0.27338940457E+02  0.17770000000E+01 0.  1.
         15    1    1    2    0    0  0.32611380394E+02  0.11716030652E+02  0.44449190087E+03  0.44584411533E+03  0.17770000000E+01 0. -1.
</event>
<event>
 6    1  0.2408691E-003  0.5131704E+03  0.7546771E-02  0.9370813E-01
        -11   -1    0    0    0    0  0.00000000000E+00  0.00000000000E+00  0.50000000000E+03  0.50000000000E+03  0.00000000000E+00 0. -1.
         11   -1    0    0    0    0 -0.00000000000E+00 -0.00000000000E+00 -0.50000000000E+03  0.50000000000E+03  0.00000000000E+00 0. -1.
        -11    1    1    2    0    0 -0.45537431134E+01  0.58130880756E+01  0.48677358178E+03  0.48682958876E+03  0.00000000000E+00 0. -1.
         11    1    1    2    0    0  0.30995030580E+01  0.11241611801E+02 -0.44836700891E+03  0.44851862328E+03  0.00000000000E+00 0. -1.
        -15    1    1    2    0    0 -0.20467842420E+02  0.91476334155E+00 -0.27246504635E+02  0.34136477690E+02  0.17770000000E+01 0.  1.
         15    1    1    2    0    0  0.21922082476E+02 -0.17969463218E+02 -0.11160068242E+02  0.30515310265E+02  0.17770000000E+01 0. -1.
</event>
<event>
 6    1  0.2408691E-003  0.5020219E+03  0.7546771E-02  0.9395297E-01
        -11   -1    0    0    0    0  0.00000000000E+00  0.00000000000E+00  0.50000000000E+03  0.50000000000E+03  0.00000000000E+00 0. -1.
         11   -1    0    0    0    0 -0.00000000000E+00 -0.00000000000E+00 -0.50000000000E+03  0.50000000000E+03  0.00000000000E+00 0. -1.
        -11    1    1    2    0    0  0.39125173333E+01  0.15528527015E+02  0.49772056953E+03  0.49797812028E+03  0.00000000000E+00 0. -1.
         11    1    1    2    0    0  0.12889386424E+01 -0.16795078647E+02 -0.42590329390E+03  0.42623626287E+03  0.00000000000E+00 0. -1.
        -15    1    1    2    0    0  0.23357576687E+01 -0.81312800360E+00  0.44682068943E+00  0.30780381358E+01  0.17770000000E+01 0.  1.
         15    1    1    2    0    0 -0.75372136443E+01  0.20796796358E+01 -0.72264096317E+02  0.72707578714E+02  0.17770000000E+01 0. -1.
</event>
<event>
 6    1  0.2408691E-003  0.5061528E+03  0.7546771E-02  0.9386147E-01
        -11   -1    0    0    0    0  0.00000000000E+00  0.00000000000E+00  0.50000000000E+03  0.50000000000E+03  0.00000000000E+00 0. -1.
         11   -1    0    0    0    0 -0.00000000000E+00 -0.00000000000E+00 -0.50000000000E+03  0.50000000000E+03  0.00000000000E+00 0.  1.
        -11    1    1    2    0    0  0.87916599032E+01 -0.64339195050E+01  0.49372696901E+03  0.49384715098E+03  0.00000000000E+00 0. -1.
         11    1    1    2    0    0 -0.17189183404E+01  0.97396854910E+01 -0.48341485792E+03  0.48351601940E+03  0.00000000000E+00 0.  1.
        -15    1    1    2    0    0 -0.50333666484E+00 -0.70054907830E+01  0.25008631087E+01  0.76643521707E+01  0.17770000000E+01 0. -1.
         15    1    1    2    0    0 -0.65694048980E+01  0.36997247970E+01 -0.12812974193E+02  0.14972477449E+02  0.17770000000E+01 0.  1.
</event>
<event>
 6    1  0.2408691E-003  0.5545680E+03  0.7546771E-02  0.9285361E-01
        -11   -1    0    0    0    0  0.00000000000E+00  0.00000000000E+00  0.50000000000E+03  0.50000000000E+03  0.00000000000E+00 0. -1.
         11   -1    0    0    0    0 -0.00000000000E+00 -0.00000000000E+00 -0.50000000000E+03  0.50000000000E+03  0.00000000000E+00 0. -1.
        -11    1    1    2    0    0 -0.49109842530E+01  0.34134782185E+01  0.38531761293E+03  0.38536402587E+03  0.00000000000E+00 0. -1.
         11    1    1    2    0    0  0.12869680884E+01 -0.15219734912E+02 -0.44517000789E+03  0.44543196174E+03  0.00000000000E+00 0. -1.
        -15    1    1    2    0    0 -0.12419835424E+02 -0.25334372741E+02 -0.47048823272E+02  0.54889272671E+02  0.17770000000E+01 0.  1.
         15    1    1    2    0    0  0.16043851588E+02  0.37140629434E+02  0.10690121823E+03  0.11431473972E+03  0.17770000000E+01 0. -1.
</event>
<event>
 6    1  0.2408691E-003  0.5013565E+03  0.7546771E-02  0.9396780E-01
        -11   -1    0    0    0    0  0.00000000000E+00  0.00000000000E+00  0.50000000000E+03  0.50000000000E+03  0.00000000000E+00 0.  1.
         11   -1    0    0    0    0 -0.00000000000E+00 -0.00000000000E+00 -0.50000000000E+03  0.50000000000E+03  0.00000000000E+00 0.  1.
        -11    1    1    2    0    0  0.71006745309E-01  0.12136929285E+02  0.49849579842E+03  0.49864353113E+03  0.00000000000E+00 0.  1.
         11    1    1    2    0    0  0.47870474220E+01  0.54145617727E+01 -0.12062578394E+03  0.12084209967E+03  0.00000000000E+00 0.  1.
        -15    1    1    2    0    0 -0.72181950695E+01  0.89557617477E+01 -0.41874607698E+02  0.43462035242E+02  0.17770000000E+01 0. -1.
         15    1    1    2    0    0  0.23601409021E+01 -0.26507252805E+02 -0.33599540679E+03  0.33705233396E+03  0.17770000000E+01 0.  1.
</event>
<event>
 6    1  0.2408691E-003  0.5025230E+03  0.7546771E-02  0.9394182E-01
        -11   -1    0    0    0    0  0.00000000000E+00  0.00000000000E+00  0.50000000000E+03  0.50000000000E+03  0.00000000000E+00 0. -1.
         11   -1    0    0    0    0 -0.00000000000E+00 -0.00000000000E+00 -0.50000000000E+03  0.50000000000E+03  0.00000000000E+00 0. -1.
        -11    1    1    2    0    0  0.90121278147E+01  0.28239771117E+01  0.45505652488E+03  0.45515451676E+03  0.00000000000E+00 0. -1.
         11    1    1    2    0    0 -0.53455426602E+01  0.48910289856E+01 -0.49742420359E+03  0.49747696963E+03  0.00000000000E+00 0. -1.
        -15    1    1    2    0    0 -0.91000758396E+01 -0.81695157101E+01  0.38542484265E+02  0.40475093447E+02  0.17770000000E+01 0. -1.
         15    1    1    2    0    0  0.54334906851E+01  0.45450961281E+00  0.38251944502E+01  0.68934201667E+01  0.17770000000E+01 0.  1.
</event>
<event>
 6    1  0.2408691E-003  0.5033035E+03  0.7546771E-02  0.9392448E-01
        -11   -1    0    0    0    0  0.00000000000E+00  0.00000000000E+00  0.50000000000E+03  0.50000000000E+03  0.00000000000E+00 0.  1.
         11   -1    0    0    0    0 -0.00000000000E+00 -0.00000000000E+00 -0.50000000000E+03  0.50000000000E+03  0.00000000000E+00 0.  1.
        -11    1    1    2    0    0  0.25419728586E+02 -0.10597085718E+02  0.49593245381E+03  0.49669654676E+03  0.00000000000E+00 0.  1.
         11    1    1    2    0    0  0.32370526737E+01  0.91434459933E+01 -0.23323801742E+03  0.23343961507E+03  0.00000000000E+00 0.  1.
        -15    1    1    2    0    0 -0.79795897626E+01 -0.98964186703E+00 -0.23512817580E+03  0.23527233162E+03  0.17770000000E+01 0.  1.
         15    1    1    2    0    0 -0.20677191497E+02  0.24432815917E+01 -0.27566260582E+02  0.34591506539E+02  0.17770000000E+01 0. -1.
</event>
<event>
 6    1  0.2408691E-003  0.5039751E+03  0.7546771E-02  0.9390959E-01
        -11   -1    0    0    0    0  0.00000000000E+00  0.00000000000E+00  0.50000000000E+03  0.50000000000E+03  0.00000000000E+00 0.  1.
         11   -1    0    0    0    0 -0.00000000000E+00 -0.00000000000E+00 -0.50000000000E+03  0.50000000000E+03  0.00000000000E+00 0.  1.
        -11    1    1    2    0    0 -0.17216975342E+02 -0.22100422825E+02  0.49523309583E+03  0.49602487048E+03  0.00000000000E+00 0.  1.
         11    1    1    2    0    0  0.13997918778E+02 -0.35704420440E+01 -0.38573507762E+03  0.38600549205E+03  0.00000000000E+00 0.  1.
        -15    1    1    2    0    0 -0.13436892811E+02  0.12818594518E+02 -0.76908693238E+02  0.79138936551E+02  0.17770000000E+01 0.  1.
         15    1    1    2    0    0  0.16655949374E+02  0.12852270352E+02 -0.32589324969E+02  0.38830700917E+02  0.17770000000E+01 0. -1.
</event>
<event>
 6    1  0.2408691E-003  0.5090413E+03  0.7546771E-02  0.9379803E-01
        -11   -1    0    0    0    0  0.00000000000E+00  0.00000000000E+00  0.50000000000E+03  0.50000000000E+03  0.00000000000E+00 0. -1.
         11   -1    0    0    0    0 -0.00000000000E+00 -0.00000000000E+00 -0.50000000000E+03  0.50000000000E+03  0.00000000000E+00 0.  1.
        -11    1    1    2    0    0  0.10256330623E+02 -0.27933967650E+01  0.49084362784E+03  0.49095871759E+03  0.00000000000E+00 0. -1.
         11    1    1    2    0    0 -0.26523076537E+02 -0.29259068062E+02 -0.42543618632E+03  0.42726515805E+03  0.00000000000E+00 0.  1.
        -15    1    1    2    0    0  0.22813693827E+02  0.11734800559E+02 -0.24094295415E+02  0.35240076202E+02  0.17770000000E+01 0. -1.
         15    1    1    2    0    0 -0.65469479129E+01  0.20317664268E+02 -0.41313146103E+02  0.46536048158E+02  0.17770000000E+01 0.  1.
</event>
<event>
 6    1  0.2408691E-003  0.5010662E+03  0.7546771E-02  0.9397427E-01
        -11   -1    0    0    0    0  0.00000000000E+00  0.00000000000E+00  0.50000000000E+03  0.50000000000E+03  0.00000000000E+00 0.  1.
         11   -1    0    0    0    0 -0.00000000000E+00 -0.00000000000E+00 -0.50000000000E+03  0.50000000000E+03  0.00000000000E+00 0.  1.
        -11    1    1    2    0    0  0.50577512092E+01 -0.44464495068E+01  0.32321146110E+03  0.32328161152E+03  0.00000000000E+00 0.  1.
         11    1    1    2    0    0 -0.18658763712E+02  0.62518606010E+01 -0.49854553806E+03  0.49893375186E+03  0.00000000000E+00 0.  1.
        -15    1    1    2    0    0 -0.14929855388E+01  0.22903693994E+01  0.12509399729E+03  0.12513648823E+03  0.17770000000E+01 0. -1.
         15    1    1    2    0    0  0.15093998042E+02 -0.40957804936E+01  0.50240079674E+02  0.52648148395E+02  0.17770000000E+01 0.  1.
</event>
<event>
 6    1  0.2723592E-003  0.5423165E+03  0.7546771E-02  0.9309804E-01
        -11   -1    0    0    0    0  0.00000000000E+00  0.00000000000E+00  0.50000000000E+03  0.50000000000E+03  0.00000000000E+00 0. -1.
         11   -1    0    0    0    0 -0.00000000000E+00 -0.00000000000E+00 -0.50000000000E+03  0.50000000000E+03  0.00000000000E+00 0.  1.
        -11    1    1    2    0    0 -0.26868688888E+02  0.82455648984E+02  0.36843050158E+03  0.37849953102E+03  0.00000000000E+00 0. -1.
         11    1    1    2    0    0  0.74635491176E+02 -0.36447552634E+02 -0.45008369597E+03  0.45768353042E+03  0.00000000000E+00 0.  1.
        -15    1    1    2    0    0 -0.11948103023E+02 -0.34574770818E+02  0.11048850972E+03  0.11640034559E+03  0.17770000000E+01 0. -1.
         15    1    1    2    0    0 -0.35818699264E+02 -0.11433325532E+02 -0.28835315329E+02  0.47416592970E+02  0.17770000000E+01 0.  1.
</event>
<event>
 6    1  0.2408691E-003  0.5117401E+03  0.7546771E-02  0.9373917E-01
        -11   -1    0    0    0    0  0.00000000000E+00  0.00000000000E+00  0.50000000000E+03  0.50000000000E+03  0.00000000000E+00 0.  1.
         11   -1    0    0    0    0 -0.00000000000E+00 -0.00000000000E+00 -0.50000000000E+03  0.50000000000E+03  0.00000000000E+00 0.  1.
        -11    1    1    2    0    0 -0.22066639774E+02 -0.66647298482E+01  0.48771549850E+03  0.48825993353E+03  0.00000000000E+00 0.  1.
         11    1    1    2    0    0 -0.34149443641E+01  0.84184106262E+01 -0.44901822695E+03  0.44911011970E+03  0.00000000000E+00 0.  1.
        -15    1    1    2    0    0  0.35258622263E+02  0.66871974336E+01 -0.25366159322E+02  0.43982824160E+02  0.17770000000E+01 0. -1.
         15    1    1    2    0    0 -0.97770381246E+01 -0.84408782116E+01 -0.13331112228E+02  0.18647122612E+02  0.17770000000E+01 0.  1.
</event>
<event>
 6    1  0.2408691E-003  0.5090229E+03  0.7546771E-02  0.9379843E-01
        -11   -1    0    0    0    0  0.00000000000E+00  0.00000000000E+00  0.50000000000E+03  0.50000000000E+03  0.00000000000E+00 0. -1.
         11   -1    0    0    0    0 -0.00000000000E+00 -0.00000000000E+00 -0.50000000000E+03  0.50000000000E+03  0.00000000000E+00 0.  1.
        -11    1    1    2    0    0 -0.14037794990E+02 -0.51714260072E+01  0.49074908093E+03  0.49097705014E+03  0.00000000000E+00 0. -1.
         11    1    1    2    0    0  0.13530433287E+02  0.11107344960E+02 -0.38017930434E+03  0.38058211885E+03  0.00000000000E+00 0.  1.
        -15    1    1    2    0    0 -0.12202178334E+02 -0.13580165795E+02 -0.11194723607E+03  0.11344009631E+03  0.17770000000E+01 0. -1.
         15    1    1    2    0    0  0.12709540037E+02  0.76442468425E+01  0.13774594843E+01  0.15000734694E+02  0.17770000000E+01 0.  1.
</event>
<event>
 6    1  0.2408691E-003  0.5044914E+03  0.7546771E-02  0.9389815E-01
        -11   -1    0    0    0    0  0.00000000000E+00  0.00000000000E+00  0.50000000000E+03  0.50000000000E+03  0.00000000000E+00 0. -1.
         11   -1    0    0    0    0 -0.00000000000E+00 -0.00000000000E+00 -0.50000000000E+03  0.50000000000E+03  0.00000000000E+00 0. -1.
        -11    1    1    2    0    0 -0.58825071992E+01  0.43380956710E+01  0.48363902522E+03  0.48369425227E+03  0.00000000000E+00 0. -1.
         11    1    1    2    0    0 -0.37719640101E+01  0.60003516905E+01 -0.49545787031E+03  0.49550856015E+03  0.00000000000E+00 0. -1.
        -15    1    1    2    0    0  0.50158814221E+01  0.31753626075E+00  0.42123095046E+01  0.67942016514E+01  0.17770000000E+01 0. -1.
         15    1    1    2    0    0  0.46385897872E+01 -0.10655983622E+02  0.76065355819E+01  0.14002985922E+02  0.17770000000E+01 0.  1.
</event>
<event>
 6    1  0.2408691E-003  0.5077168E+03  0.7546771E-02  0.9382706E-01
        -11   -1    0    0    0    0  0.00000000000E+00  0.00000000000E+00  0.50000000000E+03  0.50000000000E+03  0.00000000000E+00 0.  1.
         11   -1    0    0    0    0 -0.00000000000E+00 -0.00000000000E+00 -0.50000000000E+03  0.50000000000E+03  0.00000000000E+00 0. -1.
        -11    1    1    2    0    0 -0.64696952484E+01  0.10170091526E+02  0.49213556448E+03  0.49228315180E+03  0.00000000000E+00 0.  1.
         11    1    1    2    0    0  0.95664137548E+01  0.23911699695E+01 -0.45549430172E+03  0.45560102378E+03  0.00000000000E+00 0. -1.
        -15    1    1    2    0    0 -0.10403740510E+01 -0.23952458551E+01 -0.40710909044E+02  0.40833263708E+02  0.17770000000E+01 0. -1.
         15    1    1    2    0    0 -0.20563444554E+01 -0.10166015640E+02  0.40696462872E+01  0.11282560721E+02  0.17770000000E+01 0.  1.
</event>
<event>
 6    1  0.2408691E-003  0.5123238E+03  0.7546771E-02  0.9372649E-01
        -11   -1    0    0    0    0  0.00000000000E+00  0.00000000000E+00  0.50000000000E+03  0.50000000000E+03  0.00000000000E+00 0. -1.
         11   -1    0    0    0    0 -0.00000000000E+00 -0.00000000000E+00 -0.50000000000E+03  0.50000000000E+03  0.00000000000E+00 0.  1.
        -11    1    1    2    0    0 -0.65316843367E+01  0.12509058858E+02  0.45102114872E+03  0.45124185981E+03  0.00000000000E+00 0. -1.
         11    1    1    2    0    0 -0.93657626568E+01  0.50092593386E+01 -0.48756054650E+03  0.48767622117E+03  0.00000000000E+00 0.  1.
        -15    1    1    2    0    0  0.47569592099E+01  0.71012766760E+01  0.32559786967E+02  0.33709853866E+02  0.17770000000E+01 0. -1.
         15    1    1    2    0    0  0.11140487784E+02 -0.24619594873E+02  0.39796108132E+01  0.27372065157E+02  0.17770000000E+01 0.  1.
</event>
<event>
 6    1  0.2408691E-003  0.5010870E+03  0.7546771E-02  0.9397381E-01
        -11   -1    0    0    0    0  0.00000000000E+00  0.00000000000E+00  0.50000000000E+03  0.50000000000E+03  0.00000000000E+00 0.  1.
         11   -1    0    0    0    0 -0.00000000000E+00 -0.00000000000E+00 -0.50000000000E+03  0.50000000000E+03  0.00000000000E+00 0.  1.
        -11    1    1    2    0    0 -0.41996605403E+01  0.16718350248E+01  0.23956265130E+03  0.23960529226E+03  0.00000000000E+00 0.  1.
         11    1    1    2    0    0 -0.32235091385E+01  0.12672553135E+02 -0.49874161894E+03  0.49891300552E+03  0.00000000000E+00 0.  1.
        -15    1    1    2    0    0  0.10427352955E+01 -0.44416317288E+01  0.49109397595E+01  0.69347276538E+01  0.17770000000E+01 0. -1.
         15    1    1    2    0    0  0.63804343834E+01 -0.99027564313E+01  0.25426802788E+03  0.25454697457E+03  0.17770000000E+01 0.  1.
</event>
<event>
 6    1  0.2408691E-003  0.5006264E+03  0.7546771E-02  0.9398409E-01
        -11   -1    0    0    0    0  0.00000000000E+00  0.00000000000E+00  0.50000000000E+03  0.50000000000E+03  0.00000000000E+00 0.  1.
         11   -1    0    0    0    0 -0.00000000000E+00 -0.00000000000E+00 -0.50000000000E+03  0.50000000000E+03  0.00000000000E+00 0.  1.
        -11    1    1    2    0    0  0.70726659390E+01 -0.16750081589E+01  0.49932074353E+03  0.49937364085E+03  0.00000000000E+00 0.  1.
         11    1    1    2    0    0  0.27109562401E+01  0.40837354699E+01 -0.20487458129E+03  0.20493320921E+03  0.00000000000E+00 0.  1.
        -15    1    1    2    0    0 -0.47702687908E+01  0.27300077832E+00 -0.10377277389E+02  0.11561816845E+02  0.17770000000E+01 0. -1.
         15    1    1    2    0    0 -0.50133533883E+01 -0.26817280893E+01 -0.28406888485E+03  0.28413133309E+03  0.17770000000E+01 0.  1.
</event>
<event>
 6    1  0.2408691E-003  0.5406107E+03  0.7546771E-02  0.9313261E-01
        -11   -1    0    0    0    0  0.00000000000E+00  0.00000000000E+00  0.50000000000E+03  0.50000000000E+03  0.00000000000E+00 0.  1.
         11   -1    0    0    0    0 -0.00000000000E+00 -0.00000000000E+00 -0.50000000000E+03  0.50000000000E+03  0.00000000000E+00 0.  1.
        -11    1    1    2    0    0  0.10840805924E+02  0.24653176828E+02  0.45859924021E+03  0.45938933958E+03  0.00000000000E+00 0.  1.
         11    1    1    2    0    0 -0.11674257200E+02 -0.58930213153E+01 -0.32062769900E+03  0.32089427753E+03  0.00000000000E+00 0.  1.
        -15    1    1    2    0    0 -0.47098103113E+02  0.15280402159E+02  0.18241198003E+02  0.52797926480E+02  0.17770000000E+01 0. -1.
         15    1    1    2    0    0  0.47931554389E+02 -0.34040557672E+02 -0.15621273921E+03  0.16691845642E+03  0.17770000000E+01 0.  1.
</event>
<event>
 6    1  0.2408691E-003  0.5130391E+03  0.7546771E-02  0.9371097E-01
        -11   -1    0    0    0    0  0.00000000000E+00  0.00000000000E+00  0.50000000000E+03  0.50000000000E+03  0.00000000000E+00 0. -1.
         11   -1    0    0    0    0 -0.00000000000E+00 -0.00000000000E+00 -0.50000000000E+03  0.50000000000E+03  0.00000000000E+00 0.  1.
        -11    1    1    2    0    0 -0.55435509128E+01 -0.23768335614E+02  0.48634893410E+03  0.48696093318E+03  0.00000000000E+00 0. -1.
         11    1    1    2    0    0 -0.95365177864E+01  0.10858462301E+01 -0.46480915855E+03  0.46490824698E+03  0.00000000000E+00 0.  1.
        -15    1    1    2    0    0 -0.48457294586E+01  0.20264188993E+02 -0.37368966941E+01  0.21242423954E+02  0.17770000000E+01 0. -1.
         15    1    1    2    0    0  0.19925798158E+02  0.24183003908E+01 -0.17802878856E+02  0.26888395890E+02  0.17770000000E+01 0.  1.
</event>
<event>
 6    1  0.2408691E-003  0.5084954E+03  0.7546771E-02  0.9380999E-01
        -11   -1    0    0    0    0  0.00000000000E+00  0.00000000000E+00  0.50000000000E+03  0.50000000000E+03  0.00000000000E+00 0.  1.
         11   -1    0    0    0    0 -0.00000000000E+00 -0.00000000000E+00 -0.50000000000E+03  0.50000000000E+03  0.00000000000E+00 0.  1.
        -11    1    1    2    0    0 -0.18165611296E+01  0.83689076046E+01  0.42011135990E+03  0.42019863544E+03  0.00000000000E+00 0.  1.
         11    1    1    2    0    0  0.10283920610E+02  0.18433949143E+01 -0.49139351546E+03  0.49150457186E+03  0.00000000000E+00 0.  1.
        -15    1    1    2    0    0 -0.10594042578E+02  0.84147261991E+01 -0.92256687160E+00  0.13676630205E+02  0.17770000000E+01 0. -1.
         15    1    1    2    0    0  0.21266830972E+01 -0.18627028718E+02  0.72204722427E+02  0.74620162487E+02  0.17770000000E+01 0.  1.
</event>
<event>
 6    1  0.2408691E-003  0.3598125E+03  0.7546771E-02  0.9783213E-01
        -11   -1    0    0    0    0  0.00000000000E+00  0.00000000000E+00  0.50000000000E+03  0.50000000000E+03  0.00000000000E+00 0.  1.
         11   -1    0    0    0    0 -0.00000000000E+00 -0.00000000000E+00 -0.50000000000E+03  0.50000000000E+03  0.00000000000E+00 0. -1.
        -11    1    1    2    0    0 -0.10973885023E+03 -0.84147865008E+01  0.38335380286E+03  0.39884027135E+03  0.00000000000E+00 0.  1.
         11    1    1    2    0    0 -0.10205658273E+01  0.35237662760E+01 -0.14634377947E+03  0.14638975468E+03  0.00000000000E+00 0. -1.
        -15    1    1    2    0    0  0.87870993039E+02  0.99026928007E+01  0.90427853572E+02  0.12649003586E+03  0.17770000000E+01 0.  1.
         15    1    1    2    0    0  0.22888423016E+02 -0.50116725760E+01 -0.32743787696E+03  0.32827993811E+03  0.17770000000E+01 0. -1.
</event>
<event>
 6    1  0.2408691E-003  0.3674873E+03  0.7546771E-02  0.9757665E-01
        -11   -1    0    0    0    0  0.00000000000E+00  0.00000000000E+00  0.50000000000E+03  0.50000000000E+03  0.00000000000E+00 0. -1.
         11   -1    0    0    0    0 -0.00000000000E+00 -0.00000000000E+00 -0.50000000000E+03  0.50000000000E+03  0.00000000000E+00 0.  1.
        -11    1    1    2    0    0  0.13303826139E+02 -0.12065783164E+03  0.29165997063E+03  0.31591271356E+03  0.00000000000E+00 0. -1.
         11    1    1    2    0    0 -0.21928129368E+02 -0.24042966570E+01 -0.44425852246E+03  0.44480586583E+03  0.00000000000E+00 0.  1.
        -15    1    1    2    0    0 -0.94034393028E+01  0.57093604672E+02 -0.13676089707E+02  0.59483590375E+02  0.17770000000E+01 0. -1.
         15    1    1    2    0    0  0.18027742532E+02  0.65968523624E+02  0.16627464154E+03  0.17979783023E+03  0.17770000000E+01 0.  1.
</event>
<event>
 6    1  0.2408691E-003  0.5044154E+03  0.7546771E-02  0.9389984E-01
        -11   -1    0    0    0    0  0.00000000000E+00  0.00000000000E+00  0.50000000000E+03  0.50000000000E+03  0.00000000000E+00 0. -1.
         11   -1    0    0    0    0 -0.00000000000E+00 -0.00000000000E+00 -0.50000000000E+03  0.50000000000E+03  0.00000000000E+00 0. -1.
        -11    1    1    2    0    0 -0.18909793450E+02 -0.21186892265E+02  0.49477028628E+03  0.49558460516E+03  0.00000000000E+00 0. -1.
         11    1    1    2    0    0  0.17382878452E+02  0.19814689135E+02 -0.32746423273E+03  0.32852337829E+03  0.00000000000E+00 0. -1.
        -15    1    1    2    0    0 -0.87610699090E+01 -0.24654442950E+02 -0.82967064219E+02  0.87013156346E+02  0.17770000000E+01 0.  1.
         15    1    1    2    0    0  0.10287984908E+02  0.26026646080E+02 -0.84338989331E+02  0.88878860197E+02  0.17770000000E+01 0. -1.
</event>
<event>
 6    1  0.2408691E-003  0.5121953E+03  0.7546771E-02  0.9372928E-01
        -11   -1    0    0    0    0  0.00000000000E+00  0.00000000000E+00  0.50000000000E+03  0.50000000000E+03  0.00000000000E+00 0. -1.
         11   -1    0    0    0    0 -0.00000000000E+00 -0.00000000000E+00 -0.50000000000E+03  0.50000000000E+03  0.00000000000E+00 0. -1.
        -11    1    1    2    0    0  0.90316998989E+01 -0.34155213171E+00  0.35958026845E+03  0.35969383887E+03  0.00000000000E+00 0. -1.
         11    1    1    2    0    0  0.14963158862E+02 -0.19510534015E+01 -0.48757126980E+03  0.48780472104E+03  0.00000000000E+00 0. -1.
        -15    1    1    2    0    0 -0.10051659770E+02  0.75716639442E+01  0.13523485227E+03  0.13583073642E+03  0.17770000000E+01 0. -1.
         15    1    1    2    0    0 -0.13943198991E+02 -0.52790584111E+01 -0.72438509245E+01  0.16670703675E+02  0.17770000000E+01 0.  1.
</event>
<event>
 6    1  0.2408691E-003  0.5057396E+03  0.7546771E-02  0.9387058E-01
        -11   -1    0    0    0    0  0.00000000000E+00  0.00000000000E+00  0.50000000000E+03  0.50000000000E+03  0.00000000000E+00 0. -1.
         11   -1    0    0    0    0 -0.00000000000E+00 -0.00000000000E+00 -0.50000000000E+03  0.50000000000E+03  0.00000000000E+00 0. -1.
        -11    1    1    2    0    0  0.20466257429E+02 -0.36726905251E+01  0.49382285995E+03  0.49426043070E+03  0.00000000000E+00 0. -1.
         11    1    1    2    0    0 -0.80659516465E+01  0.35651254740E+01 -0.45917392618E+03  0.45925860272E+03  0.00000000000E+00 0. -1.
        -15    1    1    2    0    0  0.34891474495E+01 -0.95383774730E+01 -0.50422959924E+01  0.11477685856E+02  0.17770000000E+01 0. -1.
         15    1    1    2    0    0 -0.15889453232E+02  0.96459425241E+01 -0.29606637781E+02  0.35003280716E+02  0.17770000000E+01 0.  1.
</event>
<event>
 6    1  0.2408691E-003  0.5110422E+03  0.7546771E-02  0.9375435E-01
        -11   -1    0    0    0    0  0.00000000000E+00  0.00000000000E+00  0.50000000000E+03  0.50000000000E+03  0.00000000000E+00 0. -1.
         11   -1    0    0    0    0 -0.00000000000E+00 -0.00000000000E+00 -0.50000000000E+03  0.50000000000E+03  0.00000000000E+00 0. -1.
        -11    1    1    2    0    0 -0.99743450394E+01  0.10969485471E+02  0.48873297577E+03  0.48895780879E+03  0.00000000000E+00 0. -1.
         11    1    1    2    0    0 -0.50466279464E+01  0.45163765967E+01 -0.39284253516E+03  0.39290090805E+03  0.00000000000E+00 0. -1.
        -15    1    1    2    0    0  0.24606329920E+02 -0.31081624716E+02 -0.30039491574E+02  0.49770148182E+02  0.17770000000E+01 0.  1.
         15    1    1    2    0    0 -0.95853569340E+01  0.15595762648E+02 -0.65850949036E+02  0.68371134977E+02  0.17770000000E+01 0. -1.
</event>
<event>
 6    1  0.2408691E-003  0.5009647E+03  0.7546771E-02  0.9397654E-01
        -11   -1    0    0    0    0  0.00000000000E+00  0.00000000000E+00  0.50000000000E+03  0.50000000000E+03  0.00000000000E+00 0. -1.
         11   -1    0    0    0    0 -0.00000000000E+00 -0.00000000000E+00 -0.50000000000E+03  0.50000000000E+03  0.00000000000E+00 0.  1.
        -11    1    1    2    0    0 -0.17877197179E+01  0.64371228400E+01  0.34866013898E+03  0.34872413883E+03  0.00000000000E+00 0. -1.
         11    1    1    2    0    0 -0.98565246025E+01  0.79882044592E+01 -0.49887396458E+03  0.49903526431E+03  0.00000000000E+00 0.  1.
        -15    1    1    2    0    0  0.49849865981E+01 -0.71635373780E+01  0.23488297036E+02  0.25120194780E+02  0.17770000000E+01 0. -1.
         15    1    1    2    0    0  0.66592577223E+01 -0.72617899212E+01  0.12672552857E+03  0.12712040208E+03  0.17770000000E+01 0.  1.
</event>
<event>
 6    1  0.2408691E-003  0.5024249E+03  0.7546771E-02  0.9394400E-01
        -11   -1    0    0    0    0  0.00000000000E+00  0.00000000000E+00  0.50000000000E+03  0.50000000000E+03  0.00000000000E+00 0.  1.
         11   -1    0    0    0    0 -0.00000000000E+00 -0.00000000000E+00 -0.50000000000E+03  0.50000000000E+03  0.00000000000E+00 0. -1.
        -11    1    1    2    0    0  0.17538163240E-01  0.65173378608E+01  0.38452808375E+03  0.38458331112E+03  0.00000000000E+00 0.  1.
         11    1    1    2    0    0  0.91571385949E+01 -0.53912704458E+01 -0.49746159306E+03  0.49757507529E+03  0.00000000000E+00 0. -1.
        -15    1    1    2    0    0 -0.76124166993E+01  0.37236654876E+00  0.38491520436E+01  0.87213098389E+01  0.17770000000E+01 0. -1.
         15    1    1    2    0    0 -0.15622600588E+01 -0.14984339638E+01  0.10908435727E+03  0.10912030375E+03  0.17770000000E+01 0.  1.
</event>
<event>
 6    1  0.2408691E-003  0.5046739E+03  0.7546771E-02  0.9389412E-01
        -11   -1    0    0    0    0  0.00000000000E+00  0.00000000000E+00  0.50000000000E+03  0.50000000000E+03  0.00000000000E+00 0. -1.
         11   -1    0    0    0    0 -0.00000000000E+00 -0.00000000000E+00 -0.50000000000E+03  0.50000000000E+03  0.00000000000E+00 0. -1.
        -11    1    1    2    0    0 -0.10739658322E+01 -0.62559133005E+01  0.37445735600E+03  0.37451114979E+03  0.00000000000E+00 0. -1.
         11    1    1    2    0    0  0.12965791851E+02 -0.23558710940E+00 -0.49515634367E+03  0.49532612684E+03  0.00000000000E+00 0. -1.
        -15    1    1    2    0    0 -0.74408499566E+01  0.45576372257E+01  0.12381048121E+03  0.12413029965E+03  0.17770000000E+01 0.  1.
         15    1    1    2    0    0 -0.44509760622E+01  0.19338631843E+01 -0.31114935487E+01  0.60324237107E+01  0.17770000000E+01 0. -1.
</event>
<event>
 6    1  0.2408691E-003  0.5017249E+03  0.7546771E-02  0.9395958E-01
        -11   -1    0    0    0    0  0.00000000000E+00  0.00000000000E+00  0.50000000000E+03  0.50000000000E+03  0.00000000000E+00 0.  1.
         11   -1    0    0    0    0 -0.00000000000E+00 -0.00000000000E+00 -0.50000000000E+03  0.50000000000E+03  0.00000000000E+00 0. -1.
        -11    1    1    2    0    0 -0.20542310673E+02  0.83073954760E+01  0.49778215123E+03  0.49827509413E+03  0.00000000000E+00 0.  1.
         11    1    1    2    0    0 -0.17790589832E+01  0.43882886933E+00 -0.92211289183E+02  0.92229493517E+02  0.00000000000E+00 0. -1.
        -15    1    1    2    0    0  0.73109472972E+01 -0.31435911085E+00 -0.36856592360E+03  0.36864284414E+03  0.17770000000E+01 0. -1.
         15    1    1    2    0    0  0.15010422359E+02 -0.84318652345E+01 -0.37004938451E+02  0.40852568211E+02  0.17770000000E+01 0.  1.
</event>
<event>
 6    1  0.2408691E-003  0.5013348E+03  0.7546771E-02  0.9396828E-01
        -11   -1    0    0    0    0  0.00000000000E+00  0.00000000000E+00  0.50000000000E+03  0.50000000000E+03  0.00000000000E+00 0.  1.
         11   -1    0    0    0    0 -0.00000000000E+00 -0.00000000000E+00 -0.50000000000E+03  0.50000000000E+03  0.00000000000E+00 0. -1.
        -11    1    1    2    0    0 -0.27292413132E+01 -0.57847320273E+01  0.42871601492E+03  0.42876372670E+03  0.00000000000E+00 0.  1.
         11    1    1    2    0    0  0.93245678518E+01  0.76634316770E+01 -0.49851912208E+03  0.49866520916E+03  0.00000000000E+00 0. -1.
        -15    1    1    2    0    0 -0.32793202925E+01  0.81619620856E+01  0.27337211119E+02  0.28772424427E+02  0.17770000000E+01 0. -1.
         15    1    1    2    0    0 -0.33160062461E+01 -0.10040661735E+02  0.42465896035E+02  0.43798639711E+02  0.17770000000E+01 0.  1.
</event>
<event>
 6    1  0.2408691E-003  0.5179219E+03  0.7546771E-02  0.9360578E-01
        -11   -1    0    0    0    0  0.00000000000E+00  0.00000000000E+00  0.50000000000E+03  0.50000000000E+03  0.00000000000E+00 0.  1.
         11   -1    0    0    0    0 -0.00000000000E+00 -0.00000000000E+00 -0.50000000000E+03  0.50000000000E+03  0.00000000000E+00 0. -1.
        -11    1    1    2    0    0  0.34029727585E+02  0.69793083108E+01  0.30161878363E+03  0.30361262118E+03  0.00000000000E+00 0.  1.
         11    1    1    2    0    0 -0.10059991133E+02 -0.61924038623E+01 -0.48193337473E+03  0.48207813367E+03  0.00000000000E+00 0. -1.
        -15    1    1    2    0    0 -0.26762931690E+02 -0.37489855855E+01  0.19607408508E+03  0.19793563089E+03  0.17770000000E+01 0.  1.
         15    1    1    2    0    0  0.27931952378E+01  0.29620811370E+01 -0.15759493980E+02  0.16373614256E+02  0.17770000000E+01 0. -1.
</event>
<event>
 6    1  0.2408691E-003  0.5090231E+03  0.7546771E-02  0.9379843E-01
        -11   -1    0    0    0    0  0.00000000000E+00  0.00000000000E+00  0.50000000000E+03  0.50000000000E+03  0.00000000000E+00 0. -1.
         11   -1    0    0    0    0 -0.00000000000E+00 -0.00000000000E+00 -0.50000000000E+03  0.50000000000E+03  0.00000000000E+00 0.  1.
        -11    1    1    2    0    0  0.51352290548E+01 -0.13116317308E+02  0.43936998342E+03  0.43959571277E+03  0.00000000000E+00 0. -1.
         11    1    1    2    0    0 -0.50264165815E+01  0.13674806644E+02 -0.49076068306E+03  0.49097689685E+03  0.00000000000E+00 0.  1.
        -15    1    1    2    0    0 -0.43202232872E+01 -0.19946845080E+02  0.43347777394E+02  0.47945057012E+02  0.17770000000E+01 0. -1.
         15    1    1    2    0    0  0.42114108139E+01  0.19388355743E+02  0.80429222500E+01  0.21482333365E+02  0.17770000000E+01 0.  1.
</event>
<event>
 6    1  0.2408691E-003  0.5014890E+03  0.7546771E-02  0.9396484E-01
        -11   -1    0    0    0    0  0.00000000000E+00  0.00000000000E+00  0.50000000000E+03  0.50000000000E+03  0.00000000000E+00 0. -1.
         11   -1    0    0    0    0 -0.00000000000E+00 -0.00000000000E+00 -0.50000000000E+03  0.50000000000E+03  0.00000000000E+00 0.  1.
        -11    1    1    2    0    0  0.18108473495E+00 -0.88444032203E+01  0.35053140857E+03  0.35064301598E+03  0.00000000000E+00 0. -1.
         11    1    1    2    0    0 -0.11778441657E+02  0.19792352064E+02 -0.49797865197E+03  0.49851098955E+03  0.00000000000E+00 0.  1.
        -15    1    1    2    0    0  0.16554462319E+01 -0.12064102661E+02  0.23905081423E+02  0.26886682988E+02  0.17770000000E+01 0. -1.
         15    1    1    2    0    0  0.99419106899E+01  0.11161538179E+01  0.12354216198E+03  0.12395931148E+03  0.17770000000E+01 0.  1.
</event>
<event>
 6    1  0.2408691E-003  0.5011314E+03  0.7546771E-02  0.9397282E-01
        -11   -1    0    0    0    0  0.00000000000E+00  0.00000000000E+00  0.50000000000E+03  0.50000000000E+03  0.00000000000E+00 0. -1.
         11   -1    0    0    0    0 -0.00000000000E+00 -0.00000000000E+00 -0.50000000000E+03  0.50000000000E+03  0.00000000000E+00 0.  1.
        -11    1    1    2    0    0 -0.53839129612E+01  0.80470420777E+01  0.15851403473E+03  0.15880944748E+03  0.00000000000E+00 0. -1.
         11    1    1    2    0    0  0.50364452310E+01  0.10209196086E+02 -0.49873874462E+03  0.49886864889E+03  0.00000000000E+00 0.  1.
        -15    1    1    2    0    0  0.11758230264E+01 -0.13013708176E+02  0.33261051735E+03  0.33287182689E+03  0.17770000000E+01 0. -1.
         15    1    1    2    0    0 -0.82835529615E+00 -0.52425299879E+01  0.76141925432E+01  0.94500767328E+01  0.17770000000E+01 0.  1.
</event>
<event>
 6    1  0.2408691E-003  0.5160266E+03  0.7546771E-02  0.9364646E-01
        -11   -1    0    0    0    0  0.00000000000E+00  0.00000000000E+00  0.50000000000E+03  0.50000000000E+03  0.00000000000E+00 0.  1.
         11   -1    0    0    0    0 -0.00000000000E+00 -0.00000000000E+00 -0.50000000000E+03  0.50000000000E+03  0.00000000000E+00 0.  1.
        -11    1    1    2    0    0  0.21327031759E+01  0.68273912285E+01  0.48392057717E+03  0.48397343595E+03  0.00000000000E+00 0.  1.
         11    1    1    2    0    0 -0.12692955984E+01 -0.17704321531E+02 -0.46086189023E+03  0.46120357325E+03  0.00000000000E+00 0.  1.
        -15    1    1    2    0    0 -0.87616870795E+01  0.28216568877E+02 -0.19258860080E+02  0.35312934461E+02  0.17770000000E+01 0.  1.
         15    1    1    2    0    0  0.78982795020E+01 -0.17339638574E+02 -0.37998268599E+01  0.19510056334E+02  0.17770000000E+01 0. -1.
</event>
<event>
 6    1  0.2408691E-003  0.5149256E+03  0.7546771E-02  0.9367018E-01
        -11   -1    0    0    0    0  0.00000000000E+00  0.00000000000E+00  0.50000000000E+03  0.50000000000E+03  0.00000000000E+00 0.  1.
         11   -1    0    0    0    0 -0.00000000000E+00 -0.00000000000E+00 -0.50000000000E+03  0.50000000000E+03  0.00000000000E+00 0.  1.
        -11    1    1    2    0    0 -0.28902860662E+01 -0.56180988637E+01  0.43926229727E+03  0.43930773109E+03  0.00000000000E+00 0.  1.
         11    1    1    2    0    0  0.47807024005E+01 -0.61838284811E+01 -0.48501140117E+03  0.48507437998E+03  0.00000000000E+00 0.  1.
        -15    1    1    2    0    0  0.14140191529E+02  0.44795743810E+01 -0.94294835434E+01  0.17665913279E+02  0.17770000000E+01 0. -1.
         15    1    1    2    0    0 -0.16030607863E+02  0.73223529638E+01  0.55178587440E+02  0.57951975654E+02  0.17770000000E+01 0.  1.
</event>
<event>
 6    1  0.2408691E-003  0.5020276E+03  0.7546771E-02  0.9395284E-01
        -11   -1    0    0    0    0  0.00000000000E+00  0.00000000000E+00  0.50000000000E+03  0.50000000000E+03  0.00000000000E+00 0.  1.
         11   -1    0    0    0    0 -0.00000000000E+00 -0.00000000000E+00 -0.50000000000E+03  0.50000000000E+03  0.00000000000E+00 0. -1.
        -11    1    1    2    0    0  0.52949161181E+01  0.37523468162E+01  0.44403859776E+03  0.44408601931E+03  0.00000000000E+00 0.  1.
         11    1    1    2    0    0  0.23237554605E+01  0.94270333988E+01 -0.49787774587E+03  0.49797240750E+03  0.00000000000E+00 0. -1.
        -15    1    1    2    0    0  0.14533791579E+01 -0.56683632879E+01  0.35840764613E+02  0.36358778726E+02  0.17770000000E+01 0.  1.
         15    1    1    2    0    0 -0.90720507365E+01 -0.75110169270E+01  0.17998383488E+02  0.21582794467E+02  0.17770000000E+01 0. -1.
</event>
<event>
 6    1  0.2408691E-003  0.5040375E+03  0.7546771E-02  0.9390820E-01
        -11   -1    0    0    0    0  0.00000000000E+00  0.00000000000E+00  0.50000000000E+03  0.50000000000E+03  0.00000000000E+00 0.  1.
         11   -1    0    0    0    0 -0.00000000000E+00 -0.00000000000E+00 -0.50000000000E+03  0.50000000000E+03  0.00000000000E+00 0.  1.
        -11    1    1    2    0    0 -0.78948851637E+00  0.38985247417E+01  0.28851936624E+03  0.28854678387E+03  0.00000000000E+00 0.  1.
         11    1    1    2    0    0 -0.69266672624E+01 -0.70825651041E+01 -0.49586351913E+03  0.49596246940E+03  0.00000000000E+00 0.  1.
        -15    1    1    2    0    0 -0.13490422222E+02 -0.18972192798E+02  0.13325594708E+03  0.13528577439E+03  0.17770000000E+01 0.  1.
         15    1    1    2    0    0  0.21206578001E+02  0.22156233160E+02  0.74088205814E+02  0.80204972340E+02  0.17770000000E+01 0. -1.
</event>
<event>
 6    1  0.2408691E-003  0.5178054E+03  0.7546771E-02  0.9360827E-01
        -11   -1    0    0    0    0  0.00000000000E+00  0.00000000000E+00  0.50000000000E+03  0.50000000000E+03  0.00000000000E+00 0. -1.
         11   -1    0    0    0    0 -0.00000000000E+00 -0.00000000000E+00 -0.50000000000E+03  0.50000000000E+03  0.00000000000E+00 0. -1.
        -11    1    1    2    0    0  0.30348600853E+02  0.26442608486E+02  0.48051154371E+03  0.48219455903E+03  0.00000000000E+00 0. -1.
         11    1    1    2    0    0  0.46384593490E+01  0.45990998763E+01 -0.39140347660E+03  0.39145797798E+03  0.00000000000E+00 0. -1.
        -15    1    1    2    0    0 -0.25414507583E+02 -0.49622799143E+02 -0.29384599905E+02  0.63047060447E+02  0.17770000000E+01 0. -1.
         15    1    1    2    0    0 -0.95725526189E+01  0.18581090781E+02 -0.59723467207E+02  0.63300402546E+02  0.17770000000E+01 0.  1.
</event>
<event>
 6    1  0.2408691E-003  0.5113037E+03  0.7546771E-02  0.9374866E-01
        -11   -1    0    0    0    0  0.00000000000E+00  0.00000000000E+00  0.50000000000E+03  0.50000000000E+03  0.00000000000E+00 0.  1.
         11   -1    0    0    0    0 -0.00000000000E+00 -0.00000000000E+00 -0.50000000000E+03  0.50000000000E+03  0.00000000000E+00 0. -1.
        -11    1    1    2    0    0 -0.27215196291E+02 -0.13720118187E+02  0.48774495835E+03  0.48869627884E+03  0.00000000000E+00 0.  1.
         11    1    1    2    0    0  0.81381781337E+01 -0.33210487750E+01 -0.46860252069E+03  0.46868494930E+03  0.00000000000E+00 0. -1.
        -15    1    1    2    0    0 -0.45334250572E+01 -0.63192057127E+00 -0.10884478667E+02  0.11940723228E+02  0.17770000000E+01 0.  1.
         15    1    1    2    0    0  0.23610443215E+02  0.17673087533E+02 -0.82579589982E+01  0.30678048627E+02  0.17770000000E+01 0.  1.
</event>
<event>
 6    1  0.2408691E-003  0.5036839E+03  0.7546771E-02  0.9391604E-01
        -11   -1    0    0    0    0  0.00000000000E+00  0.00000000000E+00  0.50000000000E+03  0.50000000000E+03  0.00000000000E+00 0.  1.
         11   -1    0    0    0    0 -0.00000000000E+00 -0.00000000000E+00 -0.50000000000E+03  0.50000000000E+03  0.00000000000E+00 0.  1.
        -11    1    1    2    0    0  0.88493261598E+01 -0.33011928221E+01  0.46329077177E+03  0.46338703872E+03  0.00000000000E+00 0.  1.
         11    1    1    2    0    0  0.82085800712E+00  0.94589876525E+01 -0.49622528044E+03  0.49631610411E+03  0.00000000000E+00 0.  1.
        -15    1    1    2    0    0 -0.89943022450E+01  0.10176026033E+01  0.31386774419E+02  0.32714222066E+02  0.17770000000E+01 0. -1.
         15    1    1    2    0    0 -0.67588192197E+00 -0.71753974338E+01  0.15477342497E+01  0.75826350969E+01  0.17770000000E+01 0.  1.
</event>
<event>
 6    1  0.2408691E-003  0.5111072E+03  0.7546771E-02  0.9375294E-01
        -11   -1    0    0    0    0  0.00000000000E+00  0.00000000000E+00  0.50000000000E+03  0.50000000000E+03  0.00000000000E+00 0. -1.
         11   -1    0    0    0    0 -0.00000000000E+00 -0.00000000000E+00 -0.50000000000E+03  0.50000000000E+03  0.00000000000E+00 0.  1.
        -11    1    1    2    0    0  0.68761888017E+01  0.13534875526E+02  0.45474124186E+03  0.45499458445E+03  0.00000000000E+00 0. -1.
         11    1    1    2    0    0  0.82862393402E+01  0.29785078758E+01 -0.48881348334E+03  0.48889278453E+03  0.00000000000E+00 0.  1.
        -15    1    1    2    0    0 -0.29695204464E+01 -0.99438645089E+01  0.39688892730E+02  0.41061714872E+02  0.17770000000E+01 0.  1.
         15    1    1    2    0    0 -0.12192907695E+02 -0.65695188924E+01 -0.56166512583E+01  0.15050916148E+02  0.17770000000E+01 0. -1.
</event>
<event>
 6    1  0.2408691E-003  0.5008759E+03  0.7546771E-02  0.9397852E-01
        -11   -1    0    0    0    0  0.00000000000E+00  0.00000000000E+00  0.50000000000E+03  0.50000000000E+03  0.00000000000E+00 0. -1.
         11   -1    0    0    0    0 -0.00000000000E+00 -0.00000000000E+00 -0.50000000000E+03  0.50000000000E+03  0.00000000000E+00 0.  1.
        -11    1    1    2    0    0 -0.44620429057E+01  0.51764958780E+01  0.49907731103E+03  0.49912410112E+03  0.00000000000E+00 0. -1.
         11    1    1    2    0    0  0.29954387402E+01  0.56877306527E+01 -0.43662595563E+03  0.43667327381E+03  0.00000000000E+00 0.  1.
        -15    1    1    2    0    0  0.33368713813E+01 -0.11389574633E+02 -0.45884019099E+02  0.47427397764E+02  0.17770000000E+01 0. -1.
         15    1    1    2    0    0 -0.18702672159E+01  0.52534810186E+00 -0.16567336298E+02  0.16775227304E+02  0.17770000000E+01 0.  1.
</event>
<event>
 6    1  0.2408691E-003  0.4968571E+03  0.7546771E-02  0.9406870E-01
        -11   -1    0    0    0    0  0.00000000000E+00  0.00000000000E+00  0.50000000000E+03  0.50000000000E+03  0.00000000000E+00 0. -1.
         11   -1    0    0    0    0 -0.00000000000E+00 -0.00000000000E+00 -0.50000000000E+03  0.50000000000E+03  0.00000000000E+00 0. -1.
        -11    1    1    2    0    0  0.20415379160E+00  0.91469706189E+00  0.88688792665E+01  0.89182604206E+01  0.00000000000E+00 0. -1.
         11    1    1    2    0    0  0.30416630204E+02  0.25784394608E+02 -0.49698473421E+03  0.49858182121E+03  0.00000000000E+00 0. -1.
        -15    1    1    2    0    0  0.76808255976E+00  0.36922574655E+01  0.27061424634E+03  0.27064635739E+03  0.17770000000E+01 0. -1.
         15    1    1    2    0    0 -0.31388866555E+02 -0.30391349135E+02  0.21750160860E+03  0.22185356098E+03  0.17770000000E+01 0.  1.
</event>
<event>
 6    1  0.2408691E-003  0.5014839E+03  0.7546771E-02  0.9396495E-01
        -11   -1    0    0    0    0  0.00000000000E+00  0.00000000000E+00  0.50000000000E+03  0.50000000000E+03  0.00000000000E+00 0.  1.
         11   -1    0    0    0    0 -0.00000000000E+00 -0.00000000000E+00 -0.50000000000E+03  0.50000000000E+03  0.00000000000E+00 0.  1.
        -11    1    1    2    0    0 -0.70888567869E+01  0.54152648197E+01  0.49843624911E+03  0.49851606936E+03  0.00000000000E+00 0.  1.
         11    1    1    2    0    0 -0.23098357056E+01  0.12443549495E+02 -0.22486240650E+03  0.22521829216E+03  0.00000000000E+00 0.  1.
        -15    1    1    2    0    0  0.81229637611E+01  0.85229973440E+01 -0.76290613329E+02  0.77214243732E+02  0.17770000000E+01 0. -1.
         15    1    1    2    0    0  0.12757287314E+01 -0.26381811659E+02 -0.19728322927E+03  0.19905139475E+03  0.17770000000E+01 0.  1.
</event>
<event>
 6    1  0.2408691E-003  0.5047309E+03  0.7546771E-02  0.9389286E-01
        -11   -1    0    0    0    0  0.00000000000E+00  0.00000000000E+00  0.50000000000E+03  0.50000000000E+03  0.00000000000E+00 0.  1.
         11   -1    0    0    0    0 -0.00000000000E+00 -0.00000000000E+00 -0.50000000000E+03  0.50000000000E+03  0.00000000000E+00 0.  1.
        -11    1    1    2    0    0 -0.55024957761E+01 -0.13858063950E+02  0.49504458153E+03  0.49526907949E+03  0.00000000000E+00 0.  1.
         11    1    1    2    0    0 -0.51834928364E+01 -0.37069608635E+01 -0.45589603303E+03  0.45594056969E+03  0.00000000000E+00 0.  1.
        -15    1    1    2    0    0  0.17070831160E+01  0.64137999586E+01  0.20693874940E+00  0.68739737649E+01  0.17770000000E+01 0. -1.
         15    1    1    2    0    0  0.89789054965E+01  0.11151224855E+02 -0.39355487252E+02  0.41916377056E+02  0.17770000000E+01 0.  1.
</event>
<event>
 6    1  0.2408691E-003  0.5054160E+03  0.7546771E-02  0.9387772E-01
        -11   -1    0    0    0    0  0.00000000000E+00  0.00000000000E+00  0.50000000000E+03  0.50000000000E+03  0.00000000000E+00 0. -1.
         11   -1    0    0    0    0 -0.00000000000E+00 -0.00000000000E+00 -0.50000000000E+03  0.50000000000E+03  0.00000000000E+00 0. -1.
        -11    1    1    2    0    0  0.21191469612E+01 -0.94686309046E+01  0.19468933038E+03  0.19493096501E+03  0.00000000000E+00 0. -1.
         11    1    1    2    0    0 -0.15482901138E+02  0.15040030911E+02 -0.49411279441E+03  0.49458404378E+03  0.00000000000E+00 0. -1.
        -15    1    1    2    0    0  0.83399031979E+01  0.95944909456E+01  0.29282878472E+03  0.29310998470E+03  0.17770000000E+01 0. -1.
         15    1    1    2    0    0  0.50238509787E+01 -0.15165890952E+02  0.65946793107E+01  0.17375006510E+02  0.17770000000E+01 0.  1.
</event>
<event>
 6    1  0.2408691E-003  0.5007917E+03  0.7546771E-02  0.9398040E-01
        -11   -1    0    0    0    0  0.00000000000E+00  0.00000000000E+00  0.50000000000E+03  0.50000000000E+03  0.00000000000E+00 0.  1.
         11   -1    0    0    0    0 -0.00000000000E+00 -0.00000000000E+00 -0.50000000000E+03  0.50000000000E+03  0.00000000000E+00 0.  1.
        -11    1    1    2    0    0  0.16025210561E+01 -0.29291309626E+01  0.14377971701E+03  0.14381847901E+03  0.00000000000E+00 0.  1.
         11    1    1    2    0    0 -0.16353119416E+01 -0.10376391133E+02 -0.49909772310E+03  0.49920825408E+03  0.00000000000E+00 0.  1.
        -15    1    1    2    0    0 -0.97243338400E+01  0.13851395723E+02  0.31465156909E+03  0.31511139537E+03  0.17770000000E+01 0.  1.
         15    1    1    2    0    0  0.97571247256E+01 -0.54587362774E+00  0.40666437009E+02  0.41861871541E+02  0.17770000000E+01 0. -1.
</event>
<event>
 6    1  0.2408691E-003  0.5066040E+03  0.7546771E-02  0.9385153E-01
        -11   -1    0    0    0    0  0.00000000000E+00  0.00000000000E+00  0.50000000000E+03  0.50000000000E+03  0.00000000000E+00 0.  1.
         11   -1    0    0    0    0 -0.00000000000E+00 -0.00000000000E+00 -0.50000000000E+03  0.50000000000E+03  0.00000000000E+00 0.  1.
        -11    1    1    2    0    0  0.21572445564E+02 -0.10584427833E+02  0.49281051499E+03  0.49339599128E+03  0.00000000000E+00 0.  1.
         11    1    1    2    0    0 -0.96311840399E+00 -0.90292008165E+01 -0.32151311093E+03  0.32164131353E+03  0.00000000000E+00 0.  1.
        -15    1    1    2    0    0  0.14810192935E+02  0.11285741055E+02 -0.12327834832E+03  0.12468928847E+03  0.17770000000E+01 0. -1.
         15    1    1    2    0    0 -0.35419520095E+02  0.83278875938E+01 -0.48019055737E+02  0.60273406726E+02  0.17770000000E+01 0.  1.
</event>
<event>
 6    1  0.2408691E-003  0.5104035E+03  0.7546771E-02  0.9376827E-01
        -11   -1    0    0    0    0  0.00000000000E+00  0.00000000000E+00  0.50000000000E+03  0.50000000000E+03  0.00000000000E+00 0. -1.
         11   -1    0    0    0    0 -0.00000000000E+00 -0.00000000000E+00 -0.50000000000E+03  0.50000000000E+03  0.00000000000E+00 0.  1.
        -11    1    1    2    0    0 -0.16850693553E+02  0.14164573647E+02  0.48910136843E+03  0.48959649674E+03  0.00000000000E+00 0. -1.
         11    1    1    2    0    0  0.38043591687E+01 -0.27498794234E+02 -0.46735880825E+03  0.46818256320E+03  0.00000000000E+00 0.  1.
        -15    1    1    2    0    0 -0.30255479964E+01  0.10404209403E+02 -0.23256544337E+02  0.25718205565E+02  0.17770000000E+01 0.  1.
         15    1    1    2    0    0  0.16071882381E+02  0.29300111828E+01  0.15139841554E+01  0.16502734495E+02  0.17770000000E+01 0. -1.
</event>
<event>
 6    1  0.2408691E-003  0.4823939E+03  0.7546771E-02  0.9440090E-01
        -11   -1    0    0    0    0  0.00000000000E+00  0.00000000000E+00  0.50000000000E+03  0.50000000000E+03  0.00000000000E+00 0.  1.
         11   -1    0    0    0    0 -0.00000000000E+00 -0.00000000000E+00 -0.50000000000E+03  0.50000000000E+03  0.00000000000E+00 0. -1.
        -11    1    1    2    0    0  0.10342369561E+02 -0.15986600576E+01  0.48631971043E+03  0.48643229855E+03  0.00000000000E+00 0.  1.
         11    1    1    2    0    0  0.10606748256E+02  0.22842033167E+01 -0.47849196248E+03  0.47861495886E+03  0.00000000000E+00 0. -1.
        -15    1    1    2    0    0 -0.21619349934E+02 -0.10477734794E+02 -0.55736514015E+01  0.24726555299E+02  0.17770000000E+01 0. -1.
         15    1    1    2    0    0  0.67023211736E+00  0.97921915349E+01 -0.22540965538E+01  0.10226187287E+02  0.17770000000E+01 0.  1.
</event>
<event>
 6    1  0.2408691E-003  0.5965139E+03  0.7546771E-02  0.9206484E-01
        -11   -1    0    0    0    0  0.00000000000E+00  0.00000000000E+00  0.50000000000E+03  0.50000000000E+03  0.00000000000E+00 0. -1.
         11   -1    0    0    0    0 -0.00000000000E+00 -0.00000000000E+00 -0.50000000000E+03  0.50000000000E+03  0.00000000000E+00 0. -1.
        -11    1    1    2    0    0 -0.30096700818E+02 -0.50709765454E+02  0.39915378605E+03  0.40348610463E+03  0.00000000000E+00 0. -1.
         11    1    1    2    0    0 -0.24635347442E+02  0.87025510457E+01 -0.32499013986E+03  0.32603868750E+03  0.00000000000E+00 0. -1.
        -15    1    1    2    0    0  0.50070611056E+02  0.49239129709E+02 -0.16493926697E+03  0.17927542359E+03  0.17770000000E+01 0.  1.
         15    1    1    2    0    0  0.46614372034E+01 -0.72319153010E+01  0.90775620784E+02  0.91199784284E+02  0.17770000000E+01 0. -1.
</event>
<event>
 6    1  0.2408691E-003  0.5076659E+03  0.7546771E-02  0.9382818E-01
        -11   -1    0    0    0    0  0.00000000000E+00  0.00000000000E+00  0.50000000000E+03  0.50000000000E+03  0.00000000000E+00 0. -1.
         11   -1    0    0    0    0 -0.00000000000E+00 -0.00000000000E+00 -0.50000000000E+03  0.50000000000E+03  0.00000000000E+00 0. -1.
        -11    1    1    2    0    0 -0.17141098283E+02 -0.12774332374E+02  0.49186977451E+03  0.49233411003E+03  0.00000000000E+00 0. -1.
         11    1    1    2    0    0  0.69470185358E+00  0.25003628702E+02 -0.24296635629E+03  0.24425051555E+03  0.00000000000E+00 0. -1.
        -15    1    1    2    0    0  0.50856653403E+01 -0.17352134513E+02 -0.45398126536E+01  0.18727738572E+02  0.17770000000E+01 0.  1.
         15    1    1    2    0    0  0.11360731089E+02  0.51228381848E+01 -0.24436360557E+03  0.24468763585E+03  0.17770000000E+01 0. -1.
</event>
<event>
 6    1  0.2408691E-003  0.5051670E+03  0.7546771E-02  0.9388322E-01
        -11   -1    0    0    0    0  0.00000000000E+00  0.00000000000E+00  0.50000000000E+03  0.50000000000E+03  0.00000000000E+00 0. -1.
         11   -1    0    0    0    0 -0.00000000000E+00 -0.00000000000E+00 -0.50000000000E+03  0.50000000000E+03  0.00000000000E+00 0. -1.
        -11    1    1    2    0    0  0.22272694885E+01  0.65191864203E+01  0.47881320807E+03  0.47886276608E+03  0.00000000000E+00 0. -1.
         11    1    1    2    0    0  0.55217176471E+01 -0.50240991272E+01 -0.49477669891E+03  0.49483301499E+03  0.00000000000E+00 0. -1.
        -15    1    1    2    0    0 -0.79850848940E+01 -0.65042682599E+01  0.17829005000E+02  0.20666355137E+02  0.17770000000E+01 0. -1.
         15    1    1    2    0    0  0.23609775840E+00  0.50091809669E+01 -0.18655141577E+01  0.56378637961E+01  0.17770000000E+01 0.  1.
</event>
<event>
 6    1  0.2408691E-003  0.5252268E+03  0.7546771E-02  0.9345067E-01
        -11   -1    0    0    0    0  0.00000000000E+00  0.00000000000E+00  0.50000000000E+03  0.50000000000E+03  0.00000000000E+00 0.  1.
         11   -1    0    0    0    0 -0.00000000000E+00 -0.00000000000E+00 -0.50000000000E+03  0.50000000000E+03  0.00000000000E+00 0.  1.
        -11    1    1    2    0    0 -0.33889107605E+01 -0.85899210088E+01  0.47468335635E+03  0.47477316715E+03  0.00000000000E+00 0.  1.
         11    1    1    2    0    0 -0.37830776757E+01 -0.87353275327E+01 -0.39076549873E+03  0.39088143039E+03  0.00000000000E+00 0.  1.
        -15    1    1    2    0    0  0.10409007493E+02  0.42678339169E+01  0.23478490987E+02  0.26095193261E+02  0.17770000000E+01 0. -1.
         15    1    1    2    0    0 -0.32370190572E+01  0.13057414625E+02 -0.10739634860E+03  0.10825020919E+03  0.17770000000E+01 0.  1.
</event>
<event>
 6    1  0.2408691E-003  0.5006494E+03  0.7546771E-02  0.9398358E-01
        -11   -1    0    0    0    0  0.00000000000E+00  0.00000000000E+00  0.50000000000E+03  0.50000000000E+03  0.00000000000E+00 0.  1.
         11   -1    0    0    0    0 -0.00000000000E+00 -0.00000000000E+00 -0.50000000000E+03  0.50000000000E+03  0.00000000000E+00 0.  1.
        -11    1    1    2    0    0  0.75669129668E+01  0.20273175027E+01  0.49928917145E+03  0.49935062322E+03  0.00000000000E+00 0.  1.
         11    1    1    2    0    0 -0.39427715774E+01  0.44077757587E+01 -0.16930291922E+03  0.16940617577E+03  0.00000000000E+00 0.  1.
        -15    1    1    2    0    0 -0.11919552980E+02  0.60085035027E+01 -0.13205635630E+03  0.13274116478E+03  0.17770000000E+01 0. -1.
         15    1    1    2    0    0  0.82954115908E+01 -0.12443596764E+02 -0.19792989593E+03  0.19850203623E+03  0.17770000000E+01 0.  1.
</event>
<event>
 6    1  0.2408691E-003  0.5034975E+03  0.7546771E-02  0.9392018E-01
        -11   -1    0    0    0    0  0.00000000000E+00  0.00000000000E+00  0.50000000000E+03  0.50000000000E+03  0.00000000000E+00 0.  1.
         11   -1    0    0    0    0 -0.00000000000E+00 -0.00000000000E+00 -0.50000000000E+03  0.50000000000E+03  0.00000000000E+00 0.  1.
        -11    1    1    2    0    0 -0.48081659458E+01  0.92903335487E+01  0.49639227475E+03  0.49650248659E+03  0.00000000000E+00 0.  1.
         11    1    1    2    0    0 -0.44334343079E+01 -0.71655922312E+01 -0.41842545785E+03  0.41851029238E+03  0.00000000000E+00 0.  1.
        -15    1    1    2    0    0  0.60204673436E+01  0.63852807417E+01 -0.29910863509E+01  0.94404535772E+01  0.17770000000E+01 0. -1.
         15    1    1    2    0    0  0.32211329101E+01 -0.85100220591E+01 -0.74975730550E+02  0.75546767457E+02  0.17770000000E+01 0.  1.
</event>
<event>
 6    1  0.2408691E-003  0.5008526E+03  0.7546771E-02  0.9397904E-01
        -11   -1    0    0    0    0  0.00000000000E+00  0.00000000000E+00  0.50000000000E+03  0.50000000000E+03  0.00000000000E+00 0. -1.
         11   -1    0    0    0    0 -0.00000000000E+00 -0.00000000000E+00 -0.50000000000E+03  0.50000000000E+03  0.00000000000E+00 0. -1.
        -11    1    1    2    0    0  0.10851646055E+02 -0.23083339892E+01  0.29907520404E+03  0.29928091202E+03  0.00000000000E+00 0. -1.
         11    1    1    2    0    0 -0.24829733491E+01  0.13882466932E+02 -0.49894814023E+03  0.49914740777E+03  0.00000000000E+00 0. -1.
        -15    1    1    2    0    0 -0.80128566232E+01 -0.50628620286E+01  0.28925127235E+02  0.30490312523E+02  0.17770000000E+01 0.  1.
         15    1    1    2    0    0 -0.35581608277E+00 -0.65112709146E+01  0.17094780895E+03  0.17108136769E+03  0.17770000000E+01 0. -1.
</event>
<event>
 6    1  0.2408691E-003  0.5129929E+03  0.7546771E-02  0.9371197E-01
        -11   -1    0    0    0    0  0.00000000000E+00  0.00000000000E+00  0.50000000000E+03  0.50000000000E+03  0.00000000000E+00 0. -1.
         11   -1    0    0    0    0 -0.00000000000E+00 -0.00000000000E+00 -0.50000000000E+03  0.50000000000E+03  0.00000000000E+00 0. -1.
        -11    1    1    2    0    0 -0.31302202101E+02  0.21729130726E+02  0.48551408141E+03  0.48700709053E+03  0.00000000000E+00 0. -1.
         11    1    1    2    0    0 -0.24584195376E+02 -0.31324391738E+01 -0.33290810941E+03  0.33382930391E+03  0.00000000000E+00 0. -1.
        -15    1    1    2    0    0  0.40822853806E+02 -0.19355368731E+02 -0.27040074595E+02  0.52682625739E+02  0.17770000000E+01 0.  1.
         15    1    1    2    0    0  0.15063543671E+02  0.75867717930E+00 -0.12556589740E+03  0.12648097983E+03  0.17770000000E+01 0. -1.
</event>
<event>
 6    1  0.2408691E-003  0.5004369E+03  0.7546771E-02  0.9398833E-01
        -11   -1    0    0    0    0  0.00000000000E+00  0.00000000000E+00  0.50000000000E+03  0.50000000000E+03  0.00000000000E+00 0.  1.
         11   -1    0    0    0    0 -0.00000000000E+00 -0.00000000000E+00 -0.50000000000E+03  0.50000000000E+03  0.00000000000E+00 0. -1.
        -11    1    1    2    0    0 -0.70179686876E+01  0.29727357554E+01  0.49950495603E+03  0.49956309926E+03  0.00000000000E+00 0.  1.
         11    1    1    2    0    0 -0.48422511120E+01 -0.18540080973E+01 -0.37133448133E+03  0.37137067973E+03  0.00000000000E+00 0. -1.
        -15    1    1    2    0    0  0.15994172528E+01  0.87519962507E+00 -0.61951032364E+02  0.62003324507E+02  0.17770000000E+01 0. -1.
         15    1    1    2    0    0  0.10260802547E+02 -0.19939272832E+01 -0.66219442338E+02  0.67062896504E+02  0.17770000000E+01 0.  1.
</event>
<event>
 6    1  0.2408691E-003  0.5019313E+03  0.7546771E-02  0.9395499E-01
        -11   -1    0    0    0    0  0.00000000000E+00  0.00000000000E+00  0.50000000000E+03  0.50000000000E+03  0.00000000000E+00 0.  1.
         11   -1    0    0    0    0 -0.00000000000E+00 -0.00000000000E+00 -0.50000000000E+03  0.50000000000E+03  0.00000000000E+00 0.  1.
        -11    1    1    2    0    0  0.48932320231E+01  0.17154628552E+02  0.32291481480E+03  0.32340717774E+03  0.00000000000E+00 0.  1.
         11    1    1    2    0    0 -0.24421918917E+01 -0.17740501203E+02 -0.49774663166E+03  0.49806866898E+03  0.00000000000E+00 0.  1.
        -15    1    1    2    0    0 -0.16265061408E+01  0.17936043598E+02  0.73233209091E+02  0.75436117510E+02  0.17770000000E+01 0. -1.
         15    1    1    2    0    0 -0.82453399057E+00 -0.17350170947E+02  0.10159860778E+03  0.10308803577E+03  0.17770000000E+01 0.  1.
</event>
<event>
 6    1  0.2408691E-003  0.5170182E+03  0.7546771E-02  0.9362515E-01
        -11   -1    0    0    0    0  0.00000000000E+00  0.00000000000E+00  0.50000000000E+03  0.50000000000E+03  0.00000000000E+00 0. -1.
         11   -1    0    0    0    0 -0.00000000000E+00 -0.00000000000E+00 -0.50000000000E+03  0.50000000000E+03  0.00000000000E+00 0.  1.
        -11    1    1    2    0    0 -0.58768124961E+01  0.54711636140E+01  0.41186145184E+03  0.41193971169E+03  0.00000000000E+00 0. -1.
         11    1    1    2    0    0  0.49475377861E+02  0.87588848093E+01 -0.48036123360E+03  0.48298182763E+03  0.00000000000E+00 0.  1.
        -15    1    1    2    0    0  0.42097455239E+01 -0.14036708400E+02  0.52648972618E+02  0.54679275661E+02  0.17770000000E+01 0.  1.
         15    1    1    2    0    0 -0.47808310889E+02 -0.19334002361E+00  0.15850809142E+02  0.50399185012E+02  0.17770000000E+01 0. -1.
</event>
<event>
 6    1  0.2408691E-003  0.5300287E+03  0.7546771E-02  0.9335016E-01
        -11   -1    0    0    0    0  0.00000000000E+00  0.00000000000E+00  0.50000000000E+03  0.50000000000E+03  0.00000000000E+00 0. -1.
         11   -1    0    0    0    0 -0.00000000000E+00 -0.00000000000E+00 -0.50000000000E+03  0.50000000000E+03  0.00000000000E+00 0.  1.
        -11    1    1    2    0    0 -0.11472353950E+02 -0.65175993501E+01  0.46978601462E+03  0.46997126884E+03  0.00000000000E+00 0. -1.
         11    1    1    2    0    0  0.66219191911E+00 -0.84469107982E+01 -0.42056235800E+03  0.42064769792E+03  0.00000000000E+00 0.  1.
        -15    1    1    2    0    0  0.10519336398E+02 -0.13341998280E+02  0.24797248884E+02  0.30111901926E+02  0.17770000000E+01 0. -1.
         15    1    1    2    0    0  0.29082563292E+00  0.28306508428E+02 -0.74020905500E+02  0.79269131312E+02  0.17770000000E+01 0.  1.
</event>
<event>
 6    1  0.2408691E-003  0.5008715E+03  0.7546771E-02  0.9397862E-01
        -11   -1    0    0    0    0  0.00000000000E+00  0.00000000000E+00  0.50000000000E+03  0.50000000000E+03  0.00000000000E+00 0.  1.
         11   -1    0    0    0    0 -0.00000000000E+00 -0.00000000000E+00 -0.50000000000E+03  0.50000000000E+03  0.00000000000E+00 0. -1.
        -11    1    1    2    0    0  0.64585339271E+01 -0.37287789846E+01  0.39242132338E+03  0.39249218017E+03  0.00000000000E+00 0.  1.
         11    1    1    2    0    0  0.72184827500E+01  0.11399308146E+01 -0.49907498101E+03  0.49912848306E+03  0.00000000000E+00 0. -1.
        -15    1    1    2    0    0 -0.41156311444E+01  0.63615170836E+00  0.77211471349E+01  0.89508072704E+01  0.17770000000E+01 0. -1.
         15    1    1    2    0    0 -0.95613855327E+01  0.19526964617E+01  0.98932510495E+02  0.99428529500E+02  0.17770000000E+01 0.  1.
</event>
<event>
 6    1  0.2408691E-003  0.5359595E+03  0.7546771E-02  0.9322758E-01
        -11   -1    0    0    0    0  0.00000000000E+00  0.00000000000E+00  0.50000000000E+03  0.50000000000E+03  0.00000000000E+00 0. -1.
         11   -1    0    0    0    0 -0.00000000000E+00 -0.00000000000E+00 -0.50000000000E+03  0.50000000000E+03  0.00000000000E+00 0. -1.
        -11    1    1    2    0    0 -0.31448104865E+02 -0.33805661706E+01  0.42581704470E+03  0.42699012528E+03  0.00000000000E+00 0. -1.
         11    1    1    2    0    0 -0.21468877958E+02  0.16855138816E+02 -0.46323709244E+03  0.46404052866E+03  0.00000000000E+00 0. -1.
        -15    1    1    2    0    0  0.19140552116E+02 -0.17680333543E+01  0.62403137838E+02  0.65320716609E+02  0.17770000000E+01 0.  1.
         15    1    1    2    0    0  0.33776430707E+02 -0.11706539292E+02 -0.24983090101E+02  0.43648629457E+02  0.17770000000E+01 0. -1.
</event>
<event>
 6    1  0.2408691E-003  0.5188814E+03  0.7546771E-02  0.9358525E-01
        -11   -1    0    0    0    0  0.00000000000E+00  0.00000000000E+00  0.50000000000E+03  0.50000000000E+03  0.00000000000E+00 0. -1.
         11   -1    0    0    0    0 -0.00000000000E+00 -0.00000000000E+00 -0.50000000000E+03  0.50000000000E+03  0.00000000000E+00 0.  1.
        -11    1    1    2    0    0 -0.32892095434E+02  0.21389064874E+02  0.42038385590E+03  0.42221081031E+03  0.00000000000E+00 0. -1.
         11    1    1    2    0    0  0.75385752265E+01  0.13974808501E+02 -0.48085654165E+03  0.48111863302E+03  0.00000000000E+00 0.  1.
        -15    1    1    2    0    0 -0.17300380475E+02  0.31417337788E+01  0.17711984043E+02  0.25020906527E+02  0.17770000000E+01 0. -1.
         15    1    1    2    0    0  0.42653900682E+02 -0.38505607154E+02  0.42760701706E+02  0.71649650140E+02  0.17770000000E+01 0.  1.
</event>
<event>
 6    1  0.2408691E-003  0.5022676E+03  0.7546771E-02  0.9394750E-01
        -11   -1    0    0    0    0  0.00000000000E+00  0.00000000000E+00  0.50000000000E+03  0.50000000000E+03  0.00000000000E+00 0.  1.
         11   -1    0    0    0    0 -0.00000000000E+00 -0.00000000000E+00 -0.50000000000E+03  0.50000000000E+03  0.00000000000E+00 0. -1.
        -11    1    1    2    0    0 -0.12961558637E+02  0.12485647336E+01  0.49756201554E+03  0.49773237811E+03  0.00000000000E+00 0.  1.
         11    1    1    2    0    0  0.60149968387E+01 -0.26790787820E+01 -0.47810826786E+03  0.47815360863E+03  0.00000000000E+00 0. -1.
        -15    1    1    2    0    0  0.17548925475E+01  0.57018123779E+01 -0.13845706924E+02  0.15180633764E+02  0.17770000000E+01 0.  1.
         15    1    1    2    0    0  0.51916692509E+01 -0.42712983294E+01 -0.56080407530E+01  0.89333794903E+01  0.17770000000E+01 0. -1.
</event>
<event>
 6    1  0.2408691E-003  0.4509889E+03  0.7546771E-02  0.9516691E-01
        -11   -1    0    0    0    0  0.00000000000E+00  0.00000000000E+00  0.50000000000E+03  0.50000000000E+03  0.00000000000E+00 0.  1.
         11   -1    0    0    0    0 -0.00000000000E+00 -0.00000000000E+00 -0.50000000000E+03  0.50000000000E+03  0.00000000000E+00 0. -1.
        -11    1    1    2    0    0  0.59676903736E+01  0.46658500940E+01  0.44878634871E+03  0.44885027601E+03  0.00000000000E+00 0.  1.
         11    1    1    2    0    0  0.93611852625E+01  0.20380907646E+01 -0.45319216731E+03  0.45329342166E+03  0.00000000000E+00 0. -1.
        -15    1    1    2    0    0 -0.22107042212E+02 -0.20076195554E+02  0.45287548355E+02  0.54276097025E+02  0.17770000000E+01 0.  1.
         15    1    1    2    0    0  0.67781665759E+01  0.13372254696E+02 -0.40881729753E+02  0.43580205304E+02  0.17770000000E+01 0. -1.
</event>
<event>
 6    1  0.2408691E-003  0.5034859E+03  0.7546771E-02  0.9392043E-01
        -11   -1    0    0    0    0  0.00000000000E+00  0.00000000000E+00  0.50000000000E+03  0.50000000000E+03  0.00000000000E+00 0. -1.
         11   -1    0    0    0    0 -0.00000000000E+00 -0.00000000000E+00 -0.50000000000E+03  0.50000000000E+03  0.00000000000E+00 0.  1.
        -11    1    1    2    0    0 -0.72133259910E+01  0.15919532671E+02  0.49620641170E+03  0.49651411521E+03  0.00000000000E+00 0. -1.
         11    1    1    2    0    0  0.19118955292E+01 -0.51026360977E+01 -0.30775125685E+03  0.30779949372E+03  0.00000000000E+00 0.  1.
        -15    1    1    2    0    0  0.36566720351E+01 -0.59014931025E+01 -0.14778990456E-01  0.71663671850E+01  0.17770000000E+01 0. -1.
         15    1    1    2    0    0  0.16447584266E+01 -0.49154034710E+01 -0.18844037586E+03  0.18852002388E+03  0.17770000000E+01 0.  1.
</event>
<event>
 6    1  0.2408691E-003  0.5021692E+03  0.7546771E-02  0.9394969E-01
        -11   -1    0    0    0    0  0.00000000000E+00  0.00000000000E+00  0.50000000000E+03  0.50000000000E+03  0.00000000000E+00 0.  1.
         11   -1    0    0    0    0 -0.00000000000E+00 -0.00000000000E+00 -0.50000000000E+03  0.50000000000E+03  0.00000000000E+00 0.  1.
        -11    1    1    2    0    0 -0.42334525054E+01 -0.18223110190E+01  0.33004020705E+03  0.33007238783E+03  0.00000000000E+00 0.  1.
         11    1    1    2    0    0  0.11604008887E+02 -0.68319523795E+01 -0.49764868961E+03  0.49783084161E+03  0.00000000000E+00 0.  1.
        -15    1    1    2    0    0  0.64201851151E+01  0.18890702521E+02  0.64062701336E+02  0.67121269730E+02  0.17770000000E+01 0.  1.
         15    1    1    2    0    0 -0.13790741496E+02 -0.10236439122E+02  0.10354578122E+03  0.10497550083E+03  0.17770000000E+01 0. -1.
</event>
<event>
 6    1  0.2408691E-003  0.5006931E+03  0.7546771E-02  0.9398260E-01
        -11   -1    0    0    0    0  0.00000000000E+00  0.00000000000E+00  0.50000000000E+03  0.50000000000E+03  0.00000000000E+00 0. -1.
         11   -1    0    0    0    0 -0.00000000000E+00 -0.00000000000E+00 -0.50000000000E+03  0.50000000000E+03  0.00000000000E+00 0.  1.
        -11    1    1    2    0    0 -0.44158892560E+01  0.26769611607E+00  0.23267041029E+03  0.23271246543E+03  0.00000000000E+00 0. -1.
         11    1    1    2    0    0  0.29832686399E+01 -0.11195269521E+02 -0.49917242944E+03  0.49930686783E+03  0.00000000000E+00 0.  1.
        -15    1    1    2    0    0 -0.69129288533E+01 -0.14823132446E+01  0.25861071683E+02  0.26868915041E+02  0.17770000000E+01 0. -1.
         15    1    1    2    0    0  0.83455494694E+01  0.12409886649E+02  0.24064094746E+03  0.24111175170E+03  0.17770000000E+01 0. -1.
</event>
<event>
 6    1  0.2408691E-003  0.5316353E+03  0.7546771E-02  0.9331679E-01
        -11   -1    0    0    0    0  0.00000000000E+00  0.00000000000E+00  0.50000000000E+03  0.50000000000E+03  0.00000000000E+00 0.  1.
         11   -1    0    0    0    0 -0.00000000000E+00 -0.00000000000E+00 -0.50000000000E+03  0.50000000000E+03  0.00000000000E+00 0.  1.
        -11    1    1    2    0    0 -0.53131511549E+01 -0.14445470812E+02  0.36877892704E+03  0.36909998406E+03  0.00000000000E+00 0.  1.
         11    1    1    2    0    0 -0.22281454241E+02 -0.64280969032E+01 -0.46779019063E+03  0.46836465077E+03  0.00000000000E+00 0.  1.
        -15    1    1    2    0    0  0.65513837593E+01  0.27549943956E+02 -0.24234845551E+02  0.37314950208E+02  0.17770000000E+01 0. -1.
         15    1    1    2    0    0  0.21043221637E+02 -0.66763762408E+01  0.12324610914E+03  0.12522041497E+03  0.17770000000E+01 0.  1.
</event>
<event>
 6    1  0.2408691E-003  0.5110750E+03  0.7546771E-02  0.9375364E-01
        -11   -1    0    0    0    0  0.00000000000E+00  0.00000000000E+00  0.50000000000E+03  0.50000000000E+03  0.00000000000E+00 0. -1.
         11   -1    0    0    0    0 -0.00000000000E+00 -0.00000000000E+00 -0.50000000000E+03  0.50000000000E+03  0.00000000000E+00 0. -1.
        -11    1    1    2    0    0  0.55540222209E+01  0.12434262729E+02  0.48119966044E+03  0.48139232572E+03  0.00000000000E+00 0. -1.
         11    1    1    2    0    0  0.47493187765E+00 -0.96037291868E+01 -0.48883045134E+03  0.48892501197E+03  0.00000000000E+00 0. -1.
        -15    1    1    2    0    0 -0.62541252663E+01 -0.11842454159E+02  0.13241359414E+02  0.18916900684E+02  0.17770000000E+01 0. -1.
         15    1    1    2    0    0  0.22517116781E+00  0.90119206175E+01 -0.56105685207E+01  0.10765761626E+02  0.17770000000E+01 0.  1.
</event>
<event>
 6    1  0.2408691E-003  0.4325642E+03  0.7546771E-02  0.9564794E-01
        -11   -1    0    0    0    0  0.00000000000E+00  0.00000000000E+00  0.50000000000E+03  0.50000000000E+03  0.00000000000E+00 0.  1.
         11   -1    0    0    0    0 -0.00000000000E+00 -0.00000000000E+00 -0.50000000000E+03  0.50000000000E+03  0.00000000000E+00 0. -1.
        -11    1    1    2    0    0  0.27089784450E+01  0.71651860089E+02  0.44355820426E+03  0.44931637872E+03  0.00000000000E+00 0.  1.
         11    1    1    2    0    0 -0.27203834358E+02 -0.20501280056E+02 -0.41669498530E+03  0.41808499358E+03  0.00000000000E+00 0. -1.
        -15    1    1    2    0    0  0.42246392863E+02 -0.45721244798E+02 -0.65079033938E+02  0.90075681086E+02  0.17770000000E+01 0.  1.
         15    1    1    2    0    0 -0.17751536950E+02 -0.54293352347E+01  0.38215814975E+02  0.42522946609E+02  0.17770000000E+01 0. -1.
</event>
<event>
 6    1  0.2408691E-003  0.5083527E+03  0.7546771E-02  0.9381311E-01
        -11   -1    0    0    0    0  0.00000000000E+00  0.00000000000E+00  0.50000000000E+03  0.50000000000E+03  0.00000000000E+00 0.  1.
         11   -1    0    0    0    0 -0.00000000000E+00 -0.00000000000E+00 -0.50000000000E+03  0.50000000000E+03  0.00000000000E+00 0.  1.
        -11    1    1    2    0    0  0.11195421363E+02  0.14202679894E+02  0.49131456692E+03  0.49164728947E+03  0.00000000000E+00 0.  1.
         11    1    1    2    0    0 -0.39135809749E+01 -0.89815094793E+01 -0.46909572323E+03  0.46919801916E+03  0.00000000000E+00 0.  1.
        -15    1    1    2    0    0 -0.17721359126E+02 -0.25831435198E+01 -0.48445750337E+01  0.18637243250E+02  0.17770000000E+01 0.  1.
         15    1    1    2    0    0  0.10439518738E+02 -0.26380268952E+01 -0.17374268651E+02  0.20517448125E+02  0.17770000000E+01 0. -1.
</event>
<event>
 6    1  0.2408691E-003  0.5004240E+03  0.7546771E-02  0.9398861E-01
        -11   -1    0    0    0    0  0.00000000000E+00  0.00000000000E+00  0.50000000000E+03  0.50000000000E+03  0.00000000000E+00 0.  1.
         11   -1    0    0    0    0 -0.00000000000E+00 -0.00000000000E+00 -0.50000000000E+03  0.50000000000E+03  0.00000000000E+00 0.  1.
        -11    1    1    2    0    0  0.82757896798E+01 -0.63304052187E+01  0.49946730517E+03  0.49957597185E+03  0.00000000000E+00 0.  1.
         11    1    1    2    0    0  0.53747236906E+01  0.38358257583E+00 -0.28046033204E+03  0.28051209001E+03  0.00000000000E+00 0.  1.
        -15    1    1    2    0    0 -0.44141627954E+01  0.70960215643E+01 -0.15180084388E+03  0.15204108749E+03  0.17770000000E+01 0.  1.
         15    1    1    2    0    0 -0.92363505750E+01 -0.11491989215E+01 -0.67206129244E+02  0.67870850644E+02  0.17770000000E+01 0. -1.
</event>
<event>
 6    1  0.2408691E-003  0.5027086E+03  0.7546771E-02  0.9393769E-01
        -11   -1    0    0    0    0  0.00000000000E+00  0.00000000000E+00  0.50000000000E+03  0.50000000000E+03  0.00000000000E+00 0.  1.
         11   -1    0    0    0    0 -0.00000000000E+00 -0.00000000000E+00 -0.50000000000E+03  0.50000000000E+03  0.00000000000E+00 0. -1.
        -11    1    1    2    0    0  0.24077251143E+01  0.19062713137E+02  0.29833129220E+03  0.29894940054E+03  0.00000000000E+00 0.  1.
         11    1    1    2    0    0  0.44985150927E+01  0.62113122374E+01 -0.49723227060E+03  0.49729141151E+03  0.00000000000E+00 0. -1.
        -15    1    1    2    0    0  0.42982888785E+00 -0.26107619630E+02  0.19105767199E+03  0.19284186348E+03  0.17770000000E+01 0.  1.
         15    1    1    2    0    0 -0.73360690948E+01  0.83359425531E+00  0.78433064111E+01  0.10917324471E+02  0.17770000000E+01 0. -1.
</event>
<event>
 6    1  0.2408691E-003  0.5522187E+03  0.7546771E-02  0.9289996E-01
        -11   -1    0    0    0    0  0.00000000000E+00  0.00000000000E+00  0.50000000000E+03  0.50000000000E+03  0.00000000000E+00 0.  1.
         11   -1    0    0    0    0 -0.00000000000E+00 -0.00000000000E+00 -0.50000000000E+03  0.50000000000E+03  0.00000000000E+00 0.  1.
        -11    1    1    2    0    0 -0.73996577338E+01  0.63595339499E+01  0.26856020714E+03  0.26873738754E+03  0.00000000000E+00 0.  1.
         11    1    1    2    0    0  0.11022102085E+02  0.24258991033E+01 -0.44763909805E+03  0.44778134599E+03  0.00000000000E+00 0.  1.
        -15    1    1    2    0    0 -0.12978307149E+02  0.64144745528E+01 -0.50826162003E+02  0.52877579495E+02  0.17770000000E+01 0. -1.
         15    1    1    2    0    0  0.93558627976E+01 -0.15199907606E+02  0.22990505291E+03  0.23060368697E+03  0.17770000000E+01 0.  1.
</event>
<event>
 6    1  0.2408691E-003  0.5059115E+03  0.7546771E-02  0.9386679E-01
        -11   -1    0    0    0    0  0.00000000000E+00  0.00000000000E+00  0.50000000000E+03  0.50000000000E+03  0.00000000000E+00 0.  1.
         11   -1    0    0    0    0 -0.00000000000E+00 -0.00000000000E+00 -0.50000000000E+03  0.50000000000E+03  0.00000000000E+00 0.  1.
        -11    1    1    2    0    0 -0.63473313617E+01 -0.10005586634E+02  0.49394643082E+03  0.49408853144E+03  0.00000000000E+00 0.  1.
         11    1    1    2    0    0 -0.87073364461E+01  0.75907014559E+01 -0.16726335268E+03  0.16766175953E+03  0.00000000000E+00 0.  1.
        -15    1    1    2    0    0  0.74145419856E+01 -0.96151891155E+01 -0.32325099213E+03  0.32348383102E+03  0.17770000000E+01 0.  1.
         15    1    1    2    0    0  0.76401258223E+01  0.12030074294E+02 -0.34320860101E+01  0.14765878012E+02  0.17770000000E+01 0.  1.
</event>
<event>
 6    1  0.2408691E-003  0.5018676E+03  0.7546771E-02  0.9395640E-01
        -11   -1    0    0    0    0  0.00000000000E+00  0.00000000000E+00  0.50000000000E+03  0.50000000000E+03  0.00000000000E+00 0.  1.
         11   -1    0    0    0    0 -0.00000000000E+00 -0.00000000000E+00 -0.50000000000E+03  0.50000000000E+03  0.00000000000E+00 0.  1.
        -11    1    1    2    0    0 -0.66330068423E+01  0.20425026890E+01  0.49808404660E+03  0.49813239814E+03  0.00000000000E+00 0.  1.
         11    1    1    2    0    0  0.80665702781E+01 -0.67149368149E-01 -0.44401760539E+03  0.44409087805E+03  0.00000000000E+00 0.  1.
        -15    1    1    2    0    0  0.61200182506E+01 -0.73364911526E+01 -0.17538910481E+02  0.20051180406E+02  0.17770000000E+01 0. -1.
         15    1    1    2    0    0 -0.75535816864E+01  0.53611378318E+01 -0.36527530729E+02  0.37725543407E+02  0.17770000000E+01 0.  1.
</event>
<event>
 6    1  0.2408691E-003  0.5013036E+03  0.7546771E-02  0.9396897E-01
        -11   -1    0    0    0    0  0.00000000000E+00  0.00000000000E+00  0.50000000000E+03  0.50000000000E+03  0.00000000000E+00 0.  1.
         11   -1    0    0    0    0 -0.00000000000E+00 -0.00000000000E+00 -0.50000000000E+03  0.50000000000E+03  0.00000000000E+00 0.  1.
        -11    1    1    2    0    0  0.57780863938E+01  0.37631811398E+01  0.43413405237E+03  0.43418881059E+03  0.00000000000E+00 0.  1.
         11    1    1    2    0    0  0.59692275785E+01 -0.41836704445E+01 -0.49864309565E+03  0.49869637217E+03  0.00000000000E+00 0.  1.
        -15    1    1    2    0    0 -0.66127238762E+01 -0.39636307767E+01  0.53477969910E+02  0.54060054391E+02  0.17770000000E+01 0.  1.
         15    1    1    2    0    0 -0.51345900960E+01  0.43841200815E+01  0.11031073374E+02  0.13054762852E+02  0.17770000000E+01 0. -1.
</event>
<event>
 6    1  0.2408691E-003  0.5079112E+03  0.7546771E-02  0.9382280E-01
        -11   -1    0    0    0    0  0.00000000000E+00  0.00000000000E+00  0.50000000000E+03  0.50000000000E+03  0.00000000000E+00 0. -1.
         11   -1    0    0    0    0 -0.00000000000E+00 -0.00000000000E+00 -0.50000000000E+03  0.50000000000E+03  0.00000000000E+00 0. -1.
        -11    1    1    2    0    0  0.10606892909E+02 -0.93822668536E+01  0.49188497196E+03  0.49208877121E+03  0.00000000000E+00 0. -1.
         11    1    1    2    0    0 -0.41204718339E+01  0.65011736990E+01 -0.48158099631E+03  0.48164250181E+03  0.00000000000E+00 0. -1.
        -15    1    1    2    0    0 -0.73416822023E+01  0.71068486360E+01  0.40820379803E+01  0.11145777594E+02  0.17770000000E+01 0. -1.
         15    1    1    2    0    0  0.85526112727E+00 -0.42257554814E+01 -0.14386013633E+02  0.15122949389E+02  0.17770000000E+01 0.  1.
</event>
<event>
 6    1  0.2408691E-003  0.5010050E+03  0.7546771E-02  0.9397564E-01
        -11   -1    0    0    0    0  0.00000000000E+00  0.00000000000E+00  0.50000000000E+03  0.50000000000E+03  0.00000000000E+00 0. -1.
         11   -1    0    0    0    0 -0.00000000000E+00 -0.00000000000E+00 -0.50000000000E+03  0.50000000000E+03  0.00000000000E+00 0.  1.
        -11    1    1    2    0    0 -0.28870651555E+01 -0.99495995328E+01  0.46429991948E+03  0.46441548737E+03  0.00000000000E+00 0. -1.
         11    1    1    2    0    0  0.20934196481E+01  0.77284268542E+01 -0.49893070794E+03  0.49899495220E+03  0.00000000000E+00 0.  1.
        -15    1    1    2    0    0  0.40340670657E+01  0.47918701790E+01  0.13546324206E+02  0.15029848483E+02  0.17770000000E+01 0.  1.
         15    1    1    2    0    0 -0.32404215583E+01 -0.25706975004E+01  0.21084464254E+02  0.21559711951E+02  0.17770000000E+01 0. -1.
</event>
<event>
 6    1  0.2408691E-003  0.5023422E+03  0.7546771E-02  0.9394584E-01
        -11   -1    0    0    0    0  0.00000000000E+00  0.00000000000E+00  0.50000000000E+03  0.50000000000E+03  0.00000000000E+00 0. -1.
         11   -1    0    0    0    0 -0.00000000000E+00 -0.00000000000E+00 -0.50000000000E+03  0.50000000000E+03  0.00000000000E+00 0. -1.
        -11    1    1    2    0    0  0.13478595853E+02  0.14435541286E+02  0.21062425019E+03  0.21154817930E+03  0.00000000000E+00 0. -1.
         11    1    1    2    0    0  0.18243548348E+02 -0.22293302116E+02 -0.49682337672E+03  0.49765780013E+03  0.00000000000E+00 0. -1.
        -15    1    1    2    0    0 -0.14708974784E+02 -0.57210154549E+01  0.22926811658E+03  0.22981756017E+03  0.17770000000E+01 0. -1.
         15    1    1    2    0    0 -0.17013169417E+02  0.13578776285E+02  0.56931009951E+02  0.60976460393E+02  0.17770000000E+01 0.  1.
</event>
<event>
 6    1  0.2408691E-003  0.5009304E+03  0.7546771E-02  0.9397730E-01
        -11   -1    0    0    0    0  0.00000000000E+00  0.00000000000E+00  0.50000000000E+03  0.50000000000E+03  0.00000000000E+00 0. -1.
         11   -1    0    0    0    0 -0.00000000000E+00 -0.00000000000E+00 -0.50000000000E+03  0.50000000000E+03  0.00000000000E+00 0.  1.
        -11    1    1    2    0    0  0.26604965177E+01  0.72996444770E+01  0.49900911532E+03  0.49906959457E+03  0.00000000000E+00 0. -1.
         11    1    1    2    0    0  0.49289927106E+01  0.26965926331E+01 -0.41065200049E+03  0.41069043340E+03  0.00000000000E+00 0.  1.
        -15    1    1    2    0    0 -0.46781278720E+01 -0.67556540631E+01 -0.19662918111E+02  0.21384850241E+02  0.17770000000E+01 0.  1.
         15    1    1    2    0    0 -0.29113613563E+01 -0.32405830470E+01 -0.68694196728E+02  0.68855121788E+02  0.17770000000E+01 0. -1.
</event>
<event>
 6    1  0.2408691E-003  0.5098518E+03  0.7546771E-02  0.9378031E-01
        -11   -1    0    0    0    0  0.00000000000E+00  0.00000000000E+00  0.50000000000E+03  0.50000000000E+03  0.00000000000E+00 0.  1.
         11   -1    0    0    0    0 -0.00000000000E+00 -0.00000000000E+00 -0.50000000000E+03  0.50000000000E+03  0.00000000000E+00 0. -1.
        -11    1    1    2    0    0  0.68557849190E+01 -0.92686140662E+01  0.35327843438E+03  0.35346649231E+03  0.00000000000E+00 0.  1.
         11    1    1    2    0    0  0.23341115728E+02 -0.15658313022E+02 -0.48934168031E+03  0.49014821282E+03  0.00000000000E+00 0. -1.
        -15    1    1    2    0    0 -0.13506911177E+02  0.23441109841E+02  0.13685692051E+03  0.13951665385E+03  0.17770000000E+01 0.  1.
         15    1    1    2    0    0 -0.16689989470E+02  0.14858172466E+01 -0.79367458008E+00  0.16868641017E+02  0.17770000000E+01 0. -1.
</event>
<event>
 6    1  0.2408691E-003  0.5023945E+03  0.7546771E-02  0.9394468E-01
        -11   -1    0    0    0    0  0.00000000000E+00  0.00000000000E+00  0.50000000000E+03  0.50000000000E+03  0.00000000000E+00 0. -1.
         11   -1    0    0    0    0 -0.00000000000E+00 -0.00000000000E+00 -0.50000000000E+03  0.50000000000E+03  0.00000000000E+00 0. -1.
        -11    1    1    2    0    0  0.13579207837E+02 -0.12712100458E+02  0.49725770520E+03  0.49760548406E+03  0.00000000000E+00 0. -1.
         11    1    1    2    0    0 -0.18802771996E+01  0.70699258334E+01 -0.45362022299E+03  0.45367921046E+03  0.00000000000E+00 0. -1.
        -15    1    1    2    0    0 -0.55493558080E+01 -0.60030313877E+01 -0.17056464648E+02  0.18997695940E+02  0.17770000000E+01 0.  1.
         15    1    1    2    0    0 -0.61495748294E+01  0.11645206012E+02 -0.26581017561E+02  0.29717609547E+02  0.17770000000E+01 0. -1.
</event>
<event>
 6    1  0.2408691E-003  0.5030326E+03  0.7546771E-02  0.9393050E-01
        -11   -1    0    0    0    0  0.00000000000E+00  0.00000000000E+00  0.50000000000E+03  0.50000000000E+03  0.00000000000E+00 0.  1.
         11   -1    0    0    0    0 -0.00000000000E+00 -0.00000000000E+00 -0.50000000000E+03  0.50000000000E+03  0.00000000000E+00 0. -1.
        -11    1    1    2    0    0  0.70017117946E+01 -0.18635338420E+02  0.25777196391E+03  0.25853952344E+03  0.00000000000E+00 0.  1.
         11    1    1    2    0    0  0.12175112761E+02 -0.13940342434E+02 -0.49662266113E+03  0.49696743764E+03  0.00000000000E+00 0. -1.
        -15    1    1    2    0    0 -0.24791580930E+02  0.21514808866E+02  0.21549554560E+03  0.21798852582E+03  0.17770000000E+01 0.  1.
         15    1    1    2    0    0  0.56147563742E+01  0.11060871989E+02  0.23355151627E+02  0.26504513103E+02  0.17770000000E+01 0. -1.
</event>
<event>
 6    1  0.2408691E-003  0.4651209E+03  0.7546771E-02  0.9481425E-01
        -11   -1    0    0    0    0  0.00000000000E+00  0.00000000000E+00  0.50000000000E+03  0.50000000000E+03  0.00000000000E+00 0.  1.
         11   -1    0    0    0    0 -0.00000000000E+00 -0.00000000000E+00 -0.50000000000E+03  0.50000000000E+03  0.00000000000E+00 0. -1.
        -11    1    1    2    0    0 -0.17671919704E+02 -0.17682532587E+02  0.47243246514E+03  0.47309343985E+03  0.00000000000E+00 0.  1.
         11    1    1    2    0    0 -0.17952780891E+02  0.11200186373E+01 -0.45774010901E+03  0.45809340115E+03  0.00000000000E+00 0. -1.
        -15    1    1    2    0    0 -0.63014166941E+01 -0.11747335148E+02  0.52078685676E+01  0.14421766863E+02  0.17770000000E+01 0. -1.
         15    1    1    2    0    0  0.41926117289E+02  0.28309849097E+02 -0.19900224703E+02  0.54391392142E+02  0.17770000000E+01 0.  1.
</event>
<event>
 6    1  0.2408691E-003  0.4890368E+03  0.7546771E-02  0.9424680E-01
        -11   -1    0    0    0    0  0.00000000000E+00  0.00000000000E+00  0.50000000000E+03  0.50000000000E+03  0.00000000000E+00 0.  1.
         11   -1    0    0    0    0 -0.00000000000E+00 -0.00000000000E+00 -0.50000000000E+03  0.50000000000E+03  0.00000000000E+00 0.  1.
        -11    1    1    2    0    0  0.10847269702E+02 -0.16921521015E+01  0.48973211356E+03  0.48985515174E+03  0.00000000000E+00 0.  1.
         11    1    1    2    0    0  0.22243522921E+01 -0.98290299228E+01 -0.48827078623E+03  0.48837477234E+03  0.00000000000E+00 0.  1.
        -15    1    1    2    0    0 -0.10337718626E+02  0.13040714773E+02  0.19043072839E+01  0.16843775806E+02  0.17770000000E+01 0.  1.
         15    1    1    2    0    0 -0.27339033679E+01 -0.15195327485E+01 -0.33656346097E+01  0.49263001050E+01  0.17770000000E+01 0. -1.
</event>
<event>
 6    1  0.2408691E-003  0.5052106E+03  0.7546771E-02  0.9388225E-01
        -11   -1    0    0    0    0  0.00000000000E+00  0.00000000000E+00  0.50000000000E+03  0.50000000000E+03  0.00000000000E+00 0. -1.
         11   -1    0    0    0    0 -0.00000000000E+00 -0.00000000000E+00 -0.50000000000E+03  0.50000000000E+03  0.00000000000E+00 0.  1.
        -11    1    1    2    0    0  0.42920311575E+01 -0.79591907532E+01  0.47677199472E+03  0.47685774105E+03  0.00000000000E+00 0. -1.
         11    1    1    2    0    0  0.36081922111E+01 -0.67594357983E+01 -0.49473005430E+03  0.49478938514E+03  0.00000000000E+00 0.  1.
        -15    1    1    2    0    0 -0.53949410086E+01 -0.10801532566E+01  0.38141427390E+01  0.69265816517E+01  0.17770000000E+01 0.  1.
         15    1    1    2    0    0 -0.25052823600E+01  0.15798779808E+02  0.14143916832E+02  0.21426292154E+02  0.17770000000E+01 0. -1.
</event>
<event>
 6    1  0.2408691E-003  0.5034021E+03  0.7546771E-02  0.9392229E-01
        -11   -1    0    0    0    0  0.00000000000E+00  0.00000000000E+00  0.50000000000E+03  0.50000000000E+03  0.00000000000E+00 0. -1.
         11   -1    0    0    0    0 -0.00000000000E+00 -0.00000000000E+00 -0.50000000000E+03  0.50000000000E+03  0.00000000000E+00 0. -1.
        -11    1    1    2    0    0 -0.14983077780E+02 -0.41027093721E+01  0.49635484191E+03  0.49659787950E+03  0.00000000000E+00 0. -1.
         11    1    1    2    0    0 -0.27654450257E+01 -0.53528474063E+01 -0.39132958266E+03  0.39137596110E+03  0.00000000000E+00 0. -1.
        -15    1    1    2    0    0  0.52447527961E+01  0.17418766996E+02 -0.85580560533E+02  0.87510633330E+02  0.17770000000E+01 0. -1.
         15    1    1    2    0    0  0.12503770010E+02 -0.79632102171E+01 -0.19444698712E+02  0.24515526068E+02  0.17770000000E+01 0.  1.
</event>
<event>
 6    1  0.2408691E-003  0.5002702E+03  0.7546771E-02  0.9399205E-01
        -11   -1    0    0    0    0  0.00000000000E+00  0.00000000000E+00  0.50000000000E+03  0.50000000000E+03  0.00000000000E+00 0.  1.
         11   -1    0    0    0    0 -0.00000000000E+00 -0.00000000000E+00 -0.50000000000E+03  0.50000000000E+03  0.00000000000E+00 0.  1.
        -11    1    1    2    0    0 -0.81342749756E+01 -0.13827731803E+01  0.49966170669E+03  0.49972982663E+03  0.00000000000E+00 0.  1.
         11    1    1    2    0    0  0.53460607769E+01 -0.18652839831E+01 -0.16412882999E+03  0.16422646706E+03  0.00000000000E+00 0.  1.
        -15    1    1    2    0    0  0.74472932338E+01  0.54952577676E+01 -0.98990681062E+02  0.99438285889E+02  0.17770000000E+01 0. -1.
         15    1    1    2    0    0 -0.46590790351E+01 -0.22472006042E+01 -0.23654219563E+03  0.23660542042E+03  0.17770000000E+01 0.  1.
</event>
<event>
 6    1  0.2408691E-003  0.5005790E+03  0.7546771E-02  0.9398515E-01
        -11   -1    0    0    0    0  0.00000000000E+00  0.00000000000E+00  0.50000000000E+03  0.50000000000E+03  0.00000000000E+00 0.  1.
         11   -1    0    0    0    0 -0.00000000000E+00 -0.00000000000E+00 -0.50000000000E+03  0.50000000000E+03  0.00000000000E+00 0.  1.
        -11    1    1    2    0    0 -0.11593378021E+01 -0.81829813664E+01  0.14868758013E+03  0.14891709684E+03  0.00000000000E+00 0.  1.
         11    1    1    2    0    0  0.68864769941E+01 -0.13878196913E+01 -0.49937157057E+03  0.49942097984E+03  0.00000000000E+00 0.  1.
        -15    1    1    2    0    0 -0.10357427558E+01  0.16939387642E+02  0.25146857485E+03  0.25204685573E+03  0.17770000000E+01 0.  1.
         15    1    1    2    0    0 -0.46913964362E+01 -0.73685865839E+01  0.99215415595E+02  0.99615067582E+02  0.17770000000E+01 0. -1.
</event>
<event>
 6    1  0.2408691E-003  0.4869754E+03  0.7546771E-02  0.9429434E-01
        -11   -1    0    0    0    0  0.00000000000E+00  0.00000000000E+00  0.50000000000E+03  0.50000000000E+03  0.00000000000E+00 0.  1.
         11   -1    0    0    0    0 -0.00000000000E+00 -0.00000000000E+00 -0.50000000000E+03  0.50000000000E+03  0.00000000000E+00 0.  1.
        -11    1    1    2    0    0 -0.95128751910E+01 -0.12915395561E+02  0.48416420730E+03  0.48442985237E+03  0.00000000000E+00 0.  1.
         11    1    1    2    0    0 -0.70262389587E+01  0.30626828155E+01 -0.48966683570E+03  0.48972681981E+03  0.00000000000E+00 0.  1.
        -15    1    1    2    0    0  0.13507655903E+02  0.97399835506E+01 -0.26583757091E+01  0.16957262101E+02  0.17770000000E+01 0. -1.
         15    1    1    2    0    0  0.30314582472E+01  0.11272919530E+00  0.81610041031E+01  0.88860657181E+01  0.17770000000E+01 0.  1.
</event>
<event>
 6    1  0.2408691E-003  0.5171931E+03  0.7546771E-02  0.9362140E-01
        -11   -1    0    0    0    0  0.00000000000E+00  0.00000000000E+00  0.50000000000E+03  0.50000000000E+03  0.00000000000E+00 0. -1.
         11   -1    0    0    0    0 -0.00000000000E+00 -0.00000000000E+00 -0.50000000000E+03  0.50000000000E+03  0.00000000000E+00 0. -1.
        -11    1    1    2    0    0  0.14138142286E+01 -0.15533547674E+01  0.13421745583E+03  0.13423389002E+03  0.00000000000E+00 0. -1.
         11    1    1    2    0    0 -0.15009772628E+02  0.42633953817E+02 -0.48068653532E+03  0.48280688948E+03  0.00000000000E+00 0. -1.
        -15    1    1    2    0    0  0.32704984097E+02 -0.28824896868E+02  0.87827454034E+01  0.44506010943E+02  0.17770000000E+01 0.  1.
         15    1    1    2    0    0 -0.19109025698E+02 -0.12255702182E+02  0.33768633409E+03  0.33845320955E+03  0.17770000000E+01 0. -1.
</event>
<event>
 6    1  0.2408691E-003  0.5071750E+03  0.7546771E-02  0.9383897E-01
        -11   -1    0    0    0    0  0.00000000000E+00  0.00000000000E+00  0.50000000000E+03  0.50000000000E+03  0.00000000000E+00 0. -1.
         11   -1    0    0    0    0 -0.00000000000E+00 -0.00000000000E+00 -0.50000000000E+03  0.50000000000E+03  0.00000000000E+00 0. -1.
        -11    1    1    2    0    0  0.86824019792E+01 -0.18819776055E+02  0.42395597760E+03  0.42446229399E+03  0.00000000000E+00 0. -1.
         11    1    1    2    0    0  0.16706227009E+02 -0.15997807196E+02 -0.49228186720E+03  0.49282498377E+03  0.00000000000E+00 0. -1.
        -15    1    1    2    0    0 -0.59065940123E+01  0.53863458566E+01  0.35533303418E+01  0.89266152617E+01  0.17770000000E+01 0.  1.
         15    1    1    2    0    0 -0.19482034976E+02  0.29431237395E+02  0.64772559257E+02  0.73786106979E+02  0.17770000000E+01 0. -1.
</event>
<event>
 6    1  0.2408691E-003  0.5107881E+03  0.7546771E-02  0.9375989E-01
        -11   -1    0    0    0    0  0.00000000000E+00  0.00000000000E+00  0.50000000000E+03  0.50000000000E+03  0.00000000000E+00 0. -1.
         11   -1    0    0    0    0 -0.00000000000E+00 -0.00000000000E+00 -0.50000000000E+03  0.50000000000E+03  0.00000000000E+00 0. -1.
        -11    1    1    2    0    0 -0.60652217163E+01 -0.31697552304E+01  0.47102050957E+03  0.47107022269E+03  0.00000000000E+00 0. -1.
         11    1    1    2    0    0  0.28207923263E+01  0.14438622496E+02 -0.48899060164E+03  0.48921185511E+03  0.00000000000E+00 0. -1.
        -15    1    1    2    0    0 -0.60455004541E+01 -0.18867946737E+02  0.24868282406E+01  0.20047182682E+02  0.17770000000E+01 0.  1.
         15    1    1    2    0    0  0.92899298442E+01  0.75990794710E+01  0.15483263829E+02  0.19670739517E+02  0.17770000000E+01 0. -1.
</event>
<event>
 6    1  0.2408691E-003  0.5036905E+03  0.7546771E-02  0.9391590E-01
        -11   -1    0    0    0    0  0.00000000000E+00  0.00000000000E+00  0.50000000000E+03  0.50000000000E+03  0.00000000000E+00 0. -1.
         11   -1    0    0    0    0 -0.00000000000E+00 -0.00000000000E+00 -0.50000000000E+03  0.50000000000E+03  0.00000000000E+00 0.  1.
        -11    1    1    2    0    0 -0.52444284791E+01 -0.44866594206E+01  0.49626148425E+03  0.49630947492E+03  0.00000000000E+00 0. -1.
         11    1    1    2    0    0  0.56439753310E+01 -0.51167591249E+01 -0.30783800262E+03  0.30793225154E+03  0.00000000000E+00 0.  1.
        -15    1    1    2    0    0 -0.69575381256E+01  0.16286520306E+01 -0.18438213109E+03  0.18452909754E+03  0.17770000000E+01 0.  1.
         15    1    1    2    0    0  0.65579912737E+01  0.79747665149E+01 -0.40413505360E+01  0.11229176001E+02  0.17770000000E+01 0. -1.
</event>
<event>
 6    1  0.2408691E-003  0.5063604E+03  0.7546771E-02  0.9385689E-01
        -11   -1    0    0    0    0  0.00000000000E+00  0.00000000000E+00  0.50000000000E+03  0.50000000000E+03  0.00000000000E+00 0.  1.
         11   -1    0    0    0    0 -0.00000000000E+00 -0.00000000000E+00 -0.50000000000E+03  0.50000000000E+03  0.00000000000E+00 0.  1.
        -11    1    1    2    0    0  0.75246238133E+01  0.13158509765E+02  0.43410857064E+03  0.43437313159E+03  0.00000000000E+00 0.  1.
         11    1    1    2    0    0 -0.49740582998E+01  0.15674984106E+02 -0.49336554892E+03  0.49363955599E+03  0.00000000000E+00 0.  1.
        -15    1    1    2    0    0 -0.59199153298E+01 -0.83423083667E+01  0.13823921115E+01  0.10474170294E+02  0.17770000000E+01 0.  1.
         15    1    1    2    0    0  0.33693498162E+01 -0.20491185505E+02  0.57874586167E+02  0.61513142129E+02  0.17770000000E+01 0. -1.
</event>
<event>
 6    1  0.2408691E-003  0.5027275E+03  0.7546771E-02  0.9393727E-01
        -11   -1    0    0    0    0  0.00000000000E+00  0.00000000000E+00  0.50000000000E+03  0.50000000000E+03  0.00000000000E+00 0. -1.
         11   -1    0    0    0    0 -0.00000000000E+00 -0.00000000000E+00 -0.50000000000E+03  0.50000000000E+03  0.00000000000E+00 0. -1.
        -11    1    1    2    0    0  0.21413055935E+01  0.66306311252E+01  0.49722370701E+03  0.49727252615E+03  0.00000000000E+00 0. -1.
         11    1    1    2    0    0 -0.21123689503E+01 -0.64753541261E+01 -0.41564162974E+03  0.41569743406E+03  0.00000000000E+00 0. -1.
        -15    1    1    2    0    0  0.55963335334E+00  0.76796298997E+01 -0.77677063837E+02  0.78077998695E+02  0.17770000000E+01 0.  1.
         15    1    1    2    0    0 -0.58856999659E+00 -0.78349068988E+01 -0.39050134266E+01  0.89520410865E+01  0.17770000000E+01 0. -1.
</event>
<event>
 6    1  0.2408691E-003  0.5006486E+03  0.7546771E-02  0.9398360E-01
        -11   -1    0    0    0    0  0.00000000000E+00  0.00000000000E+00  0.50000000000E+03  0.50000000000E+03  0.00000000000E+00 0. -1.
         11   -1    0    0    0    0 -0.00000000000E+00 -0.00000000000E+00 -0.50000000000E+03  0.50000000000E+03  0.00000000000E+00 0. -1.
        -11    1    1    2    0    0  0.27594399826E+01 -0.63446357663E+01  0.39722124215E+03  0.39728149230E+03  0.00000000000E+00 0. -1.
         11    1    1    2    0    0 -0.72787406264E+01 -0.57213889116E+00 -0.49929807015E+03  0.49935144965E+03  0.00000000000E+00 0. -1.
        -15    1    1    2    0    0 -0.32337057537E+01  0.17298363418E+01  0.63797026016E+02  0.63927047829E+02  0.17770000000E+01 0. -1.
         15    1    1    2    0    0  0.77530063975E+01  0.51869383157E+01  0.38279801987E+02  0.39440010224E+02  0.17770000000E+01 0.  1.
</event>
<event>
 6    1  0.2408691E-003  0.4802753E+03  0.7546771E-02  0.9445060E-01
        -11   -1    0    0    0    0  0.00000000000E+00  0.00000000000E+00  0.50000000000E+03  0.50000000000E+03  0.00000000000E+00 0. -1.
         11   -1    0    0    0    0 -0.00000000000E+00 -0.00000000000E+00 -0.50000000000E+03  0.50000000000E+03  0.00000000000E+00 0. -1.
        -11    1    1    2    0    0 -0.41278911265E+01 -0.58644018554E+01  0.48139605650E+03  0.48144947181E+03  0.00000000000E+00 0. -1.
         11    1    1    2    0    0  0.50542536046E+01  0.10009535281E+02 -0.47898234861E+03  0.47911358419E+03  0.00000000000E+00 0. -1.
        -15    1    1    2    0    0 -0.52771300084E+01  0.24275876971E+01  0.17190873482E+02  0.18232529809E+02  0.17770000000E+01 0. -1.
         15    1    1    2    0    0  0.43507675302E+01 -0.65727211225E+01 -0.19604581371E+02  0.21204414182E+02  0.17770000000E+01 0.  1.
</event>
<event>
 6    1  0.2408691E-003  0.5009076E+03  0.7546771E-02  0.9397781E-01
        -11   -1    0    0    0    0  0.00000000000E+00  0.00000000000E+00  0.50000000000E+03  0.50000000000E+03  0.00000000000E+00 0.  1.
         11   -1    0    0    0    0 -0.00000000000E+00 -0.00000000000E+00 -0.50000000000E+03  0.50000000000E+03  0.00000000000E+00 0.  1.
        -11    1    1    2    0    0 -0.65568270020E+01  0.65276049018E+01  0.49900659749E+03  0.49909236214E+03  0.00000000000E+00 0.  1.
         11    1    1    2    0    0 -0.50245600682E+01  0.25121483405E+01 -0.29939969494E+03  0.29945239091E+03  0.00000000000E+00 0.  1.
        -15    1    1    2    0    0 -0.66940110645E+01 -0.34775245790E+01 -0.44995177897E+02  0.45657712649E+02  0.17770000000E+01 0. -1.
         15    1    1    2    0    0  0.18275398135E+02 -0.55622286633E+01 -0.15461172465E+03  0.15579753430E+03  0.17770000000E+01 0.  1.
</event>
<event>
 6    1  0.2408691E-003  0.5004096E+03  0.7546771E-02  0.9398894E-01
        -11   -1    0    0    0    0  0.00000000000E+00  0.00000000000E+00  0.50000000000E+03  0.50000000000E+03  0.00000000000E+00 0.  1.
         11   -1    0    0    0    0 -0.00000000000E+00 -0.00000000000E+00 -0.50000000000E+03  0.50000000000E+03  0.00000000000E+00 0. -1.
        -11    1    1    2    0    0 -0.49335734372E+01  0.36601891831E+01  0.28027858781E+03  0.28034590048E+03  0.00000000000E+00 0.  1.
         11    1    1    2    0    0 -0.32122994313E+01  0.70264500794E+01 -0.49953064116E+03  0.49959038354E+03  0.00000000000E+00 0. -1.
        -15    1    1    2    0    0  0.67125090260E+01 -0.87016650717E+01  0.79157518794E+02  0.79936520208E+02  0.17770000000E+01 0. -1.
         15    1    1    2    0    0  0.14333638425E+01 -0.19849741908E+01  0.14009453455E+03  0.14012719577E+03  0.17770000000E+01 0.  1.
</event>
<event>
 6    1  0.2408691E-003  0.5008974E+03  0.7546771E-02  0.9397804E-01
        -11   -1    0    0    0    0  0.00000000000E+00  0.00000000000E+00  0.50000000000E+03  0.50000000000E+03  0.00000000000E+00 0.  1.
         11   -1    0    0    0    0 -0.00000000000E+00 -0.00000000000E+00 -0.50000000000E+03  0.50000000000E+03  0.00000000000E+00 0.  1.
        -11    1    1    2    0    0  0.24053138167E+01 -0.10775306758E+02  0.16748171138E+03  0.16784521565E+03  0.00000000000E+00 0.  1.
         11    1    1    2    0    0  0.47913528045E+01 -0.48864687440E+01 -0.49905571308E+03  0.49910263413E+03  0.00000000000E+00 0.  1.
        -15    1    1    2    0    0 -0.42560785514E+01  0.78174828838E+01  0.30494381480E+03  0.30507886711E+03  0.17770000000E+01 0.  1.
         15    1    1    2    0    0 -0.29405880698E+01  0.78442926179E+01  0.26630186903E+02  0.27973283117E+02  0.17770000000E+01 0. -1.
</event>
<event>
 6    1  0.2408691E-003  0.5002353E+03  0.7546771E-02  0.9399283E-01
        -11   -1    0    0    0    0  0.00000000000E+00  0.00000000000E+00  0.50000000000E+03  0.50000000000E+03  0.00000000000E+00 0. -1.
         11   -1    0    0    0    0 -0.00000000000E+00 -0.00000000000E+00 -0.50000000000E+03  0.50000000000E+03  0.00000000000E+00 0.  1.
        -11    1    1    2    0    0 -0.38998599794E+01 -0.31269677037E+01  0.35549465671E+03  0.35552979873E+03  0.00000000000E+00 0. -1.
         11    1    1    2    0    0  0.85586535228E+01  0.25788425046E+01 -0.49968477272E+03  0.49976471771E+03  0.00000000000E+00 0.  1.
        -15    1    1    2    0    0 -0.68648354852E+01  0.28164466917E+01  0.67559276317E+02  0.67988762922E+02  0.17770000000E+01 0.  1.
         15    1    1    2    0    0  0.22060419418E+01 -0.22683214926E+01  0.76630839696E+02  0.76716720634E+02  0.17770000000E+01 0. -1.
</event>
<event>
 6    1  0.2408691E-003  0.5009377E+03  0.7546771E-02  0.9397714E-01
        -11   -1    0    0    0    0  0.00000000000E+00  0.00000000000E+00  0.50000000000E+03  0.50000000000E+03  0.00000000000E+00 0. -1.
         11   -1    0    0    0    0 -0.00000000000E+00 -0.00000000000E+00 -0.50000000000E+03  0.50000000000E+03  0.00000000000E+00 0. -1.
        -11    1    1    2    0    0 -0.10838427337E+02 -0.92807675481E+00  0.49894377813E+03  0.49906234738E+03  0.00000000000E+00 0. -1.
         11    1    1    2    0    0 -0.52238373169E+00  0.78427897657E+00 -0.37796299130E+02  0.37808044199E+02  0.00000000000E+00 0. -1.
        -15    1    1    2    0    0  0.20453518592E+02  0.84751625473E+01 -0.40534199910E+03  0.40595008162E+03  0.17770000000E+01 0.  1.
         15    1    1    2    0    0 -0.90927075235E+01 -0.83313647691E+01 -0.55805479907E+02  0.57179526806E+02  0.17770000000E+01 0. -1.
</event>
<event>
 6    1  0.2408691E-003  0.5345034E+03  0.7546771E-02  0.9325752E-01
        -11   -1    0    0    0    0  0.00000000000E+00  0.00000000000E+00  0.50000000000E+03  0.50000000000E+03  0.00000000000E+00 0. -1.
         11   -1    0    0    0    0 -0.00000000000E+00 -0.00000000000E+00 -0.50000000000E+03  0.50000000000E+03  0.00000000000E+00 0. -1.
        -11    1    1    2    0    0 -0.23511147309E+02  0.23218641767E+02  0.46432233712E+03  0.46549662955E+03  0.00000000000E+00 0. -1.
         11    1    1    2    0    0 -0.40101027960E+01  0.12195588209E+02 -0.41768568050E+03  0.41788292738E+03  0.00000000000E+00 0. -1.
        -15    1    1    2    0    0  0.73813010930E+01  0.10090747390E+01 -0.68942072771E+02  0.69366194681E+02  0.17770000000E+01 0.  1.
         15    1    1    2    0    0  0.20139949012E+02 -0.36423304716E+02  0.22305416153E+02  0.47254248395E+02  0.17770000000E+01 0. -1.
</event>
<event>
 6    1  0.2408691E-003  0.5023492E+03  0.7546771E-02  0.9394568E-01
        -11   -1    0    0    0    0  0.00000000000E+00  0.00000000000E+00  0.50000000000E+03  0.50000000000E+03  0.00000000000E+00 0.  1.
         11   -1    0    0    0    0 -0.00000000000E+00 -0.00000000000E+00 -0.50000000000E+03  0.50000000000E+03  0.00000000000E+00 0. -1.
        -11    1    1    2    0    0  0.22923526499E+01  0.89186687656E+01  0.49756558865E+03  0.49765079378E+03  0.00000000000E+00 0.  1.
         11    1    1    2    0    0  0.40975601047E+01  0.90554551477E+01 -0.43105333059E+03  0.43116790822E+03  0.00000000000E+00 0. -1.
        -15    1    1    2    0    0  0.26118967129E+01 -0.34901615290E+01 -0.34677918004E+01  0.58469257656E+01  0.17770000000E+01 0.  1.
         15    1    1    2    0    0 -0.90018094675E+01 -0.14483962384E+02 -0.63044466267E+02  0.65334372240E+02  0.17770000000E+01 0. -1.
</event>
<event>
 6    1  0.2408691E-003  0.5111133E+03  0.7546771E-02  0.9375281E-01
        -11   -1    0    0    0    0  0.00000000000E+00  0.00000000000E+00  0.50000000000E+03  0.50000000000E+03  0.00000000000E+00 0. -1.
         11   -1    0    0    0    0 -0.00000000000E+00 -0.00000000000E+00 -0.50000000000E+03  0.50000000000E+03  0.00000000000E+00 0.  1.
        -11    1    1    2    0    0  0.62959881650E+01  0.19724993870E+01  0.47503538063E+03  0.47508119629E+03  0.00000000000E+00 0. -1.
         11    1    1    2    0    0 -0.51328251182E+01  0.50264196622E+01 -0.48883392728E+03  0.48888671412E+03  0.00000000000E+00 0.  1.
        -15    1    1    2    0    0  0.37693211314E+01 -0.44719843014E+01 -0.98968777058E+01  0.11632383363E+02  0.17770000000E+01 0. -1.
         15    1    1    2    0    0 -0.49324841782E+01 -0.25269347478E+01  0.23695424352E+02  0.24399706220E+02  0.17770000000E+01 0. -1.
</event>
<event>
 6    1  0.2408691E-003  0.5014774E+03  0.7546771E-02  0.9396510E-01
        -11   -1    0    0    0    0  0.00000000000E+00  0.00000000000E+00  0.50000000000E+03  0.50000000000E+03  0.00000000000E+00 0. -1.
         11   -1    0    0    0    0 -0.00000000000E+00 -0.00000000000E+00 -0.50000000000E+03  0.50000000000E+03  0.00000000000E+00 0. -1.
        -11    1    1    2    0    0 -0.63889299575E+01  0.11491266257E+02  0.49834921809E+03  0.49852262817E+03  0.00000000000E+00 0. -1.
         11    1    1    2    0    0 -0.23404352263E+01  0.82824127145E+01 -0.15706035963E+03  0.15729600301E+03  0.00000000000E+00 0. -1.
        -15    1    1    2    0    0  0.12891303974E+01 -0.19997583724E+02 -0.32958004203E+03  0.33019346912E+03  0.17770000000E+01 0. -1.
         15    1    1    2    0    0  0.74402347864E+01  0.22390475177E+00 -0.11708816426E+02  0.13987899704E+02  0.17770000000E+01 0.  1.
</event>
<event>
 6    1  0.2408691E-003  0.5033370E+03  0.7546771E-02  0.9392374E-01
        -11   -1    0    0    0    0  0.00000000000E+00  0.00000000000E+00  0.50000000000E+03  0.50000000000E+03  0.00000000000E+00 0. -1.
         11   -1    0    0    0    0 -0.00000000000E+00 -0.00000000000E+00 -0.50000000000E+03  0.50000000000E+03  0.00000000000E+00 0.  1.
        -11    1    1    2    0    0  0.23900975126E+02 -0.60308855874E+01  0.49605091325E+03  0.49666300117E+03  0.00000000000E+00 0. -1.
         11    1    1    2    0    0  0.51010367807E+01 -0.44005079125E+01 -0.22556294263E+03  0.22566352415E+03  0.00000000000E+00 0.  1.
        -15    1    1    2    0    0 -0.36111233574E+02  0.96701940162E+01 -0.96108306860E+02  0.10313824809E+03  0.17770000000E+01 0. -1.
         15    1    1    2    0    0  0.71092216677E+01  0.76119948364E+00 -0.17437966376E+03  0.17453522659E+03  0.17770000000E+01 0.  1.
</event>
<event>
 6    1  0.2408691E-003  0.5018624E+03  0.7546771E-02  0.9395652E-01
        -11   -1    0    0    0    0  0.00000000000E+00  0.00000000000E+00  0.50000000000E+03  0.50000000000E+03  0.00000000000E+00 0. -1.
         11   -1    0    0    0    0 -0.00000000000E+00 -0.00000000000E+00 -0.50000000000E+03  0.50000000000E+03  0.00000000000E+00 0.  1.
        -11    1    1    2    0    0  0.88761689270E+01 -0.12631866443E+02  0.49789826778E+03  0.49813756683E+03  0.00000000000E+00 0. -1.
         11    1    1    2    0    0  0.86623827054E+01  0.11780893448E+02 -0.32775222904E+03  0.32807826805E+03  0.00000000000E+00 0.  1.
        -15    1    1    2    0    0 -0.20283867884E+02  0.94729138631E+01 -0.14943523728E+03  0.15111326634E+03  0.17770000000E+01 0.  1.
         15    1    1    2    0    0  0.27453162519E+01 -0.86219408684E+01 -0.20710801460E+02  0.22670898786E+02  0.17770000000E+01 0. -1.
</event>
<event>
 6    1  0.2408691E-003  0.5052451E+03  0.7546771E-02  0.9388149E-01
        -11   -1    0    0    0    0  0.00000000000E+00  0.00000000000E+00  0.50000000000E+03  0.50000000000E+03  0.00000000000E+00 0. -1.
         11   -1    0    0    0    0 -0.00000000000E+00 -0.00000000000E+00 -0.50000000000E+03  0.50000000000E+03  0.00000000000E+00 0. -1.
        -11    1    1    2    0    0  0.71917113908E+01 -0.89947339475E+01  0.46550991364E+03  0.46565234419E+03  0.00000000000E+00 0. -1.
         11    1    1    2    0    0 -0.35017323300E+01  0.65144171936E+01 -0.49469962749E+03  0.49475491023E+03  0.00000000000E+00 0. -1.
        -15    1    1    2    0    0 -0.66039767963E+01  0.65587100903E+01 -0.44363249796E+00  0.94859752460E+01  0.17770000000E+01 0.  1.
         15    1    1    2    0    0  0.29139977355E+01 -0.40783933365E+01  0.29633346347E+02  0.30106770330E+02  0.17770000000E+01 0. -1.
</event>
<event>
 6    1  0.2408691E-003  0.5101545E+03  0.7546771E-02  0.9377371E-01
        -11   -1    0    0    0    0  0.00000000000E+00  0.00000000000E+00  0.50000000000E+03  0.50000000000E+03  0.00000000000E+00 0.  1.
         11   -1    0    0    0    0 -0.00000000000E+00 -0.00000000000E+00 -0.50000000000E+03  0.50000000000E+03  0.00000000000E+00 0. -1.
        -11    1    1    2    0    0  0.28097020445E+01 -0.77972941857E+01  0.48977538251E+03  0.48984550374E+03  0.00000000000E+00 0.  1.
         11    1    1    2    0    0  0.13719264908E+01 -0.78664527081E+01 -0.43456656536E+03  0.43463992337E+03  0.00000000000E+00 0. -1.
        -15    1    1    2    0    0  0.48409871207E+01  0.35125405076E+01  0.81979776851E+01  0.10302313539E+02  0.17770000000E+01 0.  1.
         15    1    1    2    0    0 -0.90226156560E+01  0.12151206386E+02 -0.63406794834E+02  0.65212259354E+02  0.17770000000E+01 0. -1.
</event>
<event>
 6    1  0.2408691E-003  0.5100140E+03  0.7546771E-02  0.9377677E-01
        -11   -1    0    0    0    0  0.00000000000E+00  0.00000000000E+00  0.50000000000E+03  0.50000000000E+03  0.00000000000E+00 0.  1.
         11   -1    0    0    0    0 -0.00000000000E+00 -0.00000000000E+00 -0.50000000000E+03  0.50000000000E+03  0.00000000000E+00 0.  1.
        -11    1    1    2    0    0  0.78769343959E+01  0.34947202458E+01  0.48991024638E+03  0.48998602906E+03  0.00000000000E+00 0.  1.
         11    1    1    2    0    0  0.11987956420E+02 -0.60323809417E+01 -0.15770676076E+03  0.15827672953E+03  0.00000000000E+00 0.  1.
        -15    1    1    2    0    0 -0.18303908884E+02 -0.19690742822E+02 -0.99684773339E+01  0.28727803653E+02  0.17770000000E+01 0. -1.
         15    1    1    2    0    0 -0.15609819321E+01  0.22228403518E+02 -0.32223500829E+03  0.32300943776E+03  0.17770000000E+01 0.  1.
</event>
<event>
 6    1  0.2408691E-003  0.5008384E+03  0.7546771E-02  0.9397936E-01
        -11   -1    0    0    0    0  0.00000000000E+00  0.00000000000E+00  0.50000000000E+03  0.50000000000E+03  0.00000000000E+00 0. -1.
         11   -1    0    0    0    0 -0.00000000000E+00 -0.00000000000E+00 -0.50000000000E+03  0.50000000000E+03  0.00000000000E+00 0. -1.
        -11    1    1    2    0    0  0.28947727116E+01  0.90262190564E+01  0.49907162483E+03  0.49916163619E+03  0.00000000000E+00 0. -1.
         11    1    1    2    0    0 -0.25424607118E+01  0.71153860030E+01 -0.54822295767E+02  0.55340554186E+02  0.00000000000E+00 0. -1.
        -15    1    1    2    0    0  0.86487146420E+01 -0.13829288692E+02 -0.39541851009E+03  0.39575877165E+03  0.17770000000E+01 0. -1.
         15    1    1    2    0    0 -0.90010266418E+01 -0.23123163673E+01 -0.48830818971E+02  0.49739037968E+02  0.17770000000E+01 0.  1.
</event>
<event>
 6    1  0.2408691E-003  0.4814886E+03  0.7546771E-02  0.9442210E-01
        -11   -1    0    0    0    0  0.00000000000E+00  0.00000000000E+00  0.50000000000E+03  0.50000000000E+03  0.00000000000E+00 0. -1.
         11   -1    0    0    0    0 -0.00000000000E+00 -0.00000000000E+00 -0.50000000000E+03  0.50000000000E+03  0.00000000000E+00 0. -1.
        -11    1    1    2    0    0 -0.72330521371E+00 -0.70535852766E+01  0.48145407863E+03  0.48150628870E+03  0.00000000000E+00 0. -1.
         11    1    1    2    0    0 -0.70913818131E+01  0.17135669723E+01 -0.48146212168E+03  0.48151739181E+03  0.00000000000E+00 0. -1.
        -15    1    1    2    0    0  0.51957699977E+01 -0.43589718848E+01 -0.16297771245E+02  0.17741807639E+02  0.17770000000E+01 0.  1.
         15    1    1    2    0    0  0.26189170291E+01  0.96989901892E+01  0.16305814295E+02  0.19234511845E+02  0.17770000000E+01 0.  1.
</event>
<event>
 6    1  0.2408691E-003  0.5048111E+03  0.7546771E-02  0.9389108E-01
        -11   -1    0    0    0    0  0.00000000000E+00  0.00000000000E+00  0.50000000000E+03  0.50000000000E+03  0.00000000000E+00 0. -1.
         11   -1    0    0    0    0 -0.00000000000E+00 -0.00000000000E+00 -0.50000000000E+03  0.50000000000E+03  0.00000000000E+00 0. -1.
        -11    1    1    2    0    0  0.28030188967E+01 -0.26269122957E+01  0.53985755056E+01  0.66258735752E+01  0.00000000000E+00 0. -1.
         11    1    1    2    0    0 -0.19590145580E+01  0.21295411250E+02 -0.49079345475E+03  0.49125914495E+03  0.00000000000E+00 0. -1.
        -15    1    1    2    0    0 -0.55049040597E+02 -0.21685228478E+02  0.36840652857E+03  0.37313157737E+03  0.17770000000E+01 0. -1.
         15    1    1    2    0    0  0.54205036258E+02  0.30167295235E+01  0.11698835067E+03  0.12898340410E+03  0.17770000000E+01 0.  1.
</event>
<event>
 6    1  0.2408691E-003  0.5081613E+03  0.7546771E-02  0.9381731E-01
        -11   -1    0    0    0    0  0.00000000000E+00  0.00000000000E+00  0.50000000000E+03  0.50000000000E+03  0.00000000000E+00 0. -1.
         11   -1    0    0    0    0 -0.00000000000E+00 -0.00000000000E+00 -0.50000000000E+03  0.50000000000E+03  0.00000000000E+00 0. -1.
        -11    1    1    2    0    0 -0.57691545355E+01 -0.48954543614E+01  0.47266832494E+03  0.47272888004E+03  0.00000000000E+00 0. -1.
         11    1    1    2    0    0 -0.82808544773E+01  0.80010318039E+01 -0.49170384451E+03  0.49183865217E+03  0.00000000000E+00 0. -1.
        -15    1    1    2    0    0  0.14101575648E+02 -0.48331167013E+01 -0.11864064545E+01  0.15059174682E+02  0.17770000000E+01 0.  1.
         15    1    1    2    0    0 -0.51566635580E-01  0.17275392589E+01  0.20221926024E+02  0.20373293109E+02  0.17770000000E+01 0. -1.
</event>
<event>
 6    1  0.2408691E-003  0.5076454E+03  0.7546771E-02  0.9382863E-01
        -11   -1    0    0    0    0  0.00000000000E+00  0.00000000000E+00  0.50000000000E+03  0.50000000000E+03  0.00000000000E+00 0.  1.
         11   -1    0    0    0    0 -0.00000000000E+00 -0.00000000000E+00 -0.50000000000E+03  0.50000000000E+03  0.00000000000E+00 0.  1.
        -11    1    1    2    0    0  0.26939659016E+02  0.95214102295E+01  0.41004505915E+03  0.41103935701E+03  0.00000000000E+00 0.  1.
         11    1    1    2    0    0 -0.11184251676E+02 -0.54638865774E+01 -0.49219723999E+03  0.49235461265E+03  0.00000000000E+00 0.  1.
        -15    1    1    2    0    0  0.41764308802E+01  0.43128265379E+01 -0.42209015751E+01  0.75509460831E+01  0.17770000000E+01 0. -1.
         15    1    1    2    0    0 -0.19931838220E+02 -0.83703501900E+01  0.86373082417E+02  0.89055084258E+02  0.17770000000E+01 0.  1.
</event>
<event>
 6    1  0.2408691E-003  0.5093409E+03  0.7546771E-02  0.9379148E-01
        -11   -1    0    0    0    0  0.00000000000E+00  0.00000000000E+00  0.50000000000E+03  0.50000000000E+03  0.00000000000E+00 0. -1.
         11   -1    0    0    0    0 -0.00000000000E+00 -0.00000000000E+00 -0.50000000000E+03  0.50000000000E+03  0.00000000000E+00 0. -1.
        -11    1    1    2    0    0 -0.10859088119E+02 -0.52081438351E+01  0.49051128115E+03  0.49065910926E+03  0.00000000000E+00 0. -1.
         11    1    1    2    0    0 -0.94402750154E+01  0.19719900363E+02 -0.44178108845E+03  0.44232174192E+03  0.00000000000E+00 0. -1.
        -15    1    1    2    0    0  0.13990108938E+01  0.50723645117E+00 -0.41766789985E+02  0.41831052998E+02  0.17770000000E+01 0. -1.
         15    1    1    2    0    0  0.18900352241E+02 -0.15018992979E+02 -0.69634027188E+01  0.25188095826E+02  0.17770000000E+01 0.  1.
</event>
<event>
 6    1  0.2408691E-003  0.5057656E+03  0.7546771E-02  0.9387000E-01
        -11   -1    0    0    0    0  0.00000000000E+00  0.00000000000E+00  0.50000000000E+03  0.50000000000E+03  0.00000000000E+00 0.  1.
         11   -1    0    0    0    0 -0.00000000000E+00 -0.00000000000E+00 -0.50000000000E+03  0.50000000000E+03  0.00000000000E+00 0.  1.
        -11    1    1    2    0    0  0.71655629242E+01  0.13135376931E+01  0.49418068368E+03  0.49423437638E+03  0.00000000000E+00 0.  1.
         11    1    1    2    0    0 -0.17579329517E+01 -0.11286089117E+02 -0.47295351991E+03  0.47309142682E+03  0.00000000000E+00 0.  1.
        -15    1    1    2    0    0 -0.78067958463E+00  0.74181121273E+01 -0.24862345888E+02  0.26017913448E+02  0.17770000000E+01 0. -1.
         15    1    1    2    0    0 -0.46269503879E+01  0.25544392963E+01  0.36351821203E+01  0.66562833517E+01  0.17770000000E+01 0.  1.
</event>
<event>
 6    1  0.2408691E-003  0.5038411E+03  0.7546771E-02  0.9391256E-01
        -11   -1    0    0    0    0  0.00000000000E+00  0.00000000000E+00  0.50000000000E+03  0.50000000000E+03  0.00000000000E+00 0. -1.
         11   -1    0    0    0    0 -0.00000000000E+00 -0.00000000000E+00 -0.50000000000E+03  0.50000000000E+03  0.00000000000E+00 0.  1.
        -11    1    1    2    0    0  0.38419676155E+01 -0.38714178993E+01  0.23538981604E+03  0.23545299762E+03  0.00000000000E+00 0. -1.
         11    1    1    2    0    0  0.11829842530E+02  0.69056109480E+01 -0.49596974539E+03  0.49615886668E+03  0.00000000000E+00 0.  1.
        -15    1    1    2    0    0 -0.56816308610E+01 -0.99444246059E+01  0.25436354877E+03  0.25462746352E+03  0.17770000000E+01 0. -1.
         15    1    1    2    0    0 -0.99901792845E+01  0.69102315572E+01  0.62163805798E+01  0.13760672179E+02  0.17770000000E+01 0.  1.
</event>
<event>
 6    1  0.2408691E-003  0.5787361E+03  0.7546771E-02  0.9239048E-01
        -11   -1    0    0    0    0  0.00000000000E+00  0.00000000000E+00  0.50000000000E+03  0.50000000000E+03  0.00000000000E+00 0.  1.
         11   -1    0    0    0    0 -0.00000000000E+00 -0.00000000000E+00 -0.50000000000E+03  0.50000000000E+03  0.00000000000E+00 0.  1.
        -11    1    1    2    0    0  0.12626444174E+02 -0.19550405139E+02  0.40449929136E+03  0.40516826399E+03  0.00000000000E+00 0.  1.
         11    1    1    2    0    0 -0.42922116119E-01  0.11462405373E+02 -0.42110789514E+03  0.42126386972E+03  0.00000000000E+00 0.  1.
        -15    1    1    2    0    0 -0.65624443486E+01  0.18863797643E+02  0.93523290123E+02  0.95648690853E+02  0.17770000000E+01 0.  1.
         15    1    1    2    0    0 -0.60210777091E+01 -0.10775797877E+02 -0.76914686341E+02  0.77919175436E+02  0.17770000000E+01 0. -1.
</event>
<event>
 6    1  0.2408691E-003  0.4873687E+03  0.7546771E-02  0.9428525E-01
        -11   -1    0    0    0    0  0.00000000000E+00  0.00000000000E+00  0.50000000000E+03  0.50000000000E+03  0.00000000000E+00 0.  1.
         11   -1    0    0    0    0 -0.00000000000E+00 -0.00000000000E+00 -0.50000000000E+03  0.50000000000E+03  0.00000000000E+00 0. -1.
        -11    1    1    2    0    0  0.59238504715E+01 -0.12355522046E+02  0.49089382844E+03  0.49108502495E+03  0.00000000000E+00 0.  1.
         11    1    1    2    0    0 -0.44813565356E+01 -0.56151372504E+01 -0.48379161072E+03  0.48384494926E+03  0.00000000000E+00 0. -1.
        -15    1    1    2    0    0 -0.57356656295E+01  0.15917021570E+02 -0.87623723052E+00  0.17034522493E+02  0.17770000000E+01 0.  1.
         15    1    1    2    0    0  0.42931716936E+01  0.20536377262E+01 -0.62259804970E+01  0.80355032979E+01  0.17770000000E+01 0. -1.
</event>
<event>
 6    1  0.2408691E-003  0.5716781E+03  0.7546771E-02  0.9252322E-01
        -11   -1    0    0    0    0  0.00000000000E+00  0.00000000000E+00  0.50000000000E+03  0.50000000000E+03  0.00000000000E+00 0.  1.
         11   -1    0    0    0    0 -0.00000000000E+00 -0.00000000000E+00 -0.50000000000E+03  0.50000000000E+03  0.00000000000E+00 0. -1.
        -11    1    1    2    0    0  0.42700393657E+02  0.13704962191E+02  0.15535419518E+03  0.16169748163E+03  0.00000000000E+00 0.  1.
         11    1    1    2    0    0  0.16906660705E+02  0.39401271540E+01 -0.42797000072E+03  0.42832193651E+03  0.00000000000E+00 0. -1.
        -15    1    1    2    0    0 -0.44140031728E+02 -0.57866215405E+02  0.33014681310E+03  0.33807827084E+03  0.17770000000E+01 0.  1.
         15    1    1    2    0    0 -0.15467022635E+02  0.40221126060E+02 -0.57531007556E+02  0.71902311021E+02  0.17770000000E+01 0. -1.
</event>
<event>
 6    1  0.2408691E-003  0.4767479E+03  0.7546771E-02  0.9453396E-01
        -11   -1    0    0    0    0  0.00000000000E+00  0.00000000000E+00  0.50000000000E+03  0.50000000000E+03  0.00000000000E+00 0.  1.
         11   -1    0    0    0    0 -0.00000000000E+00 -0.00000000000E+00 -0.50000000000E+03  0.50000000000E+03  0.00000000000E+00 0.  1.
        -11    1    1    2    0    0 -0.10081162983E+02 -0.23173580789E+02  0.48525011966E+03  0.48590773128E+03  0.00000000000E+00 0.  1.
         11    1    1    2    0    0  0.20805866916E+02 -0.11603781124E+02 -0.46783510743E+03  0.46844126588E+03  0.00000000000E+00 0.  1.
        -15    1    1    2    0    0 -0.32125633700E+01  0.10695544233E+02 -0.16927933659E+02  0.20357502224E+02  0.17770000000E+01 0.  1.
         15    1    1    2    0    0 -0.75121405634E+01  0.24081817680E+02 -0.48707856139E+00  0.25293500611E+02  0.17770000000E+01 0. -1.
</event>
<event>
 6    1  0.2408691E-003  0.5174834E+03  0.7546771E-02  0.9361517E-01
        -11   -1    0    0    0    0  0.00000000000E+00  0.00000000000E+00  0.50000000000E+03  0.50000000000E+03  0.00000000000E+00 0.  1.
         11   -1    0    0    0    0 -0.00000000000E+00 -0.00000000000E+00 -0.50000000000E+03  0.50000000000E+03  0.00000000000E+00 0.  1.
        -11    1    1    2    0    0 -0.69317218093E+01 -0.71345528864E+01  0.48241404954E+03  0.48251659641E+03  0.00000000000E+00 0.  1.
         11    1    1    2    0    0  0.61712431350E+01  0.42279489863E+01 -0.41504792673E+03  0.41511533491E+03  0.00000000000E+00 0.  1.
        -15    1    1    2    0    0  0.32796651003E+02  0.37468583705E+01 -0.61383151788E+02  0.69718780233E+02  0.17770000000E+01 0. -1.
         15    1    1    2    0    0 -0.32036172329E+02 -0.84025447042E+00 -0.59829710247E+01  0.32649288451E+02  0.17770000000E+01 0.  1.
</event>
<event>
 6    1  0.2408691E-003  0.5998350E+03  0.7546771E-02  0.9200534E-01
        -11   -1    0    0    0    0  0.00000000000E+00  0.00000000000E+00  0.50000000000E+03  0.50000000000E+03  0.00000000000E+00 0. -1.
         11   -1    0    0    0    0 -0.00000000000E+00 -0.00000000000E+00 -0.50000000000E+03  0.50000000000E+03  0.00000000000E+00 0.  1.
        -11    1    1    2    0    0  0.56886762328E+01  0.41133158804E+01  0.40010346157E+03  0.40016504141E+03  0.00000000000E+00 0. -1.
         11    1    1    2    0    0 -0.18105640629E+01  0.59658277299E+01 -0.38553872192E+03  0.38558912762E+03  0.00000000000E+00 0.  1.
        -15    1    1    2    0    0 -0.18244428186E+01 -0.15667563451E+02  0.99124276028E+02  0.10038715537E+03  0.17770000000E+01 0. -1.
         15    1    1    2    0    0 -0.20536693514E+01  0.55884198409E+01 -0.11368901568E+03  0.11385867560E+03  0.17770000000E+01 0.  1.
</event>
<event>
 6    1  0.2408691E-003  0.4967928E+03  0.7546771E-02  0.9407015E-01
        -11   -1    0    0    0    0  0.00000000000E+00  0.00000000000E+00  0.50000000000E+03  0.50000000000E+03  0.00000000000E+00 0.  1.
         11   -1    0    0    0    0 -0.00000000000E+00 -0.00000000000E+00 -0.50000000000E+03  0.50000000000E+03  0.00000000000E+00 0.  1.
        -11    1    1    2    0    0 -0.19974088002E+01 -0.73013946098E+01  0.49763113873E+03  0.49768870817E+03  0.00000000000E+00 0.  1.
         11    1    1    2    0    0 -0.60797425985E+00  0.11109632967E+00 -0.10888828657E+02  0.10906354323E+02  0.00000000000E+00 0.  1.
        -15    1    1    2    0    0  0.39137099402E+00 -0.10979255433E+02 -0.45164015317E+03  0.45177724921E+03  0.17770000000E+01 0.  1.
         15    1    1    2    0    0  0.22140120660E+01  0.18169553713E+02 -0.35102156902E+02  0.39627688296E+02  0.17770000000E+01 0. -1.
</event>
<event>
 6    1  0.2408691E-003  0.5001698E+03  0.7546771E-02  0.9399430E-01
        -11   -1    0    0    0    0  0.00000000000E+00  0.00000000000E+00  0.50000000000E+03  0.50000000000E+03  0.00000000000E+00 0.  1.
         11   -1    0    0    0    0 -0.00000000000E+00 -0.00000000000E+00 -0.50000000000E+03  0.50000000000E+03  0.00000000000E+00 0.  1.
        -11    1    1    2    0    0 -0.70369646551E+01 -0.39241095341E+01  0.49976529859E+03  0.49983024237E+03  0.00000000000E+00 0.  1.
         11    1    1    2    0    0 -0.40050538073E+01 -0.65997883684E+00 -0.24770681741E+03  0.24774007230E+03  0.00000000000E+00 0.  1.
        -15    1    1    2    0    0  0.10824383414E+01 -0.74041673474E+00 -0.33915406896E+02  0.33987239424E+02  0.17770000000E+01 0.  1.
         15    1    1    2    0    0  0.99595801210E+01  0.53245051057E+01 -0.21814307428E+03  0.21844244591E+03  0.17770000000E+01 0. -1.
</event>
<event>
 6    1  0.2408691E-003  0.5005250E+03  0.7546771E-02  0.9398636E-01
        -11   -1    0    0    0    0  0.00000000000E+00  0.00000000000E+00  0.50000000000E+03  0.50000000000E+03  0.00000000000E+00 0. -1.
         11   -1    0    0    0    0 -0.00000000000E+00 -0.00000000000E+00 -0.50000000000E+03  0.50000000000E+03  0.00000000000E+00 0. -1.
        -11    1    1    2    0    0  0.77927391112E+01  0.11371753002E+01  0.49941286718E+03  0.49947495619E+03  0.00000000000E+00 0. -1.
         11    1    1    2    0    0 -0.13169194739E+01  0.76837673171E+01 -0.37554065912E+03  0.37562156649E+03  0.00000000000E+00 0. -1.
        -15    1    1    2    0    0 -0.23847916612E+00 -0.93380371144E+01 -0.74651081651E+02  0.75254219351E+02  0.17770000000E+01 0.  1.
         15    1    1    2    0    0 -0.62373404711E+01  0.51709449713E+00 -0.49221126410E+02  0.49649257969E+02  0.17770000000E+01 0. -1.
</event>
<event>
 6    1  0.2408691E-003  0.5054002E+03  0.7546771E-02  0.9387807E-01
        -11   -1    0    0    0    0  0.00000000000E+00  0.00000000000E+00  0.50000000000E+03  0.50000000000E+03  0.00000000000E+00 0. -1.
         11   -1    0    0    0    0 -0.00000000000E+00 -0.00000000000E+00 -0.50000000000E+03  0.50000000000E+03  0.00000000000E+00 0.  1.
        -11    1    1    2    0    0 -0.19525738824E+01 -0.18809714703E+02  0.36885382079E+03  0.36933827181E+03  0.00000000000E+00 0. -1.
         11    1    1    2    0    0 -0.49078026553E+01 -0.79613756769E+01 -0.49451139947E+03  0.49459983243E+03  0.00000000000E+00 0.  1.
        -15    1    1    2    0    0 -0.29190320084E+01  0.27641966313E+02  0.12245547129E+03  0.12558303718E+03  0.17770000000E+01 0. -1.
         15    1    1    2    0    0  0.97794085461E+01 -0.87087593300E+00  0.32021073958E+01  0.10478858582E+02  0.17770000000E+01 0.  1.
</event>
<event>
 6    1  0.2408691E-003  0.5029980E+03  0.7546771E-02  0.9393126E-01
        -11   -1    0    0    0    0  0.00000000000E+00  0.00000000000E+00  0.50000000000E+03  0.50000000000E+03  0.00000000000E+00 0. -1.
         11   -1    0    0    0    0 -0.00000000000E+00 -0.00000000000E+00 -0.50000000000E+03  0.50000000000E+03  0.00000000000E+00 0.  1.
        -11    1    1    2    0    0  0.38043526869E+01 -0.14370871036E+02  0.41302760847E+03  0.41329505246E+03  0.00000000000E+00 0. -1.
         11    1    1    2    0    0  0.17698934390E+02  0.45606732930E+01 -0.49666580520E+03  0.49700198599E+03  0.00000000000E+00 0.  1.
        -15    1    1    2    0    0 -0.11346469736E+02 -0.25488821988E+01  0.59757422916E+02  0.60904404591E+02  0.17770000000E+01 0.  1.
         15    1    1    2    0    0 -0.10156817341E+02  0.12359079941E+02  0.23880773819E+02  0.28798556955E+02  0.17770000000E+01 0. -1.
</event>
<event>
 6    1  0.2408691E-003  0.5053222E+03  0.7546771E-02  0.9387979E-01
        -11   -1    0    0    0    0  0.00000000000E+00  0.00000000000E+00  0.50000000000E+03  0.50000000000E+03  0.00000000000E+00 0.  1.
         11   -1    0    0    0    0 -0.00000000000E+00 -0.00000000000E+00 -0.50000000000E+03  0.50000000000E+03  0.00000000000E+00 0. -1.
        -11    1    1    2    0    0 -0.10583075480E+02  0.83542439649E+01  0.49449398674E+03  0.49467777169E+03  0.00000000000E+00 0.  1.
         11    1    1    2    0    0 -0.23507072150E+01  0.74476921281E+01 -0.42132767108E+03  0.42140004789E+03  0.00000000000E+00 0. -1.
        -15    1    1    2    0    0  0.13840248809E+02 -0.21617018135E+02 -0.26805863441E+02  0.37155887877E+02  0.17770000000E+01 0. -1.
         15    1    1    2    0    0 -0.90646611432E+00  0.58150820420E+01 -0.46360452219E+02  0.46766292551E+02  0.17770000000E+01 0.  1.
</event>
<event>
 6    1  0.2408691E-003  0.5003466E+03  0.7546771E-02  0.9399035E-01
        -11   -1    0    0    0    0  0.00000000000E+00  0.00000000000E+00  0.50000000000E+03  0.50000000000E+03  0.00000000000E+00 0. -1.
         11   -1    0    0    0    0 -0.00000000000E+00 -0.00000000000E+00 -0.50000000000E+03  0.50000000000E+03  0.00000000000E+00 0.  1.
        -11    1    1    2    0    0 -0.84469876851E+00  0.95012590255E+01  0.49956237411E+03  0.49965343296E+03  0.00000000000E+00 0. -1.
         11    1    1    2    0    0 -0.18154713529E+01 -0.22824319015E+01 -0.17688327627E+03  0.17690731713E+03  0.00000000000E+00 0.  1.
        -15    1    1    2    0    0 -0.61850294086E+01 -0.10685873204E+02 -0.17450759869E+03  0.17495285709E+03  0.17770000000E+01 0.  1.
         15    1    1    2    0    0  0.88451995300E+01  0.34670460802E+01 -0.14817149915E+03  0.14848639282E+03  0.17770000000E+01 0. -1.
</event>
<event>
 6    1  0.2408691E-003  0.5008245E+03  0.7546771E-02  0.9397967E-01
        -11   -1    0    0    0    0  0.00000000000E+00  0.00000000000E+00  0.50000000000E+03  0.50000000000E+03  0.00000000000E+00 0. -1.
         11   -1    0    0    0    0 -0.00000000000E+00 -0.00000000000E+00 -0.50000000000E+03  0.50000000000E+03  0.00000000000E+00 0. -1.
        -11    1    1    2    0    0  0.15792305026E+02  0.37827063047E+01  0.49891126026E+03  0.49917547153E+03  0.00000000000E+00 0. -1.
         11    1    1    2    0    0 -0.23430934554E+01  0.40884771090E+01 -0.21665937062E+03  0.21671061029E+03  0.00000000000E+00 0. -1.
        -15    1    1    2    0    0  0.75514375153E+01  0.34282549357E+01 -0.82957995840E+02  0.83390430765E+02  0.17770000000E+01 0.  1.
         15    1    1    2    0    0 -0.21000649086E+02 -0.11299438349E+02 -0.19929389379E+03  0.20072348742E+03  0.17770000000E+01 0. -1.
</event>
<event>
 6    1  0.2408691E-003  0.5139364E+03  0.7546771E-02  0.9369155E-01
        -11   -1    0    0    0    0  0.00000000000E+00  0.00000000000E+00  0.50000000000E+03  0.50000000000E+03  0.00000000000E+00 0. -1.
         11   -1    0    0    0    0 -0.00000000000E+00 -0.00000000000E+00 -0.50000000000E+03  0.50000000000E+03  0.00000000000E+00 0.  1.
        -11    1    1    2    0    0 -0.25118157820E+01  0.18951298416E+02  0.35822985056E+03  0.35873958070E+03  0.00000000000E+00 0. -1.
         11    1    1    2    0    0 -0.57868294277E+02 -0.67112621972E+00 -0.48260610874E+03  0.48606362349E+03  0.00000000000E+00 0.  1.
        -15    1    1    2    0    0  0.85051464351E+01  0.15889660306E+02  0.71013210800E+02  0.73286101395E+02  0.17770000000E+01 0. -1.
         15    1    1    2    0    0  0.51874963624E+02 -0.34169832503E+02  0.53363047375E+02  0.81910694408E+02  0.17770000000E+01 0.  1.
</event>
<event>
 6    1  0.2408691E-003  0.5163491E+03  0.7546771E-02  0.9363952E-01
        -11   -1    0    0    0    0  0.00000000000E+00  0.00000000000E+00  0.50000000000E+03  0.50000000000E+03  0.00000000000E+00 0. -1.
         11   -1    0    0    0    0 -0.00000000000E+00 -0.00000000000E+00 -0.50000000000E+03  0.50000000000E+03  0.00000000000E+00 0.  1.
        -11    1    1    2    0    0  0.15390239164E+02  0.11201997284E+02  0.48327611931E+03  0.48365085724E+03  0.00000000000E+00 0. -1.
         11    1    1    2    0    0 -0.10296707632E+02  0.15065846405E+02 -0.32643207875E+03  0.32694174397E+03  0.00000000000E+00 0.  1.
        -15    1    1    2    0    0 -0.17112252158E+02  0.17595176515E+01  0.98737423273E+01  0.19914155589E+02  0.17770000000E+01 0. -1.
         15    1    1    2    0    0  0.12018720626E+02 -0.28027361341E+02 -0.16671778289E+03  0.16949324320E+03  0.17770000000E+01 0.  1.
</event>
<event>
 6    1  0.2408691E-003  0.5010846E+03  0.7546771E-02  0.9397386E-01
        -11   -1    0    0    0    0  0.00000000000E+00  0.00000000000E+00  0.50000000000E+03  0.50000000000E+03  0.00000000000E+00 0.  1.
         11   -1    0    0    0    0 -0.00000000000E+00 -0.00000000000E+00 -0.50000000000E+03  0.50000000000E+03  0.00000000000E+00 0.  1.
        -11    1    1    2    0    0  0.27780769032E+01 -0.42880060560E+01  0.33080377729E+03  0.33084323142E+03  0.00000000000E+00 0.  1.
         11    1    1    2    0    0  0.68073113270E+01 -0.19545491669E+01 -0.49886509548E+03  0.49891536681E+03  0.00000000000E+00 0.  1.
        -15    1    1    2    0    0 -0.78045883935E+01  0.37352394227E+01  0.17174769039E+02  0.19313053463E+02  0.17770000000E+01 0.  1.
         15    1    1    2    0    0 -0.17807998368E+01  0.25073158001E+01  0.15088654915E+03  0.15092834831E+03  0.17770000000E+01 0.  1.
</event>
<event>
 6    1  0.2408691E-003  0.5007887E+03  0.7546771E-02  0.9398047E-01
        -11   -1    0    0    0    0  0.00000000000E+00  0.00000000000E+00  0.50000000000E+03  0.50000000000E+03  0.00000000000E+00 0.  1.
         11   -1    0    0    0    0 -0.00000000000E+00 -0.00000000000E+00 -0.50000000000E+03  0.50000000000E+03  0.00000000000E+00 0. -1.
        -11    1    1    2    0    0 -0.63769730052E+01 -0.25370766013E+01  0.49916409369E+03  0.49921127288E+03  0.00000000000E+00 0.  1.
         11    1    1    2    0    0 -0.55315373329E+01 -0.44103898333E+00 -0.38155030198E+03  0.38159065156E+03  0.00000000000E+00 0. -1.
        -15    1    1    2    0    0  0.14166606700E+02  0.49705143695E+01 -0.79535014677E+02  0.80959094901E+02  0.17770000000E+01 0.  1.
         15    1    1    2    0    0 -0.22580963623E+01 -0.19923987849E+01 -0.38078777036E+02  0.38238980657E+02  0.17770000000E+01 0. -1.
</event>
<event>
 6    1  0.2408691E-003  0.4173980E+03  0.7546771E-02  0.9606347E-01
        -11   -1    0    0    0    0  0.00000000000E+00  0.00000000000E+00  0.50000000000E+03  0.50000000000E+03  0.00000000000E+00 0.  1.
         11   -1    0    0    0    0 -0.00000000000E+00 -0.00000000000E+00 -0.50000000000E+03  0.50000000000E+03  0.00000000000E+00 0. -1.
        -11    1    1    2    0    0  0.46928055191E+01  0.20440055761E+01  0.86911277416E+02  0.87061877561E+02  0.00000000000E+00 0.  1.
         11    1    1    2    0    0 -0.29561455665E+02 -0.51799325396E+01 -0.42573850024E+03  0.42679501163E+03  0.00000000000E+00 0. -1.
        -15    1    1    2    0    0  0.31927055005E+02 -0.57395285708E+01 -0.69991245811E+02  0.77163535745E+02  0.17770000000E+01 0. -1.
         15    1    1    2    0    0 -0.70584048591E+01  0.88754555343E+01  0.40881846864E+03  0.40897957506E+03  0.17770000000E+01 0.  1.
</event>
<event>
 6    1  0.2408691E-003  0.4792338E+03  0.7546771E-02  0.9447513E-01
        -11   -1    0    0    0    0  0.00000000000E+00  0.00000000000E+00  0.50000000000E+03  0.50000000000E+03  0.00000000000E+00 0. -1.
         11   -1    0    0    0    0 -0.00000000000E+00 -0.00000000000E+00 -0.50000000000E+03  0.50000000000E+03  0.00000000000E+00 0.  1.
        -11    1    1    2    0    0  0.62566687812E+01  0.15230579181E+02  0.47783128610E+03  0.47811489668E+03  0.00000000000E+00 0. -1.
         11    1    1    2    0    0 -0.13876000341E+02  0.21743159278E+02 -0.48040729226E+03  0.48109923594E+03  0.00000000000E+00 0.  1.
        -15    1    1    2    0    0 -0.17222841647E+01 -0.20083589373E+02  0.59923567688E+01  0.21104096605E+02  0.17770000000E+01 0. -1.
         15    1    1    2    0    0  0.93416157248E+01 -0.16890149086E+02 -0.34163506082E+01  0.19681770778E+02  0.17770000000E+01 0.  1.
</event>
<event>
 6    1  0.2408691E-003  0.5031162E+03  0.7546771E-02  0.9392864E-01
        -11   -1    0    0    0    0  0.00000000000E+00  0.00000000000E+00  0.50000000000E+03  0.50000000000E+03  0.00000000000E+00 0.  1.
         11   -1    0    0    0    0 -0.00000000000E+00 -0.00000000000E+00 -0.50000000000E+03  0.50000000000E+03  0.00000000000E+00 0. -1.
        -11    1    1    2    0    0  0.10374962719E+01 -0.11748826490E+02  0.49674377736E+03  0.49688378085E+03  0.00000000000E+00 0.  1.
         11    1    1    2    0    0 -0.94250496849E+01  0.93705939486E+01 -0.39179296339E+03  0.39201832323E+03  0.00000000000E+00 0. -1.
        -15    1    1    2    0    0  0.72651548328E+01 -0.16143157639E+02 -0.52605667912E+02  0.55532855489E+02  0.17770000000E+01 0. -1.
         15    1    1    2    0    0  0.11223985802E+01  0.18521390180E+02 -0.52345146061E+02  0.55565040429E+02  0.17770000000E+01 0.  1.
</event>
<event>
 6    1  0.2408691E-003  0.5159782E+03  0.7546771E-02  0.9364750E-01
        -11   -1    0    0    0    0  0.00000000000E+00  0.00000000000E+00  0.50000000000E+03  0.50000000000E+03  0.00000000000E+00 0.  1.
         11   -1    0    0    0    0 -0.00000000000E+00 -0.00000000000E+00 -0.50000000000E+03  0.50000000000E+03  0.00000000000E+00 0. -1.
        -11    1    1    2    0    0 -0.20525219371E+02 -0.36628383871E+01  0.28829877866E+03  0.28905170263E+03  0.00000000000E+00 0.  1.
         11    1    1    2    0    0 -0.12657882830E+02  0.20453305751E+01 -0.48385193049E+03  0.48402179291E+03  0.00000000000E+00 0. -1.
        -15    1    1    2    0    0 -0.16353451264E+02 -0.25672425109E+02  0.87200914635E+01  0.31712875986E+02  0.17770000000E+01 0. -1.
         15    1    1    2    0    0  0.49536553465E+02  0.27289932921E+02  0.18683306036E+03  0.19521362847E+03  0.17770000000E+01 0.  1.
</event>
<event>
 6    1  0.2408691E-003  0.5028515E+03  0.7546771E-02  0.9393452E-01
        -11   -1    0    0    0    0  0.00000000000E+00  0.00000000000E+00  0.50000000000E+03  0.50000000000E+03  0.00000000000E+00 0. -1.
         11   -1    0    0    0    0 -0.00000000000E+00 -0.00000000000E+00 -0.50000000000E+03  0.50000000000E+03  0.00000000000E+00 0. -1.
        -11    1    1    2    0    0  0.28233437757E+01  0.23911098320E+01  0.24154136433E+03  0.24156969876E+03  0.00000000000E+00 0. -1.
         11    1    1    2    0    0 -0.79263589935E+01  0.65578849395E+01 -0.49704203514E+03  0.49714848659E+03  0.00000000000E+00 0. -1.
        -15    1    1    2    0    0  0.95964579611E+01 -0.51251083967E+01  0.77986585373E+01  0.13503167979E+02  0.17770000000E+01 0.  1.
         15    1    1    2    0    0 -0.44934427432E+01 -0.38238863748E+01  0.24770201227E+03  0.24777864667E+03  0.17770000000E+01 0. -1.
</event>
<event>
 6    1  0.2408691E-003  0.5023748E+03  0.7546771E-02  0.9394512E-01
        -11   -1    0    0    0    0  0.00000000000E+00  0.00000000000E+00  0.50000000000E+03  0.50000000000E+03  0.00000000000E+00 0.  1.
         11   -1    0    0    0    0 -0.00000000000E+00 -0.00000000000E+00 -0.50000000000E+03  0.50000000000E+03  0.00000000000E+00 0.  1.
        -11    1    1    2    0    0  0.35164523962E+01  0.16574642217E+02  0.49733670262E+03  0.49762524049E+03  0.00000000000E+00 0.  1.
         11    1    1    2    0    0  0.73737435159E+01 -0.61012169513E-01 -0.30990496145E+03  0.30999267887E+03  0.00000000000E+00 0.  1.
        -15    1    1    2    0    0  0.95943050282E+00  0.14272664720E+01  0.10377235283E+01  0.26818269133E+01  0.17770000000E+01 0. -1.
         15    1    1    2    0    0 -0.11849626415E+02 -0.17940896519E+02 -0.18846946469E+03  0.18970025373E+03  0.17770000000E+01 0. -1.
</event>
<event>
 6    1  0.2408691E-003  0.5045454E+03  0.7546771E-02  0.9389696E-01
        -11   -1    0    0    0    0  0.00000000000E+00  0.00000000000E+00  0.50000000000E+03  0.50000000000E+03  0.00000000000E+00 0.  1.
         11   -1    0    0    0    0 -0.00000000000E+00 -0.00000000000E+00 -0.50000000000E+03  0.50000000000E+03  0.00000000000E+00 0.  1.
        -11    1    1    2    0    0  0.51096094496E+01 -0.45607531973E+01  0.48213233792E+03  0.48218098246E+03  0.00000000000E+00 0.  1.
         11    1    1    2    0    0  0.66920455894E+01 -0.44816256772E+01 -0.49538913091E+03  0.49545459880E+03  0.00000000000E+00 0.  1.
        -15    1    1    2    0    0 -0.82670908513E+01  0.69553160774E+01  0.32781257660E+01  0.11429131656E+02  0.17770000000E+01 0. -1.
         15    1    1    2    0    0 -0.35345641877E+01  0.20870627971E+01  0.99786672270E+01  0.10935287090E+02  0.17770000000E+01 0.  1.
</event>
<event>
 6    1  0.2408691E-003  0.5086940E+03  0.7546771E-02  0.9380564E-01
        -11   -1    0    0    0    0  0.00000000000E+00  0.00000000000E+00  0.50000000000E+03  0.50000000000E+03  0.00000000000E+00 0.  1.
         11   -1    0    0    0    0 -0.00000000000E+00 -0.00000000000E+00 -0.50000000000E+03  0.50000000000E+03  0.00000000000E+00 0.  1.
        -11    1    1    2    0    0 -0.81863836625E+01 -0.20506657304E+01  0.35495036105E+03  0.35505067373E+03  0.00000000000E+00 0.  1.
         11    1    1    2    0    0  0.10234072493E+02 -0.92402286855E+01 -0.49111243791E+03  0.49130595838E+03  0.00000000000E+00 0.  1.
        -15    1    1    2    0    0  0.93380622619E+01  0.22774911611E+02  0.13510467178E+03  0.13734018375E+03  0.17770000000E+01 0.  1.
         15    1    1    2    0    0 -0.11385751093E+02 -0.11484017195E+02  0.10574050805E+01  0.16303184149E+02  0.17770000000E+01 0. -1.
</event>
<event>
 6    1  0.2408691E-003  0.5211160E+03  0.7546771E-02  0.9353762E-01
        -11   -1    0    0    0    0  0.00000000000E+00  0.00000000000E+00  0.50000000000E+03  0.50000000000E+03  0.00000000000E+00 0. -1.
         11   -1    0    0    0    0 -0.00000000000E+00 -0.00000000000E+00 -0.50000000000E+03  0.50000000000E+03  0.00000000000E+00 0.  1.
        -11    1    1    2    0    0  0.43716595675E+02 -0.28665253058E+02  0.17453260569E+03  0.18219349033E+03  0.00000000000E+00 0. -1.
         11    1    1    2    0    0 -0.54556020762E+01  0.91908293720E+01 -0.47876472478E+03  0.47888401167E+03  0.00000000000E+00 0.  1.
        -15    1    1    2    0    0 -0.12559918420E+02  0.18832987461E+02  0.31135811812E+03  0.31218499070E+03  0.17770000000E+01 0. -1.
         15    1    1    2    0    0 -0.25701075179E+02  0.64143622483E+00 -0.71259990321E+01  0.26737507307E+02  0.17770000000E+01 0.  1.
</event>
<event>
 6    1  0.2408691E-003  0.5089799E+03  0.7546771E-02  0.9379938E-01
        -11   -1    0    0    0    0  0.00000000000E+00  0.00000000000E+00  0.50000000000E+03  0.50000000000E+03  0.00000000000E+00 0. -1.
         11   -1    0    0    0    0 -0.00000000000E+00 -0.00000000000E+00 -0.50000000000E+03  0.50000000000E+03  0.00000000000E+00 0. -1.
        -11    1    1    2    0    0  0.11300655808E+01  0.15513561012E+02  0.46946756961E+03  0.46972518193E+03  0.00000000000E+00 0. -1.
         11    1    1    2    0    0 -0.41237648947E+01 -0.74682222367E+01 -0.49094598737E+03  0.49102010376E+03  0.00000000000E+00 0. -1.
        -15    1    1    2    0    0  0.82736232444E+01 -0.40475643628E+01  0.28159663633E+02  0.29680970398E+02  0.17770000000E+01 0.  1.
         15    1    1    2    0    0 -0.52799239305E+01 -0.39977744123E+01 -0.66812458749E+01  0.95737439074E+01  0.17770000000E+01 0. -1.
</event>
<event>
 6    1  0.2408691E-003  0.5001421E+03  0.7546771E-02  0.9399492E-01
        -11   -1    0    0    0    0  0.00000000000E+00  0.00000000000E+00  0.50000000000E+03  0.50000000000E+03  0.00000000000E+00 0.  1.
         11   -1    0    0    0    0 -0.00000000000E+00 -0.00000000000E+00 -0.50000000000E+03  0.50000000000E+03  0.00000000000E+00 0. -1.
        -11    1    1    2    0    0  0.24144972284E+01  0.16624749081E+01  0.17253501514E+03  0.17255991733E+03  0.00000000000E+00 0.  1.
         11    1    1    2    0    0  0.15432647781E+00  0.75575480461E+01 -0.49980072763E+03  0.49985788750E+03  0.00000000000E+00 0. -1.
        -15    1    1    2    0    0 -0.14702904736E+01  0.60695663982E+00  0.15836042940E+03  0.15837838703E+03  0.17770000000E+01 0.  1.
         15    1    1    2    0    0 -0.10985332326E+01 -0.98269795939E+01  0.16890528309E+03  0.16920380814E+03  0.17770000000E+01 0.  1.
</event>
<event>
 6    1  0.2408691E-003  0.5015066E+03  0.7546771E-02  0.9396445E-01
        -11   -1    0    0    0    0  0.00000000000E+00  0.00000000000E+00  0.50000000000E+03  0.50000000000E+03  0.00000000000E+00 0.  1.
         11   -1    0    0    0    0 -0.00000000000E+00 -0.00000000000E+00 -0.50000000000E+03  0.50000000000E+03  0.00000000000E+00 0. -1.
        -11    1    1    2    0    0 -0.10711015323E+02 -0.75456707030E+01  0.49832115470E+03  0.49849336627E+03  0.00000000000E+00 0.  1.
         11    1    1    2    0    0  0.48905263521E+01 -0.50059069830E+01 -0.40425183601E+03  0.40431240800E+03  0.00000000000E+00 0. -1.
        -15    1    1    2    0    0 -0.50248297281E+01 -0.24374659903E+01 -0.22822077586E+02  0.23562578564E+02  0.17770000000E+01 0.  1.
         15    1    1    2    0    0  0.10845318699E+02  0.14989043676E+02 -0.71247241111E+02  0.73631647156E+02  0.17770000000E+01 0. -1.
</event>
<event>
 6    1  0.2408691E-003  0.5093959E+03  0.7546771E-02  0.9379028E-01
        -11   -1    0    0    0    0  0.00000000000E+00  0.00000000000E+00  0.50000000000E+03  0.50000000000E+03  0.00000000000E+00 0. -1.
         11   -1    0    0    0    0 -0.00000000000E+00 -0.00000000000E+00 -0.50000000000E+03  0.50000000000E+03  0.00000000000E+00 0.  1.
        -11    1    1    2    0    0  0.72316100436E+01  0.29709608928E+01  0.37733297486E+03  0.37741395935E+03  0.00000000000E+00 0. -1.
         11    1    1    2    0    0  0.23143041751E+01 -0.81560155799E+01 -0.49053081643E+03  0.49060407505E+03  0.00000000000E+00 0.  1.
        -15    1    1    2    0    0 -0.89996244011E+01 -0.36341969114E+00  0.12148813447E+03  0.12183451834E+03  0.17770000000E+01 0. -1.
         15    1    1    2    0    0 -0.54628981764E+00  0.55484743782E+01 -0.82902929040E+01  0.10147447262E+02  0.17770000000E+01 0. -1.
</event>
<event>
 6    1  0.2408691E-003  0.5004418E+03  0.7546771E-02  0.9398822E-01
        -11   -1    0    0    0    0  0.00000000000E+00  0.00000000000E+00  0.50000000000E+03  0.50000000000E+03  0.00000000000E+00 0.  1.
         11   -1    0    0    0    0 -0.00000000000E+00 -0.00000000000E+00 -0.50000000000E+03  0.50000000000E+03  0.00000000000E+00 0.  1.
        -11    1    1    2    0    0  0.89654068726E+00 -0.10427775587E+02  0.49944853049E+03  0.49955818170E+03  0.00000000000E+00 0.  1.
         11    1    1    2    0    0  0.28466665281E-01 -0.30888217758E+01 -0.17622391476E+03  0.17625098514E+03  0.00000000000E+00 0.  1.
        -15    1    1    2    0    0 -0.40331568699E+01  0.13546560033E+02 -0.10788373415E+03  0.10882018869E+03  0.17770000000E+01 0. -1.
         15    1    1    2    0    0  0.31081495173E+01 -0.29962670847E-01 -0.21534088158E+03  0.21537064447E+03  0.17770000000E+01 0.  1.
</event>
<event>
 6    1  0.2408691E-003  0.3473282E+03  0.7546771E-02  0.9826266E-01
        -11   -1    0    0    0    0  0.00000000000E+00  0.00000000000E+00  0.50000000000E+03  0.50000000000E+03  0.00000000000E+00 0. -1.
         11   -1    0    0    0    0 -0.00000000000E+00 -0.00000000000E+00 -0.50000000000E+03  0.50000000000E+03  0.00000000000E+00 0. -1.
        -11    1    1    2    0    0  0.16448454842E+03  0.17565783165E+02  0.38674251834E+03  0.42063463825E+03  0.00000000000E+00 0. -1.
         11    1    1    2    0    0 -0.68743307239E+00 -0.16530742172E+02 -0.29809770939E+03  0.29855649774E+03  0.00000000000E+00 0. -1.
        -15    1    1    2    0    0 -0.97641424616E+02  0.75474403390E+02 -0.12273277264E+03  0.17405954319E+03  0.17770000000E+01 0. -1.
         15    1    1    2    0    0 -0.66155690734E+02 -0.76509444383E+02  0.34087963687E+02  0.10674932081E+03  0.17770000000E+01 0.  1.
</event>
<event>
 6    1  0.2408691E-003  0.4715443E+03  0.7546771E-02  0.9465834E-01
        -11   -1    0    0    0    0  0.00000000000E+00  0.00000000000E+00  0.50000000000E+03  0.50000000000E+03  0.00000000000E+00 0.  1.
         11   -1    0    0    0    0 -0.00000000000E+00 -0.00000000000E+00 -0.50000000000E+03  0.50000000000E+03  0.00000000000E+00 0. -1.
        -11    1    1    2    0    0  0.29259385523E+01 -0.31590221654E+01  0.92504730254E+01  0.10203518445E+02  0.00000000000E+00 0.  1.
         11    1    1    2    0    0  0.18149213162E+02 -0.59347849350E+01 -0.45353433715E+03  0.45393613051E+03  0.00000000000E+00 0. -1.
        -15    1    1    2    0    0 -0.18929857820E+02  0.18448863748E+02  0.48918937686E+03  0.48990621985E+03  0.17770000000E+01 0.  1.
         15    1    1    2    0    0 -0.21452938941E+01 -0.93550566476E+01 -0.44905512730E+02  0.45954131189E+02  0.17770000000E+01 0. -1.
</event>
<event>
 6    1  0.2408691E-003  0.5004280E+03  0.7546771E-02  0.9398853E-01
        -11   -1    0    0    0    0  0.00000000000E+00  0.00000000000E+00  0.50000000000E+03  0.50000000000E+03  0.00000000000E+00 0. -1.
         11   -1    0    0    0    0 -0.00000000000E+00 -0.00000000000E+00 -0.50000000000E+03  0.50000000000E+03  0.00000000000E+00 0. -1.
        -11    1    1    2    0    0  0.41364876987E+01  0.40740001146E+01  0.33361465373E+03  0.33366516928E+03  0.00000000000E+00 0. -1.
         11    1    1    2    0    0 -0.29584253590E+01 -0.64237059814E+01 -0.49952197818E+03  0.49957203981E+03  0.00000000000E+00 0. -1.
        -15    1    1    2    0    0 -0.65399092603E+01  0.56287959987E+01  0.12750603496E+03  0.12781001697E+03  0.17770000000E+01 0. -1.
         15    1    1    2    0    0  0.53618469206E+01 -0.32790901319E+01  0.38401289486E+02  0.38952773941E+02  0.17770000000E+01 0.  1.
</event>
<event>
 6    1  0.2408691E-003  0.5091125E+03  0.7546771E-02  0.9379648E-01
        -11   -1    0    0    0    0  0.00000000000E+00  0.00000000000E+00  0.50000000000E+03  0.50000000000E+03  0.00000000000E+00 0. -1.
         11   -1    0    0    0    0 -0.00000000000E+00 -0.00000000000E+00 -0.50000000000E+03  0.50000000000E+03  0.00000000000E+00 0.  1.
        -11    1    1    2    0    0  0.18085996219E+02  0.20860432149E+02  0.45782892523E+03  0.45866064325E+03  0.00000000000E+00 0. -1.
         11    1    1    2    0    0  0.10437385188E+02 -0.28361956135E+02 -0.48995634303E+03  0.49088752036E+03  0.00000000000E+00 0.  1.
        -15    1    1    2    0    0 -0.16278872623E+02 -0.65048584936E+01  0.24701330024E+02  0.30341857423E+02  0.17770000000E+01 0.  1.
         15    1    1    2    0    0 -0.12244508784E+02  0.14006382480E+02  0.74260877785E+01  0.20109978971E+02  0.17770000000E+01 0. -1.
</event>
<event>
 6    1  0.2408691E-003  0.5188653E+03  0.7546771E-02  0.9358559E-01
        -11   -1    0    0    0    0  0.00000000000E+00  0.00000000000E+00  0.50000000000E+03  0.50000000000E+03  0.00000000000E+00 0.  1.
         11   -1    0    0    0    0 -0.00000000000E+00 -0.00000000000E+00 -0.50000000000E+03  0.50000000000E+03  0.00000000000E+00 0.  1.
        -11    1    1    2    0    0  0.48296730681E+02  0.75876839182E+01  0.42956859721E+03  0.43234167837E+03  0.00000000000E+00 0.  1.
         11    1    1    2    0    0  0.86029180826E+01  0.30096012513E+01 -0.48104834497E+03  0.48113467772E+03  0.00000000000E+00 0.  1.
        -15    1    1    2    0    0  0.45423281494E+01  0.40597854614E+01  0.43862546234E+01  0.77143737031E+01  0.17770000000E+01 0. -1.
         15    1    1    2    0    0 -0.61441976913E+02 -0.14657070631E+02  0.47093493138E+02  0.78809270213E+02  0.17770000000E+01 0.  1.
</event>
<event>
 6    1  0.2408691E-003  0.5029062E+03  0.7546771E-02  0.9393330E-01
        -11   -1    0    0    0    0  0.00000000000E+00  0.00000000000E+00  0.50000000000E+03  0.50000000000E+03  0.00000000000E+00 0.  1.
         11   -1    0    0    0    0 -0.00000000000E+00 -0.00000000000E+00 -0.50000000000E+03  0.50000000000E+03  0.00000000000E+00 0.  1.
        -11    1    1    2    0    0  0.82683224383E+01  0.31430621634E+01  0.49701513874E+03  0.49709384641E+03  0.00000000000E+00 0.  1.
         11    1    1    2    0    0 -0.69151517038E+01  0.87183233972E+01 -0.32917015753E+03  0.32935819573E+03  0.00000000000E+00 0.  1.
        -15    1    1    2    0    0 -0.49072968798E+01 -0.53418573646E+01 -0.22821282897E+01  0.78091511255E+01  0.17770000000E+01 0. -1.
         15    1    1    2    0    0  0.35541261453E+01 -0.65195281960E+01 -0.16556285293E+03  0.16573880674E+03  0.17770000000E+01 0.  1.
</event>
<event>
 6    1  0.2408691E-003  0.5097216E+03  0.7546771E-02  0.9378316E-01
        -11   -1    0    0    0    0  0.00000000000E+00  0.00000000000E+00  0.50000000000E+03  0.50000000000E+03  0.00000000000E+00 0. -1.
         11   -1    0    0    0    0 -0.00000000000E+00 -0.00000000000E+00 -0.50000000000E+03  0.50000000000E+03  0.00000000000E+00 0. -1.
        -11    1    1    2    0    0 -0.27904783409E+02 -0.54509020662E+01  0.39022470331E+03  0.39125913196E+03  0.00000000000E+00 0. -1.
         11    1    1    2    0    0  0.78194999796E+01  0.29440405129E+01 -0.49020715316E+03  0.49027835457E+03  0.00000000000E+00 0. -1.
        -15    1    1    2    0    0  0.17158263157E+02  0.18077283236E+02  0.99418078817E+02  0.10251003018E+03  0.17770000000E+01 0. -1.
         15    1    1    2    0    0  0.29270202718E+01 -0.15570421683E+02  0.56437103146E+00  0.15952483277E+02  0.17770000000E+01 0.  1.
</event>
<event>
 6    1  0.2408691E-003  0.5021261E+03  0.7546771E-02  0.9395065E-01
        -11   -1    0    0    0    0  0.00000000000E+00  0.00000000000E+00  0.50000000000E+03  0.50000000000E+03  0.00000000000E+00 0.  1.
         11   -1    0    0    0    0 -0.00000000000E+00 -0.00000000000E+00 -0.50000000000E+03  0.50000000000E+03  0.00000000000E+00 0. -1.
        -11    1    1    2    0    0 -0.80696920100E+01  0.67347561837E+01  0.49776292803E+03  0.49787388904E+03  0.00000000000E+00 0.  1.
         11    1    1    2    0    0  0.61856219859E+01  0.45085748138E+01 -0.46389140231E+03  0.46395454767E+03  0.00000000000E+00 0. -1.
        -15    1    1    2    0    0 -0.39322212832E+01 -0.98424631692E+01 -0.16293518883E+02  0.19518527917E+02  0.17770000000E+01 0. -1.
         15    1    1    2    0    0  0.58162913074E+01 -0.14008678283E+01 -0.17578006833E+02  0.18653035369E+02  0.17770000000E+01 0.  1.
</event>
<event>
 6    1  0.2408691E-003  0.5014470E+03  0.7546771E-02  0.9396578E-01
        -11   -1    0    0    0    0  0.00000000000E+00  0.00000000000E+00  0.50000000000E+03  0.50000000000E+03  0.00000000000E+00 0.  1.
         11   -1    0    0    0    0 -0.00000000000E+00 -0.00000000000E+00 -0.50000000000E+03  0.50000000000E+03  0.00000000000E+00 0. -1.
        -11    1    1    2    0    0 -0.12359582565E+02 -0.77018124244E+01  0.49834030521E+03  0.49855304331E+03  0.00000000000E+00 0.  1.
         11    1    1    2    0    0 -0.68572646034E+00 -0.73649825874E+01 -0.32863207199E+03  0.32871530529E+03  0.00000000000E+00 0. -1.
        -15    1    1    2    0    0  0.11573941132E+02  0.15895721515E+02 -0.63573143118E+02  0.66568253174E+02  0.17770000000E+01 0. -1.
         15    1    1    2    0    0  0.14713678938E+01 -0.82892650267E+00 -0.10613509010E+03  0.10616339823E+03  0.17770000000E+01 0.  1.
</event>
<event>
 6    1  0.2408691E-003  0.5034281E+03  0.7546771E-02  0.9392172E-01
        -11   -1    0    0    0    0  0.00000000000E+00  0.00000000000E+00  0.50000000000E+03  0.50000000000E+03  0.00000000000E+00 0.  1.
         11   -1    0    0    0    0 -0.00000000000E+00 -0.00000000000E+00 -0.50000000000E+03  0.50000000000E+03  0.00000000000E+00 0.  1.
        -11    1    1    2    0    0  0.42615316982E+01  0.59703248933E+01  0.48871969039E+03  0.48877473462E+03  0.00000000000E+00 0.  1.
         11    1    1    2    0    0 -0.68781610161E+01  0.26560293709E+01 -0.49651718738E+03  0.49657192929E+03  0.00000000000E+00 0.  1.
        -15    1    1    2    0    0  0.28138641668E+01 -0.63925196438E+01  0.99716687451E+00  0.72755899913E+01  0.17770000000E+01 0. -1.
         15    1    1    2    0    0 -0.19723484890E+00 -0.22338346204E+01  0.68003301210E+01  0.73777460956E+01  0.17770000000E+01 0.  1.
</event>
<event>
 6    1  0.2408691E-003  0.5000896E+03  0.7546771E-02  0.9399609E-01
        -11   -1    0    0    0    0  0.00000000000E+00  0.00000000000E+00  0.50000000000E+03  0.50000000000E+03  0.00000000000E+00 0. -1.
         11   -1    0    0    0    0 -0.00000000000E+00 -0.00000000000E+00 -0.50000000000E+03  0.50000000000E+03  0.00000000000E+00 0.  1.
        -11    1    1    2    0    0  0.32773077351E+00 -0.61107080613E+01  0.27036265267E+03  0.27043189923E+03  0.00000000000E+00 0. -1.
         11    1    1    2    0    0  0.12732006174E+01  0.77548364526E+01 -0.49984858857E+03  0.49991036198E+03  0.00000000000E+00 0.  1.
        -15    1    1    2    0    0 -0.37113042929E+00 -0.44469273369E+01  0.91082301961E+02  0.91208861192E+02  0.17770000000E+01 0. -1.
         15    1    1    2    0    0 -0.12298009616E+01  0.28027989456E+01  0.13840363393E+03  0.13844887760E+03  0.17770000000E+01 0.  1.
</event>
<event>
 6    1  0.2408691E-003  0.5035911E+03  0.7546771E-02  0.9391810E-01
        -11   -1    0    0    0    0  0.00000000000E+00  0.00000000000E+00  0.50000000000E+03  0.50000000000E+03  0.00000000000E+00 0. -1.
         11   -1    0    0    0    0 -0.00000000000E+00 -0.00000000000E+00 -0.50000000000E+03  0.50000000000E+03  0.00000000000E+00 0.  1.
        -11    1    1    2    0    0 -0.63149556545E+01 -0.39284793168E+01  0.49635321552E+03  0.49640893039E+03  0.00000000000E+00 0. -1.
         11    1    1    2    0    0  0.26678855879E+01  0.50043727887E+01 -0.31453545342E+03  0.31458657445E+03  0.00000000000E+00 0.  1.
        -15    1    1    2    0    0  0.85455092710E+01  0.13087812887E+01 -0.19414220359E+01  0.90368957991E+01  0.17770000000E+01 0. -1.
         15    1    1    2    0    0 -0.48984392045E+01 -0.23846747607E+01 -0.17987634006E+03  0.17996759937E+03  0.17770000000E+01 0. -1.
</event>
<event>
 6    1  0.2408691E-003  0.5032890E+03  0.7546771E-02  0.9392480E-01
        -11   -1    0    0    0    0  0.00000000000E+00  0.00000000000E+00  0.50000000000E+03  0.50000000000E+03  0.00000000000E+00 0.  1.
         11   -1    0    0    0    0 -0.00000000000E+00 -0.00000000000E+00 -0.50000000000E+03  0.50000000000E+03  0.00000000000E+00 0. -1.
        -11    1    1    2    0    0 -0.18681543934E+01 -0.60193508563E+01  0.38370226246E+03  0.38375402122E+03  0.00000000000E+00 0.  1.
         11    1    1    2    0    0  0.87482324235E+01  0.10259572436E+01 -0.49663292561E+03  0.49671102963E+03  0.00000000000E+00 0. -1.
        -15    1    1    2    0    0 -0.35848317127E+01 -0.14915757947E+02  0.74584885256E+02  0.76166880540E+02  0.17770000000E+01 0.  1.
         15    1    1    2    0    0 -0.32952463174E+01  0.19909151560E+02  0.38345777895E+02  0.43368068616E+02  0.17770000000E+01 0. -1.
</event>
<event>
 6    1  0.2408691E-003  0.5038557E+03  0.7546771E-02  0.9391223E-01
        -11   -1    0    0    0    0  0.00000000000E+00  0.00000000000E+00  0.50000000000E+03  0.50000000000E+03  0.00000000000E+00 0. -1.
         11   -1    0    0    0    0 -0.00000000000E+00 -0.00000000000E+00 -0.50000000000E+03  0.50000000000E+03  0.00000000000E+00 0.  1.
        -11    1    1    2    0    0  0.87043962385E+01  0.25704508402E+00  0.46859605114E+03  0.46867695883E+03  0.00000000000E+00 0. -1.
         11    1    1    2    0    0 -0.81991493666E+01  0.56808373664E+01 -0.49604404785E+03  0.49614432917E+03  0.00000000000E+00 0.  1.
        -15    1    1    2    0    0 -0.59256265712E+01  0.42240544420E+01  0.19978981285E+02  0.21337129806E+02  0.17770000000E+01 0.  1.
         15    1    1    2    0    0  0.54203796993E+01 -0.10161936892E+02  0.74690154159E+01  0.13841582199E+02  0.17770000000E+01 0. -1.
</event>
<event>
 6    1  0.2408691E-003  0.5057713E+03  0.7546771E-02  0.9386988E-01
        -11   -1    0    0    0    0  0.00000000000E+00  0.00000000000E+00  0.50000000000E+03  0.50000000000E+03  0.00000000000E+00 0.  1.
         11   -1    0    0    0    0 -0.00000000000E+00 -0.00000000000E+00 -0.50000000000E+03  0.50000000000E+03  0.00000000000E+00 0.  1.
        -11    1    1    2    0    0 -0.98831054324E+00  0.19689553658E+02  0.49383535599E+03  0.49422870628E+03  0.00000000000E+00 0.  1.
         11    1    1    2    0    0  0.14789130911E+02  0.17837552584E+01 -0.39715194278E+03  0.39743120893E+03  0.00000000000E+00 0.  1.
        -15    1    1    2    0    0 -0.10538142468E+02 -0.47797438481E+01 -0.88695138912E+02  0.89464427531E+02  0.17770000000E+01 0. -1.
         15    1    1    2    0    0 -0.32626778989E+01 -0.16693565068E+02 -0.79882742969E+01  0.18875657260E+02  0.17770000000E+01 0.  1.
</event>
<event>
 6    1  0.2408691E-003  0.5013902E+03  0.7546771E-02  0.9396704E-01
        -11   -1    0    0    0    0  0.00000000000E+00  0.00000000000E+00  0.50000000000E+03  0.50000000000E+03  0.00000000000E+00 0.  1.
         11   -1    0    0    0    0 -0.00000000000E+00 -0.00000000000E+00 -0.50000000000E+03  0.50000000000E+03  0.00000000000E+00 0. -1.
        -11    1    1    2    0    0  0.37992489321E+01  0.11010276457E+02  0.49847373666E+03  0.49860979394E+03  0.00000000000E+00 0.  1.
         11    1    1    2    0    0  0.11946172459E+01  0.19937342767E+00 -0.71259948622E+02  0.71270240197E+02  0.00000000000E+00 0. -1.
        -15    1    1    2    0    0  0.60095152245E+01 -0.12352961552E+02 -0.33552810898E+02  0.36299569976E+02  0.17770000000E+01 0.  1.
         15    1    1    2    0    0 -0.11003381403E+02  0.11433116669E+01 -0.39366097714E+03  0.39382039588E+03  0.17770000000E+01 0. -1.
</event>
<event>
 6    1  0.2408691E-003  0.5020867E+03  0.7546771E-02  0.9395153E-01
        -11   -1    0    0    0    0  0.00000000000E+00  0.00000000000E+00  0.50000000000E+03  0.50000000000E+03  0.00000000000E+00 0.  1.
         11   -1    0    0    0    0 -0.00000000000E+00 -0.00000000000E+00 -0.50000000000E+03  0.50000000000E+03  0.00000000000E+00 0. -1.
        -11    1    1    2    0    0 -0.72139708948E+01 -0.20606512162E+01  0.49785680278E+03  0.49791332954E+03  0.00000000000E+00 0.  1.
         11    1    1    2    0    0 -0.46054964959E+00  0.11628590701E+02 -0.36080106595E+03  0.36098870539E+03  0.00000000000E+00 0. -1.
        -15    1    1    2    0    0  0.19027967087E+02 -0.24314532398E+01 -0.94511098147E+02  0.96454553538E+02  0.17770000000E+01 0. -1.
         15    1    1    2    0    0 -0.11353446543E+02 -0.71364862449E+01 -0.42544638678E+02  0.44643411536E+02  0.17770000000E+01 0.  1.
</event>
<event>
 6    1  0.2408691E-003  0.5006916E+03  0.7546771E-02  0.9398264E-01
        -11   -1    0    0    0    0  0.00000000000E+00  0.00000000000E+00  0.50000000000E+03  0.50000000000E+03  0.00000000000E+00 0. -1.
         11   -1    0    0    0    0 -0.00000000000E+00 -0.00000000000E+00 -0.50000000000E+03  0.50000000000E+03  0.00000000000E+00 0.  1.
        -11    1    1    2    0    0 -0.43515995503E+00  0.12329283653E+02  0.49915599525E+03  0.49930842992E+03  0.00000000000E+00 0. -1.
         11    1    1    2    0    0 -0.14835864468E+01 -0.14044484424E+01 -0.78274307585E+02  0.78300962523E+02  0.00000000000E+00 0.  1.
        -15    1    1    2    0    0 -0.42419496046E+01  0.10036036289E+02 -0.22805740362E+03  0.22832444730E+03  0.17770000000E+01 0. -1.
         15    1    1    2    0    0  0.61606960064E+01 -0.20960871499E+02 -0.19282428404E+03  0.19406616025E+03  0.17770000000E+01 0.  1.
</event>
<event>
 6    1  0.2408691E-003  0.4849353E+03  0.7546771E-02  0.9434164E-01
        -11   -1    0    0    0    0  0.00000000000E+00  0.00000000000E+00  0.50000000000E+03  0.50000000000E+03  0.00000000000E+00 0. -1.
         11   -1    0    0    0    0 -0.00000000000E+00 -0.00000000000E+00 -0.50000000000E+03  0.50000000000E+03  0.00000000000E+00 0.  1.
        -11    1    1    2    0    0 -0.61460071009E+01  0.12455216513E+02  0.48262408025E+03  0.48282388990E+03  0.00000000000E+00 0. -1.
         11    1    1    2    0    0 -0.10301926966E+02 -0.21817518024E+01 -0.48713731328E+03  0.48725111773E+03  0.00000000000E+00 0.  1.
        -15    1    1    2    0    0  0.16794135038E+02 -0.51568808881E+01  0.11504114688E+02  0.21074600255E+02  0.17770000000E+01 0. -1.
         15    1    1    2    0    0 -0.34620097087E+00 -0.51165838220E+01 -0.69908816560E+01  0.88503921070E+01  0.17770000000E+01 0.  1.
</event>
<event>
 6    1  0.2408691E-003  0.5009360E+03  0.7546771E-02  0.9397718E-01
        -11   -1    0    0    0    0  0.00000000000E+00  0.00000000000E+00  0.50000000000E+03  0.50000000000E+03  0.00000000000E+00 0. -1.
         11   -1    0    0    0    0 -0.00000000000E+00 -0.00000000000E+00 -0.50000000000E+03  0.50000000000E+03  0.00000000000E+00 0.  1.
        -11    1    1    2    0    0 -0.56637031650E+01  0.35455627873E+01  0.27822362519E+03  0.27830385223E+03  0.00000000000E+00 0. -1.
         11    1    1    2    0    0 -0.64409087080E+01 -0.25334005618E+01 -0.49901602234E+03  0.49906401791E+03  0.00000000000E+00 0.  1.
        -15    1    1    2    0    0 -0.67792817315E+00  0.49836202411E+01  0.97772448650E+01  0.11137697404E+02  0.17770000000E+01 0.  1.
         15    1    1    2    0    0  0.12782540046E+02 -0.59957824667E+01  0.21101515228E+03  0.21149443245E+03  0.17770000000E+01 0. -1.
</event>
<event>
 6    1  0.2408691E-003  0.5029023E+03  0.7546771E-02  0.9393339E-01
        -11   -1    0    0    0    0  0.00000000000E+00  0.00000000000E+00  0.50000000000E+03  0.50000000000E+03  0.00000000000E+00 0. -1.
         11   -1    0    0    0    0 -0.00000000000E+00 -0.00000000000E+00 -0.50000000000E+03  0.50000000000E+03  0.00000000000E+00 0.  1.
        -11    1    1    2    0    0 -0.10383377753E+02  0.95712619594E+01  0.49689707299E+03  0.49709770140E+03  0.00000000000E+00 0. -1.
         11    1    1    2    0    0 -0.47328308925E+00 -0.71945677210E+01 -0.46213226026E+03  0.46218850243E+03  0.00000000000E+00 0.  1.
        -15    1    1    2    0    0 -0.29600220808E+00  0.47902290412E+01 -0.20623162566E+02  0.21248681719E+02  0.17770000000E+01 0.  1.
         15    1    1    2    0    0  0.11152663051E+02 -0.71669232797E+01 -0.14141650164E+02  0.19465114456E+02  0.17770000000E+01 0. -1.
</event>
<event>
 6    1  0.2408691E-003  0.5001892E+03  0.7546771E-02  0.9399387E-01
        -11   -1    0    0    0    0  0.00000000000E+00  0.00000000000E+00  0.50000000000E+03  0.50000000000E+03  0.00000000000E+00 0. -1.
         11   -1    0    0    0    0 -0.00000000000E+00 -0.00000000000E+00 -0.50000000000E+03  0.50000000000E+03  0.00000000000E+00 0.  1.
        -11    1    1    2    0    0  0.31424018375E+01 -0.26403515146E+01  0.25198388155E+03  0.25201730636E+03  0.00000000000E+00 0. -1.
         11    1    1    2    0    0  0.20308078896E+01 -0.94118803137E+01 -0.49971807617E+03  0.49981082754E+03  0.00000000000E+00 0.  1.
        -15    1    1    2    0    0 -0.52282321564E+01  0.10299757929E+02  0.17201716850E+03  0.17241369845E+03  0.17770000000E+01 0. -1.
         15    1    1    2    0    0  0.55022429277E-01  0.17524738994E+01  0.75717026118E+02  0.75758167648E+02  0.17770000000E+01 0. -1.
</event>
<event>
 6    1  0.2408691E-003  0.5012461E+03  0.7546771E-02  0.9397026E-01
        -11   -1    0    0    0    0  0.00000000000E+00  0.00000000000E+00  0.50000000000E+03  0.50000000000E+03  0.00000000000E+00 0.  1.
         11   -1    0    0    0    0 -0.00000000000E+00 -0.00000000000E+00 -0.50000000000E+03  0.50000000000E+03  0.00000000000E+00 0. -1.
        -11    1    1    2    0    0  0.11677109248E+02  0.88292545676E+01  0.49853900094E+03  0.49875389330E+03  0.00000000000E+00 0.  1.
         11    1    1    2    0    0 -0.55270326252E+01  0.30213610081E+01 -0.41282941651E+03  0.41287746832E+03  0.00000000000E+00 0. -1.
        -15    1    1    2    0    0 -0.33172221904E+00 -0.14362420164E+02 -0.49816030120E+02  0.51876620346E+02  0.17770000000E+01 0. -1.
         15    1    1    2    0    0 -0.58183544041E+01  0.25118045879E+01 -0.35893554313E+02  0.36492018038E+02  0.17770000000E+01 0.  1.
</event>
<event>
 6    1  0.2408691E-003  0.5052260E+03  0.7546771E-02  0.9388191E-01
        -11   -1    0    0    0    0  0.00000000000E+00  0.00000000000E+00  0.50000000000E+03  0.50000000000E+03  0.00000000000E+00 0. -1.
         11   -1    0    0    0    0 -0.00000000000E+00 -0.00000000000E+00 -0.50000000000E+03  0.50000000000E+03  0.00000000000E+00 0.  1.
        -11    1    1    2    0    0 -0.11691661784E+01  0.73426283746E+01  0.43691093189E+03  0.43697419094E+03  0.00000000000E+00 0. -1.
         11    1    1    2    0    0 -0.34680960462E+01  0.94372488815E+01 -0.49467181985E+03  0.49477398750E+03  0.00000000000E+00 0.  1.
        -15    1    1    2    0    0  0.22903310303E+01 -0.67670452840E+01  0.57335882860E+02  0.57806571516E+02  0.17770000000E+01 0.  1.
         15    1    1    2    0    0  0.23469311943E+01 -0.10012831972E+02  0.42500510104E+00  0.10445250043E+02  0.17770000000E+01 0.  1.
</event>
<event>
 6    1  0.2408691E-003  0.5001128E+03  0.7546771E-02  0.9399557E-01
        -11   -1    0    0    0    0  0.00000000000E+00  0.00000000000E+00  0.50000000000E+03  0.50000000000E+03  0.00000000000E+00 0. -1.
         11   -1    0    0    0    0 -0.00000000000E+00 -0.00000000000E+00 -0.50000000000E+03  0.50000000000E+03  0.00000000000E+00 0.  1.
        -11    1    1    2    0    0 -0.33033178252E+01  0.21510289335E+01  0.28213628658E+03  0.28216382305E+03  0.00000000000E+00 0. -1.
         11    1    1    2    0    0  0.76410333162E+01  0.42333523415E+01 -0.49981091533E+03  0.49988724503E+03  0.00000000000E+00 0.  1.
        -15    1    1    2    0    0  0.17428201753E+01 -0.17765450348E+01  0.53100544516E+02  0.53188524057E+02  0.17770000000E+01 0.  1.
         15    1    1    2    0    0 -0.60805356663E+01 -0.46078362403E+01  0.16457408423E+03  0.16476040786E+03  0.17770000000E+01 0. -1.
</event>
<event>
 6    1  0.2408691E-003  0.5031542E+03  0.7546771E-02  0.9392780E-01
        -11   -1    0    0    0    0  0.00000000000E+00  0.00000000000E+00  0.50000000000E+03  0.50000000000E+03  0.00000000000E+00 0. -1.
         11   -1    0    0    0    0 -0.00000000000E+00 -0.00000000000E+00 -0.50000000000E+03  0.50000000000E+03  0.00000000000E+00 0.  1.
        -11    1    1    2    0    0  0.11394696823E+02  0.34459413597E+01  0.49670318654E+03  0.49684582030E+03  0.00000000000E+00 0. -1.
         11    1    1    2    0    0 -0.11906820094E+00 -0.14997230660E+02 -0.38070758353E+03  0.38100288091E+03  0.00000000000E+00 0.  1.
        -15    1    1    2    0    0 -0.12328316398E+02  0.66518502247E+01 -0.11597782769E+03  0.11683427897E+03  0.17770000000E+01 0.  1.
         15    1    1    2    0    0  0.10526877751E+01  0.48994390751E+01 -0.17775312028E-01  0.53170198198E+01  0.17770000000E+01 0. -1.
</event>
<event>
 6    1  0.2408691E-003  0.5053666E+03  0.7546771E-02  0.9387881E-01
        -11   -1    0    0    0    0  0.00000000000E+00  0.00000000000E+00  0.50000000000E+03  0.50000000000E+03  0.00000000000E+00 0. -1.
         11   -1    0    0    0    0 -0.00000000000E+00 -0.00000000000E+00 -0.50000000000E+03  0.50000000000E+03  0.00000000000E+00 0. -1.
        -11    1    1    2    0    0  0.34378309737E+01 -0.59691353476E+01  0.49458541815E+03  0.49463338454E+03  0.00000000000E+00 0. -1.
         11    1    1    2    0    0  0.21557896259E+01  0.83159336407E+01 -0.48319389510E+03  0.48327025818E+03  0.00000000000E+00 0. -1.
        -15    1    1    2    0    0 -0.37376568504E+01 -0.38562455770E+01 -0.15796070747E+02  0.16778387549E+02  0.17770000000E+01 0.  1.
         15    1    1    2    0    0 -0.18559637491E+01  0.15094472840E+01  0.44045477027E+01  0.53179697260E+01  0.17770000000E+01 0. -1.
</event>
<event>
 6    1  0.2408691E-003  0.5022868E+03  0.7546771E-02  0.9394707E-01
        -11   -1    0    0    0    0  0.00000000000E+00  0.00000000000E+00  0.50000000000E+03  0.50000000000E+03  0.00000000000E+00 0.  1.
         11   -1    0    0    0    0 -0.00000000000E+00 -0.00000000000E+00 -0.50000000000E+03  0.50000000000E+03  0.00000000000E+00 0.  1.
        -11    1    1    2    0    0 -0.18008625499E+02  0.11921051985E+02  0.49724445183E+03  0.49771323767E+03  0.00000000000E+00 0.  1.
         11    1    1    2    0    0  0.67657885479E+01 -0.46027629406E+01 -0.26546365668E+03  0.26558974819E+03  0.00000000000E+00 0.  1.
        -15    1    1    2    0    0 -0.12850380253E+02  0.11074073243E+01 -0.15933117249E+03  0.15986224970E+03  0.17770000000E+01 0. -1.
         15    1    1    2    0    0  0.24093217205E+02 -0.84256963685E+01 -0.72449622661E+02  0.76834764445E+02  0.17770000000E+01 0.  1.
</event>
<event>
 6    1  0.2408691E-003  0.5221586E+03  0.7546771E-02  0.9351549E-01
        -11   -1    0    0    0    0  0.00000000000E+00  0.00000000000E+00  0.50000000000E+03  0.50000000000E+03  0.00000000000E+00 0. -1.
         11   -1    0    0    0    0 -0.00000000000E+00 -0.00000000000E+00 -0.50000000000E+03  0.50000000000E+03  0.00000000000E+00 0. -1.
        -11    1    1    2    0    0 -0.54650941227E+02 -0.25707259318E+02  0.12225667315E+03  0.13636085467E+03  0.00000000000E+00 0. -1.
         11    1    1    2    0    0 -0.49942550949E+01 -0.70151732740E+01 -0.47776381669E+03  0.47784141698E+03  0.00000000000E+00 0. -1.
        -15    1    1    2    0    0  0.47584845747E+01  0.82088810715E+01 -0.10858511226E+02  0.14529070821E+02  0.17770000000E+01 0.  1.
         15    1    1    2    0    0  0.54886711748E+02  0.24513551521E+02  0.36636565477E+03  0.37126865752E+03  0.17770000000E+01 0. -1.
</event>
<event>
 6    1  0.2497127E-003  0.5159213E+03  0.7546771E-02  0.9364873E-01
        -11   -1    0    0    0    0  0.00000000000E+00  0.00000000000E+00  0.50000000000E+03  0.50000000000E+03  0.00000000000E+00 0. -1.
         11   -1    0    0    0    0 -0.00000000000E+00 -0.00000000000E+00 -0.50000000000E+03  0.50000000000E+03  0.00000000000E+00 0. -1.
        -11    1    1    2    0    0  0.22430829356E+01 -0.55710393746E+01  0.36930256161E+03  0.36935139084E+03  0.00000000000E+00 0. -1.
         11    1    1    2    0    0  0.24634734245E+02 -0.13863122918E+02 -0.48325263531E+03  0.48407867733E+03  0.00000000000E+00 0. -1.
        -15    1    1    2    0    0 -0.33123537667E+00  0.63252078731E+01  0.11660573166E+03  0.11679114845E+03  0.17770000000E+01 0.  1.
         15    1    1    2    0    0 -0.26546581804E+02  0.13108954419E+02 -0.26556579568E+01  0.29778783381E+02  0.17770000000E+01 0.  1.
</event>
<event>
 6    1  0.2408691E-003  0.5002211E+03  0.7546771E-02  0.9399315E-01
        -11   -1    0    0    0    0  0.00000000000E+00  0.00000000000E+00  0.50000000000E+03  0.50000000000E+03  0.00000000000E+00 0.  1.
         11   -1    0    0    0    0 -0.00000000000E+00 -0.00000000000E+00 -0.50000000000E+03  0.50000000000E+03  0.00000000000E+00 0. -1.
        -11    1    1    2    0    0 -0.19542862644E+01 -0.23526781647E+01  0.12504694937E+03  0.12508434704E+03  0.00000000000E+00 0.  1.
         11    1    1    2    0    0 -0.73074269404E+01 -0.27111537995E+01 -0.49971816844E+03  0.49977894785E+03  0.00000000000E+00 0. -1.
        -15    1    1    2    0    0 -0.34130034643E+01 -0.28897421343E+00  0.42162677876E+02  0.42338885595E+02  0.17770000000E+01 0.  1.
         15    1    1    2    0    0  0.12674716669E+02  0.53528061777E+01  0.33250854120E+03  0.33279781952E+03  0.17770000000E+01 0.  1.
</event>
<event>
 6    1  0.2408691E-003  0.5006696E+03  0.7546771E-02  0.9398313E-01
        -11   -1    0    0    0    0  0.00000000000E+00  0.00000000000E+00  0.50000000000E+03  0.50000000000E+03  0.00000000000E+00 0. -1.
         11   -1    0    0    0    0 -0.00000000000E+00 -0.00000000000E+00 -0.50000000000E+03  0.50000000000E+03  0.00000000000E+00 0. -1.
        -11    1    1    2    0    0 -0.37039698638E+01  0.32762004223E+01  0.35068389456E+03  0.35071875740E+03  0.00000000000E+00 0. -1.
         11    1    1    2    0    0  0.76756098698E+01 -0.18927726418E+01 -0.49926783800E+03  0.49933042331E+03  0.00000000000E+00 0. -1.
        -15    1    1    2    0    0 -0.10325225196E+02 -0.56898183331E+01  0.10340965041E+03  0.10409465805E+03  0.17770000000E+01 0.  1.
         15    1    1    2    0    0  0.63535851897E+01  0.43063905526E+01  0.45174293030E+02  0.45856161245E+02  0.17770000000E+01 0.  1.
</event>
<event>
 6    1  0.2408691E-003  0.5088818E+03  0.7546771E-02  0.9380152E-01
        -11   -1    0    0    0    0  0.00000000000E+00  0.00000000000E+00  0.50000000000E+03  0.50000000000E+03  0.00000000000E+00 0. -1.
         11   -1    0    0    0    0 -0.00000000000E+00 -0.00000000000E+00 -0.50000000000E+03  0.50000000000E+03  0.00000000000E+00 0.  1.
        -11    1    1    2    0    0  0.88452561812E+01 -0.42588494912E+01  0.49102002913E+03  0.49111815825E+03  0.00000000000E+00 0. -1.
         11    1    1    2    0    0 -0.67167407020E+01 -0.27854777937E+01 -0.47936665701E+03  0.47942180316E+03  0.00000000000E+00 0.  1.
        -15    1    1    2    0    0 -0.80148879070E+01  0.76922080457E+01  0.45360223087E+01  0.12130198686E+02  0.17770000000E+01 0. -1.
         15    1    1    2    0    0  0.58863724277E+01 -0.64788076078E+00 -0.16189394430E+02  0.17329839897E+02  0.17770000000E+01 0. -1.
</event>
<event>
 6    1  0.2408691E-003  0.5833432E+03  0.7546771E-02  0.9230492E-01
        -11   -1    0    0    0    0  0.00000000000E+00  0.00000000000E+00  0.50000000000E+03  0.50000000000E+03  0.00000000000E+00 0.  1.
         11   -1    0    0    0    0 -0.00000000000E+00 -0.00000000000E+00 -0.50000000000E+03  0.50000000000E+03  0.00000000000E+00 0. -1.
        -11    1    1    2    0    0  0.21924099789E+02 -0.17805107741E+02  0.41569842445E+03  0.41665677494E+03  0.00000000000E+00 0.  1.
         11    1    1    2    0    0  0.46034144375E+01  0.18437937830E+02 -0.24285258395E+03  0.24359500509E+03  0.00000000000E+00 0. -1.
        -15    1    1    2    0    0 -0.40413853384E+02  0.44804666347E+02  0.69918694890E+02  0.92371636859E+02  0.17770000000E+01 0.  1.
         15    1    1    2    0    0  0.13886339158E+02 -0.45437496436E+02 -0.24276453539E+03  0.24737658311E+03  0.17770000000E+01 0. -1.
</event>
<event>
 6    1  0.2408691E-003  0.5001635E+03  0.7546771E-02  0.9399444E-01
        -11   -1    0    0    0    0  0.00000000000E+00  0.00000000000E+00  0.50000000000E+03  0.50000000000E+03  0.00000000000E+00 0. -1.
         11   -1    0    0    0    0 -0.00000000000E+00 -0.00000000000E+00 -0.50000000000E+03  0.50000000000E+03  0.00000000000E+00 0.  1.
        -11    1    1    2    0    0 -0.13157801474E+01 -0.14558524634E+01  0.13851639412E+03  0.13853029352E+03  0.00000000000E+00 0. -1.
         11    1    1    2    0    0 -0.88845155601E+01  0.39664032401E+01 -0.49974180073E+03  0.49983650764E+03  0.00000000000E+00 0.  1.
        -15    1    1    2    0    0 -0.18283008508E+01  0.26537350837E+00  0.16062550197E+03  0.16064595457E+03  0.17770000000E+01 0. -1.
         15    1    1    2    0    0  0.12028596558E+02 -0.27759242851E+01  0.20059990464E+03  0.20098724427E+03  0.17770000000E+01 0. -1.
</event>
<event>
 6    1  0.2408691E-003  0.5101725E+03  0.7546771E-02  0.9377331E-01
        -11   -1    0    0    0    0  0.00000000000E+00  0.00000000000E+00  0.50000000000E+03  0.50000000000E+03  0.00000000000E+00 0.  1.
         11   -1    0    0    0    0 -0.00000000000E+00 -0.00000000000E+00 -0.50000000000E+03  0.50000000000E+03  0.00000000000E+00 0.  1.
        -11    1    1    2    0    0  0.15650994386E+01  0.22477722003E+02  0.36875183499E+03  0.36943959361E+03  0.00000000000E+00 0.  1.
         11    1    1    2    0    0  0.37443870746E+02  0.17805229966E+02 -0.48806956928E+03  0.48982749425E+03  0.00000000000E+00 0.  1.
        -15    1    1    2    0    0 -0.37350593185E+02 -0.16627300245E+02  0.37418752233E+02  0.55451372141E+02  0.17770000000E+01 0.  1.
         15    1    1    2    0    0 -0.16583770001E+01 -0.23655651725E+02  0.81898982058E+02  0.85281539995E+02  0.17770000000E+01 0. -1.
</event>
<event>
 6    1  0.2408691E-003  0.5011848E+03  0.7546771E-02  0.9397162E-01
        -11   -1    0    0    0    0  0.00000000000E+00  0.00000000000E+00  0.50000000000E+03  0.50000000000E+03  0.00000000000E+00 0.  1.
         11   -1    0    0    0    0 -0.00000000000E+00 -0.00000000000E+00 -0.50000000000E+03  0.50000000000E+03  0.00000000000E+00 0. -1.
        -11    1    1    2    0    0  0.66974209229E+01 -0.45203073920E+01  0.44927818436E+03  0.44935083796E+03  0.00000000000E+00 0.  1.
         11    1    1    2    0    0  0.11638587904E+01 -0.66384840358E+01 -0.49876964709E+03  0.49881518110E+03  0.00000000000E+00 0. -1.
        -15    1    1    2    0    0 -0.37567779745E+01  0.93676111175E+01  0.28205302683E+02  0.30009370990E+02  0.17770000000E+01 0.  1.
         15    1    1    2    0    0 -0.41045017387E+01  0.17911803103E+01  0.21286160041E+02  0.21824609955E+02  0.17770000000E+01 0. -1.
</event>
<event>
 6    1  0.2408691E-003  0.5157121E+03  0.7546771E-02  0.9365323E-01
        -11   -1    0    0    0    0  0.00000000000E+00  0.00000000000E+00  0.50000000000E+03  0.50000000000E+03  0.00000000000E+00 0. -1.
         11   -1    0    0    0    0 -0.00000000000E+00 -0.00000000000E+00 -0.50000000000E+03  0.50000000000E+03  0.00000000000E+00 0. -1.
        -11    1    1    2    0    0 -0.94875732946E+01 -0.15063390309E+02  0.48396059387E+03  0.48428790630E+03  0.00000000000E+00 0. -1.
         11    1    1    2    0    0 -0.13215225799E+02  0.94883145962E+01 -0.45488062266E+03  0.45517145251E+03  0.00000000000E+00 0. -1.
        -15    1    1    2    0    0  0.29342631157E+02 -0.12160587541E+02 -0.94026243801E+01  0.33172834772E+02  0.17770000000E+01 0.  1.
         15    1    1    2    0    0 -0.66398320638E+01  0.17735663253E+02 -0.19677346825E+02  0.27367806414E+02  0.17770000000E+01 0. -1.
</event>
<event>
 6    1  0.2408691E-003  0.5104564E+03  0.7546771E-02  0.9376712E-01
        -11   -1    0    0    0    0  0.00000000000E+00  0.00000000000E+00  0.50000000000E+03  0.50000000000E+03  0.00000000000E+00 0.  1.
         11   -1    0    0    0    0 -0.00000000000E+00 -0.00000000000E+00 -0.50000000000E+03  0.50000000000E+03  0.00000000000E+00 0. -1.
        -11    1    1    2    0    0 -0.58133108860E+01 -0.59864723794E+01  0.48947248756E+03  0.48954361247E+03  0.00000000000E+00 0.  1.
         11    1    1    2    0    0  0.51728477863E+01 -0.84758478301E+01 -0.44153849970E+03  0.44165013876E+03  0.00000000000E+00 0. -1.
        -15    1    1    2    0    0  0.22771000079E+01  0.73973747547E+01  0.86437771295E+01  0.11737927831E+02  0.17770000000E+01 0. -1.
         15    1    1    2    0    0 -0.16366369082E+01  0.70649454549E+01 -0.56577764990E+02  0.57068320940E+02  0.17770000000E+01 0. -1.
</event>
<event>
 6    1  0.2408691E-003  0.5001099E+03  0.7546771E-02  0.9399564E-01
        -11   -1    0    0    0    0  0.00000000000E+00  0.00000000000E+00  0.50000000000E+03  0.50000000000E+03  0.00000000000E+00 0.  1.
         11   -1    0    0    0    0 -0.00000000000E+00 -0.00000000000E+00 -0.50000000000E+03  0.50000000000E+03  0.00000000000E+00 0. -1.
        -11    1    1    2    0    0 -0.63329753251E-01  0.11345208173E+02  0.49976135041E+03  0.49989011305E+03  0.00000000000E+00 0.  1.
         11    1    1    2    0    0 -0.86142601652E-01 -0.12594648526E+01 -0.73599867846E+02  0.73610693647E+02  0.00000000000E+00 0. -1.
        -15    1    1    2    0    0 -0.61194798659E+01 -0.26232126044E+01 -0.14586092713E+03  0.14602361819E+03  0.17770000000E+01 0.  1.
         15    1    1    2    0    0  0.62689522208E+01 -0.74625307158E+01 -0.28030055544E+03  0.28047557511E+03  0.17770000000E+01 0. -1.
</event>
<event>
 6    1  0.2408691E-003  0.5020557E+03  0.7546771E-02  0.9395222E-01
        -11   -1    0    0    0    0  0.00000000000E+00  0.00000000000E+00  0.50000000000E+03  0.50000000000E+03  0.00000000000E+00 0.  1.
         11   -1    0    0    0    0 -0.00000000000E+00 -0.00000000000E+00 -0.50000000000E+03  0.50000000000E+03  0.00000000000E+00 0.  1.
        -11    1    1    2    0    0  0.12676030868E+02 -0.23544703837E+02  0.49722574689E+03  0.49794425211E+03  0.00000000000E+00 0.  1.
         11    1    1    2    0    0 -0.49611340781E+01 -0.40877472455E+01 -0.36818773202E+03  0.36824384386E+03  0.00000000000E+00 0.  1.
        -15    1    1    2    0    0 -0.30090887066E+01  0.54894785244E+01 -0.65358992015E+01  0.92230524603E+01  0.17770000000E+01 0.  1.
         15    1    1    2    0    0 -0.47058080829E+01  0.22142972559E+02 -0.12250211567E+03  0.12458885157E+03  0.17770000000E+01 0. -1.
</event>
<event>
 6    1  0.2408691E-003  0.5043038E+03  0.7546771E-02  0.9390231E-01
        -11   -1    0    0    0    0  0.00000000000E+00  0.00000000000E+00  0.50000000000E+03  0.50000000000E+03  0.00000000000E+00 0. -1.
         11   -1    0    0    0    0 -0.00000000000E+00 -0.00000000000E+00 -0.50000000000E+03  0.50000000000E+03  0.00000000000E+00 0. -1.
        -11    1    1    2    0    0 -0.89921053959E+01 -0.85693504367E+01  0.45884552276E+03  0.45901362233E+03  0.00000000000E+00 0. -1.
         11    1    1    2    0    0  0.80083041545E+01 -0.51981066008E+01 -0.49560420924E+03  0.49569616245E+03  0.00000000000E+00 0. -1.
        -15    1    1    2    0    0 -0.78681813804E+01  0.14214275347E+02  0.17107745896E+02  0.23659809816E+02  0.17770000000E+01 0.  1.
         15    1    1    2    0    0  0.88519826218E+01 -0.44681830935E+00  0.19650940589E+02  0.21630405404E+02  0.17770000000E+01 0. -1.
</event>
<event>
 6    1  0.2408691E-003  0.5006503E+03  0.7546771E-02  0.9398356E-01
        -11   -1    0    0    0    0  0.00000000000E+00  0.00000000000E+00  0.50000000000E+03  0.50000000000E+03  0.00000000000E+00 0. -1.
         11   -1    0    0    0    0 -0.00000000000E+00 -0.00000000000E+00 -0.50000000000E+03  0.50000000000E+03  0.00000000000E+00 0. -1.
        -11    1    1    2    0    0  0.41658929773E+01 -0.88358550716E+01  0.38725096861E+03  0.38737415981E+03  0.00000000000E+00 0. -1.
         11    1    1    2    0    0 -0.97893799044E+01  0.24703276546E+01 -0.49924764157E+03  0.49934971923E+03  0.00000000000E+00 0. -1.
        -15    1    1    2    0    0 -0.40207054992E+00  0.66244691584E+01  0.21719113207E+02  0.22779878399E+02  0.17770000000E+01 0.  1.
         15    1    1    2    0    0  0.60255574770E+01 -0.25894174134E+00  0.90277559757E+02  0.90496242565E+02  0.17770000000E+01 0. -1.
</event>
<event>
 6    1  0.2408691E-003  0.5028705E+03  0.7546771E-02  0.9393410E-01
        -11   -1    0    0    0    0  0.00000000000E+00  0.00000000000E+00  0.50000000000E+03  0.50000000000E+03  0.00000000000E+00 0.  1.
         11   -1    0    0    0    0 -0.00000000000E+00 -0.00000000000E+00 -0.50000000000E+03  0.50000000000E+03  0.00000000000E+00 0. -1.
        -11    1    1    2    0    0 -0.94850495907E+01  0.11597929509E+01  0.41150256761E+03  0.41161350128E+03  0.00000000000E+00 0.  1.
         11    1    1    2    0    0  0.30581355221E+01  0.72704533367E+01 -0.49706690698E+03  0.49712948182E+03  0.00000000000E+00 0. -1.
        -15    1    1    2    0    0  0.13613558342E+02 -0.59008449022E+01  0.18703700864E+02  0.23940240106E+02  0.17770000000E+01 0.  1.
         15    1    1    2    0    0 -0.71866442738E+01 -0.25294013854E+01  0.66860638502E+02  0.67316776789E+02  0.17770000000E+01 0. -1.
</event>
<event>
 6    1  0.2408691E-003  0.5184486E+03  0.7546771E-02  0.9359450E-01
        -11   -1    0    0    0    0  0.00000000000E+00  0.00000000000E+00  0.50000000000E+03  0.50000000000E+03  0.00000000000E+00 0.  1.
         11   -1    0    0    0    0 -0.00000000000E+00 -0.00000000000E+00 -0.50000000000E+03  0.50000000000E+03  0.00000000000E+00 0.  1.
        -11    1    1    2    0    0  0.10680384948E+02 -0.14200833217E+02  0.43049500376E+03  0.43086155845E+03  0.00000000000E+00 0.  1.
         11    1    1    2    0    0 -0.20253135149E+01 -0.32175603218E+02 -0.48047100898E+03  0.48155141139E+03  0.00000000000E+00 0.  1.
        -15    1    1    2    0    0  0.15724113375E+01  0.39733808613E+02  0.40198305068E+01  0.40007059260E+02  0.17770000000E+01 0. -1.
         15    1    1    2    0    0 -0.10227482771E+02  0.66426278212E+01  0.45956174708E+02  0.47579970902E+02  0.17770000000E+01 0.  1.
</event>
<event>
 6    1  0.2408691E-003  0.5183174E+03  0.7546771E-02  0.9359731E-01
        -11   -1    0    0    0    0  0.00000000000E+00  0.00000000000E+00  0.50000000000E+03  0.50000000000E+03  0.00000000000E+00 0. -1.
         11   -1    0    0    0    0 -0.00000000000E+00 -0.00000000000E+00 -0.50000000000E+03  0.50000000000E+03  0.00000000000E+00 0.  1.
        -11    1    1    2    0    0  0.81654838795E+01 -0.62455431087E+01  0.48157284847E+03  0.48168256178E+03  0.00000000000E+00 0. -1.
         11    1    1    2    0    0  0.14338801260E+02 -0.11738693488E+01 -0.31263834654E+03  0.31296919165E+03  0.00000000000E+00 0.  1.
        -15    1    1    2    0    0 -0.13018448797E+02  0.82297851192E+01 -0.18550680316E+03  0.18615354178E+03  0.17770000000E+01 0. -1.
         15    1    1    2    0    0 -0.94858363427E+01 -0.81037266168E+00  0.16572301228E+02  0.19194704790E+02  0.17770000000E+01 0.  1.
</event>
<event>
 6    1  0.2408691E-003  0.5161943E+03  0.7546771E-02  0.9364285E-01
        -11   -1    0    0    0    0  0.00000000000E+00  0.00000000000E+00  0.50000000000E+03  0.50000000000E+03  0.00000000000E+00 0. -1.
         11   -1    0    0    0    0 -0.00000000000E+00 -0.00000000000E+00 -0.50000000000E+03  0.50000000000E+03  0.00000000000E+00 0. -1.
        -11    1    1    2    0    0  0.66445533205E+01 -0.11473149746E+02  0.48362395527E+03  0.48380565661E+03  0.00000000000E+00 0. -1.
         11    1    1    2    0    0  0.90358894399E+01  0.24796400992E+02 -0.42202793338E+03  0.42285232097E+03  0.00000000000E+00 0. -1.
        -15    1    1    2    0    0  0.86009822208E-01 -0.70540235384E+01  0.14036276145E+02  0.15809535818E+02  0.17770000000E+01 0. -1.
         15    1    1    2    0    0 -0.15766452583E+02 -0.62692277083E+01 -0.75632298039E+02  0.77532486603E+02  0.17770000000E+01 0.  1.
</event>
<event>
 6    1  0.2408691E-003  0.5535369E+03  0.7546771E-02  0.9287392E-01
        -11   -1    0    0    0    0  0.00000000000E+00  0.00000000000E+00  0.50000000000E+03  0.50000000000E+03  0.00000000000E+00 0.  1.
         11   -1    0    0    0    0 -0.00000000000E+00 -0.00000000000E+00 -0.50000000000E+03  0.50000000000E+03  0.00000000000E+00 0.  1.
        -11    1    1    2    0    0 -0.28338075732E+02  0.70036733869E+01  0.29468142847E+03  0.29612369419E+03  0.00000000000E+00 0.  1.
         11    1    1    2    0    0  0.13649931647E+02  0.35415417904E+01 -0.44624034461E+03  0.44646310968E+03  0.00000000000E+00 0.  1.
        -15    1    1    2    0    0 -0.54356814332E+02  0.40437165758E+02 -0.15559913696E+02  0.69534856598E+02  0.17770000000E+01 0. -1.
         15    1    1    2    0    0  0.69044958417E+02 -0.50982380935E+02  0.16711882984E+03  0.18787833953E+03  0.17770000000E+01 0.  1.
</event>
<event>
 6    1  0.2408691E-003  0.5010023E+03  0.7546771E-02  0.9397570E-01
        -11   -1    0    0    0    0  0.00000000000E+00  0.00000000000E+00  0.50000000000E+03  0.50000000000E+03  0.00000000000E+00 0. -1.
         11   -1    0    0    0    0 -0.00000000000E+00 -0.00000000000E+00 -0.50000000000E+03  0.50000000000E+03  0.00000000000E+00 0. -1.
        -11    1    1    2    0    0 -0.11354742456E+02 -0.68409632050E+01  0.49882156251E+03  0.49899767552E+03  0.00000000000E+00 0. -1.
         11    1    1    2    0    0 -0.10654092448E+01  0.58892376493E+01 -0.42165060193E+03  0.42169307361E+03  0.00000000000E+00 0. -1.
        -15    1    1    2    0    0 -0.16734315102E+01  0.51702780708E+00 -0.36119993263E+01  0.43899839300E+01  0.17770000000E+01 0. -1.
         15    1    1    2    0    0  0.14093583211E+02  0.43469774860E+00 -0.73558961248E+02  0.74919266939E+02  0.17770000000E+01 0.  1.
</event>
<event>
 6    1  0.2408691E-003  0.5278516E+03  0.7546771E-02  0.9339559E-01
        -11   -1    0    0    0    0  0.00000000000E+00  0.00000000000E+00  0.50000000000E+03  0.50000000000E+03  0.00000000000E+00 0. -1.
         11   -1    0    0    0    0 -0.00000000000E+00 -0.00000000000E+00 -0.50000000000E+03  0.50000000000E+03  0.00000000000E+00 0.  1.
        -11    1    1    2    0    0  0.68458176780E+00  0.64640716988E+01  0.47210363337E+03  0.47214838082E+03  0.00000000000E+00 0. -1.
         11    1    1    2    0    0 -0.31026297081E+02 -0.11123850222E+02 -0.36361641588E+03  0.36510720214E+03  0.00000000000E+00 0.  1.
        -15    1    1    2    0    0  0.61306779317E+02  0.23510331078E+02 -0.10804784033E+03  0.12644663058E+03  0.17770000000E+01 0.  1.
         15    1    1    2    0    0 -0.30965064004E+02 -0.18850552554E+02 -0.43937715976E+00  0.36297786457E+02  0.17770000000E+01 0. -1.
</event>
<event>
 6    1  0.2408691E-003  0.4867423E+03  0.7546771E-02  0.9429973E-01
        -11   -1    0    0    0    0  0.00000000000E+00  0.00000000000E+00  0.50000000000E+03  0.50000000000E+03  0.00000000000E+00 0.  1.
         11   -1    0    0    0    0 -0.00000000000E+00 -0.00000000000E+00 -0.50000000000E+03  0.50000000000E+03  0.00000000000E+00 0. -1.
        -11    1    1    2    0    0  0.42972926077E+01  0.10912633785E+02  0.49254311387E+03  0.49268272886E+03  0.00000000000E+00 0.  1.
         11    1    1    2    0    0  0.10353180850E+02  0.20625766011E+01 -0.48095169852E+03  0.48106754087E+03  0.00000000000E+00 0. -1.
        -15    1    1    2    0    0 -0.38470447122E+01 -0.62847598924E-01  0.18587659106E+01  0.46277902447E+01  0.17770000000E+01 0.  1.
         15    1    1    2    0    0 -0.10803428745E+02 -0.12912362788E+02 -0.13450181261E+02  0.21621940023E+02  0.17770000000E+01 0. -1.
</event>
<event>
 6    1  0.2408691E-003  0.4851654E+03  0.7546771E-02  0.9433629E-01
        -11   -1    0    0    0    0  0.00000000000E+00  0.00000000000E+00  0.50000000000E+03  0.50000000000E+03  0.00000000000E+00 0.  1.
         11   -1    0    0    0    0 -0.00000000000E+00 -0.00000000000E+00 -0.50000000000E+03  0.50000000000E+03  0.00000000000E+00 0. -1.
        -11    1    1    2    0    0 -0.90218100993E+01  0.30263513306E+01  0.48496680293E+03  0.48506015277E+03  0.00000000000E+00 0.  1.
         11    1    1    2    0    0  0.34247360999E+01 -0.12011050612E+02 -0.48516769252E+03  0.48532842903E+03  0.00000000000E+00 0. -1.
        -15    1    1    2    0    0  0.90090219855E+00  0.18589405463E+02  0.11549969744E+01  0.18731507340E+02  0.17770000000E+01 0.  1.
         15    1    1    2    0    0  0.46961718008E+01 -0.96047061809E+01 -0.95410738520E+00  0.10879910859E+02  0.17770000000E+01 0. -1.
</event>
<event>
 6    1  0.2408691E-003  0.5022247E+03  0.7546771E-02  0.9394846E-01
        -11   -1    0    0    0    0  0.00000000000E+00  0.00000000000E+00  0.50000000000E+03  0.50000000000E+03  0.00000000000E+00 0.  1.
         11   -1    0    0    0    0 -0.00000000000E+00 -0.00000000000E+00 -0.50000000000E+03  0.50000000000E+03  0.00000000000E+00 0.  1.
        -11    1    1    2    0    0 -0.86136745114E+01 -0.18788147671E+01  0.49769724484E+03  0.49777532367E+03  0.00000000000E+00 0.  1.
         11    1    1    2    0    0  0.88679628334E+01  0.77917856993E+01 -0.44277044737E+03  0.44292778390E+03  0.00000000000E+00 0.  1.
        -15    1    1    2    0    0 -0.62154289615E+01 -0.45961610873E+01 -0.51434929331E+02  0.52042923998E+02  0.17770000000E+01 0. -1.
         15    1    1    2    0    0  0.59611406395E+01 -0.13168098449E+01 -0.34918681360E+01  0.72539684291E+01  0.17770000000E+01 0.  1.
</event>
<event>
 6    1  0.2408691E-003  0.5047572E+03  0.7546771E-02  0.9389228E-01
        -11   -1    0    0    0    0  0.00000000000E+00  0.00000000000E+00  0.50000000000E+03  0.50000000000E+03  0.00000000000E+00 0.  1.
         11   -1    0    0    0    0 -0.00000000000E+00 -0.00000000000E+00 -0.50000000000E+03  0.50000000000E+03  0.00000000000E+00 0.  1.
        -11    1    1    2    0    0 -0.93987596253E+01  0.66187688960E+01  0.49510932853E+03  0.49524276065E+03  0.00000000000E+00 0.  1.
         11    1    1    2    0    0 -0.58815204979E+00  0.67025164511E+01 -0.35278051811E+03  0.35284467349E+03  0.00000000000E+00 0.  1.
        -15    1    1    2    0    0 -0.22764301716E+01 -0.10980302685E+02 -0.13816736181E+03  0.13863306525E+03  0.17770000000E+01 0.  1.
         15    1    1    2    0    0  0.12263341847E+02 -0.23409826617E+01 -0.41614486064E+01  0.13279500615E+02  0.17770000000E+01 0. -1.
</event>
<event>
 6    1  0.2408691E-003  0.5135184E+03  0.7546771E-02  0.9370059E-01
        -11   -1    0    0    0    0  0.00000000000E+00  0.00000000000E+00  0.50000000000E+03  0.50000000000E+03  0.00000000000E+00 0. -1.
         11   -1    0    0    0    0 -0.00000000000E+00 -0.00000000000E+00 -0.50000000000E+03  0.50000000000E+03  0.00000000000E+00 0.  1.
        -11    1    1    2    0    0 -0.11109197762E+02 -0.12970591683E+02  0.48618174708E+03  0.48648159443E+03  0.00000000000E+00 0. -1.
         11    1    1    2    0    0  0.19805254853E+02  0.32114968455E+01 -0.44558706808E+03  0.44603856007E+03  0.00000000000E+00 0.  1.
        -15    1    1    2    0    0  0.20145449800E+02 -0.52322467572E+01 -0.11645878627E+02  0.23916516715E+02  0.17770000000E+01 0. -1.
         15    1    1    2    0    0 -0.28841506891E+02  0.14991341595E+02 -0.28948800378E+02  0.43563328785E+02  0.17770000000E+01 0.  1.
</event>
<event>
 6    1  0.2408691E-003  0.5005669E+03  0.7546771E-02  0.9398542E-01
        -11   -1    0    0    0    0  0.00000000000E+00  0.00000000000E+00  0.50000000000E+03  0.50000000000E+03  0.00000000000E+00 0. -1.
         11   -1    0    0    0    0 -0.00000000000E+00 -0.00000000000E+00 -0.50000000000E+03  0.50000000000E+03  0.00000000000E+00 0. -1.
        -11    1    1    2    0    0 -0.76945009781E+01 -0.27024853400E+01  0.25864140090E+03  0.25876994229E+03  0.00000000000E+00 0. -1.
         11    1    1    2    0    0 -0.74209023382E+01  0.15457124129E+02 -0.49913871948E+03  0.49943313243E+03  0.00000000000E+00 0. -1.
        -15    1    1    2    0    0  0.46207273363E+01  0.23053815552E+00  0.18085893113E+02  0.18752640552E+02  0.17770000000E+01 0. -1.
         15    1    1    2    0    0  0.10494675980E+02 -0.12985176945E+02  0.22241142546E+03  0.22304428473E+03  0.17770000000E+01 0.  1.
</event>
<event>
 6    1  0.2408691E-003  0.5011243E+03  0.7546771E-02  0.9397298E-01
        -11   -1    0    0    0    0  0.00000000000E+00  0.00000000000E+00  0.50000000000E+03  0.50000000000E+03  0.00000000000E+00 0.  1.
         11   -1    0    0    0    0 -0.00000000000E+00 -0.00000000000E+00 -0.50000000000E+03  0.50000000000E+03  0.00000000000E+00 0.  1.
        -11    1    1    2    0    0  0.19173647399E+00  0.97637277786E+01  0.42517771813E+03  0.42528985308E+03  0.00000000000E+00 0.  1.
         11    1    1    2    0    0  0.48477592046E+01  0.55426746901E+01 -0.49882140123E+03  0.49887574840E+03  0.00000000000E+00 0.  1.
        -15    1    1    2    0    0 -0.20264586160E+01 -0.10950551208E+02  0.34559220226E+02  0.36352696432E+02  0.17770000000E+01 0.  1.
         15    1    1    2    0    0 -0.30130370625E+01 -0.43558512608E+01  0.39084462879E+02  0.39481702092E+02  0.17770000000E+01 0. -1.
</event>
<event>
 6    1  0.2408691E-003  0.5015842E+03  0.7546771E-02  0.9396272E-01
        -11   -1    0    0    0    0  0.00000000000E+00  0.00000000000E+00  0.50000000000E+03  0.50000000000E+03  0.00000000000E+00 0.  1.
         11   -1    0    0    0    0 -0.00000000000E+00 -0.00000000000E+00 -0.50000000000E+03  0.50000000000E+03  0.00000000000E+00 0. -1.
        -11    1    1    2    0    0 -0.54306876173E+01 -0.75967302336E+01  0.41346552720E+03  0.41357096714E+03  0.00000000000E+00 0.  1.
         11    1    1    2    0    0  0.60420386001E+01 -0.42056756351E+01 -0.49836140239E+03  0.49841577155E+03  0.00000000000E+00 0. -1.
        -15    1    1    2    0    0  0.67464163869E+01  0.46134349840E+01  0.13664847164E+02  0.16021351174E+02  0.17770000000E+01 0.  1.
         15    1    1    2    0    0 -0.73577673697E+01  0.71889708847E+01  0.71231028024E+02  0.71991910139E+02  0.17770000000E+01 0. -1.
</event>
<event>
 6    1  0.2408691E-003  0.5062153E+03  0.7546771E-02  0.9386009E-01
        -11   -1    0    0    0    0  0.00000000000E+00  0.00000000000E+00  0.50000000000E+03  0.50000000000E+03  0.00000000000E+00 0. -1.
         11   -1    0    0    0    0 -0.00000000000E+00 -0.00000000000E+00 -0.50000000000E+03  0.50000000000E+03  0.00000000000E+00 0. -1.
        -11    1    1    2    0    0  0.48642706522E+01  0.90172071348E+01  0.46731476439E+03  0.46742706401E+03  0.00000000000E+00 0. -1.
         11    1    1    2    0    0 -0.68159213846E+01 -0.10638593813E+02 -0.49362299164E+03  0.49378466394E+03  0.00000000000E+00 0. -1.
        -15    1    1    2    0    0  0.50566250167E+01 -0.10659533800E+02  0.31625532016E+01  0.12343200118E+02  0.17770000000E+01 0.  1.
         15    1    1    2    0    0 -0.31049742842E+01  0.12280920479E+02  0.23145674054E+02  0.26445071933E+02  0.17770000000E+01 0. -1.
</event>
<event>
 6    1  0.2408691E-003  0.5060286E+03  0.7546771E-02  0.9386420E-01
        -11   -1    0    0    0    0  0.00000000000E+00  0.00000000000E+00  0.50000000000E+03  0.50000000000E+03  0.00000000000E+00 0.  1.
         11   -1    0    0    0    0 -0.00000000000E+00 -0.00000000000E+00 -0.50000000000E+03  0.50000000000E+03  0.00000000000E+00 0. -1.
        -11    1    1    2    0    0 -0.66501836209E+01  0.13375840700E+02  0.49374547429E+03  0.49397138727E+03  0.00000000000E+00 0.  1.
         11    1    1    2    0    0  0.45498247245E+01 -0.39418501620E+01 -0.42546627184E+03  0.42550885721E+03  0.00000000000E+00 0. -1.
        -15    1    1    2    0    0  0.16490632967E+02 -0.43300022110E+01 -0.91621104773E+01  0.19436869404E+02  0.17770000000E+01 0. -1.
         15    1    1    2    0    0 -0.14390274071E+02 -0.51039883272E+01 -0.59117091970E+02  0.61082886119E+02  0.17770000000E+01 0.  1.
</event>
<event>
 6    1  0.2408691E-003  0.5045369E+03  0.7546771E-02  0.9389715E-01
        -11   -1    0    0    0    0  0.00000000000E+00  0.00000000000E+00  0.50000000000E+03  0.50000000000E+03  0.00000000000E+00 0.  1.
         11   -1    0    0    0    0 -0.00000000000E+00 -0.00000000000E+00 -0.50000000000E+03  0.50000000000E+03  0.00000000000E+00 0.  1.
        -11    1    1    2    0    0 -0.60265116564E+01  0.12600449722E+02  0.46175094034E+03  0.46196214248E+03  0.00000000000E+00 0.  1.
         11    1    1    2    0    0 -0.52107787701E+01  0.71191468720E+01 -0.49538459354E+03  0.49546314695E+03  0.00000000000E+00 0.  1.
        -15    1    1    2    0    0 -0.22489465826E+01 -0.29019822270E+01  0.29521708089E+01  0.50351070556E+01  0.17770000000E+01 0.  1.
         15    1    1    2    0    0  0.13486237009E+02 -0.16817614367E+02  0.30681482386E+02  0.37539603515E+02  0.17770000000E+01 0. -1.
</event>
<event>
 6    1  0.2408691E-003  0.5030652E+03  0.7546771E-02  0.9392977E-01
        -11   -1    0    0    0    0  0.00000000000E+00  0.00000000000E+00  0.50000000000E+03  0.50000000000E+03  0.00000000000E+00 0.  1.
         11   -1    0    0    0    0 -0.00000000000E+00 -0.00000000000E+00 -0.50000000000E+03  0.50000000000E+03  0.00000000000E+00 0.  1.
        -11    1    1    2    0    0  0.47472951123E+01 -0.92522553835E+00  0.11201202163E+03  0.11211639417E+03  0.00000000000E+00 0.  1.
         11    1    1    2    0    0  0.67043157160E+01  0.27690546200E+01 -0.49688184109E+03  0.49693478397E+03  0.00000000000E+00 0.  1.
        -15    1    1    2    0    0 -0.15420602163E+02  0.12697548833E+02  0.32079665478E+02  0.37832332516E+02  0.17770000000E+01 0. -1.
         15    1    1    2    0    0  0.39689913349E+01 -0.14541377915E+02  0.35279015399E+03  0.35311648934E+03  0.17770000000E+01 0.  1.
</event>
<event>
 6    1  0.2408691E-003  0.5044401E+03  0.7546771E-02  0.9389929E-01
        -11   -1    0    0    0    0  0.00000000000E+00  0.00000000000E+00  0.50000000000E+03  0.50000000000E+03  0.00000000000E+00 0.  1.
         11   -1    0    0    0    0 -0.00000000000E+00 -0.00000000000E+00 -0.50000000000E+03  0.50000000000E+03  0.00000000000E+00 0.  1.
        -11    1    1    2    0    0  0.13268719579E+02  0.83425922951E+01  0.49531198595E+03  0.49555990676E+03  0.00000000000E+00 0.  1.
         11    1    1    2    0    0  0.46470373821E+01  0.99464701137E+01 -0.33466776930E+03  0.33484779084E+03  0.00000000000E+00 0.  1.
        -15    1    1    2    0    0 -0.69850489117E+01 -0.27224573664E+02 -0.14768407493E+03  0.15034530933E+03  0.17770000000E+01 0.  1.
         15    1    1    2    0    0 -0.10930708049E+02  0.89355112556E+01 -0.12960141717E+02  0.19246993069E+02  0.17770000000E+01 0. -1.
</event>
<event>
 6    1  0.2408691E-003  0.5065079E+03  0.7546771E-02  0.9385364E-01
        -11   -1    0    0    0    0  0.00000000000E+00  0.00000000000E+00  0.50000000000E+03  0.50000000000E+03  0.00000000000E+00 0.  1.
         11   -1    0    0    0    0 -0.00000000000E+00 -0.00000000000E+00 -0.50000000000E+03  0.50000000000E+03  0.00000000000E+00 0.  1.
        -11    1    1    2    0    0  0.17736387053E+01 -0.98862710934E+01  0.49338986427E+03  0.49349208942E+03  0.00000000000E+00 0.  1.
         11    1    1    2    0    0  0.39132151239E+01  0.49923382129E+01 -0.44851179941E+03  0.44855665294E+03  0.00000000000E+00 0.  1.
        -15    1    1    2    0    0  0.23937998922E+01  0.40380212949E+01  0.51764337794E+01  0.72103460093E+01  0.17770000000E+01 0. -1.
         15    1    1    2    0    0 -0.80806537213E+01  0.85591158562E+00 -0.50054498646E+02  0.50740911629E+02  0.17770000000E+01 0.  1.
</event>
<event>
 6    1  0.2408691E-003  0.5185540E+03  0.7546771E-02  0.9359225E-01
        -11   -1    0    0    0    0  0.00000000000E+00  0.00000000000E+00  0.50000000000E+03  0.50000000000E+03  0.00000000000E+00 0.  1.
         11   -1    0    0    0    0 -0.00000000000E+00 -0.00000000000E+00 -0.50000000000E+03  0.50000000000E+03  0.00000000000E+00 0.  1.
        -11    1    1    2    0    0  0.19447214040E+01  0.66060612279E+01  0.43070516338E+03  0.43076021143E+03  0.00000000000E+00 0.  1.
         11    1    1    2    0    0 -0.92050550670E+01 -0.29026940313E+01 -0.48134923914E+03  0.48144599769E+03  0.00000000000E+00 0.  1.
        -15    1    1    2    0    0  0.12180693723E+02  0.54212844088E+01 -0.15669841431E+02  0.20650939051E+02  0.17770000000E+01 0.  1.
         15    1    1    2    0    0 -0.49203600597E+01 -0.91246516055E+01  0.66313917189E+02  0.67142851831E+02  0.17770000000E+01 0. -1.
</event>
<event>
 6    1  0.2408691E-003  0.5004877E+03  0.7546771E-02  0.9398719E-01
        -11   -1    0    0    0    0  0.00000000000E+00  0.00000000000E+00  0.50000000000E+03  0.50000000000E+03  0.00000000000E+00 0.  1.
         11   -1    0    0    0    0 -0.00000000000E+00 -0.00000000000E+00 -0.50000000000E+03  0.50000000000E+03  0.00000000000E+00 0. -1.
        -11    1    1    2    0    0  0.30493997219E+01 -0.55002089169E+01  0.41314360492E+03  0.41319146824E+03  0.00000000000E+00 0.  1.
         11    1    1    2    0    0 -0.82246664218E+01 -0.20779158894E+01 -0.49944022168E+03  0.49951226001E+03  0.00000000000E+00 0. -1.
        -15    1    1    2    0    0 -0.71962863531E+00  0.28161495572E+01  0.52691579519E+02  0.52801598886E+02  0.17770000000E+01 0. -1.
         15    1    1    2    0    0  0.58948953352E+01  0.47619752492E+01  0.33605037239E+02  0.34494672866E+02  0.17770000000E+01 0.  1.
</event>
<event>
 6    1  0.2408691E-003  0.5208797E+03  0.7546771E-02  0.9354265E-01
        -11   -1    0    0    0    0  0.00000000000E+00  0.00000000000E+00  0.50000000000E+03  0.50000000000E+03  0.00000000000E+00 0. -1.
         11   -1    0    0    0    0 -0.00000000000E+00 -0.00000000000E+00 -0.50000000000E+03  0.50000000000E+03  0.00000000000E+00 0. -1.
        -11    1    1    2    0    0 -0.66147487031E+01  0.27979946965E+01  0.39265791153E+03  0.39272359130E+03  0.00000000000E+00 0. -1.
         11    1    1    2    0    0 -0.24232372829E+01  0.11008324016E+02 -0.47898766187E+03  0.47912027248E+03  0.00000000000E+00 0. -1.
        -15    1    1    2    0    0  0.54402596427E+01 -0.21782881190E+02 -0.14594658901E+02  0.26837513583E+02  0.17770000000E+01 0.  1.
         15    1    1    2    0    0  0.35977263434E+01  0.79765624769E+01  0.10092440924E+03  0.10131862264E+03  0.17770000000E+01 0. -1.
</event>
<event>
 6    1  0.2408691E-003  0.5043327E+03  0.7546771E-02  0.9390167E-01
        -11   -1    0    0    0    0  0.00000000000E+00  0.00000000000E+00  0.50000000000E+03  0.50000000000E+03  0.00000000000E+00 0. -1.
         11   -1    0    0    0    0 -0.00000000000E+00 -0.00000000000E+00 -0.50000000000E+03  0.50000000000E+03  0.00000000000E+00 0. -1.
        -11    1    1    2    0    0  0.67874354272E+01 -0.13342135864E+01  0.47079218228E+03  0.47084299750E+03  0.00000000000E+00 0. -1.
         11    1    1    2    0    0  0.44225559647E+01 -0.60614982886E+01 -0.49561045552E+03  0.49566725168E+03  0.00000000000E+00 0. -1.
        -15    1    1    2    0    0  0.16447359561E+01 -0.38281234916E+01  0.93482969499E+01  0.10387880953E+02  0.17770000000E+01 0.  1.
         15    1    1    2    0    0 -0.12854727348E+02  0.11223835367E+02  0.15469976298E+02  0.23101869864E+02  0.17770000000E+01 0. -1.
</event>
<event>
 6    1  0.2408691E-003  0.5037663E+03  0.7546771E-02  0.9391421E-01
        -11   -1    0    0    0    0  0.00000000000E+00  0.00000000000E+00  0.50000000000E+03  0.50000000000E+03  0.00000000000E+00 0.  1.
         11   -1    0    0    0    0 -0.00000000000E+00 -0.00000000000E+00 -0.50000000000E+03  0.50000000000E+03  0.00000000000E+00 0. -1.
        -11    1    1    2    0    0 -0.54792942048E+01  0.66058260633E+01  0.47120520451E+03  0.47128335888E+03  0.00000000000E+00 0.  1.
         11    1    1    2    0    0 -0.23183339014E+01  0.69755873092E+01 -0.49617922585E+03  0.49623367243E+03  0.00000000000E+00 0. -1.
        -15    1    1    2    0    0 -0.22356101319E+01 -0.48932841447E+01  0.14225110716E+02  0.15311880560E+02  0.17770000000E+01 0. -1.
         15    1    1    2    0    0  0.10033238238E+02 -0.86881292278E+01  0.10748910619E+02  0.17171088128E+02  0.17770000000E+01 0.  1.
</event>
<event>
 6    1  0.2408691E-003  0.5022120E+03  0.7546771E-02  0.9394874E-01
        -11   -1    0    0    0    0  0.00000000000E+00  0.00000000000E+00  0.50000000000E+03  0.50000000000E+03  0.00000000000E+00 0.  1.
         11   -1    0    0    0    0 -0.00000000000E+00 -0.00000000000E+00 -0.50000000000E+03  0.50000000000E+03  0.00000000000E+00 0.  1.
        -11    1    1    2    0    0 -0.18745703473E+01 -0.10603106710E+02  0.46705629696E+03  0.46718039815E+03  0.00000000000E+00 0.  1.
         11    1    1    2    0    0 -0.77029754942E+01  0.14895518593E+01 -0.49772614547E+03  0.49778797744E+03  0.00000000000E+00 0.  1.
        -15    1    1    2    0    0  0.12853124173E+01 -0.15684632004E+01  0.22627754236E+01  0.35199412550E+01  0.17770000000E+01 0.  1.
         15    1    1    2    0    0  0.82922334242E+01  0.10682018051E+02  0.28407073087E+02  0.31511683154E+02  0.17770000000E+01 0. -1.
</event>
<event>
 6    1  0.2408691E-003  0.5047692E+03  0.7546771E-02  0.9389201E-01
        -11   -1    0    0    0    0  0.00000000000E+00  0.00000000000E+00  0.50000000000E+03  0.50000000000E+03  0.00000000000E+00 0.  1.
         11   -1    0    0    0    0 -0.00000000000E+00 -0.00000000000E+00 -0.50000000000E+03  0.50000000000E+03  0.00000000000E+00 0.  1.
        -11    1    1    2    0    0 -0.16735640329E+01  0.87336592097E+01  0.45428997896E+03  0.45437700493E+03  0.00000000000E+00 0.  1.
         11    1    1    2    0    0 -0.46309613661E+01 -0.14463311461E+02 -0.49499794084E+03  0.49523084982E+03  0.00000000000E+00 0.  1.
        -15    1    1    2    0    0  0.71313434007E+01  0.12247127381E+02  0.68204420484E+01  0.15827960909E+02  0.17770000000E+01 0. -1.
         15    1    1    2    0    0 -0.82681800176E+00 -0.65174751299E+01  0.33887519829E+02  0.34564184342E+02  0.17770000000E+01 0.  1.
</event>
<event>
 6    1  0.2408691E-003  0.5011564E+03  0.7546771E-02  0.9397226E-01
        -11   -1    0    0    0    0  0.00000000000E+00  0.00000000000E+00  0.50000000000E+03  0.50000000000E+03  0.00000000000E+00 0. -1.
         11   -1    0    0    0    0 -0.00000000000E+00 -0.00000000000E+00 -0.50000000000E+03  0.50000000000E+03  0.00000000000E+00 0.  1.
        -11    1    1    2    0    0 -0.52693846468E+00  0.73337086760E+01  0.49878939702E+03  0.49884358624E+03  0.00000000000E+00 0. -1.
         11    1    1    2    0    0  0.13479355816E+01  0.35712487127E+01 -0.89202352583E+02  0.89283987669E+02  0.00000000000E+00 0.  1.
        -15    1    1    2    0    0  0.19321504948E+02 -0.11065723116E+02 -0.17600098887E+03  0.17741272952E+03  0.17770000000E+01 0. -1.
         15    1    1    2    0    0 -0.20142502065E+02  0.16076572754E+00 -0.23358605557E+03  0.23445969658E+03  0.17770000000E+01 0.  1.
</event>
<event>
 6    1  0.2408691E-003  0.5054401E+03  0.7546771E-02  0.9387719E-01
        -11   -1    0    0    0    0  0.00000000000E+00  0.00000000000E+00  0.50000000000E+03  0.50000000000E+03  0.00000000000E+00 0.  1.
         11   -1    0    0    0    0 -0.00000000000E+00 -0.00000000000E+00 -0.50000000000E+03  0.50000000000E+03  0.00000000000E+00 0.  1.
        -11    1    1    2    0    0 -0.18109471814E+01  0.10766800304E+02  0.45500366631E+03  0.45513463928E+03  0.00000000000E+00 0.  1.
         11    1    1    2    0    0  0.57938419432E+01  0.77056440842E+01 -0.49446596875E+03  0.49455994562E+03  0.00000000000E+00 0.  1.
        -15    1    1    2    0    0 -0.85976000002E+01 -0.49445114682E+01  0.21405957197E+01  0.10300815427E+02  0.17770000000E+01 0. -1.
         15    1    1    2    0    0  0.46147052383E+01 -0.13527932920E+02  0.37321706724E+02  0.40004599677E+02  0.17770000000E+01 0.  1.
</event>
<event>
 6    1  0.2408691E-003  0.5269461E+03  0.7546771E-02  0.9341456E-01
        -11   -1    0    0    0    0  0.00000000000E+00  0.00000000000E+00  0.50000000000E+03  0.50000000000E+03  0.00000000000E+00 0. -1.
         11   -1    0    0    0    0 -0.00000000000E+00 -0.00000000000E+00 -0.50000000000E+03  0.50000000000E+03  0.00000000000E+00 0.  1.
        -11    1    1    2    0    0 -0.14112194458E+02  0.29808213843E+01  0.46876999416E+03  0.46899184082E+03  0.00000000000E+00 0. -1.
         11    1    1    2    0    0  0.13003428087E+02 -0.10860524625E+01 -0.47287391315E+03  0.47305391489E+03  0.00000000000E+00 0.  1.
        -15    1    1    2    0    0 -0.20279404316E+02  0.10907901776E+02 -0.14079534216E+02  0.27048614998E+02  0.17770000000E+01 0. -1.
         15    1    1    2    0    0  0.21388170687E+02 -0.12802670698E+02  0.18183453210E+02  0.30905629293E+02  0.17770000000E+01 0.  1.
</event>
<event>
 6    1  0.2408691E-003  0.5033549E+03  0.7546771E-02  0.9392334E-01
        -11   -1    0    0    0    0  0.00000000000E+00  0.00000000000E+00  0.50000000000E+03  0.50000000000E+03  0.00000000000E+00 0. -1.
         11   -1    0    0    0    0 -0.00000000000E+00 -0.00000000000E+00 -0.50000000000E+03  0.50000000000E+03  0.00000000000E+00 0. -1.
        -11    1    1    2    0    0  0.95830406952E+01 -0.86700781344E+01  0.36395538779E+03  0.36418474601E+03  0.00000000000E+00 0. -1.
         11    1    1    2    0    0  0.29171865863E+02  0.73163234960E+01 -0.49573360178E+03  0.49664507476E+03  0.00000000000E+00 0. -1.
        -15    1    1    2    0    0 -0.41388190619E+01  0.37695869254E+01  0.49893303664E+01  0.77065397761E+01  0.17770000000E+01 0.  1.
         15    1    1    2    0    0 -0.34616087496E+02 -0.24158322869E+01  0.12678888362E+03  0.13146363945E+03  0.17770000000E+01 0. -1.
</event>
<event>
 6    1  0.2408691E-003  0.5052009E+03  0.7546771E-02  0.9388247E-01
        -11   -1    0    0    0    0  0.00000000000E+00  0.00000000000E+00  0.50000000000E+03  0.50000000000E+03  0.00000000000E+00 0. -1.
         11   -1    0    0    0    0 -0.00000000000E+00 -0.00000000000E+00 -0.50000000000E+03  0.50000000000E+03  0.00000000000E+00 0. -1.
        -11    1    1    2    0    0  0.25038005851E+01 -0.13718804576E+02  0.49460255293E+03  0.49479911073E+03  0.00000000000E+00 0. -1.
         11    1    1    2    0    0  0.11024800831E+02  0.21818673353E+01 -0.44092903087E+03  0.44107223563E+03  0.00000000000E+00 0. -1.
        -15    1    1    2    0    0  0.95055992697E+01  0.17101578636E+01 -0.12378133467E+02  0.15800537159E+02  0.17770000000E+01 0.  1.
         15    1    1    2    0    0 -0.23034200686E+02  0.98267793773E+01 -0.41295388597E+02  0.48328116480E+02  0.17770000000E+01 0. -1.
</event>
<event>
 6    1  0.2408691E-003  0.5008272E+03  0.7546771E-02  0.9397961E-01
        -11   -1    0    0    0    0  0.00000000000E+00  0.00000000000E+00  0.50000000000E+03  0.50000000000E+03  0.00000000000E+00 0.  1.
         11   -1    0    0    0    0 -0.00000000000E+00 -0.00000000000E+00 -0.50000000000E+03  0.50000000000E+03  0.00000000000E+00 0. -1.
        -11    1    1    2    0    0  0.11091349340E+00  0.56497315565E+00  0.38562439841E+02  0.38566737780E+02  0.00000000000E+00 0.  1.
         11    1    1    2    0    0 -0.10604036876E+02 -0.13339200270E+01 -0.49905839346E+03  0.49917282080E+03  0.00000000000E+00 0. -1.
        -15    1    1    2    0    0 -0.47051107363E+01 -0.25510207147E+01  0.39024327009E+03  0.39028401627E+03  0.17770000000E+01 0.  1.
         15    1    1    2    0    0  0.15198234119E+02  0.33199675860E+01  0.70252683528E+02  0.71976425147E+02  0.17770000000E+01 0. -1.
</event>
<event>
 6    1  0.2408691E-003  0.5013928E+03  0.7546771E-02  0.9396699E-01
        -11   -1    0    0    0    0  0.00000000000E+00  0.00000000000E+00  0.50000000000E+03  0.50000000000E+03  0.00000000000E+00 0.  1.
         11   -1    0    0    0    0 -0.00000000000E+00 -0.00000000000E+00 -0.50000000000E+03  0.50000000000E+03  0.00000000000E+00 0. -1.
        -11    1    1    2    0    0  0.80534399497E+01 -0.30579850092E+01  0.46111830219E+03  0.46119876168E+03  0.00000000000E+00 0.  1.
         11    1    1    2    0    0 -0.86746685840E+01 -0.24714825783E+00 -0.49853165822E+03  0.49860718527E+03  0.00000000000E+00 0. -1.
        -15    1    1    2    0    0  0.31560420508E+01  0.38089282634E+01  0.36570667515E+02  0.36946447561E+02  0.17770000000E+01 0.  1.
         15    1    1    2    0    0 -0.25348134165E+01 -0.50379499636E+00  0.84268851535E+00  0.32476054854E+01  0.17770000000E+01 0.  1.
</event>
<event>
 6    1  0.2408691E-003  0.5038200E+03  0.7546771E-02  0.9391303E-01
        -11   -1    0    0    0    0  0.00000000000E+00  0.00000000000E+00  0.50000000000E+03  0.50000000000E+03  0.00000000000E+00 0. -1.
         11   -1    0    0    0    0 -0.00000000000E+00 -0.00000000000E+00 -0.50000000000E+03  0.50000000000E+03  0.00000000000E+00 0. -1.
        -11    1    1    2    0    0  0.36656171869E+01  0.74805193515E+01  0.36415924920E+03  0.36425451775E+03  0.00000000000E+00 0. -1.
         11    1    1    2    0    0 -0.60799612791E+01 -0.27875338363E+01 -0.49613492715E+03  0.49618000989E+03  0.00000000000E+00 0. -1.
        -15    1    1    2    0    0 -0.14802037694E+01 -0.84749606251E+01  0.14366804624E+01  0.89015583213E+01  0.17770000000E+01 0.  1.
         15    1    1    2    0    0  0.38945478616E+01  0.37819751099E+01  0.13053899749E+03  0.13066391404E+03  0.17770000000E+01 0. -1.
</event>
<event>
 6    1  0.2408691E-003  0.5020239E+03  0.7546771E-02  0.9395292E-01
        -11   -1    0    0    0    0  0.00000000000E+00  0.00000000000E+00  0.50000000000E+03  0.50000000000E+03  0.00000000000E+00 0.  1.
         11   -1    0    0    0    0 -0.00000000000E+00 -0.00000000000E+00 -0.50000000000E+03  0.50000000000E+03  0.00000000000E+00 0.  1.
        -11    1    1    2    0    0  0.49997136718E+01  0.17827376763E+01  0.28162427907E+03  0.28167429747E+03  0.00000000000E+00 0.  1.
         11    1    1    2    0    0  0.35419486688E+02  0.10001474138E+02 -0.49661417450E+03  0.49797611171E+03  0.00000000000E+00 0.  1.
        -15    1    1    2    0    0 -0.36482179552E+02 -0.68244236695E+01  0.13290181438E+03  0.13799844991E+03  0.17770000000E+01 0.  1.
         15    1    1    2    0    0 -0.39370208070E+01 -0.49597881449E+01  0.82088081044E+02  0.82351140913E+02  0.17770000000E+01 0. -1.
</event>
<event>
 6    1  0.2408691E-003  0.5009667E+03  0.7546771E-02  0.9397649E-01
        -11   -1    0    0    0    0  0.00000000000E+00  0.00000000000E+00  0.50000000000E+03  0.50000000000E+03  0.00000000000E+00 0. -1.
         11   -1    0    0    0    0 -0.00000000000E+00 -0.00000000000E+00 -0.50000000000E+03  0.50000000000E+03  0.00000000000E+00 0.  1.
        -11    1    1    2    0    0  0.54672680826E+01  0.68044669558E+01  0.49895693185E+03  0.49903327708E+03  0.00000000000E+00 0. -1.
         11    1    1    2    0    0  0.35126123299E+01  0.71327667254E+01 -0.20247174313E+03  0.20262779072E+03  0.00000000000E+00 0.  1.
        -15    1    1    2    0    0 -0.20457539419E+01 -0.21862517373E+01 -0.31930258267E+01  0.47241876316E+01  0.17770000000E+01 0.  1.
         15    1    1    2    0    0 -0.69341264707E+01 -0.11750981944E+02 -0.29329216289E+03  0.29361474457E+03  0.17770000000E+01 0. -1.
</event>
<event>
 6    1  0.2408691E-003  0.5049440E+03  0.7546771E-02  0.9388815E-01
        -11   -1    0    0    0    0  0.00000000000E+00  0.00000000000E+00  0.50000000000E+03  0.50000000000E+03  0.00000000000E+00 0.  1.
         11   -1    0    0    0    0 -0.00000000000E+00 -0.00000000000E+00 -0.50000000000E+03  0.50000000000E+03  0.00000000000E+00 0. -1.
        -11    1    1    2    0    0  0.18313547430E+01  0.11696290009E+02  0.49491439765E+03  0.49505597468E+03  0.00000000000E+00 0.  1.
         11    1    1    2    0    0  0.94969632531E+01 -0.49809115961E+01 -0.48372929270E+03  0.48384814809E+03  0.00000000000E+00 0. -1.
        -15    1    1    2    0    0 -0.49114177256E+00 -0.66536191832E+01 -0.43638682009E+01  0.81677991620E+01  0.17770000000E+01 0. -1.
         15    1    1    2    0    0 -0.10837176224E+02 -0.61759229693E-01 -0.68212367490E+01  0.12928078066E+02  0.17770000000E+01 0.  1.
</event>
<event>
 6    1  0.2408691E-003  0.5001652E+03  0.7546771E-02  0.9399440E-01
        -11   -1    0    0    0    0  0.00000000000E+00  0.00000000000E+00  0.50000000000E+03  0.50000000000E+03  0.00000000000E+00 0.  1.
         11   -1    0    0    0    0 -0.00000000000E+00 -0.00000000000E+00 -0.50000000000E+03  0.50000000000E+03  0.00000000000E+00 0.  1.
        -11    1    1    2    0    0  0.18558261365E+01  0.70609395490E+01  0.49978151805E+03  0.49983483947E+03  0.00000000000E+00 0.  1.
         11    1    1    2    0    0 -0.19624004702E+01 -0.30622320949E+01 -0.10578537978E+03  0.10584788546E+03  0.00000000000E+00 0.  1.
        -15    1    1    2    0    0 -0.53678750086E+01  0.19589461826E-02 -0.64718128080E+02  0.64964666683E+02  0.17770000000E+01 0. -1.
         15    1    1    2    0    0  0.54744493423E+01 -0.40006664003E+01 -0.32927801019E+03  0.32935260839E+03  0.17770000000E+01 0.  1.
</event>
<event>
 6    1  0.2408691E-003  0.5087416E+03  0.7546771E-02  0.9380459E-01
        -11   -1    0    0    0    0  0.00000000000E+00  0.00000000000E+00  0.50000000000E+03  0.50000000000E+03  0.00000000000E+00 0. -1.
         11   -1    0    0    0    0 -0.00000000000E+00 -0.00000000000E+00 -0.50000000000E+03  0.50000000000E+03  0.00000000000E+00 0.  1.
        -11    1    1    2    0    0 -0.69568551833E+01  0.85993491503E+00  0.47209817444E+03  0.47215021300E+03  0.00000000000E+00 0. -1.
         11    1    1    2    0    0  0.14334920687E+01  0.82032675833E+01 -0.49118783583E+03  0.49125842340E+03  0.00000000000E+00 0.  1.
        -15    1    1    2    0    0  0.10680038479E+02 -0.35141094670E+01  0.24567009780E+02  0.27075965095E+02  0.17770000000E+01 0.  1.
         15    1    1    2    0    0 -0.51566753644E+01 -0.55490930313E+01 -0.54773483932E+01  0.95153985048E+01  0.17770000000E+01 0. -1.
</event>
<event>
 6    1  0.2408691E-003  0.5031749E+03  0.7546771E-02  0.9392733E-01
        -11   -1    0    0    0    0  0.00000000000E+00  0.00000000000E+00  0.50000000000E+03  0.50000000000E+03  0.00000000000E+00 0. -1.
         11   -1    0    0    0    0 -0.00000000000E+00 -0.00000000000E+00 -0.50000000000E+03  0.50000000000E+03  0.00000000000E+00 0.  1.
        -11    1    1    2    0    0 -0.11912160592E+02  0.94925109175E+01  0.49659153493E+03  0.49682507978E+03  0.00000000000E+00 0. -1.
         11    1    1    2    0    0 -0.85774575330E+01 -0.54765879396E+01 -0.31732179521E+03  0.31748494061E+03  0.00000000000E+00 0.  1.
        -15    1    1    2    0    0  0.12867887893E+02 -0.69815305780E+00 -0.10530471974E+02  0.16736741783E+02  0.17770000000E+01 0. -1.
         15    1    1    2    0    0  0.76217302317E+01 -0.33177699200E+01 -0.16873926774E+03  0.16895323784E+03  0.17770000000E+01 0.  1.
</event>
<event>
 6    1  0.2408691E-003  0.5019118E+03  0.7546771E-02  0.9395542E-01
        -11   -1    0    0    0    0  0.00000000000E+00  0.00000000000E+00  0.50000000000E+03  0.50000000000E+03  0.00000000000E+00 0.  1.
         11   -1    0    0    0    0 -0.00000000000E+00 -0.00000000000E+00 -0.50000000000E+03  0.50000000000E+03  0.00000000000E+00 0. -1.
        -11    1    1    2    0    0  0.84277058483E+01  0.49653712275E+01  0.45308623760E+03  0.45319181352E+03  0.00000000000E+00 0.  1.
         11    1    1    2    0    0  0.47447551088E+01 -0.47498448444E+01 -0.49804293621E+03  0.49808818500E+03  0.00000000000E+00 0. -1.
        -15    1    1    2    0    0 -0.29283312847E+01  0.15471060453E+01  0.15753376455E+01  0.40753010841E+01  0.17770000000E+01 0. -1.
         15    1    1    2    0    0 -0.10244129672E+02 -0.17626324284E+01  0.43381360961E+02  0.44644700398E+02  0.17770000000E+01 0.  1.
</event>
<event>
 6    1  0.2408691E-003  0.5010982E+03  0.7546771E-02  0.9397356E-01
        -11   -1    0    0    0    0  0.00000000000E+00  0.00000000000E+00  0.50000000000E+03  0.50000000000E+03  0.00000000000E+00 0. -1.
         11   -1    0    0    0    0 -0.00000000000E+00 -0.00000000000E+00 -0.50000000000E+03  0.50000000000E+03  0.00000000000E+00 0. -1.
        -11    1    1    2    0    0  0.74446582799E+01 -0.13336451640E+01  0.49884449343E+03  0.49890182419E+03  0.00000000000E+00 0. -1.
         11    1    1    2    0    0 -0.65275648117E+01 -0.27698408984E+01 -0.43290321760E+03  0.43296128803E+03  0.00000000000E+00 0. -1.
        -15    1    1    2    0    0  0.34374115324E+01  0.55365348595E+01 -0.60201376880E+02  0.60579142645E+02  0.17770000000E+01 0. -1.
         15    1    1    2    0    0 -0.43545050006E+01 -0.14330487970E+01 -0.57398989526E+01  0.75577451427E+01  0.17770000000E+01 0.  1.
</event>
<event>
 6    1  0.2408691E-003  0.5017928E+03  0.7546771E-02  0.9395807E-01
        -11   -1    0    0    0    0  0.00000000000E+00  0.00000000000E+00  0.50000000000E+03  0.50000000000E+03  0.00000000000E+00 0.  1.
         11   -1    0    0    0    0 -0.00000000000E+00 -0.00000000000E+00 -0.50000000000E+03  0.50000000000E+03  0.00000000000E+00 0.  1.
        -11    1    1    2    0    0 -0.60261992902E+01 -0.55147223055E+01  0.47802401685E+03  0.47809380662E+03  0.00000000000E+00 0.  1.
         11    1    1    2    0    0  0.26133199522E+01  0.68530339667E+01 -0.49815319344E+03  0.49820718346E+03  0.00000000000E+00 0.  1.
        -15    1    1    2    0    0 -0.18453905691E+00 -0.57039121401E+01  0.13732459336E+02  0.14976876736E+02  0.17770000000E+01 0. -1.
         15    1    1    2    0    0  0.35974183949E+01  0.43656004789E+01  0.63967172548E+01  0.87221331844E+01  0.17770000000E+01 0.  1.
</event>
<event>
 6    1  0.2408691E-003  0.5088597E+03  0.7546771E-02  0.9380201E-01
        -11   -1    0    0    0    0  0.00000000000E+00  0.00000000000E+00  0.50000000000E+03  0.50000000000E+03  0.00000000000E+00 0.  1.
         11   -1    0    0    0    0 -0.00000000000E+00 -0.00000000000E+00 -0.50000000000E+03  0.50000000000E+03  0.00000000000E+00 0.  1.
        -11    1    1    2    0    0  0.28174781309E+01 -0.69092392688E+01  0.44775301242E+03  0.44781518052E+03  0.00000000000E+00 0.  1.
         11    1    1    2    0    0 -0.15155747812E+02 -0.13925424499E+02 -0.49070889251E+03  0.49114033771E+03  0.00000000000E+00 0.  1.
        -15    1    1    2    0    0  0.18937299221E+02  0.20516906613E+02  0.45772777292E+02  0.53645779226E+02  0.17770000000E+01 0. -1.
         15    1    1    2    0    0 -0.65990295396E+01  0.31775715495E+00 -0.28168972066E+01  0.73987025448E+01  0.17770000000E+01 0.  1.
</event>
<event>
 6    1  0.2408691E-003  0.5020176E+03  0.7546771E-02  0.9395307E-01
        -11   -1    0    0    0    0  0.00000000000E+00  0.00000000000E+00  0.50000000000E+03  0.50000000000E+03  0.00000000000E+00 0. -1.
         11   -1    0    0    0    0 -0.00000000000E+00 -0.00000000000E+00 -0.50000000000E+03  0.50000000000E+03  0.00000000000E+00 0.  1.
        -11    1    1    2    0    0 -0.72477240158E+01  0.20873643265E+01  0.47322098049E+03  0.47328108242E+03  0.00000000000E+00 0. -1.
         11    1    1    2    0    0  0.37886743437E+00  0.94335973978E+01 -0.49789293792E+03  0.49798244339E+03  0.00000000000E+00 0.  1.
        -15    1    1    2    0    0  0.17457085024E+01 -0.23297469529E+01  0.28492659370E+01  0.44442394647E+01  0.17770000000E+01 0. -1.
         15    1    1    2    0    0  0.51231480790E+01 -0.91912147715E+01  0.21822691487E+02  0.24292234725E+02  0.17770000000E+01 0.  1.
</event>
<event>
 6    1  0.2408691E-003  0.5038640E+03  0.7546771E-02  0.9391205E-01
        -11   -1    0    0    0    0  0.00000000000E+00  0.00000000000E+00  0.50000000000E+03  0.50000000000E+03  0.00000000000E+00 0.  1.
         11   -1    0    0    0    0 -0.00000000000E+00 -0.00000000000E+00 -0.50000000000E+03  0.50000000000E+03  0.00000000000E+00 0.  1.
        -11    1    1    2    0    0  0.30888959177E+01  0.65418677924E+01  0.30943586886E+03  0.30952042622E+03  0.00000000000E+00 0.  1.
         11    1    1    2    0    0 -0.65701188324E+01 -0.13564278707E+02 -0.49590704105E+03  0.49613601913E+03  0.00000000000E+00 0.  1.
        -15    1    1    2    0    0 -0.38593013502E+01 -0.69910850569E+01  0.17381243223E+03  0.17400485282E+03  0.17770000000E+01 0.  1.
         15    1    1    2    0    0  0.73405242649E+01  0.14013495972E+02  0.12658739951E+02  0.20338701826E+02  0.17770000000E+01 0.  1.
</event>
<event>
 6    1  0.2408691E-003  0.5021644E+03  0.7546771E-02  0.9394980E-01
        -11   -1    0    0    0    0  0.00000000000E+00  0.00000000000E+00  0.50000000000E+03  0.50000000000E+03  0.00000000000E+00 0. -1.
         11   -1    0    0    0    0 -0.00000000000E+00 -0.00000000000E+00 -0.50000000000E+03  0.50000000000E+03  0.00000000000E+00 0. -1.
        -11    1    1    2    0    0  0.68510932472E+01 -0.17138485643E+02  0.49749330637E+03  0.49783557030E+03  0.00000000000E+00 0. -1.
         11    1    1    2    0    0 -0.96960097669E+00  0.27506652919E+01 -0.17224457160E+03  0.17226926229E+03  0.00000000000E+00 0. -1.
        -15    1    1    2    0    0 -0.75728790340E+00  0.34277713202E+01  0.45604331435E+00  0.39609097057E+01  0.17770000000E+01 0.  1.
         15    1    1    2    0    0 -0.51242043671E+01  0.10960049031E+02 -0.32570477809E+03  0.32593425771E+03  0.17770000000E+01 0. -1.
</event>
<event>
 6    1  0.2408691E-003  0.5009906E+03  0.7546771E-02  0.9397596E-01
        -11   -1    0    0    0    0  0.00000000000E+00  0.00000000000E+00  0.50000000000E+03  0.50000000000E+03  0.00000000000E+00 0.  1.
         11   -1    0    0    0    0 -0.00000000000E+00 -0.00000000000E+00 -0.50000000000E+03  0.50000000000E+03  0.00000000000E+00 0. -1.
        -11    1    1    2    0    0  0.37242143487E+01  0.56688167087E+01  0.36144263709E+03  0.36150627265E+03  0.00000000000E+00 0.  1.
         11    1    1    2    0    0 -0.60102862500E+01  0.13053038889E+02 -0.49880242611E+03  0.49900938434E+03  0.00000000000E+00 0. -1.
        -15    1    1    2    0    0 -0.21190218688E+01 -0.80160575380E+01  0.99343964448E+02  0.99705207654E+02  0.17770000000E+01 0.  1.
         15    1    1    2    0    0  0.44050937702E+01 -0.10705798060E+02  0.38015824569E+02  0.39779135359E+02  0.17770000000E+01 0. -1.
</event>
<event>
 6    1  0.2408691E-003  0.5350143E+03  0.7546771E-02  0.9324700E-01
        -11   -1    0    0    0    0  0.00000000000E+00  0.00000000000E+00  0.50000000000E+03  0.50000000000E+03  0.00000000000E+00 0.  1.
         11   -1    0    0    0    0 -0.00000000000E+00 -0.00000000000E+00 -0.50000000000E+03  0.50000000000E+03  0.00000000000E+00 0.  1.
        -11    1    1    2    0    0 -0.48937128200E+01 -0.90087541172E+01  0.42626970862E+03  0.42639297668E+03  0.00000000000E+00 0.  1.
         11    1    1    2    0    0  0.28279966998E+02 -0.12594172707E+01 -0.46412325479E+03  0.46498573989E+03  0.00000000000E+00 0.  1.
        -15    1    1    2    0    0 -0.55115008079E+02  0.29718990747E+02  0.33700181029E+02  0.71131866677E+02  0.17770000000E+01 0.  1.
         15    1    1    2    0    0  0.31728753900E+02 -0.19450819359E+02  0.41533651382E+01  0.37489416757E+02  0.17770000000E+01 0. -1.
</event>
<event>
 6    1  0.2408691E-003  0.5024172E+03  0.7546771E-02  0.9394417E-01
        -11   -1    0    0    0    0  0.00000000000E+00  0.00000000000E+00  0.50000000000E+03  0.50000000000E+03  0.00000000000E+00 0. -1.
         11   -1    0    0    0    0 -0.00000000000E+00 -0.00000000000E+00 -0.50000000000E+03  0.50000000000E+03  0.00000000000E+00 0.  1.
        -11    1    1    2    0    0 -0.69438344681E+01 -0.37626964980E+01  0.49752016387E+03  0.49758284554E+03  0.00000000000E+00 0. -1.
         11    1    1    2    0    0  0.47824679747E+01  0.66544401331E+01 -0.44287035379E+03  0.44294616360E+03  0.00000000000E+00 0.  1.
        -15    1    1    2    0    0  0.16538526121E+01 -0.70430256888E+01 -0.36980690125E+01  0.83170236706E+01  0.17770000000E+01 0. -1.
         15    1    1    2    0    0  0.50751388131E+00  0.41512820538E+01 -0.50951741062E+02  0.51153967190E+02  0.17770000000E+01 0.  1.
</event>
<event>
 6    1  0.2408691E-003  0.5016544E+03  0.7546771E-02  0.9396115E-01
        -11   -1    0    0    0    0  0.00000000000E+00  0.00000000000E+00  0.50000000000E+03  0.50000000000E+03  0.00000000000E+00 0. -1.
         11   -1    0    0    0    0 -0.00000000000E+00 -0.00000000000E+00 -0.50000000000E+03  0.50000000000E+03  0.00000000000E+00 0. -1.
        -11    1    1    2    0    0 -0.99485774487E+01 -0.18440379848E+01  0.34839007242E+03  0.34853696681E+03  0.00000000000E+00 0. -1.
         11    1    1    2    0    0  0.11347769009E+02 -0.63178839863E+01 -0.49817632178E+03  0.49834559806E+03  0.00000000000E+00 0. -1.
        -15    1    1    2    0    0 -0.81381933248E+01  0.37022949617E+01  0.11934326707E+02  0.15017425263E+02  0.17770000000E+01 0.  1.
         15    1    1    2    0    0  0.67390017642E+01  0.44596270094E+01  0.13785192266E+03  0.13810000987E+03  0.17770000000E+01 0. -1.
</event>
<event>
 6    1  0.2408691E-003  0.5081469E+03  0.7546771E-02  0.9381763E-01
        -11   -1    0    0    0    0  0.00000000000E+00  0.00000000000E+00  0.50000000000E+03  0.50000000000E+03  0.00000000000E+00 0.  1.
         11   -1    0    0    0    0 -0.00000000000E+00 -0.00000000000E+00 -0.50000000000E+03  0.50000000000E+03  0.00000000000E+00 0.  1.
        -11    1    1    2    0    0  0.36441680064E+01  0.32641276590E+01  0.24961024853E+03  0.24965818765E+03  0.00000000000E+00 0.  1.
         11    1    1    2    0    0 -0.27238825006E+00 -0.72693293684E+02 -0.48645151691E+03  0.49185309539E+03  0.00000000000E+00 0.  1.
        -15    1    1    2    0    0  0.31387546130E+02  0.43574923782E+02  0.17425938136E+03  0.18235526248E+03  0.17770000000E+01 0.  1.
         15    1    1    2    0    0 -0.34759325886E+02  0.25854242243E+02  0.62581887020E+02  0.76133454473E+02  0.17770000000E+01 0. -1.
</event>
<event>
 6    1  0.2408691E-003  0.5215493E+03  0.7546771E-02  0.9352842E-01
        -11   -1    0    0    0    0  0.00000000000E+00  0.00000000000E+00  0.50000000000E+03  0.50000000000E+03  0.00000000000E+00 0.  1.
         11   -1    0    0    0    0 -0.00000000000E+00 -0.00000000000E+00 -0.50000000000E+03  0.50000000000E+03  0.00000000000E+00 0. -1.
        -11    1    1    2    0    0 -0.89799328951E+01 -0.65760068008E+01  0.39889753671E+03  0.39905278830E+03  0.00000000000E+00 0.  1.
         11    1    1    2    0    0  0.11193949853E+02 -0.29255688787E-01 -0.47831976284E+03  0.47845072985E+03  0.00000000000E+00 0. -1.
        -15    1    1    2    0    0  0.23976126449E+02  0.14118411586E+02 -0.95169904224E+01  0.29460397501E+02  0.17770000000E+01 0. -1.
         15    1    1    2    0    0 -0.26190143407E+02 -0.75131490964E+01  0.88939216554E+02  0.93036084351E+02  0.17770000000E+01 0.  1.
</event>
<event>
 6    1  0.2408691E-003  0.5034711E+03  0.7546771E-02  0.9392076E-01
        -11   -1    0    0    0    0  0.00000000000E+00  0.00000000000E+00  0.50000000000E+03  0.50000000000E+03  0.00000000000E+00 0.  1.
         11   -1    0    0    0    0 -0.00000000000E+00 -0.00000000000E+00 -0.50000000000E+03  0.50000000000E+03  0.00000000000E+00 0. -1.
        -11    1    1    2    0    0 -0.12248472056E+01  0.10272841510E+02  0.49642107194E+03  0.49652886340E+03  0.00000000000E+00 0.  1.
         11    1    1    2    0    0 -0.12114649051E+02  0.74633067475E+01 -0.37911437014E+03  0.37938130070E+03  0.00000000000E+00 0. -1.
        -15    1    1    2    0    0  0.50722066676E+01 -0.37374300399E+01 -0.10023485324E+03  0.10044839071E+03  0.17770000000E+01 0.  1.
         15    1    1    2    0    0  0.82672895890E+01 -0.13998718218E+02 -0.17071848559E+02  0.23641445199E+02  0.17770000000E+01 0.  1.
</event>
<event>
 6    1  0.2408691E-003  0.5163914E+03  0.7546771E-02  0.9363862E-01
        -11   -1    0    0    0    0  0.00000000000E+00  0.00000000000E+00  0.50000000000E+03  0.50000000000E+03  0.00000000000E+00 0.  1.
         11   -1    0    0    0    0 -0.00000000000E+00 -0.00000000000E+00 -0.50000000000E+03  0.50000000000E+03  0.00000000000E+00 0. -1.
        -11    1    1    2    0    0 -0.31024686699E+01  0.25393063354E+02  0.37465249216E+03  0.37552486317E+03  0.00000000000E+00 0.  1.
         11    1    1    2    0    0  0.36437860739E+01  0.15063218364E+02 -0.48336025405E+03  0.48360863611E+03  0.00000000000E+00 0. -1.
        -15    1    1    2    0    0  0.14631397061E+02 -0.30779213545E+02  0.11633736279E+03  0.12123933964E+03  0.17770000000E+01 0.  1.
         15    1    1    2    0    0 -0.15172714465E+02 -0.96770681739E+01 -0.76296009022E+01  0.19627161068E+02  0.17770000000E+01 0. -1.
</event>
<event>
 6    1  0.2408691E-003  0.5023557E+03  0.7546771E-02  0.9394554E-01
        -11   -1    0    0    0    0  0.00000000000E+00  0.00000000000E+00  0.50000000000E+03  0.50000000000E+03  0.00000000000E+00 0.  1.
         11   -1    0    0    0    0 -0.00000000000E+00 -0.00000000000E+00 -0.50000000000E+03  0.50000000000E+03  0.00000000000E+00 0. -1.
        -11    1    1    2    0    0 -0.10277935317E+02 -0.43002027098E+01  0.49751958464E+03  0.49764431555E+03  0.00000000000E+00 0.  1.
         11    1    1    2    0    0 -0.21745211265E+01  0.62286821737E+01 -0.46203558923E+03  0.46208268821E+03  0.00000000000E+00 0. -1.
        -15    1    1    2    0    0  0.13600363799E+01 -0.49764479327E+01 -0.20968658786E+02  0.21666959022E+02  0.17770000000E+01 0. -1.
         15    1    1    2    0    0  0.11092420064E+02  0.30479684688E+01 -0.14515336627E+02  0.18606037221E+02  0.17770000000E+01 0. -1.
</event>
<event>
 6    1  0.2408691E-003  0.5042928E+03  0.7546771E-02  0.9390255E-01
        -11   -1    0    0    0    0  0.00000000000E+00  0.00000000000E+00  0.50000000000E+03  0.50000000000E+03  0.00000000000E+00 0. -1.
         11   -1    0    0    0    0 -0.00000000000E+00 -0.00000000000E+00 -0.50000000000E+03  0.50000000000E+03  0.00000000000E+00 0. -1.
        -11    1    1    2    0    0 -0.83613832736E+00  0.15876852027E+01  0.57668609410E+02  0.57696519678E+02  0.00000000000E+00 0. -1.
         11    1    1    2    0    0 -0.29641639656E+02 -0.65673800074E+02 -0.49044263277E+03  0.49570722292E+03  0.00000000000E+00 0. -1.
        -15    1    1    2    0    0  0.13327644305E+01 -0.20547729503E+02  0.75917230173E+02  0.78680169134E+02  0.17770000000E+01 0.  1.
         15    1    1    2    0    0  0.29145013552E+02  0.84633844375E+02  0.35685679319E+03  0.36791608826E+03  0.17770000000E+01 0. -1.
</event>
<event>
 6    1  0.2408691E-003  0.5044682E+03  0.7546771E-02  0.9389867E-01
        -11   -1    0    0    0    0  0.00000000000E+00  0.00000000000E+00  0.50000000000E+03  0.50000000000E+03  0.00000000000E+00 0. -1.
         11   -1    0    0    0    0 -0.00000000000E+00 -0.00000000000E+00 -0.50000000000E+03  0.50000000000E+03  0.00000000000E+00 0. -1.
        -11    1    1    2    0    0 -0.30226079211E+01  0.63278862564E+01  0.49548215387E+03  0.49553177810E+03  0.00000000000E+00 0. -1.
         11    1    1    2    0    0  0.77859363669E+01 -0.94684080669E+00 -0.47027430310E+03  0.47033970433E+03  0.00000000000E+00 0. -1.
        -15    1    1    2    0    0 -0.82618883221E+01 -0.47186860788E+01 -0.27761330387E+02  0.29400237938E+02  0.17770000000E+01 0. -1.
         15    1    1    2    0    0  0.34985598763E+01 -0.66235937086E+00  0.25534796217E+01  0.47282796366E+01  0.17770000000E+01 0.  1.
</event>
<event>
 6    1  0.2408691E-003  0.5022339E+03  0.7546771E-02  0.9394825E-01
        -11   -1    0    0    0    0  0.00000000000E+00  0.00000000000E+00  0.50000000000E+03  0.50000000000E+03  0.00000000000E+00 0.  1.
         11   -1    0    0    0    0 -0.00000000000E+00 -0.00000000000E+00 -0.50000000000E+03  0.50000000000E+03  0.00000000000E+00 0.  1.
        -11    1    1    2    0    0 -0.62324460829E+01  0.17013758933E+01  0.31522624408E+03  0.31529244047E+03  0.00000000000E+00 0.  1.
         11    1    1    2    0    0 -0.15276634661E+02  0.19628031644E+01 -0.49752775228E+03  0.49776610215E+03  0.00000000000E+00 0.  1.
        -15    1    1    2    0    0 -0.25815471429E+01  0.39976308895E+01  0.30871673206E+01  0.59442215172E+01  0.17770000000E+01 0. -1.
         15    1    1    2    0    0  0.24090627887E+02 -0.76618099473E+01  0.17921434088E+03  0.18099723586E+03  0.17770000000E+01 0.  1.
</event>
<event>
 6    1  0.2408691E-003  0.5004557E+03  0.7546771E-02  0.9398791E-01
        -11   -1    0    0    0    0  0.00000000000E+00  0.00000000000E+00  0.50000000000E+03  0.50000000000E+03  0.00000000000E+00 0. -1.
         11   -1    0    0    0    0 -0.00000000000E+00 -0.00000000000E+00 -0.50000000000E+03  0.50000000000E+03  0.00000000000E+00 0. -1.
        -11    1    1    2    0    0 -0.32373870731E+01 -0.86340439530E+01  0.13394797210E+03  0.13426498658E+03  0.00000000000E+00 0. -1.
         11    1    1    2    0    0  0.10214266590E+02  0.95731535743E+01 -0.49934813566E+03  0.49954432946E+03  0.00000000000E+00 0. -1.
        -15    1    1    2    0    0 -0.34570960683E+00 -0.50485602476E+01  0.32286448212E+03  0.32290902591E+03  0.17770000000E+01 0. -1.
         15    1    1    2    0    0 -0.66311699102E+01  0.41094506264E+01  0.42535681440E+02  0.43281658048E+02  0.17770000000E+01 0.  1.
</event>
<event>
 6    1  0.2408691E-003  0.4027397E+03  0.7546771E-02  0.9648340E-01
        -11   -1    0    0    0    0  0.00000000000E+00  0.00000000000E+00  0.50000000000E+03  0.50000000000E+03  0.00000000000E+00 0.  1.
         11   -1    0    0    0    0 -0.00000000000E+00 -0.00000000000E+00 -0.50000000000E+03  0.50000000000E+03  0.00000000000E+00 0.  1.
        -11    1    1    2    0    0 -0.18048403403E+03 -0.10442965125E+03  0.16805714107E+03  0.26781195130E+03  0.00000000000E+00 0.  1.
         11    1    1    2    0    0 -0.21725523771E+02  0.10108528162E+02 -0.33046904193E+03  0.33133663908E+03  0.00000000000E+00 0.  1.
        -15    1    1    2    0    0  0.17289376155E+03  0.91462382901E+02  0.24479358102E+03  0.31334433984E+03  0.17770000000E+01 0.  1.
         15    1    1    2    0    0  0.29315796250E+02  0.28587401841E+01 -0.82381680162E+02  0.87507069775E+02  0.17770000000E+01 0. -1.
</event>
<event>
 6    1  0.2408691E-003  0.5061071E+03  0.7546771E-02  0.9386247E-01
        -11   -1    0    0    0    0  0.00000000000E+00  0.00000000000E+00  0.50000000000E+03  0.50000000000E+03  0.00000000000E+00 0. -1.
         11   -1    0    0    0    0 -0.00000000000E+00 -0.00000000000E+00 -0.50000000000E+03  0.50000000000E+03  0.00000000000E+00 0.  1.
        -11    1    1    2    0    0  0.48011742104E+01  0.49370516045E+01  0.49384491041E+03  0.49389292492E+03  0.00000000000E+00 0. -1.
         11    1    1    2    0    0 -0.11304679945E+02  0.23661569543E+02 -0.43955418229E+03  0.44033571832E+03  0.00000000000E+00 0.  1.
        -15    1    1    2    0    0  0.92449889830E+01 -0.14076424763E+02 -0.11511727238E+02  0.20476648857E+02  0.17770000000E+01 0. -1.
         15    1    1    2    0    0 -0.27414832483E+01 -0.14522196385E+02 -0.42779000881E+02  0.45294707898E+02  0.17770000000E+01 0.  1.
</event>
<event>
 6    1  0.2408691E-003  0.5005882E+03  0.7546771E-02  0.9398495E-01
        -11   -1    0    0    0    0  0.00000000000E+00  0.00000000000E+00  0.50000000000E+03  0.50000000000E+03  0.00000000000E+00 0. -1.
         11   -1    0    0    0    0 -0.00000000000E+00 -0.00000000000E+00 -0.50000000000E+03  0.50000000000E+03  0.00000000000E+00 0. -1.
        -11    1    1    2    0    0 -0.58124787892E+01  0.59094495869E+01  0.49934299450E+03  0.49941178667E+03  0.00000000000E+00 0. -1.
         11    1    1    2    0    0  0.19583788285E+01 -0.28410739547E+01 -0.14118193020E+03  0.14122409271E+03  0.00000000000E+00 0. -1.
        -15    1    1    2    0    0  0.13059218469E+02  0.15851530234E+01 -0.87542121815E+02  0.88542852439E+02  0.17770000000E+01 0.  1.
         15    1    1    2    0    0 -0.92051185081E+01 -0.46535286556E+01 -0.27061894249E+03  0.27082126818E+03  0.17770000000E+01 0. -1.
</event>
<event>
 6    1  0.2408691E-003  0.5035545E+03  0.7546771E-02  0.9391891E-01
        -11   -1    0    0    0    0  0.00000000000E+00  0.00000000000E+00  0.50000000000E+03  0.50000000000E+03  0.00000000000E+00 0.  1.
         11   -1    0    0    0    0 -0.00000000000E+00 -0.00000000000E+00 -0.50000000000E+03  0.50000000000E+03  0.00000000000E+00 0.  1.
        -11    1    1    2    0    0  0.73549300733E+01  0.70170172943E+00  0.49639050806E+03  0.49644548933E+03  0.00000000000E+00 0.  1.
         11    1    1    2    0    0 -0.16799909603E+01 -0.84000959325E+01 -0.47463904691E+03  0.47471634566E+03  0.00000000000E+00 0.  1.
        -15    1    1    2    0    0 -0.78470889043E+01 -0.24457021780E+01 -0.96875237048E+01  0.12828254283E+02  0.17770000000E+01 0. -1.
         15    1    1    2    0    0  0.21721497913E+01  0.10144096381E+02 -0.12063937443E+02  0.16009910735E+02  0.17770000000E+01 0.  1.
</event>
<event>
 6    1  0.2408691E-003  0.5084469E+03  0.7546771E-02  0.9381105E-01
        -11   -1    0    0    0    0  0.00000000000E+00  0.00000000000E+00  0.50000000000E+03  0.50000000000E+03  0.00000000000E+00 0.  1.
         11   -1    0    0    0    0 -0.00000000000E+00 -0.00000000000E+00 -0.50000000000E+03  0.50000000000E+03  0.00000000000E+00 0.  1.
        -11    1    1    2    0    0 -0.78352376078E+01 -0.85778813370E+01  0.49141579193E+03  0.49155310146E+03  0.00000000000E+00 0.  1.
         11    1    1    2    0    0  0.12814145905E+02 -0.12248297428E+02 -0.45417509682E+03  0.45452089247E+03  0.00000000000E+00 0.  1.
        -15    1    1    2    0    0 -0.54222462342E+00  0.93533449154E+01  0.43766591840E+01  0.10492470789E+02  0.17770000000E+01 0. -1.
         15    1    1    2    0    0 -0.44366836736E+01  0.11472833850E+02 -0.41617354299E+02  0.43433535274E+02  0.17770000000E+01 0.  1.
</event>
<event>
 6    1  0.2408691E-003  0.5135224E+03  0.7546771E-02  0.9370050E-01
        -11   -1    0    0    0    0  0.00000000000E+00  0.00000000000E+00  0.50000000000E+03  0.50000000000E+03  0.00000000000E+00 0.  1.
         11   -1    0    0    0    0 -0.00000000000E+00 -0.00000000000E+00 -0.50000000000E+03  0.50000000000E+03  0.00000000000E+00 0. -1.
        -11    1    1    2    0    0  0.61071758059E+01 -0.96786272066E+01  0.47387893816E+03  0.47401711093E+03  0.00000000000E+00 0.  1.
         11    1    1    2    0    0  0.10246594872E+02  0.29513420020E+01 -0.48636067511E+03  0.48647755284E+03  0.00000000000E+00 0. -1.
        -15    1    1    2    0    0 -0.58265238476E+01 -0.24712576530E+01 -0.10593401028E+02  0.12467291963E+02  0.17770000000E+01 0. -1.
         15    1    1    2    0    0 -0.10527246830E+02  0.91985428576E+01  0.23075137974E+02  0.27038044272E+02  0.17770000000E+01 0. -1.
</event>
<event>
 6    1  0.2408691E-003  0.5004968E+03  0.7546771E-02  0.9398699E-01
        -11   -1    0    0    0    0  0.00000000000E+00  0.00000000000E+00  0.50000000000E+03  0.50000000000E+03  0.00000000000E+00 0. -1.
         11   -1    0    0    0    0 -0.00000000000E+00 -0.00000000000E+00 -0.50000000000E+03  0.50000000000E+03  0.00000000000E+00 0. -1.
        -11    1    1    2    0    0 -0.23379981127E+02  0.31323741772E+01  0.49894588552E+03  0.49950318514E+03  0.00000000000E+00 0. -1.
         11    1    1    2    0    0 -0.58056203811E+00 -0.58661251007E+01 -0.11263513688E+03  0.11278928378E+03  0.00000000000E+00 0. -1.
        -15    1    1    2    0    0  0.18384847233E+02  0.70595453603E+00 -0.12852056230E+03  0.12984295761E+03  0.17770000000E+01 0.  1.
         15    1    1    2    0    0  0.55756959322E+01  0.20277963874E+01 -0.25779018634E+03  0.25786457346E+03  0.17770000000E+01 0. -1.
</event>
<event>
 6    1  0.2408691E-003  0.5019213E+03  0.7546771E-02  0.9395521E-01
        -11   -1    0    0    0    0  0.00000000000E+00  0.00000000000E+00  0.50000000000E+03  0.50000000000E+03  0.00000000000E+00 0. -1.
         11   -1    0    0    0    0 -0.00000000000E+00 -0.00000000000E+00 -0.50000000000E+03  0.50000000000E+03  0.00000000000E+00 0.  1.
        -11    1    1    2    0    0  0.99693429420E+01 -0.69439516168E+01  0.49793053443E+03  0.49807873211E+03  0.00000000000E+00 0. -1.
         11    1    1    2    0    0 -0.73044200845E+01  0.15769868087E+01 -0.25842660667E+03  0.25853462529E+03  0.00000000000E+00 0.  1.
        -15    1    1    2    0    0  0.18762031258E+02  0.81742560665E+01 -0.89736906917E+02  0.92058147229E+02  0.17770000000E+01 0.  1.
         15    1    1    2    0    0 -0.21426954115E+02 -0.28072912584E+01 -0.14976702085E+03  0.15132849537E+03  0.17770000000E+01 0. -1.
</event>
<event>
 6    1  0.2408691E-003  0.5012923E+03  0.7546771E-02  0.9396923E-01
        -11   -1    0    0    0    0  0.00000000000E+00  0.00000000000E+00  0.50000000000E+03  0.50000000000E+03  0.00000000000E+00 0.  1.
         11   -1    0    0    0    0 -0.00000000000E+00 -0.00000000000E+00 -0.50000000000E+03  0.50000000000E+03  0.00000000000E+00 0. -1.
        -11    1    1    2    0    0 -0.20043593073E+00  0.87167623179E+01  0.48435874695E+03  0.48443721767E+03  0.00000000000E+00 0.  1.
         11    1    1    2    0    0  0.31989732898E+01 -0.83237801136E+01 -0.49862798181E+03  0.49870771299E+03  0.00000000000E+00 0. -1.
        -15    1    1    2    0    0 -0.77898783675E+00 -0.28375685671E+01  0.18950717457E+01  0.39252571055E+01  0.17770000000E+01 0. -1.
         15    1    1    2    0    0 -0.22195495223E+01  0.24445863628E+01  0.12374163119E+02  0.12929812236E+02  0.17770000000E+01 0.  1.
</event>
<event>
 6    1  0.2408691E-003  0.5068992E+03  0.7546771E-02  0.9384503E-01
        -11   -1    0    0    0    0  0.00000000000E+00  0.00000000000E+00  0.50000000000E+03  0.50000000000E+03  0.00000000000E+00 0.  1.
         11   -1    0    0    0    0 -0.00000000000E+00 -0.00000000000E+00 -0.50000000000E+03  0.50000000000E+03  0.00000000000E+00 0. -1.
        -11    1    1    2    0    0  0.83859271171E+01  0.65390116279E+01  0.46551874997E+03  0.46564019266E+03  0.00000000000E+00 0.  1.
         11    1    1    2    0    0 -0.14267306205E+00 -0.11403568589E+02 -0.49296887871E+03  0.49310077785E+03  0.00000000000E+00 0. -1.
        -15    1    1    2    0    0  0.89764233869E+01  0.37077876216E+01  0.14172659739E+01  0.99744793202E+01  0.17770000000E+01 0. -1.
         15    1    1    2    0    0 -0.17219677442E+02  0.11567693399E+01  0.26032862766E+02  0.31284550169E+02  0.17770000000E+01 0.  1.
</event>
<event>
 6    1  0.2408691E-003  0.5017023E+03  0.7546771E-02  0.9396009E-01
        -11   -1    0    0    0    0  0.00000000000E+00  0.00000000000E+00  0.50000000000E+03  0.50000000000E+03  0.00000000000E+00 0. -1.
         11   -1    0    0    0    0 -0.00000000000E+00 -0.00000000000E+00 -0.50000000000E+03  0.50000000000E+03  0.00000000000E+00 0.  1.
        -11    1    1    2    0    0 -0.78550951924E+01 -0.10425090555E+02  0.49812669401E+03  0.49829769046E+03  0.00000000000E+00 0. -1.
         11    1    1    2    0    0  0.62341501410E+01  0.14325095665E+01 -0.45768085314E+03  0.45772555100E+03  0.00000000000E+00 0.  1.
        -15    1    1    2    0    0  0.24258371307E+00  0.98689694661E+00  0.57120105543E+00  0.21252792962E+01  0.17770000000E+01 0. -1.
         15    1    1    2    0    0  0.13783613383E+01  0.80056840419E+01 -0.41017041927E+02  0.41851479238E+02  0.17770000000E+01 0.  1.
</event>
<event>
 6    1  0.2408691E-003  0.5126943E+03  0.7546771E-02  0.9371845E-01
        -11   -1    0    0    0    0  0.00000000000E+00  0.00000000000E+00  0.50000000000E+03  0.50000000000E+03  0.00000000000E+00 0.  1.
         11   -1    0    0    0    0 -0.00000000000E+00 -0.00000000000E+00 -0.50000000000E+03  0.50000000000E+03  0.00000000000E+00 0.  1.
        -11    1    1    2    0    0 -0.21424261508E+02 -0.19980850832E+02  0.32921277471E+03  0.33051366751E+03  0.00000000000E+00 0.  1.
         11    1    1    2    0    0  0.41693273644E+01 -0.56454690773E+01 -0.48725514999E+03  0.48730569031E+03  0.00000000000E+00 0.  1.
        -15    1    1    2    0    0 -0.21493692620E+02 -0.18606404274E+02  0.30549672331E+02  0.41768616340E+02  0.17770000000E+01 0. -1.
         15    1    1    2    0    0  0.38748626764E+02  0.44232724184E+02  0.12749270295E+03  0.14041202584E+03  0.17770000000E+01 0.  1.
</event>
<event>
 6    1  0.2408691E-003  0.5193252E+03  0.7546771E-02  0.9357577E-01
        -11   -1    0    0    0    0  0.00000000000E+00  0.00000000000E+00  0.50000000000E+03  0.50000000000E+03  0.00000000000E+00 0.  1.
         11   -1    0    0    0    0 -0.00000000000E+00 -0.00000000000E+00 -0.50000000000E+03  0.50000000000E+03  0.00000000000E+00 0.  1.
        -11    1    1    2    0    0  0.29870472580E+02 -0.24663200814E+02  0.47911141920E+03  0.48067480755E+03  0.00000000000E+00 0.  1.
         11    1    1    2    0    0 -0.33882198219E+01 -0.11254243339E+02 -0.43408390278E+03  0.43424298806E+03  0.00000000000E+00 0.  1.
        -15    1    1    2    0    0 -0.20342835125E+00  0.17856481528E+02 -0.49667818959E+02  0.52810465675E+02  0.17770000000E+01 0. -1.
         15    1    1    2    0    0 -0.26278824407E+02  0.18060962626E+02  0.46403025370E+01  0.32271738717E+02  0.17770000000E+01 0.  1.
</event>
<event>
 6    1  0.2408691E-003  0.5197337E+03  0.7546771E-02  0.9356705E-01
        -11   -1    0    0    0    0  0.00000000000E+00  0.00000000000E+00  0.50000000000E+03  0.50000000000E+03  0.00000000000E+00 0. -1.
         11   -1    0    0    0    0 -0.00000000000E+00 -0.00000000000E+00 -0.50000000000E+03  0.50000000000E+03  0.00000000000E+00 0. -1.
        -11    1    1    2    0    0  0.39352295622E+02  0.11461042326E+02  0.43329335554E+03  0.43522763081E+03  0.00000000000E+00 0. -1.
         11    1    1    2    0    0  0.18315146582E+01  0.22786783697E+02 -0.47972194168E+03  0.48026631496E+03  0.00000000000E+00 0. -1.
        -15    1    1    2    0    0 -0.29471243551E+02 -0.25015045197E+02  0.33006092264E+01  0.38837590462E+02  0.17770000000E+01 0. -1.
         15    1    1    2    0    0 -0.11712566729E+02 -0.92327808256E+01  0.43127976916E+02  0.45668463769E+02  0.17770000000E+01 0.  1.
</event>
<event>
 6    1  0.2408691E-003  0.5016849E+03  0.7546771E-02  0.9396048E-01
        -11   -1    0    0    0    0  0.00000000000E+00  0.00000000000E+00  0.50000000000E+03  0.50000000000E+03  0.00000000000E+00 0.  1.
         11   -1    0    0    0    0 -0.00000000000E+00 -0.00000000000E+00 -0.50000000000E+03  0.50000000000E+03  0.00000000000E+00 0.  1.
        -11    1    1    2    0    0 -0.41345801158E+01 -0.23761806309E+01  0.31007386048E+03  0.31011052859E+03  0.00000000000E+00 0.  1.
         11    1    1    2    0    0  0.12326915587E+02 -0.93961089564E+01 -0.49807399427E+03  0.49831510461E+03  0.00000000000E+00 0.  1.
        -15    1    1    2    0    0 -0.88665361921E+01  0.14538162915E+02  0.39678247599E+02  0.43214519626E+02  0.17770000000E+01 0. -1.
         15    1    1    2    0    0  0.67420072109E+00 -0.27658733277E+01  0.14832188619E+03  0.14835984717E+03  0.17770000000E+01 0.  1.
</event>
<event>
 6    1  0.2408691E-003  0.5074449E+03  0.7546771E-02  0.9383303E-01
        -11   -1    0    0    0    0  0.00000000000E+00  0.00000000000E+00  0.50000000000E+03  0.50000000000E+03  0.00000000000E+00 0.  1.
         11   -1    0    0    0    0 -0.00000000000E+00 -0.00000000000E+00 -0.50000000000E+03  0.50000000000E+03  0.00000000000E+00 0.  1.
        -11    1    1    2    0    0 -0.59278371541E+01  0.49668415966E+01  0.36636531342E+03  0.36644692882E+03  0.00000000000E+00 0.  1.
         11    1    1    2    0    0  0.24152059592E+01  0.10734033973E+02 -0.49243217146E+03  0.49255506920E+03  0.00000000000E+00 0.  1.
        -15    1    1    2    0    0  0.28218906737E+01 -0.67250274851E+01  0.13056368249E+03  0.13077928726E+03  0.17770000000E+01 0.  1.
         15    1    1    2    0    0  0.69074052117E+00 -0.89758480849E+01 -0.44968244445E+01  0.10218714713E+02  0.17770000000E+01 0. -1.
</event>
<event>
 6    1  0.2408691E-003  0.5019230E+03  0.7546771E-02  0.9395517E-01
        -11   -1    0    0    0    0  0.00000000000E+00  0.00000000000E+00  0.50000000000E+03  0.50000000000E+03  0.00000000000E+00 0. -1.
         11   -1    0    0    0    0 -0.00000000000E+00 -0.00000000000E+00 -0.50000000000E+03  0.50000000000E+03  0.00000000000E+00 0. -1.
        -11    1    1    2    0    0  0.26548535088E+01  0.14106924081E+02  0.37432338693E+03  0.37459852049E+03  0.00000000000E+00 0. -1.
         11    1    1    2    0    0 -0.10778791536E+02 -0.85217164947E+01 -0.49788743133E+03  0.49807699834E+03  0.00000000000E+00 0. -1.
        -15    1    1    2    0    0 -0.45240882326E+01 -0.13690403507E+02  0.77203374786E+02  0.78558343477E+02  0.17770000000E+01 0. -1.
         15    1    1    2    0    0  0.12648026260E+02  0.81051959208E+01  0.46360669617E+02  0.48766137694E+02  0.17770000000E+01 0.  1.
</event>
<event>
 6    1  0.2408691E-003  0.5083293E+03  0.7546771E-02  0.9381363E-01
        -11   -1    0    0    0    0  0.00000000000E+00  0.00000000000E+00  0.50000000000E+03  0.50000000000E+03  0.00000000000E+00 0. -1.
         11   -1    0    0    0    0 -0.00000000000E+00 -0.00000000000E+00 -0.50000000000E+03  0.50000000000E+03  0.00000000000E+00 0. -1.
        -11    1    1    2    0    0 -0.41362902825E+01  0.12642005447E+02  0.49149076614E+03  0.49167072559E+03  0.00000000000E+00 0. -1.
         11    1    1    2    0    0 -0.23002451519E+01 -0.89929613346E+01 -0.41473974363E+03  0.41484360840E+03  0.00000000000E+00 0. -1.
        -15    1    1    2    0    0 -0.99722354408E+01  0.81826544414E+01 -0.71272364132E+02  0.72452114747E+02  0.17770000000E+01 0.  1.
         15    1    1    2    0    0  0.16408770875E+02 -0.11831698554E+02 -0.54786583807E+01  0.21033551268E+02  0.17770000000E+01 0. -1.
</event>
<event>
 6    1  0.2408691E-003  0.5087894E+03  0.7546771E-02  0.9380355E-01
        -11   -1    0    0    0    0  0.00000000000E+00  0.00000000000E+00  0.50000000000E+03  0.50000000000E+03  0.00000000000E+00 0. -1.
         11   -1    0    0    0    0 -0.00000000000E+00 -0.00000000000E+00 -0.50000000000E+03  0.50000000000E+03  0.00000000000E+00 0.  1.
        -11    1    1    2    0    0  0.55766306880E+01  0.39155062375E+01  0.49116332183E+03  0.49121058489E+03  0.00000000000E+00 0. -1.
         11    1    1    2    0    0 -0.60754398229E+01 -0.93031408581E+01 -0.42592790533E+03  0.42607281061E+03  0.00000000000E+00 0.  1.
        -15    1    1    2    0    0 -0.72337995779E+01 -0.18274795502E+02 -0.10041402336E+02  0.22142346236E+02  0.17770000000E+01 0.  1.
         15    1    1    2    0    0  0.77326087128E+01  0.23662430122E+02 -0.55194014160E+02  0.60574258270E+02  0.17770000000E+01 0. -1.
</event>
<event>
 6    1  0.2408691E-003  0.5041394E+03  0.7546771E-02  0.9390595E-01
        -11   -1    0    0    0    0  0.00000000000E+00  0.00000000000E+00  0.50000000000E+03  0.50000000000E+03  0.00000000000E+00 0. -1.
         11   -1    0    0    0    0 -0.00000000000E+00 -0.00000000000E+00 -0.50000000000E+03  0.50000000000E+03  0.00000000000E+00 0.  1.
        -11    1    1    2    0    0 -0.17989665655E+02  0.25757130594E+02  0.49486431263E+03  0.49586061122E+03  0.00000000000E+00 0. -1.
         11    1    1    2    0    0 -0.41225761255E+01 -0.44337963993E+01 -0.24264206288E+03  0.24271758251E+03  0.00000000000E+00 0.  1.
        -15    1    1    2    0    0  0.39089610844E+02 -0.15984146069E+00 -0.18110547475E+03  0.18528457555E+03  0.17770000000E+01 0. -1.
         15    1    1    2    0    0 -0.16977369063E+02 -0.21163492734E+02 -0.71116775005E+02  0.76137230716E+02  0.17770000000E+01 0.  1.
</event>
<event>
 6    1  0.2408691E-003  0.5019726E+03  0.7546771E-02  0.9395407E-01
        -11   -1    0    0    0    0  0.00000000000E+00  0.00000000000E+00  0.50000000000E+03  0.50000000000E+03  0.00000000000E+00 0.  1.
         11   -1    0    0    0    0 -0.00000000000E+00 -0.00000000000E+00 -0.50000000000E+03  0.50000000000E+03  0.00000000000E+00 0.  1.
        -11    1    1    2    0    0  0.77117023334E+01  0.19929999532E+01  0.34005563604E+03  0.34014890564E+03  0.00000000000E+00 0.  1.
         11    1    1    2    0    0 -0.10249004561E+02 -0.71196044503E+01 -0.49787105319E+03  0.49802742541E+03  0.00000000000E+00 0.  1.
        -15    1    1    2    0    0  0.11623272221E+02  0.36880233058E+01  0.18713510794E+02  0.22406588054E+02  0.17770000000E+01 0.  1.
         15    1    1    2    0    0 -0.90859699929E+01  0.14385811912E+01  0.13910190635E+03  0.13941708090E+03  0.17770000000E+01 0. -1.
</event>
<event>
 6    1  0.2408691E-003  0.5033914E+03  0.7546771E-02  0.9392253E-01
        -11   -1    0    0    0    0  0.00000000000E+00  0.00000000000E+00  0.50000000000E+03  0.50000000000E+03  0.00000000000E+00 0.  1.
         11   -1    0    0    0    0 -0.00000000000E+00 -0.00000000000E+00 -0.50000000000E+03  0.50000000000E+03  0.00000000000E+00 0. -1.
        -11    1    1    2    0    0  0.18545671852E+01 -0.94984481453E+01  0.46861371464E+03  0.46871363698E+03  0.00000000000E+00 0.  1.
         11    1    1    2    0    0  0.29180981247E+01  0.62576163860E+01 -0.49656057060E+03  0.49660857155E+03  0.00000000000E+00 0. -1.
        -15    1    1    2    0    0  0.54383632330E+00  0.90629492976E+01  0.23922702765E+02  0.25649293256E+02  0.17770000000E+01 0.  1.
         15    1    1    2    0    0 -0.53165016331E+01 -0.58221175383E+01  0.40241531892E+01  0.90284982215E+01  0.17770000000E+01 0. -1.
</event>
<event>
 6    1  0.2408691E-003  0.5018386E+03  0.7546771E-02  0.9395705E-01
        -11   -1    0    0    0    0  0.00000000000E+00  0.00000000000E+00  0.50000000000E+03  0.50000000000E+03  0.00000000000E+00 0.  1.
         11   -1    0    0    0    0 -0.00000000000E+00 -0.00000000000E+00 -0.50000000000E+03  0.50000000000E+03  0.00000000000E+00 0. -1.
        -11    1    1    2    0    0 -0.12153514574E+01  0.93561695545E+01  0.49807203206E+03  0.49816138360E+03  0.00000000000E+00 0.  1.
         11    1    1    2    0    0 -0.61167555664E+01 -0.19245151571E+01 -0.42791757944E+03  0.42796562158E+03  0.00000000000E+00 0. -1.
        -15    1    1    2    0    0  0.53629340046E+01 -0.46773402052E+01 -0.56581020607E+01  0.92633914125E+01  0.17770000000E+01 0.  1.
         15    1    1    2    0    0  0.19691730192E+01 -0.27543141923E+01 -0.64496350554E+02  0.64609603411E+02  0.17770000000E+01 0. -1.
</event>
<event>
 6    1  0.2408691E-003  0.5059694E+03  0.7546771E-02  0.9386551E-01
        -11   -1    0    0    0    0  0.00000000000E+00  0.00000000000E+00  0.50000000000E+03  0.50000000000E+03  0.00000000000E+00 0. -1.
         11   -1    0    0    0    0 -0.00000000000E+00 -0.00000000000E+00 -0.50000000000E+03  0.50000000000E+03  0.00000000000E+00 0.  1.
        -11    1    1    2    0    0 -0.71408697385E+01 -0.65300823206E+00  0.49397855753E+03  0.49403060001E+03  0.00000000000E+00 0. -1.
         11    1    1    2    0    0 -0.13205329671E+02 -0.13993766954E+01 -0.47732470567E+03  0.47750938591E+03  0.00000000000E+00 0.  1.
        -15    1    1    2    0    0 -0.13550486490E+00  0.72547922679E+00  0.69375144941E-01  0.19254151728E+01  0.17770000000E+01 0.  1.
         15    1    1    2    0    0  0.20481704274E+02  0.13269057007E+01 -0.16723227006E+02  0.26534598908E+02  0.17770000000E+01 0. -1.
</event>
<event>
 6    1  0.2408691E-003  0.5040180E+03  0.7546771E-02  0.9390864E-01
        -11   -1    0    0    0    0  0.00000000000E+00  0.00000000000E+00  0.50000000000E+03  0.50000000000E+03  0.00000000000E+00 0. -1.
         11   -1    0    0    0    0 -0.00000000000E+00 -0.00000000000E+00 -0.50000000000E+03  0.50000000000E+03  0.00000000000E+00 0.  1.
        -11    1    1    2    0    0 -0.82101428904E+01  0.16650014976E+01  0.49591120258E+03  0.49598195483E+03  0.00000000000E+00 0. -1.
         11    1    1    2    0    0  0.11840915478E+02  0.52861845974E+01 -0.42399633015E+03  0.42419457683E+03  0.00000000000E+00 0.  1.
        -15    1    1    2    0    0 -0.14406208763E+02 -0.10634747768E+02 -0.62197646448E+02  0.64748294678E+02  0.17770000000E+01 0. -1.
         15    1    1    2    0    0  0.10775436175E+02  0.36835616728E+01 -0.97172259731E+01  0.15075173663E+02  0.17770000000E+01 0.  1.
</event>
<event>
 6    1  0.2408691E-003  0.5061358E+03  0.7546771E-02  0.9386184E-01
        -11   -1    0    0    0    0  0.00000000000E+00  0.00000000000E+00  0.50000000000E+03  0.50000000000E+03  0.00000000000E+00 0.  1.
         11   -1    0    0    0    0 -0.00000000000E+00 -0.00000000000E+00 -0.50000000000E+03  0.50000000000E+03  0.00000000000E+00 0. -1.
        -11    1    1    2    0    0 -0.69436494956E+01 -0.40300658123E+01  0.49379890346E+03  0.49386416428E+03  0.00000000000E+00 0.  1.
         11    1    1    2    0    0 -0.79602881375E+01  0.11039712248E+01 -0.45883762827E+03  0.45890800174E+03  0.00000000000E+00 0. -1.
        -15    1    1    2    0    0  0.18318911481E+01 -0.65189088027E+00  0.46391068116E+01  0.53347753381E+01  0.17770000000E+01 0.  1.
         15    1    1    2    0    0  0.13072046485E+02  0.35779854677E+01 -0.39600381998E+02  0.41893058646E+02  0.17770000000E+01 0. -1.
</event>
<event>
 6    1  0.2408691E-003  0.5095415E+03  0.7546771E-02  0.9378709E-01
        -11   -1    0    0    0    0  0.00000000000E+00  0.00000000000E+00  0.50000000000E+03  0.50000000000E+03  0.00000000000E+00 0.  1.
         11   -1    0    0    0    0 -0.00000000000E+00 -0.00000000000E+00 -0.50000000000E+03  0.50000000000E+03  0.00000000000E+00 0.  1.
        -11    1    1    2    0    0  0.94878470903E+00  0.12743288744E+02  0.49029201550E+03  0.49045851207E+03  0.00000000000E+00 0.  1.
         11    1    1    2    0    0  0.72767828188E+01  0.72246221490E+01 -0.46470926796E+03  0.46482238593E+03  0.00000000000E+00 0.  1.
        -15    1    1    2    0    0 -0.40790946976E+01 -0.74716115261E+01 -0.29590722672E+02  0.30842058777E+02  0.17770000000E+01 0.  1.
         15    1    1    2    0    0 -0.41464728302E+01 -0.12496299367E+02  0.40079751307E+01  0.13877043217E+02  0.17770000000E+01 0. -1.
</event>
<event>
 6    1  0.2408691E-003  0.5007019E+03  0.7546771E-02  0.9398240E-01
        -11   -1    0    0    0    0  0.00000000000E+00  0.00000000000E+00  0.50000000000E+03  0.50000000000E+03  0.00000000000E+00 0.  1.
         11   -1    0    0    0    0 -0.00000000000E+00 -0.00000000000E+00 -0.50000000000E+03  0.50000000000E+03  0.00000000000E+00 0. -1.
        -11    1    1    2    0    0  0.99206130911E+01  0.46382014556E+01  0.49917796683E+03  0.49929808136E+03  0.00000000000E+00 0.  1.
         11    1    1    2    0    0  0.24343432751E+01  0.62271872836E+01 -0.34820424341E+03  0.34826842955E+03  0.00000000000E+00 0. -1.
        -15    1    1    2    0    0 -0.47626880935E+01  0.15604551556E+01 -0.22251688168E+02  0.22878233619E+02  0.17770000000E+01 0.  1.
         15    1    1    2    0    0 -0.75922682727E+01 -0.12425843895E+02 -0.12872203525E+03  0.12955525548E+03  0.17770000000E+01 0. -1.
</event>
<event>
 6    1  0.2408691E-003  0.4960392E+03  0.7546771E-02  0.9408716E-01
        -11   -1    0    0    0    0  0.00000000000E+00  0.00000000000E+00  0.50000000000E+03  0.50000000000E+03  0.00000000000E+00 0. -1.
         11   -1    0    0    0    0 -0.00000000000E+00 -0.00000000000E+00 -0.50000000000E+03  0.50000000000E+03  0.00000000000E+00 0. -1.
        -11    1    1    2    0    0 -0.19574331152E+02  0.50178995576E+00  0.49156277240E+03  0.49195260488E+03  0.00000000000E+00 0. -1.
         11    1    1    2    0    0 -0.45430633785E+01 -0.21296691002E+01 -0.22058101845E+02  0.22621555480E+02  0.00000000000E+00 0. -1.
        -15    1    1    2    0    0  0.59371935042E+02  0.38309554626E+02 -0.31168468770E+03  0.31959842134E+03  0.17770000000E+01 0. -1.
         15    1    1    2    0    0 -0.35254540511E+02 -0.36681675482E+02 -0.15781998286E+03  0.16582741831E+03  0.17770000000E+01 0.  1.
</event>
<event>
 6    1  0.2408691E-003  0.5007325E+03  0.7546771E-02  0.9398172E-01
        -11   -1    0    0    0    0  0.00000000000E+00  0.00000000000E+00  0.50000000000E+03  0.50000000000E+03  0.00000000000E+00 0.  1.
         11   -1    0    0    0    0 -0.00000000000E+00 -0.00000000000E+00 -0.50000000000E+03  0.50000000000E+03  0.00000000000E+00 0. -1.
        -11    1    1    2    0    0  0.76288535597E+01 -0.12716310214E+02  0.49904717761E+03  0.49926745281E+03  0.00000000000E+00 0.  1.
         11    1    1    2    0    0 -0.58705536477E+00  0.54555762543E+01 -0.36088266139E+03  0.36092437330E+03  0.00000000000E+00 0. -1.
        -15    1    1    2    0    0 -0.11436048804E+02  0.91665334433E+01 -0.12106293952E+03  0.12195983602E+03  0.17770000000E+01 0. -1.
         15    1    1    2    0    0  0.43942506092E+01 -0.19057994836E+01 -0.17101576703E+02  0.17848337872E+02  0.17770000000E+01 0.  1.
</event>
<event>
 6    1  0.2408691E-003  0.5118957E+03  0.7546771E-02  0.9373579E-01
        -11   -1    0    0    0    0  0.00000000000E+00  0.00000000000E+00  0.50000000000E+03  0.50000000000E+03  0.00000000000E+00 0. -1.
         11   -1    0    0    0    0 -0.00000000000E+00 -0.00000000000E+00 -0.50000000000E+03  0.50000000000E+03  0.00000000000E+00 0. -1.
        -11    1    1    2    0    0 -0.87124875823E+01 -0.23882288621E+01  0.46962733065E+03  0.46971421181E+03  0.00000000000E+00 0. -1.
         11    1    1    2    0    0 -0.76863530729E+01  0.34254544884E+01 -0.48803170589E+03  0.48810425087E+03  0.00000000000E+00 0. -1.
        -15    1    1    2    0    0  0.76183538875E+01 -0.34441637167E+01  0.27736344795E+02  0.29023509974E+02  0.17770000000E+01 0.  1.
         15    1    1    2    0    0  0.87804867677E+01  0.24069380905E+01 -0.93319695577E+01  0.13158027347E+02  0.17770000000E+01 0. -1.
</event>
<event>
 6    1  0.2408691E-003  0.5478937E+03  0.7546771E-02  0.9298593E-01
        -11   -1    0    0    0    0  0.00000000000E+00  0.00000000000E+00  0.50000000000E+03  0.50000000000E+03  0.00000000000E+00 0. -1.
         11   -1    0    0    0    0 -0.00000000000E+00 -0.00000000000E+00 -0.50000000000E+03  0.50000000000E+03  0.00000000000E+00 0.  1.
        -11    1    1    2    0    0 -0.13100277946E+02  0.12309392338E+01  0.45191481602E+03  0.45210632979E+03  0.00000000000E+00 0. -1.
         11    1    1    2    0    0  0.23021397134E+01 -0.52995003238E+01 -0.41834545696E+03  0.41838535575E+03  0.00000000000E+00 0.  1.
        -15    1    1    2    0    0  0.61976554923E+02  0.13279032067E+02  0.66348190063E+01  0.63754251663E+02  0.17770000000E+01 0.  1.
         15    1    1    2    0    0 -0.51178416691E+02 -0.92104709765E+01 -0.40204178073E+02  0.65754062796E+02  0.17770000000E+01 0. -1.
</event>
<event>
 6    1  0.2408691E-003  0.5244014E+03  0.7546771E-02  0.9346806E-01
        -11   -1    0    0    0    0  0.00000000000E+00  0.00000000000E+00  0.50000000000E+03  0.50000000000E+03  0.00000000000E+00 0. -1.
         11   -1    0    0    0    0 -0.00000000000E+00 -0.00000000000E+00 -0.50000000000E+03  0.50000000000E+03  0.00000000000E+00 0. -1.
        -11    1    1    2    0    0 -0.76733228358E+01 -0.29783614222E+01  0.20610619058E+03  0.20627048338E+03  0.00000000000E+00 0. -1.
         11    1    1    2    0    0  0.11945867455E+02 -0.14223801339E+02 -0.47523569682E+03  0.47559855740E+03  0.00000000000E+00 0. -1.
        -15    1    1    2    0    0 -0.11236408181E+02  0.12129319520E+02 -0.21604812568E+02  0.27263582229E+02  0.17770000000E+01 0. -1.
         15    1    1    2    0    0  0.69638635613E+01  0.50728432412E+01  0.29073431881E+03  0.29086737699E+03  0.17770000000E+01 0.  1.
</event>
<event>
 6    1  0.2408691E-003  0.5026677E+03  0.7546771E-02  0.9393860E-01
        -11   -1    0    0    0    0  0.00000000000E+00  0.00000000000E+00  0.50000000000E+03  0.50000000000E+03  0.00000000000E+00 0. -1.
         11   -1    0    0    0    0 -0.00000000000E+00 -0.00000000000E+00 -0.50000000000E+03  0.50000000000E+03  0.00000000000E+00 0.  1.
        -11    1    1    2    0    0  0.11398867479E+02  0.10797924404E+02  0.49708439876E+03  0.49733231229E+03  0.00000000000E+00 0. -1.
         11    1    1    2    0    0 -0.39869990763E+01 -0.13447457940E+02 -0.34678463749E+03  0.34706817066E+03  0.00000000000E+00 0.  1.
        -15    1    1    2    0    0 -0.11813894474E+02  0.39462816370E+00 -0.11136870248E+02  0.16337424581E+02  0.17770000000E+01 0. -1.
         15    1    1    2    0    0  0.44020260713E+01  0.22549053729E+01 -0.13916289102E+03  0.13926209247E+03  0.17770000000E+01 0.  1.
</event>
<event>
 6    1  0.2408691E-003  0.5347586E+03  0.7546771E-02  0.9325226E-01
        -11   -1    0    0    0    0  0.00000000000E+00  0.00000000000E+00  0.50000000000E+03  0.50000000000E+03  0.00000000000E+00 0.  1.
         11   -1    0    0    0    0 -0.00000000000E+00 -0.00000000000E+00 -0.50000000000E+03  0.50000000000E+03  0.00000000000E+00 0.  1.
        -11    1    1    2    0    0 -0.12873223942E+02  0.10549758370E+02  0.40580288875E+03  0.40614406534E+03  0.00000000000E+00 0.  1.
         11    1    1    2    0    0 -0.73540593420E+01  0.40905731400E+01 -0.46516525750E+03  0.46524136936E+03  0.00000000000E+00 0.  1.
        -15    1    1    2    0    0  0.22826425713E+02 -0.20652602514E+02 -0.27603295482E+02  0.41384482018E+02  0.17770000000E+01 0.  1.
         15    1    1    2    0    0 -0.25991424282E+01  0.60122710047E+01  0.86965664239E+02  0.87230083282E+02  0.17770000000E+01 0. -1.
</event>
<event>
 6    1  0.2408691E-003  0.5013017E+03  0.7546771E-02  0.9396902E-01
        -11   -1    0    0    0    0  0.00000000000E+00  0.00000000000E+00  0.50000000000E+03  0.50000000000E+03  0.00000000000E+00 0. -1.
         11   -1    0    0    0    0 -0.00000000000E+00 -0.00000000000E+00 -0.50000000000E+03  0.50000000000E+03  0.00000000000E+00 0. -1.
        -11    1    1    2    0    0 -0.60965829221E+01  0.48362528911E+01  0.49863760609E+03  0.49869832552E+03  0.00000000000E+00 0. -1.
         11    1    1    2    0    0  0.45752849023E+01 -0.30286243586E+01 -0.40550265474E+03  0.40553977462E+03  0.00000000000E+00 0. -1.
        -15    1    1    2    0    0 -0.19848015241E+01  0.35844818874E+00 -0.90535562047E+02  0.90575458301E+02  0.17770000000E+01 0. -1.
         15    1    1    2    0    0  0.35060995439E+01 -0.21660767212E+01 -0.25993893055E+01  0.51864415677E+01  0.17770000000E+01 0.  1.
</event>
<event>
 6    1  0.2408691E-003  0.5008518E+03  0.7546771E-02  0.9397906E-01
        -11   -1    0    0    0    0  0.00000000000E+00  0.00000000000E+00  0.50000000000E+03  0.50000000000E+03  0.00000000000E+00 0.  1.
         11   -1    0    0    0    0 -0.00000000000E+00 -0.00000000000E+00 -0.50000000000E+03  0.50000000000E+03  0.00000000000E+00 0.  1.
        -11    1    1    2    0    0 -0.43736522015E+01  0.58210284897E+01  0.19726085088E+03  0.19739517850E+03  0.00000000000E+00 0.  1.
         11    1    1    2    0    0 -0.58822843457E+01  0.95914886947E+01 -0.49902139192E+03  0.49914822200E+03  0.00000000000E+00 0.  1.
        -15    1    1    2    0    0  0.17648254074E+01 -0.38220082992E+01  0.71173259058E+01  0.84579201466E+01  0.17770000000E+01 0. -1.
         15    1    1    2    0    0  0.84911111399E+01 -0.11590508885E+02  0.29464321514E+03  0.29499867935E+03  0.17770000000E+01 0.  1.
</event>
<event>
 6    1  0.2408691E-003  0.5027197E+03  0.7546771E-02  0.9393745E-01
        -11   -1    0    0    0    0  0.00000000000E+00  0.00000000000E+00  0.50000000000E+03  0.50000000000E+03  0.00000000000E+00 0. -1.
         11   -1    0    0    0    0 -0.00000000000E+00 -0.00000000000E+00 -0.50000000000E+03  0.50000000000E+03  0.00000000000E+00 0.  1.
        -11    1    1    2    0    0 -0.14356551350E+02  0.49798597172E+00  0.20777483470E+03  0.20827083447E+03  0.00000000000E+00 0. -1.
         11    1    1    2    0    0 -0.70534660347E+01  0.85467526278E+01 -0.49715676929E+03  0.49728025460E+03  0.00000000000E+00 0.  1.
        -15    1    1    2    0    0 -0.81096494427E+01 -0.95826242615E+01  0.19786751421E+03  0.19827330635E+03  0.17770000000E+01 0. -1.
         15    1    1    2    0    0  0.29519666828E+02  0.53788566203E+00  0.91514420377E+02  0.96175604581E+02  0.17770000000E+01 0.  1.
</event>
<event>
 6    1  0.2408691E-003  0.4750546E+03  0.7546771E-02  0.9457425E-01
        -11   -1    0    0    0    0  0.00000000000E+00  0.00000000000E+00  0.50000000000E+03  0.50000000000E+03  0.00000000000E+00 0.  1.
         11   -1    0    0    0    0 -0.00000000000E+00 -0.00000000000E+00 -0.50000000000E+03  0.50000000000E+03  0.00000000000E+00 0. -1.
        -11    1    1    2    0    0 -0.13211943857E+02  0.49487090490E+01  0.47273419082E+03  0.47294466944E+03  0.00000000000E+00 0.  1.
         11    1    1    2    0    0  0.61124738528E+01  0.75490442161E+01 -0.47718472416E+03  0.47728357543E+03  0.00000000000E+00 0. -1.
        -15    1    1    2    0    0  0.52402701385E-01 -0.47643966084E+01 -0.21311326614E+02  0.21909646098E+02  0.17770000000E+01 0. -1.
         15    1    1    2    0    0  0.70470673032E+01 -0.77333566568E+01  0.25761859946E+02  0.27862109031E+02  0.17770000000E+01 0.  1.
</event>
<event>
 6    1  0.2408691E-003  0.5011309E+03  0.7546771E-02  0.9397283E-01
        -11   -1    0    0    0    0  0.00000000000E+00  0.00000000000E+00  0.50000000000E+03  0.50000000000E+03  0.00000000000E+00 0.  1.
         11   -1    0    0    0    0 -0.00000000000E+00 -0.00000000000E+00 -0.50000000000E+03  0.50000000000E+03  0.00000000000E+00 0.  1.
        -11    1    1    2    0    0  0.63262963815E+01 -0.60234331456E+01  0.49879257622E+03  0.49886905883E+03  0.00000000000E+00 0.  1.
         11    1    1    2    0    0 -0.33538422483E+01 -0.71138303507E+01 -0.33250418556E+03  0.33259718618E+03  0.00000000000E+00 0.  1.
        -15    1    1    2    0    0 -0.45389329132E+01  0.49794799299E+01 -0.11053086966E+02  0.13066200398E+02  0.17770000000E+01 0.  1.
         15    1    1    2    0    0  0.15664787800E+01  0.81577835664E+01 -0.15523530369E+03  0.15546755459E+03  0.17770000000E+01 0. -1.
</event>
<event>
 6    1  0.2408691E-003  0.5001973E+03  0.7546771E-02  0.9399368E-01
        -11   -1    0    0    0    0  0.00000000000E+00  0.00000000000E+00  0.50000000000E+03  0.50000000000E+03  0.00000000000E+00 0.  1.
         11   -1    0    0    0    0 -0.00000000000E+00 -0.00000000000E+00 -0.50000000000E+03  0.50000000000E+03  0.00000000000E+00 0. -1.
        -11    1    1    2    0    0  0.93519753138E+01 -0.90991368922E+01  0.36511185203E+03  0.36534493048E+03  0.00000000000E+00 0.  1.
         11    1    1    2    0    0 -0.73880046266E+01  0.49184210890E+01 -0.49972393828E+03  0.49980274906E+03  0.00000000000E+00 0. -1.
        -15    1    1    2    0    0 -0.14416036981E+01  0.23904290810E+00  0.16461578952E+02  0.16621572529E+02  0.17770000000E+01 0.  1.
         15    1    1    2    0    0 -0.52236698914E+00  0.39416728951E+01  0.11815050730E+03  0.11823074793E+03  0.17770000000E+01 0. -1.
</event>
<event>
 6    1  0.2408691E-003  0.5034675E+03  0.7546771E-02  0.9392084E-01
        -11   -1    0    0    0    0  0.00000000000E+00  0.00000000000E+00  0.50000000000E+03  0.50000000000E+03  0.00000000000E+00 0. -1.
         11   -1    0    0    0    0 -0.00000000000E+00 -0.00000000000E+00 -0.50000000000E+03  0.50000000000E+03  0.00000000000E+00 0.  1.
        -11    1    1    2    0    0 -0.58727049241E+01 -0.57083281825E+01  0.41836364077E+03  0.41844379502E+03  0.00000000000E+00 0. -1.
         11    1    1    2    0    0  0.53590890919E+01 -0.61311211042E+01 -0.49646570263E+03  0.49653248068E+03  0.00000000000E+00 0.  1.
        -15    1    1    2    0    0 -0.28433832547E+01  0.15265819254E+02  0.14831531593E+02  0.21546742776E+02  0.17770000000E+01 0.  1.
         15    1    1    2    0    0  0.33569990869E+01 -0.34263699677E+01  0.63270530269E+02  0.63476981525E+02  0.17770000000E+01 0. -1.
</event>
<event>
 6    1  0.2408691E-003  0.5418968E+03  0.7546771E-02  0.9310653E-01
        -11   -1    0    0    0    0  0.00000000000E+00  0.00000000000E+00  0.50000000000E+03  0.50000000000E+03  0.00000000000E+00 0.  1.
         11   -1    0    0    0    0 -0.00000000000E+00 -0.00000000000E+00 -0.50000000000E+03  0.50000000000E+03  0.00000000000E+00 0. -1.
        -11    1    1    2    0    0 -0.20655720142E+02 -0.54154815746E+02  0.32382181503E+03  0.32896803907E+03  0.00000000000E+00 0.  1.
         11    1    1    2    0    0  0.14820134085E+03  0.36793059672E+02 -0.43190413795E+03  0.45810321004E+03  0.00000000000E+00 0. -1.
        -15    1    1    2    0    0 -0.14490997208E+03  0.49102816047E+01  0.53967743399E+02  0.15472131699E+03  0.17770000000E+01 0.  1.
         15    1    1    2    0    0  0.17364351376E+02  0.12451474469E+02  0.54114579526E+02  0.58207433902E+02  0.17770000000E+01 0. -1.
</event>
<event>
 6    1  0.2408691E-003  0.5003184E+03  0.7546771E-02  0.9399098E-01
        -11   -1    0    0    0    0  0.00000000000E+00  0.00000000000E+00  0.50000000000E+03  0.50000000000E+03  0.00000000000E+00 0. -1.
         11   -1    0    0    0    0 -0.00000000000E+00 -0.00000000000E+00 -0.50000000000E+03  0.50000000000E+03  0.00000000000E+00 0.  1.
        -11    1    1    2    0    0 -0.10560626845E+01 -0.93278809271E+01  0.49959344143E+03  0.49968162999E+03  0.00000000000E+00 0. -1.
         11    1    1    2    0    0 -0.16423121694E+01  0.36200788836E+01 -0.29074906936E+03  0.29077624300E+03  0.00000000000E+00 0.  1.
        -15    1    1    2    0    0 -0.32326537741E+01  0.86315176619E+01 -0.86857635009E+02  0.87363376972E+02  0.17770000000E+01 0. -1.
         15    1    1    2    0    0  0.59310286280E+01 -0.29237156185E+01 -0.12198673706E+03  0.12217875004E+03  0.17770000000E+01 0.  1.
</event>
<event>
 6    1  0.2408691E-003  0.5021713E+03  0.7546771E-02  0.9394964E-01
        -11   -1    0    0    0    0  0.00000000000E+00  0.00000000000E+00  0.50000000000E+03  0.50000000000E+03  0.00000000000E+00 0. -1.
         11   -1    0    0    0    0 -0.00000000000E+00 -0.00000000000E+00 -0.50000000000E+03  0.50000000000E+03  0.00000000000E+00 0. -1.
        -11    1    1    2    0    0  0.33299174909E+01  0.93988815824E+01  0.49772885114E+03  0.49782872214E+03  0.00000000000E+00 0. -1.
         11    1    1    2    0    0  0.81540170839E+01 -0.16082675882E+01 -0.46535210281E+03  0.46542631437E+03  0.00000000000E+00 0. -1.
        -15    1    1    2    0    0 -0.13534364684E+01 -0.38797190008E+01 -0.30371440280E+01  0.54098043075E+01  0.17770000000E+01 0.  1.
         15    1    1    2    0    0 -0.10130498106E+02 -0.39108949934E+01 -0.29339604299E+02  0.31335159182E+02  0.17770000000E+01 0. -1.
</event>
<event>
 6    1  0.2408691E-003  0.5002109E+03  0.7546771E-02  0.9399338E-01
        -11   -1    0    0    0    0  0.00000000000E+00  0.00000000000E+00  0.50000000000E+03  0.50000000000E+03  0.00000000000E+00 0. -1.
         11   -1    0    0    0    0 -0.00000000000E+00 -0.00000000000E+00 -0.50000000000E+03  0.50000000000E+03  0.00000000000E+00 0.  1.
        -11    1    1    2    0    0  0.76294917988E+01 -0.46589719738E+00  0.49973062302E+03  0.49978907731E+03  0.00000000000E+00 0. -1.
         11    1    1    2    0    0 -0.10321002433E+01  0.15071990444E+01 -0.12587692472E+02  0.12719547227E+02  0.00000000000E+00 0.  1.
        -15    1    1    2    0    0  0.73250500684E+00 -0.12016608896E+01 -0.87462664813E+01  0.90352342992E+01  0.17770000000E+01 0. -1.
         15    1    1    2    0    0 -0.73298965624E+01  0.16035904261E+00 -0.47839666407E+03  0.47845614117E+03  0.17770000000E+01 0.  1.
</event>
<event>
 6    1  0.2408691E-003  0.5070150E+03  0.7546771E-02  0.9384248E-01
        -11   -1    0    0    0    0  0.00000000000E+00  0.00000000000E+00  0.50000000000E+03  0.50000000000E+03  0.00000000000E+00 0.  1.
         11   -1    0    0    0    0 -0.00000000000E+00 -0.00000000000E+00 -0.50000000000E+03  0.50000000000E+03  0.00000000000E+00 0. -1.
        -11    1    1    2    0    0 -0.48500713084E+01 -0.71580285895E+01  0.49290914464E+03  0.49298497486E+03  0.00000000000E+00 0.  1.
         11    1    1    2    0    0  0.67202078585E-01 -0.69766589741E+01 -0.47802674680E+03  0.47807765995E+03  0.00000000000E+00 0. -1.
        -15    1    1    2    0    0  0.18638435282E+01  0.48894603423E+01 -0.17816070938E+02  0.18653440642E+02  0.17770000000E+01 0. -1.
         15    1    1    2    0    0  0.29190257016E+01  0.92452272214E+01  0.29336730948E+01  0.10283924555E+02  0.17770000000E+01 0.  1.
</event>
<event>
 6    1  0.2408691E-003  0.4834094E+03  0.7546771E-02  0.9437717E-01
        -11   -1    0    0    0    0  0.00000000000E+00  0.00000000000E+00  0.50000000000E+03  0.50000000000E+03  0.00000000000E+00 0.  1.
         11   -1    0    0    0    0 -0.00000000000E+00 -0.00000000000E+00 -0.50000000000E+03  0.50000000000E+03  0.00000000000E+00 0.  1.
        -11    1    1    2    0    0  0.50229810025E+01 -0.42845396112E+01  0.48134838745E+03  0.48139366191E+03  0.00000000000E+00 0.  1.
         11    1    1    2    0    0 -0.21991192118E+01 -0.65423080364E+01 -0.48544950281E+03  0.48549856611E+03  0.00000000000E+00 0.  1.
        -15    1    1    2    0    0 -0.80245413230E+01 -0.37864936777E+01  0.12459174566E+02  0.15398686882E+02  0.17770000000E+01 0.  1.
         15    1    1    2    0    0  0.52006795324E+01  0.14613341325E+02 -0.83580592093E+01  0.17709085099E+02  0.17770000000E+01 0. -1.
</event>
<event>
 6    1  0.2408691E-003  0.5288128E+03  0.7546771E-02  0.9337551E-01
        -11   -1    0    0    0    0  0.00000000000E+00  0.00000000000E+00  0.50000000000E+03  0.50000000000E+03  0.00000000000E+00 0.  1.
         11   -1    0    0    0    0 -0.00000000000E+00 -0.00000000000E+00 -0.50000000000E+03  0.50000000000E+03  0.00000000000E+00 0.  1.
        -11    1    1    2    0    0  0.22775167872E+02  0.56945532746E+01  0.41079999413E+03  0.41147025577E+03  0.00000000000E+00 0.  1.
         11    1    1    2    0    0  0.35774703190E+01  0.41652064609E+02 -0.46932901644E+03  0.47118724352E+03  0.00000000000E+00 0.  1.
        -15    1    1    2    0    0 -0.12276537472E+02 -0.35466675728E+02 -0.15788526841E+02  0.40755782023E+02  0.17770000000E+01 0. -1.
         15    1    1    2    0    0 -0.14076100719E+02 -0.11879942156E+02  0.74317549156E+02  0.76586718683E+02  0.17770000000E+01 0.  1.
</event>
<event>
 6    1  0.2408691E-003  0.5121874E+03  0.7546771E-02  0.9372945E-01
        -11   -1    0    0    0    0  0.00000000000E+00  0.00000000000E+00  0.50000000000E+03  0.50000000000E+03  0.00000000000E+00 0.  1.
         11   -1    0    0    0    0 -0.00000000000E+00 -0.00000000000E+00 -0.50000000000E+03  0.50000000000E+03  0.00000000000E+00 0. -1.
        -11    1    1    2    0    0 -0.47856321114E+01 -0.49754537383E+01  0.46184649906E+03  0.46189809061E+03  0.00000000000E+00 0.  1.
         11    1    1    2    0    0  0.12066639730E+01  0.21537254409E+02 -0.48733543821E+03  0.48781260613E+03  0.00000000000E+00 0. -1.
        -15    1    1    2    0    0  0.70009819132E+01 -0.22018762629E+02 -0.77756767829E+00  0.23186245836E+02  0.17770000000E+01 0. -1.
         15    1    1    2    0    0 -0.34220137748E+01  0.54569619585E+01  0.26266506829E+02  0.27103057431E+02  0.17770000000E+01 0.  1.
</event>
<event>
 6    1  0.2408691E-003  0.5003373E+03  0.7546771E-02  0.9399055E-01
        -11   -1    0    0    0    0  0.00000000000E+00  0.00000000000E+00  0.50000000000E+03  0.50000000000E+03  0.00000000000E+00 0. -1.
         11   -1    0    0    0    0 -0.00000000000E+00 -0.00000000000E+00 -0.50000000000E+03  0.50000000000E+03  0.00000000000E+00 0. -1.
        -11    1    1    2    0    0 -0.43923448011E+01  0.58340803251E+00  0.22862203549E+03  0.22866496926E+03  0.00000000000E+00 0. -1.
         11    1    1    2    0    0  0.94422326568E+01  0.41224650293E+01 -0.49955650282E+03  0.49966273624E+03  0.00000000000E+00 0. -1.
        -15    1    1    2    0    0 -0.71794335066E+01 -0.82904025351E+01  0.25027725028E+03  0.25052372098E+03  0.17770000000E+01 0. -1.
         15    1    1    2    0    0  0.21295456509E+01  0.35845294732E+01  0.20657217055E+02  0.21148573515E+02  0.17770000000E+01 0.  1.
</event>
<event>
 6    1  0.2408691E-003  0.5076907E+03  0.7546771E-02  0.9382764E-01
        -11   -1    0    0    0    0  0.00000000000E+00  0.00000000000E+00  0.50000000000E+03  0.50000000000E+03  0.00000000000E+00 0. -1.
         11   -1    0    0    0    0 -0.00000000000E+00 -0.00000000000E+00 -0.50000000000E+03  0.50000000000E+03  0.00000000000E+00 0.  1.
        -11    1    1    2    0    0  0.21843002142E+02  0.13772837630E+01  0.43850015221E+03  0.43904600800E+03  0.00000000000E+00 0. -1.
         11    1    1    2    0    0 -0.11295835368E+02 -0.40283471665E+01 -0.49216318110E+03  0.49230927303E+03  0.00000000000E+00 0.  1.
        -15    1    1    2    0    0 -0.19010913229E+02 -0.16386941551E-01  0.56109738991E+02  0.59269516861E+02  0.17770000000E+01 0.  1.
         15    1    1    2    0    0  0.84637464553E+01  0.26674503451E+01 -0.24467100945E+01  0.93752021146E+01  0.17770000000E+01 0. -1.
</event>
<event>
 6    1  0.2408691E-003  0.5057572E+03  0.7546771E-02  0.9387019E-01
        -11   -1    0    0    0    0  0.00000000000E+00  0.00000000000E+00  0.50000000000E+03  0.50000000000E+03  0.00000000000E+00 0.  1.
         11   -1    0    0    0    0 -0.00000000000E+00 -0.00000000000E+00 -0.50000000000E+03  0.50000000000E+03  0.00000000000E+00 0. -1.
        -11    1    1    2    0    0  0.17495911534E+01 -0.85982102806E+01  0.46898232547E+03  0.46906440058E+03  0.00000000000E+00 0.  1.
         11    1    1    2    0    0 -0.22698697721E+01  0.80222216620E+01 -0.49417249471E+03  0.49424281773E+03  0.00000000000E+00 0. -1.
        -15    1    1    2    0    0  0.93519129520E+01  0.44871252993E+00 -0.42506994432E+00  0.95392888757E+01  0.17770000000E+01 0. -1.
         15    1    1    2    0    0 -0.88316343332E+01  0.12727608873E+00  0.25615239188E+02  0.27153492811E+02  0.17770000000E+01 0.  1.
</event>
<event>
 6    1  0.2408691E-003  0.4854077E+03  0.7546771E-02  0.9433066E-01
        -11   -1    0    0    0    0  0.00000000000E+00  0.00000000000E+00  0.50000000000E+03  0.50000000000E+03  0.00000000000E+00 0.  1.
         11   -1    0    0    0    0 -0.00000000000E+00 -0.00000000000E+00 -0.50000000000E+03  0.50000000000E+03  0.00000000000E+00 0.  1.
        -11    1    1    2    0    0  0.12844517870E+02 -0.20083540958E+02  0.49829571744E+03  0.49886566556E+03  0.00000000000E+00 0.  1.
         11    1    1    2    0    0  0.10613913780E+01  0.18995031214E+01 -0.30750215301E+02  0.30827105035E+02  0.00000000000E+00 0.  1.
        -15    1    1    2    0    0 -0.53841440709E+01 -0.12681546751E+02 -0.25268886393E+03  0.25307040585E+03  0.17770000000E+01 0. -1.
         15    1    1    2    0    0 -0.85217651767E+01  0.30865584588E+02 -0.21485663821E+03  0.21723682355E+03  0.17770000000E+01 0.  1.
</event>
<event>
 6    1  0.2408691E-003  0.4297413E+03  0.7546771E-02  0.9572389E-01
        -11   -1    0    0    0    0  0.00000000000E+00  0.00000000000E+00  0.50000000000E+03  0.50000000000E+03  0.00000000000E+00 0. -1.
         11   -1    0    0    0    0 -0.00000000000E+00 -0.00000000000E+00 -0.50000000000E+03  0.50000000000E+03  0.00000000000E+00 0. -1.
        -11    1    1    2    0    0  0.13614875612E+02 -0.11634699397E+02  0.66015076799E+02  0.68401180054E+02  0.00000000000E+00 0. -1.
         11    1    1    2    0    0  0.18146030687E+02 -0.31987240978E+02 -0.46516989144E+03  0.46662135605E+03  0.00000000000E+00 0. -1.
        -15    1    1    2    0    0  0.39269790927E+02  0.53049984960E+02  0.70807467514E+01  0.66405663066E+02  0.17770000000E+01 0.  1.
         15    1    1    2    0    0 -0.71030697226E+02 -0.94280445853E+01  0.39207406789E+03  0.39857180083E+03  0.17770000000E+01 0. -1.
</event>
<event>
 6    1  0.2408691E-003  0.5072356E+03  0.7546771E-02  0.9383763E-01
        -11   -1    0    0    0    0  0.00000000000E+00  0.00000000000E+00  0.50000000000E+03  0.50000000000E+03  0.00000000000E+00 0. -1.
         11   -1    0    0    0    0 -0.00000000000E+00 -0.00000000000E+00 -0.50000000000E+03  0.50000000000E+03  0.00000000000E+00 0. -1.
        -11    1    1    2    0    0 -0.19862081530E+01 -0.84907392517E+01  0.49268720626E+03  0.49276436650E+03  0.00000000000E+00 0. -1.
         11    1    1    2    0    0 -0.96787817111E+01 -0.71829663613E+01 -0.40815561410E+03  0.40833353908E+03  0.00000000000E+00 0. -1.
        -15    1    1    2    0    0 -0.15932979500E+02 -0.49639094273E+01 -0.25583990913E+02  0.30597361856E+02  0.17770000000E+01 0.  1.
         15    1    1    2    0    0  0.27597969364E+02  0.20637615040E+02 -0.58947601255E+02  0.68304732562E+02  0.17770000000E+01 0. -1.
</event>
<event>
 6    1  0.2408691E-003  0.2765940E+03  0.7546771E-02  0.1011344E+00
        -11   -1    0    0    0    0  0.00000000000E+00  0.00000000000E+00  0.50000000000E+03  0.50000000000E+03  0.00000000000E+00 0. -1.
         11   -1    0    0    0    0 -0.00000000000E+00 -0.00000000000E+00 -0.50000000000E+03  0.50000000000E+03  0.00000000000E+00 0. -1.
        -11    1    1    2    0    0 -0.63046357878E+01  0.57239598713E+01  0.27982077961E+03  0.27995031854E+03  0.00000000000E+00 0. -1.
         11    1    1    2    0    0 -0.67834408521E+00  0.33367868892E+02 -0.22490744954E+03  0.22737026122E+03  0.00000000000E+00 0. -1.
        -15    1    1    2    0    0  0.11211565190E+02 -0.20114086876E+02  0.21792396459E+03  0.21914444496E+03  0.17770000000E+01 0.  1.
         15    1    1    2    0    0 -0.42285853166E+01 -0.18977741887E+02 -0.27283729466E+03  0.27353497529E+03  0.17770000000E+01 0. -1.
</event>
<event>
 6    1  0.2408691E-003  0.4935904E+03  0.7546771E-02  0.9414267E-01
        -11   -1    0    0    0    0  0.00000000000E+00  0.00000000000E+00  0.50000000000E+03  0.50000000000E+03  0.00000000000E+00 0.  1.
         11   -1    0    0    0    0 -0.00000000000E+00 -0.00000000000E+00 -0.50000000000E+03  0.50000000000E+03  0.00000000000E+00 0.  1.
        -11    1    1    2    0    0  0.36736285236E-01 -0.81460297841E+00  0.14415506097E+02  0.14438550606E+02  0.00000000000E+00 0.  1.
         11    1    1    2    0    0  0.10275416441E+02  0.94549273071E+01 -0.49892217255E+03  0.49911753535E+03  0.00000000000E+00 0.  1.
        -15    1    1    2    0    0  0.13226169537E+02 -0.12542965889E+02  0.26642352977E+03  0.26705226548E+03  0.17770000000E+01 0.  1.
         15    1    1    2    0    0 -0.23538322263E+02  0.39026415600E+01  0.21808313668E+03  0.21939164856E+03  0.17770000000E+01 0. -1.
</event>
<event>
 6    1  0.2408691E-003  0.5009487E+03  0.7546771E-02  0.9397689E-01
        -11   -1    0    0    0    0  0.00000000000E+00  0.00000000000E+00  0.50000000000E+03  0.50000000000E+03  0.00000000000E+00 0.  1.
         11   -1    0    0    0    0 -0.00000000000E+00 -0.00000000000E+00 -0.50000000000E+03  0.50000000000E+03  0.00000000000E+00 0. -1.
        -11    1    1    2    0    0  0.44358923247E+01  0.45466933292E+00  0.27971777939E+03  0.27975331986E+03  0.00000000000E+00 0.  1.
         11    1    1    2    0    0 -0.10779689712E+02 -0.56516937559E+01 -0.49890282791E+03  0.49905127497E+03  0.00000000000E+00 0. -1.
        -15    1    1    2    0    0  0.13207061843E+02  0.13041472229E+02  0.11869138058E+03  0.12014702673E+03  0.17770000000E+01 0. -1.
         15    1    1    2    0    0 -0.68632644556E+01 -0.78444478062E+01  0.10049366794E+03  0.10104837844E+03  0.17770000000E+01 0.  1.
</event>
<event>
 6    1  0.2408691E-003  0.5029719E+03  0.7546771E-02  0.9393184E-01
        -11   -1    0    0    0    0  0.00000000000E+00  0.00000000000E+00  0.50000000000E+03  0.50000000000E+03  0.00000000000E+00 0.  1.
         11   -1    0    0    0    0 -0.00000000000E+00 -0.00000000000E+00 -0.50000000000E+03  0.50000000000E+03  0.00000000000E+00 0.  1.
        -11    1    1    2    0    0 -0.93105502712E+01 -0.15590599398E+01  0.49693843569E+03  0.49702809366E+03  0.00000000000E+00 0.  1.
         11    1    1    2    0    0 -0.52167434820E+01  0.43574225674E+01 -0.43532871302E+03  0.43538177491E+03  0.00000000000E+00 0.  1.
        -15    1    1    2    0    0  0.54623627135E+01 -0.62483138755E+00 -0.56533534031E+02  0.56828039028E+02  0.17770000000E+01 0. -1.
         15    1    1    2    0    0  0.90649310397E+01 -0.21735312400E+01 -0.50761886420E+01  0.10762092405E+02  0.17770000000E+01 0.  1.
</event>
<event>
 6    1  0.2408691E-003  0.5021430E+03  0.7546771E-02  0.9395027E-01
        -11   -1    0    0    0    0  0.00000000000E+00  0.00000000000E+00  0.50000000000E+03  0.50000000000E+03  0.00000000000E+00 0. -1.
         11   -1    0    0    0    0 -0.00000000000E+00 -0.00000000000E+00 -0.50000000000E+03  0.50000000000E+03  0.00000000000E+00 0.  1.
        -11    1    1    2    0    0 -0.48215633654E+01  0.59853246839E+01  0.49779766809E+03  0.49785699748E+03  0.00000000000E+00 0. -1.
         11    1    1    2    0    0 -0.46865592842E+01 -0.13732793294E+02 -0.39959326018E+03  0.39985663310E+03  0.00000000000E+00 0.  1.
        -15    1    1    2    0    0 -0.15515652622E+01  0.11458061341E+02 -0.19789861829E+02  0.22988929611E+02  0.17770000000E+01 0.  1.
         15    1    1    2    0    0  0.11059687912E+02 -0.37105927304E+01 -0.78414546079E+02  0.79297439813E+02  0.17770000000E+01 0. -1.
</event>
<event>
 6    1  0.2408691E-003  0.5063774E+03  0.7546771E-02  0.9385652E-01
        -11   -1    0    0    0    0  0.00000000000E+00  0.00000000000E+00  0.50000000000E+03  0.50000000000E+03  0.00000000000E+00 0.  1.
         11   -1    0    0    0    0 -0.00000000000E+00 -0.00000000000E+00 -0.50000000000E+03  0.50000000000E+03  0.00000000000E+00 0. -1.
        -11    1    1    2    0    0 -0.89151873879E+01 -0.64447099457E+01  0.49350004384E+03  0.49362263737E+03  0.00000000000E+00 0.  1.
         11    1    1    2    0    0 -0.80700602293E+01  0.20882013383E+01 -0.48026593367E+03  0.48033826987E+03  0.00000000000E+00 0. -1.
        -15    1    1    2    0    0  0.42040803425E+01  0.52677903985E+00 -0.11603816832E+02  0.12480307758E+02  0.17770000000E+01 0. -1.
         15    1    1    2    0    0  0.12781167275E+02  0.38297295675E+01 -0.16302933350E+01  0.13558785005E+02  0.17770000000E+01 0.  1.
</event>
<event>
 6    1  0.2408691E-003  0.5124870E+03  0.7546771E-02  0.9372295E-01
        -11   -1    0    0    0    0  0.00000000000E+00  0.00000000000E+00  0.50000000000E+03  0.50000000000E+03  0.00000000000E+00 0. -1.
         11   -1    0    0    0    0 -0.00000000000E+00 -0.00000000000E+00 -0.50000000000E+03  0.50000000000E+03  0.00000000000E+00 0.  1.
        -11    1    1    2    0    0 -0.80886984796E+00  0.26448525375E+02  0.39160567979E+03  0.39249864612E+03  0.00000000000E+00 0. -1.
         11    1    1    2    0    0  0.52950250328E+01 -0.52657936112E+01 -0.48745581493E+03  0.48751301252E+03  0.00000000000E+00 0.  1.
        -15    1    1    2    0    0 -0.12249294632E+01  0.10522358893E+02 -0.66494254670E+01  0.12633015353E+02  0.17770000000E+01 0.  1.
         15    1    1    2    0    0 -0.32612257217E+01 -0.31705090657E+02  0.10249956061E+03  0.10735532600E+03  0.17770000000E+01 0. -1.
</event>
<event>
 6    1  0.2408691E-003  0.5236145E+03  0.7546771E-02  0.9348468E-01
        -11   -1    0    0    0    0  0.00000000000E+00  0.00000000000E+00  0.50000000000E+03  0.50000000000E+03  0.00000000000E+00 0. -1.
         11   -1    0    0    0    0 -0.00000000000E+00 -0.00000000000E+00 -0.50000000000E+03  0.50000000000E+03  0.00000000000E+00 0.  1.
        -11    1    1    2    0    0 -0.27558322413E+02 -0.22338910682E+00  0.47558771532E+03  0.47638554344E+03  0.00000000000E+00 0. -1.
         11    1    1    2    0    0  0.88747650811E+01  0.13068240575E+02 -0.38260329324E+03  0.38292926287E+03  0.00000000000E+00 0.  1.
        -15    1    1    2    0    0  0.32605699061E+02  0.92043303824E+01  0.92480809861E+01  0.35164414398E+02  0.17770000000E+01 0.  1.
         15    1    1    2    0    0 -0.13922141729E+02 -0.22049181851E+02 -0.10223250307E+03  0.10552077929E+03  0.17770000000E+01 0. -1.
</event>
<event>
 6    1  0.2408691E-003  0.5072462E+03  0.7546771E-02  0.9383740E-01
        -11   -1    0    0    0    0  0.00000000000E+00  0.00000000000E+00  0.50000000000E+03  0.50000000000E+03  0.00000000000E+00 0. -1.
         11   -1    0    0    0    0 -0.00000000000E+00 -0.00000000000E+00 -0.50000000000E+03  0.50000000000E+03  0.00000000000E+00 0.  1.
        -11    1    1    2    0    0 -0.13075385253E+02 -0.55751008029E+01  0.49254878053E+03  0.49275384184E+03  0.00000000000E+00 0. -1.
         11    1    1    2    0    0  0.29634178231E+01  0.84406955799E+01 -0.45583559924E+03  0.45592337155E+03  0.00000000000E+00 0.  1.
        -15    1    1    2    0    0  0.15819258088E+02 -0.87420975052E+01 -0.54588649103E+01  0.18963916535E+02  0.17770000000E+01 0. -1.
         15    1    1    2    0    0 -0.57072906577E+01  0.58765027282E+01 -0.31254316379E+02  0.32358870071E+02  0.17770000000E+01 0.  1.
</event>
<event>
 6    1  0.2408691E-003  0.5042844E+03  0.7546771E-02  0.9390274E-01
        -11   -1    0    0    0    0  0.00000000000E+00  0.00000000000E+00  0.50000000000E+03  0.50000000000E+03  0.00000000000E+00 0. -1.
         11   -1    0    0    0    0 -0.00000000000E+00 -0.00000000000E+00 -0.50000000000E+03  0.50000000000E+03  0.00000000000E+00 0.  1.
        -11    1    1    2    0    0 -0.15856288684E+01 -0.11134382359E+02  0.48149343126E+03  0.48162476373E+03  0.00000000000E+00 0. -1.
         11    1    1    2    0    0 -0.70800153271E+01  0.12640191403E+01 -0.49566337670E+03  0.49571555086E+03  0.00000000000E+00 0.  1.
        -15    1    1    2    0    0  0.64856440709E+01  0.11278906737E+02  0.14421411037E+02  0.19504157031E+02  0.17770000000E+01 0.  1.
         15    1    1    2    0    0  0.21800001246E+01 -0.14085435178E+01 -0.25146559478E+00  0.31555283757E+01  0.17770000000E+01 0. -1.
</event>
<event>
 6    1  0.2408691E-003  0.5120783E+03  0.7546771E-02  0.9373182E-01
        -11   -1    0    0    0    0  0.00000000000E+00  0.00000000000E+00  0.50000000000E+03  0.50000000000E+03  0.00000000000E+00 0.  1.
         11   -1    0    0    0    0 -0.00000000000E+00 -0.00000000000E+00 -0.50000000000E+03  0.50000000000E+03  0.00000000000E+00 0. -1.
        -11    1    1    2    0    0  0.92773697106E+01 -0.16424674396E+02  0.26088227286E+03  0.26156337628E+03  0.00000000000E+00 0.  1.
         11    1    1    2    0    0 -0.60565475072E+01 -0.12495342579E+02 -0.48772403916E+03  0.48792166761E+03  0.00000000000E+00 0. -1.
        -15    1    1    2    0    0 -0.38010212852E+01  0.38476602797E+01 -0.10447255893E+02  0.11897694614E+02  0.17770000000E+01 0. -1.
         15    1    1    2    0    0  0.58019908176E+00  0.25072356695E+02  0.23728902219E+03  0.23861726149E+03  0.17770000000E+01 0.  1.
</event>
<event>
 6    1  0.2408691E-003  0.5002497E+03  0.7546771E-02  0.9399251E-01
        -11   -1    0    0    0    0  0.00000000000E+00  0.00000000000E+00  0.50000000000E+03  0.50000000000E+03  0.00000000000E+00 0. -1.
         11   -1    0    0    0    0 -0.00000000000E+00 -0.00000000000E+00 -0.50000000000E+03  0.50000000000E+03  0.00000000000E+00 0.  1.
        -11    1    1    2    0    0  0.17514738436E+01 -0.71799357009E+00  0.13041833460E+03  0.13043207112E+03  0.00000000000E+00 0. -1.
         11    1    1    2    0    0 -0.84001721894E+01 -0.81014687099E+01 -0.49961402875E+03  0.49975031207E+03  0.00000000000E+00 0.  1.
        -15    1    1    2    0    0 -0.47107015653E+01 -0.20547363725E+01  0.11652840641E+03  0.11665521798E+03  0.17770000000E+01 0.  1.
         15    1    1    2    0    0  0.11359399911E+02  0.10874198652E+02  0.25266728774E+03  0.25316239884E+03  0.17770000000E+01 0. -1.
</event>
<event>
 6    1  0.2408691E-003  0.5011833E+03  0.7546771E-02  0.9397166E-01
        -11   -1    0    0    0    0  0.00000000000E+00  0.00000000000E+00  0.50000000000E+03  0.50000000000E+03  0.00000000000E+00 0.  1.
         11   -1    0    0    0    0 -0.00000000000E+00 -0.00000000000E+00 -0.50000000000E+03  0.50000000000E+03  0.00000000000E+00 0. -1.
        -11    1    1    2    0    0  0.11713025139E+01 -0.81810052469E+01  0.49874824751E+03  0.49881671502E+03  0.00000000000E+00 0.  1.
         11    1    1    2    0    0 -0.76017853479E+01  0.42853270809E+01 -0.33030845071E+03  0.33042370341E+03  0.00000000000E+00 0. -1.
        -15    1    1    2    0    0 -0.80056562870E+01  0.67522108401E+01 -0.37250249718E+02  0.38735277421E+02  0.17770000000E+01 0.  1.
         15    1    1    2    0    0  0.14436139121E+02 -0.28565326741E+01 -0.13118954708E+03  0.13202430414E+03  0.17770000000E+01 0. -1.
</event>
<event>
 6    1  0.2408691E-003  0.5124679E+03  0.7546771E-02  0.9372336E-01
        -11   -1    0    0    0    0  0.00000000000E+00  0.00000000000E+00  0.50000000000E+03  0.50000000000E+03  0.00000000000E+00 0.  1.
         11   -1    0    0    0    0 -0.00000000000E+00 -0.00000000000E+00 -0.50000000000E+03  0.50000000000E+03  0.00000000000E+00 0.  1.
        -11    1    1    2    0    0 -0.13028647395E+02  0.27683008226E+01  0.48735010320E+03  0.48753208329E+03  0.00000000000E+00 0.  1.
         11    1    1    2    0    0 -0.40268967459E+01  0.46241353578E+01 -0.40457411208E+03  0.40462057620E+03  0.00000000000E+00 0.  1.
        -15    1    1    2    0    0  0.31256414648E+01 -0.51164770752E+01 -0.91133640672E+02  0.91347940115E+02  0.17770000000E+01 0. -1.
         15    1    1    2    0    0  0.13929902677E+02 -0.22759591052E+01  0.83576495452E+01  0.16499400394E+02  0.17770000000E+01 0.  1.
</event>
<event>
 6    1  0.2408691E-003  0.5011740E+03  0.7546771E-02  0.9397187E-01
        -11   -1    0    0    0    0  0.00000000000E+00  0.00000000000E+00  0.50000000000E+03  0.50000000000E+03  0.00000000000E+00 0. -1.
         11   -1    0    0    0    0 -0.00000000000E+00 -0.00000000000E+00 -0.50000000000E+03  0.50000000000E+03  0.00000000000E+00 0. -1.
        -11    1    1    2    0    0 -0.52146979793E+01  0.43310150539E-01  0.32546191160E+03  0.32550368792E+03  0.00000000000E+00 0. -1.
         11    1    1    2    0    0  0.59245567821E+01 -0.59665148109E+01 -0.49875515163E+03  0.49882602273E+03  0.00000000000E+00 0. -1.
        -15    1    1    2    0    0 -0.10132307347E+01 -0.23474766127E+01  0.11503246837E+01  0.33193762738E+01  0.17770000000E+01 0. -1.
         15    1    1    2    0    0  0.30337193189E+00  0.82706812731E+01  0.17214291535E+03  0.17235091307E+03  0.17770000000E+01 0. -1.
</event>
<event>
 6    1  0.2408691E-003  0.5023284E+03  0.7546771E-02  0.9394615E-01
        -11   -1    0    0    0    0  0.00000000000E+00  0.00000000000E+00  0.50000000000E+03  0.50000000000E+03  0.00000000000E+00 0.  1.
         11   -1    0    0    0    0 -0.00000000000E+00 -0.00000000000E+00 -0.50000000000E+03  0.50000000000E+03  0.00000000000E+00 0. -1.
        -11    1    1    2    0    0  0.51413225880E+01  0.73765776196E+01  0.49759033685E+03  0.49767156883E+03  0.00000000000E+00 0.  1.
         11    1    1    2    0    0 -0.46100797346E+01  0.51419554643E+01 -0.47598923326E+03  0.47603932897E+03  0.00000000000E+00 0. -1.
        -15    1    1    2    0    0  0.13015512856E+01 -0.27098922614E+01 -0.11343234215E+02  0.11868624321E+02  0.17770000000E+01 0. -1.
         15    1    1    2    0    0 -0.18327941390E+01 -0.98086408225E+01 -0.10257869374E+02  0.14420477878E+02  0.17770000000E+01 0.  1.
</event>
<event>
 6    1  0.2408691E-003  0.5032266E+03  0.7546771E-02  0.9392619E-01
        -11   -1    0    0    0    0  0.00000000000E+00  0.00000000000E+00  0.50000000000E+03  0.50000000000E+03  0.00000000000E+00 0.  1.
         11   -1    0    0    0    0 -0.00000000000E+00 -0.00000000000E+00 -0.50000000000E+03  0.50000000000E+03  0.00000000000E+00 0.  1.
        -11    1    1    2    0    0  0.16649183974E+02  0.34144737644E+01  0.38940825207E+03  0.38977896395E+03  0.00000000000E+00 0.  1.
         11    1    1    2    0    0  0.28641470060E+01 -0.66874028947E+01 -0.49672009927E+03  0.49677337058E+03  0.00000000000E+00 0.  1.
        -15    1    1    2    0    0 -0.11682951766E+02  0.12409318816E+02  0.25413662528E+02  0.30651174978E+02  0.17770000000E+01 0. -1.
         15    1    1    2    0    0 -0.78303792139E+01 -0.91363896853E+01  0.81898184681E+02  0.82796490494E+02  0.17770000000E+01 0.  1.
</event>
<event>
 6    1  0.2408691E-003  0.5559655E+03  0.7546771E-02  0.9282615E-01
        -11   -1    0    0    0    0  0.00000000000E+00  0.00000000000E+00  0.50000000000E+03  0.50000000000E+03  0.00000000000E+00 0.  1.
         11   -1    0    0    0    0 -0.00000000000E+00 -0.00000000000E+00 -0.50000000000E+03  0.50000000000E+03  0.00000000000E+00 0.  1.
        -11    1    1    2    0    0 -0.70366264698E+01 -0.37885420563E+02  0.35063871070E+03  0.35274966285E+03  0.00000000000E+00 0.  1.
         11    1    1    2    0    0  0.20457980274E+02 -0.12678765438E+02 -0.44338168962E+03  0.44403446121E+03  0.00000000000E+00 0.  1.
        -15    1    1    2    0    0  0.12594584534E+02 -0.30158696355E+01 -0.48333984729E+02  0.50070458736E+02  0.17770000000E+01 0.  1.
         15    1    1    2    0    0 -0.26015938338E+02  0.53580055637E+02  0.14107696365E+03  0.15314541720E+03  0.17770000000E+01 0. -1.
</event>
<event>
 6    1  0.2408691E-003  0.3161199E+03  0.7546771E-02  0.9942957E-01
        -11   -1    0    0    0    0  0.00000000000E+00  0.00000000000E+00  0.50000000000E+03  0.50000000000E+03  0.00000000000E+00 0.  1.
         11   -1    0    0    0    0 -0.00000000000E+00 -0.00000000000E+00 -0.50000000000E+03  0.50000000000E+03  0.00000000000E+00 0. -1.
        -11    1    1    2    0    0  0.37462139887E+02  0.54686878527E+01  0.23246973655E+03  0.23553236907E+03  0.00000000000E+00 0.  1.
         11    1    1    2    0    0 -0.10385555231E+02  0.72906714579E+01 -0.37612277341E+03  0.37633675654E+03  0.00000000000E+00 0. -1.
        -15    1    1    2    0    0 -0.23345914058E+02 -0.96053029220E+01  0.26523411545E+03  0.26643871204E+03  0.17770000000E+01 0.  1.
         15    1    1    2    0    0 -0.37306705980E+01 -0.31540563886E+01 -0.12158107859E+03  0.12169216234E+03  0.17770000000E+01 0. -1.
</event>
<event>
 6    1  0.2408691E-003  0.5048024E+03  0.7546771E-02  0.9389128E-01
        -11   -1    0    0    0    0  0.00000000000E+00  0.00000000000E+00  0.50000000000E+03  0.50000000000E+03  0.00000000000E+00 0. -1.
         11   -1    0    0    0    0 -0.00000000000E+00 -0.00000000000E+00 -0.50000000000E+03  0.50000000000E+03  0.00000000000E+00 0.  1.
        -11    1    1    2    0    0  0.66460056736E+01 -0.10748019436E+02  0.45253827161E+03  0.45271467459E+03  0.00000000000E+00 0. -1.
         11    1    1    2    0    0 -0.47895227259E+01 -0.66886340746E+01 -0.49512928160E+03  0.49519762000E+03  0.00000000000E+00 0.  1.
        -15    1    1    2    0    0  0.26246475599E+01  0.82389686088E+01  0.61805468131E+00  0.88492428569E+01  0.17770000000E+01 0.  1.
         15    1    1    2    0    0 -0.44811305076E+01  0.91976849016E+01  0.41972955306E+02  0.43238462557E+02  0.17770000000E+01 0. -1.
</event>
<event>
 6    1  0.2408691E-003  0.5070281E+03  0.7546771E-02  0.9384220E-01
        -11   -1    0    0    0    0  0.00000000000E+00  0.00000000000E+00  0.50000000000E+03  0.50000000000E+03  0.00000000000E+00 0. -1.
         11   -1    0    0    0    0 -0.00000000000E+00 -0.00000000000E+00 -0.50000000000E+03  0.50000000000E+03  0.00000000000E+00 0.  1.
        -11    1    1    2    0    0  0.22556803631E+02  0.19231165033E+02  0.38799368837E+03  0.38912433658E+03  0.00000000000E+00 0. -1.
         11    1    1    2    0    0  0.33614656191E+01 -0.10888213643E+02 -0.49284016745E+03  0.49297188895E+03  0.00000000000E+00 0.  1.
        -15    1    1    2    0    0 -0.71824428912E+01 -0.59789348519E+01  0.96855317131E+02  0.97321350861E+02  0.17770000000E+01 0.  1.
         15    1    1    2    0    0 -0.18735826359E+02 -0.23640165381E+01  0.79911619393E+01  0.20582423610E+02  0.17770000000E+01 0. -1.
</event>
<event>
 6    1  0.2408691E-003  0.5056357E+03  0.7546771E-02  0.9387287E-01
        -11   -1    0    0    0    0  0.00000000000E+00  0.00000000000E+00  0.50000000000E+03  0.50000000000E+03  0.00000000000E+00 0. -1.
         11   -1    0    0    0    0 -0.00000000000E+00 -0.00000000000E+00 -0.50000000000E+03  0.50000000000E+03  0.00000000000E+00 0.  1.
        -11    1    1    2    0    0  0.66354216876E+01 -0.56792240571E+01  0.49428711866E+03  0.49436427670E+03  0.00000000000E+00 0. -1.
         11    1    1    2    0    0 -0.52706661213E+01  0.45876125566E+01 -0.44028367531E+03  0.44033912029E+03  0.00000000000E+00 0.  1.
        -15    1    1    2    0    0 -0.34214532561E+01  0.16465267106E+01  0.48312363061E+01  0.63965589060E+01  0.17770000000E+01 0.  1.
         15    1    1    2    0    0  0.20566976897E+01 -0.55491521007E+00 -0.58834679656E+02  0.58900044105E+02  0.17770000000E+01 0. -1.
</event>
<event>
 6    1  0.2408691E-003  0.5010084E+03  0.7546771E-02  0.9397556E-01
        -11   -1    0    0    0    0  0.00000000000E+00  0.00000000000E+00  0.50000000000E+03  0.50000000000E+03  0.00000000000E+00 0.  1.
         11   -1    0    0    0    0 -0.00000000000E+00 -0.00000000000E+00 -0.50000000000E+03  0.50000000000E+03  0.00000000000E+00 0.  1.
        -11    1    1    2    0    0 -0.51629524304E+01  0.44851600411E+01  0.42043381989E+03  0.42048944058E+03  0.00000000000E+00 0.  1.
         11    1    1    2    0    0 -0.13229381749E+01 -0.68512607495E+01 -0.49894282691E+03  0.49899161763E+03  0.00000000000E+00 0.  1.
        -15    1    1    2    0    0  0.36746048228E+01  0.89238720600E+01  0.33296408708E+02  0.34712343266E+02  0.17770000000E+01 0. -1.
         15    1    1    2    0    0  0.28112857826E+01 -0.65577713516E+01  0.45212598314E+02  0.45806598522E+02  0.17770000000E+01 0.  1.
</event>
<event>
 6    1  0.2408691E-003  0.5117564E+03  0.7546771E-02  0.9373881E-01
        -11   -1    0    0    0    0  0.00000000000E+00  0.00000000000E+00  0.50000000000E+03  0.50000000000E+03  0.00000000000E+00 0. -1.
         11   -1    0    0    0    0 -0.00000000000E+00 -0.00000000000E+00 -0.50000000000E+03  0.50000000000E+03  0.00000000000E+00 0. -1.
        -11    1    1    2    0    0 -0.43960702894E+01 -0.86060304172E+01  0.45304656482E+03  0.45314962108E+03  0.00000000000E+00 0. -1.
         11    1    1    2    0    0 -0.78358207115E+01 -0.91104057580E+01 -0.48809566715E+03  0.48824356613E+03  0.00000000000E+00 0. -1.
        -15    1    1    2    0    0  0.10994345467E+02  0.13878439392E+02 -0.48670801154E+01  0.18448113997E+02  0.17770000000E+01 0. -1.
         15    1    1    2    0    0  0.12375455339E+01  0.38379967830E+01  0.39916182444E+02  0.40158698786E+02  0.17770000000E+01 0.  1.
</event>
<event>
 6    1  0.2408691E-003  0.5074154E+03  0.7546771E-02  0.9383368E-01
        -11   -1    0    0    0    0  0.00000000000E+00  0.00000000000E+00  0.50000000000E+03  0.50000000000E+03  0.00000000000E+00 0. -1.
         11   -1    0    0    0    0 -0.00000000000E+00 -0.00000000000E+00 -0.50000000000E+03  0.50000000000E+03  0.00000000000E+00 0.  1.
        -11    1    1    2    0    0 -0.79854338899E+01  0.69964275384E+00  0.49251939932E+03  0.49258462762E+03  0.00000000000E+00 0. -1.
         11    1    1    2    0    0  0.19927939577E+01 -0.95919849040E+01 -0.46939497421E+03  0.46949719830E+03  0.00000000000E+00 0.  1.
        -15    1    1    2    0    0  0.15812378314E+02  0.59798521416E+01 -0.21481687895E+02  0.27393623043E+02  0.17770000000E+01 0. -1.
         15    1    1    2    0    0 -0.98197383819E+01  0.29124900086E+01 -0.16427372194E+01  0.10524551036E+02  0.17770000000E+01 0.  1.
</event>
<event>
 6    1  0.2408691E-003  0.5079481E+03  0.7546771E-02  0.9382199E-01
        -11   -1    0    0    0    0  0.00000000000E+00  0.00000000000E+00  0.50000000000E+03  0.50000000000E+03  0.00000000000E+00 0.  1.
         11   -1    0    0    0    0 -0.00000000000E+00 -0.00000000000E+00 -0.50000000000E+03  0.50000000000E+03  0.00000000000E+00 0. -1.
        -11    1    1    2    0    0 -0.63242857681E+01 -0.26851816359E+01  0.49200389540E+03  0.49205186706E+03  0.00000000000E+00 0.  1.
         11    1    1    2    0    0  0.47160995312E+01  0.58241903696E+00 -0.26028967868E+03  0.26033305137E+03  0.00000000000E+00 0. -1.
        -15    1    1    2    0    0  0.84970966779E+01  0.20079901297E+00  0.55052294985E+01  0.10281354630E+02  0.17770000000E+01 0. -1.
         15    1    1    2    0    0 -0.68889104409E+01  0.19019635860E+01 -0.23721944621E+03  0.23733372694E+03  0.17770000000E+01 0. -1.
</event>
<event>
 6    1  0.2408691E-003  0.5020653E+03  0.7546771E-02  0.9395200E-01
        -11   -1    0    0    0    0  0.00000000000E+00  0.00000000000E+00  0.50000000000E+03  0.50000000000E+03  0.00000000000E+00 0. -1.
         11   -1    0    0    0    0 -0.00000000000E+00 -0.00000000000E+00 -0.50000000000E+03  0.50000000000E+03  0.00000000000E+00 0.  1.
        -11    1    1    2    0    0  0.73893628980E+01  0.63407958826E+01  0.49783953614E+03  0.49793474685E+03  0.00000000000E+00 0. -1.
         11    1    1    2    0    0  0.60023706872E+01 -0.57898810975E+01 -0.40611834801E+03  0.40620396818E+03  0.00000000000E+00 0.  1.
        -15    1    1    2    0    0 -0.14006826827E+02 -0.52064976354E+01 -0.88771470474E+02  0.90037939307E+02  0.17770000000E+01 0. -1.
         15    1    1    2    0    0  0.61509324206E+00  0.46555828503E+01 -0.29497176583E+01  0.58233456566E+01  0.17770000000E+01 0.  1.
</event>
<event>
 6    1  0.2408691E-003  0.5005826E+03  0.7546771E-02  0.9398507E-01
        -11   -1    0    0    0    0  0.00000000000E+00  0.00000000000E+00  0.50000000000E+03  0.50000000000E+03  0.00000000000E+00 0.  1.
         11   -1    0    0    0    0 -0.00000000000E+00 -0.00000000000E+00 -0.50000000000E+03  0.50000000000E+03  0.00000000000E+00 0. -1.
        -11    1    1    2    0    0 -0.37797342881E+00 -0.12039918487E+01  0.42094372940E+02  0.42113284050E+02  0.00000000000E+00 0.  1.
         11    1    1    2    0    0  0.37304839479E+01  0.63283056750E+01 -0.49936339082E+03  0.49941742066E+03  0.00000000000E+00 0. -1.
        -15    1    1    2    0    0  0.11122557141E+02  0.43836252116E+01  0.29928188238E+03  0.29952584245E+03  0.17770000000E+01 0.  1.
         15    1    1    2    0    0 -0.14475067660E+02 -0.95079390380E+01  0.15798713550E+03  0.15894345285E+03  0.17770000000E+01 0. -1.
</event>
<event>
 6    1  0.2408691E-003  0.5041177E+03  0.7546771E-02  0.9390643E-01
        -11   -1    0    0    0    0  0.00000000000E+00  0.00000000000E+00  0.50000000000E+03  0.50000000000E+03  0.00000000000E+00 0.  1.
         11   -1    0    0    0    0 -0.00000000000E+00 -0.00000000000E+00 -0.50000000000E+03  0.50000000000E+03  0.00000000000E+00 0.  1.
        -11    1    1    2    0    0  0.59599579173E+01 -0.10568397863E+02  0.49573388084E+03  0.49588233760E+03  0.00000000000E+00 0.  1.
         11    1    1    2    0    0  0.22987174269E+02 -0.12247721318E+02 -0.24288846245E+03  0.24428103088E+03  0.00000000000E+00 0.  1.
        -15    1    1    2    0    0 -0.36434565033E+01  0.13424923465E+02 -0.15293551863E+02  0.20749790430E+02  0.17770000000E+01 0. -1.
         15    1    1    2    0    0 -0.25303675683E+02  0.93911957165E+01 -0.23755186653E+03  0.23908684109E+03  0.17770000000E+01 0.  1.
</event>
<event>
 6    1  0.2408691E-003  0.5043484E+03  0.7546771E-02  0.9390132E-01
        -11   -1    0    0    0    0  0.00000000000E+00  0.00000000000E+00  0.50000000000E+03  0.50000000000E+03  0.00000000000E+00 0.  1.
         11   -1    0    0    0    0 -0.00000000000E+00 -0.00000000000E+00 -0.50000000000E+03  0.50000000000E+03  0.00000000000E+00 0.  1.
        -11    1    1    2    0    0 -0.11662102552E+02  0.47909511493E+01  0.49549119449E+03  0.49565157285E+03  0.00000000000E+00 0.  1.
         11    1    1    2    0    0 -0.32948596060E+01 -0.84729009461E+01 -0.46367403967E+03  0.46376315206E+03  0.00000000000E+00 0.  1.
        -15    1    1    2    0    0  0.14890601050E+02 -0.50116862943E+01 -0.16292416285E+02  0.22703470143E+02  0.17770000000E+01 0. -1.
         15    1    1    2    0    0  0.66361108249E-01  0.86936360911E+01 -0.15524738540E+02  0.17881804943E+02  0.17770000000E+01 0.  1.
</event>
<event>
 6    1  0.2408691E-003  0.4838638E+03  0.7546771E-02  0.9436658E-01
        -11   -1    0    0    0    0  0.00000000000E+00  0.00000000000E+00  0.50000000000E+03  0.50000000000E+03  0.00000000000E+00 0.  1.
         11   -1    0    0    0    0 -0.00000000000E+00 -0.00000000000E+00 -0.50000000000E+03  0.50000000000E+03  0.00000000000E+00 0. -1.
        -11    1    1    2    0    0 -0.66146236658E+01  0.26924143805E+01  0.48348158948E+03  0.48353433146E+03  0.00000000000E+00 0.  1.
         11    1    1    2    0    0 -0.10533449953E+02  0.50989944272E-01 -0.48423486651E+03  0.48434942151E+03  0.00000000000E+00 0. -1.
        -15    1    1    2    0    0  0.12185822079E+02  0.41059453626E+01 -0.11350419199E+02  0.17243630478E+02  0.17770000000E+01 0. -1.
         15    1    1    2    0    0  0.49622515392E+01 -0.68493496874E+01  0.12103696235E+02  0.14872616550E+02  0.17770000000E+01 0.  1.
</event>
<event>
 6    1  0.2408691E-003  0.5149243E+03  0.7546771E-02  0.9367021E-01
        -11   -1    0    0    0    0  0.00000000000E+00  0.00000000000E+00  0.50000000000E+03  0.50000000000E+03  0.00000000000E+00 0.  1.
         11   -1    0    0    0    0 -0.00000000000E+00 -0.00000000000E+00 -0.50000000000E+03  0.50000000000E+03  0.00000000000E+00 0. -1.
        -11    1    1    2    0    0  0.66936998356E+01 -0.20819129582E+02  0.45538757507E+03  0.45591236581E+03  0.00000000000E+00 0.  1.
         11    1    1    2    0    0  0.13976886016E+02  0.10683385705E+02 -0.48475661852E+03  0.48507573354E+03  0.00000000000E+00 0. -1.
        -15    1    1    2    0    0 -0.76898548284E+01 -0.16223741066E+02  0.90459557683E+00  0.18064320181E+02  0.17770000000E+01 0. -1.
         15    1    1    2    0    0 -0.12980731023E+02  0.26359484943E+02  0.28464447873E+02  0.40947580467E+02  0.17770000000E+01 0.  1.
</event>
<event>
 6    1  0.2408691E-003  0.5015751E+03  0.7546771E-02  0.9396292E-01
        -11   -1    0    0    0    0  0.00000000000E+00  0.00000000000E+00  0.50000000000E+03  0.50000000000E+03  0.00000000000E+00 0.  1.
         11   -1    0    0    0    0 -0.00000000000E+00 -0.00000000000E+00 -0.50000000000E+03  0.50000000000E+03  0.00000000000E+00 0. -1.
        -11    1    1    2    0    0 -0.96958982354E+01  0.93388389552E+01  0.41101915383E+03  0.41123955205E+03  0.00000000000E+00 0.  1.
         11    1    1    2    0    0  0.38662108061E+01 -0.67639441822E+01 -0.49836401489E+03  0.49842490895E+03  0.00000000000E+00 0. -1.
        -15    1    1    2    0    0  0.88286062980E+01 -0.53662905413E+01  0.17875267780E+02  0.20722555116E+02  0.17770000000E+01 0. -1.
         15    1    1    2    0    0 -0.29989188687E+01  0.27913957683E+01  0.69469593280E+02  0.69612983876E+02  0.17770000000E+01 0. -1.
</event>
<event>
 6    1  0.2408691E-003  0.5164917E+03  0.7546771E-02  0.9363646E-01
        -11   -1    0    0    0    0  0.00000000000E+00  0.00000000000E+00  0.50000000000E+03  0.50000000000E+03  0.00000000000E+00 0.  1.
         11   -1    0    0    0    0 -0.00000000000E+00 -0.00000000000E+00 -0.50000000000E+03  0.50000000000E+03  0.00000000000E+00 0. -1.
        -11    1    1    2    0    0  0.55975547678E+01  0.82149505700E+01  0.48340610684E+03  0.48350830620E+03  0.00000000000E+00 0.  1.
         11    1    1    2    0    0 -0.49844542994E+00  0.13705099269E+02 -0.46864103252E+03  0.46884165297E+03  0.00000000000E+00 0. -1.
        -15    1    1    2    0    0  0.18442556872E+00 -0.20351072912E+01  0.12869557534E+02  0.13151384513E+02  0.17770000000E+01 0.  1.
         15    1    1    2    0    0 -0.52835349066E+01 -0.19884942548E+02 -0.27634631852E+02  0.34498656319E+02  0.17770000000E+01 0. -1.
</event>
<event>
 6    1  0.2408691E-003  0.5025889E+03  0.7546771E-02  0.9394036E-01
        -11   -1    0    0    0    0  0.00000000000E+00  0.00000000000E+00  0.50000000000E+03  0.50000000000E+03  0.00000000000E+00 0.  1.
         11   -1    0    0    0    0 -0.00000000000E+00 -0.00000000000E+00 -0.50000000000E+03  0.50000000000E+03  0.00000000000E+00 0.  1.
        -11    1    1    2    0    0  0.10807282679E+02 -0.85157734154E+01  0.38923772800E+03  0.38948083991E+03  0.00000000000E+00 0.  1.
         11    1    1    2    0    0  0.39539986366E+01 -0.55245302112E+01 -0.49736474142E+03  0.49741113835E+03  0.00000000000E+00 0.  1.
        -15    1    1    2    0    0 -0.14380139284E+01  0.26287478694E+01  0.78882184675E+02  0.78959071598E+02  0.17770000000E+01 0.  1.
         15    1    1    2    0    0 -0.13323267387E+02  0.11411555757E+02  0.29244828751E+02  0.34148950150E+02  0.17770000000E+01 0. -1.
</event>
<event>
 6    1  0.2408691E-003  0.5005069E+03  0.7546771E-02  0.9398676E-01
        -11   -1    0    0    0    0  0.00000000000E+00  0.00000000000E+00  0.50000000000E+03  0.50000000000E+03  0.00000000000E+00 0. -1.
         11   -1    0    0    0    0 -0.00000000000E+00 -0.00000000000E+00 -0.50000000000E+03  0.50000000000E+03  0.00000000000E+00 0. -1.
        -11    1    1    2    0    0 -0.59014944931E+01  0.51926497279E+01  0.49943120740E+03  0.49949306519E+03  0.00000000000E+00 0. -1.
         11    1    1    2    0    0 -0.10923808996E+01 -0.53947611266E+01 -0.37976833837E+03  0.37980822473E+03  0.00000000000E+00 0. -1.
        -15    1    1    2    0    0  0.70298910250E+01 -0.50158562458E+01 -0.46501084712E+02  0.47329555144E+02  0.17770000000E+01 0. -1.
         15    1    1    2    0    0 -0.36015632378E-01  0.52179676445E+01 -0.73161784316E+02  0.73369154941E+02  0.17770000000E+01 0.  1.
</event>
<event>
 6    1  0.2408691E-003  0.5002386E+03  0.7546771E-02  0.9399276E-01
        -11   -1    0    0    0    0  0.00000000000E+00  0.00000000000E+00  0.50000000000E+03  0.50000000000E+03  0.00000000000E+00 0. -1.
         11   -1    0    0    0    0 -0.00000000000E+00 -0.00000000000E+00 -0.50000000000E+03  0.50000000000E+03  0.00000000000E+00 0. -1.
        -11    1    1    2    0    0 -0.54337980490E+00 -0.55495903123E+00  0.35425139346E+02  0.35433652632E+02  0.00000000000E+00 0. -1.
         11    1    1    2    0    0  0.12779092254E+02  0.61948967225E+01 -0.49955956329E+03  0.49976138228E+03  0.00000000000E+00 0. -1.
        -15    1    1    2    0    0  0.13027060987E+01 -0.75289699140E+01  0.71579007090E+02  0.72007599711E+02  0.17770000000E+01 0.  1.
         15    1    1    2    0    0 -0.13538418548E+02  0.18890322227E+01  0.39255541685E+03  0.39279736538E+03  0.17770000000E+01 0. -1.
</event>
<event>
 6    1  0.2408691E-003  0.5116100E+03  0.7546771E-02  0.9374200E-01
        -11   -1    0    0    0    0  0.00000000000E+00  0.00000000000E+00  0.50000000000E+03  0.50000000000E+03  0.00000000000E+00 0.  1.
         11   -1    0    0    0    0 -0.00000000000E+00 -0.00000000000E+00 -0.50000000000E+03  0.50000000000E+03  0.00000000000E+00 0.  1.
        -11    1    1    2    0    0  0.13507513930E+00 -0.76747487012E+01  0.46741608976E+03  0.46747911288E+03  0.00000000000E+00 0.  1.
         11    1    1    2    0    0  0.68872011459E+01  0.20292391460E+00 -0.48834140739E+03  0.48839001309E+03  0.00000000000E+00 0.  1.
        -15    1    1    2    0    0 -0.36842635154E+01  0.62498219365E+01  0.31741087622E+02  0.32608103967E+02  0.17770000000E+01 0.  1.
         15    1    1    2    0    0 -0.33380127698E+01  0.12220028502E+01 -0.10815769996E+02  0.11522770059E+02  0.17770000000E+01 0. -1.
</event>
<event>
 6    1  0.2408691E-003  0.5074003E+03  0.7546771E-02  0.9383401E-01
        -11   -1    0    0    0    0  0.00000000000E+00  0.00000000000E+00  0.50000000000E+03  0.50000000000E+03  0.00000000000E+00 0. -1.
         11   -1    0    0    0    0 -0.00000000000E+00 -0.00000000000E+00 -0.50000000000E+03  0.50000000000E+03  0.00000000000E+00 0.  1.
        -11    1    1    2    0    0  0.53535796687E+01 -0.83456329963E+01  0.28205247438E+03  0.28222669738E+03  0.00000000000E+00 0. -1.
         11    1    1    2    0    0 -0.57466327854E+01  0.22431310719E+02 -0.49205511712E+03  0.49259966075E+03  0.00000000000E+00 0.  1.
        -15    1    1    2    0    0 -0.27287813074E+02 -0.32814243248E+02  0.15509628228E+03  0.16087079849E+03  0.17770000000E+01 0. -1.
         15    1    1    2    0    0  0.27680866191E+02  0.18728565526E+02  0.54906360455E+02  0.64302843383E+02  0.17770000000E+01 0.  1.
</event>
<event>
 6    1  0.2408691E-003  0.5096703E+03  0.7546771E-02  0.9378428E-01
        -11   -1    0    0    0    0  0.00000000000E+00  0.00000000000E+00  0.50000000000E+03  0.50000000000E+03  0.00000000000E+00 0. -1.
         11   -1    0    0    0    0 -0.00000000000E+00 -0.00000000000E+00 -0.50000000000E+03  0.50000000000E+03  0.00000000000E+00 0.  1.
        -11    1    1    2    0    0  0.86113452356E+01 -0.66236012621E+01  0.49020932253E+03  0.49032969241E+03  0.00000000000E+00 0. -1.
         11    1    1    2    0    0  0.47191964724E+01  0.85589460887E+01 -0.44901864694E+03  0.44912500674E+03  0.00000000000E+00 0.  1.
        -15    1    1    2    0    0 -0.29587000822E+01 -0.72202605822E+01 -0.46816029583E+02  0.47495098947E+02  0.17770000000E+01 0. -1.
         15    1    1    2    0    0 -0.10371841626E+02  0.52849157556E+01  0.56253539931E+01  0.13050201907E+02  0.17770000000E+01 0.  1.
</event>
<event>
 6    1  0.2408691E-003  0.3807649E+03  0.7546771E-02  0.9715006E-01
        -11   -1    0    0    0    0  0.00000000000E+00  0.00000000000E+00  0.50000000000E+03  0.50000000000E+03  0.00000000000E+00 0. -1.
         11   -1    0    0    0    0 -0.00000000000E+00 -0.00000000000E+00 -0.50000000000E+03  0.50000000000E+03  0.00000000000E+00 0. -1.
        -11    1    1    2    0    0  0.16272122710E+02 -0.65219031018E+02  0.41166174091E+03  0.41711352521E+03  0.00000000000E+00 0. -1.
         11    1    1    2    0    0 -0.59006937048E+02 -0.41781866717E+02 -0.34826232548E+03  0.35568833317E+03  0.00000000000E+00 0. -1.
        -15    1    1    2    0    0  0.60513815802E+02  0.10656250909E+02 -0.10426033036E+03  0.12103244111E+03  0.17770000000E+01 0. -1.
         15    1    1    2    0    0 -0.17779001464E+02  0.96344646825E+02  0.40860914929E+02  0.10616570050E+03  0.17770000000E+01 0.  1.
</event>
<event>
 6    1  0.2408691E-003  0.4855661E+03  0.7546771E-02  0.9432699E-01
        -11   -1    0    0    0    0  0.00000000000E+00  0.00000000000E+00  0.50000000000E+03  0.50000000000E+03  0.00000000000E+00 0.  1.
         11   -1    0    0    0    0 -0.00000000000E+00 -0.00000000000E+00 -0.50000000000E+03  0.50000000000E+03  0.00000000000E+00 0.  1.
        -11    1    1    2    0    0 -0.82372163745E+01 -0.32934983445E+01  0.48393175012E+03  0.48401305524E+03  0.00000000000E+00 0.  1.
         11    1    1    2    0    0  0.26527741194E+01 -0.19173229864E+02 -0.48701542369E+03  0.48739991061E+03  0.00000000000E+00 0.  1.
        -15    1    1    2    0    0  0.80121841541E+01  0.22381972240E+02  0.57979759344E+01  0.24534099336E+02  0.17770000000E+01 0. -1.
         15    1    1    2    0    0 -0.24277418989E+01  0.84755968871E-01 -0.27143023673E+01  0.40529348186E+01  0.17770000000E+01 0.  1.
</event>
<event>
 6    1  0.2408691E-003  0.5111147E+03  0.7546771E-02  0.9375277E-01
        -11   -1    0    0    0    0  0.00000000000E+00  0.00000000000E+00  0.50000000000E+03  0.50000000000E+03  0.00000000000E+00 0. -1.
         11   -1    0    0    0    0 -0.00000000000E+00 -0.00000000000E+00 -0.50000000000E+03  0.50000000000E+03  0.00000000000E+00 0.  1.
        -11    1    1    2    0    0 -0.82012037720E+01 -0.67988139960E+01  0.48876920807E+03  0.48888528550E+03  0.00000000000E+00 0. -1.
         11    1    1    2    0    0 -0.97034826271E+01  0.13419572174E+02 -0.26152989634E+03  0.26205367613E+03  0.00000000000E+00 0.  1.
        -15    1    1    2    0    0  0.34362431964E+02  0.81346579228E+01 -0.19965771509E+02  0.40604669079E+02  0.17770000000E+01 0.  1.
         15    1    1    2    0    0 -0.16457745565E+02 -0.14755416101E+02 -0.20727354023E+03  0.20845636930E+03  0.17770000000E+01 0. -1.
</event>
<event>
 6    1  0.2408691E-003  0.5013931E+03  0.7546771E-02  0.9396698E-01
        -11   -1    0    0    0    0  0.00000000000E+00  0.00000000000E+00  0.50000000000E+03  0.50000000000E+03  0.00000000000E+00 0.  1.
         11   -1    0    0    0    0 -0.00000000000E+00 -0.00000000000E+00 -0.50000000000E+03  0.50000000000E+03  0.00000000000E+00 0.  1.
        -11    1    1    2    0    0 -0.43604226441E+01  0.29644903552E+01  0.38970155944E+03  0.38973722804E+03  0.00000000000E+00 0.  1.
         11    1    1    2    0    0  0.46315146122E+01  0.98861271470E+01 -0.49848737255E+03  0.49860690632E+03  0.00000000000E+00 0.  1.
        -15    1    1    2    0    0  0.15509341442E+01 -0.90781272975E+01  0.10579574679E+03  0.10621071302E+03  0.17770000000E+01 0. -1.
         15    1    1    2    0    0 -0.18220261122E+01 -0.37724902047E+01  0.29900663222E+01  0.54451526250E+01  0.17770000000E+01 0.  1.
</event>
<event>
 6    1  0.2408691E-003  0.5270166E+03  0.7546771E-02  0.9341308E-01
        -11   -1    0    0    0    0  0.00000000000E+00  0.00000000000E+00  0.50000000000E+03  0.50000000000E+03  0.00000000000E+00 0.  1.
         11   -1    0    0    0    0 -0.00000000000E+00 -0.00000000000E+00 -0.50000000000E+03  0.50000000000E+03  0.00000000000E+00 0.  1.
        -11    1    1    2    0    0 -0.44992846480E+01  0.81106596564E+01  0.47289247479E+03  0.47298342368E+03  0.00000000000E+00 0.  1.
         11    1    1    2    0    0 -0.16548325651E+02  0.39436118942E+01 -0.28668689299E+03  0.28719117983E+03  0.00000000000E+00 0.  1.
        -15    1    1    2    0    0 -0.50459376384E+02  0.19069806431E+02 -0.22480416003E+02  0.58466511911E+02  0.17770000000E+01 0. -1.
         15    1    1    2    0    0  0.71506986683E+02 -0.31124077982E+02 -0.16372516579E+03  0.18135888458E+03  0.17770000000E+01 0.  1.
</event>
<event>
 6    1  0.2408691E-003  0.5043946E+03  0.7546771E-02  0.9390030E-01
        -11   -1    0    0    0    0  0.00000000000E+00  0.00000000000E+00  0.50000000000E+03  0.50000000000E+03  0.00000000000E+00 0. -1.
         11   -1    0    0    0    0 -0.00000000000E+00 -0.00000000000E+00 -0.50000000000E+03  0.50000000000E+03  0.00000000000E+00 0. -1.
        -11    1    1    2    0    0  0.68680175135E+01 -0.10113212810E+00  0.17716398928E+03  0.17729709245E+03  0.00000000000E+00 0. -1.
         11    1    1    2    0    0 -0.20730318675E+01  0.82038700997E+01 -0.49553316275E+03  0.49560540386E+03  0.00000000000E+00 0. -1.
        -15    1    1    2    0    0 -0.45594630366E+01 -0.47335721936E+01  0.32185607627E+03  0.32192807732E+03  0.17770000000E+01 0. -1.
         15    1    1    2    0    0 -0.23552260944E+00 -0.33691657781E+01 -0.34869027926E+01  0.51694263729E+01  0.17770000000E+01 0.  1.
</event>
<event>
 6    1  0.2408691E-003  0.4939980E+03  0.7546771E-02  0.9413341E-01
        -11   -1    0    0    0    0  0.00000000000E+00  0.00000000000E+00  0.50000000000E+03  0.50000000000E+03  0.00000000000E+00 0. -1.
         11   -1    0    0    0    0 -0.00000000000E+00 -0.00000000000E+00 -0.50000000000E+03  0.50000000000E+03  0.00000000000E+00 0. -1.
        -11    1    1    2    0    0  0.47497055208E+01 -0.53014415498E+01  0.49297803275E+03  0.49302941673E+03  0.00000000000E+00 0. -1.
         11    1    1    2    0    0  0.52925965359E+01  0.52277838538E+01 -0.49496379641E+03  0.49501969765E+03  0.00000000000E+00 0. -1.
        -15    1    1    2    0    0 -0.50654379211E+01 -0.24826099590E+01  0.99340767846E+00  0.59972161338E+01  0.17770000000E+01 0. -1.
         15    1    1    2    0    0 -0.49768641356E+01  0.25562676549E+01  0.99235598643E+00  0.59536694863E+01  0.17770000000E+01 0.  1.
</event>
<event>
 6    1  0.2408691E-003  0.5014689E+03  0.7546771E-02  0.9396529E-01
        -11   -1    0    0    0    0  0.00000000000E+00  0.00000000000E+00  0.50000000000E+03  0.50000000000E+03  0.00000000000E+00 0. -1.
         11   -1    0    0    0    0 -0.00000000000E+00 -0.00000000000E+00 -0.50000000000E+03  0.50000000000E+03  0.00000000000E+00 0.  1.
        -11    1    1    2    0    0 -0.49652565142E+01  0.60704193717E+01  0.29457461235E+03  0.29467898806E+03  0.00000000000E+00 0. -1.
         11    1    1    2    0    0  0.85933789456E+01 -0.57439068514E+01 -0.49842394851E+03  0.49853111344E+03  0.00000000000E+00 0.  1.
        -15    1    1    2    0    0 -0.14628331060E+02  0.77765757362E+01  0.15903628321E+03  0.15990672377E+03  0.17770000000E+01 0.  1.
         15    1    1    2    0    0  0.11000208629E+02 -0.81030882565E+01  0.44813052941E+02  0.46883174723E+02  0.17770000000E+01 0. -1.
</event>
<event>
 6    1  0.2408691E-003  0.5009951E+03  0.7546771E-02  0.9397586E-01
        -11   -1    0    0    0    0  0.00000000000E+00  0.00000000000E+00  0.50000000000E+03  0.50000000000E+03  0.00000000000E+00 0. -1.
         11   -1    0    0    0    0 -0.00000000000E+00 -0.00000000000E+00 -0.50000000000E+03  0.50000000000E+03  0.00000000000E+00 0. -1.
        -11    1    1    2    0    0 -0.83836505138E+01 -0.19034613508E+01  0.49893082975E+03  0.49900489140E+03  0.00000000000E+00 0. -1.
         11    1    1    2    0    0  0.51570214453E+01  0.41651514981E+01 -0.49608396595E+02  0.50049339355E+02  0.00000000000E+00 0. -1.
        -15    1    1    2    0    0  0.14517453660E+02 -0.66617875215E+01 -0.90606813715E+02  0.92021129608E+02  0.17770000000E+01 0.  1.
         15    1    1    2    0    0 -0.11290824592E+02  0.44000973741E+01 -0.35871561944E+03  0.35892463964E+03  0.17770000000E+01 0. -1.
</event>
<event>
 6    1  0.2408691E-003  0.5032826E+03  0.7546771E-02  0.9392494E-01
        -11   -1    0    0    0    0  0.00000000000E+00  0.00000000000E+00  0.50000000000E+03  0.50000000000E+03  0.00000000000E+00 0.  1.
         11   -1    0    0    0    0 -0.00000000000E+00 -0.00000000000E+00 -0.50000000000E+03  0.50000000000E+03  0.00000000000E+00 0.  1.
        -11    1    1    2    0    0  0.52098611150E+02 -0.43408001795E+02  0.49206670562E+03  0.49671738714E+03  0.00000000000E+00 0.  1.
         11    1    1    2    0    0 -0.21151005905E-01 -0.98369422980E+00 -0.39149940606E+02  0.39162302679E+02  0.00000000000E+00 0.  1.
        -15    1    1    2    0    0  0.13360479236E+02  0.45026405962E+01 -0.20392117561E+02  0.24855026963E+02  0.17770000000E+01 0. -1.
         15    1    1    2    0    0 -0.65437939380E+02  0.39889055428E+02 -0.43252464746E+03  0.43926528322E+03  0.17770000000E+01 0.  1.
</event>
<event>
 6    1  0.2408691E-003  0.5001017E+03  0.7546771E-02  0.9399582E-01
        -11   -1    0    0    0    0  0.00000000000E+00  0.00000000000E+00  0.50000000000E+03  0.50000000000E+03  0.00000000000E+00 0.  1.
         11   -1    0    0    0    0 -0.00000000000E+00 -0.00000000000E+00 -0.50000000000E+03  0.50000000000E+03  0.00000000000E+00 0.  1.
        -11    1    1    2    0    0 -0.31821689499E+00 -0.69344435370E+01  0.49985011946E+03  0.49989831935E+03  0.00000000000E+00 0.  1.
         11    1    1    2    0    0  0.18852411025E+01  0.23354618198E+01 -0.21113523869E+03  0.21115657114E+03  0.00000000000E+00 0.  1.
        -15    1    1    2    0    0 -0.16683714298E+01  0.75925337063E+01 -0.18502293314E+03  0.18519469093E+03  0.17770000000E+01 0. -1.
         15    1    1    2    0    0  0.10134722230E+00 -0.29935519891E+01 -0.10369194762E+03  0.10375041858E+03  0.17770000000E+01 0.  1.
</event>
<event>
 6    1  0.2408691E-003  0.5029114E+03  0.7546771E-02  0.9393319E-01
        -11   -1    0    0    0    0  0.00000000000E+00  0.00000000000E+00  0.50000000000E+03  0.50000000000E+03  0.00000000000E+00 0.  1.
         11   -1    0    0    0    0 -0.00000000000E+00 -0.00000000000E+00 -0.50000000000E+03  0.50000000000E+03  0.00000000000E+00 0.  1.
        -11    1    1    2    0    0  0.55127523172E+01  0.53091308620E+01  0.49702966794E+03  0.49708859182E+03  0.00000000000E+00 0.  1.
         11    1    1    2    0    0 -0.11332374914E+02  0.70863395286E+01 -0.40765692773E+03  0.40787597337E+03  0.00000000000E+00 0.  1.
        -15    1    1    2    0    0  0.76720253303E+01 -0.21333147272E+02 -0.57484218706E+02  0.61818737244E+02  0.17770000000E+01 0.  1.
         15    1    1    2    0    0 -0.18524027336E+01  0.89376768810E+01 -0.31888521509E+02  0.33216697562E+02  0.17770000000E+01 0. -1.
</event>
<event>
 6    1  0.2408691E-003  0.5044811E+03  0.7546771E-02  0.9389838E-01
        -11   -1    0    0    0    0  0.00000000000E+00  0.00000000000E+00  0.50000000000E+03  0.50000000000E+03  0.00000000000E+00 0. -1.
         11   -1    0    0    0    0 -0.00000000000E+00 -0.00000000000E+00 -0.50000000000E+03  0.50000000000E+03  0.00000000000E+00 0.  1.
        -11    1    1    2    0    0  0.98834857480E+00  0.20007918829E+02  0.21643514420E+03  0.21736022013E+03  0.00000000000E+00 0. -1.
         11    1    1    2    0    0  0.88825616799E+01 -0.14714136735E+02 -0.49522070772E+03  0.49551887459E+03  0.00000000000E+00 0.  1.
        -15    1    1    2    0    0 -0.16524060223E+02 -0.21047637930E+02  0.26103428871E+03  0.26240827967E+03  0.17770000000E+01 0. -1.
         15    1    1    2    0    0  0.66531499682E+01  0.15753855837E+02  0.17751274807E+02  0.24712625609E+02  0.17770000000E+01 0.  1.
</event>
<event>
 6    1  0.2408691E-003  0.5007930E+03  0.7546771E-02  0.9398037E-01
        -11   -1    0    0    0    0  0.00000000000E+00  0.00000000000E+00  0.50000000000E+03  0.50000000000E+03  0.00000000000E+00 0.  1.
         11   -1    0    0    0    0 -0.00000000000E+00 -0.00000000000E+00 -0.50000000000E+03  0.50000000000E+03  0.00000000000E+00 0. -1.
        -11    1    1    2    0    0  0.55477261772E+01 -0.13361037946E+02  0.49899734348E+03  0.49920701458E+03  0.00000000000E+00 0.  1.
         11    1    1    2    0    0  0.56718057480E+01 -0.19461208092E+01 -0.36721097086E+03  0.36725992688E+03  0.00000000000E+00 0. -1.
        -15    1    1    2    0    0 -0.97017096727E+01  0.14001166401E+02 -0.87173197679E+02  0.88839630536E+02  0.17770000000E+01 0. -1.
         15    1    1    2    0    0 -0.15178222525E+01  0.13059923539E+01 -0.44613174939E+02  0.44693428013E+02  0.17770000000E+01 0.  1.
</event>
<event>
 6    1  0.2408691E-003  0.5269240E+03  0.7546771E-02  0.9341502E-01
        -11   -1    0    0    0    0  0.00000000000E+00  0.00000000000E+00  0.50000000000E+03  0.50000000000E+03  0.00000000000E+00 0.  1.
         11   -1    0    0    0    0 -0.00000000000E+00 -0.00000000000E+00 -0.50000000000E+03  0.50000000000E+03  0.00000000000E+00 0.  1.
        -11    1    1    2    0    0 -0.70536033507E+01 -0.48359400492E+01  0.43899911608E+03  0.43908241090E+03  0.00000000000E+00 0.  1.
         11    1    1    2    0    0  0.62336932466E+01  0.20677083462E+01 -0.47303039320E+03  0.47307598464E+03  0.00000000000E+00 0.  1.
        -15    1    1    2    0    0  0.17740024194E+02  0.33781160224E+01  0.56676737339E+02  0.59510758780E+02  0.17770000000E+01 0. -1.
         15    1    1    2    0    0 -0.16920114089E+02 -0.60988431936E+00 -0.22645460220E+02  0.28330845685E+02  0.17770000000E+01 0. -1.
</event>
<event>
 6    1  0.2408691E-003  0.5001987E+03  0.7546771E-02  0.9399365E-01
        -11   -1    0    0    0    0  0.00000000000E+00  0.00000000000E+00  0.50000000000E+03  0.50000000000E+03  0.00000000000E+00 0. -1.
         11   -1    0    0    0    0 -0.00000000000E+00 -0.00000000000E+00 -0.50000000000E+03  0.50000000000E+03  0.00000000000E+00 0.  1.
        -11    1    1    2    0    0  0.12487177638E+02 -0.52834646271E+00  0.49964504722E+03  0.49980134251E+03  0.00000000000E+00 0. -1.
         11    1    1    2    0    0  0.26049778970E+01  0.45051130689E-01 -0.66439462985E+02  0.66490527004E+02  0.00000000000E+00 0.  1.
        -15    1    1    2    0    0 -0.13483415410E+02 -0.22358310718E+01 -0.40904579883E+03  0.40927793088E+03  0.17770000000E+01 0.  1.
         15    1    1    2    0    0 -0.16087401259E+01  0.27191264038E+01 -0.24159785407E+02  0.24430199613E+02  0.17770000000E+01 0. -1.
</event>
<event>
 6    1  0.2408691E-003  0.5381420E+03  0.7546771E-02  0.9318289E-01
        -11   -1    0    0    0    0  0.00000000000E+00  0.00000000000E+00  0.50000000000E+03  0.50000000000E+03  0.00000000000E+00 0.  1.
         11   -1    0    0    0    0 -0.00000000000E+00 -0.00000000000E+00 -0.50000000000E+03  0.50000000000E+03  0.00000000000E+00 0.  1.
        -11    1    1    2    0    0 -0.52123282657E+01  0.21864982448E+01  0.33234440984E+03  0.33239247268E+03  0.00000000000E+00 0.  1.
         11    1    1    2    0    0 -0.12815290572E+03  0.30233889928E+02 -0.44269123756E+03  0.46185797293E+03  0.00000000000E+00 0.  1.
        -15    1    1    2    0    0  0.11326306144E+02 -0.81464426257E+01 -0.20703338547E+02  0.25028697415E+02  0.17770000000E+01 0.  1.
         15    1    1    2    0    0  0.12203892784E+03 -0.24273945547E+02  0.13105016626E+03  0.18072085698E+03  0.17770000000E+01 0. -1.
</event>
<event>
 6    1  0.2408691E-003  0.5217266E+03  0.7546771E-02  0.9352465E-01
        -11   -1    0    0    0    0  0.00000000000E+00  0.00000000000E+00  0.50000000000E+03  0.50000000000E+03  0.00000000000E+00 0.  1.
         11   -1    0    0    0    0 -0.00000000000E+00 -0.00000000000E+00 -0.50000000000E+03  0.50000000000E+03  0.00000000000E+00 0.  1.
        -11    1    1    2    0    0 -0.10050279148E+02  0.28162166272E+02  0.47733772706E+03  0.47827337517E+03  0.00000000000E+00 0.  1.
         11    1    1    2    0    0  0.10696609433E+02  0.74165874723E+01 -0.23513223583E+03  0.23549223246E+03  0.00000000000E+00 0.  1.
        -15    1    1    2    0    0  0.23236588732E+01 -0.60316065942E+02 -0.21470002274E+02  0.64090139085E+02  0.17770000000E+01 0. -1.
         15    1    1    2    0    0 -0.29699891584E+01  0.24737312198E+02 -0.22073548896E+03  0.22214425328E+03  0.17770000000E+01 0.  1.
</event>
<event>
 6    1  0.2408691E-003  0.5043478E+03  0.7546771E-02  0.9390133E-01
        -11   -1    0    0    0    0  0.00000000000E+00  0.00000000000E+00  0.50000000000E+03  0.50000000000E+03  0.00000000000E+00 0.  1.
         11   -1    0    0    0    0 -0.00000000000E+00 -0.00000000000E+00 -0.50000000000E+03  0.50000000000E+03  0.00000000000E+00 0.  1.
        -11    1    1    2    0    0  0.46867635125E+00 -0.69556546481E+01  0.49560319682E+03  0.49565222635E+03  0.00000000000E+00 0.  1.
         11    1    1    2    0    0 -0.71666043392E+01  0.40344962643E+01 -0.35263248257E+03  0.35272837303E+03  0.00000000000E+00 0.  1.
        -15    1    1    2    0    0 -0.15683766076E+01  0.52743044441E+01  0.21976989957E+01  0.61859277742E+01  0.17770000000E+01 0. -1.
         15    1    1    2    0    0  0.82663045955E+01 -0.23531460602E+01 -0.14516841325E+03  0.14543347284E+03  0.17770000000E+01 0.  1.
</event>
<event>
 6    1  0.2408691E-003  0.5144050E+03  0.7546771E-02  0.9368142E-01
        -11   -1    0    0    0    0  0.00000000000E+00  0.00000000000E+00  0.50000000000E+03  0.50000000000E+03  0.00000000000E+00 0. -1.
         11   -1    0    0    0    0 -0.00000000000E+00 -0.00000000000E+00 -0.50000000000E+03  0.50000000000E+03  0.00000000000E+00 0. -1.
        -11    1    1    2    0    0  0.14998781867E+01  0.64204006360E+01  0.45872718567E+03  0.45877456561E+03  0.00000000000E+00 0. -1.
         11    1    1    2    0    0 -0.33922865800E+00 -0.18645803350E+02 -0.48523679234E+03  0.48559502231E+03  0.00000000000E+00 0. -1.
        -15    1    1    2    0    0  0.12799909426E+01 -0.16382648697E+01  0.37551868828E+02  0.37651332912E+02  0.17770000000E+01 0. -1.
         15    1    1    2    0    0 -0.24406404713E+01  0.13863667583E+02 -0.11042262163E+02  0.17979079160E+02  0.17770000000E+01 0. -1.
</event>
<event>
 6    1  0.2408691E-003  0.5059461E+03  0.7546771E-02  0.9386602E-01
        -11   -1    0    0    0    0  0.00000000000E+00  0.00000000000E+00  0.50000000000E+03  0.50000000000E+03  0.00000000000E+00 0.  1.
         11   -1    0    0    0    0 -0.00000000000E+00 -0.00000000000E+00 -0.50000000000E+03  0.50000000000E+03  0.00000000000E+00 0. -1.
        -11    1    1    2    0    0  0.98596993193E+01 -0.12432854456E+02  0.24847517872E+03  0.24898133260E+03  0.00000000000E+00 0.  1.
         11    1    1    2    0    0  0.61618571323E+01 -0.51698996764E+02 -0.49130288558E+03  0.49405392432E+03  0.00000000000E+00 0. -1.
        -15    1    1    2    0    0 -0.17434897708E+02 -0.21763613523E+01  0.47514789276E+02  0.50690483681E+02  0.17770000000E+01 0. -1.
         15    1    1    2    0    0  0.14133412563E+01  0.66308212573E+02  0.19531291758E+03  0.20627425940E+03  0.17770000000E+01 0.  1.
</event>
<event>
 6    1  0.2408691E-003  0.4784365E+03  0.7546771E-02  0.9449396E-01
        -11   -1    0    0    0    0  0.00000000000E+00  0.00000000000E+00  0.50000000000E+03  0.50000000000E+03  0.00000000000E+00 0.  1.
         11   -1    0    0    0    0 -0.00000000000E+00 -0.00000000000E+00 -0.50000000000E+03  0.50000000000E+03  0.00000000000E+00 0.  1.
        -11    1    1    2    0    0 -0.46982356352E+01 -0.82756087144E+01  0.47543184662E+03  0.47552707589E+03  0.00000000000E+00 0.  1.
         11    1    1    2    0    0 -0.14943106582E+02  0.86201306382E+01 -0.48125613848E+03  0.48156523328E+03  0.00000000000E+00 0.  1.
        -15    1    1    2    0    0  0.12916450624E+02 -0.11696504769E+01 -0.15601601974E+02  0.20365914959E+02  0.17770000000E+01 0. -1.
         15    1    1    2    0    0  0.67248915935E+01  0.82512855321E+00  0.21425893828E+02  0.22541775870E+02  0.17770000000E+01 0.  1.
</event>
<event>
 6    1  0.2408691E-003  0.5050558E+03  0.7546771E-02  0.9388567E-01
        -11   -1    0    0    0    0  0.00000000000E+00  0.00000000000E+00  0.50000000000E+03  0.50000000000E+03  0.00000000000E+00 0.  1.
         11   -1    0    0    0    0 -0.00000000000E+00 -0.00000000000E+00 -0.50000000000E+03  0.50000000000E+03  0.00000000000E+00 0.  1.
        -11    1    1    2    0    0 -0.18160229479E+02  0.44831968427E+01  0.24369766694E+03  0.24441449601E+03  0.00000000000E+00 0.  1.
         11    1    1    2    0    0  0.12496729098E+02 -0.81801621430E+01 -0.49471877071E+03  0.49494418411E+03  0.00000000000E+00 0.  1.
        -15    1    1    2    0    0  0.11584336551E+02 -0.31630728627E+02  0.10526461748E+03  0.11053731166E+03  0.17770000000E+01 0. -1.
         15    1    1    2    0    0 -0.59208361703E+01  0.35327693927E+02  0.14575648629E+03  0.15010400822E+03  0.17770000000E+01 0.  1.
</event>
<event>
 6    1  0.2408691E-003  0.5075691E+03  0.7546771E-02  0.9383031E-01
        -11   -1    0    0    0    0  0.00000000000E+00  0.00000000000E+00  0.50000000000E+03  0.50000000000E+03  0.00000000000E+00 0.  1.
         11   -1    0    0    0    0 -0.00000000000E+00 -0.00000000000E+00 -0.50000000000E+03  0.50000000000E+03  0.00000000000E+00 0.  1.
        -11    1    1    2    0    0 -0.87151320994E+01 -0.54525681662E+01  0.44007176074E+03  0.44019182026E+03  0.00000000000E+00 0.  1.
         11    1    1    2    0    0 -0.66645007880E+01  0.66379979677E+01 -0.49234103199E+03  0.49243087878E+03  0.00000000000E+00 0.  1.
        -15    1    1    2    0    0  0.16872342039E+02  0.14829763437E+02  0.43455361818E+02  0.48950219706E+02  0.17770000000E+01 0. -1.
         15    1    1    2    0    0 -0.14927091515E+01 -0.16015193238E+02  0.88139094395E+01  0.18427081258E+02  0.17770000000E+01 0.  1.
</event>
<event>
 6    1  0.2592699E-003  0.5009614E+03  0.7546771E-02  0.9397661E-01
        -11   -1    0    0    0    0  0.00000000000E+00  0.00000000000E+00  0.50000000000E+03  0.50000000000E+03  0.00000000000E+00 0. -1.
         11   -1    0    0    0    0 -0.00000000000E+00 -0.00000000000E+00 -0.50000000000E+03  0.50000000000E+03  0.00000000000E+00 0.  1.
        -11    1    1    2    0    0 -0.67662510007E+01 -0.15358676287E+01  0.49899033552E+03  0.49903857164E+03  0.00000000000E+00 0. -1.
         11    1    1    2    0    0 -0.43165706458E-01  0.28854019914E+01 -0.14706535507E+03  0.14709366427E+03  0.00000000000E+00 0.  1.
        -15    1    1    2    0    0  0.33888517016E+01  0.47832444791E+01 -0.91194344407E+01  0.10985697844E+02  0.17770000000E+01 0. -1.
         15    1    1    2    0    0  0.34205650055E+01 -0.61327788418E+01 -0.34280554601E+03  0.34288206624E+03  0.17770000000E+01 0.  1.
</event>
<event>
 6    1  0.2408691E-003  0.5014945E+03  0.7546771E-02  0.9396472E-01
        -11   -1    0    0    0    0  0.00000000000E+00  0.00000000000E+00  0.50000000000E+03  0.50000000000E+03  0.00000000000E+00 0. -1.
         11   -1    0    0    0    0 -0.00000000000E+00 -0.00000000000E+00 -0.50000000000E+03  0.50000000000E+03  0.00000000000E+00 0.  1.
        -11    1    1    2    0    0 -0.18989569049E+00  0.13257364716E+02  0.35219379206E+03  0.35244327337E+03  0.00000000000E+00 0. -1.
         11    1    1    2    0    0 -0.68504224430E+01  0.71294443569E+01 -0.49840746159E+03  0.49850552157E+03  0.00000000000E+00 0.  1.
        -15    1    1    2    0    0  0.27394116743E+01 -0.16059010270E+02  0.13625959756E+03  0.13724150919E+03  0.17770000000E+01 0. -1.
         15    1    1    2    0    0  0.43009064592E+01 -0.43277988029E+01  0.99540719637E+01  0.11809695869E+02  0.17770000000E+01 0.  1.
</event>
<event>
 6    1  0.2408691E-003  0.5000721E+03  0.7546771E-02  0.9399648E-01
        -11   -1    0    0    0    0  0.00000000000E+00  0.00000000000E+00  0.50000000000E+03  0.50000000000E+03  0.00000000000E+00 0. -1.
         11   -1    0    0    0    0 -0.00000000000E+00 -0.00000000000E+00 -0.50000000000E+03  0.50000000000E+03  0.00000000000E+00 0.  1.
        -11    1    1    2    0    0  0.14274099359E+01  0.69166904985E+01  0.49987801739E+03  0.49992790518E+03  0.00000000000E+00 0. -1.
         11    1    1    2    0    0 -0.33210041349E+01  0.72875104065E+00 -0.18829389677E+03  0.18832459135E+03  0.00000000000E+00 0.  1.
        -15    1    1    2    0    0  0.17390119365E+01 -0.13801204200E+01 -0.48895532457E+02  0.48978155520E+02  0.17770000000E+01 0. -1.
         15    1    1    2    0    0  0.15458226248E+00 -0.62653211191E+01 -0.26268858817E+03  0.26276934796E+03  0.17770000000E+01 0. -1.
</event>
<event>
 6    1  0.2408691E-003  0.5258850E+03  0.7546771E-02  0.9343683E-01
        -11   -1    0    0    0    0  0.00000000000E+00  0.00000000000E+00  0.50000000000E+03  0.50000000000E+03  0.00000000000E+00 0.  1.
         11   -1    0    0    0    0 -0.00000000000E+00 -0.00000000000E+00 -0.50000000000E+03  0.50000000000E+03  0.00000000000E+00 0. -1.
        -11    1    1    2    0    0 -0.15848997692E+02  0.35096735724E+01  0.36810951157E+03  0.36846725912E+03  0.00000000000E+00 0.  1.
         11    1    1    2    0    0 -0.33467526665E+02 -0.12439767564E+01 -0.47293062803E+03  0.47411496681E+03  0.00000000000E+00 0. -1.
        -15    1    1    2    0    0  0.39530456792E+02 -0.14542888961E+02 -0.84948736100E+01  0.43005502440E+02  0.17770000000E+01 0. -1.
         15    1    1    2    0    0  0.97860675650E+01  0.12277192145E+02  0.11331599007E+03  0.11441227164E+03  0.17770000000E+01 0.  1.
</event>
<event>
 6    1  0.2408691E-003  0.5008620E+03  0.7546771E-02  0.9397883E-01
        -11   -1    0    0    0    0  0.00000000000E+00  0.00000000000E+00  0.50000000000E+03  0.50000000000E+03  0.00000000000E+00 0. -1.
         11   -1    0    0    0    0 -0.00000000000E+00 -0.00000000000E+00 -0.50000000000E+03  0.50000000000E+03  0.00000000000E+00 0. -1.
        -11    1    1    2    0    0  0.20974753643E+01  0.92861601341E+01  0.39267275870E+03  0.39278814595E+03  0.00000000000E+00 0. -1.
         11    1    1    2    0    0  0.85173594134E+01 -0.30798826168E+01 -0.49905582818E+03  0.49913800770E+03  0.00000000000E+00 0. -1.
        -15    1    1    2    0    0 -0.93244493805E+01 -0.46251997611E+00  0.30602407151E+02  0.32044099822E+02  0.17770000000E+01 0. -1.
         15    1    1    2    0    0 -0.12903853971E+01 -0.57437575411E+01  0.75780662328E+02  0.76029746528E+02  0.17770000000E+01 0.  1.
</event>
<event>
 6    1  0.2408691E-003  0.5018318E+03  0.7546771E-02  0.9395720E-01
        -11   -1    0    0    0    0  0.00000000000E+00  0.00000000000E+00  0.50000000000E+03  0.50000000000E+03  0.00000000000E+00 0. -1.
         11   -1    0    0    0    0 -0.00000000000E+00 -0.00000000000E+00 -0.50000000000E+03  0.50000000000E+03  0.00000000000E+00 0.  1.
        -11    1    1    2    0    0  0.12876480987E+02 -0.10371660740E+02  0.49789376494E+03  0.49816822086E+03  0.00000000000E+00 0. -1.
         11    1    1    2    0    0  0.40072921835E+01  0.51674362830E+01 -0.39860626404E+03  0.39865989831E+03  0.00000000000E+00 0.  1.
        -15    1    1    2    0    0 -0.82674176550E+01  0.11760110281E+02 -0.76758870952E+02  0.78113586445E+02  0.17770000000E+01 0.  1.
         15    1    1    2    0    0 -0.86163555158E+01 -0.65558858239E+01 -0.22528629947E+02  0.25058294387E+02  0.17770000000E+01 0. -1.
</event>
<event>
 6    1  0.2408691E-003  0.5023836E+03  0.7546771E-02  0.9394492E-01
        -11   -1    0    0    0    0  0.00000000000E+00  0.00000000000E+00  0.50000000000E+03  0.50000000000E+03  0.00000000000E+00 0.  1.
         11   -1    0    0    0    0 -0.00000000000E+00 -0.00000000000E+00 -0.50000000000E+03  0.50000000000E+03  0.00000000000E+00 0.  1.
        -11    1    1    2    0    0 -0.58479522288E+01 -0.92070678582E+01  0.44903743964E+03  0.44916989085E+03  0.00000000000E+00 0.  1.
         11    1    1    2    0    0 -0.68144277805E+01  0.24275421616E+01 -0.49756380245E+03  0.49761638528E+03  0.00000000000E+00 0.  1.
        -15    1    1    2    0    0  0.14582046131E+02  0.26951569124E+01  0.44403611784E+02  0.46848035269E+02  0.17770000000E+01 0.  1.
         15    1    1    2    0    0 -0.19196661220E+01  0.40843687842E+01  0.41227510289E+01  0.63656886062E+01  0.17770000000E+01 0. -1.
</event>
<event>
 6    1  0.2408691E-003  0.5003686E+03  0.7546771E-02  0.9398985E-01
        -11   -1    0    0    0    0  0.00000000000E+00  0.00000000000E+00  0.50000000000E+03  0.50000000000E+03  0.00000000000E+00 0. -1.
         11   -1    0    0    0    0 -0.00000000000E+00 -0.00000000000E+00 -0.50000000000E+03  0.50000000000E+03  0.00000000000E+00 0. -1.
        -11    1    1    2    0    0 -0.12285713084E+02  0.10558058443E+02  0.49936870253E+03  0.49963137652E+03  0.00000000000E+00 0. -1.
         11    1    1    2    0    0  0.56394383613E+01  0.41603344502E+00 -0.17621625751E+03  0.17630696458E+03  0.00000000000E+00 0. -1.
        -15    1    1    2    0    0  0.17085609312E+01 -0.10891194175E+02 -0.72557141694E+02  0.73411401232E+02  0.17770000000E+01 0.  1.
         15    1    1    2    0    0  0.49377137918E+01 -0.82897713355E-01 -0.25059530333E+03  0.25065025767E+03  0.17770000000E+01 0. -1.
</event>
<event>
 6    1  0.2408691E-003  0.5084243E+03  0.7546771E-02  0.9381154E-01
        -11   -1    0    0    0    0  0.00000000000E+00  0.00000000000E+00  0.50000000000E+03  0.50000000000E+03  0.00000000000E+00 0. -1.
         11   -1    0    0    0    0 -0.00000000000E+00 -0.00000000000E+00 -0.50000000000E+03  0.50000000000E+03  0.00000000000E+00 0.  1.
        -11    1    1    2    0    0 -0.98604854481E+00 -0.10001088098E+02  0.49147293445E+03  0.49157567001E+03  0.00000000000E+00 0. -1.
         11    1    1    2    0    0 -0.18988331736E+02 -0.12259202084E+02 -0.44200476612E+03  0.44258226134E+03  0.00000000000E+00 0.  1.
        -15    1    1    2    0    0  0.22148774398E+02  0.16557584469E+02 -0.52061388252E+02  0.58976840255E+02  0.17770000000E+01 0.  1.
         15    1    1    2    0    0 -0.21743941171E+01  0.57027057129E+01  0.25932199298E+01  0.68652283887E+01  0.17770000000E+01 0. -1.
</event>
<event>
 6    1  0.2408691E-003  0.4465770E+03  0.7546771E-02  0.9527984E-01
        -11   -1    0    0    0    0  0.00000000000E+00  0.00000000000E+00  0.50000000000E+03  0.50000000000E+03  0.00000000000E+00 0. -1.
         11   -1    0    0    0    0 -0.00000000000E+00 -0.00000000000E+00 -0.50000000000E+03  0.50000000000E+03  0.00000000000E+00 0.  1.
        -11    1    1    2    0    0  0.12505391951E+02  0.56822693094E+01  0.59544638949E+02  0.61108404004E+02  0.00000000000E+00 0. -1.
         11    1    1    2    0    0 -0.32401446841E+00 -0.85204683923E+01 -0.45520182769E+03  0.45528167908E+03  0.00000000000E+00 0.  1.
        -15    1    1    2    0    0 -0.30271039041E+01  0.15497140152E+02 -0.42395377961E+02  0.45275274846E+02  0.17770000000E+01 0.  1.
         15    1    1    2    0    0 -0.91542735789E+01 -0.12658941069E+02  0.43805256671E+03  0.43833464207E+03  0.17770000000E+01 0. -1.
</event>
<event>
 6    1  0.2408691E-003  0.5041701E+03  0.7546771E-02  0.9390527E-01
        -11   -1    0    0    0    0  0.00000000000E+00  0.00000000000E+00  0.50000000000E+03  0.50000000000E+03  0.00000000000E+00 0. -1.
         11   -1    0    0    0    0 -0.00000000000E+00 -0.00000000000E+00 -0.50000000000E+03  0.50000000000E+03  0.00000000000E+00 0. -1.
        -11    1    1    2    0    0  0.33786589898E+01  0.19440188040E+01  0.14406233569E+03  0.14411506206E+03  0.00000000000E+00 0. -1.
         11    1    1    2    0    0 -0.41768606396E+02 -0.27765055846E+02 -0.49328669300E+03  0.49582988645E+03  0.00000000000E+00 0. -1.
        -15    1    1    2    0    0 -0.27140042194E+01  0.12671299882E+02  0.26571606437E+03  0.26603780230E+03  0.17770000000E+01 0.  1.
         15    1    1    2    0    0  0.41103951626E+02  0.13149737160E+02  0.83508292940E+02  0.94017249191E+02  0.17770000000E+01 0. -1.
</event>
<event>
 6    1  0.2408691E-003  0.5078119E+03  0.7546771E-02  0.9382498E-01
        -11   -1    0    0    0    0  0.00000000000E+00  0.00000000000E+00  0.50000000000E+03  0.50000000000E+03  0.00000000000E+00 0. -1.
         11   -1    0    0    0    0 -0.00000000000E+00 -0.00000000000E+00 -0.50000000000E+03  0.50000000000E+03  0.00000000000E+00 0.  1.
        -11    1    1    2    0    0  0.15382457760E+01 -0.99030954209E+01  0.49208605969E+03  0.49218810189E+03  0.00000000000E+00 0. -1.
         11    1    1    2    0    0  0.41253217288E+01  0.95373080818E+01 -0.48767224924E+03  0.48778294477E+03  0.00000000000E+00 0.  1.
        -15    1    1    2    0    0 -0.32363061725E+01  0.68381917454E+01  0.42070693258E+01  0.88369511315E+01  0.17770000000E+01 0.  1.
         15    1    1    2    0    0 -0.24272613323E+01 -0.64724044063E+01 -0.86208797769E+01  0.11192002212E+02  0.17770000000E+01 0. -1.
</event>
<event>
 6    1  0.2408691E-003  0.5029959E+03  0.7546771E-02  0.9393131E-01
        -11   -1    0    0    0    0  0.00000000000E+00  0.00000000000E+00  0.50000000000E+03  0.50000000000E+03  0.00000000000E+00 0.  1.
         11   -1    0    0    0    0 -0.00000000000E+00 -0.00000000000E+00 -0.50000000000E+03  0.50000000000E+03  0.00000000000E+00 0. -1.
        -11    1    1    2    0    0 -0.58003708388E+01 -0.53701395580E+01  0.49694127944E+03  0.49700414275E+03  0.00000000000E+00 0.  1.
         11    1    1    2    0    0  0.52367088960E+01 -0.14437230315E+02 -0.38411827356E+03  0.38442516154E+03  0.00000000000E+00 0. -1.
        -15    1    1    2    0    0 -0.90455050464E+01 -0.22391722944E+01 -0.56669264445E+02  0.57457795954E+02  0.17770000000E+01 0.  1.
         15    1    1    2    0    0  0.96091669892E+01  0.22046542167E+02 -0.56153741426E+02  0.61112899759E+02  0.17770000000E+01 0. -1.
</event>
<event>
 6    1  0.2408691E-003  0.5018709E+03  0.7546771E-02  0.9395633E-01
        -11   -1    0    0    0    0  0.00000000000E+00  0.00000000000E+00  0.50000000000E+03  0.50000000000E+03  0.00000000000E+00 0. -1.
         11   -1    0    0    0    0 -0.00000000000E+00 -0.00000000000E+00 -0.50000000000E+03  0.50000000000E+03  0.00000000000E+00 0.  1.
        -11    1    1    2    0    0 -0.18942507278E+01  0.90441956527E+01  0.49804337756E+03  0.49812909129E+03  0.00000000000E+00 0. -1.
         11    1    1    2    0    0 -0.57509222151E+01  0.81376950883E+01 -0.39696239802E+03  0.39708744708E+03  0.00000000000E+00 0.  1.
        -15    1    1    2    0    0  0.91666196319E+01 -0.93344883981E+01 -0.25083215720E+02  0.28345811489E+02  0.17770000000E+01 0.  1.
         15    1    1    2    0    0 -0.15214466890E+01 -0.78474023430E+01 -0.75997763821E+02  0.76437650136E+02  0.17770000000E+01 0. -1.
</event>
<event>
 6    1  0.2408691E-003  0.5187747E+03  0.7546771E-02  0.9358753E-01
        -11   -1    0    0    0    0  0.00000000000E+00  0.00000000000E+00  0.50000000000E+03  0.50000000000E+03  0.00000000000E+00 0. -1.
         11   -1    0    0    0    0 -0.00000000000E+00 -0.00000000000E+00 -0.50000000000E+03  0.50000000000E+03  0.00000000000E+00 0.  1.
        -11    1    1    2    0    0  0.10121252439E+02 -0.11872704526E+02  0.48097233918E+03  0.48122530266E+03  0.00000000000E+00 0. -1.
         11    1    1    2    0    0 -0.11611597422E+02  0.13497609945E+02 -0.40513007270E+03  0.40552113444E+03  0.00000000000E+00 0.  1.
        -15    1    1    2    0    0 -0.10313929709E+02  0.99193382761E+01  0.15058056402E+02  0.20848817940E+02  0.17770000000E+01 0. -1.
         15    1    1    2    0    0  0.11804274692E+02 -0.11544243695E+02 -0.90900322880E+02  0.92404744966E+02  0.17770000000E+01 0.  1.
</event>
<event>
 6    1  0.2408691E-003  0.5002045E+03  0.7546771E-02  0.9399352E-01
        -11   -1    0    0    0    0  0.00000000000E+00  0.00000000000E+00  0.50000000000E+03  0.50000000000E+03  0.00000000000E+00 0.  1.
         11   -1    0    0    0    0 -0.00000000000E+00 -0.00000000000E+00 -0.50000000000E+03  0.50000000000E+03  0.00000000000E+00 0. -1.
        -11    1    1    2    0    0  0.13257690874E+01  0.28783557102E+01  0.16609045025E+03  0.16612067981E+03  0.00000000000E+00 0.  1.
         11    1    1    2    0    0 -0.50568933435E+01  0.75169530335E+01 -0.49971340043E+03  0.49979551751E+03  0.00000000000E+00 0. -1.
        -15    1    1    2    0    0  0.76055998040E+01 -0.19018083573E+01  0.15248520173E+03  0.15269694332E+03  0.17770000000E+01 0. -1.
         15    1    1    2    0    0 -0.38744755479E+01 -0.84935003864E+01  0.18113774844E+03  0.18138685936E+03  0.17770000000E+01 0.  1.
</event>
<event>
 6    1  0.2408691E-003  0.5084403E+03  0.7546771E-02  0.9381120E-01
        -11   -1    0    0    0    0  0.00000000000E+00  0.00000000000E+00  0.50000000000E+03  0.50000000000E+03  0.00000000000E+00 0.  1.
         11   -1    0    0    0    0 -0.00000000000E+00 -0.00000000000E+00 -0.50000000000E+03  0.50000000000E+03  0.00000000000E+00 0.  1.
        -11    1    1    2    0    0 -0.27632469983E+02 -0.12158298160E+02  0.49063182870E+03  0.49155973080E+03  0.00000000000E+00 0.  1.
         11    1    1    2    0    0  0.87631130301E+01  0.25281247678E+01 -0.39519343945E+03  0.39529866955E+03  0.00000000000E+00 0.  1.
        -15    1    1    2    0    0 -0.14684679045E+01  0.51050718353E+01 -0.91734439268E+02  0.91905294914E+02  0.17770000000E+01 0. -1.
         15    1    1    2    0    0  0.20337824857E+02  0.45251015565E+01 -0.37039499840E+01  0.21236304728E+02  0.17770000000E+01 0.  1.
</event>
<event>
 6    1  0.2408691E-003  0.5010138E+03  0.7546771E-02  0.9397544E-01
        -11   -1    0    0    0    0  0.00000000000E+00  0.00000000000E+00  0.50000000000E+03  0.50000000000E+03  0.00000000000E+00 0.  1.
         11   -1    0    0    0    0 -0.00000000000E+00 -0.00000000000E+00 -0.50000000000E+03  0.50000000000E+03  0.00000000000E+00 0. -1.
        -11    1    1    2    0    0  0.93634509606E+01 -0.20338346871E+01  0.49889419017E+03  0.49898619588E+03  0.00000000000E+00 0.  1.
         11    1    1    2    0    0 -0.49034066832E+00  0.69632633414E+01 -0.53477402828E+02  0.53931067889E+02  0.00000000000E+00 0. -1.
        -15    1    1    2    0    0 -0.49618664563E+01 -0.47424455021E+01 -0.44047487596E+03  0.44053193413E+03  0.17770000000E+01 0. -1.
         15    1    1    2    0    0 -0.39112438360E+01 -0.18698315224E+00 -0.49419113761E+01  0.65508020954E+01  0.17770000000E+01 0.  1.
</event>
<event>
 6    1  0.2408691E-003  0.4146187E+03  0.7546771E-02  0.9614167E-01
        -11   -1    0    0    0    0  0.00000000000E+00  0.00000000000E+00  0.50000000000E+03  0.50000000000E+03  0.00000000000E+00 0.  1.
         11   -1    0    0    0    0 -0.00000000000E+00 -0.00000000000E+00 -0.50000000000E+03  0.50000000000E+03  0.00000000000E+00 0.  1.
        -11    1    1    2    0    0  0.13392706766E+02 -0.16752362238E+02  0.41415014378E+03  0.41470513360E+03  0.00000000000E+00 0.  1.
         11    1    1    2    0    0 -0.12019021585E+02 -0.21942273163E+02 -0.41468194191E+03  0.41543595556E+03  0.00000000000E+00 0.  1.
        -15    1    1    2    0    0 -0.95612787221E+01  0.22018609935E+02  0.82424167337E+02  0.85866980409E+02  0.17770000000E+01 0.  1.
         15    1    1    2    0    0  0.81875935411E+01  0.16676025465E+02 -0.81892369213E+02  0.83991930432E+02  0.17770000000E+01 0. -1.
</event>
<event>
 6    1  0.2408691E-003  0.5002331E+03  0.7546771E-02  0.9399288E-01
        -11   -1    0    0    0    0  0.00000000000E+00  0.00000000000E+00  0.50000000000E+03  0.50000000000E+03  0.00000000000E+00 0. -1.
         11   -1    0    0    0    0 -0.00000000000E+00 -0.00000000000E+00 -0.50000000000E+03  0.50000000000E+03  0.00000000000E+00 0. -1.
        -11    1    1    2    0    0  0.79789241400E+01 -0.36027507655E+01  0.22984727265E+03  0.23001393825E+03  0.00000000000E+00 0. -1.
         11    1    1    2    0    0 -0.61803649008E+01 -0.58720713382E+01 -0.49969413977E+03  0.49976685709E+03  0.00000000000E+00 0. -1.
        -15    1    1    2    0    0  0.13228829208E+01  0.96797763443E+01  0.22865790392E+03  0.22887342100E+03  0.17770000000E+01 0. -1.
         15    1    1    2    0    0 -0.31214421600E+01 -0.20495424058E+00  0.41188963200E+02  0.41345783653E+02  0.17770000000E+01 0. -1.
</event>
<event>
 6    1  0.2408691E-003  0.5463656E+03  0.7546771E-02  0.9301650E-01
        -11   -1    0    0    0    0  0.00000000000E+00  0.00000000000E+00  0.50000000000E+03  0.50000000000E+03  0.00000000000E+00 0.  1.
         11   -1    0    0    0    0 -0.00000000000E+00 -0.00000000000E+00 -0.50000000000E+03  0.50000000000E+03  0.00000000000E+00 0. -1.
        -11    1    1    2    0    0  0.10030882984E+02 -0.92882329791E-01  0.38326152385E+03  0.38339277889E+03  0.00000000000E+00 0.  1.
         11    1    1    2    0    0  0.42649195592E+01 -0.71469179795E+01 -0.45355805267E+03  0.45363440689E+03  0.00000000000E+00 0. -1.
        -15    1    1    2    0    0 -0.50982599526E+01 -0.47195360283E+01  0.11527517672E+03  0.11549801025E+03  0.17770000000E+01 0.  1.
         15    1    1    2    0    0 -0.91975425905E+01  0.11959336338E+02 -0.44978647908E+02  0.47474803970E+02  0.17770000000E+01 0. -1.
</event>
<event>
 6    1  0.2408691E-003  0.5014202E+03  0.7546771E-02  0.9396637E-01
        -11   -1    0    0    0    0  0.00000000000E+00  0.00000000000E+00  0.50000000000E+03  0.50000000000E+03  0.00000000000E+00 0.  1.
         11   -1    0    0    0    0 -0.00000000000E+00 -0.00000000000E+00 -0.50000000000E+03  0.50000000000E+03  0.00000000000E+00 0.  1.
        -11    1    1    2    0    0  0.37572842560E+01 -0.10175183251E+02  0.49846176055E+03  0.49857976119E+03  0.00000000000E+00 0.  1.
         11    1    1    2    0    0  0.82797435992E+01 -0.42146028070E+01 -0.15290921935E+03  0.15319120860E+03  0.00000000000E+00 0.  1.
        -15    1    1    2    0    0 -0.17204379037E+02  0.10449115328E+00 -0.29262968450E+03  0.29314039564E+03  0.17770000000E+01 0.  1.
         15    1    1    2    0    0  0.51673511821E+01  0.14285294904E+02 -0.52922856695E+02  0.55088634567E+02  0.17770000000E+01 0. -1.
</event>
<event>
 6    1  0.2408691E-003  0.5080128E+03  0.7546771E-02  0.9382057E-01
        -11   -1    0    0    0    0  0.00000000000E+00  0.00000000000E+00  0.50000000000E+03  0.50000000000E+03  0.00000000000E+00 0.  1.
         11   -1    0    0    0    0 -0.00000000000E+00 -0.00000000000E+00 -0.50000000000E+03  0.50000000000E+03  0.00000000000E+00 0.  1.
        -11    1    1    2    0    0 -0.10384166664E+01  0.67913243243E+01  0.49193927638E+03  0.49198724784E+03  0.00000000000E+00 0.  1.
         11    1    1    2    0    0  0.26078381782E+02 -0.18465001496E+02 -0.35684185891E+03  0.35826966178E+03  0.00000000000E+00 0.  1.
        -15    1    1    2    0    0 -0.20262750532E+02  0.23544416377E+02 -0.13307873816E+03  0.13666757802E+03  0.17770000000E+01 0.  1.
         15    1    1    2    0    0 -0.47772145846E+01 -0.11870739205E+02 -0.20186792976E+01  0.13075512364E+02  0.17770000000E+01 0. -1.
</event>
<event>
 6    1  0.2408691E-003  0.4534343E+03  0.7546771E-02  0.9510491E-01
        -11   -1    0    0    0    0  0.00000000000E+00  0.00000000000E+00  0.50000000000E+03  0.50000000000E+03  0.00000000000E+00 0. -1.
         11   -1    0    0    0    0 -0.00000000000E+00 -0.00000000000E+00 -0.50000000000E+03  0.50000000000E+03  0.00000000000E+00 0. -1.
        -11    1    1    2    0    0  0.83505086614E+01 -0.22756324081E+01  0.46197321296E+03  0.46205428144E+03  0.00000000000E+00 0. -1.
         11    1    1    2    0    0  0.14428540724E+02 -0.28817810746E+02 -0.44463222489E+03  0.44579868148E+03  0.00000000000E+00 0. -1.
        -15    1    1    2    0    0 -0.50946440749E+02  0.65618953549E+01 -0.18788478074E+02  0.54724427205E+02  0.17770000000E+01 0.  1.
         15    1    1    2    0    0  0.28167391364E+02  0.24531547799E+02  0.14474899956E+01  0.37422609876E+02  0.17770000000E+01 0. -1.
</event>
<event>
 6    1  0.2408691E-003  0.5037689E+03  0.7546771E-02  0.9391416E-01
        -11   -1    0    0    0    0  0.00000000000E+00  0.00000000000E+00  0.50000000000E+03  0.50000000000E+03  0.00000000000E+00 0. -1.
         11   -1    0    0    0    0 -0.00000000000E+00 -0.00000000000E+00 -0.50000000000E+03  0.50000000000E+03  0.00000000000E+00 0.  1.
        -11    1    1    2    0    0  0.51703025100E+01 -0.36912805767E+01  0.42734366867E+03  0.42739088518E+03  0.00000000000E+00 0. -1.
         11    1    1    2    0    0  0.36867452384E+01 -0.61582618067E+01 -0.49617919285E+03  0.49623110312E+03  0.00000000000E+00 0.  1.
        -15    1    1    2    0    0 -0.44630097865E+01  0.10181445453E+02  0.70462231333E+02  0.71355897172E+02  0.17770000000E+01 0. -1.
         15    1    1    2    0    0 -0.43940379619E+01 -0.33190306944E+00 -0.16267071491E+01  0.50221145354E+01  0.17770000000E+01 0.  1.
</event>
<event>
 6    1  0.2408691E-003  0.5042999E+03  0.7546771E-02  0.9390239E-01
        -11   -1    0    0    0    0  0.00000000000E+00  0.00000000000E+00  0.50000000000E+03  0.50000000000E+03  0.00000000000E+00 0. -1.
         11   -1    0    0    0    0 -0.00000000000E+00 -0.00000000000E+00 -0.50000000000E+03  0.50000000000E+03  0.00000000000E+00 0.  1.
        -11    1    1    2    0    0 -0.30966505319E+01  0.62784494596E+01  0.49565063374E+03  0.49570006950E+03  0.00000000000E+00 0. -1.
         11    1    1    2    0    0 -0.61347271052E+01  0.59028579116E+01 -0.46776904432E+03  0.46784651055E+03  0.00000000000E+00 0.  1.
        -15    1    1    2    0    0  0.25709585032E+01 -0.47615424326E+01 -0.25393625408E+02  0.26024527937E+02  0.17770000000E+01 0.  1.
         15    1    1    2    0    0  0.66604191339E+01 -0.74197649385E+01 -0.24879640133E+01  0.10428892017E+02  0.17770000000E+01 0.  1.
</event>
<event>
 6    1  0.2408691E-003  0.5001821E+03  0.7546771E-02  0.9399402E-01
        -11   -1    0    0    0    0  0.00000000000E+00  0.00000000000E+00  0.50000000000E+03  0.50000000000E+03  0.00000000000E+00 0.  1.
         11   -1    0    0    0    0 -0.00000000000E+00 -0.00000000000E+00 -0.50000000000E+03  0.50000000000E+03  0.00000000000E+00 0. -1.
        -11    1    1    2    0    0  0.66656084923E+01 -0.28718736505E+01  0.49976524405E+03  0.49981794401E+03  0.00000000000E+00 0.  1.
         11    1    1    2    0    0  0.37853936738E+01 -0.17141299549E+01 -0.63167945377E+02  0.63304476697E+02  0.00000000000E+00 0. -1.
        -15    1    1    2    0    0 -0.32100324091E+01 -0.92014695661E+00 -0.41619290348E+02  0.41790836753E+02  0.17770000000E+01 0.  1.
         15    1    1    2    0    0 -0.72409697570E+01  0.55061505620E+01 -0.39497800833E+03  0.39508674254E+03  0.17770000000E+01 0. -1.
</event>
<event>
 6    1  0.2408691E-003  0.5067917E+03  0.7546771E-02  0.9384740E-01
        -11   -1    0    0    0    0  0.00000000000E+00  0.00000000000E+00  0.50000000000E+03  0.50000000000E+03  0.00000000000E+00 0. -1.
         11   -1    0    0    0    0 -0.00000000000E+00 -0.00000000000E+00 -0.50000000000E+03  0.50000000000E+03  0.00000000000E+00 0. -1.
        -11    1    1    2    0    0  0.19068603930E+01  0.67957034840E+01  0.49315783637E+03  0.49320834266E+03  0.00000000000E+00 0. -1.
         11    1    1    2    0    0  0.95246062355E+01 -0.33254584017E+01 -0.47905207111E+03  0.47915828661E+03  0.00000000000E+00 0. -1.
        -15    1    1    2    0    0 -0.21794478177E+01 -0.61174211303E+01  0.34267431973E+01  0.75546761688E+01  0.17770000000E+01 0. -1.
         15    1    1    2    0    0 -0.92520188109E+01  0.26471760479E+01 -0.17532508458E+02  0.20078694552E+02  0.17770000000E+01 0.  1.
</event>
<event>
 6    1  0.2408691E-003  0.4454016E+03  0.7546771E-02  0.9531016E-01
        -11   -1    0    0    0    0  0.00000000000E+00  0.00000000000E+00  0.50000000000E+03  0.50000000000E+03  0.00000000000E+00 0.  1.
         11   -1    0    0    0    0 -0.00000000000E+00 -0.00000000000E+00 -0.50000000000E+03  0.50000000000E+03  0.00000000000E+00 0. -1.
        -11    1    1    2    0    0 -0.75924621385E+01 -0.23233328450E+02  0.44925311032E+03  0.44991753707E+03  0.00000000000E+00 0.  1.
         11    1    1    2    0    0 -0.30936926288E+01  0.78117630620E+01 -0.44104101387E+03  0.44112103837E+03  0.00000000000E+00 0. -1.
        -15    1    1    2    0    0 -0.31710268161E+02 -0.23024576777E+02 -0.28200814794E+02  0.48312689085E+02  0.17770000000E+01 0. -1.
         15    1    1    2    0    0  0.42396422928E+02  0.38446142166E+02  0.19988718345E+02  0.60648735474E+02  0.17770000000E+01 0.  1.
</event>
<event>
 6    1  0.2408691E-003  0.5007923E+03  0.7546771E-02  0.9398039E-01
        -11   -1    0    0    0    0  0.00000000000E+00  0.00000000000E+00  0.50000000000E+03  0.50000000000E+03  0.00000000000E+00 0.  1.
         11   -1    0    0    0    0 -0.00000000000E+00 -0.00000000000E+00 -0.50000000000E+03  0.50000000000E+03  0.00000000000E+00 0.  1.
        -11    1    1    2    0    0  0.46703653795E+01 -0.88502718557E+01  0.49910740893E+03  0.49920771756E+03  0.00000000000E+00 0.  1.
         11    1    1    2    0    0  0.19049354350E+01 -0.31056521010E+01 -0.25103465498E+03  0.25106109188E+03  0.00000000000E+00 0.  1.
        -15    1    1    2    0    0 -0.69762035338E+00  0.78732295868E+01 -0.23090205082E+03  0.23104412829E+03  0.17770000000E+01 0.  1.
         15    1    1    2    0    0 -0.58776804612E+01  0.40826943699E+01 -0.17170703131E+02  0.18687062261E+02  0.17770000000E+01 0. -1.
</event>
<event>
 6    1  0.2408691E-003  0.5009774E+03  0.7546771E-02  0.9397625E-01
        -11   -1    0    0    0    0  0.00000000000E+00  0.00000000000E+00  0.50000000000E+03  0.50000000000E+03  0.00000000000E+00 0.  1.
         11   -1    0    0    0    0 -0.00000000000E+00 -0.00000000000E+00 -0.50000000000E+03  0.50000000000E+03  0.00000000000E+00 0. -1.
        -11    1    1    2    0    0 -0.55222509068E+01  0.70104966440E+01  0.42804498959E+03  0.42813800979E+03  0.00000000000E+00 0.  1.
         11    1    1    2    0    0 -0.98772197375E+00  0.70297861949E+01 -0.49897213949E+03  0.49902263424E+03  0.00000000000E+00 0. -1.
        -15    1    1    2    0    0  0.31697727454E+01 -0.25138451659E+01  0.17049515005E+02  0.17612795567E+02  0.17770000000E+01 0. -1.
         15    1    1    2    0    0  0.33402001351E+01 -0.11526437673E+02  0.53877634900E+02  0.55226560402E+02  0.17770000000E+01 0.  1.
</event>
<event>
 6    1  0.2408691E-003  0.5055391E+03  0.7546771E-02  0.9387500E-01
        -11   -1    0    0    0    0  0.00000000000E+00  0.00000000000E+00  0.50000000000E+03  0.50000000000E+03  0.00000000000E+00 0. -1.
         11   -1    0    0    0    0 -0.00000000000E+00 -0.00000000000E+00 -0.50000000000E+03  0.50000000000E+03  0.00000000000E+00 0. -1.
        -11    1    1    2    0    0 -0.17364455064E+02 -0.10525540790E+01  0.33687163700E+03  0.33732051818E+03  0.00000000000E+00 0. -1.
         11    1    1    2    0    0 -0.58785984391E+01  0.40922337386E+02 -0.49272948538E+03  0.49446085930E+03  0.00000000000E+00 0. -1.
        -15    1    1    2    0    0 -0.40879740904E+01  0.29789888756E+01  0.55044490494E+02  0.55304968761E+02  0.17770000000E+01 0. -1.
         15    1    1    2    0    0  0.27331027593E+02 -0.42848772183E+02  0.10081335789E+03  0.11291365376E+03  0.17770000000E+01 0.  1.
</event>
<event>
 6    1  0.2408691E-003  0.5042228E+03  0.7546771E-02  0.9390410E-01
        -11   -1    0    0    0    0  0.00000000000E+00  0.00000000000E+00  0.50000000000E+03  0.50000000000E+03  0.00000000000E+00 0. -1.
         11   -1    0    0    0    0 -0.00000000000E+00 -0.00000000000E+00 -0.50000000000E+03  0.50000000000E+03  0.00000000000E+00 0. -1.
        -11    1    1    2    0    0 -0.19654974049E+02 -0.69853640822E+01  0.49533814940E+03  0.49577716322E+03  0.00000000000E+00 0. -1.
         11    1    1    2    0    0 -0.41599778206E+01  0.96587421841E+01 -0.38764419477E+03  0.38778682089E+03  0.00000000000E+00 0. -1.
        -15    1    1    2    0    0  0.75017010248E+00  0.14760156073E+02 -0.29361730511E+02  0.32919506529E+02  0.17770000000E+01 0. -1.
         15    1    1    2    0    0  0.23064781767E+02 -0.17433534175E+02 -0.78332224117E+02  0.83516509362E+02  0.17770000000E+01 0. -1.
</event>
<event>
 6    1  0.2408691E-003  0.5004572E+03  0.7546771E-02  0.9398787E-01
        -11   -1    0    0    0    0  0.00000000000E+00  0.00000000000E+00  0.50000000000E+03  0.50000000000E+03  0.00000000000E+00 0.  1.
         11   -1    0    0    0    0 -0.00000000000E+00 -0.00000000000E+00 -0.50000000000E+03  0.50000000000E+03  0.00000000000E+00 0.  1.
        -11    1    1    2    0    0 -0.33457954906E+01  0.33588028868E+01  0.33839473690E+03  0.33842794487E+03  0.00000000000E+00 0.  1.
         11    1    1    2    0    0 -0.86289624667E+01  0.26002749048E+01 -0.49946145211E+03  0.49954275349E+03  0.00000000000E+00 0.  1.
        -15    1    1    2    0    0  0.46177175403E+01  0.22523355668E+01  0.81713755486E+02  0.81894394774E+02  0.17770000000E+01 0. -1.
         15    1    1    2    0    0  0.73570404169E+01 -0.82114133584E+01  0.79352959723E+02  0.80134906869E+02  0.17770000000E+01 0.  1.
</event>
<event>
 6    1  0.2408691E-003  0.4845546E+03  0.7546771E-02  0.9435049E-01
        -11   -1    0    0    0    0  0.00000000000E+00  0.00000000000E+00  0.50000000000E+03  0.50000000000E+03  0.00000000000E+00 0.  1.
         11   -1    0    0    0    0 -0.00000000000E+00 -0.00000000000E+00 -0.50000000000E+03  0.50000000000E+03  0.00000000000E+00 0. -1.
        -11    1    1    2    0    0  0.92699510414E+01  0.57764403891E-01  0.48674745340E+03  0.48683572046E+03  0.00000000000E+00 0.  1.
         11    1    1    2    0    0  0.68440839271E+01 -0.14008292109E+01 -0.48236762924E+03  0.48241821436E+03  0.00000000000E+00 0. -1.
        -15    1    1    2    0    0 -0.23294387401E+01  0.11854768699E+02 -0.52636393932E+01  0.13297573253E+02  0.17770000000E+01 0.  1.
         15    1    1    2    0    0 -0.13784596228E+02 -0.10511703892E+02  0.88381523892E+00  0.17448491920E+02  0.17770000000E+01 0. -1.
</event>
<event>
 6    1  0.2408691E-003  0.5015459E+03  0.7546771E-02  0.9396357E-01
        -11   -1    0    0    0    0  0.00000000000E+00  0.00000000000E+00  0.50000000000E+03  0.50000000000E+03  0.00000000000E+00 0.  1.
         11   -1    0    0    0    0 -0.00000000000E+00 -0.00000000000E+00 -0.50000000000E+03  0.50000000000E+03  0.00000000000E+00 0.  1.
        -11    1    1    2    0    0 -0.10447381706E+02 -0.26261592763E+01  0.34100725668E+03  0.34117736385E+03  0.00000000000E+00 0.  1.
         11    1    1    2    0    0 -0.19336805013E+01  0.11862128593E+02 -0.49830917092E+03  0.49845408919E+03  0.00000000000E+00 0.  1.
        -15    1    1    2    0    0 -0.51013239407E+01 -0.30871377425E+01  0.98354392666E+02  0.98550992948E+02  0.17770000000E+01 0. -1.
         15    1    1    2    0    0  0.17482386148E+02 -0.61488315741E+01  0.58947521572E+02  0.61817554009E+02  0.17770000000E+01 0.  1.
</event>
<event>
 6    1  0.2408691E-003  0.5016026E+03  0.7546771E-02  0.9396231E-01
        -11   -1    0    0    0    0  0.00000000000E+00  0.00000000000E+00  0.50000000000E+03  0.50000000000E+03  0.00000000000E+00 0.  1.
         11   -1    0    0    0    0 -0.00000000000E+00 -0.00000000000E+00 -0.50000000000E+03  0.50000000000E+03  0.00000000000E+00 0. -1.
        -11    1    1    2    0    0 -0.75337078389E+01 -0.30700208750E+01  0.49833096529E+03  0.49839736431E+03  0.00000000000E+00 0.  1.
         11    1    1    2    0    0  0.10135712248E+02  0.17501646696E+00 -0.45349609136E+03  0.45360937840E+03  0.00000000000E+00 0. -1.
        -15    1    1    2    0    0  0.22094241469E+01  0.57789975414E+01 -0.39592682260E+02  0.40112548974E+02  0.17770000000E+01 0.  1.
         15    1    1    2    0    0 -0.48114285556E+01 -0.28839931334E+01 -0.52421916670E+01  0.78807083193E+01  0.17770000000E+01 0. -1.
</event>
<event>
 6    1  0.2408691E-003  0.5001689E+03  0.7546771E-02  0.9399432E-01
        -11   -1    0    0    0    0  0.00000000000E+00  0.00000000000E+00  0.50000000000E+03  0.50000000000E+03  0.00000000000E+00 0. -1.
         11   -1    0    0    0    0 -0.00000000000E+00 -0.00000000000E+00 -0.50000000000E+03  0.50000000000E+03  0.00000000000E+00 0. -1.
        -11    1    1    2    0    0  0.37934418290E+01 -0.17392917918E+01  0.27937497600E+03  0.27940614265E+03  0.00000000000E+00 0. -1.
         11    1    1    2    0    0 -0.59080059185E+01 -0.48833448046E+01 -0.49977237305E+03  0.49983114794E+03  0.00000000000E+00 0. -1.
        -15    1    1    2    0    0  0.33174041135E+01  0.66453886953E+01  0.21035515531E+03  0.21049374209E+03  0.17770000000E+01 0. -1.
         15    1    1    2    0    0 -0.12028400240E+01 -0.22752098894E-01  0.10042241733E+02  0.10268967319E+02  0.17770000000E+01 0. -1.
</event>
<event>
 6    1  0.2408691E-003  0.5057310E+03  0.7546771E-02  0.9387077E-01
        -11   -1    0    0    0    0  0.00000000000E+00  0.00000000000E+00  0.50000000000E+03  0.50000000000E+03  0.00000000000E+00 0. -1.
         11   -1    0    0    0    0 -0.00000000000E+00 -0.00000000000E+00 -0.50000000000E+03  0.50000000000E+03  0.00000000000E+00 0.  1.
        -11    1    1    2    0    0 -0.12733885729E+02 -0.21303733855E+01  0.49410030792E+03  0.49426895980E+03  0.00000000000E+00 0. -1.
         11    1    1    2    0    0  0.12806822457E+02 -0.12817663596E+01 -0.42188643716E+03  0.42208272114E+03  0.00000000000E+00 0.  1.
        -15    1    1    2    0    0  0.94451853658E+01  0.65159042460E+01 -0.93629141591E+00  0.11649158998E+02  0.17770000000E+01 0. -1.
         15    1    1    2    0    0 -0.95181220935E+01 -0.31037645010E+01 -0.71277579347E+02  0.71999160056E+02  0.17770000000E+01 0.  1.
</event>
<event>
 6    1  0.2408691E-003  0.4844722E+03  0.7546771E-02  0.9435241E-01
        -11   -1    0    0    0    0  0.00000000000E+00  0.00000000000E+00  0.50000000000E+03  0.50000000000E+03  0.00000000000E+00 0. -1.
         11   -1    0    0    0    0 -0.00000000000E+00 -0.00000000000E+00 -0.50000000000E+03  0.50000000000E+03  0.00000000000E+00 0. -1.
        -11    1    1    2    0    0  0.10451188610E+02  0.46590441639E+01  0.48934443067E+03  0.48947819754E+03  0.00000000000E+00 0. -1.
         11    1    1    2    0    0  0.57297789916E+01  0.32949684245E+01 -0.47963703315E+03  0.47968257291E+03  0.00000000000E+00 0. -1.
        -15    1    1    2    0    0 -0.14944390552E+02 -0.34059331833E+01 -0.16364007290E+02  0.22491635187E+02  0.17770000000E+01 0. -1.
         15    1    1    2    0    0 -0.12365770496E+01 -0.45480794050E+01  0.66566097680E+01  0.83475943647E+01  0.17770000000E+01 0.  1.
</event>
<event>
 6    1  0.2408691E-003  0.5064753E+03  0.7546771E-02  0.9385436E-01
        -11   -1    0    0    0    0  0.00000000000E+00  0.00000000000E+00  0.50000000000E+03  0.50000000000E+03  0.00000000000E+00 0. -1.
         11   -1    0    0    0    0 -0.00000000000E+00 -0.00000000000E+00 -0.50000000000E+03  0.50000000000E+03  0.00000000000E+00 0.  1.
        -11    1    1    2    0    0  0.12035887388E+01 -0.14664763600E+02  0.49330531746E+03  0.49352471078E+03  0.00000000000E+00 0. -1.
         11    1    1    2    0    0  0.14725608558E+02  0.29637612522E+01 -0.48096529500E+03  0.48119979470E+03  0.00000000000E+00 0.  1.
        -15    1    1    2    0    0 -0.10927963501E+02  0.23688760269E+01 -0.62500902715E+01  0.12932645410E+02  0.17770000000E+01 0.  1.
         15    1    1    2    0    0 -0.50012337960E+01  0.93321263206E+01 -0.60899321866E+01  0.12342849111E+02  0.17770000000E+01 0. -1.
</event>
<event>
 6    1  0.2408691E-003  0.5004983E+03  0.7546771E-02  0.9398695E-01
        -11   -1    0    0    0    0  0.00000000000E+00  0.00000000000E+00  0.50000000000E+03  0.50000000000E+03  0.00000000000E+00 0. -1.
         11   -1    0    0    0    0 -0.00000000000E+00 -0.00000000000E+00 -0.50000000000E+03  0.50000000000E+03  0.00000000000E+00 0.  1.
        -11    1    1    2    0    0  0.56935503016E+01  0.26049800204E+01  0.14411578102E+03  0.14425172711E+03  0.00000000000E+00 0. -1.
         11    1    1    2    0    0  0.94842524635E+01 -0.42169465772E+01 -0.49939381646E+03  0.49950166927E+03  0.00000000000E+00 0.  1.
        -15    1    1    2    0    0 -0.13949785959E+02 -0.27344477756E+01  0.33789890871E+03  0.33820246003E+03  0.17770000000E+01 0. -1.
         15    1    1    2    0    0 -0.12280168059E+01  0.43464143324E+01  0.17379126739E+02  0.18044143594E+02  0.17770000000E+01 0.  1.
</event>
<event>
 6    1  0.2408691E-003  0.5075423E+03  0.7546771E-02  0.9383090E-01
        -11   -1    0    0    0    0  0.00000000000E+00  0.00000000000E+00  0.50000000000E+03  0.50000000000E+03  0.00000000000E+00 0.  1.
         11   -1    0    0    0    0 -0.00000000000E+00 -0.00000000000E+00 -0.50000000000E+03  0.50000000000E+03  0.00000000000E+00 0.  1.
        -11    1    1    2    0    0  0.13786930238E+02 -0.22300529773E+01  0.49225965718E+03  0.49245773693E+03  0.00000000000E+00 0.  1.
         11    1    1    2    0    0 -0.55039655513E+01  0.28197328379E+01 -0.41886896920E+03  0.41891461885E+03  0.00000000000E+00 0.  1.
        -15    1    1    2    0    0  0.69590533501E+01 -0.14890053243E+02 -0.63164368931E+02  0.65291939323E+02  0.17770000000E+01 0.  1.
         15    1    1    2    0    0 -0.15242018037E+02  0.14300373382E+02 -0.10226319050E+02  0.23335704896E+02  0.17770000000E+01 0. -1.
</event>
<event>
 6    1  0.2408691E-003  0.5025284E+03  0.7546771E-02  0.9394170E-01
        -11   -1    0    0    0    0  0.00000000000E+00  0.00000000000E+00  0.50000000000E+03  0.50000000000E+03  0.00000000000E+00 0.  1.
         11   -1    0    0    0    0 -0.00000000000E+00 -0.00000000000E+00 -0.50000000000E+03  0.50000000000E+03  0.00000000000E+00 0. -1.
        -11    1    1    2    0    0  0.71615676292E+01  0.38064747582E+01  0.41018557200E+03  0.41026574410E+03  0.00000000000E+00 0.  1.
         11    1    1    2    0    0  0.68205969085E+01  0.31893631977E+00 -0.49742476493E+03  0.49747162635E+03  0.00000000000E+00 0. -1.
        -15    1    1    2    0    0  0.32693418974E+01 -0.62662714445E+01  0.68692757335E+01  0.10014960427E+02  0.17770000000E+01 0.  1.
         15    1    1    2    0    0 -0.17251506435E+02  0.21408603665E+01  0.80369917194E+02  0.82247669123E+02  0.17770000000E+01 0. -1.
</event>
<event>
 6    1  0.2408691E-003  0.5008508E+03  0.7546771E-02  0.9397908E-01
        -11   -1    0    0    0    0  0.00000000000E+00  0.00000000000E+00  0.50000000000E+03  0.50000000000E+03  0.00000000000E+00 0. -1.
         11   -1    0    0    0    0 -0.00000000000E+00 -0.00000000000E+00 -0.50000000000E+03  0.50000000000E+03  0.00000000000E+00 0. -1.
        -11    1    1    2    0    0  0.36023422546E+01  0.58641360289E+01  0.33684764992E+03  0.33691794879E+03  0.00000000000E+00 0. -1.
         11    1    1    2    0    0 -0.50359384398E+01  0.97786229766E+01 -0.49902795890E+03  0.49914916198E+03  0.00000000000E+00 0. -1.
        -15    1    1    2    0    0 -0.37668944589E+01 -0.16435816929E+02  0.93221635619E+02  0.94751024525E+02  0.17770000000E+01 0.  1.
         15    1    1    2    0    0  0.52004906441E+01  0.79305792339E+00  0.68958673355E+02  0.69181864703E+02  0.17770000000E+01 0. -1.
</event>
<event>
 6    1  0.2408691E-003  0.5112906E+03  0.7546771E-02  0.9374895E-01
        -11   -1    0    0    0    0  0.00000000000E+00  0.00000000000E+00  0.50000000000E+03  0.50000000000E+03  0.00000000000E+00 0.  1.
         11   -1    0    0    0    0 -0.00000000000E+00 -0.00000000000E+00 -0.50000000000E+03  0.50000000000E+03  0.00000000000E+00 0.  1.
        -11    1    1    2    0    0  0.18386073908E+02  0.13819624379E+01  0.43163315850E+03  0.43202678279E+03  0.00000000000E+00 0.  1.
         11    1    1    2    0    0 -0.36332627250E+01 -0.84201023622E+01 -0.48862336041E+03  0.48870940962E+03  0.00000000000E+00 0.  1.
        -15    1    1    2    0    0 -0.19003903332E+02  0.12457319883E+02  0.64805127662E+02  0.68696400640E+02  0.17770000000E+01 0.  1.
         15    1    1    2    0    0  0.42510921485E+01 -0.54191799587E+01 -0.78149257575E+01  0.10567406942E+02  0.17770000000E+01 0. -1.
</event>
<event>
 6    1  0.2408691E-003  0.5091473E+03  0.7546771E-02  0.9379571E-01
        -11   -1    0    0    0    0  0.00000000000E+00  0.00000000000E+00  0.50000000000E+03  0.50000000000E+03  0.00000000000E+00 0.  1.
         11   -1    0    0    0    0 -0.00000000000E+00 -0.00000000000E+00 -0.50000000000E+03  0.50000000000E+03  0.00000000000E+00 0.  1.
        -11    1    1    2    0    0  0.55178087805E+01  0.69738909636E+01  0.49077216464E+03  0.49085272634E+03  0.00000000000E+00 0.  1.
         11    1    1    2    0    0  0.87209334913E+01 -0.15654379861E+02 -0.79387390244E+02  0.81384716130E+02  0.00000000000E+00 0.  1.
        -15    1    1    2    0    0 -0.14170208636E+01 -0.70963419228E+01  0.61914136229E+01  0.96880002304E+01  0.17770000000E+01 0. -1.
         15    1    1    2    0    0 -0.12821721408E+02  0.15776830820E+02 -0.41757618802E+03  0.41807455730E+03  0.17770000000E+01 0.  1.
</event>
<event>
 6    1  0.2408691E-003  0.5035016E+03  0.7546771E-02  0.9392009E-01
        -11   -1    0    0    0    0  0.00000000000E+00  0.00000000000E+00  0.50000000000E+03  0.50000000000E+03  0.00000000000E+00 0. -1.
         11   -1    0    0    0    0 -0.00000000000E+00 -0.00000000000E+00 -0.50000000000E+03  0.50000000000E+03  0.00000000000E+00 0. -1.
        -11    1    1    2    0    0  0.16780265194E+02 -0.11966276504E+01  0.49621334112E+03  0.49649842811E+03  0.00000000000E+00 0. -1.
         11    1    1    2    0    0 -0.39685062423E+01  0.56018642212E+01 -0.43669865060E+03  0.43675260887E+03  0.00000000000E+00 0. -1.
        -15    1    1    2    0    0 -0.56060600647E+01  0.72299715051E+01 -0.51255078753E+01  0.10636209729E+02  0.17770000000E+01 0. -1.
         15    1    1    2    0    0 -0.72056988865E+01 -0.11635208076E+02 -0.54389182645E+02  0.56112753285E+02  0.17770000000E+01 0.  1.
</event>
<event>
 6    1  0.2408691E-003  0.5001931E+03  0.7546771E-02  0.9399378E-01
        -11   -1    0    0    0    0  0.00000000000E+00  0.00000000000E+00  0.50000000000E+03  0.50000000000E+03  0.00000000000E+00 0. -1.
         11   -1    0    0    0    0 -0.00000000000E+00 -0.00000000000E+00 -0.50000000000E+03  0.50000000000E+03  0.00000000000E+00 0. -1.
        -11    1    1    2    0    0  0.58242670746E+01  0.35124738116E+01  0.49976062145E+03  0.49980690102E+03  0.00000000000E+00 0. -1.
         11    1    1    2    0    0 -0.35583643617E+01 -0.43709187751E+01 -0.30163522689E+03  0.30168788008E+03  0.00000000000E+00 0. -1.
        -15    1    1    2    0    0  0.10499404386E+01  0.17876073921E+01 -0.17738020832E+03  0.17740122307E+03  0.17770000000E+01 0. -1.
         15    1    1    2    0    0 -0.33158431516E+01 -0.92916242853E+00 -0.20745186243E+02  0.21103995827E+02  0.17770000000E+01 0.  1.
</event>
<event>
 6    1  0.2408691E-003  0.5135579E+03  0.7546771E-02  0.9369974E-01
        -11   -1    0    0    0    0  0.00000000000E+00  0.00000000000E+00  0.50000000000E+03  0.50000000000E+03  0.00000000000E+00 0.  1.
         11   -1    0    0    0    0 -0.00000000000E+00 -0.00000000000E+00 -0.50000000000E+03  0.50000000000E+03  0.00000000000E+00 0.  1.
        -11    1    1    2    0    0 -0.12237308688E+02  0.18721298888E+01  0.47250383895E+03  0.47266598611E+03  0.00000000000E+00 0.  1.
         11    1    1    2    0    0  0.82413022366E+00 -0.94954860149E+01 -0.48634867628E+03  0.48644206065E+03  0.00000000000E+00 0.  1.
        -15    1    1    2    0    0  0.51110063517E+01 -0.33748101980E+01  0.23823372431E+02  0.24662168047E+02  0.17770000000E+01 0.  1.
         15    1    1    2    0    0  0.63021721130E+01  0.10998166324E+02 -0.99785351012E+01  0.16229785199E+02  0.17770000000E+01 0. -1.
</event>
<event>
 6    1  0.2408691E-003  0.5001130E+03  0.7546771E-02  0.9399557E-01
        -11   -1    0    0    0    0  0.00000000000E+00  0.00000000000E+00  0.50000000000E+03  0.50000000000E+03  0.00000000000E+00 0. -1.
         11   -1    0    0    0    0 -0.00000000000E+00 -0.00000000000E+00 -0.50000000000E+03  0.50000000000E+03  0.00000000000E+00 0. -1.
        -11    1    1    2    0    0 -0.89784787605E+01  0.14249024297E+01  0.49980431425E+03  0.49988698320E+03  0.00000000000E+00 0. -1.
         11    1    1    2    0    0  0.18240418601E+01  0.13025600110E+01 -0.12450688493E+03  0.12452705805E+03  0.00000000000E+00 0. -1.
        -15    1    1    2    0    0  0.94447115180E+01 -0.37189539381E+01 -0.33990653927E+03  0.34006270946E+03  0.17770000000E+01 0. -1.
         15    1    1    2    0    0 -0.22902746175E+01  0.99149149741E+00 -0.35390890049E+02  0.35523249298E+02  0.17770000000E+01 0.  1.
</event>
<event>
 6    1  0.2408691E-003  0.5020080E+03  0.7546771E-02  0.9395328E-01
        -11   -1    0    0    0    0  0.00000000000E+00  0.00000000000E+00  0.50000000000E+03  0.50000000000E+03  0.00000000000E+00 0.  1.
         11   -1    0    0    0    0 -0.00000000000E+00 -0.00000000000E+00 -0.50000000000E+03  0.50000000000E+03  0.00000000000E+00 0. -1.
        -11    1    1    2    0    0 -0.44582147805E+01 -0.60639001397E+01  0.49793515336E+03  0.49799203158E+03  0.00000000000E+00 0.  1.
         11    1    1    2    0    0  0.61360525209E+01 -0.47972152223E+01 -0.47163001989E+03  0.47169432907E+03  0.00000000000E+00 0. -1.
        -15    1    1    2    0    0  0.33101664254E+01  0.11795303467E+01 -0.55166664315E+01  0.67778928229E+01  0.17770000000E+01 0. -1.
         15    1    1    2    0    0 -0.49880041657E+01  0.96815850153E+01 -0.20788467038E+02  0.23535746531E+02  0.17770000000E+01 0.  1.
</event>
<event>
 6    1  0.2408691E-003  0.5024520E+03  0.7546771E-02  0.9394340E-01
        -11   -1    0    0    0    0  0.00000000000E+00  0.00000000000E+00  0.50000000000E+03  0.50000000000E+03  0.00000000000E+00 0. -1.
         11   -1    0    0    0    0 -0.00000000000E+00 -0.00000000000E+00 -0.50000000000E+03  0.50000000000E+03  0.00000000000E+00 0.  1.
        -11    1    1    2    0    0 -0.43932114922E+01  0.55142547644E+01  0.49749802609E+03  0.49754798088E+03  0.00000000000E+00 0. -1.
         11    1    1    2    0    0 -0.29703527354E+01 -0.57976980766E+01 -0.45798544856E+03  0.45803177552E+03  0.00000000000E+00 0.  1.
        -15    1    1    2    0    0  0.51420004908E+01  0.83038534789E+01 -0.30271301761E+02  0.31857551553E+02  0.17770000000E+01 0. -1.
         15    1    1    2    0    0  0.22215637367E+01 -0.80204101667E+01 -0.92412757686E+01  0.12562692049E+02  0.17770000000E+01 0. -1.
</event>
<event>
 6    1  0.2408691E-003  0.5006764E+03  0.7546771E-02  0.9398297E-01
        -11   -1    0    0    0    0  0.00000000000E+00  0.00000000000E+00  0.50000000000E+03  0.50000000000E+03  0.00000000000E+00 0. -1.
         11   -1    0    0    0    0 -0.00000000000E+00 -0.00000000000E+00 -0.50000000000E+03  0.50000000000E+03  0.00000000000E+00 0.  1.
        -11    1    1    2    0    0  0.20754883559E+01 -0.12055308345E+02  0.36869397125E+03  0.36889684540E+03  0.00000000000E+00 0. -1.
         11    1    1    2    0    0 -0.88169873562E+01  0.32693104951E+01 -0.49923501709E+03  0.49932357239E+03  0.00000000000E+00 0.  1.
        -15    1    1    2    0    0  0.56551928428E+00  0.43327977189E+01  0.10820240559E+02  0.11803740208E+02  0.17770000000E+01 0.  1.
         15    1    1    2    0    0  0.61759797160E+01  0.44532001306E+01  0.11972080528E+03  0.11997584200E+03  0.17770000000E+01 0. -1.
</event>
<event>
 6    1  0.2408691E-003  0.5270289E+03  0.7546771E-02  0.9341282E-01
        -11   -1    0    0    0    0  0.00000000000E+00  0.00000000000E+00  0.50000000000E+03  0.50000000000E+03  0.00000000000E+00 0.  1.
         11   -1    0    0    0    0 -0.00000000000E+00 -0.00000000000E+00 -0.50000000000E+03  0.50000000000E+03  0.00000000000E+00 0. -1.
        -11    1    1    2    0    0 -0.44572586546E+02 -0.45482892827E+02  0.38094696277E+03  0.38623308695E+03  0.00000000000E+00 0.  1.
         11    1    1    2    0    0 -0.98718949931E+01  0.75412644758E+01 -0.47280792227E+03  0.47297109461E+03  0.00000000000E+00 0. -1.
        -15    1    1    2    0    0  0.51685038476E+02  0.41042762622E+02  0.10659498509E+03  0.12538540641E+03  0.17770000000E+01 0.  1.
         15    1    1    2    0    0  0.27594430632E+01 -0.31011342704E+01 -0.14734025591E+02  0.15410412029E+02  0.17770000000E+01 0. -1.
</event>
<event>
 6    1  0.2408691E-003  0.5020198E+03  0.7546771E-02  0.9395301E-01
        -11   -1    0    0    0    0  0.00000000000E+00  0.00000000000E+00  0.50000000000E+03  0.50000000000E+03  0.00000000000E+00 0. -1.
         11   -1    0    0    0    0 -0.00000000000E+00 -0.00000000000E+00 -0.50000000000E+03  0.50000000000E+03  0.00000000000E+00 0.  1.
        -11    1    1    2    0    0 -0.14368416427E+01 -0.39358392303E+01  0.25138105552E+03  0.25141597089E+03  0.00000000000E+00 0. -1.
         11    1    1    2    0    0  0.13614526341E+02 -0.78206802393E+01 -0.49773258050E+03  0.49798016031E+03  0.00000000000E+00 0.  1.
        -15    1    1    2    0    0  0.36010466382E+00  0.39095055933E+01  0.22210274424E+03  0.22214454897E+03  0.17770000000E+01 0. -1.
         15    1    1    2    0    0 -0.12537789362E+02  0.78470138764E+01  0.24248780740E+02  0.28459319831E+02  0.17770000000E+01 0.  1.
</event>
<event>
 6    1  0.2408691E-003  0.5074660E+03  0.7546771E-02  0.9383257E-01
        -11   -1    0    0    0    0  0.00000000000E+00  0.00000000000E+00  0.50000000000E+03  0.50000000000E+03  0.00000000000E+00 0.  1.
         11   -1    0    0    0    0 -0.00000000000E+00 -0.00000000000E+00 -0.50000000000E+03  0.50000000000E+03  0.00000000000E+00 0.  1.
        -11    1    1    2    0    0 -0.35831610620E+01  0.88277856165E+01  0.49244189109E+03  0.49253404445E+03  0.00000000000E+00 0.  1.
         11    1    1    2    0    0 -0.55628262281E+01  0.51692041503E+01 -0.41651957140E+03  0.41658878893E+03  0.00000000000E+00 0.  1.
        -15    1    1    2    0    0  0.17181600936E+02 -0.27537155460E+01 -0.74890038952E+02  0.76905565620E+02  0.17770000000E+01 0.  1.
         15    1    1    2    0    0 -0.80356136462E+01 -0.11243274221E+02 -0.10322807385E+01  0.13971600996E+02  0.17770000000E+01 0. -1.
</event>
<event>
 6    1  0.2408691E-003  0.5043559E+03  0.7546771E-02  0.9390115E-01
        -11   -1    0    0    0    0  0.00000000000E+00  0.00000000000E+00  0.50000000000E+03  0.50000000000E+03  0.00000000000E+00 0. -1.
         11   -1    0    0    0    0 -0.00000000000E+00 -0.00000000000E+00 -0.50000000000E+03  0.50000000000E+03  0.00000000000E+00 0.  1.
        -11    1    1    2    0    0  0.44996316202E+01 -0.63522753306E+00  0.30102222317E+03  0.30105652134E+03  0.00000000000E+00 0. -1.
         11    1    1    2    0    0 -0.16633002052E+01  0.87816737460E+01 -0.49556347760E+03  0.49564407057E+03  0.00000000000E+00 0.  1.
        -15    1    1    2    0    0 -0.19874383474E+01  0.76195011766E-01  0.19482132881E+03  0.19483958429E+03  0.17770000000E+01 0. -1.
         15    1    1    2    0    0 -0.84889306767E+00 -0.82226412247E+01 -0.28007438136E+00  0.84598238049E+01  0.17770000000E+01 0.  1.
</event>
<event>
 6    1  0.2408691E-003  0.5082257E+03  0.7546771E-02  0.9381590E-01
        -11   -1    0    0    0    0  0.00000000000E+00  0.00000000000E+00  0.50000000000E+03  0.50000000000E+03  0.00000000000E+00 0. -1.
         11   -1    0    0    0    0 -0.00000000000E+00 -0.00000000000E+00 -0.50000000000E+03  0.50000000000E+03  0.00000000000E+00 0. -1.
        -11    1    1    2    0    0  0.49645465894E+01 -0.24184445214E+01  0.40405166554E+03  0.40408940102E+03  0.00000000000E+00 0. -1.
         11    1    1    2    0    0  0.85192400305E+01  0.21374318912E+01 -0.49169590498E+03  0.49177434768E+03  0.00000000000E+00 0. -1.
        -15    1    1    2    0    0  0.36788101707E+01 -0.38630638482E+00  0.86748791995E+02  0.86845803114E+02  0.17770000000E+01 0.  1.
         15    1    1    2    0    0 -0.17162596791E+02  0.66731901500E+00  0.89544744586E+00  0.17290448184E+02  0.17770000000E+01 0. -1.
</event>
<event>
 6    1  0.2408691E-003  0.5043821E+03  0.7546771E-02  0.9390057E-01
        -11   -1    0    0    0    0  0.00000000000E+00  0.00000000000E+00  0.50000000000E+03  0.50000000000E+03  0.00000000000E+00 0. -1.
         11   -1    0    0    0    0 -0.00000000000E+00 -0.00000000000E+00 -0.50000000000E+03  0.50000000000E+03  0.00000000000E+00 0. -1.
        -11    1    1    2    0    0  0.61158411177E+01  0.89823256511E+01  0.49549876693E+03  0.49561791101E+03  0.00000000000E+00 0. -1.
         11    1    1    2    0    0  0.92172410402E+01 -0.10925916232E+02 -0.28449636142E+03  0.28485524893E+03  0.00000000000E+00 0. -1.
        -15    1    1    2    0    0 -0.15490184050E+02  0.12089482813E+01 -0.21474635993E+03  0.21531503475E+03  0.17770000000E+01 0. -1.
         15    1    1    2    0    0  0.15710189226E+00  0.73464229986E+00  0.37439544213E+01  0.42118053163E+01  0.17770000000E+01 0.  1.
</event>
<event>
 6    1  0.2408691E-003  0.4880285E+03  0.7546771E-02  0.9427003E-01
        -11   -1    0    0    0    0  0.00000000000E+00  0.00000000000E+00  0.50000000000E+03  0.50000000000E+03  0.00000000000E+00 0. -1.
         11   -1    0    0    0    0 -0.00000000000E+00 -0.00000000000E+00 -0.50000000000E+03  0.50000000000E+03  0.00000000000E+00 0. -1.
        -11    1    1    2    0    0  0.38633544113E+01  0.73801655280E+01  0.48731099868E+03  0.48738219273E+03  0.00000000000E+00 0. -1.
         11    1    1    2    0    0 -0.65686912159E+01 -0.15119282387E+02 -0.48843185714E+03  0.48870995434E+03  0.00000000000E+00 0. -1.
        -15    1    1    2    0    0 -0.30240578312E+01  0.35008899068E+01 -0.96633837875E+01  0.10860012483E+02  0.17770000000E+01 0. -1.
         15    1    1    2    0    0  0.57293946358E+01  0.42382269518E+01  0.10784242246E+02  0.13047840450E+02  0.17770000000E+01 0.  1.
</event>
<event>
 6    1  0.2408691E-003  0.4726272E+03  0.7546771E-02  0.9463232E-01
        -11   -1    0    0    0    0  0.00000000000E+00  0.00000000000E+00  0.50000000000E+03  0.50000000000E+03  0.00000000000E+00 0.  1.
         11   -1    0    0    0    0 -0.00000000000E+00 -0.00000000000E+00 -0.50000000000E+03  0.50000000000E+03  0.00000000000E+00 0. -1.
        -11    1    1    2    0    0  0.88473658689E+01  0.10284951659E+02  0.47101598800E+03  0.47121132951E+03  0.00000000000E+00 0.  1.
         11    1    1    2    0    0 -0.78618069206E+01  0.29004811003E+01 -0.47406638333E+03  0.47414043974E+03  0.00000000000E+00 0. -1.
        -15    1    1    2    0    0  0.69058147311E+01 -0.20666583406E+01 -0.23556377141E+02  0.24698623176E+02  0.17770000000E+01 0. -1.
         15    1    1    2    0    0 -0.78913736794E+01 -0.11118774419E+02  0.26606772471E+02  0.29949607568E+02  0.17770000000E+01 0.  1.
</event>
<event>
 6    1  0.2408691E-003  0.5003462E+03  0.7546771E-02  0.9399035E-01
        -11   -1    0    0    0    0  0.00000000000E+00  0.00000000000E+00  0.50000000000E+03  0.50000000000E+03  0.00000000000E+00 0.  1.
         11   -1    0    0    0    0 -0.00000000000E+00 -0.00000000000E+00 -0.50000000000E+03  0.50000000000E+03  0.00000000000E+00 0. -1.
        -11    1    1    2    0    0 -0.12831195476E+00  0.47623898082E+01  0.14327881843E+03  0.14335800163E+03  0.00000000000E+00 0.  1.
         11    1    1    2    0    0 -0.54690145992E+01 -0.61856187594E+01 -0.49958561532E+03  0.49965383920E+03  0.00000000000E+00 0. -1.
        -15    1    1    2    0    0  0.35940502691E+01  0.10986297719E+02  0.22669170379E+03  0.22699317661E+03  0.17770000000E+01 0.  1.
         15    1    1    2    0    0  0.20032762849E+01 -0.95630687681E+01  0.12961509310E+03  0.12999498255E+03  0.17770000000E+01 0. -1.
</event>
<event>
 6    1  0.2408691E-003  0.5111470E+03  0.7546771E-02  0.9375207E-01
        -11   -1    0    0    0    0  0.00000000000E+00  0.00000000000E+00  0.50000000000E+03  0.50000000000E+03  0.00000000000E+00 0. -1.
         11   -1    0    0    0    0 -0.00000000000E+00 -0.00000000000E+00 -0.50000000000E+03  0.50000000000E+03  0.00000000000E+00 0.  1.
        -11    1    1    2    0    0  0.78442729299E+01 -0.42577559590E+01  0.48877152111E+03  0.48885300546E+03  0.00000000000E+00 0. -1.
         11    1    1    2    0    0 -0.11323665973E+02 -0.10365916773E+02 -0.38493496733E+03  0.38524097227E+03  0.00000000000E+00 0.  1.
        -15    1    1    2    0    0 -0.10146824844E+02 -0.14635206852E+02 -0.79679853019E+00  0.17914796982E+02  0.17770000000E+01 0.  1.
         15    1    1    2    0    0  0.13626217887E+02  0.29258879584E+02 -0.10303975525E+03  0.10799122529E+03  0.17770000000E+01 0. -1.
</event>
<event>
 6    1  0.2408691E-003  0.5020464E+03  0.7546771E-02  0.9395242E-01
        -11   -1    0    0    0    0  0.00000000000E+00  0.00000000000E+00  0.50000000000E+03  0.50000000000E+03  0.00000000000E+00 0.  1.
         11   -1    0    0    0    0 -0.00000000000E+00 -0.00000000000E+00 -0.50000000000E+03  0.50000000000E+03  0.00000000000E+00 0.  1.
        -11    1    1    2    0    0  0.43748206667E+01 -0.65520995634E+01  0.26493693043E+03  0.26505404386E+03  0.00000000000E+00 0.  1.
         11    1    1    2    0    0 -0.28202706784E+01 -0.10701299019E+02 -0.49783061310E+03  0.49795360333E+03  0.00000000000E+00 0.  1.
        -15    1    1    2    0    0 -0.10170415862E+01  0.82175470833E+01  0.72157507566E+01  0.11125971492E+02  0.17770000000E+01 0. -1.
         15    1    1    2    0    0 -0.53750840213E+00  0.90358514995E+01  0.22567793191E+03  0.22586638132E+03  0.17770000000E+01 0.  1.
</event>
<event>
 6    1  0.2408691E-003  0.5029940E+03  0.7546771E-02  0.9393135E-01
        -11   -1    0    0    0    0  0.00000000000E+00  0.00000000000E+00  0.50000000000E+03  0.50000000000E+03  0.00000000000E+00 0.  1.
         11   -1    0    0    0    0 -0.00000000000E+00 -0.00000000000E+00 -0.50000000000E+03  0.50000000000E+03  0.00000000000E+00 0. -1.
        -11    1    1    2    0    0 -0.25308384913E+01 -0.83537816376E+01  0.49692937885E+03  0.49700603455E+03  0.00000000000E+00 0.  1.
         11    1    1    2    0    0 -0.29297881310E+01 -0.51320825504E+01 -0.24233265369E+03  0.24240469669E+03  0.00000000000E+00 0. -1.
        -15    1    1    2    0    0  0.47829914242E+01  0.69311030927E+01 -0.33277432143E+01  0.92276107929E+01  0.17770000000E+01 0. -1.
         15    1    1    2    0    0  0.67763519813E+00  0.65547610953E+01 -0.25126898195E+03  0.25136165797E+03  0.17770000000E+01 0. -1.
</event>
<event>
 6    1  0.2408691E-003  0.4947367E+03  0.7546771E-02  0.9411664E-01
        -11   -1    0    0    0    0  0.00000000000E+00  0.00000000000E+00  0.50000000000E+03  0.50000000000E+03  0.00000000000E+00 0. -1.
         11   -1    0    0    0    0 -0.00000000000E+00 -0.00000000000E+00 -0.50000000000E+03  0.50000000000E+03  0.00000000000E+00 0. -1.
        -11    1    1    2    0    0  0.39129362388E+00  0.13784953975E+01  0.10719395271E+02  0.10814748967E+02  0.00000000000E+00 0. -1.
         11    1    1    2    0    0  0.45865666924E+01  0.77868118694E+01 -0.49968037169E+03  0.49976208829E+03  0.00000000000E+00 0. -1.
        -15    1    1    2    0    0 -0.97585569579E+01 -0.72064945242E+00  0.33427967264E+03  0.33442757966E+03  0.17770000000E+01 0.  1.
         15    1    1    2    0    0  0.47806966417E+01 -0.84446578145E+01  0.15468130379E+03  0.15499558309E+03  0.17770000000E+01 0. -1.
</event>
<event>
 6    1  0.2429766E-003  0.5402252E+03  0.7546771E-02  0.9314044E-01
        -11   -1    0    0    0    0  0.00000000000E+00  0.00000000000E+00  0.50000000000E+03  0.50000000000E+03  0.00000000000E+00 0.  1.
         11   -1    0    0    0    0 -0.00000000000E+00 -0.00000000000E+00 -0.50000000000E+03  0.50000000000E+03  0.00000000000E+00 0. -1.
        -11    1    1    2    0    0  0.15234277161E+02  0.29117904378E+02  0.33087890097E+03  0.33250681596E+03  0.00000000000E+00 0.  1.
         11    1    1    2    0    0 -0.26590295910E+02 -0.91612346035E+02 -0.44976989364E+03  0.45977475247E+03  0.00000000000E+00 0. -1.
        -15    1    1    2    0    0 -0.23728650795E+02 -0.95452671627E+01  0.12474865499E+03  0.12735598001E+03  0.17770000000E+01 0.  1.
         15    1    1    2    0    0  0.35084669544E+02  0.72039708820E+02 -0.58576623227E+01  0.80362451560E+02  0.17770000000E+01 0. -1.
</event>
<event>
 6    1  0.2408691E-003  0.5114818E+03  0.7546771E-02  0.9374479E-01
        -11   -1    0    0    0    0  0.00000000000E+00  0.00000000000E+00  0.50000000000E+03  0.50000000000E+03  0.00000000000E+00 0. -1.
         11   -1    0    0    0    0 -0.00000000000E+00 -0.00000000000E+00 -0.50000000000E+03  0.50000000000E+03  0.00000000000E+00 0. -1.
        -11    1    1    2    0    0  0.48356553864E+00 -0.91248691882E+01  0.48843273680E+03  0.48851820381E+03  0.00000000000E+00 0. -1.
         11    1    1    2    0    0  0.11619126825E+01  0.81489728674E+01 -0.48077604120E+03  0.48084650107E+03  0.00000000000E+00 0. -1.
        -15    1    1    2    0    0  0.10367366354E+01 -0.57707508448E+01 -0.17347062982E+02  0.18397138671E+02  0.17770000000E+01 0. -1.
         15    1    1    2    0    0 -0.26822148565E+01  0.67466471657E+01  0.96903673772E+01  0.12238156455E+02  0.17770000000E+01 0.  1.
</event>
<event>
 6    1  0.2408691E-003  0.5139809E+03  0.7546771E-02  0.9369059E-01
        -11   -1    0    0    0    0  0.00000000000E+00  0.00000000000E+00  0.50000000000E+03  0.50000000000E+03  0.00000000000E+00 0.  1.
         11   -1    0    0    0    0 -0.00000000000E+00 -0.00000000000E+00 -0.50000000000E+03  0.50000000000E+03  0.00000000000E+00 0.  1.
        -11    1    1    2    0    0 -0.23049200127E-01  0.89912855106E+01  0.48593595142E+03  0.48601912785E+03  0.00000000000E+00 0.  1.
         11    1    1    2    0    0 -0.19557167437E+02 -0.13417530035E+02 -0.40180654657E+03  0.40250591770E+03  0.00000000000E+00 0.  1.
        -15    1    1    2    0    0  0.42268045777E+02  0.11803491197E+02 -0.72757225061E+02  0.84986361410E+02  0.17770000000E+01 0.  1.
         15    1    1    2    0    0 -0.22687829140E+02 -0.73772466727E+01 -0.11372179789E+02  0.26488593048E+02  0.17770000000E+01 0. -1.
</event>
<event>
 6    1  0.2408691E-003  0.5074544E+03  0.7546771E-02  0.9383283E-01
        -11   -1    0    0    0    0  0.00000000000E+00  0.00000000000E+00  0.50000000000E+03  0.50000000000E+03  0.00000000000E+00 0. -1.
         11   -1    0    0    0    0 -0.00000000000E+00 -0.00000000000E+00 -0.50000000000E+03  0.50000000000E+03  0.00000000000E+00 0. -1.
        -11    1    1    2    0    0 -0.93230382610E+00 -0.24157162347E+02  0.10861532692E+03  0.11127320848E+03  0.00000000000E+00 0. -1.
         11    1    1    2    0    0  0.45377876982E+01  0.12151970926E+02 -0.49237480552E+03  0.49254564360E+03  0.00000000000E+00 0. -1.
        -15    1    1    2    0    0 -0.77225845579E+01 -0.13617508264E+02  0.36178976200E+03  0.36213266141E+03  0.17770000000E+01 0. -1.
         15    1    1    2    0    0  0.41171006858E+01  0.25622699685E+02  0.21969716596E+02  0.34048486508E+02  0.17770000000E+01 0.  1.
</event>
<event>
 6    1  0.2408691E-003  0.5008544E+03  0.7546771E-02  0.9397900E-01
        -11   -1    0    0    0    0  0.00000000000E+00  0.00000000000E+00  0.50000000000E+03  0.50000000000E+03  0.00000000000E+00 0.  1.
         11   -1    0    0    0    0 -0.00000000000E+00 -0.00000000000E+00 -0.50000000000E+03  0.50000000000E+03  0.00000000000E+00 0.  1.
        -11    1    1    2    0    0  0.57084190765E+01 -0.65889910064E+01  0.44295017583E+03  0.44303595692E+03  0.00000000000E+00 0.  1.
         11    1    1    2    0    0  0.61461909770E+01  0.67164470203E+01 -0.49906254790E+03  0.49914558302E+03  0.00000000000E+00 0.  1.
        -15    1    1    2    0    0 -0.78364845923E+01 -0.29036046934E+01  0.29948306809E+02  0.31143221104E+02  0.17770000000E+01 0. -1.
         15    1    1    2    0    0 -0.40181254612E+01  0.27761486795E+01  0.26164065264E+02  0.26675238965E+02  0.17770000000E+01 0.  1.
</event>
<event>
 6    1  0.2408691E-003  0.4831088E+03  0.7546771E-02  0.9438419E-01
        -11   -1    0    0    0    0  0.00000000000E+00  0.00000000000E+00  0.50000000000E+03  0.50000000000E+03  0.00000000000E+00 0. -1.
         11   -1    0    0    0    0 -0.00000000000E+00 -0.00000000000E+00 -0.50000000000E+03  0.50000000000E+03  0.00000000000E+00 0. -1.
        -11    1    1    2    0    0  0.68259570506E+01  0.35324045728E+01  0.48457955487E+03  0.48464050240E+03  0.00000000000E+00 0. -1.
         11    1    1    2    0    0 -0.33883812930E+01 -0.10022360268E+02 -0.48149362379E+03  0.48160984062E+03  0.00000000000E+00 0. -1.
        -15    1    1    2    0    0  0.45619943058E+01  0.96762846832E+01 -0.15267279785E+02  0.18726714564E+02  0.17770000000E+01 0. -1.
         15    1    1    2    0    0 -0.79995700633E+01 -0.31863289885E+01  0.12181348706E+02  0.15022942419E+02  0.17770000000E+01 0.  1.
</event>
<event>
 6    1  0.2408691E-003  0.5034374E+03  0.7546771E-02  0.9392151E-01
        -11   -1    0    0    0    0  0.00000000000E+00  0.00000000000E+00  0.50000000000E+03  0.50000000000E+03  0.00000000000E+00 0.  1.
         11   -1    0    0    0    0 -0.00000000000E+00 -0.00000000000E+00 -0.50000000000E+03  0.50000000000E+03  0.00000000000E+00 0. -1.
        -11    1    1    2    0    0  0.13919172182E+02 -0.63755507508E+01  0.49632648380E+03  0.49656255348E+03  0.00000000000E+00 0.  1.
         11    1    1    2    0    0 -0.61554246347E+01  0.47897603769E+01 -0.46236043988E+03  0.46242621836E+03  0.00000000000E+00 0. -1.
        -15    1    1    2    0    0 -0.75894385660E+01 -0.59585032615E+00 -0.36434731745E+02  0.37263950699E+02  0.17770000000E+01 0. -1.
         15    1    1    2    0    0 -0.17430898121E+00  0.21816407001E+01  0.24686878330E+01  0.37472774627E+01  0.17770000000E+01 0.  1.
</event>
<event>
 6    1  0.2408691E-003  0.5004516E+03  0.7546771E-02  0.9398800E-01
        -11   -1    0    0    0    0  0.00000000000E+00  0.00000000000E+00  0.50000000000E+03  0.50000000000E+03  0.00000000000E+00 0.  1.
         11   -1    0    0    0    0 -0.00000000000E+00 -0.00000000000E+00 -0.50000000000E+03  0.50000000000E+03  0.00000000000E+00 0. -1.
        -11    1    1    2    0    0 -0.80235165828E+01 -0.36862059866E+01  0.49947035501E+03  0.49954839652E+03  0.00000000000E+00 0.  1.
         11    1    1    2    0    0  0.29985490925E+01 -0.72607376787E+01 -0.37818609245E+03  0.37826766995E+03  0.00000000000E+00 0. -1.
        -15    1    1    2    0    0 -0.71164103893E+00  0.38909040152E+01 -0.64782507397E+02  0.64927471541E+02  0.17770000000E+01 0. -1.
         15    1    1    2    0    0  0.57366085292E+01  0.70560396501E+01 -0.56501755164E+02  0.57256461981E+02  0.17770000000E+01 0. -1.
</event>
<event>
 6    1  0.2408691E-003  0.4918158E+03  0.7546771E-02  0.9418311E-01
        -11   -1    0    0    0    0  0.00000000000E+00  0.00000000000E+00  0.50000000000E+03  0.50000000000E+03  0.00000000000E+00 0.  1.
         11   -1    0    0    0    0 -0.00000000000E+00 -0.00000000000E+00 -0.50000000000E+03  0.50000000000E+03  0.00000000000E+00 0. -1.
        -11    1    1    2    0    0  0.54644005072E+01 -0.53603316231E+01  0.49265039262E+03  0.49270985598E+03  0.00000000000E+00 0.  1.
         11    1    1    2    0    0 -0.84811195864E+01  0.29684671262E+01 -0.49084864222E+03  0.49093088185E+03  0.00000000000E+00 0. -1.
        -15    1    1    2    0    0  0.75519720998E+01  0.17439157918E+00 -0.57921243967E+01  0.96834461348E+01  0.17770000000E+01 0.  1.
         15    1    1    2    0    0 -0.45352530206E+01  0.22174729178E+01  0.39903739992E+01  0.66758160367E+01  0.17770000000E+01 0. -1.
</event>
<event>
 6    1  0.2408691E-003  0.4843408E+03  0.7546771E-02  0.9435547E-01
        -11   -1    0    0    0    0  0.00000000000E+00  0.00000000000E+00  0.50000000000E+03  0.50000000000E+03  0.00000000000E+00 0.  1.
         11   -1    0    0    0    0 -0.00000000000E+00 -0.00000000000E+00 -0.50000000000E+03  0.50000000000E+03  0.00000000000E+00 0.  1.
        -11    1    1    2    0    0  0.10331987268E+01 -0.17741048311E+02  0.48371504585E+03  0.48404138034E+03  0.00000000000E+00 0.  1.
         11    1    1    2    0    0 -0.88443418788E+01 -0.39696872791E+01 -0.48481860794E+03  0.48491552193E+03  0.00000000000E+00 0.  1.
        -15    1    1    2    0    0  0.19943789831E+01  0.17068433786E+02  0.94733275977E+01  0.19703061798E+02  0.17770000000E+01 0. -1.
         15    1    1    2    0    0  0.58167641689E+01  0.46423018043E+01 -0.83697655089E+01  0.11340035940E+02  0.17770000000E+01 0. -1.
</event>
<event>
 6    1  0.2408691E-003  0.5042068E+03  0.7546771E-02  0.9390445E-01
        -11   -1    0    0    0    0  0.00000000000E+00  0.00000000000E+00  0.50000000000E+03  0.50000000000E+03  0.00000000000E+00 0.  1.
         11   -1    0    0    0    0 -0.00000000000E+00 -0.00000000000E+00 -0.50000000000E+03  0.50000000000E+03  0.00000000000E+00 0.  1.
        -11    1    1    2    0    0  0.43593570980E+01  0.56507490021E+01  0.49574179523E+03  0.49579316503E+03  0.00000000000E+00 0.  1.
         11    1    1    2    0    0 -0.12282578657E+02  0.11319661140E+01 -0.44653266633E+03  0.44670299438E+03  0.00000000000E+00 0.  1.
        -15    1    1    2    0    0  0.14274180967E+02 -0.12514031454E+02 -0.42184007512E+02  0.46292563595E+02  0.17770000000E+01 0.  1.
         15    1    1    2    0    0 -0.63509594083E+01  0.57313163376E+01 -0.70251213873E+01  0.11211276996E+02  0.17770000000E+01 0. -1.
</event>
<event>
 6    1  0.2408691E-003  0.5130791E+03  0.7546771E-02  0.9371011E-01
        -11   -1    0    0    0    0  0.00000000000E+00  0.00000000000E+00  0.50000000000E+03  0.50000000000E+03  0.00000000000E+00 0.  1.
         11   -1    0    0    0    0 -0.00000000000E+00 -0.00000000000E+00 -0.50000000000E+03  0.50000000000E+03  0.00000000000E+00 0.  1.
        -11    1    1    2    0    0  0.17984627455E+02 -0.11587459726E+02  0.48645066440E+03  0.48692090215E+03  0.00000000000E+00 0.  1.
         11    1    1    2    0    0  0.70685696295E+01 -0.10918167774E+02 -0.34211839378E+03  0.34236554503E+03  0.00000000000E+00 0.  1.
        -15    1    1    2    0    0 -0.28685823166E+02  0.19013142589E+02 -0.94600179842E+01  0.35735496514E+02  0.17770000000E+01 0.  1.
         15    1    1    2    0    0  0.36326260822E+01  0.34924849104E+01 -0.13487225264E+03  0.13497805631E+03  0.17770000000E+01 0. -1.
</event>
<event>
 6    1  0.2408691E-003  0.5029114E+03  0.7546771E-02  0.9393319E-01
        -11   -1    0    0    0    0  0.00000000000E+00  0.00000000000E+00  0.50000000000E+03  0.50000000000E+03  0.00000000000E+00 0.  1.
         11   -1    0    0    0    0 -0.00000000000E+00 -0.00000000000E+00 -0.50000000000E+03  0.50000000000E+03  0.00000000000E+00 0.  1.
        -11    1    1    2    0    0  0.57798431610E+01  0.15009174428E+02  0.49682829475E+03  0.49708855989E+03  0.00000000000E+00 0.  1.
         11    1    1    2    0    0 -0.20518476249E+01  0.72710505301E+01 -0.43774288249E+03  0.43780807373E+03  0.00000000000E+00 0.  1.
        -15    1    1    2    0    0 -0.26150945027E+01 -0.21412009396E+02 -0.36728718823E+02  0.42631788387E+02  0.17770000000E+01 0. -1.
         15    1    1    2    0    0 -0.11129010335E+01 -0.86821556195E+00 -0.22356693439E+02  0.22471577993E+02  0.17770000000E+01 0.  1.
</event>
<event>
 6    1  0.2408691E-003  0.5417998E+03  0.7546771E-02  0.9310850E-01
        -11   -1    0    0    0    0  0.00000000000E+00  0.00000000000E+00  0.50000000000E+03  0.50000000000E+03  0.00000000000E+00 0. -1.
         11   -1    0    0    0    0 -0.00000000000E+00 -0.00000000000E+00 -0.50000000000E+03  0.50000000000E+03  0.00000000000E+00 0.  1.
        -11    1    1    2    0    0  0.79055504622E+01  0.43342057666E+02  0.45607720159E+03  0.45820022425E+03  0.00000000000E+00 0. -1.
         11    1    1    2    0    0  0.11237575763E+02  0.17721909244E+01 -0.33018413886E+03  0.33038006799E+03  0.00000000000E+00 0.  1.
        -15    1    1    2    0    0  0.48365507229E+02 -0.14650641025E+02  0.14563322892E+02  0.52622349573E+02  0.17770000000E+01 0. -1.
         15    1    1    2    0    0 -0.67508633454E+02 -0.30463607566E+02 -0.14045638562E+03  0.15879735819E+03  0.17770000000E+01 0.  1.
</event>
<event>
 6    1  0.2408691E-003  0.5036187E+03  0.7546771E-02  0.9391749E-01
        -11   -1    0    0    0    0  0.00000000000E+00  0.00000000000E+00  0.50000000000E+03  0.50000000000E+03  0.00000000000E+00 0.  1.
         11   -1    0    0    0    0 -0.00000000000E+00 -0.00000000000E+00 -0.50000000000E+03  0.50000000000E+03  0.00000000000E+00 0. -1.
        -11    1    1    2    0    0  0.32163305630E+01 -0.16642429891E+02  0.49609178274E+03  0.49638127700E+03  0.00000000000E+00 0.  1.
         11    1    1    2    0    0 -0.10291537443E+02  0.44185396031E+01 -0.46612786306E+03  0.46626239818E+03  0.00000000000E+00 0. -1.
        -15    1    1    2    0    0  0.15901856918E+01  0.14594934598E+02 -0.14624341699E+02  0.20798314970E+02  0.17770000000E+01 0.  1.
         15    1    1    2    0    0  0.54850211882E+01 -0.23710443102E+01 -0.15339577977E+02  0.16558009846E+02  0.17770000000E+01 0. -1.
</event>
<event>
 6    1  0.2408691E-003  0.5039716E+03  0.7546771E-02  0.9390967E-01
        -11   -1    0    0    0    0  0.00000000000E+00  0.00000000000E+00  0.50000000000E+03  0.50000000000E+03  0.00000000000E+00 0. -1.
         11   -1    0    0    0    0 -0.00000000000E+00 -0.00000000000E+00 -0.50000000000E+03  0.50000000000E+03  0.00000000000E+00 0. -1.
        -11    1    1    2    0    0 -0.25171838351E+02 -0.14133025610E+02  0.49518765113E+03  0.49602840009E+03  0.00000000000E+00 0. -1.
         11    1    1    2    0    0  0.45976478649E+01  0.30395665451E+01 -0.20154644601E+03  0.20162179255E+03  0.00000000000E+00 0. -1.
        -15    1    1    2    0    0 -0.58097255494E+01  0.68555301157E+01 -0.25594452160E+03  0.25610838930E+03  0.17770000000E+01 0. -1.
         15    1    1    2    0    0  0.26383916035E+02  0.42379289495E+01 -0.37696683518E+02  0.46241418063E+02  0.17770000000E+01 0.  1.
</event>
<event>
 6    1  0.2408691E-003  0.5005138E+03  0.7546771E-02  0.9398661E-01
        -11   -1    0    0    0    0  0.00000000000E+00  0.00000000000E+00  0.50000000000E+03  0.50000000000E+03  0.00000000000E+00 0. -1.
         11   -1    0    0    0    0 -0.00000000000E+00 -0.00000000000E+00 -0.50000000000E+03  0.50000000000E+03  0.00000000000E+00 0.  1.
        -11    1    1    2    0    0  0.83815578784E+00  0.23996447546E+01  0.18553290012E+03  0.18555031077E+03  0.00000000000E+00 0. -1.
         11    1    1    2    0    0  0.95092553087E+01 -0.16437739481E+01 -0.49939296684E+03  0.49948619927E+03  0.00000000000E+00 0.  1.
        -15    1    1    2    0    0 -0.17953539140E+02  0.15535620722E+01  0.20418285130E+03  0.20498423749E+03  0.17770000000E+01 0.  1.
         15    1    1    2    0    0  0.76061280433E+01 -0.23094328787E+01  0.10967721542E+03  0.10997925247E+03  0.17770000000E+01 0. -1.
</event>
<event>
 6    1  0.2408691E-003  0.5015854E+03  0.7546771E-02  0.9396269E-01
        -11   -1    0    0    0    0  0.00000000000E+00  0.00000000000E+00  0.50000000000E+03  0.50000000000E+03  0.00000000000E+00 0.  1.
         11   -1    0    0    0    0 -0.00000000000E+00 -0.00000000000E+00 -0.50000000000E+03  0.50000000000E+03  0.00000000000E+00 0.  1.
        -11    1    1    2    0    0 -0.55634742273E+00 -0.71692245082E+01  0.49836271242E+03  0.49841458690E+03  0.00000000000E+00 0.  1.
         11    1    1    2    0    0  0.27601569575E+01 -0.52013761269E+01 -0.40202810356E+03  0.40207122358E+03  0.00000000000E+00 0.  1.
        -15    1    1    2    0    0 -0.73833973245E+01  0.10107770367E+02 -0.25799958876E+02  0.28731118754E+02  0.17770000000E+01 0. -1.
         15    1    1    2    0    0  0.51795877897E+01  0.22628302685E+01 -0.70534649986E+02  0.70783070773E+02  0.17770000000E+01 0.  1.
</event>
<event>
 6    1  0.2408691E-003  0.5103019E+03  0.7546771E-02  0.9377049E-01
        -11   -1    0    0    0    0  0.00000000000E+00  0.00000000000E+00  0.50000000000E+03  0.50000000000E+03  0.00000000000E+00 0.  1.
         11   -1    0    0    0    0 -0.00000000000E+00 -0.00000000000E+00 -0.50000000000E+03  0.50000000000E+03  0.00000000000E+00 0.  1.
        -11    1    1    2    0    0  0.11134542559E+02  0.10777113832E+02  0.48945288097E+03  0.48969811814E+03  0.00000000000E+00 0.  1.
         11    1    1    2    0    0  0.72210239644E+01  0.27046650051E+01 -0.46578032184E+03  0.46584414412E+03  0.00000000000E+00 0.  1.
        -15    1    1    2    0    0 -0.64434157532E+01 -0.45515983621E+01  0.67549434070E+01  0.10536680865E+02  0.17770000000E+01 0.  1.
         15    1    1    2    0    0 -0.11912150770E+02 -0.89301804745E+01 -0.30427502540E+02  0.33921056868E+02  0.17770000000E+01 0. -1.
</event>
<event>
 6    1  0.2408691E-003  0.5152343E+03  0.7546771E-02  0.9366352E-01
        -11   -1    0    0    0    0  0.00000000000E+00  0.00000000000E+00  0.50000000000E+03  0.50000000000E+03  0.00000000000E+00 0.  1.
         11   -1    0    0    0    0 -0.00000000000E+00 -0.00000000000E+00 -0.50000000000E+03  0.50000000000E+03  0.00000000000E+00 0. -1.
        -11    1    1    2    0    0 -0.58104540000E+00  0.17914009651E+02  0.48443421739E+03  0.48476567570E+03  0.00000000000E+00 0.  1.
         11    1    1    2    0    0 -0.56922276425E+01  0.81134469250E+01 -0.44475830105E+03  0.44486871752E+03  0.00000000000E+00 0. -1.
        -15    1    1    2    0    0  0.21613075610E+02 -0.28544443837E+02 -0.41238749731E+02  0.54641582332E+02  0.17770000000E+01 0.  1.
         15    1    1    2    0    0 -0.15339802567E+02  0.25169872611E+01  0.15628333871E+01  0.15724024449E+02  0.17770000000E+01 0. -1.
</event>
<event>
 6    1  0.2408691E-003  0.5141909E+03  0.7546771E-02  0.9368605E-01
        -11   -1    0    0    0    0  0.00000000000E+00  0.00000000000E+00  0.50000000000E+03  0.50000000000E+03  0.00000000000E+00 0. -1.
         11   -1    0    0    0    0 -0.00000000000E+00 -0.00000000000E+00 -0.50000000000E+03  0.50000000000E+03  0.00000000000E+00 0.  1.
        -11    1    1    2    0    0 -0.63450416768E+01 -0.25152824052E+01  0.47292826965E+03  0.47297752001E+03  0.00000000000E+00 0. -1.
         11    1    1    2    0    0 -0.29143779831E+01 -0.85081298357E+01 -0.48572589531E+03  0.48580914694E+03  0.00000000000E+00 0.  1.
        -15    1    1    2    0    0 -0.42558952384E+01  0.51215576290E+01 -0.11105680843E+02  0.13070458018E+02  0.17770000000E+01 0. -1.
         15    1    1    2    0    0  0.13515314898E+02  0.59018546120E+01  0.23903306505E+02  0.28142875040E+02  0.17770000000E+01 0.  1.
</event>
<event>
 6    1  0.2408691E-003  0.5030875E+03  0.7546771E-02  0.9392928E-01
        -11   -1    0    0    0    0  0.00000000000E+00  0.00000000000E+00  0.50000000000E+03  0.50000000000E+03  0.00000000000E+00 0. -1.
         11   -1    0    0    0    0 -0.00000000000E+00 -0.00000000000E+00 -0.50000000000E+03  0.50000000000E+03  0.00000000000E+00 0. -1.
        -11    1    1    2    0    0 -0.92307934809E+01 -0.29339504998E+01  0.49681810881E+03  0.49691251630E+03  0.00000000000E+00 0. -1.
         11    1    1    2    0    0 -0.89662160060E+01 -0.13646190233E+01 -0.41673181547E+03  0.41683049461E+03  0.00000000000E+00 0. -1.
        -15    1    1    2    0    0 -0.25773627642E+01  0.29270440915E+01 -0.46528694118E+02  0.46725662021E+02  0.17770000000E+01 0.  1.
         15    1    1    2    0    0  0.20774372251E+02  0.13715254316E+01 -0.33557599232E+02  0.39531327066E+02  0.17770000000E+01 0. -1.
</event>
<event>
 6    1  0.2408691E-003  0.5007302E+03  0.7546771E-02  0.9398177E-01
        -11   -1    0    0    0    0  0.00000000000E+00  0.00000000000E+00  0.50000000000E+03  0.50000000000E+03  0.00000000000E+00 0. -1.
         11   -1    0    0    0    0 -0.00000000000E+00 -0.00000000000E+00 -0.50000000000E+03  0.50000000000E+03  0.00000000000E+00 0.  1.
        -11    1    1    2    0    0 -0.24086168186E+01  0.43476664361E+00  0.86667688672E+02  0.86702241706E+02  0.00000000000E+00 0. -1.
         11    1    1    2    0    0 -0.85375144648E+01 -0.66155676658E+01 -0.49915292738E+03  0.49926976656E+03  0.00000000000E+00 0.  1.
        -15    1    1    2    0    0  0.16111930937E+02  0.48060782727E+00  0.38718486770E+03  0.38752432802E+03  0.17770000000E+01 0. -1.
         15    1    1    2    0    0 -0.51657996540E+01  0.57001931949E+01  0.25300371007E+02  0.26503663720E+02  0.17770000000E+01 0.  1.
</event>
<event>
 6    1  0.2408691E-003  0.5001956E+03  0.7546771E-02  0.9399372E-01
        -11   -1    0    0    0    0  0.00000000000E+00  0.00000000000E+00  0.50000000000E+03  0.50000000000E+03  0.00000000000E+00 0. -1.
         11   -1    0    0    0    0 -0.00000000000E+00 -0.00000000000E+00 -0.50000000000E+03  0.50000000000E+03  0.00000000000E+00 0. -1.
        -11    1    1    2    0    0  0.48811608751E+01 -0.55561454522E+01  0.49974969925E+03  0.49980442013E+03  0.00000000000E+00 0. -1.
         11    1    1    2    0    0  0.32976960309E+01  0.21218724223E+01 -0.18186841782E+03  0.18191068836E+03  0.00000000000E+00 0. -1.
        -15    1    1    2    0    0 -0.81782726648E+01  0.56490173319E+01 -0.30078322479E+03  0.30095265672E+03  0.17770000000E+01 0. -1.
         15    1    1    2    0    0 -0.58424128807E-03 -0.22147443020E+01 -0.17098056642E+02  0.17332234783E+02  0.17770000000E+01 0.  1.
</event>
<event>
 6    1  0.2408691E-003  0.5275531E+03  0.7546771E-02  0.9340184E-01
        -11   -1    0    0    0    0  0.00000000000E+00  0.00000000000E+00  0.50000000000E+03  0.50000000000E+03  0.00000000000E+00 0.  1.
         11   -1    0    0    0    0 -0.00000000000E+00 -0.00000000000E+00 -0.50000000000E+03  0.50000000000E+03  0.00000000000E+00 0. -1.
        -11    1    1    2    0    0  0.47255008961E+01 -0.10000960429E+02  0.27334523407E+03  0.27356894297E+03  0.00000000000E+00 0.  1.
         11    1    1    2    0    0  0.12470111113E+03 -0.10129237916E+03 -0.44429223223E+03  0.47244692910E+03  0.00000000000E+00 0. -1.
        -15    1    1    2    0    0 -0.13908109564E+03  0.11108707545E+03  0.16126432365E+03  0.24019414919E+03  0.17770000000E+01 0.  1.
         15    1    1    2    0    0  0.96544836170E+01  0.20626413708E+00  0.96826745208E+01  0.13789978741E+02  0.17770000000E+01 0. -1.
</event>
<event>
 6    1  0.2408691E-003  0.5020986E+03  0.7546771E-02  0.9395126E-01
        -11   -1    0    0    0    0  0.00000000000E+00  0.00000000000E+00  0.50000000000E+03  0.50000000000E+03  0.00000000000E+00 0.  1.
         11   -1    0    0    0    0 -0.00000000000E+00 -0.00000000000E+00 -0.50000000000E+03  0.50000000000E+03  0.00000000000E+00 0.  1.
        -11    1    1    2    0    0 -0.70539649075E+01 -0.42344742887E+01  0.49783346613E+03  0.49790144526E+03  0.00000000000E+00 0.  1.
         11    1    1    2    0    0  0.95909457260E+01 -0.15431609754E+01 -0.48569700697E+03  0.48579414382E+03  0.00000000000E+00 0.  1.
        -15    1    1    2    0    0 -0.88311458869E-01 -0.11645148927E+01 -0.65709024312E+01  0.69064014950E+01  0.17770000000E+01 0.  1.
         15    1    1    2    0    0 -0.24486693596E+01  0.69421501568E+01 -0.55655567322E+01  0.93980094260E+01  0.17770000000E+01 0. -1.
</event>
<event>
 6    1  0.2408691E-003  0.5049507E+03  0.7546771E-02  0.9388800E-01
        -11   -1    0    0    0    0  0.00000000000E+00  0.00000000000E+00  0.50000000000E+03  0.50000000000E+03  0.00000000000E+00 0.  1.
         11   -1    0    0    0    0 -0.00000000000E+00 -0.00000000000E+00 -0.50000000000E+03  0.50000000000E+03  0.00000000000E+00 0. -1.
        -11    1    1    2    0    0  0.13754471937E+02  0.16731854108E+02  0.37706103323E+03  0.37768262234E+03  0.00000000000E+00 0.  1.
         11    1    1    2    0    0  0.12323342666E+00 -0.18903479984E+02 -0.49468822901E+03  0.49504929114E+03  0.00000000000E+00 0. -1.
        -15    1    1    2    0    0 -0.13938755677E+02  0.96360606957E+01  0.11834139343E+03  0.11956163976E+03  0.17770000000E+01 0.  1.
         15    1    1    2    0    0  0.61050313462E-01 -0.74644348191E+01 -0.71419764496E+00  0.77064467548E+01  0.17770000000E+01 0. -1.
</event>
<event>
 6    1  0.2408691E-003  0.5125750E+03  0.7546771E-02  0.9372104E-01
        -11   -1    0    0    0    0  0.00000000000E+00  0.00000000000E+00  0.50000000000E+03  0.50000000000E+03  0.00000000000E+00 0.  1.
         11   -1    0    0    0    0 -0.00000000000E+00 -0.00000000000E+00 -0.50000000000E+03  0.50000000000E+03  0.00000000000E+00 0. -1.
        -11    1    1    2    0    0  0.11029322341E+02 -0.62676957313E+01  0.48725986207E+03  0.48742497181E+03  0.00000000000E+00 0.  1.
         11    1    1    2    0    0  0.14050016241E+02  0.50756205943E+02 -0.34282994203E+03  0.34685150216E+03  0.00000000000E+00 0. -1.
        -15    1    1    2    0    0 -0.81714258545E+01  0.64792965834E+01  0.10580715931E+01  0.10631591095E+02  0.17770000000E+01 0.  1.
         15    1    1    2    0    0 -0.16907912727E+02 -0.50967806795E+02 -0.14548799163E+03  0.15509193493E+03  0.17770000000E+01 0. -1.
</event>
<event>
 6    1  0.2408691E-003  0.5001754E+03  0.7546771E-02  0.9399417E-01
        -11   -1    0    0    0    0  0.00000000000E+00  0.00000000000E+00  0.50000000000E+03  0.50000000000E+03  0.00000000000E+00 0.  1.
         11   -1    0    0    0    0 -0.00000000000E+00 -0.00000000000E+00 -0.50000000000E+03  0.50000000000E+03  0.00000000000E+00 0.  1.
        -11    1    1    2    0    0 -0.75903095222E+00 -0.78818025871E+01  0.49976182967E+03  0.49982455456E+03  0.00000000000E+00 0.  1.
         11    1    1    2    0    0 -0.23680242516E+01  0.50531668324E+00 -0.16720131026E+03  0.16721884175E+03  0.00000000000E+00 0.  1.
        -15    1    1    2    0    0  0.18354540400E+01 -0.24709694357E+01 -0.27428363572E+02  0.27657683177E+02  0.17770000000E+01 0.  1.
         15    1    1    2    0    0  0.12916011638E+01  0.98474553395E+01 -0.30513215584E+03  0.30529892051E+03  0.17770000000E+01 0.  1.
</event>
<event>
 6    1  0.2408691E-003  0.5029001E+03  0.7546771E-02  0.9393344E-01
        -11   -1    0    0    0    0  0.00000000000E+00  0.00000000000E+00  0.50000000000E+03  0.50000000000E+03  0.00000000000E+00 0.  1.
         11   -1    0    0    0    0 -0.00000000000E+00 -0.00000000000E+00 -0.50000000000E+03  0.50000000000E+03  0.00000000000E+00 0.  1.
        -11    1    1    2    0    0 -0.67765696189E+01  0.41076949995E+01  0.44819702221E+03  0.44826706970E+03  0.00000000000E+00 0.  1.
         11    1    1    2    0    0  0.34255803603E+01  0.58307279911E+01 -0.49705387739E+03  0.49709987831E+03  0.00000000000E+00 0.  1.
        -15    1    1    2    0    0 -0.86023519779E+00 -0.65538323012E+01  0.15922721126E+01  0.70275018256E+01  0.17770000000E+01 0. -1.
         15    1    1    2    0    0  0.42112244563E+01 -0.33845906894E+01  0.47264583065E+02  0.47605550168E+02  0.17770000000E+01 0.  1.
</event>
<event>
 6    1  0.2408691E-003  0.5044658E+03  0.7546771E-02  0.9389872E-01
        -11   -1    0    0    0    0  0.00000000000E+00  0.00000000000E+00  0.50000000000E+03  0.50000000000E+03  0.00000000000E+00 0. -1.
         11   -1    0    0    0    0 -0.00000000000E+00 -0.00000000000E+00 -0.50000000000E+03  0.50000000000E+03  0.00000000000E+00 0.  1.
        -11    1    1    2    0    0  0.13952297356E+02 -0.14489150689E+00  0.49533770505E+03  0.49553418615E+03  0.00000000000E+00 0. -1.
         11    1    1    2    0    0  0.59336705368E+00  0.80964323782E+01 -0.35999132191E+03  0.36008284623E+03  0.00000000000E+00 0.  1.
        -15    1    1    2    0    0 -0.10157328145E+02  0.23455166003E+01 -0.13219821093E+03  0.13262050168E+03  0.17770000000E+01 0.  1.
         15    1    1    2    0    0 -0.43883362643E+01 -0.10297057472E+02 -0.31481722065E+01  0.11762465940E+02  0.17770000000E+01 0. -1.
</event>
<event>
 6    1  0.2408691E-003  0.4579672E+03  0.7546771E-02  0.9499108E-01
        -11   -1    0    0    0    0  0.00000000000E+00  0.00000000000E+00  0.50000000000E+03  0.50000000000E+03  0.00000000000E+00 0. -1.
         11   -1    0    0    0    0 -0.00000000000E+00 -0.00000000000E+00 -0.50000000000E+03  0.50000000000E+03  0.00000000000E+00 0.  1.
        -11    1    1    2    0    0  0.11824667732E+02  0.24043087122E+00  0.47796628861E+03  0.47811259513E+03  0.00000000000E+00 0. -1.
         11    1    1    2    0    0  0.45926383533E+02 -0.34210007266E+02 -0.43743053882E+03  0.44116327317E+03  0.00000000000E+00 0.  1.
        -15    1    1    2    0    0 -0.51012178481E+02  0.21480798051E+02 -0.34146956969E+02  0.65060275418E+02  0.17770000000E+01 0.  1.
         15    1    1    2    0    0 -0.67388727843E+01  0.12488778344E+02 -0.63887928225E+01  0.15663856283E+02  0.17770000000E+01 0. -1.
</event>
<event>
 6    1  0.2408691E-003  0.5126893E+03  0.7546771E-02  0.9371856E-01
        -11   -1    0    0    0    0  0.00000000000E+00  0.00000000000E+00  0.50000000000E+03  0.50000000000E+03  0.00000000000E+00 0. -1.
         11   -1    0    0    0    0 -0.00000000000E+00 -0.00000000000E+00 -0.50000000000E+03  0.50000000000E+03  0.00000000000E+00 0.  1.
        -11    1    1    2    0    0 -0.14480993447E+02  0.13861507240E+02  0.48689820746E+03  0.48731068630E+03  0.00000000000E+00 0. -1.
         11    1    1    2    0    0  0.21443759297E+02 -0.29221389249E+02 -0.44789299133E+03  0.44935715871E+03  0.00000000000E+00 0.  1.
        -15    1    1    2    0    0 -0.19117239205E+02  0.16419076059E+02 -0.43421472897E+02  0.50235813231E+02  0.17770000000E+01 0.  1.
         15    1    1    2    0    0  0.12154473356E+02 -0.10591940496E+01  0.44162567631E+01  0.13096341756E+02  0.17770000000E+01 0. -1.
</event>
<event>
 6    1  0.2408691E-003  0.5082114E+03  0.7546771E-02  0.9381621E-01
        -11   -1    0    0    0    0  0.00000000000E+00  0.00000000000E+00  0.50000000000E+03  0.50000000000E+03  0.00000000000E+00 0. -1.
         11   -1    0    0    0    0 -0.00000000000E+00 -0.00000000000E+00 -0.50000000000E+03  0.50000000000E+03  0.00000000000E+00 0.  1.
        -11    1    1    2    0    0 -0.18602135471E+01 -0.11415135924E+02  0.49165256901E+03  0.49178858703E+03  0.00000000000E+00 0. -1.
         11    1    1    2    0    0 -0.16666662850E+02  0.69124176901E+01 -0.39720479835E+03  0.39761439989E+03  0.00000000000E+00 0.  1.
        -15    1    1    2    0    0  0.27633024920E+02  0.23339739459E+02 -0.65357184275E+02  0.74719788340E+02  0.17770000000E+01 0. -1.
         15    1    1    2    0    0 -0.91061485231E+01 -0.18837021225E+02 -0.29090586387E+02  0.35877224738E+02  0.17770000000E+01 0.  1.
</event>
<event>
 6    1  0.2408691E-003  0.5002923E+03  0.7546771E-02  0.9399156E-01
        -11   -1    0    0    0    0  0.00000000000E+00  0.00000000000E+00  0.50000000000E+03  0.50000000000E+03  0.00000000000E+00 0.  1.
         11   -1    0    0    0    0 -0.00000000000E+00 -0.00000000000E+00 -0.50000000000E+03  0.50000000000E+03  0.00000000000E+00 0. -1.
        -11    1    1    2    0    0  0.44295037511E+01 -0.61574351060E+01  0.49965011280E+03  0.49970768429E+03  0.00000000000E+00 0.  1.
         11    1    1    2    0    0 -0.25755669971E+01 -0.62104868736E+01 -0.17722820064E+03  0.17735568441E+03  0.00000000000E+00 0. -1.
        -15    1    1    2    0    0 -0.46503262029E+01  0.99095115751E+00 -0.49967275669E+02  0.50224435137E+02  0.17770000000E+01 0.  1.
         15    1    1    2    0    0  0.27963894489E+01  0.11376970822E+02 -0.27245463650E+03  0.27271219616E+03  0.17770000000E+01 0. -1.
</event>
<event>
 6    1  0.2408691E-003  0.5071002E+03  0.7546771E-02  0.9384061E-01
        -11   -1    0    0    0    0  0.00000000000E+00  0.00000000000E+00  0.50000000000E+03  0.50000000000E+03  0.00000000000E+00 0. -1.
         11   -1    0    0    0    0 -0.00000000000E+00 -0.00000000000E+00 -0.50000000000E+03  0.50000000000E+03  0.00000000000E+00 0. -1.
        -11    1    1    2    0    0  0.17322118474E+01  0.83184004095E+01  0.46567809465E+03  0.46575560563E+03  0.00000000000E+00 0. -1.
         11    1    1    2    0    0  0.45852183679E+01  0.74952470544E+01 -0.49282143845E+03  0.49289975974E+03  0.00000000000E+00 0. -1.
        -15    1    1    2    0    0 -0.44969595504E+01 -0.15056166077E+02  0.18602582759E+01  0.15922596270E+02  0.17770000000E+01 0.  1.
         15    1    1    2    0    0 -0.18204706649E+01 -0.75748138679E+00  0.25283085529E+02  0.25422038360E+02  0.17770000000E+01 0. -1.
</event>
<event>
 6    1  0.2408691E-003  0.5008053E+03  0.7546771E-02  0.9398009E-01
        -11   -1    0    0    0    0  0.00000000000E+00  0.00000000000E+00  0.50000000000E+03  0.50000000000E+03  0.00000000000E+00 0.  1.
         11   -1    0    0    0    0 -0.00000000000E+00 -0.00000000000E+00 -0.50000000000E+03  0.50000000000E+03  0.00000000000E+00 0.  1.
        -11    1    1    2    0    0  0.31887289432E+01  0.91347754271E+01  0.49910088452E+03  0.49919465647E+03  0.00000000000E+00 0.  1.
         11    1    1    2    0    0  0.37933946558E+01  0.34518063013E+01 -0.30712571546E+03  0.30716853665E+03  0.00000000000E+00 0.  1.
        -15    1    1    2    0    0  0.62504984814E+00  0.45360195871E+01 -0.18399248030E+02  0.19043534810E+02  0.17770000000E+01 0. -1.
         15    1    1    2    0    0 -0.76071734471E+01 -0.17122601315E+02 -0.17357592103E+03  0.17459327207E+03  0.17770000000E+01 0.  1.
</event>
<event>
 6    1  0.2408691E-003  0.2654489E+03  0.7546771E-02  0.1016715E+00
        -11   -1    0    0    0    0  0.00000000000E+00  0.00000000000E+00  0.50000000000E+03  0.50000000000E+03  0.00000000000E+00 0.  1.
         11   -1    0    0    0    0 -0.00000000000E+00 -0.00000000000E+00 -0.50000000000E+03  0.50000000000E+03  0.00000000000E+00 0. -1.
        -11    1    1    2    0    0  0.96338782507E+02 -0.10225236545E+03  0.35029346186E+03  0.37741517812E+03  0.00000000000E+00 0.  1.
         11    1    1    2    0    0  0.12089078538E+02  0.55957244095E+01 -0.25673590235E+03  0.25708127413E+03  0.00000000000E+00 0. -1.
        -15    1    1    2    0    0 -0.99551662471E+02  0.99889273969E+02  0.99248407521E+02  0.17245812442E+03  0.17770000000E+01 0. -1.
         15    1    1    2    0    0 -0.88761985747E+01 -0.32326329316E+01 -0.19280596703E+03  0.19304542333E+03  0.17770000000E+01 0.  1.
</event>
<event>
 6    1  0.2408691E-003  0.5269148E+03  0.7546771E-02  0.9341521E-01
        -11   -1    0    0    0    0  0.00000000000E+00  0.00000000000E+00  0.50000000000E+03  0.50000000000E+03  0.00000000000E+00 0. -1.
         11   -1    0    0    0    0 -0.00000000000E+00 -0.00000000000E+00 -0.50000000000E+03  0.50000000000E+03  0.00000000000E+00 0.  1.
        -11    1    1    2    0    0  0.59961818258E+01  0.25008698005E+02  0.40942195642E+03  0.41022887218E+03  0.00000000000E+00 0. -1.
         11    1    1    2    0    0  0.45027841446E+01 -0.31618668747E+02 -0.47200595641E+03  0.47308523351E+03  0.00000000000E+00 0.  1.
        -15    1    1    2    0    0  0.18867256807E+01  0.26894508813E+02 -0.18122449695E+02  0.32533909234E+02  0.17770000000E+01 0.  1.
         15    1    1    2    0    0 -0.12385691651E+02 -0.20284538071E+02  0.80706449687E+02  0.84151985077E+02  0.17770000000E+01 0. -1.
</event>
<event>
 6    1  0.2408691E-003  0.5014963E+03  0.7546771E-02  0.9396468E-01
        -11   -1    0    0    0    0  0.00000000000E+00  0.00000000000E+00  0.50000000000E+03  0.50000000000E+03  0.00000000000E+00 0.  1.
         11   -1    0    0    0    0 -0.00000000000E+00 -0.00000000000E+00 -0.50000000000E+03  0.50000000000E+03  0.00000000000E+00 0. -1.
        -11    1    1    2    0    0  0.19261709797E+00  0.19605561720E+01  0.13501942385E+03  0.13503379466E+03  0.00000000000E+00 0.  1.
         11    1    1    2    0    0  0.62643382798E+01 -0.43548103495E+01 -0.49844534775E+03  0.49850373218E+03  0.00000000000E+00 0. -1.
        -15    1    1    2    0    0  0.43393271465E+01  0.52966834507E+01  0.73305290447E+01  0.10187197884E+02  0.17770000000E+01 0.  1.
         15    1    1    2    0    0 -0.10796282524E+02 -0.29024292732E+01  0.35609539485E+03  0.35627527528E+03  0.17770000000E+01 0.  1.
</event>
<event>
 6    1  0.2408691E-003  0.5205942E+03  0.7546771E-02  0.9354872E-01
        -11   -1    0    0    0    0  0.00000000000E+00  0.00000000000E+00  0.50000000000E+03  0.50000000000E+03  0.00000000000E+00 0. -1.
         11   -1    0    0    0    0 -0.00000000000E+00 -0.00000000000E+00 -0.50000000000E+03  0.50000000000E+03  0.00000000000E+00 0.  1.
        -11    1    1    2    0    0  0.18620752593E+00  0.11670054190E+02  0.47926373842E+03  0.47940583622E+03  0.00000000000E+00 0. -1.
         11    1    1    2    0    0  0.82165596676E+01 -0.10027845680E+02 -0.44489840422E+03  0.44508724945E+03  0.00000000000E+00 0.  1.
        -15    1    1    2    0    0  0.18920091150E+02 -0.14609009319E+01  0.11376164743E+02  0.22196372089E+02  0.17770000000E+01 0.  1.
         15    1    1    2    0    0 -0.27322858344E+02 -0.18130757765E+00 -0.45741498937E+02  0.53310542245E+02  0.17770000000E+01 0. -1.
</event>
<event>
 6    1  0.2408691E-003  0.5057926E+03  0.7546771E-02  0.9386941E-01
        -11   -1    0    0    0    0  0.00000000000E+00  0.00000000000E+00  0.50000000000E+03  0.50000000000E+03  0.00000000000E+00 0.  1.
         11   -1    0    0    0    0 -0.00000000000E+00 -0.00000000000E+00 -0.50000000000E+03  0.50000000000E+03  0.00000000000E+00 0. -1.
        -11    1    1    2    0    0  0.28290673981E+01  0.49431153448E+01  0.31110095917E+03  0.31115308903E+03  0.00000000000E+00 0.  1.
         11    1    1    2    0    0 -0.29634741057E+00  0.82645819138E+01 -0.49413815292E+03  0.49420735052E+03  0.00000000000E+00 0. -1.
        -15    1    1    2    0    0 -0.93624169820E+01  0.81101476463E+01  0.16595249395E+03  0.16642360808E+03  0.17770000000E+01 0.  1.
         15    1    1    2    0    0  0.68296969945E+01 -0.21317844905E+02  0.17084699793E+02  0.28215952375E+02  0.17770000000E+01 0. -1.
</event>
<event>
 6    1  0.2408691E-003  0.5044874E+03  0.7546771E-02  0.9389824E-01
        -11   -1    0    0    0    0  0.00000000000E+00  0.00000000000E+00  0.50000000000E+03  0.50000000000E+03  0.00000000000E+00 0. -1.
         11   -1    0    0    0    0 -0.00000000000E+00 -0.00000000000E+00 -0.50000000000E+03  0.50000000000E+03  0.00000000000E+00 0.  1.
        -11    1    1    2    0    0 -0.57187501566E+01  0.37859871901E+01  0.48129986577E+03  0.48134872867E+03  0.00000000000E+00 0. -1.
         11    1    1    2    0    0 -0.37132739433E+00 -0.81282491178E+01 -0.49544579328E+03  0.49551260367E+03  0.00000000000E+00 0.  1.
        -15    1    1    2    0    0  0.45167704334E+01  0.47547521947E+01  0.17635050783E+02  0.18898720293E+02  0.17770000000E+01 0.  1.
         15    1    1    2    0    0  0.15733071175E+01 -0.41249026703E+00 -0.34891232724E+01  0.42399473719E+01  0.17770000000E+01 0. -1.
</event>
<event>
 6    1  0.2408691E-003  0.5089148E+03  0.7546771E-02  0.9380080E-01
        -11   -1    0    0    0    0  0.00000000000E+00  0.00000000000E+00  0.50000000000E+03  0.50000000000E+03  0.00000000000E+00 0.  1.
         11   -1    0    0    0    0 -0.00000000000E+00 -0.00000000000E+00 -0.50000000000E+03  0.50000000000E+03  0.00000000000E+00 0.  1.
        -11    1    1    2    0    0 -0.14833930732E+02 -0.83229818719E+01  0.49079056410E+03  0.49108522208E+03  0.00000000000E+00 0.  1.
         11    1    1    2    0    0  0.44870133888E+01 -0.60497442367E+01 -0.43190330706E+03  0.43196897960E+03  0.00000000000E+00 0.  1.
        -15    1    1    2    0    0  0.14187716713E+01  0.88123029372E+01 -0.64329843653E+02  0.64970424883E+02  0.17770000000E+01 0. -1.
         15    1    1    2    0    0  0.89281456723E+01  0.55604231714E+01  0.54425866039E+01  0.11975373436E+02  0.17770000000E+01 0. -1.
</event>
<event>
 6    1  0.2408691E-003  0.5028132E+03  0.7546771E-02  0.9393537E-01
        -11   -1    0    0    0    0  0.00000000000E+00  0.00000000000E+00  0.50000000000E+03  0.50000000000E+03  0.00000000000E+00 0. -1.
         11   -1    0    0    0    0 -0.00000000000E+00 -0.00000000000E+00 -0.50000000000E+03  0.50000000000E+03  0.00000000000E+00 0. -1.
        -11    1    1    2    0    0 -0.18381937160E+02 -0.76761674251E+01  0.49678761676E+03  0.49718684147E+03  0.00000000000E+00 0. -1.
         11    1    1    2    0    0 -0.14270762320E+01 -0.61494029553E+01 -0.37647156036E+03  0.37652448454E+03  0.00000000000E+00 0. -1.
        -15    1    1    2    0    0  0.87180210743E+01  0.51373077287E+01 -0.10461582585E+03  0.10511909707E+03  0.17770000000E+01 0. -1.
         15    1    1    2    0    0  0.11090992318E+02  0.86882626517E+01 -0.15700230554E+02  0.21169576919E+02  0.17770000000E+01 0.  1.
</event>
<event>
 6    1  0.2408691E-003  0.5022633E+03  0.7546771E-02  0.9394759E-01
        -11   -1    0    0    0    0  0.00000000000E+00  0.00000000000E+00  0.50000000000E+03  0.50000000000E+03  0.00000000000E+00 0.  1.
         11   -1    0    0    0    0 -0.00000000000E+00 -0.00000000000E+00 -0.50000000000E+03  0.50000000000E+03  0.00000000000E+00 0.  1.
        -11    1    1    2    0    0 -0.74109640931E+01 -0.33603126538E+01  0.49767013256E+03  0.49773665219E+03  0.00000000000E+00 0.  1.
         11    1    1    2    0    0  0.68209749932E+01  0.56213204850E+01 -0.46278208633E+03  0.46286648655E+03  0.00000000000E+00 0.  1.
        -15    1    1    2    0    0 -0.77176079552E+01 -0.28833604564E+01 -0.24802526236E+02  0.26195386555E+02  0.17770000000E+01 0. -1.
         15    1    1    2    0    0  0.83075970550E+01  0.62235262513E+00 -0.10085519998E+02  0.13201474700E+02  0.17770000000E+01 0.  1.
</event>
<event>
 6    1  0.2408691E-003  0.5071411E+03  0.7546771E-02  0.9383971E-01
        -11   -1    0    0    0    0  0.00000000000E+00  0.00000000000E+00  0.50000000000E+03  0.50000000000E+03  0.00000000000E+00 0. -1.
         11   -1    0    0    0    0 -0.00000000000E+00 -0.00000000000E+00 -0.50000000000E+03  0.50000000000E+03  0.00000000000E+00 0. -1.
        -11    1    1    2    0    0  0.13796391845E+02 -0.17529936909E+02  0.49235381702E+03  0.49285892530E+03  0.00000000000E+00 0. -1.
         11    1    1    2    0    0 -0.76871398495E+01 -0.17131471017E+02 -0.36275269171E+03  0.36323834429E+03  0.00000000000E+00 0. -1.
        -15    1    1    2    0    0 -0.50998357210E+00  0.33727463869E+02 -0.33349034737E+02  0.47467017488E+02  0.17770000000E+01 0.  1.
         15    1    1    2    0    0 -0.55992684231E+01  0.93394405718E+00 -0.96252090568E+02  0.96435712918E+02  0.17770000000E+01 0. -1.
</event>
<event>
 6    1  0.2408691E-003  0.5053277E+03  0.7546771E-02  0.9387967E-01
        -11   -1    0    0    0    0  0.00000000000E+00  0.00000000000E+00  0.50000000000E+03  0.50000000000E+03  0.00000000000E+00 0. -1.
         11   -1    0    0    0    0 -0.00000000000E+00 -0.00000000000E+00 -0.50000000000E+03  0.50000000000E+03  0.00000000000E+00 0. -1.
        -11    1    1    2    0    0  0.17538589145E+02 -0.27185320250E+02  0.28394172441E+03  0.28577884213E+03  0.00000000000E+00 0. -1.
         11    1    1    2    0    0 -0.67325945464E+01 -0.48814879704E+01 -0.49460234721E+03  0.49467225374E+03  0.00000000000E+00 0. -1.
        -15    1    1    2    0    0 -0.24452913126E+01  0.11288616793E+02  0.50774805821E+01  0.12741697562E+02  0.17770000000E+01 0.  1.
         15    1    1    2    0    0 -0.83607032858E+01  0.20778191428E+02  0.20558314222E+03  0.20680720658E+03  0.17770000000E+01 0. -1.
</event>
<event>
 6    1  0.2408691E-003  0.5112573E+03  0.7546771E-02  0.9374967E-01
        -11   -1    0    0    0    0  0.00000000000E+00  0.00000000000E+00  0.50000000000E+03  0.50000000000E+03  0.00000000000E+00 0. -1.
         11   -1    0    0    0    0 -0.00000000000E+00 -0.00000000000E+00 -0.50000000000E+03  0.50000000000E+03  0.00000000000E+00 0. -1.
        -11    1    1    2    0    0 -0.39592455704E+01  0.19861457559E+02  0.48832293399E+03  0.48874271451E+03  0.00000000000E+00 0. -1.
         11    1    1    2    0    0  0.10052106491E+02  0.20937496791E+02 -0.40006811457E+03  0.40074171221E+03  0.00000000000E+00 0. -1.
        -15    1    1    2    0    0 -0.47273910535E+01 -0.19098496412E+02 -0.15575582395E+00  0.19755575928E+02  0.17770000000E+01 0.  1.
         15    1    1    2    0    0 -0.13654698675E+01 -0.21700457939E+02 -0.88099063602E+02  0.90759997351E+02  0.17770000000E+01 0. -1.
</event>
<event>
 6    1  0.2408691E-003  0.5128864E+03  0.7546771E-02  0.9371428E-01
        -11   -1    0    0    0    0  0.00000000000E+00  0.00000000000E+00  0.50000000000E+03  0.50000000000E+03  0.00000000000E+00 0. -1.
         11   -1    0    0    0    0 -0.00000000000E+00 -0.00000000000E+00 -0.50000000000E+03  0.50000000000E+03  0.00000000000E+00 0.  1.
        -11    1    1    2    0    0  0.11025547525E+02  0.17156370401E+01  0.48698581156E+03  0.48711362819E+03  0.00000000000E+00 0. -1.
         11    1    1    2    0    0  0.39352866047E+01 -0.68559162128E+01 -0.40730919165E+03  0.40738589527E+03  0.00000000000E+00 0.  1.
        -15    1    1    2    0    0 -0.55741125829E+01 -0.78793886684E+01  0.10217590819E+02  0.14167299955E+02  0.17770000000E+01 0. -1.
         15    1    1    2    0    0 -0.93867215467E+01  0.13019667841E+02 -0.89894210731E+02  0.91333176579E+02  0.17770000000E+01 0.  1.
</event>
<event>
 6    1  0.2408691E-003  0.4786474E+03  0.7546771E-02  0.9448898E-01
        -11   -1    0    0    0    0  0.00000000000E+00  0.00000000000E+00  0.50000000000E+03  0.50000000000E+03  0.00000000000E+00 0. -1.
         11   -1    0    0    0    0 -0.00000000000E+00 -0.00000000000E+00 -0.50000000000E+03  0.50000000000E+03  0.00000000000E+00 0. -1.
        -11    1    1    2    0    0 -0.21886055831E+01 -0.22862151505E+01  0.45083296140E+02  0.45194251459E+02  0.00000000000E+00 0. -1.
         11    1    1    2    0    0 -0.78856858828E+01  0.28913247675E+01 -0.49798724420E+03  0.49805806808E+03  0.00000000000E+00 0. -1.
        -15    1    1    2    0    0 -0.22386384462E+02 -0.15630989355E+00  0.27358399489E+03  0.27450416141E+03  0.17770000000E+01 0. -1.
         15    1    1    2    0    0  0.32460675928E+02 -0.44879972339E+00  0.17931995317E+03  0.18224351905E+03  0.17770000000E+01 0.  1.
</event>
<event>
 6    1  0.2408691E-003  0.5012961E+03  0.7546771E-02  0.9396914E-01
        -11   -1    0    0    0    0  0.00000000000E+00  0.00000000000E+00  0.50000000000E+03  0.50000000000E+03  0.00000000000E+00 0.  1.
         11   -1    0    0    0    0 -0.00000000000E+00 -0.00000000000E+00 -0.50000000000E+03  0.50000000000E+03  0.00000000000E+00 0. -1.
        -11    1    1    2    0    0 -0.85328859596E+01  0.59666914076E+01  0.49859520968E+03  0.49870391482E+03  0.00000000000E+00 0.  1.
         11    1    1    2    0    0 -0.30082744502E+01 -0.48516284182E+01 -0.41189700326E+03  0.41193655981E+03  0.00000000000E+00 0. -1.
        -15    1    1    2    0    0  0.10975865154E+01  0.40901106454E+01 -0.49063873434E+01  0.67204216396E+01  0.17770000000E+01 0.  1.
         15    1    1    2    0    0  0.10443573894E+02 -0.52051736348E+01 -0.81791819076E+02  0.82639103729E+02  0.17770000000E+01 0. -1.
</event>
<event>
 6    1  0.2408691E-003  0.5020885E+03  0.7546771E-02  0.9395149E-01
        -11   -1    0    0    0    0  0.00000000000E+00  0.00000000000E+00  0.50000000000E+03  0.50000000000E+03  0.00000000000E+00 0.  1.
         11   -1    0    0    0    0 -0.00000000000E+00 -0.00000000000E+00 -0.50000000000E+03  0.50000000000E+03  0.00000000000E+00 0.  1.
        -11    1    1    2    0    0 -0.56967534058E+01  0.49634877008E+01  0.49785412028E+03  0.49791145226E+03  0.00000000000E+00 0.  1.
         11    1    1    2    0    0 -0.49789538268E+01  0.99310254390E+01 -0.33505068210E+03  0.33523480551E+03  0.00000000000E+00 0.  1.
        -15    1    1    2    0    0  0.10017434193E+02 -0.16147733873E+02 -0.43192945783E+02  0.47221675018E+02  0.17770000000E+01 0. -1.
         15    1    1    2    0    0  0.65827303981E+00  0.12532207329E+01 -0.11961049240E+03  0.11963206722E+03  0.17770000000E+01 0.  1.
</event>
<event>
 6    1  0.2408691E-003  0.4215566E+03  0.7546771E-02  0.9594768E-01
        -11   -1    0    0    0    0  0.00000000000E+00  0.00000000000E+00  0.50000000000E+03  0.50000000000E+03  0.00000000000E+00 0. -1.
         11   -1    0    0    0    0 -0.00000000000E+00 -0.00000000000E+00 -0.50000000000E+03  0.50000000000E+03  0.00000000000E+00 0. -1.
        -11    1    1    2    0    0  0.68280728086E+02  0.45103812352E+02  0.40808378192E+03  0.41620786247E+03  0.00000000000E+00 0. -1.
         11    1    1    2    0    0 -0.17747149560E+02 -0.16038759779E+02 -0.42849762676E+03  0.42916479268E+03  0.00000000000E+00 0. -1.
        -15    1    1    2    0    0 -0.38249352579E+01  0.51695092027E+01  0.74838808267E+02  0.75135603458E+02  0.17770000000E+01 0. -1.
         15    1    1    2    0    0 -0.46708643268E+02 -0.34234561775E+02 -0.54424963426E+02  0.79491741388E+02  0.17770000000E+01 0.  1.
</event>
<event>
 6    1  0.2408691E-003  0.5069700E+03  0.7546771E-02  0.9384347E-01
        -11   -1    0    0    0    0  0.00000000000E+00  0.00000000000E+00  0.50000000000E+03  0.50000000000E+03  0.00000000000E+00 0. -1.
         11   -1    0    0    0    0 -0.00000000000E+00 -0.00000000000E+00 -0.50000000000E+03  0.50000000000E+03  0.00000000000E+00 0.  1.
        -11    1    1    2    0    0  0.35967683079E+01 -0.11099740302E+02  0.49289187764E+03  0.49302996260E+03  0.00000000000E+00 0. -1.
         11    1    1    2    0    0  0.36846149036E+01  0.64957170662E+01 -0.45612396216E+03  0.45618509356E+03  0.00000000000E+00 0.  1.
        -15    1    1    2    0    0 -0.14650713562E+02  0.61666478820E+01 -0.31683619584E+01  0.16305434691E+02  0.17770000000E+01 0. -1.
         15    1    1    2    0    0  0.73693303504E+01 -0.15626246466E+01 -0.33599553522E+02  0.34479509153E+02  0.17770000000E+01 0.  1.
</event>
<event>
 6    1  0.2408691E-003  0.5001599E+03  0.7546771E-02  0.9399452E-01
        -11   -1    0    0    0    0  0.00000000000E+00  0.00000000000E+00  0.50000000000E+03  0.50000000000E+03  0.00000000000E+00 0. -1.
         11   -1    0    0    0    0 -0.00000000000E+00 -0.00000000000E+00 -0.50000000000E+03  0.50000000000E+03  0.00000000000E+00 0.  1.
        -11    1    1    2    0    0  0.22978697450E+01 -0.64124262500E+01  0.49979371083E+03  0.49984012724E+03  0.00000000000E+00 0. -1.
         11    1    1    2    0    0  0.34365911582E+01 -0.28105249506E+01 -0.18709241524E+03  0.18714508022E+03  0.00000000000E+00 0.  1.
        -15    1    1    2    0    0 -0.27897100024E+01  0.44187525122E+01 -0.24325351149E+03  0.24331612449E+03  0.17770000000E+01 0.  1.
         15    1    1    2    0    0 -0.29447509008E+01  0.48041986885E+01 -0.69447784100E+02  0.69698668052E+02  0.17770000000E+01 0. -1.
</event>
<event>
 6    1  0.2408691E-003  0.5093213E+03  0.7546771E-02  0.9379191E-01
        -11   -1    0    0    0    0  0.00000000000E+00  0.00000000000E+00  0.50000000000E+03  0.50000000000E+03  0.00000000000E+00 0.  1.
         11   -1    0    0    0    0 -0.00000000000E+00 -0.00000000000E+00 -0.50000000000E+03  0.50000000000E+03  0.00000000000E+00 0. -1.
        -11    1    1    2    0    0  0.12361531612E+02 -0.30711123571E+01  0.43621025056E+03  0.43639617539E+03  0.00000000000E+00 0.  1.
         11    1    1    2    0    0 -0.11674486353E+02 -0.89045005618E+01 -0.49045892690E+03  0.49067865527E+03  0.00000000000E+00 0. -1.
        -15    1    1    2    0    0 -0.12638201434E+02  0.99777714156E+01  0.57917792963E+02  0.60140739342E+02  0.17770000000E+01 0.  1.
         15    1    1    2    0    0  0.11951156175E+02  0.19978415033E+01 -0.36691166212E+01  0.12784429998E+02  0.17770000000E+01 0. -1.
</event>
<event>
 6    1  0.2408691E-003  0.5063136E+03  0.7546771E-02  0.9385792E-01
        -11   -1    0    0    0    0  0.00000000000E+00  0.00000000000E+00  0.50000000000E+03  0.50000000000E+03  0.00000000000E+00 0.  1.
         11   -1    0    0    0    0 -0.00000000000E+00 -0.00000000000E+00 -0.50000000000E+03  0.50000000000E+03  0.00000000000E+00 0.  1.
        -11    1    1    2    0    0  0.68334223335E+01 -0.12669383333E+02  0.49347649821E+03  0.49368640170E+03  0.00000000000E+00 0.  1.
         11    1    1    2    0    0  0.41847995749E+01  0.28233232825E+02 -0.44253641065E+03  0.44345586335E+03  0.00000000000E+00 0.  1.
        -15    1    1    2    0    0 -0.16663712288E+02  0.27611500566E+01 -0.18351916630E+02  0.25005076082E+02  0.17770000000E+01 0.  1.
         15    1    1    2    0    0  0.56454903800E+01 -0.18324999549E+02 -0.32588170931E+02  0.37852658873E+02  0.17770000000E+01 0. -1.
</event>
<event>
 6    1  0.2408691E-003  0.4736553E+03  0.7546771E-02  0.9460768E-01
        -11   -1    0    0    0    0  0.00000000000E+00  0.00000000000E+00  0.50000000000E+03  0.50000000000E+03  0.00000000000E+00 0.  1.
         11   -1    0    0    0    0 -0.00000000000E+00 -0.00000000000E+00 -0.50000000000E+03  0.50000000000E+03  0.00000000000E+00 0.  1.
        -11    1    1    2    0    0  0.12678074373E+02 -0.12908903610E+02  0.47469562433E+03  0.47504032368E+03  0.00000000000E+00 0.  1.
         11    1    1    2    0    0  0.19028158256E+01 -0.11374618102E+02 -0.47255533343E+03  0.47269603954E+03  0.00000000000E+00 0.  1.
        -15    1    1    2    0    0 -0.83220379155E+01  0.17854634978E+02  0.20110031080E+02  0.28206654965E+02  0.17770000000E+01 0.  1.
         15    1    1    2    0    0 -0.62588522829E+01  0.64288867337E+01 -0.22250321985E+02  0.24056981814E+02  0.17770000000E+01 0. -1.
</event>
<event>
 6    1  0.2408691E-003  0.5014631E+03  0.7546771E-02  0.9396542E-01
        -11   -1    0    0    0    0  0.00000000000E+00  0.00000000000E+00  0.50000000000E+03  0.50000000000E+03  0.00000000000E+00 0.  1.
         11   -1    0    0    0    0 -0.00000000000E+00 -0.00000000000E+00 -0.50000000000E+03  0.50000000000E+03  0.00000000000E+00 0.  1.
        -11    1    1    2    0    0  0.12263559457E+01  0.25889628314E+01  0.10205351501E+03  0.10209371481E+03  0.00000000000E+00 0.  1.
         11    1    1    2    0    0 -0.76284853097E+01  0.77241052997E+01 -0.49841873192E+03  0.49853694740E+03  0.00000000000E+00 0.  1.
        -15    1    1    2    0    0 -0.11107114677E+02 -0.15365919583E+02  0.71623370607E+02  0.74111702363E+02  0.17770000000E+01 0. -1.
         15    1    1    2    0    0  0.17509244041E+02  0.50528514514E+01  0.32474184630E+03  0.32525763543E+03  0.17770000000E+01 0.  1.
</event>
<event>
 6    1  0.2408691E-003  0.5056815E+03  0.7546771E-02  0.9387186E-01
        -11   -1    0    0    0    0  0.00000000000E+00  0.00000000000E+00  0.50000000000E+03  0.50000000000E+03  0.00000000000E+00 0. -1.
         11   -1    0    0    0    0 -0.00000000000E+00 -0.00000000000E+00 -0.50000000000E+03  0.50000000000E+03  0.00000000000E+00 0.  1.
        -11    1    1    2    0    0  0.72519932071E+01  0.14322661303E+01  0.32529855145E+03  0.32538252929E+03  0.00000000000E+00 0. -1.
         11    1    1    2    0    0  0.21353236244E+01 -0.70869433118E+01 -0.49426305423E+03  0.49431847138E+03  0.00000000000E+00 0.  1.
        -15    1    1    2    0    0 -0.10420466526E+02 -0.53779737871E+01  0.16865574428E+03  0.16907225241E+03  0.17770000000E+01 0.  1.
         15    1    1    2    0    0  0.10331496941E+01  0.11032650969E+02  0.30875849669E+00  0.11226746924E+02  0.17770000000E+01 0. -1.
</event>
<event>
 6    1  0.2408691E-003  0.5059092E+03  0.7546771E-02  0.9386684E-01
        -11   -1    0    0    0    0  0.00000000000E+00  0.00000000000E+00  0.50000000000E+03  0.50000000000E+03  0.00000000000E+00 0.  1.
         11   -1    0    0    0    0 -0.00000000000E+00 -0.00000000000E+00 -0.50000000000E+03  0.50000000000E+03  0.00000000000E+00 0. -1.
        -11    1    1    2    0    0  0.11997079495E+02 -0.12666032832E+02  0.49378268530E+03  0.49409077972E+03  0.00000000000E+00 0.  1.
         11    1    1    2    0    0  0.31309192717E+01 -0.32832294566E+01 -0.27670589573E+03  0.27674308480E+03  0.00000000000E+00 0. -1.
        -15    1    1    2    0    0  0.49900031821E+01 -0.26148090214E+02 -0.73896143344E+02  0.78564753444E+02  0.17770000000E+01 0.  1.
         15    1    1    2    0    0 -0.20118001949E+02  0.42097352503E+02 -0.14318064622E+03  0.15060138204E+03  0.17770000000E+01 0. -1.
</event>
<event>
 6    1  0.2408691E-003  0.5045083E+03  0.7546771E-02  0.9389778E-01
        -11   -1    0    0    0    0  0.00000000000E+00  0.00000000000E+00  0.50000000000E+03  0.50000000000E+03  0.00000000000E+00 0.  1.
         11   -1    0    0    0    0 -0.00000000000E+00 -0.00000000000E+00 -0.50000000000E+03  0.50000000000E+03  0.00000000000E+00 0.  1.
        -11    1    1    2    0    0  0.74630977765E+01  0.61542486362E+01  0.49539722704E+03  0.49549166004E+03  0.00000000000E+00 0.  1.
         11    1    1    2    0    0 -0.29104196240E+01 -0.73971118756E+01 -0.46725596371E+03  0.46732357466E+03  0.00000000000E+00 0.  1.
        -15    1    1    2    0    0 -0.23729013978E+01  0.74275985632E+01 -0.29229700240E+02  0.30304009415E+02  0.17770000000E+01 0.  1.
         15    1    1    2    0    0 -0.21797767547E+01 -0.61847353237E+01  0.10884369092E+01  0.68807558909E+01  0.17770000000E+01 0. -1.
</event>
<event>
 6    1  0.2408691E-003  0.5021809E+03  0.7546771E-02  0.9394943E-01
        -11   -1    0    0    0    0  0.00000000000E+00  0.00000000000E+00  0.50000000000E+03  0.50000000000E+03  0.00000000000E+00 0.  1.
         11   -1    0    0    0    0 -0.00000000000E+00 -0.00000000000E+00 -0.50000000000E+03  0.50000000000E+03  0.00000000000E+00 0.  1.
        -11    1    1    2    0    0  0.59466917530E+01 -0.22540498387E+02  0.49727300001E+03  0.49781911750E+03  0.00000000000E+00 0.  1.
         11    1    1    2    0    0  0.40188736214E+01  0.98030645123E+01 -0.15033720166E+03  0.15071007140E+03  0.00000000000E+00 0.  1.
        -15    1    1    2    0    0 -0.71413702141E+01  0.23129887724E+02 -0.65978486732E+02  0.70301559834E+02  0.17770000000E+01 0. -1.
         15    1    1    2    0    0 -0.28241951604E+01 -0.10392453849E+02 -0.28095731162E+03  0.28116925127E+03  0.17770000000E+01 0.  1.
</event>
<event>
 6    1  0.2408691E-003  0.5022571E+03  0.7546771E-02  0.9394773E-01
        -11   -1    0    0    0    0  0.00000000000E+00  0.00000000000E+00  0.50000000000E+03  0.50000000000E+03  0.00000000000E+00 0. -1.
         11   -1    0    0    0    0 -0.00000000000E+00 -0.00000000000E+00 -0.50000000000E+03  0.50000000000E+03  0.00000000000E+00 0. -1.
        -11    1    1    2    0    0 -0.27764858471E+01  0.55496158264E+01  0.37778431253E+03  0.37783527350E+03  0.00000000000E+00 0. -1.
         11    1    1    2    0    0  0.10958408467E+02  0.21279455113E+02 -0.49716711168E+03  0.49774294456E+03  0.00000000000E+00 0. -1.
        -15    1    1    2    0    0 -0.89363432801E+01 -0.26264770154E+02  0.74888508291E+02  0.79882055466E+02  0.17770000000E+01 0.  1.
         15    1    1    2    0    0  0.75442065986E+00 -0.56430078542E+00  0.44494290861E+02  0.44539726471E+02  0.17770000000E+01 0. -1.
</event>
<event>
 6    1  0.2408691E-003  0.5013596E+03  0.7546771E-02  0.9396773E-01
        -11   -1    0    0    0    0  0.00000000000E+00  0.00000000000E+00  0.50000000000E+03  0.50000000000E+03  0.00000000000E+00 0.  1.
         11   -1    0    0    0    0 -0.00000000000E+00 -0.00000000000E+00 -0.50000000000E+03  0.50000000000E+03  0.00000000000E+00 0.  1.
        -11    1    1    2    0    0 -0.55110972434E+01  0.43211618493E+01  0.49859121135E+03  0.49864039213E+03  0.00000000000E+00 0.  1.
         11    1    1    2    0    0 -0.17733389844E+02  0.66480909776E+01 -0.26175567002E+03  0.26243989981E+03  0.00000000000E+00 0.  1.
        -15    1    1    2    0    0  0.76520761584E+01 -0.11674073333E+01 -0.23968579021E+02  0.25250101360E+02  0.17770000000E+01 0. -1.
         15    1    1    2    0    0  0.15592410929E+02 -0.98018454936E+01 -0.21286696231E+03  0.21366960669E+03  0.17770000000E+01 0.  1.
</event>
<event>
 6    1  0.2408691E-003  0.4734918E+03  0.7546771E-02  0.9461159E-01
        -11   -1    0    0    0    0  0.00000000000E+00  0.00000000000E+00  0.50000000000E+03  0.50000000000E+03  0.00000000000E+00 0.  1.
         11   -1    0    0    0    0 -0.00000000000E+00 -0.00000000000E+00 -0.50000000000E+03  0.50000000000E+03  0.00000000000E+00 0. -1.
        -11    1    1    2    0    0  0.34244885507E+02 -0.22017443286E+02  0.47114289078E+03  0.47289861866E+03  0.00000000000E+00 0.  1.
         11    1    1    2    0    0 -0.92770459542E+01 -0.73066450716E+01 -0.47472766874E+03  0.47487452039E+03  0.00000000000E+00 0. -1.
        -15    1    1    2    0    0 -0.27830878110E+02  0.31090135322E+02  0.11607359740E+02  0.43347927515E+02  0.17770000000E+01 0. -1.
         15    1    1    2    0    0  0.28630385567E+01 -0.17660469642E+01 -0.80225817793E+01  0.88789334417E+01  0.17770000000E+01 0. -1.
</event>
<event>
 6    1  0.2408691E-003  0.5017240E+03  0.7546771E-02  0.9395960E-01
        -11   -1    0    0    0    0  0.00000000000E+00  0.00000000000E+00  0.50000000000E+03  0.50000000000E+03  0.00000000000E+00 0.  1.
         11   -1    0    0    0    0 -0.00000000000E+00 -0.00000000000E+00 -0.50000000000E+03  0.50000000000E+03  0.00000000000E+00 0. -1.
        -11    1    1    2    0    0  0.63342257215E+01  0.45134058685E+01  0.17917509732E+03  0.17934382829E+03  0.00000000000E+00 0.  1.
         11    1    1    2    0    0 -0.42637578102E+00 -0.68012102069E+01 -0.49822939067E+03  0.49827599178E+03  0.00000000000E+00 0. -1.
        -15    1    1    2    0    0  0.98998237732E+01 -0.17776262952E+02  0.15496547576E+03  0.15630565710E+03  0.17770000000E+01 0.  1.
         15    1    1    2    0    0 -0.15807673714E+02  0.20064067290E+02  0.16408881759E+03  0.16607452283E+03  0.17770000000E+01 0. -1.
</event>
<event>
 6    1  0.2408691E-003  0.5086307E+03  0.7546771E-02  0.9380702E-01
        -11   -1    0    0    0    0  0.00000000000E+00  0.00000000000E+00  0.50000000000E+03  0.50000000000E+03  0.00000000000E+00 0. -1.
         11   -1    0    0    0    0 -0.00000000000E+00 -0.00000000000E+00 -0.50000000000E+03  0.50000000000E+03  0.00000000000E+00 0. -1.
        -11    1    1    2    0    0  0.18188725954E+01 -0.10045962527E+02  0.38543431360E+03  0.38556950056E+03  0.00000000000E+00 0. -1.
         11    1    1    2    0    0 -0.13700946535E+02  0.37515842433E+02 -0.48974347444E+03  0.49136933677E+03  0.00000000000E+00 0. -1.
        -15    1    1    2    0    0  0.96527872267E+01 -0.40025588594E+02  0.10195942871E+03  0.10997320981E+03  0.17770000000E+01 0. -1.
         15    1    1    2    0    0  0.22292867128E+01  0.12555708688E+02  0.23497321208E+01  0.13087952855E+02  0.17770000000E+01 0.  1.
</event>
<event>
 6    1  0.2408691E-003  0.5094602E+03  0.7546771E-02  0.9378887E-01
        -11   -1    0    0    0    0  0.00000000000E+00  0.00000000000E+00  0.50000000000E+03  0.50000000000E+03  0.00000000000E+00 0.  1.
         11   -1    0    0    0    0 -0.00000000000E+00 -0.00000000000E+00 -0.50000000000E+03  0.50000000000E+03  0.00000000000E+00 0. -1.
        -11    1    1    2    0    0  0.20770311842E+01 -0.79886285896E+01  0.43704442812E+03  0.43712236776E+03  0.00000000000E+00 0.  1.
         11    1    1    2    0    0 -0.81658382982E+01 -0.86861811862E+01 -0.49039494439E+03  0.49053983747E+03  0.00000000000E+00 0. -1.
        -15    1    1    2    0    0  0.14562461914E+02 -0.11901123574E+02  0.22976561388E+02  0.29745287720E+02  0.17770000000E+01 0.  1.
         15    1    1    2    0    0 -0.84736548002E+01  0.28575933350E+02  0.30373954881E+02  0.42592507048E+02  0.17770000000E+01 0. -1.
</event>
<event>
 6    1  0.2408691E-003  0.5029281E+03  0.7546771E-02  0.9393282E-01
        -11   -1    0    0    0    0  0.00000000000E+00  0.00000000000E+00  0.50000000000E+03  0.50000000000E+03  0.00000000000E+00 0. -1.
         11   -1    0    0    0    0 -0.00000000000E+00 -0.00000000000E+00 -0.50000000000E+03  0.50000000000E+03  0.00000000000E+00 0. -1.
        -11    1    1    2    0    0 -0.80630640232E+01  0.41695954104E+01  0.46273343576E+03  0.46282246174E+03  0.00000000000E+00 0. -1.
         11    1    1    2    0    0  0.62084935019E+01 -0.25994091263E+01 -0.49702631963E+03  0.49707189090E+03  0.00000000000E+00 0. -1.
        -15    1    1    2    0    0 -0.28986482849E+01  0.32898820290E+01 -0.36265632809E+00  0.47449693631E+01  0.17770000000E+01 0.  1.
         15    1    1    2    0    0  0.47532188061E+01 -0.48600683132E+01  0.34655540198E+02  0.35360677998E+02  0.17770000000E+01 0. -1.
</event>
<event>
 6    1  0.2408691E-003  0.5006708E+03  0.7546771E-02  0.9398310E-01
        -11   -1    0    0    0    0  0.00000000000E+00  0.00000000000E+00  0.50000000000E+03  0.50000000000E+03  0.00000000000E+00 0. -1.
         11   -1    0    0    0    0 -0.00000000000E+00 -0.00000000000E+00 -0.50000000000E+03  0.50000000000E+03  0.00000000000E+00 0. -1.
        -11    1    1    2    0    0  0.29174962261E+01 -0.96535674690E+01  0.49922739365E+03  0.49932924381E+03  0.00000000000E+00 0. -1.
         11    1    1    2    0    0 -0.61414526430E+01 -0.37184488409E+01 -0.23558890692E+03  0.23569827612E+03  0.00000000000E+00 0. -1.
        -15    1    1    2    0    0  0.40311899823E+01  0.28083305990E+01 -0.11798360001E+02  0.12903342246E+02  0.17770000000E+01 0.  1.
         15    1    1    2    0    0 -0.80723356531E+00  0.10563685711E+02 -0.25184012673E+03  0.25206913782E+03  0.17770000000E+01 0. -1.
</event>
<event>
 6    1  0.2408691E-003  0.5018211E+03  0.7546771E-02  0.9395744E-01
        -11   -1    0    0    0    0  0.00000000000E+00  0.00000000000E+00  0.50000000000E+03  0.50000000000E+03  0.00000000000E+00 0. -1.
         11   -1    0    0    0    0 -0.00000000000E+00 -0.00000000000E+00 -0.50000000000E+03  0.50000000000E+03  0.00000000000E+00 0. -1.
        -11    1    1    2    0    0  0.96606612254E+01 -0.45322289777E+01  0.49806460778E+03  0.49817890662E+03  0.00000000000E+00 0. -1.
         11    1    1    2    0    0  0.78893645772E+01  0.58500940668E+01 -0.43414238895E+03  0.43425347386E+03  0.00000000000E+00 0. -1.
        -15    1    1    2    0    0 -0.15661541892E+02  0.37246654346E+01 -0.48787984421E+02  0.51406051978E+02  0.17770000000E+01 0.  1.
         15    1    1    2    0    0 -0.18884839110E+01 -0.50425305237E+01 -0.15134234408E+02  0.16161567550E+02  0.17770000000E+01 0. -1.
</event>
<event>
 6    1  0.2408691E-003  0.5113708E+03  0.7546771E-02  0.9374720E-01
        -11   -1    0    0    0    0  0.00000000000E+00  0.00000000000E+00  0.50000000000E+03  0.50000000000E+03  0.00000000000E+00 0. -1.
         11   -1    0    0    0    0 -0.00000000000E+00 -0.00000000000E+00 -0.50000000000E+03  0.50000000000E+03  0.00000000000E+00 0. -1.
        -11    1    1    2    0    0  0.49308853969E+01  0.90454835725E+01  0.35075154512E+03  0.35090280820E+03  0.00000000000E+00 0. -1.
         11    1    1    2    0    0  0.89981593023E+01  0.70125935212E+00 -0.48854587043E+03  0.48862923178E+03  0.00000000000E+00 0. -1.
        -15    1    1    2    0    0 -0.19446451090E+02 -0.57288542942E+01 -0.20431069183E+01  0.20452780897E+02  0.17770000000E+01 0. -1.
         15    1    1    2    0    0  0.55174063908E+01 -0.40178886304E+01  0.13983743223E+03  0.14001517912E+03  0.17770000000E+01 0.  1.
</event>
<event>
 6    1  0.2408691E-003  0.5007538E+03  0.7546771E-02  0.9398125E-01
        -11   -1    0    0    0    0  0.00000000000E+00  0.00000000000E+00  0.50000000000E+03  0.50000000000E+03  0.00000000000E+00 0.  1.
         11   -1    0    0    0    0 -0.00000000000E+00 -0.00000000000E+00 -0.50000000000E+03  0.50000000000E+03  0.00000000000E+00 0.  1.
        -11    1    1    2    0    0 -0.79995492093E+01 -0.67900636423E+01  0.49913596386E+03  0.49924624001E+03  0.00000000000E+00 0.  1.
         11    1    1    2    0    0  0.52698945517E+01  0.24729829410E+01 -0.14509052209E+03  0.14520725545E+03  0.00000000000E+00 0.  1.
        -15    1    1    2    0    0 -0.77138122493E+01  0.93688500720E+01 -0.29957667713E+03  0.29982765293E+03  0.17770000000E+01 0.  1.
         15    1    1    2    0    0  0.10443466907E+02 -0.50517693706E+01 -0.54468764634E+02  0.55718851609E+02  0.17770000000E+01 0. -1.
</event>
<event>
 6    1  0.2408691E-003  0.5118517E+03  0.7546771E-02  0.9373674E-01
        -11   -1    0    0    0    0  0.00000000000E+00  0.00000000000E+00  0.50000000000E+03  0.50000000000E+03  0.00000000000E+00 0.  1.
         11   -1    0    0    0    0 -0.00000000000E+00 -0.00000000000E+00 -0.50000000000E+03  0.50000000000E+03  0.00000000000E+00 0.  1.
        -11    1    1    2    0    0  0.29807790781E+01  0.59541851156E+01  0.48810290205E+03  0.48814831798E+03  0.00000000000E+00 0.  1.
         11    1    1    2    0    0  0.75521659777E+01 -0.27730418778E+01 -0.14517780096E+03  0.14540054630E+03  0.00000000000E+00 0.  1.
        -15    1    1    2    0    0  0.12336606825E+01 -0.25450494634E+02 -0.34008457497E+03  0.34104241006E+03  0.17770000000E+01 0.  1.
         15    1    1    2    0    0 -0.11766605738E+02  0.22269351396E+02 -0.28405261174E+01  0.25408725663E+02  0.17770000000E+01 0. -1.
</event>
<event>
 6    1  0.2408691E-003  0.3321347E+03  0.7546771E-02  0.9881355E-01
        -11   -1    0    0    0    0  0.00000000000E+00  0.00000000000E+00  0.50000000000E+03  0.50000000000E+03  0.00000000000E+00 0. -1.
         11   -1    0    0    0    0 -0.00000000000E+00 -0.00000000000E+00 -0.50000000000E+03  0.50000000000E+03  0.00000000000E+00 0. -1.
        -11    1    1    2    0    0  0.35987417036E+02 -0.15885694553E+02  0.39090377316E+03  0.39287811004E+03  0.00000000000E+00 0. -1.
         11    1    1    2    0    0  0.79484331190E+00  0.25847130752E+02 -0.20199015977E+03  0.20363872566E+03  0.00000000000E+00 0. -1.
        -15    1    1    2    0    0  0.31645591135E+02 -0.34631533917E+02 -0.28169163940E+03  0.28557682682E+03  0.17770000000E+01 0. -1.
         15    1    1    2    0    0 -0.68427851483E+02  0.24670097718E+02  0.92778026004E+02  0.11790633748E+03  0.17770000000E+01 0.  1.
</event>
<event>
 6    1  0.2408691E-003  0.5058094E+03  0.7546771E-02  0.9386904E-01
        -11   -1    0    0    0    0  0.00000000000E+00  0.00000000000E+00  0.50000000000E+03  0.50000000000E+03  0.00000000000E+00 0.  1.
         11   -1    0    0    0    0 -0.00000000000E+00 -0.00000000000E+00 -0.50000000000E+03  0.50000000000E+03  0.00000000000E+00 0. -1.
        -11    1    1    2    0    0  0.48617961827E+01  0.45889140240E+01  0.49414534663E+03  0.49419056931E+03  0.00000000000E+00 0.  1.
         11    1    1    2    0    0  0.83897390921E+01 -0.85956051215E+01 -0.48134444274E+03  0.48149428315E+03  0.00000000000E+00 0. -1.
        -15    1    1    2    0    0 -0.39681866928E+01  0.38853776750E+01 -0.13631288659E+02  0.14826072467E+02  0.17770000000E+01 0.  1.
         15    1    1    2    0    0 -0.92833485820E+01  0.12131342253E+00  0.83038476798E+00  0.94890750711E+01  0.17770000000E+01 0. -1.
</event>
<event>
 6    1  0.2408691E-003  0.5039298E+03  0.7546771E-02  0.9391059E-01
        -11   -1    0    0    0    0  0.00000000000E+00  0.00000000000E+00  0.50000000000E+03  0.50000000000E+03  0.00000000000E+00 0.  1.
         11   -1    0    0    0    0 -0.00000000000E+00 -0.00000000000E+00 -0.50000000000E+03  0.50000000000E+03  0.00000000000E+00 0. -1.
        -11    1    1    2    0    0 -0.95123568031E+01  0.38297145874E+02  0.49449818440E+03  0.49607016710E+03  0.00000000000E+00 0.  1.
         11    1    1    2    0    0 -0.90998155799E+01 -0.31146308985E+01 -0.22026163470E+03  0.22047152943E+03  0.00000000000E+00 0. -1.
        -15    1    1    2    0    0  0.79073032569E+01 -0.10757722390E+02 -0.23826057660E+03  0.23864097328E+03  0.17770000000E+01 0. -1.
         15    1    1    2    0    0  0.10704869126E+02 -0.24424792585E+02 -0.35975973106E+02  0.44817330194E+02  0.17770000000E+01 0.  1.
</event>
<event>
 6    1  0.2408691E-003  0.5017418E+03  0.7546771E-02  0.9395921E-01
        -11   -1    0    0    0    0  0.00000000000E+00  0.00000000000E+00  0.50000000000E+03  0.50000000000E+03  0.00000000000E+00 0. -1.
         11   -1    0    0    0    0 -0.00000000000E+00 -0.00000000000E+00 -0.50000000000E+03  0.50000000000E+03  0.00000000000E+00 0.  1.
        -11    1    1    2    0    0  0.34887651308E+01 -0.16132834841E+02  0.49798476468E+03  0.49825823194E+03  0.00000000000E+00 0. -1.
         11    1    1    2    0    0 -0.46467984580E+01  0.30107995172E+01 -0.41034050499E+03  0.41037785965E+03  0.00000000000E+00 0.  1.
        -15    1    1    2    0    0  0.85694771275E+01  0.19339750709E+01 -0.59058144265E+02  0.59734398221E+02  0.17770000000E+01 0. -1.
         15    1    1    2    0    0 -0.74114438003E+01  0.11188060252E+02 -0.28586115420E+02  0.31629510196E+02  0.17770000000E+01 0.  1.
</event>
<event>
 6    1  0.2408691E-003  0.5022144E+03  0.7546771E-02  0.9394868E-01
        -11   -1    0    0    0    0  0.00000000000E+00  0.00000000000E+00  0.50000000000E+03  0.50000000000E+03  0.00000000000E+00 0. -1.
         11   -1    0    0    0    0 -0.00000000000E+00 -0.00000000000E+00 -0.50000000000E+03  0.50000000000E+03  0.00000000000E+00 0.  1.
        -11    1    1    2    0    0  0.10704560370E+02  0.11128291227E+02  0.49754601845E+03  0.49778556322E+03  0.00000000000E+00 0. -1.
         11    1    1    2    0    0 -0.77253047558E+01 -0.69346343266E+01 -0.30933759475E+03  0.30951173970E+03  0.00000000000E+00 0.  1.
        -15    1    1    2    0    0 -0.10824055536E+02 -0.87222821253E+01 -0.21042244410E+02  0.25281854412E+02  0.17770000000E+01 0. -1.
         15    1    1    2    0    0  0.78447999210E+01  0.45286252248E+01 -0.16716617929E+03  0.16742084267E+03  0.17770000000E+01 0.  1.
</event>
<event>
 6    1  0.2408691E-003  0.5004176E+03  0.7546771E-02  0.9398876E-01
        -11   -1    0    0    0    0  0.00000000000E+00  0.00000000000E+00  0.50000000000E+03  0.50000000000E+03  0.00000000000E+00 0.  1.
         11   -1    0    0    0    0 -0.00000000000E+00 -0.00000000000E+00 -0.50000000000E+03  0.50000000000E+03  0.00000000000E+00 0. -1.
        -11    1    1    2    0    0  0.50397829308E+01 -0.23289069103E+01  0.34822404350E+03  0.34826829843E+03  0.00000000000E+00 0.  1.
         11    1    1    2    0    0  0.59147291659E+01  0.38286837956E+01 -0.49953267551E+03  0.49958236233E+03  0.00000000000E+00 0. -1.
        -15    1    1    2    0    0 -0.60752779068E+01  0.39270587659E+01  0.48726505801E+02  0.49292604808E+02  0.17770000000E+01 0. -1.
         15    1    1    2    0    0 -0.48792341899E+01 -0.54268356511E+01  0.10258212621E+03  0.10285673444E+03  0.17770000000E+01 0.  1.
</event>
<event>
 6    1  0.2408691E-003  0.5026657E+03  0.7546771E-02  0.9393865E-01
        -11   -1    0    0    0    0  0.00000000000E+00  0.00000000000E+00  0.50000000000E+03  0.50000000000E+03  0.00000000000E+00 0. -1.
         11   -1    0    0    0    0 -0.00000000000E+00 -0.00000000000E+00 -0.50000000000E+03  0.50000000000E+03  0.00000000000E+00 0.  1.
        -11    1    1    2    0    0  0.58778468449E+01  0.34002881461E+01  0.49728789744E+03  0.49733425780E+03  0.00000000000E+00 0. -1.
         11    1    1    2    0    0 -0.11270885920E+02 -0.81744914815E+01 -0.31470362046E+03  0.31501146631E+03  0.00000000000E+00 0.  1.
        -15    1    1    2    0    0 -0.17425796394E+01 -0.57004346772E+01 -0.18808687645E+01  0.64982255746E+01  0.17770000000E+01 0. -1.
         15    1    1    2    0    0  0.71356187143E+01  0.10474638013E+02 -0.18070340821E+03  0.18115605031E+03  0.17770000000E+01 0.  1.
</event>
<event>
 6    1  0.2408691E-003  0.5137643E+03  0.7546771E-02  0.9369527E-01
        -11   -1    0    0    0    0  0.00000000000E+00  0.00000000000E+00  0.50000000000E+03  0.50000000000E+03  0.00000000000E+00 0.  1.
         11   -1    0    0    0    0 -0.00000000000E+00 -0.00000000000E+00 -0.50000000000E+03  0.50000000000E+03  0.00000000000E+00 0. -1.
        -11    1    1    2    0    0 -0.49310066882E+01  0.92044599036E+01  0.48612354385E+03  0.48623568030E+03  0.00000000000E+00 0.  1.
         11    1    1    2    0    0 -0.55601548858E+01 -0.13915147096E+02 -0.47769853323E+03  0.47793350509E+03  0.00000000000E+00 0. -1.
        -15    1    1    2    0    0  0.63321560723E+01  0.10653023756E+02 -0.19079215429E+02  0.22820107494E+02  0.17770000000E+01 0.  1.
         15    1    1    2    0    0  0.41590055017E+01 -0.59423365630E+01  0.10654204802E+02  0.13010707112E+02  0.17770000000E+01 0. -1.
</event>
<event>
 6    1  0.2408691E-003  0.5043577E+03  0.7546771E-02  0.9390111E-01
        -11   -1    0    0    0    0  0.00000000000E+00  0.00000000000E+00  0.50000000000E+03  0.50000000000E+03  0.00000000000E+00 0. -1.
         11   -1    0    0    0    0 -0.00000000000E+00 -0.00000000000E+00 -0.50000000000E+03  0.50000000000E+03  0.00000000000E+00 0.  1.
        -11    1    1    2    0    0 -0.83891485165E+01  0.99027853631E+01  0.49547234612E+03  0.49564229919E+03  0.00000000000E+00 0. -1.
         11    1    1    2    0    0 -0.65205155829E+01  0.87303637407E+01 -0.36388457732E+03  0.36404769191E+03  0.00000000000E+00 0.  1.
        -15    1    1    2    0    0  0.66362487730E+01 -0.29859910255E+02 -0.11253633822E+03  0.11663292497E+03  0.17770000000E+01 0. -1.
         15    1    1    2    0    0  0.82734153264E+01  0.11226761151E+02 -0.19051430586E+02  0.23677083931E+02  0.17770000000E+01 0.  1.
</event>
<event>
 6    1  0.2408691E-003  0.5001710E+03  0.7546771E-02  0.9399427E-01
        -11   -1    0    0    0    0  0.00000000000E+00  0.00000000000E+00  0.50000000000E+03  0.50000000000E+03  0.00000000000E+00 0.  1.
         11   -1    0    0    0    0 -0.00000000000E+00 -0.00000000000E+00 -0.50000000000E+03  0.50000000000E+03  0.00000000000E+00 0. -1.
        -11    1    1    2    0    0  0.68833152700E-01  0.18423244029E+02  0.49948931822E+03  0.49982897043E+03  0.00000000000E+00 0.  1.
         11    1    1    2    0    0  0.20997590411E+01 -0.50254838388E+00 -0.21913633700E+02  0.22019738528E+02  0.00000000000E+00 0. -1.
        -15    1    1    2    0    0  0.48436864637E+01 -0.13183143502E+01 -0.10053313860E+03  0.10067407281E+03  0.17770000000E+01 0.  1.
         15    1    1    2    0    0 -0.70122786574E+01 -0.16602381295E+02 -0.37704254593E+03  0.37747721823E+03  0.17770000000E+01 0. -1.
</event>
<event>
 6    1  0.2408691E-003  0.5303534E+03  0.7546771E-02  0.9334341E-01
        -11   -1    0    0    0    0  0.00000000000E+00  0.00000000000E+00  0.50000000000E+03  0.50000000000E+03  0.00000000000E+00 0. -1.
         11   -1    0    0    0    0 -0.00000000000E+00 -0.00000000000E+00 -0.50000000000E+03  0.50000000000E+03  0.00000000000E+00 0.  1.
        -11    1    1    2    0    0  0.48810441516E+01 -0.11358434730E+02  0.32779748992E+03  0.32803053674E+03  0.00000000000E+00 0. -1.
         11    1    1    2    0    0  0.89563078222E+01  0.57859223445E+02 -0.46598288589E+03  0.46964662793E+03  0.00000000000E+00 0.  1.
        -15    1    1    2    0    0 -0.59496936889E+02 -0.24569729313E+02  0.13727700737E+03  0.15163011436E+03  0.17770000000E+01 0.  1.
         15    1    1    2    0    0  0.45659584915E+02 -0.21931059401E+02  0.90838858995E+00  0.50692720976E+02  0.17770000000E+01 0. -1.
</event>
<event>
 6    1  0.2408691E-003  0.5007344E+03  0.7546771E-02  0.9398168E-01
        -11   -1    0    0    0    0  0.00000000000E+00  0.00000000000E+00  0.50000000000E+03  0.50000000000E+03  0.00000000000E+00 0.  1.
         11   -1    0    0    0    0 -0.00000000000E+00 -0.00000000000E+00 -0.50000000000E+03  0.50000000000E+03  0.00000000000E+00 0.  1.
        -11    1    1    2    0    0 -0.67753608990E+01  0.53560389318E+01  0.49919091447E+03  0.49926562244E+03  0.00000000000E+00 0.  1.
         11    1    1    2    0    0  0.24189431366E+01  0.64661472997E+01 -0.39530857330E+03  0.39536885370E+03  0.00000000000E+00 0.  1.
        -15    1    1    2    0    0  0.68734075586E+01 -0.10767450175E+02 -0.60412047718E+02  0.61773416234E+02  0.17770000000E+01 0. -1.
         15    1    1    2    0    0 -0.25169897962E+01 -0.10547360560E+01 -0.43470293445E+02  0.43592107622E+02  0.17770000000E+01 0.  1.
</event>
<event>
 6    1  0.2408691E-003  0.5068576E+03  0.7546771E-02  0.9384595E-01
        -11   -1    0    0    0    0  0.00000000000E+00  0.00000000000E+00  0.50000000000E+03  0.50000000000E+03  0.00000000000E+00 0.  1.
         11   -1    0    0    0    0 -0.00000000000E+00 -0.00000000000E+00 -0.50000000000E+03  0.50000000000E+03  0.00000000000E+00 0.  1.
        -11    1    1    2    0    0  0.15799189585E+00 -0.74483481680E+01  0.45921576621E+03  0.45927619445E+03  0.00000000000E+00 0.  1.
         11    1    1    2    0    0  0.13028537832E+02  0.49314247107E+01 -0.49294560258E+03  0.49314240220E+03  0.00000000000E+00 0.  1.
        -15    1    1    2    0    0 -0.77950309764E+01  0.12929339325E+01  0.38943753892E+02  0.39776976787E+02  0.17770000000E+01 0. -1.
         15    1    1    2    0    0 -0.53914987511E+01  0.12239895247E+01 -0.52139175229E+01  0.78044265693E+01  0.17770000000E+01 0.  1.
</event>
<event>
 6    1  0.2408691E-003  0.5003000E+03  0.7546771E-02  0.9399139E-01
        -11   -1    0    0    0    0  0.00000000000E+00  0.00000000000E+00  0.50000000000E+03  0.50000000000E+03  0.00000000000E+00 0. -1.
         11   -1    0    0    0    0 -0.00000000000E+00 -0.00000000000E+00 -0.50000000000E+03  0.50000000000E+03  0.00000000000E+00 0.  1.
        -11    1    1    2    0    0  0.80824503547E-01  0.41248184447E+01  0.20811022004E+03  0.20815110941E+03  0.00000000000E+00 0. -1.
         11    1    1    2    0    0  0.95878828330E+01 -0.28627730311E+01 -0.49959979517E+03  0.49969998829E+03  0.00000000000E+00 0.  1.
        -15    1    1    2    0    0 -0.29324342338E+01 -0.51320055248E+00  0.10220001969E+02  0.10792067206E+02  0.17770000000E+01 0. -1.
         15    1    1    2    0    0 -0.67362731027E+01 -0.74884486109E+00  0.28126957315E+03  0.28135683510E+03  0.17770000000E+01 0.  1.
</event>
<event>
 6    1  0.2408691E-003  0.5033772E+03  0.7546771E-02  0.9392284E-01
        -11   -1    0    0    0    0  0.00000000000E+00  0.00000000000E+00  0.50000000000E+03  0.50000000000E+03  0.00000000000E+00 0.  1.
         11   -1    0    0    0    0 -0.00000000000E+00 -0.00000000000E+00 -0.50000000000E+03  0.50000000000E+03  0.00000000000E+00 0. -1.
        -11    1    1    2    0    0  0.63439572126E+01  0.31524303164E+01  0.44563837440E+03  0.44569467615E+03  0.00000000000E+00 0.  1.
         11    1    1    2    0    0 -0.14255771335E+02 -0.42120834756E+01 -0.49640024072E+03  0.49662276191E+03  0.00000000000E+00 0. -1.
        -15    1    1    2    0    0  0.37031823255E+01 -0.32754058252E+01  0.51105993309E+02  0.51375306557E+02  0.17770000000E+01 0. -1.
         15    1    1    2    0    0  0.42086317971E+01  0.43350589844E+01 -0.34412699336E+00  0.63072553768E+01  0.17770000000E+01 0.  1.
</event>
<event>
 6    1  0.2408691E-003  0.5127590E+03  0.7546771E-02  0.9371704E-01
        -11   -1    0    0    0    0  0.00000000000E+00  0.00000000000E+00  0.50000000000E+03  0.50000000000E+03  0.00000000000E+00 0. -1.
         11   -1    0    0    0    0 -0.00000000000E+00 -0.00000000000E+00 -0.50000000000E+03  0.50000000000E+03  0.00000000000E+00 0.  1.
        -11    1    1    2    0    0 -0.36559355881E+01  0.92837165902E+01  0.46044990889E+03  0.46055800054E+03  0.00000000000E+00 0. -1.
         11    1    1    2    0    0  0.75489202757E+01  0.25856327114E+02 -0.48649589401E+03  0.48724099862E+03  0.00000000000E+00 0.  1.
        -15    1    1    2    0    0 -0.70530506537E+01 -0.50796642195E+00  0.13211129654E+02  0.15089573525E+02  0.17770000000E+01 0.  1.
         15    1    1    2    0    0  0.31600659661E+01 -0.34632077283E+02  0.12834855460E+02  0.37111427317E+02  0.17770000000E+01 0. -1.
</event>
<event>
 6    1  0.2408691E-003  0.5006252E+03  0.7546771E-02  0.9398412E-01
        -11   -1    0    0    0    0  0.00000000000E+00  0.00000000000E+00  0.50000000000E+03  0.50000000000E+03  0.00000000000E+00 0. -1.
         11   -1    0    0    0    0 -0.00000000000E+00 -0.00000000000E+00 -0.50000000000E+03  0.50000000000E+03  0.00000000000E+00 0.  1.
        -11    1    1    2    0    0 -0.49808843159E+01 -0.25621719057E+00  0.12745137739E+03  0.12754892573E+03  0.00000000000E+00 0. -1.
         11    1    1    2    0    0  0.30312941736E+01  0.71620649087E+01 -0.49931423869E+03  0.49937480201E+03  0.00000000000E+00 0.  1.
        -15    1    1    2    0    0  0.12884866268E+02 -0.95512079215E+00  0.90759158722E+02  0.91691409932E+02  0.17770000000E+01 0. -1.
         15    1    1    2    0    0 -0.10935276126E+02 -0.59507269260E+01  0.28110370258E+03  0.28138486233E+03  0.17770000000E+01 0. -1.
</event>
<event>
 6    1  0.2408691E-003  0.5002283E+03  0.7546771E-02  0.9399299E-01
        -11   -1    0    0    0    0  0.00000000000E+00  0.00000000000E+00  0.50000000000E+03  0.50000000000E+03  0.00000000000E+00 0. -1.
         11   -1    0    0    0    0 -0.00000000000E+00 -0.00000000000E+00 -0.50000000000E+03  0.50000000000E+03  0.00000000000E+00 0. -1.
        -11    1    1    2    0    0  0.81868315904E+00 -0.48000843228E+01  0.33706236713E+03  0.33709753838E+03  0.00000000000E+00 0. -1.
         11    1    1    2    0    0  0.49727584392E+01  0.48998236495E+01 -0.49972292978E+03  0.49977169102E+03  0.00000000000E+00 0. -1.
        -15    1    1    2    0    0 -0.99300330669E-01  0.84914917718E+00  0.53090390560E+01  0.56634388475E+01  0.17770000000E+01 0. -1.
         15    1    1    2    0    0 -0.56921412676E+01 -0.94888850390E+00  0.15735152359E+03  0.15746733175E+03  0.17770000000E+01 0. -1.
</event>
<event>
 6    1  0.2408691E-003  0.5257790E+03  0.7546771E-02  0.9343906E-01
        -11   -1    0    0    0    0  0.00000000000E+00  0.00000000000E+00  0.50000000000E+03  0.50000000000E+03  0.00000000000E+00 0. -1.
         11   -1    0    0    0    0 -0.00000000000E+00 -0.00000000000E+00 -0.50000000000E+03  0.50000000000E+03  0.00000000000E+00 0.  1.
        -11    1    1    2    0    0  0.17260915986E+01 -0.96210137727E+01  0.47412028804E+03  0.47422103584E+03  0.00000000000E+00 0. -1.
         11    1    1    2    0    0  0.49088994007E+01 -0.33030031487E+01 -0.10685735489E+03  0.10702103259E+03  0.00000000000E+00 0.  1.
        -15    1    1    2    0    0 -0.50985564119E+01  0.21606049489E+02  0.20869883127E+02  0.30520917462E+02  0.17770000000E+01 0. -1.
         15    1    1    2    0    0 -0.15364345874E+01 -0.86820325674E+01 -0.38813281628E+03  0.38823701411E+03  0.17770000000E+01 0.  1.
</event>
<event>
 6    1  0.2408691E-003  0.5023054E+03  0.7546771E-02  0.9394666E-01
        -11   -1    0    0    0    0  0.00000000000E+00  0.00000000000E+00  0.50000000000E+03  0.50000000000E+03  0.00000000000E+00 0.  1.
         11   -1    0    0    0    0 -0.00000000000E+00 -0.00000000000E+00 -0.50000000000E+03  0.50000000000E+03  0.00000000000E+00 0.  1.
        -11    1    1    2    0    0 -0.35662126956E+01 -0.78472310717E+01  0.49761994095E+03  0.49769458761E+03  0.00000000000E+00 0.  1.
         11    1    1    2    0    0 -0.61368690000E+01  0.68601538979E+01 -0.46186710690E+03  0.46195881560E+03  0.00000000000E+00 0.  1.
        -15    1    1    2    0    0  0.81676572096E+01 -0.64662968809E+01 -0.16819749366E+02  0.19864171701E+02  0.17770000000E+01 0. -1.
         15    1    1    2    0    0  0.15354244860E+01  0.74533740547E+01 -0.18933084681E+02  0.20482425093E+02  0.17770000000E+01 0.  1.
</event>
<event>
 6    1  0.2408691E-003  0.5026900E+03  0.7546771E-02  0.9393811E-01
        -11   -1    0    0    0    0  0.00000000000E+00  0.00000000000E+00  0.50000000000E+03  0.50000000000E+03  0.00000000000E+00 0. -1.
         11   -1    0    0    0    0 -0.00000000000E+00 -0.00000000000E+00 -0.50000000000E+03  0.50000000000E+03  0.00000000000E+00 0. -1.
        -11    1    1    2    0    0 -0.10029025733E+02 -0.18808459691E+01  0.38430960908E+03  0.38444504753E+03  0.00000000000E+00 0. -1.
         11    1    1    2    0    0 -0.15347784088E+02 -0.71114471731E+01 -0.49702225035E+03  0.49731000844E+03  0.00000000000E+00 0. -1.
        -15    1    1    2    0    0 -0.27875650662E+00 -0.26715109226E+01  0.41692968504E+02  0.41817173834E+02  0.17770000000E+01 0.  1.
         15    1    1    2    0    0  0.25655566328E+02  0.11663804065E+02  0.71019672758E+02  0.76427770192E+02  0.17770000000E+01 0.  1.
</event>
<event>
 6    1  0.2408691E-003  0.5004412E+03  0.7546771E-02  0.9398823E-01
        -11   -1    0    0    0    0  0.00000000000E+00  0.00000000000E+00  0.50000000000E+03  0.50000000000E+03  0.00000000000E+00 0. -1.
         11   -1    0    0    0    0 -0.00000000000E+00 -0.00000000000E+00 -0.50000000000E+03  0.50000000000E+03  0.00000000000E+00 0.  1.
        -11    1    1    2    0    0  0.71284501670E+00 -0.97712451645E+01  0.49946275593E+03  0.49955883532E+03  0.00000000000E+00 0. -1.
         11    1    1    2    0    0 -0.41053431963E+00  0.29313061391E+01 -0.13679086172E+03  0.13682288166E+03  0.00000000000E+00 0.  1.
        -15    1    1    2    0    0 -0.64265299896E+01 -0.56151570593E+01 -0.60740203820E+02  0.61362532262E+02  0.17770000000E+01 0. -1.
         15    1    1    2    0    0  0.61242192925E+01  0.12455096085E+02 -0.30193169039E+03  0.30225575076E+03  0.17770000000E+01 0.  1.
</event>
<event>
 6    1  0.2408691E-003  0.5675155E+03  0.7546771E-02  0.9260246E-01
        -11   -1    0    0    0    0  0.00000000000E+00  0.00000000000E+00  0.50000000000E+03  0.50000000000E+03  0.00000000000E+00 0.  1.
         11   -1    0    0    0    0 -0.00000000000E+00 -0.00000000000E+00 -0.50000000000E+03  0.50000000000E+03  0.00000000000E+00 0. -1.
        -11    1    1    2    0    0 -0.16116726069E+02  0.11323472861E+02  0.24149192527E+03  0.24229387089E+03  0.00000000000E+00 0.  1.
         11    1    1    2    0    0 -0.22803206401E+02  0.18243288378E+02 -0.43149740820E+03  0.43248447033E+03  0.00000000000E+00 0. -1.
        -15    1    1    2    0    0  0.61149327804E+02  0.56501726780E+02 -0.29537039733E+02  0.88358813172E+02  0.17770000000E+01 0. -1.
         15    1    1    2    0    0 -0.22229395333E+02 -0.86068488019E+02  0.21954252266E+03  0.23686284561E+03  0.17770000000E+01 0.  1.
</event>
<event>
 6    1  0.2408691E-003  0.5005619E+03  0.7546771E-02  0.9398553E-01
        -11   -1    0    0    0    0  0.00000000000E+00  0.00000000000E+00  0.50000000000E+03  0.50000000000E+03  0.00000000000E+00 0. -1.
         11   -1    0    0    0    0 -0.00000000000E+00 -0.00000000000E+00 -0.50000000000E+03  0.50000000000E+03  0.00000000000E+00 0.  1.
        -11    1    1    2    0    0 -0.79599153304E+01  0.56849978935E+01  0.49934227225E+03  0.49943806855E+03  0.00000000000E+00 0. -1.
         11    1    1    2    0    0  0.65454614102E+01 -0.34162333743E+01 -0.37468182257E+03  0.37475456218E+03  0.00000000000E+00 0.  1.
        -15    1    1    2    0    0 -0.24857621668E+01  0.38841828601E+01 -0.13197348962E+02  0.14092325524E+02  0.17770000000E+01 0. -1.
         15    1    1    2    0    0  0.39002160869E+01 -0.61529473793E+01 -0.11146310072E+03  0.11171504375E+03  0.17770000000E+01 0.  1.
</event>
<event>
 6    1  0.2408691E-003  0.5196925E+03  0.7546771E-02  0.9356793E-01
        -11   -1    0    0    0    0  0.00000000000E+00  0.00000000000E+00  0.50000000000E+03  0.50000000000E+03  0.00000000000E+00 0.  1.
         11   -1    0    0    0    0 -0.00000000000E+00 -0.00000000000E+00 -0.50000000000E+03  0.50000000000E+03  0.00000000000E+00 0.  1.
        -11    1    1    2    0    0 -0.23575781949E+02  0.18463205345E+02  0.47937310053E+03  0.48030748168E+03  0.00000000000E+00 0.  1.
         11    1    1    2    0    0 -0.13221538170E+02  0.25388015561E+01 -0.43231760867E+03  0.43252718914E+03  0.00000000000E+00 0.  1.
        -15    1    1    2    0    0  0.32141203407E+02  0.35584856639E+01 -0.52343411265E+02  0.61552499612E+02  0.17770000000E+01 0. -1.
         15    1    1    2    0    0  0.46561167126E+01 -0.24560492565E+02  0.52879194050E+01  0.25612829568E+02  0.17770000000E+01 0.  1.
</event>
<event>
 6    1  0.2408691E-003  0.5004062E+03  0.7546771E-02  0.9398901E-01
        -11   -1    0    0    0    0  0.00000000000E+00  0.00000000000E+00  0.50000000000E+03  0.50000000000E+03  0.00000000000E+00 0. -1.
         11   -1    0    0    0    0 -0.00000000000E+00 -0.00000000000E+00 -0.50000000000E+03  0.50000000000E+03  0.00000000000E+00 0. -1.
        -11    1    1    2    0    0  0.89229115806E+01  0.18240481115E+01  0.49951075280E+03  0.49959377264E+03  0.00000000000E+00 0. -1.
         11    1    1    2    0    0  0.13161123133E+01 -0.19222664838E+01 -0.16255584232E+03  0.16257253499E+03  0.00000000000E+00 0. -1.
        -15    1    1    2    0    0 -0.80153995348E+01  0.62598736332E+01 -0.30458111333E+03  0.30475604173E+03  0.17770000000E+01 0.  1.
         15    1    1    2    0    0 -0.22236243590E+01 -0.61616552609E+01 -0.32373797150E+02  0.33077650638E+02  0.17770000000E+01 0. -1.
</event>
<event>
 6    1  0.2408691E-003  0.5475274E+03  0.7546771E-02  0.9299324E-01
        -11   -1    0    0    0    0  0.00000000000E+00  0.00000000000E+00  0.50000000000E+03  0.50000000000E+03  0.00000000000E+00 0.  1.
         11   -1    0    0    0    0 -0.00000000000E+00 -0.00000000000E+00 -0.50000000000E+03  0.50000000000E+03  0.00000000000E+00 0.  1.
        -11    1    1    2    0    0 -0.20137444693E+02 -0.23649415446E+02  0.45140515949E+03  0.45247257325E+03  0.00000000000E+00 0.  1.
         11    1    1    2    0    0  0.41401753106E+01 -0.54977315057E+01 -0.40980600515E+03  0.40986379196E+03  0.00000000000E+00 0.  1.
        -15    1    1    2    0    0 -0.26872577704E+02  0.48511027899E+02  0.21011835085E+02  0.59330516625E+02  0.17770000000E+01 0. -1.
         15    1    1    2    0    0  0.42869847086E+02 -0.19363880948E+02 -0.62610989429E+02  0.78333118161E+02  0.17770000000E+01 0.  1.
</event>
<event>
 6    1  0.2408691E-003  0.5046058E+03  0.7546771E-02  0.9389563E-01
        -11   -1    0    0    0    0  0.00000000000E+00  0.00000000000E+00  0.50000000000E+03  0.50000000000E+03  0.00000000000E+00 0. -1.
         11   -1    0    0    0    0 -0.00000000000E+00 -0.00000000000E+00 -0.50000000000E+03  0.50000000000E+03  0.00000000000E+00 0.  1.
        -11    1    1    2    0    0 -0.48448815919E+00  0.15375987776E+02  0.49515532598E+03  0.49539423955E+03  0.00000000000E+00 0. -1.
         11    1    1    2    0    0 -0.72867246135E+01 -0.21848952542E+01 -0.45986881838E+03  0.45993173433E+03  0.00000000000E+00 0.  1.
        -15    1    1    2    0    0  0.12509869763E+02 -0.22777210006E+01 -0.87473748554E+01  0.15535737843E+02  0.17770000000E+01 0. -1.
         15    1    1    2    0    0 -0.47386569906E+01 -0.10913371522E+02 -0.26539132748E+02  0.29138288283E+02  0.17770000000E+01 0.  1.
</event>
<event>
 6    1  0.2408691E-003  0.5014987E+03  0.7546771E-02  0.9396462E-01
        -11   -1    0    0    0    0  0.00000000000E+00  0.00000000000E+00  0.50000000000E+03  0.50000000000E+03  0.00000000000E+00 0. -1.
         11   -1    0    0    0    0 -0.00000000000E+00 -0.00000000000E+00 -0.50000000000E+03  0.50000000000E+03  0.00000000000E+00 0. -1.
        -11    1    1    2    0    0 -0.80145700432E+01 -0.66496427760E+01  0.49839247730E+03  0.49850126631E+03  0.00000000000E+00 0. -1.
         11    1    1    2    0    0 -0.61465445264E+01 -0.11317863491E+02 -0.27058749086E+03  0.27089382469E+03  0.00000000000E+00 0. -1.
        -15    1    1    2    0    0 -0.32377805303E+01  0.45789495733E+01 -0.93795026869E+01  0.11071711774E+02  0.17770000000E+01 0. -1.
         15    1    1    2    0    0  0.17398895100E+02  0.13388556694E+02 -0.21842548376E+03  0.21953319723E+03  0.17770000000E+01 0.  1.
</event>
<event>
 6    1  0.2408691E-003  0.4657583E+03  0.7546771E-02  0.9479866E-01
        -11   -1    0    0    0    0  0.00000000000E+00  0.00000000000E+00  0.50000000000E+03  0.50000000000E+03  0.00000000000E+00 0.  1.
         11   -1    0    0    0    0 -0.00000000000E+00 -0.00000000000E+00 -0.50000000000E+03  0.50000000000E+03  0.00000000000E+00 0. -1.
        -11    1    1    2    0    0  0.34938566461E+02  0.74086908550E+00  0.45964499106E+03  0.46097155023E+03  0.00000000000E+00 0.  1.
         11    1    1    2    0    0  0.61113899506E+01 -0.16053500691E+02 -0.47133521630E+03  0.47164812106E+03  0.00000000000E+00 0. -1.
        -15    1    1    2    0    0 -0.50992580071E+02  0.50182590643E+01  0.50956104893E+01  0.51522316734E+02  0.17770000000E+01 0.  1.
         15    1    1    2    0    0  0.99426236601E+01  0.10294372541E+02  0.65946147488E+01  0.15858011980E+02  0.17770000000E+01 0. -1.
</event>
<event>
 6    1  0.2408691E-003  0.4779854E+03  0.7546771E-02  0.9450463E-01
        -11   -1    0    0    0    0  0.00000000000E+00  0.00000000000E+00  0.50000000000E+03  0.50000000000E+03  0.00000000000E+00 0.  1.
         11   -1    0    0    0    0 -0.00000000000E+00 -0.00000000000E+00 -0.50000000000E+03  0.50000000000E+03  0.00000000000E+00 0. -1.
        -11    1    1    2    0    0 -0.21786609367E+02  0.15942685329E+02  0.47649294056E+03  0.47725710887E+03  0.00000000000E+00 0.  1.
         11    1    1    2    0    0  0.36521327927E+01  0.71280510575E+01 -0.47910059616E+03  0.47916753691E+03  0.00000000000E+00 0. -1.
        -15    1    1    2    0    0  0.17710738133E+02 -0.60856975488E+01  0.13643188079E+02  0.23237905883E+02  0.17770000000E+01 0. -1.
         15    1    1    2    0    0  0.42373844093E+00 -0.16985038837E+02 -0.11035532480E+02  0.20337448333E+02  0.17770000000E+01 0.  1.
</event>
<event>
 6    1  0.2408691E-003  0.5011312E+03  0.7546771E-02  0.9397282E-01
        -11   -1    0    0    0    0  0.00000000000E+00  0.00000000000E+00  0.50000000000E+03  0.50000000000E+03  0.00000000000E+00 0.  1.
         11   -1    0    0    0    0 -0.00000000000E+00 -0.00000000000E+00 -0.50000000000E+03  0.50000000000E+03  0.00000000000E+00 0. -1.
        -11    1    1    2    0    0 -0.83593516420E+01  0.47728999432E+00  0.49879852933E+03  0.49886879981E+03  0.00000000000E+00 0.  1.
         11    1    1    2    0    0 -0.14001645148E+01 -0.51035925601E+01 -0.34174202731E+03  0.34178300184E+03  0.00000000000E+00 0. -1.
        -15    1    1    2    0    0  0.59315224716E+01 -0.14010544439E+01 -0.84976893937E+01  0.10607278936E+02  0.17770000000E+01 0.  1.
         15    1    1    2    0    0  0.38279936852E+01  0.60273570097E+01 -0.14855881263E+03  0.14874091941E+03  0.17770000000E+01 0. -1.
</event>
<event>
 6    1  0.2408691E-003  0.5254859E+03  0.7546771E-02  0.9344522E-01
        -11   -1    0    0    0    0  0.00000000000E+00  0.00000000000E+00  0.50000000000E+03  0.50000000000E+03  0.00000000000E+00 0. -1.
         11   -1    0    0    0    0 -0.00000000000E+00 -0.00000000000E+00 -0.50000000000E+03  0.50000000000E+03  0.00000000000E+00 0.  1.
        -11    1    1    2    0    0  0.62227884714E+01  0.30234166785E+01  0.47446365849E+03  0.47451409607E+03  0.00000000000E+00 0. -1.
         11    1    1    2    0    0  0.70016689804E+01 -0.17142824930E+02 -0.46017607385E+03  0.46054849772E+03  0.00000000000E+00 0.  1.
        -15    1    1    2    0    0 -0.15069689809E+02  0.44307722062E+01  0.22113177433E+02  0.27182303774E+02  0.17770000000E+01 0. -1.
         15    1    1    2    0    0  0.18452323576E+01  0.96886360452E+01 -0.36400762075E+02  0.37755102430E+02  0.17770000000E+01 0.  1.
</event>
<event>
 6    1  0.2408691E-003  0.5005498E+03  0.7546771E-02  0.9398580E-01
        -11   -1    0    0    0    0  0.00000000000E+00  0.00000000000E+00  0.50000000000E+03  0.50000000000E+03  0.00000000000E+00 0.  1.
         11   -1    0    0    0    0 -0.00000000000E+00 -0.00000000000E+00 -0.50000000000E+03  0.50000000000E+03  0.00000000000E+00 0. -1.
        -11    1    1    2    0    0 -0.10021029538E+02 -0.54218711574E+00  0.49934940414E+03  0.49945024018E+03  0.00000000000E+00 0.  1.
         11    1    1    2    0    0 -0.20736783573E+01  0.27654383095E+01 -0.21456538507E+03  0.21459322511E+03  0.00000000000E+00 0. -1.
        -15    1    1    2    0    0 -0.59211179360E+01  0.14316472950E+01 -0.11408376986E+03  0.11426011345E+03  0.17770000000E+01 0. -1.
         15    1    1    2    0    0  0.18015825831E+02 -0.36548984887E+01 -0.17070024921E+03  0.17169642126E+03  0.17770000000E+01 0. -1.
</event>
<event>
 6    1  0.2408691E-003  0.5103304E+03  0.7546771E-02  0.9376987E-01
        -11   -1    0    0    0    0  0.00000000000E+00  0.00000000000E+00  0.50000000000E+03  0.50000000000E+03  0.00000000000E+00 0. -1.
         11   -1    0    0    0    0 -0.00000000000E+00 -0.00000000000E+00 -0.50000000000E+03  0.50000000000E+03  0.00000000000E+00 0. -1.
        -11    1    1    2    0    0 -0.67449892553E+01 -0.47908020894E-01  0.48030030114E+03  0.48034766206E+03  0.00000000000E+00 0. -1.
         11    1    1    2    0    0  0.66653201576E+01 -0.13005330132E+02 -0.48945150757E+03  0.48966962675E+03  0.00000000000E+00 0. -1.
        -15    1    1    2    0    0 -0.92509544428E+01  0.13380269917E+02 -0.58866147501E+00  0.16374249066E+02  0.17770000000E+01 0. -1.
         15    1    1    2    0    0  0.93306235405E+01 -0.32703176465E+00  0.97398679064E+01  0.13608462120E+02  0.17770000000E+01 0.  1.
</event>
<event>
 6    1  0.2408691E-003  0.5098184E+03  0.7546771E-02  0.9378104E-01
        -11   -1    0    0    0    0  0.00000000000E+00  0.00000000000E+00  0.50000000000E+03  0.50000000000E+03  0.00000000000E+00 0.  1.
         11   -1    0    0    0    0 -0.00000000000E+00 -0.00000000000E+00 -0.50000000000E+03  0.50000000000E+03  0.00000000000E+00 0.  1.
        -11    1    1    2    0    0 -0.37432571802E+02 -0.78398385162E+02  0.48242148265E+03  0.49018158998E+03  0.00000000000E+00 0.  1.
         11    1    1    2    0    0  0.53789156250E+01  0.20787572032E+01 -0.16806903654E+03  0.16816793692E+03  0.00000000000E+00 0.  1.
        -15    1    1    2    0    0 -0.11155651627E+02  0.35296918265E+01 -0.19476878719E+03  0.19512802331E+03  0.17770000000E+01 0. -1.
         15    1    1    2    0    0  0.43209307804E+02  0.72789936133E+02 -0.11958365892E+03  0.14652244979E+03  0.17770000000E+01 0.  1.
</event>
<event>
 6    1  0.2408691E-003  0.5029472E+03  0.7546771E-02  0.9393239E-01
        -11   -1    0    0    0    0  0.00000000000E+00  0.00000000000E+00  0.50000000000E+03  0.50000000000E+03  0.00000000000E+00 0. -1.
         11   -1    0    0    0    0 -0.00000000000E+00 -0.00000000000E+00 -0.50000000000E+03  0.50000000000E+03  0.00000000000E+00 0.  1.
        -11    1    1    2    0    0  0.43708622498E+01  0.51935694054E+01  0.49700644681E+03  0.49705279978E+03  0.00000000000E+00 0. -1.
         11    1    1    2    0    0  0.99335805181E+01  0.28205850215E+01 -0.44668911709E+03  0.44680845901E+03  0.00000000000E+00 0.  1.
        -15    1    1    2    0    0 -0.13279142403E+02  0.30133726263E+00 -0.42428192486E+02  0.44494220677E+02  0.17770000000E+01 0.  1.
         15    1    1    2    0    0 -0.10253003653E+01 -0.83154916895E+01 -0.78891372378E+01  0.11644520524E+02  0.17770000000E+01 0. -1.
</event>
<event>
 6    1  0.2408691E-003  0.5004373E+03  0.7546771E-02  0.9398832E-01
        -11   -1    0    0    0    0  0.00000000000E+00  0.00000000000E+00  0.50000000000E+03  0.50000000000E+03  0.00000000000E+00 0.  1.
         11   -1    0    0    0    0 -0.00000000000E+00 -0.00000000000E+00 -0.50000000000E+03  0.50000000000E+03  0.00000000000E+00 0. -1.
        -11    1    1    2    0    0 -0.15401857500E+02 -0.66714981334E+01  0.49928067602E+03  0.49956272834E+03  0.00000000000E+00 0.  1.
         11    1    1    2    0    0  0.47845833540E+01 -0.39161434481E+01 -0.23560431383E+03  0.23568542830E+03  0.00000000000E+00 0. -1.
        -15    1    1    2    0    0 -0.28200337929E+00  0.22501316437E+01 -0.55352287798E+01  0.62401205889E+01  0.17770000000E+01 0.  1.
         15    1    1    2    0    0  0.10899277525E+02  0.83375099378E+01 -0.25814113341E+03  0.25851172277E+03  0.17770000000E+01 0. -1.
</event>
<event>
 6    1  0.2408691E-003  0.5002131E+03  0.7546771E-02  0.9399333E-01
        -11   -1    0    0    0    0  0.00000000000E+00  0.00000000000E+00  0.50000000000E+03  0.50000000000E+03  0.00000000000E+00 0.  1.
         11   -1    0    0    0    0 -0.00000000000E+00 -0.00000000000E+00 -0.50000000000E+03  0.50000000000E+03  0.00000000000E+00 0.  1.
        -11    1    1    2    0    0  0.73404609818E+01 -0.68335203560E+00  0.49973252816E+03  0.49978690363E+03  0.00000000000E+00 0.  1.
         11    1    1    2    0    0 -0.62714455251E+01  0.43894695064E+00 -0.12889539364E+03  0.12904861954E+03  0.00000000000E+00 0.  1.
        -15    1    1    2    0    0  0.51062853524E+01 -0.10649209300E+01 -0.29292761797E+03  0.29297944519E+03  0.17770000000E+01 0.  1.
         15    1    1    2    0    0 -0.61753008091E+01  0.13093260150E+01 -0.77909516556E+02  0.78185031647E+02  0.17770000000E+01 0. -1.
</event>
<event>
 6    1  0.2408691E-003  0.5004916E+03  0.7546771E-02  0.9398710E-01
        -11   -1    0    0    0    0  0.00000000000E+00  0.00000000000E+00  0.50000000000E+03  0.50000000000E+03  0.00000000000E+00 0.  1.
         11   -1    0    0    0    0 -0.00000000000E+00 -0.00000000000E+00 -0.50000000000E+03  0.50000000000E+03  0.00000000000E+00 0.  1.
        -11    1    1    2    0    0  0.44160540209E+01  0.55750880116E+01  0.49945773291E+03  0.49950836840E+03  0.00000000000E+00 0.  1.
         11    1    1    2    0    0  0.34485657043E+01 -0.80736028197E+00 -0.17674263061E+03  0.17677811491E+03  0.00000000000E+00 0.  1.
        -15    1    1    2    0    0 -0.42384411286E+01 -0.18239905749E+01 -0.12278766616E+02  0.13236962016E+02  0.17770000000E+01 0.  1.
         15    1    1    2    0    0 -0.36261785967E+01 -0.29437371548E+01 -0.31043633568E+03  0.31047655467E+03  0.17770000000E+01 0. -1.
</event>
<event>
 6    1  0.2408691E-003  0.5011890E+03  0.7546771E-02  0.9397153E-01
        -11   -1    0    0    0    0  0.00000000000E+00  0.00000000000E+00  0.50000000000E+03  0.50000000000E+03  0.00000000000E+00 0. -1.
         11   -1    0    0    0    0 -0.00000000000E+00 -0.00000000000E+00 -0.50000000000E+03  0.50000000000E+03  0.00000000000E+00 0.  1.
        -11    1    1    2    0    0  0.64117476107E+00 -0.68700666487E+01  0.49876327581E+03  0.49881100050E+03  0.00000000000E+00 0. -1.
         11    1    1    2    0    0 -0.52192310173E+01 -0.65603692350E+01 -0.43832407462E+03  0.43840423493E+03  0.00000000000E+00 0.  1.
        -15    1    1    2    0    0 -0.13666984585E+01  0.39635739059E+01 -0.86752411372E+01  0.97977201722E+01  0.17770000000E+01 0. -1.
         15    1    1    2    0    0  0.59447547147E+01  0.94668619778E+01 -0.51763960054E+02  0.52987044396E+02  0.17770000000E+01 0.  1.
</event>
<event>
 6    1  0.2408691E-003  0.5368528E+03  0.7546771E-02  0.9320926E-01
        -11   -1    0    0    0    0  0.00000000000E+00  0.00000000000E+00  0.50000000000E+03  0.50000000000E+03  0.00000000000E+00 0. -1.
         11   -1    0    0    0    0 -0.00000000000E+00 -0.00000000000E+00 -0.50000000000E+03  0.50000000000E+03  0.00000000000E+00 0. -1.
        -11    1    1    2    0    0  0.12735641665E+01 -0.26514233096E+02  0.46238585221E+03  0.46314717191E+03  0.00000000000E+00 0. -1.
         11    1    1    2    0    0 -0.30143230173E+01 -0.12216193860E+02 -0.35289497618E+03  0.35311922314E+03  0.00000000000E+00 0. -1.
        -15    1    1    2    0    0  0.56453485282E+02  0.49052234291E+02 -0.18527937606E+02  0.77068540212E+02  0.17770000000E+01 0. -1.
         15    1    1    2    0    0 -0.54712726432E+02 -0.10321807335E+02 -0.90962938422E+02  0.10666506474E+03  0.17770000000E+01 0.  1.
</event>
<event>
 6    1  0.2408691E-003  0.5083131E+03  0.7546771E-02  0.9381398E-01
        -11   -1    0    0    0    0  0.00000000000E+00  0.00000000000E+00  0.50000000000E+03  0.50000000000E+03  0.00000000000E+00 0.  1.
         11   -1    0    0    0    0 -0.00000000000E+00 -0.00000000000E+00 -0.50000000000E+03  0.50000000000E+03  0.00000000000E+00 0.  1.
        -11    1    1    2    0    0 -0.32437953906E+00 -0.80865882468E+01  0.45266887888E+03  0.45274121973E+03  0.00000000000E+00 0.  1.
         11    1    1    2    0    0 -0.89492974454E+01  0.78360366804E+01 -0.49154300861E+03  0.49168691533E+03  0.00000000000E+00 0.  1.
        -15    1    1    2    0    0  0.45075332050E+01  0.86835261680E+01  0.43549353452E+02  0.44670184658E+02  0.17770000000E+01 0. -1.
         15    1    1    2    0    0  0.47661437794E+01 -0.84329746016E+01 -0.46752237233E+01  0.10901680284E+02  0.17770000000E+01 0.  1.
</event>
<event>
 6    1  0.2408691E-003  0.5015036E+03  0.7546771E-02  0.9396452E-01
        -11   -1    0    0    0    0  0.00000000000E+00  0.00000000000E+00  0.50000000000E+03  0.50000000000E+03  0.00000000000E+00 0. -1.
         11   -1    0    0    0    0 -0.00000000000E+00 -0.00000000000E+00 -0.50000000000E+03  0.50000000000E+03  0.00000000000E+00 0.  1.
        -11    1    1    2    0    0 -0.63126820929E+01  0.89652069173E+01  0.49837581496E+03  0.49849641706E+03  0.00000000000E+00 0. -1.
         11    1    1    2    0    0 -0.13040818974E+02 -0.17114507837E+02 -0.26820466975E+03  0.26906637510E+03  0.00000000000E+00 0.  1.
        -15    1    1    2    0    0  0.92165090983E+01  0.15687076335E+02 -0.16651120840E+03  0.16751169707E+03  0.17770000000E+01 0. -1.
         15    1    1    2    0    0  0.10136991969E+02 -0.75377754146E+01 -0.63659936812E+02  0.64925510766E+02  0.17770000000E+01 0.  1.
</event>
<event>
 6    1  0.2408691E-003  0.5001061E+03  0.7546771E-02  0.9399572E-01
        -11   -1    0    0    0    0  0.00000000000E+00  0.00000000000E+00  0.50000000000E+03  0.50000000000E+03  0.00000000000E+00 0.  1.
         11   -1    0    0    0    0 -0.00000000000E+00 -0.00000000000E+00 -0.50000000000E+03  0.50000000000E+03  0.00000000000E+00 0.  1.
        -11    1    1    2    0    0  0.58682026352E+01 -0.52567823665E+01  0.49983183180E+03  0.49989391839E+03  0.00000000000E+00 0.  1.
         11    1    1    2    0    0 -0.18625622872E+01  0.21359478415E+00 -0.13473163169E+03  0.13474467462E+03  0.00000000000E+00 0.  1.
        -15    1    1    2    0    0  0.29577168614E+01 -0.82505472742E+00 -0.17394497551E+03  0.17398115139E+03  0.17770000000E+01 0.  1.
         15    1    1    2    0    0 -0.69633572094E+01  0.58682423097E+01 -0.19115522460E+03  0.19138025559E+03  0.17770000000E+01 0.  1.
</event>
<event>
 6    1  0.2408691E-003  0.5051316E+03  0.7546771E-02  0.9388400E-01
        -11   -1    0    0    0    0  0.00000000000E+00  0.00000000000E+00  0.50000000000E+03  0.50000000000E+03  0.00000000000E+00 0. -1.
         11   -1    0    0    0    0 -0.00000000000E+00 -0.00000000000E+00 -0.50000000000E+03  0.50000000000E+03  0.00000000000E+00 0.  1.
        -11    1    1    2    0    0 -0.54438346170E+01  0.69126897805E+01  0.35740229210E+03  0.35751058587E+03  0.00000000000E+00 0. -1.
         11    1    1    2    0    0  0.26456210882E+02 -0.37238138833E+01 -0.49414670688E+03  0.49486843282E+03  0.00000000000E+00 0.  1.
        -15    1    1    2    0    0  0.11169870457E+02  0.79734244193E+01  0.81709596689E+02  0.82873140541E+02  0.17770000000E+01 0. -1.
         15    1    1    2    0    0 -0.32182246722E+02 -0.11162300316E+02  0.55034818091E+02  0.64747840765E+02  0.17770000000E+01 0.  1.
</event>
<event>
 6    1  0.2408691E-003  0.5050014E+03  0.7546771E-02  0.9388688E-01
        -11   -1    0    0    0    0  0.00000000000E+00  0.00000000000E+00  0.50000000000E+03  0.50000000000E+03  0.00000000000E+00 0.  1.
         11   -1    0    0    0    0 -0.00000000000E+00 -0.00000000000E+00 -0.50000000000E+03  0.50000000000E+03  0.00000000000E+00 0. -1.
        -11    1    1    2    0    0  0.11023328520E+02 -0.85369616853E+00  0.43743024743E+03  0.43756995319E+03  0.00000000000E+00 0.  1.
         11    1    1    2    0    0  0.12953074621E+00 -0.68356486841E+01 -0.49495136042E+03  0.49499857783E+03  0.00000000000E+00 0. -1.
        -15    1    1    2    0    0 -0.22723519668E+01  0.43411264955E+00 -0.39299658512E+01  0.48943230221E+01  0.17770000000E+01 0. -1.
         15    1    1    2    0    0 -0.88805072995E+01  0.72552322031E+01  0.61451078841E+02  0.62537145953E+02  0.17770000000E+01 0.  1.
</event>
<event>
 6    1  0.2408691E-003  0.5119599E+03  0.7546771E-02  0.9373439E-01
        -11   -1    0    0    0    0  0.00000000000E+00  0.00000000000E+00  0.50000000000E+03  0.50000000000E+03  0.00000000000E+00 0. -1.
         11   -1    0    0    0    0 -0.00000000000E+00 -0.00000000000E+00 -0.50000000000E+03  0.50000000000E+03  0.00000000000E+00 0. -1.
        -11    1    1    2    0    0  0.59494958075E+01 -0.15883998989E+02  0.48774524049E+03  0.48804007780E+03  0.00000000000E+00 0. -1.
         11    1    1    2    0    0  0.21760621535E+02  0.26665916516E+01 -0.42488526410E+03  0.42545049420E+03  0.00000000000E+00 0. -1.
        -15    1    1    2    0    0 -0.12578365896E+02 -0.17599699722E+02 -0.11115323267E+02  0.24385915181E+02  0.17770000000E+01 0. -1.
         15    1    1    2    0    0 -0.15131751447E+02  0.30817107059E+02 -0.51744653120E+02  0.62123512818E+02  0.17770000000E+01 0.  1.
</event>
<event>
 6    1  0.2408691E-003  0.5008357E+03  0.7546771E-02  0.9397942E-01
        -11   -1    0    0    0    0  0.00000000000E+00  0.00000000000E+00  0.50000000000E+03  0.50000000000E+03  0.00000000000E+00 0. -1.
         11   -1    0    0    0    0 -0.00000000000E+00 -0.00000000000E+00 -0.50000000000E+03  0.50000000000E+03  0.00000000000E+00 0.  1.
        -11    1    1    2    0    0 -0.53803719670E+00 -0.67243882730E+00  0.46895881722E+02  0.46903788551E+02  0.00000000000E+00 0. -1.
         11    1    1    2    0    0 -0.70440612092E+01 -0.53125576764E+00 -0.49911430284E+03  0.49916428991E+03  0.00000000000E+00 0.  1.
        -15    1    1    2    0    0  0.95241039828E+01 -0.20143442803E+01  0.44763288103E+03  0.44774224733E+03  0.17770000000E+01 0. -1.
         15    1    1    2    0    0 -0.19420055768E+01  0.32180388752E+01  0.45855400874E+01  0.61896742043E+01  0.17770000000E+01 0.  1.
</event>
<event>
 6    1  0.2408691E-003  0.5004111E+03  0.7546771E-02  0.9398890E-01
        -11   -1    0    0    0    0  0.00000000000E+00  0.00000000000E+00  0.50000000000E+03  0.50000000000E+03  0.00000000000E+00 0.  1.
         11   -1    0    0    0    0 -0.00000000000E+00 -0.00000000000E+00 -0.50000000000E+03  0.50000000000E+03  0.00000000000E+00 0.  1.
        -11    1    1    2    0    0  0.11125867011E+02 -0.88803330288E+01  0.49938608589E+03  0.49958893904E+03  0.00000000000E+00 0.  1.
         11    1    1    2    0    0  0.16363633961E+01  0.58120076040E+00 -0.10356516190E+03  0.10357971924E+03  0.00000000000E+00 0.  1.
        -15    1    1    2    0    0 -0.45078230721E+00 -0.69120813343E+01 -0.17231517949E+03  0.17246350016E+03  0.17770000000E+01 0. -1.
         15    1    1    2    0    0 -0.12311448100E+02  0.15211213603E+02 -0.22350574450E+03  0.22436784156E+03  0.17770000000E+01 0.  1.
</event>
<event>
 6    1  0.2408691E-003  0.5043623E+03  0.7546771E-02  0.9390101E-01
        -11   -1    0    0    0    0  0.00000000000E+00  0.00000000000E+00  0.50000000000E+03  0.50000000000E+03  0.00000000000E+00 0.  1.
         11   -1    0    0    0    0 -0.00000000000E+00 -0.00000000000E+00 -0.50000000000E+03  0.50000000000E+03  0.00000000000E+00 0. -1.
        -11    1    1    2    0    0  0.11427212264E+02 -0.11668595810E+02  0.49536858697E+03  0.49563774500E+03  0.00000000000E+00 0.  1.
         11    1    1    2    0    0  0.62715981668E+01  0.11304829320E+02 -0.46954060860E+03  0.46971854895E+03  0.00000000000E+00 0. -1.
        -15    1    1    2    0    0 -0.11946770927E+02 -0.65108391159E+01 -0.17840496120E+02  0.22506829905E+02  0.17770000000E+01 0. -1.
         15    1    1    2    0    0 -0.57520395045E+01  0.68746056054E+01 -0.79874822565E+01  0.12136876142E+02  0.17770000000E+01 0.  1.
</event>
<event>
 6    1  0.2408691E-003  0.5011967E+03  0.7546771E-02  0.9397136E-01
        -11   -1    0    0    0    0  0.00000000000E+00  0.00000000000E+00  0.50000000000E+03  0.50000000000E+03  0.00000000000E+00 0. -1.
         11   -1    0    0    0    0 -0.00000000000E+00 -0.00000000000E+00 -0.50000000000E+03  0.50000000000E+03  0.00000000000E+00 0.  1.
        -11    1    1    2    0    0 -0.13477429081E+01  0.10228329330E+02  0.49869657816E+03  0.49880328006E+03  0.00000000000E+00 0. -1.
         11    1    1    2    0    0  0.67144381455E+01 -0.13718556891E+01 -0.39668429402E+03  0.39674348740E+03  0.00000000000E+00 0.  1.
        -15    1    1    2    0    0 -0.11278567706E+02 -0.48799803386E+01 -0.85298524173E+02  0.86197542034E+02  0.17770000000E+01 0.  1.
         15    1    1    2    0    0  0.59118724686E+01 -0.39764933027E+01 -0.16713759960E+02  0.18255690512E+02  0.17770000000E+01 0. -1.
</event>
<event>
 6    1  0.2408691E-003  0.5098870E+03  0.7546771E-02  0.9377954E-01
        -11   -1    0    0    0    0  0.00000000000E+00  0.00000000000E+00  0.50000000000E+03  0.50000000000E+03  0.00000000000E+00 0.  1.
         11   -1    0    0    0    0 -0.00000000000E+00 -0.00000000000E+00 -0.50000000000E+03  0.50000000000E+03  0.00000000000E+00 0. -1.
        -11    1    1    2    0    0  0.87363529270E+01 -0.31306503640E+01  0.49002507993E+03  0.49011295003E+03  0.00000000000E+00 0.  1.
         11    1    1    2    0    0 -0.10853114069E+02  0.82022194675E+01 -0.47733904077E+03  0.47753285367E+03  0.00000000000E+00 0. -1.
        -15    1    1    2    0    0  0.12317748025E+02 -0.55631809372E+01 -0.16415183556E+02  0.21337569654E+02  0.17770000000E+01 0. -1.
         15    1    1    2    0    0 -0.10200986883E+02  0.49161183372E+00  0.37291444022E+01  0.11016626641E+02  0.17770000000E+01 0.  1.
</event>
<event>
 6    1  0.2408691E-003  0.5006233E+03  0.7546771E-02  0.9398416E-01
        -11   -1    0    0    0    0  0.00000000000E+00  0.00000000000E+00  0.50000000000E+03  0.50000000000E+03  0.00000000000E+00 0. -1.
         11   -1    0    0    0    0 -0.00000000000E+00 -0.00000000000E+00 -0.50000000000E+03  0.50000000000E+03  0.00000000000E+00 0. -1.
        -11    1    1    2    0    0  0.10880776466E+02  0.11408829497E+01  0.20988964129E+03  0.21017458084E+03  0.00000000000E+00 0. -1.
         11    1    1    2    0    0 -0.11474956360E+02 -0.21545409297E+02 -0.49877973512E+03  0.49937671496E+03  0.00000000000E+00 0. -1.
        -15    1    1    2    0    0 -0.25312412140E+01 -0.20288600337E+01  0.11763364088E+03  0.11769177818E+03  0.17770000000E+01 0. -1.
         15    1    1    2    0    0  0.31254211078E+01  0.22433386381E+02  0.17125645295E+03  0.17275692602E+03  0.17770000000E+01 0.  1.
</event>
<event>
 6    1  0.2408691E-003  0.5114738E+03  0.7546771E-02  0.9374496E-01
        -11   -1    0    0    0    0  0.00000000000E+00  0.00000000000E+00  0.50000000000E+03  0.50000000000E+03  0.00000000000E+00 0.  1.
         11   -1    0    0    0    0 -0.00000000000E+00 -0.00000000000E+00 -0.50000000000E+03  0.50000000000E+03  0.00000000000E+00 0. -1.
        -11    1    1    2    0    0  0.56648268024E+01 -0.13744907078E+02  0.48829993538E+03  0.48852619134E+03  0.00000000000E+00 0.  1.
         11    1    1    2    0    0 -0.46205919712E+01  0.76722117303E+01 -0.47665031829E+03  0.47673445295E+03  0.00000000000E+00 0. -1.
        -15    1    1    2    0    0 -0.11725895425E+01  0.12797855165E+02  0.70655191196E+01  0.14772926335E+02  0.17770000000E+01 0. -1.
         15    1    1    2    0    0  0.12835471127E+00 -0.67251598174E+01 -0.18715136209E+02  0.19966429371E+02  0.17770000000E+01 0.  1.
</event>
<event>
 6    1  0.2408691E-003  0.5562862E+03  0.7546771E-02  0.9281986E-01
        -11   -1    0    0    0    0  0.00000000000E+00  0.00000000000E+00  0.50000000000E+03  0.50000000000E+03  0.00000000000E+00 0.  1.
         11   -1    0    0    0    0 -0.00000000000E+00 -0.00000000000E+00 -0.50000000000E+03  0.50000000000E+03  0.00000000000E+00 0.  1.
        -11    1    1    2    0    0 -0.75214796468E+02  0.16292343788E+02  0.43698884561E+03  0.44371382360E+03  0.00000000000E+00 0.  1.
         11    1    1    2    0    0  0.25623217117E+01 -0.11554641135E+01 -0.16953860540E+03  0.16956190406E+03  0.00000000000E+00 0.  1.
        -15    1    1    2    0    0  0.60879093703E+02 -0.28653797224E+02  0.40297588923E+02  0.78449713495E+02  0.17770000000E+01 0. -1.
         15    1    1    2    0    0  0.11773381053E+02  0.13516917550E+02 -0.30774782913E+03  0.30827455884E+03  0.17770000000E+01 0.  1.
</event>
<event>
 6    1  0.2408691E-003  0.5112788E+03  0.7546771E-02  0.9374920E-01
        -11   -1    0    0    0    0  0.00000000000E+00  0.00000000000E+00  0.50000000000E+03  0.50000000000E+03  0.00000000000E+00 0.  1.
         11   -1    0    0    0    0 -0.00000000000E+00 -0.00000000000E+00 -0.50000000000E+03  0.50000000000E+03  0.00000000000E+00 0. -1.
        -11    1    1    2    0    0  0.18182455772E+02 -0.25275316426E+02  0.19688497963E+03  0.19933172984E+03  0.00000000000E+00 0.  1.
         11    1    1    2    0    0 -0.19631401942E+02 -0.83369385146E+01 -0.48825555996E+03  0.48872117646E+03  0.00000000000E+00 0. -1.
        -15    1    1    2    0    0 -0.46368106183E+02  0.74946462170E+01  0.20087069872E+03  0.20629679185E+03  0.17770000000E+01 0.  1.
         15    1    1    2    0    0  0.47817052353E+02  0.26117608723E+02  0.90499881610E+02  0.10565030185E+03  0.17770000000E+01 0. -1.
</event>
<event>
 6    1  0.2408691E-003  0.5048042E+03  0.7546771E-02  0.9389124E-01
        -11   -1    0    0    0    0  0.00000000000E+00  0.00000000000E+00  0.50000000000E+03  0.50000000000E+03  0.00000000000E+00 0. -1.
         11   -1    0    0    0    0 -0.00000000000E+00 -0.00000000000E+00 -0.50000000000E+03  0.50000000000E+03  0.00000000000E+00 0. -1.
        -11    1    1    2    0    0  0.43866722995E+01  0.13479932411E+02  0.49499282030E+03  0.49519576293E+03  0.00000000000E+00 0. -1.
         11    1    1    2    0    0 -0.30135740255E+01 -0.55914504661E+01 -0.46704034279E+03  0.46708353400E+03  0.00000000000E+00 0. -1.
        -15    1    1    2    0    0  0.29023667378E+01  0.32620397899E+01 -0.24797646345E+02  0.25241743789E+02  0.17770000000E+01 0. -1.
         15    1    1    2    0    0 -0.42754650118E+01 -0.11150521735E+02 -0.31548311705E+01  0.12478959281E+02  0.17770000000E+01 0. -1.
</event>
<event>
 6    1  0.2408691E-003  0.5010913E+03  0.7546771E-02  0.9397371E-01
        -11   -1    0    0    0    0  0.00000000000E+00  0.00000000000E+00  0.50000000000E+03  0.50000000000E+03  0.00000000000E+00 0.  1.
         11   -1    0    0    0    0 -0.00000000000E+00 -0.00000000000E+00 -0.50000000000E+03  0.50000000000E+03  0.00000000000E+00 0. -1.
        -11    1    1    2    0    0 -0.77248991489E+01  0.38073912696E+01  0.49883437319E+03  0.49890871126E+03  0.00000000000E+00 0.  1.
         11    1    1    2    0    0 -0.18029689119E+01 -0.11104662948E+02 -0.43168065834E+03  0.43182722820E+03  0.00000000000E+00 0. -1.
        -15    1    1    2    0    0  0.84772619918E+01  0.10214159691E+02 -0.52615754077E+02  0.54293354429E+02  0.17770000000E+01 0. -1.
         15    1    1    2    0    0  0.10506060690E+01 -0.29168880120E+01 -0.14537960777E+02  0.14970706107E+02  0.17770000000E+01 0.  1.
</event>
<event>
 6    1  0.2408691E-003  0.5026085E+03  0.7546771E-02  0.9393992E-01
        -11   -1    0    0    0    0  0.00000000000E+00  0.00000000000E+00  0.50000000000E+03  0.50000000000E+03  0.00000000000E+00 0. -1.
         11   -1    0    0    0    0 -0.00000000000E+00 -0.00000000000E+00 -0.50000000000E+03  0.50000000000E+03  0.00000000000E+00 0.  1.
        -11    1    1    2    0    0  0.11712091482E+02 -0.71923930315E+01  0.49720153859E+03  0.49739146915E+03  0.00000000000E+00 0. -1.
         11    1    1    2    0    0  0.60335382253E+00 -0.11251046610E+02 -0.40901872970E+03  0.40917388887E+03  0.00000000000E+00 0.  1.
        -15    1    1    2    0    0  0.49078340393E+01  0.27391907200E+01 -0.81526260322E+01  0.10060469223E+02  0.17770000000E+01 0. -1.
         15    1    1    2    0    0 -0.17223279344E+02  0.15704248922E+02 -0.80030182857E+02  0.83374172755E+02  0.17770000000E+01 0.  1.
</event>
<event>
 6    1  0.2408691E-003  0.4667930E+03  0.7546771E-02  0.9477341E-01
        -11   -1    0    0    0    0  0.00000000000E+00  0.00000000000E+00  0.50000000000E+03  0.50000000000E+03  0.00000000000E+00 0. -1.
         11   -1    0    0    0    0 -0.00000000000E+00 -0.00000000000E+00 -0.50000000000E+03  0.50000000000E+03  0.00000000000E+00 0.  1.
        -11    1    1    2    0    0  0.61110359777E+00 -0.52276196577E+00  0.31593301806E+02  0.31603535351E+02  0.00000000000E+00 0. -1.
         11    1    1    2    0    0 -0.58514915967E+01 -0.39259453619E+02 -0.47475654429E+03  0.47641297317E+03  0.00000000000E+00 0.  1.
        -15    1    1    2    0    0  0.25031767449E+01  0.30755247327E+02 -0.14555655676E+02  0.34163957223E+02  0.17770000000E+01 0.  1.
         15    1    1    2    0    0  0.27372112540E+01  0.90269682576E+01  0.45771889817E+03  0.45781953426E+03  0.17770000000E+01 0. -1.
</event>
<event>
 6    1  0.2408691E-003  0.5062276E+03  0.7546771E-02  0.9385982E-01
        -11   -1    0    0    0    0  0.00000000000E+00  0.00000000000E+00  0.50000000000E+03  0.50000000000E+03  0.00000000000E+00 0.  1.
         11   -1    0    0    0    0 -0.00000000000E+00 -0.00000000000E+00 -0.50000000000E+03  0.50000000000E+03  0.00000000000E+00 0. -1.
        -11    1    1    2    0    0  0.93671285435E+01  0.32651335275E+01  0.47421273331E+03  0.47431647729E+03  0.00000000000E+00 0.  1.
         11    1    1    2    0    0 -0.40607568438E+01  0.11080769814E+02 -0.49363136199E+03  0.49377241189E+03  0.00000000000E+00 0. -1.
        -15    1    1    2    0    0 -0.44182548312E+00 -0.14676506949E+02  0.21684719270E+02  0.26248425568E+02  0.17770000000E+01 0. -1.
         15    1    1    2    0    0 -0.48645462166E+01  0.33060360688E+00 -0.22660905988E+01  0.56626852499E+01  0.17770000000E+01 0.  1.
</event>
<event>
 6    1  0.2408691E-003  0.5071578E+03  0.7546771E-02  0.9383935E-01
        -11   -1    0    0    0    0  0.00000000000E+00  0.00000000000E+00  0.50000000000E+03  0.50000000000E+03  0.00000000000E+00 0. -1.
         11   -1    0    0    0    0 -0.00000000000E+00 -0.00000000000E+00 -0.50000000000E+03  0.50000000000E+03  0.00000000000E+00 0. -1.
        -11    1    1    2    0    0 -0.47047626412E+01 -0.94518239184E+01  0.49272911263E+03  0.49284221633E+03  0.00000000000E+00 0. -1.
         11    1    1    2    0    0 -0.42210521042E+02  0.31482607982E+02 -0.33402943362E+03  0.33815461732E+03  0.00000000000E+00 0. -1.
        -15    1    1    2    0    0  0.10269855929E+02  0.99324539236E+00 -0.11450242065E+02  0.15515226377E+02  0.17770000000E+01 0. -1.
         15    1    1    2    0    0  0.36645427754E+02 -0.23024029456E+02 -0.14724943694E+03  0.15348793997E+03  0.17770000000E+01 0.  1.
</event>
<event>
 6    1  0.2408691E-003  0.5047992E+03  0.7546771E-02  0.9389135E-01
        -11   -1    0    0    0    0  0.00000000000E+00  0.00000000000E+00  0.50000000000E+03  0.50000000000E+03  0.00000000000E+00 0.  1.
         11   -1    0    0    0    0 -0.00000000000E+00 -0.00000000000E+00 -0.50000000000E+03  0.50000000000E+03  0.00000000000E+00 0.  1.
        -11    1    1    2    0    0 -0.95149989413E+01 -0.24107603842E+00  0.45210613092E+03  0.45220631014E+03  0.00000000000E+00 0.  1.
         11    1    1    2    0    0 -0.10642390575E+02  0.23559678752E+01 -0.49508080857E+03  0.49520078562E+03  0.00000000000E+00 0.  1.
        -15    1    1    2    0    0  0.51662163973E+01 -0.18073566066E+01  0.35090443063E+02  0.35559151468E+02  0.17770000000E+01 0.  1.
         15    1    1    2    0    0  0.14991173119E+02 -0.30753523017E+00  0.78842345890E+01  0.17033752771E+02  0.17770000000E+01 0. -1.
</event>
<event>
 6    1  0.2408691E-003  0.5101142E+03  0.7546771E-02  0.9377459E-01
        -11   -1    0    0    0    0  0.00000000000E+00  0.00000000000E+00  0.50000000000E+03  0.50000000000E+03  0.00000000000E+00 0.  1.
         11   -1    0    0    0    0 -0.00000000000E+00 -0.00000000000E+00 -0.50000000000E+03  0.50000000000E+03  0.00000000000E+00 0.  1.
        -11    1    1    2    0    0  0.19325313631E+02  0.15473770079E+02  0.48925984089E+03  0.48988580017E+03  0.00000000000E+00 0.  1.
         11    1    1    2    0    0 -0.25478695280E+00 -0.75077234785E+01 -0.45889312891E+03  0.45895461060E+03  0.00000000000E+00 0.  1.
        -15    1    1    2    0    0 -0.22907190501E+02 -0.13053499693E+02 -0.76660391902E+01  0.27514707281E+02  0.17770000000E+01 0. -1.
         15    1    1    2    0    0  0.38366638233E+01  0.50874530923E+01 -0.22700672783E+02  0.23644881942E+02  0.17770000000E+01 0.  1.
</event>
<event>
 6    1  0.2408691E-003  0.4847765E+03  0.7546771E-02  0.9434533E-01
        -11   -1    0    0    0    0  0.00000000000E+00  0.00000000000E+00  0.50000000000E+03  0.50000000000E+03  0.00000000000E+00 0. -1.
         11   -1    0    0    0    0 -0.00000000000E+00 -0.00000000000E+00 -0.50000000000E+03  0.50000000000E+03  0.00000000000E+00 0.  1.
        -11    1    1    2    0    0 -0.72804420564E+01 -0.30027278254E+01  0.48349534726E+03  0.48355948138E+03  0.00000000000E+00 0. -1.
         11    1    1    2    0    0 -0.82500661824E+01 -0.11151174820E+02 -0.48602649208E+03  0.48622439603E+03  0.00000000000E+00 0.  1.
        -15    1    1    2    0    0  0.14320955251E+02  0.17618276639E+02 -0.33922884999E+01  0.23025177117E+02  0.17770000000E+01 0.  1.
         15    1    1    2    0    0  0.12095529876E+01 -0.34643739929E+01  0.59234333147E+01  0.71909454751E+01  0.17770000000E+01 0. -1.
</event>
<event>
 6    1  0.2408691E-003  0.5001124E+03  0.7546771E-02  0.9399558E-01
        -11   -1    0    0    0    0  0.00000000000E+00  0.00000000000E+00  0.50000000000E+03  0.50000000000E+03  0.00000000000E+00 0. -1.
         11   -1    0    0    0    0 -0.00000000000E+00 -0.00000000000E+00 -0.50000000000E+03  0.50000000000E+03  0.00000000000E+00 0.  1.
        -11    1    1    2    0    0  0.17318212059E+01  0.23325961896E+01  0.15898273942E+03  0.15900928162E+03  0.00000000000E+00 0. -1.
         11    1    1    2    0    0 -0.10024678154E+02 -0.24010410662E+01 -0.49978134151E+03  0.49988763586E+03  0.00000000000E+00 0.  1.
        -15    1    1    2    0    0 -0.21175292617E+01 -0.16581244867E+01  0.47455468560E+02  0.47564824527E+02  0.17770000000E+01 0. -1.
         15    1    1    2    0    0  0.10410386210E+02  0.17265693633E+01  0.29334313353E+03  0.29353825799E+03  0.17770000000E+01 0. -1.
</event>
<event>
 6    1  0.2408691E-003  0.5103225E+03  0.7546771E-02  0.9377004E-01
        -11   -1    0    0    0    0  0.00000000000E+00  0.00000000000E+00  0.50000000000E+03  0.50000000000E+03  0.00000000000E+00 0. -1.
         11   -1    0    0    0    0 -0.00000000000E+00 -0.00000000000E+00 -0.50000000000E+03  0.50000000000E+03  0.00000000000E+00 0. -1.
        -11    1    1    2    0    0 -0.44989759895E+01 -0.11406032859E+02  0.48952392597E+03  0.48967745758E+03  0.00000000000E+00 0. -1.
         11    1    1    2    0    0  0.10393845318E+02 -0.17840785868E+00 -0.46449820384E+03  0.46461451249E+03  0.00000000000E+00 0. -1.
        -15    1    1    2    0    0  0.27396595810E+01  0.59931642469E+01  0.83230402703E+01  0.10763571928E+02  0.17770000000E+01 0. -1.
         15    1    1    2    0    0 -0.86345289091E+01  0.55912764712E+01 -0.33348762402E+02  0.34944457998E+02  0.17770000000E+01 0.  1.
</event>
<event>
 6    1  0.2408691E-003  0.5017408E+03  0.7546771E-02  0.9395923E-01
        -11   -1    0    0    0    0  0.00000000000E+00  0.00000000000E+00  0.50000000000E+03  0.50000000000E+03  0.00000000000E+00 0.  1.
         11   -1    0    0    0    0 -0.00000000000E+00 -0.00000000000E+00 -0.50000000000E+03  0.50000000000E+03  0.00000000000E+00 0.  1.
        -11    1    1    2    0    0  0.40907564061E+01  0.61893232522E+01  0.49820394720E+03  0.49825918457E+03  0.00000000000E+00 0.  1.
         11    1    1    2    0    0  0.31443112056E+01 -0.35529864867E+00 -0.10911696238E+03  0.10916283438E+03  0.00000000000E+00 0.  1.
        -15    1    1    2    0    0 -0.73230070247E+01  0.53076531146E+00 -0.38440396796E+03  0.38447818723E+03  0.17770000000E+01 0.  1.
         15    1    1    2    0    0  0.87939412966E-01 -0.63647899150E+01 -0.46830168525E+01  0.80997938149E+01  0.17770000000E+01 0. -1.
</event>
<event>
 6    1  0.2408691E-003  0.5000227E+03  0.7546771E-02  0.9399759E-01
        -11   -1    0    0    0    0  0.00000000000E+00  0.00000000000E+00  0.50000000000E+03  0.50000000000E+03  0.00000000000E+00 0. -1.
         11   -1    0    0    0    0 -0.00000000000E+00 -0.00000000000E+00 -0.50000000000E+03  0.50000000000E+03  0.00000000000E+00 0. -1.
        -11    1    1    2    0    0  0.30512638095E+00  0.53064968775E+00  0.21990577744E+02  0.21999095452E+02  0.00000000000E+00 0. -1.
         11    1    1    2    0    0 -0.45005758024E+01  0.53636316627E+01 -0.49992829495E+03  0.49997732331E+03  0.00000000000E+00 0. -1.
        -15    1    1    2    0    0  0.45870989101E+01 -0.34347327274E+01  0.31940547956E+03  0.31946182396E+03  0.17770000000E+01 0. -1.
         15    1    1    2    0    0 -0.39164948869E+00 -0.24595486230E+01  0.15853223764E+03  0.15856175728E+03  0.17770000000E+01 0.  1.
</event>
<event>
 6    1  0.2408691E-003  0.5054695E+03  0.7546771E-02  0.9387654E-01
        -11   -1    0    0    0    0  0.00000000000E+00  0.00000000000E+00  0.50000000000E+03  0.50000000000E+03  0.00000000000E+00 0.  1.
         11   -1    0    0    0    0 -0.00000000000E+00 -0.00000000000E+00 -0.50000000000E+03  0.50000000000E+03  0.00000000000E+00 0.  1.
        -11    1    1    2    0    0  0.45642520828E+01  0.91443916148E+01  0.21756533400E+03  0.21780524983E+03  0.00000000000E+00 0.  1.
         11    1    1    2    0    0  0.18849333206E+02 -0.58360093649E+01 -0.49413670517E+03  0.49453052460E+03  0.00000000000E+00 0.  1.
        -15    1    1    2    0    0 -0.30787158471E+02 -0.30131325235E+02  0.99891259599E+02  0.10879874705E+03  0.17770000000E+01 0. -1.
         15    1    1    2    0    0  0.73735731814E+01  0.26822942985E+02  0.17668011157E+03  0.17886547852E+03  0.17770000000E+01 0.  1.
</event>
<event>
 6    1  0.2408691E-003  0.5019142E+03  0.7546771E-02  0.9395537E-01
        -11   -1    0    0    0    0  0.00000000000E+00  0.00000000000E+00  0.50000000000E+03  0.50000000000E+03  0.00000000000E+00 0.  1.
         11   -1    0    0    0    0 -0.00000000000E+00 -0.00000000000E+00 -0.50000000000E+03  0.50000000000E+03  0.00000000000E+00 0.  1.
        -11    1    1    2    0    0 -0.16259434747E+01  0.88581615835E+01  0.49800439221E+03  0.49808582130E+03  0.00000000000E+00 0.  1.
         11    1    1    2    0    0  0.71481312458E+01 -0.19793719148E+01 -0.45547045030E+03  0.45553083846E+03  0.00000000000E+00 0.  1.
        -15    1    1    2    0    0 -0.14933404749E+01  0.36056167781E+00  0.60048510765E+00  0.24245374532E+01  0.17770000000E+01 0. -1.
         15    1    1    2    0    0 -0.40288472961E+01 -0.72393513465E+01 -0.43134427025E+02  0.43958802784E+02  0.17770000000E+01 0.  1.
</event>
<event>
 6    1  0.2408691E-003  0.5078079E+03  0.7546771E-02  0.9382506E-01
        -11   -1    0    0    0    0  0.00000000000E+00  0.00000000000E+00  0.50000000000E+03  0.50000000000E+03  0.00000000000E+00 0. -1.
         11   -1    0    0    0    0 -0.00000000000E+00 -0.00000000000E+00 -0.50000000000E+03  0.50000000000E+03  0.00000000000E+00 0. -1.
        -11    1    1    2    0    0  0.33823451866E+01 -0.18782327408E+02  0.45774317425E+03  0.45814084042E+03  0.00000000000E+00 0. -1.
         11    1    1    2    0    0  0.12263316401E+02 -0.28443199994E+01 -0.49203104576E+03  0.49219206523E+03  0.00000000000E+00 0. -1.
        -15    1    1    2    0    0 -0.13009493576E+02  0.24253945990E+02  0.18163921433E+02  0.33024030493E+02  0.17770000000E+01 0. -1.
         15    1    1    2    0    0 -0.26361680120E+01 -0.26272985824E+01  0.16123950072E+02  0.16643063857E+02  0.17770000000E+01 0.  1.
</event>
<event>
 6    1  0.2408691E-003  0.5346171E+03  0.7546771E-02  0.9325518E-01
        -11   -1    0    0    0    0  0.00000000000E+00  0.00000000000E+00  0.50000000000E+03  0.50000000000E+03  0.00000000000E+00 0. -1.
         11   -1    0    0    0    0 -0.00000000000E+00 -0.00000000000E+00 -0.50000000000E+03  0.50000000000E+03  0.00000000000E+00 0. -1.
        -11    1    1    2    0    0  0.37193187559E+02 -0.70948729826E+02  0.21976011650E+03  0.23390503259E+03  0.00000000000E+00 0. -1.
         11    1    1    2    0    0 -0.43316164356E+02  0.55651220984E+01 -0.46332921447E+03  0.46538287641E+03  0.00000000000E+00 0. -1.
        -15    1    1    2    0    0  0.15258266364E+02  0.27051178145E+02 -0.18164023022E+02  0.36023192430E+02  0.17770000000E+01 0.  1.
         15    1    1    2    0    0 -0.91352895670E+01  0.38332429582E+02  0.26173312099E+03  0.26468889857E+03  0.17770000000E+01 0. -1.
</event>
<event>
 6    1  0.2408691E-003  0.5265234E+03  0.7546771E-02  0.9342342E-01
        -11   -1    0    0    0    0  0.00000000000E+00  0.00000000000E+00  0.50000000000E+03  0.50000000000E+03  0.00000000000E+00 0. -1.
         11   -1    0    0    0    0 -0.00000000000E+00 -0.00000000000E+00 -0.50000000000E+03  0.50000000000E+03  0.00000000000E+00 0.  1.
        -11    1    1    2    0    0  0.70729011530E+01 -0.16776730771E+00  0.44746976380E+03  0.44752569043E+03  0.00000000000E+00 0. -1.
         11    1    1    2    0    0  0.72002379062E+01  0.13295581578E+02 -0.47323510146E+03  0.47347658566E+03  0.00000000000E+00 0.  1.
        -15    1    1    2    0    0 -0.10684806932E+02 -0.15582467918E+02 -0.23106562776E+02  0.29900658486E+02  0.17770000000E+01 0.  1.
         15    1    1    2    0    0 -0.35883321277E+01  0.24546536476E+01  0.48871900437E+02  0.49097065424E+02  0.17770000000E+01 0. -1.
</event>
<event>
 6    1  0.2408691E-003  0.5167220E+03  0.7546771E-02  0.9363151E-01
        -11   -1    0    0    0    0  0.00000000000E+00  0.00000000000E+00  0.50000000000E+03  0.50000000000E+03  0.00000000000E+00 0. -1.
         11   -1    0    0    0    0 -0.00000000000E+00 -0.00000000000E+00 -0.50000000000E+03  0.50000000000E+03  0.00000000000E+00 0.  1.
        -11    1    1    2    0    0 -0.95962114382E+01 -0.10066957449E+02  0.46331793399E+03  0.46352663231E+03  0.00000000000E+00 0. -1.
         11    1    1    2    0    0 -0.53705651560E+01 -0.14335408849E+02 -0.48303547029E+03  0.48327798675E+03  0.00000000000E+00 0.  1.
        -15    1    1    2    0    0  0.99737540922E+01  0.13779256068E+02  0.31893491024E+02  0.36189724608E+02  0.17770000000E+01 0. -1.
         15    1    1    2    0    0  0.49930225020E+01  0.10623110230E+02 -0.12175954721E+02  0.17005656325E+02  0.17770000000E+01 0.  1.
</event>
<event>
 6    1  0.2408691E-003  0.5006907E+03  0.7546771E-02  0.9398266E-01
        -11   -1    0    0    0    0  0.00000000000E+00  0.00000000000E+00  0.50000000000E+03  0.50000000000E+03  0.00000000000E+00 0.  1.
         11   -1    0    0    0    0 -0.00000000000E+00 -0.00000000000E+00 -0.50000000000E+03  0.50000000000E+03  0.00000000000E+00 0. -1.
        -11    1    1    2    0    0  0.67599310224E+01  0.22052532173E+01  0.49925868664E+03  0.49930931896E+03  0.00000000000E+00 0.  1.
         11    1    1    2    0    0  0.65254790424E+01  0.10004892303E+02 -0.28278510246E+03  0.28303726596E+03  0.00000000000E+00 0. -1.
        -15    1    1    2    0    0 -0.12687852944E+02 -0.14572845691E+02 -0.19612241024E+03  0.19707995071E+03  0.17770000000E+01 0. -1.
         15    1    1    2    0    0 -0.59755712110E+00  0.23627001711E+01 -0.20351173944E+02  0.20573464378E+02  0.17770000000E+01 0.  1.
</event>
<event>
 6    1  0.2408691E-003  0.5508821E+03  0.7546771E-02  0.9292644E-01
        -11   -1    0    0    0    0  0.00000000000E+00  0.00000000000E+00  0.50000000000E+03  0.50000000000E+03  0.00000000000E+00 0. -1.
         11   -1    0    0    0    0 -0.00000000000E+00 -0.00000000000E+00 -0.50000000000E+03  0.50000000000E+03  0.00000000000E+00 0. -1.
        -11    1    1    2    0    0 -0.42287934434E+01 -0.27853114899E+02  0.44823346296E+03  0.44911793109E+03  0.00000000000E+00 0. -1.
         11    1    1    2    0    0 -0.12856689372E+01  0.98202191801E+01 -0.39671689781E+03  0.39684050532E+03  0.00000000000E+00 0. -1.
        -15    1    1    2    0    0  0.68158290637E+01  0.44148239628E+02  0.39296598419E+02  0.59522289643E+02  0.17770000000E+01 0.  1.
         15    1    1    2    0    0 -0.13013666831E+01 -0.26115343909E+02 -0.90813163566E+02  0.94519273953E+02  0.17770000000E+01 0. -1.
</event>
<event>
 6    1  0.2408691E-003  0.5005722E+03  0.7546771E-02  0.9398530E-01
        -11   -1    0    0    0    0  0.00000000000E+00  0.00000000000E+00  0.50000000000E+03  0.50000000000E+03  0.00000000000E+00 0. -1.
         11   -1    0    0    0    0 -0.00000000000E+00 -0.00000000000E+00 -0.50000000000E+03  0.50000000000E+03  0.00000000000E+00 0.  1.
        -11    1    1    2    0    0 -0.61558079193E-01  0.18419650862E+01  0.58967509645E+02  0.58996303431E+02  0.00000000000E+00 0. -1.
         11    1    1    2    0    0  0.62803315926E+01 -0.50915728201E+01 -0.49936239093E+03  0.49942783678E+03  0.00000000000E+00 0.  1.
        -15    1    1    2    0    0 -0.12718464593E+02 -0.14128390419E+01  0.40647603939E+03  0.40668130494E+03  0.17770000000E+01 0. -1.
         15    1    1    2    0    0  0.64996910791E+01  0.46624467758E+01  0.33918841891E+02  0.34894554851E+02  0.17770000000E+01 0.  1.
</event>
<event>
 6    1  0.2408691E-003  0.5065929E+03  0.7546771E-02  0.9385177E-01
        -11   -1    0    0    0    0  0.00000000000E+00  0.00000000000E+00  0.50000000000E+03  0.50000000000E+03  0.00000000000E+00 0. -1.
         11   -1    0    0    0    0 -0.00000000000E+00 -0.00000000000E+00 -0.50000000000E+03  0.50000000000E+03  0.00000000000E+00 0.  1.
        -11    1    1    2    0    0  0.48115085100E+01 -0.88052816818E+01  0.49330505062E+03  0.49340709010E+03  0.00000000000E+00 0. -1.
         11    1    1    2    0    0  0.52325556628E+01  0.96968949905E+01 -0.48123929538E+03  0.48136542131E+03  0.00000000000E+00 0.  1.
        -15    1    1    2    0    0 -0.43758260606E+01  0.80386329523E+01 -0.33038229101E+00  0.93292204880E+01  0.17770000000E+01 0. -1.
         15    1    1    2    0    0 -0.56682381122E+01 -0.89302462610E+01 -0.11735372944E+02  0.15898268104E+02  0.17770000000E+01 0.  1.
</event>
<event>
 6    1  0.2408691E-003  0.5121542E+03  0.7546771E-02  0.9373017E-01
        -11   -1    0    0    0    0  0.00000000000E+00  0.00000000000E+00  0.50000000000E+03  0.50000000000E+03  0.00000000000E+00 0. -1.
         11   -1    0    0    0    0 -0.00000000000E+00 -0.00000000000E+00 -0.50000000000E+03  0.50000000000E+03  0.00000000000E+00 0.  1.
        -11    1    1    2    0    0 -0.43262945546E+01 -0.13188003034E+02  0.88547977216E+02  0.89629149933E+02  0.00000000000E+00 0. -1.
         11    1    1    2    0    0  0.45271979219E+01 -0.22190944622E+02 -0.48731979177E+03  0.48784578813E+03  0.00000000000E+00 0.  1.
        -15    1    1    2    0    0  0.22393070675E+02  0.63360586173E+02  0.93618061738E+02  0.11525412230E+03  0.17770000000E+01 0.  1.
         15    1    1    2    0    0 -0.22593974042E+02 -0.27981638517E+02  0.30515375282E+03  0.30727093964E+03  0.17770000000E+01 0. -1.
</event>
<event>
 6    1  0.2408691E-003  0.5047302E+03  0.7546771E-02  0.9389287E-01
        -11   -1    0    0    0    0  0.00000000000E+00  0.00000000000E+00  0.50000000000E+03  0.50000000000E+03  0.00000000000E+00 0.  1.
         11   -1    0    0    0    0 -0.00000000000E+00 -0.00000000000E+00 -0.50000000000E+03  0.50000000000E+03  0.00000000000E+00 0. -1.
        -11    1    1    2    0    0 -0.27683154906E+01 -0.16751629025E+02  0.49497870955E+03  0.49526982903E+03  0.00000000000E+00 0.  1.
         11    1    1    2    0    0 -0.29553811907E+01  0.51534821511E+01 -0.34232442987E+03  0.34237597454E+03  0.00000000000E+00 0. -1.
        -15    1    1    2    0    0  0.20964800399E+02  0.22887507861E+01 -0.22202530991E+02  0.30673626250E+02  0.17770000000E+01 0. -1.
         15    1    1    2    0    0 -0.15241103717E+02  0.93093960875E+01 -0.13045174869E+03  0.13168057018E+03  0.17770000000E+01 0.  1.
</event>
<event>
 6    1  0.2408691E-003  0.5052800E+03  0.7546771E-02  0.9388072E-01
        -11   -1    0    0    0    0  0.00000000000E+00  0.00000000000E+00  0.50000000000E+03  0.50000000000E+03  0.00000000000E+00 0.  1.
         11   -1    0    0    0    0 -0.00000000000E+00 -0.00000000000E+00 -0.50000000000E+03  0.50000000000E+03  0.00000000000E+00 0.  1.
        -11    1    1    2    0    0 -0.82549405174E+01  0.66283294058E+00  0.47448824220E+03  0.47456050760E+03  0.00000000000E+00 0.  1.
         11    1    1    2    0    0 -0.20124659265E+01  0.99209707319E+01 -0.49461638081E+03  0.49471996103E+03  0.00000000000E+00 0.  1.
        -15    1    1    2    0    0  0.45670843024E+01 -0.13661035176E+02  0.73155579677E+01  0.16252915384E+02  0.17770000000E+01 0.  1.
         15    1    1    2    0    0  0.57003221415E+01  0.30772315032E+01  0.12812580642E+02  0.14466615981E+02  0.17770000000E+01 0. -1.
</event>
<event>
 6    1  0.2408691E-003  0.5155171E+03  0.7546771E-02  0.9365743E-01
        -11   -1    0    0    0    0  0.00000000000E+00  0.00000000000E+00  0.50000000000E+03  0.50000000000E+03  0.00000000000E+00 0.  1.
         11   -1    0    0    0    0 -0.00000000000E+00 -0.00000000000E+00 -0.50000000000E+03  0.50000000000E+03  0.00000000000E+00 0.  1.
        -11    1    1    2    0    0 -0.47049108440E+01  0.99810526272E+01  0.48435725680E+03  0.48448293036E+03  0.00000000000E+00 0.  1.
         11    1    1    2    0    0 -0.45445784775E+01 -0.51862878234E+01 -0.41255476349E+03  0.41261238912E+03  0.00000000000E+00 0.  1.
        -15    1    1    2    0    0  0.26712223768E+01 -0.28868628270E+01 -0.86492034906E+02  0.86599649174E+02  0.17770000000E+01 0.  1.
         15    1    1    2    0    0  0.65782669447E+01 -0.19079019767E+01  0.14689541592E+02  0.16305031344E+02  0.17770000000E+01 0. -1.
</event>
<event>
 6    1  0.2408691E-003  0.5025549E+03  0.7546771E-02  0.9394111E-01
        -11   -1    0    0    0    0  0.00000000000E+00  0.00000000000E+00  0.50000000000E+03  0.50000000000E+03  0.00000000000E+00 0.  1.
         11   -1    0    0    0    0 -0.00000000000E+00 -0.00000000000E+00 -0.50000000000E+03  0.50000000000E+03  0.00000000000E+00 0. -1.
        -11    1    1    2    0    0  0.14096035450E+02 -0.18738888010E+01  0.49724182427E+03  0.49744511403E+03  0.00000000000E+00 0.  1.
         11    1    1    2    0    0 -0.73564292595E+01  0.18208409312E+01 -0.41376156479E+03  0.41383096188E+03  0.00000000000E+00 0. -1.
        -15    1    1    2    0    0 -0.54612962541E+00  0.10977910708E+02 -0.67047295997E+02  0.67965508978E+02  0.17770000000E+01 0. -1.
         15    1    1    2    0    0 -0.61934765652E+01 -0.10924862838E+02 -0.16432963479E+02  0.20758415106E+02  0.17770000000E+01 0.  1.
</event>
<event>
 6    1  0.2408691E-003  0.5048983E+03  0.7546771E-02  0.9388916E-01
        -11   -1    0    0    0    0  0.00000000000E+00  0.00000000000E+00  0.50000000000E+03  0.50000000000E+03  0.00000000000E+00 0. -1.
         11   -1    0    0    0    0 -0.00000000000E+00 -0.00000000000E+00 -0.50000000000E+03  0.50000000000E+03  0.00000000000E+00 0. -1.
        -11    1    1    2    0    0  0.40136414520E+01 -0.11540074706E+02  0.49495091140E+03  0.49510169394E+03  0.00000000000E+00 0. -1.
         11    1    1    2    0    0  0.76859041030E+01 -0.75349647404E-01 -0.36946458373E+03  0.36954452700E+03  0.00000000000E+00 0. -1.
        -15    1    1    2    0    0 -0.25846207722E+02  0.72867596331E+01 -0.11222464686E+03  0.11540646607E+03  0.17770000000E+01 0. -1.
         15    1    1    2    0    0  0.14146662167E+02  0.43286647201E+01 -0.13261680814E+02  0.19947312995E+02  0.17770000000E+01 0.  1.
</event>
<event>
 6    1  0.2408691E-003  0.5006415E+03  0.7546771E-02  0.9398376E-01
        -11   -1    0    0    0    0  0.00000000000E+00  0.00000000000E+00  0.50000000000E+03  0.50000000000E+03  0.00000000000E+00 0.  1.
         11   -1    0    0    0    0 -0.00000000000E+00 -0.00000000000E+00 -0.50000000000E+03  0.50000000000E+03  0.00000000000E+00 0. -1.
        -11    1    1    2    0    0  0.10428841853E+02  0.30916634218E+01  0.49924006032E+03  0.49935854549E+03  0.00000000000E+00 0.  1.
         11    1    1    2    0    0 -0.89173690207E+01  0.77641070138E+01 -0.36628585122E+03  0.36647663722E+03  0.00000000000E+00 0. -1.
        -15    1    1    2    0    0 -0.65090094318E+01 -0.48955798396E+01 -0.39467153628E+02  0.40337920748E+02  0.17770000000E+01 0.  1.
         15    1    1    2    0    0  0.49975365996E+01 -0.59601905960E+01 -0.93487055475E+02  0.93826896540E+02  0.17770000000E+01 0. -1.
</event>
<event>
 6    1  0.2408691E-003  0.4862320E+03  0.7546771E-02  0.9431155E-01
        -11   -1    0    0    0    0  0.00000000000E+00  0.00000000000E+00  0.50000000000E+03  0.50000000000E+03  0.00000000000E+00 0.  1.
         11   -1    0    0    0    0 -0.00000000000E+00 -0.00000000000E+00 -0.50000000000E+03  0.50000000000E+03  0.00000000000E+00 0.  1.
        -11    1    1    2    0    0  0.18055149461E+01 -0.12395150158E+02  0.48717010125E+03  0.48733110631E+03  0.00000000000E+00 0.  1.
         11    1    1    2    0    0 -0.56264096903E+01 -0.41035043367E+01 -0.48523228602E+03  0.48528225460E+03  0.00000000000E+00 0.  1.
        -15    1    1    2    0    0  0.89968743314E+01  0.12035732094E+02  0.64268904412E+01  0.16439745878E+02  0.17770000000E+01 0. -1.
         15    1    1    2    0    0 -0.51759795872E+01  0.44629224002E+01 -0.83647056644E+01  0.10946893207E+02  0.17770000000E+01 0.  1.
</event>
<event>
 6    1  0.2408691E-003  0.4882479E+03  0.7546771E-02  0.9426497E-01
        -11   -1    0    0    0    0  0.00000000000E+00  0.00000000000E+00  0.50000000000E+03  0.50000000000E+03  0.00000000000E+00 0.  1.
         11   -1    0    0    0    0 -0.00000000000E+00 -0.00000000000E+00 -0.50000000000E+03  0.50000000000E+03  0.00000000000E+00 0.  1.
        -11    1    1    2    0    0 -0.95063518563E+00 -0.71490182967E+01  0.49114246310E+03  0.49119541043E+03  0.00000000000E+00 0.  1.
         11    1    1    2    0    0  0.75242181467E+01 -0.45856871876E+01 -0.48533027012E+03  0.48541025276E+03  0.00000000000E+00 0.  1.
        -15    1    1    2    0    0 -0.99274098517E+00  0.17215582793E+01  0.61672593788E+01  0.67187881957E+01  0.17770000000E+01 0.  1.
         15    1    1    2    0    0 -0.55808419759E+01  0.10013147205E+02 -0.11979452355E+02  0.16675548622E+02  0.17770000000E+01 0. -1.
</event>
<event>
 6    1  0.2408691E-003  0.5111357E+03  0.7546771E-02  0.9375232E-01
        -11   -1    0    0    0    0  0.00000000000E+00  0.00000000000E+00  0.50000000000E+03  0.50000000000E+03  0.00000000000E+00 0.  1.
         11   -1    0    0    0    0 -0.00000000000E+00 -0.00000000000E+00 -0.50000000000E+03  0.50000000000E+03  0.00000000000E+00 0. -1.
        -11    1    1    2    0    0 -0.34518347350E+00  0.33102047837E+02  0.39551639549E+03  0.39689933715E+03  0.00000000000E+00 0.  1.
         11    1    1    2    0    0 -0.10176910746E+02  0.90833399079E+01 -0.48867391894E+03  0.48886427117E+03  0.00000000000E+00 0. -1.
        -15    1    1    2    0    0  0.27618916651E+01  0.18146270581E+00  0.59379893378E+02  0.59470920968E+02  0.17770000000E+01 0. -1.
         15    1    1    2    0    0  0.77602025543E+01 -0.42366850451E+02  0.33777630067E+02  0.54765470716E+02  0.17770000000E+01 0.  1.
</event>
<event>
 6    1  0.2408691E-003  0.5327694E+03  0.7546771E-02  0.9329331E-01
        -11   -1    0    0    0    0  0.00000000000E+00  0.00000000000E+00  0.50000000000E+03  0.50000000000E+03  0.00000000000E+00 0.  1.
         11   -1    0    0    0    0 -0.00000000000E+00 -0.00000000000E+00 -0.50000000000E+03  0.50000000000E+03  0.00000000000E+00 0.  1.
        -11    1    1    2    0    0 -0.13220403136E+02  0.15468247920E+01  0.46704099371E+03  0.46723062992E+03  0.00000000000E+00 0.  1.
         11    1    1    2    0    0 -0.68755186001E+01 -0.39554296407E+01 -0.45389445835E+03  0.45396376232E+03  0.00000000000E+00 0.  1.
        -15    1    1    2    0    0 -0.56481848840E+01 -0.14695699715E+02 -0.36654907365E+02  0.39932512387E+02  0.17770000000E+01 0. -1.
         15    1    1    2    0    0  0.25744106620E+02  0.17104304564E+02  0.23508372005E+02  0.38873095369E+02  0.17770000000E+01 0.  1.
</event>
<event>
 6    1  0.2408691E-003  0.5001844E+03  0.7546771E-02  0.9399397E-01
        -11   -1    0    0    0    0  0.00000000000E+00  0.00000000000E+00  0.50000000000E+03  0.50000000000E+03  0.00000000000E+00 0. -1.
         11   -1    0    0    0    0 -0.00000000000E+00 -0.00000000000E+00 -0.50000000000E+03  0.50000000000E+03  0.00000000000E+00 0.  1.
        -11    1    1    2    0    0  0.19870394977E+01  0.24412879485E+01  0.18660801012E+02  0.18924420921E+02  0.00000000000E+00 0. -1.
         11    1    1    2    0    0 -0.12537906586E+02 -0.21196233622E+01 -0.49965385009E+03  0.49981562782E+03  0.00000000000E+00 0.  1.
        -15    1    1    2    0    0  0.28775518676E+01 -0.47698401014E+01  0.28297358345E+03  0.28303398796E+03  0.17770000000E+01 0.  1.
         15    1    1    2    0    0  0.76733152204E+01  0.44481755151E+01  0.19801946562E+03  0.19822596330E+03  0.17770000000E+01 0. -1.
</event>
<event>
 6    1  0.2408691E-003  0.5060949E+03  0.7546771E-02  0.9386274E-01
        -11   -1    0    0    0    0  0.00000000000E+00  0.00000000000E+00  0.50000000000E+03  0.50000000000E+03  0.00000000000E+00 0.  1.
         11   -1    0    0    0    0 -0.00000000000E+00 -0.00000000000E+00 -0.50000000000E+03  0.50000000000E+03  0.00000000000E+00 0.  1.
        -11    1    1    2    0    0 -0.13171781232E+02 -0.78747738002E+01  0.44670548493E+03  0.44696901252E+03  0.00000000000E+00 0.  1.
         11    1    1    2    0    0 -0.42611300692E+01  0.92699727456E+01 -0.49379968267E+03  0.49390506803E+03  0.00000000000E+00 0.  1.
        -15    1    1    2    0    0  0.11027214817E+02  0.96980470925E+01  0.58590261461E+01  0.15910295422E+02  0.17770000000E+01 0. -1.
         15    1    1    2    0    0  0.64056964842E+01 -0.11093246038E+02  0.41235171593E+02  0.43215624031E+02  0.17770000000E+01 0.  1.
</event>
<event>
 6    1  0.2408691E-003  0.5030688E+03  0.7546771E-02  0.9392969E-01
        -11   -1    0    0    0    0  0.00000000000E+00  0.00000000000E+00  0.50000000000E+03  0.50000000000E+03  0.00000000000E+00 0.  1.
         11   -1    0    0    0    0 -0.00000000000E+00 -0.00000000000E+00 -0.50000000000E+03  0.50000000000E+03  0.00000000000E+00 0. -1.
        -11    1    1    2    0    0 -0.90648056869E+01 -0.38655331729E+01  0.35463578385E+03  0.35477267684E+03  0.00000000000E+00 0.  1.
         11    1    1    2    0    0  0.54806901557E+01  0.33960681877E+02 -0.49573909437E+03  0.49693119802E+03  0.00000000000E+00 0. -1.
        -15    1    1    2    0    0  0.54980393406E+01 -0.16134436784E+02  0.12744294896E+03  0.12859009081E+03  0.17770000000E+01 0.  1.
         15    1    1    2    0    0 -0.19139238093E+01 -0.13960711921E+02  0.13660361570E+02  0.19706034327E+02  0.17770000000E+01 0. -1.
</event>
<event>
 6    1  0.2408691E-003  0.5042631E+03  0.7546771E-02  0.9390321E-01
        -11   -1    0    0    0    0  0.00000000000E+00  0.00000000000E+00  0.50000000000E+03  0.50000000000E+03  0.00000000000E+00 0. -1.
         11   -1    0    0    0    0 -0.00000000000E+00 -0.00000000000E+00 -0.50000000000E+03  0.50000000000E+03  0.00000000000E+00 0.  1.
        -11    1    1    2    0    0 -0.27240631184E+01 -0.78586713605E+01  0.49566707486E+03  0.49573685392E+03  0.00000000000E+00 0. -1.
         11    1    1    2    0    0 -0.77084143568E+01  0.29268752814E+01 -0.48711017909E+03  0.48717995938E+03  0.00000000000E+00 0.  1.
        -15    1    1    2    0    0  0.21761610645E+01 -0.18193399941E+01 -0.86616455300E-01  0.33482691653E+01  0.17770000000E+01 0. -1.
         15    1    1    2    0    0  0.82563164106E+01  0.67511360732E+01 -0.84702793126E+01  0.13734917531E+02  0.17770000000E+01 0.  1.
</event>
<event>
 6    1  0.2408691E-003  0.5210955E+03  0.7546771E-02  0.9353806E-01
        -11   -1    0    0    0    0  0.00000000000E+00  0.00000000000E+00  0.50000000000E+03  0.50000000000E+03  0.00000000000E+00 0. -1.
         11   -1    0    0    0    0 -0.00000000000E+00 -0.00000000000E+00 -0.50000000000E+03  0.50000000000E+03  0.00000000000E+00 0.  1.
        -11    1    1    2    0    0 -0.13052144064E+02 -0.29519047609E+00  0.47872650718E+03  0.47890449390E+03  0.00000000000E+00 0. -1.
         11    1    1    2    0    0  0.55648012722E+01  0.11964702749E+02 -0.44610060994E+03  0.44629572630E+03  0.00000000000E+00 0.  1.
        -15    1    1    2    0    0  0.33687251949E+02 -0.14428184303E+02 -0.31523070853E+02  0.48372152848E+02  0.17770000000E+01 0. -1.
         15    1    1    2    0    0 -0.26199909157E+02  0.27586720294E+01 -0.11028263787E+01  0.26427626950E+02  0.17770000000E+01 0.  1.
</event>
<event>
 6    1  0.2408691E-003  0.5003333E+03  0.7546771E-02  0.9399064E-01
        -11   -1    0    0    0    0  0.00000000000E+00  0.00000000000E+00  0.50000000000E+03  0.50000000000E+03  0.00000000000E+00 0.  1.
         11   -1    0    0    0    0 -0.00000000000E+00 -0.00000000000E+00 -0.50000000000E+03  0.50000000000E+03  0.00000000000E+00 0.  1.
        -11    1    1    2    0    0  0.97522835171E+01  0.46248884956E+01  0.49955013131E+03  0.49966671924E+03  0.00000000000E+00 0.  1.
         11    1    1    2    0    0 -0.88710767763E+01  0.31049353821E+01 -0.24869015173E+03  0.24886769214E+03  0.00000000000E+00 0.  1.
        -15    1    1    2    0    0 -0.22324811598E+01 -0.12153374951E+02 -0.17748996971E+03  0.17792845633E+03  0.17770000000E+01 0. -1.
         15    1    1    2    0    0  0.13512744190E+01  0.44235510737E+01 -0.73370009875E+02  0.73537132285E+02  0.17770000000E+01 0.  1.
</event>
<event>
 6    1  0.2408691E-003  0.5045587E+03  0.7546771E-02  0.9389667E-01
        -11   -1    0    0    0    0  0.00000000000E+00  0.00000000000E+00  0.50000000000E+03  0.50000000000E+03  0.00000000000E+00 0.  1.
         11   -1    0    0    0    0 -0.00000000000E+00 -0.00000000000E+00 -0.50000000000E+03  0.50000000000E+03  0.00000000000E+00 0. -1.
        -11    1    1    2    0    0 -0.13789354476E+02  0.25368169063E+01  0.49524287685E+03  0.49544130713E+03  0.00000000000E+00 0.  1.
         11    1    1    2    0    0 -0.69970508886E+01 -0.97911485648E+01 -0.39484943691E+03  0.39503278742E+03  0.00000000000E+00 0. -1.
        -15    1    1    2    0    0  0.94971572123E+01  0.81935377036E+01 -0.96630657213E+02  0.97457537922E+02  0.17770000000E+01 0. -1.
         15    1    1    2    0    0  0.11289248152E+02 -0.93920604507E+00 -0.37627827332E+01  0.12068367525E+02  0.17770000000E+01 0.  1.
</event>
<event>
 6    1  0.2408691E-003  0.5022622E+03  0.7546771E-02  0.9394762E-01
        -11   -1    0    0    0    0  0.00000000000E+00  0.00000000000E+00  0.50000000000E+03  0.50000000000E+03  0.00000000000E+00 0.  1.
         11   -1    0    0    0    0 -0.00000000000E+00 -0.00000000000E+00 -0.50000000000E+03  0.50000000000E+03  0.00000000000E+00 0.  1.
        -11    1    1    2    0    0 -0.21002373293E+00  0.97608454517E+01  0.49764204610E+03  0.49773780675E+03  0.00000000000E+00 0.  1.
         11    1    1    2    0    0  0.36132132798E+00 -0.10375069153E+02 -0.12052826638E+03  0.12097452463E+03  0.00000000000E+00 0.  1.
        -15    1    1    2    0    0 -0.44095833806E+01 -0.11832212072E+02 -0.18733187388E+02  0.22661326237E+02  0.17770000000E+01 0. -1.
         15    1    1    2    0    0  0.42582857855E+01  0.12446435774E+02 -0.35838059233E+03  0.35862634238E+03  0.17770000000E+01 0.  1.
</event>
<event>
 6    1  0.2408691E-003  0.4807858E+03  0.7546771E-02  0.9443860E-01
        -11   -1    0    0    0    0  0.00000000000E+00  0.00000000000E+00  0.50000000000E+03  0.50000000000E+03  0.00000000000E+00 0. -1.
         11   -1    0    0    0    0 -0.00000000000E+00 -0.00000000000E+00 -0.50000000000E+03  0.50000000000E+03  0.00000000000E+00 0. -1.
        -11    1    1    2    0    0 -0.42499782373E+02  0.13823594396E+01  0.49459476226E+03  0.49641929986E+03  0.00000000000E+00 0. -1.
         11    1    1    2    0    0  0.32040087257E+01 -0.93210666512E+00 -0.44104011151E+02  0.44230060980E+02  0.00000000000E+00 0. -1.
        -15    1    1    2    0    0 -0.77550568094E+01  0.62803217037E+01 -0.32485469486E+03  0.32501279029E+03  0.17770000000E+01 0. -1.
         15    1    1    2    0    0  0.47050830457E+02 -0.67305744782E+01 -0.12563605625E+03  0.13433784887E+03  0.17770000000E+01 0.  1.
</event>
<event>
 6    1  0.2408691E-003  0.5133935E+03  0.7546771E-02  0.9370329E-01
        -11   -1    0    0    0    0  0.00000000000E+00  0.00000000000E+00  0.50000000000E+03  0.50000000000E+03  0.00000000000E+00 0. -1.
         11   -1    0    0    0    0 -0.00000000000E+00 -0.00000000000E+00 -0.50000000000E+03  0.50000000000E+03  0.00000000000E+00 0.  1.
        -11    1    1    2    0    0  0.52465537169E+01 -0.56311990783E+01  0.28041964059E+03  0.28052524228E+03  0.00000000000E+00 0. -1.
         11    1    1    2    0    0  0.46691279453E+02 -0.64897462631E+01 -0.48431771327E+03  0.48660645266E+03  0.00000000000E+00 0.  1.
        -15    1    1    2    0    0 -0.51494531690E+02  0.86083658152E+01  0.32711604469E+02  0.61636008565E+02  0.17770000000E+01 0.  1.
         15    1    1    2    0    0 -0.44330148012E+00  0.35125795263E+01  0.17118646822E+03  0.17123229649E+03  0.17770000000E+01 0. -1.
</event>
<event>
 6    1  0.2408691E-003  0.4625793E+03  0.7546771E-02  0.9487669E-01
        -11   -1    0    0    0    0  0.00000000000E+00  0.00000000000E+00  0.50000000000E+03  0.50000000000E+03  0.00000000000E+00 0. -1.
         11   -1    0    0    0    0 -0.00000000000E+00 -0.00000000000E+00 -0.50000000000E+03  0.50000000000E+03  0.00000000000E+00 0. -1.
        -11    1    1    2    0    0 -0.91305957559E+01 -0.34333559113E+01  0.47946847606E+03  0.47956769621E+03  0.00000000000E+00 0. -1.
         11    1    1    2    0    0  0.24180948606E+02 -0.45856504951E+02 -0.44466675897E+03  0.44767852736E+03  0.00000000000E+00 0. -1.
        -15    1    1    2    0    0 -0.33148350608E+01 -0.12914658898E+00  0.63344182127E+01  0.73679979245E+01  0.17770000000E+01 0. -1.
         15    1    1    2    0    0 -0.11735517789E+02  0.49419007451E+02 -0.41136135296E+02  0.65385778510E+02  0.17770000000E+01 0.  1.
</event>
<event>
 6    1  0.2408691E-003  0.5002506E+03  0.7546771E-02  0.9399249E-01
        -11   -1    0    0    0    0  0.00000000000E+00  0.00000000000E+00  0.50000000000E+03  0.50000000000E+03  0.00000000000E+00 0. -1.
         11   -1    0    0    0    0 -0.00000000000E+00 -0.00000000000E+00 -0.50000000000E+03  0.50000000000E+03  0.00000000000E+00 0. -1.
        -11    1    1    2    0    0 -0.92453873559E+01  0.10876091714E+02  0.49954546280E+03  0.49974937315E+03  0.00000000000E+00 0. -1.
         11    1    1    2    0    0  0.24864922991E+00 -0.49128363707E+01 -0.27525981647E+03  0.27530376741E+03  0.00000000000E+00 0. -1.
        -15    1    1    2    0    0  0.81801451384E+01 -0.98222567240E+01 -0.16982196660E+03  0.17031162488E+03  0.17770000000E+01 0. -1.
         15    1    1    2    0    0  0.81659298765E+00  0.38590013809E+01 -0.54463679737E+02  0.54635234558E+02  0.17770000000E+01 0.  1.
</event>
<event>
 6    1  0.2408691E-003  0.5082528E+03  0.7546771E-02  0.9381531E-01
        -11   -1    0    0    0    0  0.00000000000E+00  0.00000000000E+00  0.50000000000E+03  0.50000000000E+03  0.00000000000E+00 0.  1.
         11   -1    0    0    0    0 -0.00000000000E+00 -0.00000000000E+00 -0.50000000000E+03  0.50000000000E+03  0.00000000000E+00 0.  1.
        -11    1    1    2    0    0 -0.10736884491E+02 -0.30753974419E+02  0.39547436699E+03  0.39681363709E+03  0.00000000000E+00 0.  1.
         11    1    1    2    0    0 -0.12739934264E+02 -0.46433479272E+01 -0.49156023942E+03  0.49174722733E+03  0.00000000000E+00 0.  1.
        -15    1    1    2    0    0  0.31736407139E+02  0.23624104649E+02  0.54273003735E+02  0.67186416201E+02  0.17770000000E+01 0. -1.
         15    1    1    2    0    0 -0.82595883839E+01  0.11773217697E+02  0.41812868696E+02  0.44252719383E+02  0.17770000000E+01 0.  1.
</event>
<event>
 6    1  0.2408691E-003  0.5023561E+03  0.7546771E-02  0.9394553E-01
        -11   -1    0    0    0    0  0.00000000000E+00  0.00000000000E+00  0.50000000000E+03  0.50000000000E+03  0.00000000000E+00 0. -1.
         11   -1    0    0    0    0 -0.00000000000E+00 -0.00000000000E+00 -0.50000000000E+03  0.50000000000E+03  0.00000000000E+00 0. -1.
        -11    1    1    2    0    0  0.12286347982E+02 -0.59917790431E+01  0.49745615084E+03  0.49764392669E+03  0.00000000000E+00 0. -1.
         11    1    1    2    0    0  0.11379239968E+01  0.10634618518E+02 -0.40708019749E+03  0.40722067380E+03  0.00000000000E+00 0. -1.
        -15    1    1    2    0    0 -0.10264416176E+02  0.26117974401E+01 -0.11097415344E+02  0.15443124089E+02  0.17770000000E+01 0.  1.
         15    1    1    2    0    0 -0.31598558021E+01 -0.72546369155E+01 -0.79278538004E+02  0.79692275426E+02  0.17770000000E+01 0. -1.
</event>
<event>
 6    1  0.2408691E-003  0.5348296E+03  0.7546771E-02  0.9325080E-01
        -11   -1    0    0    0    0  0.00000000000E+00  0.00000000000E+00  0.50000000000E+03  0.50000000000E+03  0.00000000000E+00 0. -1.
         11   -1    0    0    0    0 -0.00000000000E+00 -0.00000000000E+00 -0.50000000000E+03  0.50000000000E+03  0.00000000000E+00 0. -1.
        -11    1    1    2    0    0  0.64907110398E+01  0.86026477278E+01  0.45851149418E+03  0.45863812006E+03  0.00000000000E+00 0. -1.
         11    1    1    2    0    0 -0.38164765245E+01 -0.53619331355E+01 -0.46512388820E+03  0.46517044962E+03  0.00000000000E+00 0. -1.
        -15    1    1    2    0    0  0.13775648023E+02  0.78221358141E+01 -0.30309925143E+02  0.34246219913E+02  0.17770000000E+01 0.  1.
         15    1    1    2    0    0 -0.16449882539E+02 -0.11062850406E+02  0.36922319169E+02  0.41945210412E+02  0.17770000000E+01 0. -1.
</event>
<event>
 6    1  0.2408691E-003  0.2480970E+03  0.7546771E-02  0.1025669E+00
        -11   -1    0    0    0    0  0.00000000000E+00  0.00000000000E+00  0.50000000000E+03  0.50000000000E+03  0.00000000000E+00 0.  1.
         11   -1    0    0    0    0 -0.00000000000E+00 -0.00000000000E+00 -0.50000000000E+03  0.50000000000E+03  0.00000000000E+00 0.  1.
        -11    1    1    2    0    0  0.30504054351E+01 -0.42779689858E+01  0.33331324586E+03  0.33335465477E+03  0.00000000000E+00 0.  1.
         11    1    1    2    0    0 -0.29998501253E+01  0.45874217778E+02 -0.31333005122E+03  0.31668464433E+03  0.00000000000E+00 0.  1.
        -15    1    1    2    0    0  0.91885940156E+00 -0.45347745889E+02 -0.18215874550E+03  0.18772913640E+03  0.17770000000E+01 0. -1.
         15    1    1    2    0    0 -0.96941471137E+00  0.37514970973E+01  0.16217555086E+03  0.16223156450E+03  0.17770000000E+01 0.  1.
</event>
<event>
 6    1  0.2408691E-003  0.5063219E+03  0.7546771E-02  0.9385774E-01
        -11   -1    0    0    0    0  0.00000000000E+00  0.00000000000E+00  0.50000000000E+03  0.50000000000E+03  0.00000000000E+00 0. -1.
         11   -1    0    0    0    0 -0.00000000000E+00 -0.00000000000E+00 -0.50000000000E+03  0.50000000000E+03  0.00000000000E+00 0.  1.
        -11    1    1    2    0    0  0.10061835907E+02  0.81673497443E+01  0.49350795223E+03  0.49367807836E+03  0.00000000000E+00 0. -1.
         11    1    1    2    0    0 -0.66745222657E+01  0.17575355478E+01 -0.47629211894E+03  0.47634212573E+03  0.00000000000E+00 0.  1.
        -15    1    1    2    0    0 -0.15819860259E+01 -0.10774469662E+01  0.51611027760E+01  0.57843134956E+01  0.17770000000E+01 0.  1.
         15    1    1    2    0    0 -0.18053276153E+01 -0.88474383259E+01 -0.22376936064E+02  0.24195482416E+02  0.17770000000E+01 0. -1.
</event>
<event>
 6    1  0.2408691E-003  0.4872433E+03  0.7546771E-02  0.9428815E-01
        -11   -1    0    0    0    0  0.00000000000E+00  0.00000000000E+00  0.50000000000E+03  0.50000000000E+03  0.00000000000E+00 0.  1.
         11   -1    0    0    0    0 -0.00000000000E+00 -0.00000000000E+00 -0.50000000000E+03  0.50000000000E+03  0.00000000000E+00 0. -1.
        -11    1    1    2    0    0  0.36060742395E+01 -0.68381368720E+01  0.48502789265E+03  0.48508949745E+03  0.00000000000E+00 0.  1.
         11    1    1    2    0    0 -0.63840771324E+01 -0.63461713047E+01 -0.48941732615E+03  0.48950010160E+03  0.00000000000E+00 0. -1.
        -15    1    1    2    0    0  0.10609947143E+02  0.94366666843E+01 -0.20491361180E+01  0.14456083298E+02  0.17770000000E+01 0. -1.
         15    1    1    2    0    0 -0.78319442505E+01  0.37476414924E+01  0.64385696148E+01  0.10954317650E+02  0.17770000000E+01 0.  1.
</event>
<event>
 6    1  0.2408691E-003  0.5032077E+03  0.7546771E-02  0.9392661E-01
        -11   -1    0    0    0    0  0.00000000000E+00  0.00000000000E+00  0.50000000000E+03  0.50000000000E+03  0.00000000000E+00 0. -1.
         11   -1    0    0    0    0 -0.00000000000E+00 -0.00000000000E+00 -0.50000000000E+03  0.50000000000E+03  0.00000000000E+00 0.  1.
        -11    1    1    2    0    0 -0.28278351854E+01  0.72178928347E+01  0.44811692643E+03  0.44818397381E+03  0.00000000000E+00 0. -1.
         11    1    1    2    0    0 -0.80418116783E+01 -0.56082743183E+00 -0.49672687448E+03  0.49679228365E+03  0.00000000000E+00 0.  1.
        -15    1    1    2    0    0  0.54970893844E+01  0.58704514476E+01  0.33918183014E+02  0.34903883163E+02  0.17770000000E+01 0. -1.
         15    1    1    2    0    0  0.53725574793E+01 -0.12527516851E+02  0.14691765038E+02  0.20119859374E+02  0.17770000000E+01 0.  1.
</event>
<event>
 6    1  0.2408691E-003  0.5006869E+03  0.7546771E-02  0.9398274E-01
        -11   -1    0    0    0    0  0.00000000000E+00  0.00000000000E+00  0.50000000000E+03  0.50000000000E+03  0.00000000000E+00 0. -1.
         11   -1    0    0    0    0 -0.00000000000E+00 -0.00000000000E+00 -0.50000000000E+03  0.50000000000E+03  0.00000000000E+00 0. -1.
        -11    1    1    2    0    0 -0.92500094934E+01 -0.81204400343E+01  0.37234957652E+03  0.37255296450E+03  0.00000000000E+00 0. -1.
         11    1    1    2    0    0  0.98580557289E+00  0.76316761069E+01 -0.49925378646E+03  0.49931308573E+03  0.00000000000E+00 0. -1.
        -15    1    1    2    0    0 -0.12058026267E+01 -0.32737028457E+01  0.95028467151E+01  0.10277787456E+02  0.17770000000E+01 0.  1.
         15    1    1    2    0    0  0.94700065473E+01  0.37624667731E+01  0.11740136322E+03  0.11785616232E+03  0.17770000000E+01 0. -1.
</event>
<event>
 6    1  0.2408691E-003  0.5018581E+03  0.7546771E-02  0.9395662E-01
        -11   -1    0    0    0    0  0.00000000000E+00  0.00000000000E+00  0.50000000000E+03  0.50000000000E+03  0.00000000000E+00 0.  1.
         11   -1    0    0    0    0 -0.00000000000E+00 -0.00000000000E+00 -0.50000000000E+03  0.50000000000E+03  0.00000000000E+00 0.  1.
        -11    1    1    2    0    0 -0.13725998686E+01  0.40130970585E+01  0.29383163076E+03  0.29386224019E+03  0.00000000000E+00 0.  1.
         11    1    1    2    0    0 -0.13754179064E+02 -0.22551399187E+02 -0.49744107039E+03  0.49814190905E+03  0.00000000000E+00 0.  1.
        -15    1    1    2    0    0  0.14009678533E+01 -0.85236568636E+00  0.14079004141E+03  0.14081080472E+03  0.17770000000E+01 0.  1.
         15    1    1    2    0    0  0.13725811079E+02  0.19390667815E+02  0.62819398221E+02  0.67185046029E+02  0.17770000000E+01 0. -1.
</event>
<event>
 6    1  0.2408691E-003  0.5000476E+03  0.7546771E-02  0.9399703E-01
        -11   -1    0    0    0    0  0.00000000000E+00  0.00000000000E+00  0.50000000000E+03  0.50000000000E+03  0.00000000000E+00 0. -1.
         11   -1    0    0    0    0 -0.00000000000E+00 -0.00000000000E+00 -0.50000000000E+03  0.50000000000E+03  0.00000000000E+00 0. -1.
        -11    1    1    2    0    0  0.79204499276E+01  0.27265877566E+01  0.49988217351E+03  0.49995235293E+03  0.00000000000E+00 0. -1.
         11    1    1    2    0    0  0.10028716705E+01  0.19286726164E+00 -0.18580882858E+02  0.18608926813E+02  0.00000000000E+00 0. -1.
        -15    1    1    2    0    0  0.15193585908E-01 -0.14014443954E+01 -0.93159632322E+02  0.93187118748E+02  0.17770000000E+01 0.  1.
         15    1    1    2    0    0 -0.89385151840E+01 -0.15180106228E+01 -0.38814165833E+03  0.38825160151E+03  0.17770000000E+01 0. -1.
</event>
<event>
 6    1  0.2408691E-003  0.5022967E+03  0.7546771E-02  0.9394685E-01
        -11   -1    0    0    0    0  0.00000000000E+00  0.00000000000E+00  0.50000000000E+03  0.50000000000E+03  0.00000000000E+00 0.  1.
         11   -1    0    0    0    0 -0.00000000000E+00 -0.00000000000E+00 -0.50000000000E+03  0.50000000000E+03  0.00000000000E+00 0.  1.
        -11    1    1    2    0    0 -0.18076581092E+02 -0.18301577425E+01  0.33914566838E+03  0.33963200179E+03  0.00000000000E+00 0.  1.
         11    1    1    2    0    0 -0.36034681210E+01 -0.61290617490E+01 -0.49765253529E+03  0.49770332153E+03  0.00000000000E+00 0.  1.
        -15    1    1    2    0    0  0.13284343401E+02  0.12139731284E+02  0.41495325310E+02  0.45264407726E+02  0.17770000000E+01 0.  1.
         15    1    1    2    0    0  0.83957058121E+01 -0.41805117924E+01  0.11701154160E+03  0.11740026896E+03  0.17770000000E+01 0. -1.
</event>
<event>
 6    1  0.2408691E-003  0.5085898E+03  0.7546771E-02  0.9380792E-01
        -11   -1    0    0    0    0  0.00000000000E+00  0.00000000000E+00  0.50000000000E+03  0.50000000000E+03  0.00000000000E+00 0. -1.
         11   -1    0    0    0    0 -0.00000000000E+00 -0.00000000000E+00 -0.50000000000E+03  0.50000000000E+03  0.00000000000E+00 0.  1.
        -11    1    1    2    0    0  0.28686540650E+01  0.67718455655E+01  0.49135519268E+03  0.49141022826E+03  0.00000000000E+00 0. -1.
         11    1    1    2    0    0 -0.16814176684E+01  0.88667252254E+01 -0.41397587246E+03  0.41407423122E+03  0.00000000000E+00 0.  1.
        -15    1    1    2    0    0  0.12057036278E+02  0.42604972105E+01 -0.67276099945E+02  0.68503688317E+02  0.17770000000E+01 0.  1.
         15    1    1    2    0    0 -0.13244272675E+02 -0.19899068001E+02 -0.10103220269E+02  0.26011852199E+02  0.17770000000E+01 0. -1.
</event>
<event>
 6    1  0.2408691E-003  0.5064190E+03  0.7546771E-02  0.9385560E-01
        -11   -1    0    0    0    0  0.00000000000E+00  0.00000000000E+00  0.50000000000E+03  0.50000000000E+03  0.00000000000E+00 0. -1.
         11   -1    0    0    0    0 -0.00000000000E+00 -0.00000000000E+00 -0.50000000000E+03  0.50000000000E+03  0.00000000000E+00 0.  1.
        -11    1    1    2    0    0 -0.12769608977E+02 -0.59098195746E+01  0.49338044122E+03  0.49358104568E+03  0.00000000000E+00 0. -1.
         11    1    1    2    0    0 -0.99586207144E+00  0.49515748587E+01 -0.30244977215E+03  0.30249194123E+03  0.00000000000E+00 0.  1.
        -15    1    1    2    0    0  0.18056091495E+02  0.43306725936E+01 -0.70253316018E+01  0.19932139331E+02  0.17770000000E+01 0. -1.
         15    1    1    2    0    0 -0.42906204468E+01 -0.33724278776E+01 -0.18390533747E+03  0.18399487376E+03  0.17770000000E+01 0.  1.
</event>
<event>
 6    1  0.2408691E-003  0.5201007E+03  0.7546771E-02  0.9355923E-01
        -11   -1    0    0    0    0  0.00000000000E+00  0.00000000000E+00  0.50000000000E+03  0.50000000000E+03  0.00000000000E+00 0.  1.
         11   -1    0    0    0    0 -0.00000000000E+00 -0.00000000000E+00 -0.50000000000E+03  0.50000000000E+03  0.00000000000E+00 0.  1.
        -11    1    1    2    0    0 -0.24863236825E+02  0.65025925067E+01  0.44963412982E+03  0.45036797727E+03  0.00000000000E+00 0.  1.
         11    1    1    2    0    0  0.13753488044E+02 -0.15406918850E+02 -0.47945467544E+03  0.47989927837E+03  0.00000000000E+00 0.  1.
        -15    1    1    2    0    0 -0.25580227412E+02  0.31191351567E+01  0.13049077983E+02  0.28939820383E+02  0.17770000000E+01 0. -1.
         15    1    1    2    0    0  0.36689976193E+02  0.57851911862E+01  0.16771467638E+02  0.40792923968E+02  0.17770000000E+01 0.  1.
</event>
<event>
 6    1  0.2408691E-003  0.5180833E+03  0.7546771E-02  0.9360232E-01
        -11   -1    0    0    0    0  0.00000000000E+00  0.00000000000E+00  0.50000000000E+03  0.50000000000E+03  0.00000000000E+00 0. -1.
         11   -1    0    0    0    0 -0.00000000000E+00 -0.00000000000E+00 -0.50000000000E+03  0.50000000000E+03  0.00000000000E+00 0.  1.
        -11    1    1    2    0    0  0.77300769219E+00  0.69855007042E+01  0.47354253840E+03  0.47359469005E+03  0.00000000000E+00 0. -1.
         11    1    1    2    0    0  0.66827632901E+01 -0.43563948932E+01 -0.48185069502E+03  0.48191672496E+03  0.00000000000E+00 0.  1.
        -15    1    1    2    0    0  0.42599393172E+01 -0.47397492457E+01  0.23895834197E+02  0.24794776201E+02  0.17770000000E+01 0. -1.
         15    1    1    2    0    0 -0.11715710299E+02  0.21106434348E+01 -0.15587677576E+02  0.19693808792E+02  0.17770000000E+01 0.  1.
</event>
<event>
 6    1  0.2408691E-003  0.5053500E+03  0.7546771E-02  0.9387918E-01
        -11   -1    0    0    0    0  0.00000000000E+00  0.00000000000E+00  0.50000000000E+03  0.50000000000E+03  0.00000000000E+00 0. -1.
         11   -1    0    0    0    0 -0.00000000000E+00 -0.00000000000E+00 -0.50000000000E+03  0.50000000000E+03  0.00000000000E+00 0. -1.
        -11    1    1    2    0    0 -0.66687796855E+01  0.86740857338E+00  0.41390318219E+03  0.41395781095E+03  0.00000000000E+00 0. -1.
         11    1    1    2    0    0 -0.14433218136E+02 -0.78302379948E+01 -0.49437740437E+03  0.49465002614E+03  0.00000000000E+00 0. -1.
        -15    1    1    2    0    0  0.27706871282E+02  0.15198190186E+02  0.67640563224E+02  0.74679710922E+02  0.17770000000E+01 0.  1.
         15    1    1    2    0    0 -0.66048734604E+01 -0.82353607642E+01  0.12833658949E+02  0.16712451985E+02  0.17770000000E+01 0. -1.
</event>
<event>
 6    1  0.2408691E-003  0.5046462E+03  0.7546771E-02  0.9389473E-01
        -11   -1    0    0    0    0  0.00000000000E+00  0.00000000000E+00  0.50000000000E+03  0.50000000000E+03  0.00000000000E+00 0.  1.
         11   -1    0    0    0    0 -0.00000000000E+00 -0.00000000000E+00 -0.50000000000E+03  0.50000000000E+03  0.00000000000E+00 0.  1.
        -11    1    1    2    0    0 -0.32932294378E+01 -0.13867268304E+02  0.49514868637E+03  0.49535378075E+03  0.00000000000E+00 0.  1.
         11    1    1    2    0    0  0.11487002754E+02  0.18493967329E+01 -0.43208852601E+03  0.43224514551E+03  0.00000000000E+00 0.  1.
        -15    1    1    2    0    0  0.38108413355E+01  0.94791452223E+01 -0.26109411561E+01  0.10693523673E+02  0.17770000000E+01 0.  1.
         15    1    1    2    0    0 -0.12004614652E+02  0.25387263485E+01 -0.60449219202E+02  0.61707550069E+02  0.17770000000E+01 0. -1.
</event>
<event>
 6    1  0.2408691E-003  0.5184790E+03  0.7546771E-02  0.9359385E-01
        -11   -1    0    0    0    0  0.00000000000E+00  0.00000000000E+00  0.50000000000E+03  0.50000000000E+03  0.00000000000E+00 0. -1.
         11   -1    0    0    0    0 -0.00000000000E+00 -0.00000000000E+00 -0.50000000000E+03  0.50000000000E+03  0.00000000000E+00 0. -1.
        -11    1    1    2    0    0  0.95033283283E+01  0.83516867299E+01  0.48135471916E+03  0.48152095446E+03  0.00000000000E+00 0. -1.
         11    1    1    2    0    0  0.22961349561E+01  0.18557310930E+02 -0.45771899992E+03  0.45810078466E+03  0.00000000000E+00 0. -1.
        -15    1    1    2    0    0 -0.27449050126E+02 -0.13743941316E+02 -0.25249198872E+02  0.39787259876E+02  0.17770000000E+01 0. -1.
         15    1    1    2    0    0  0.15649586842E+02 -0.13165056343E+02  0.16134796225E+01  0.20591001004E+02  0.17770000000E+01 0.  1.
</event>
<event>
 6    1  0.2408691E-003  0.5003535E+03  0.7546771E-02  0.9399019E-01
        -11   -1    0    0    0    0  0.00000000000E+00  0.00000000000E+00  0.50000000000E+03  0.50000000000E+03  0.00000000000E+00 0.  1.
         11   -1    0    0    0    0 -0.00000000000E+00 -0.00000000000E+00 -0.50000000000E+03  0.50000000000E+03  0.00000000000E+00 0. -1.
        -11    1    1    2    0    0 -0.70657773924E+00 -0.47142335670E+00  0.44012277709E+02  0.44020473433E+02  0.00000000000E+00 0.  1.
         11    1    1    2    0    0 -0.63060489697E+01  0.19773759654E+02 -0.49921525116E+03  0.49964650986E+03  0.00000000000E+00 0. -1.
        -15    1    1    2    0    0  0.93229734486E+00  0.57454710375E+01  0.10691513872E+03  0.10708820771E+03  0.17770000000E+01 0. -1.
         15    1    1    2    0    0  0.60803293641E+01 -0.25047807335E+02  0.34828783473E+03  0.34924480899E+03  0.17770000000E+01 0.  1.
</event>
<event>
 6    1  0.2408691E-003  0.5105034E+03  0.7546771E-02  0.9376610E-01
        -11   -1    0    0    0    0  0.00000000000E+00  0.00000000000E+00  0.50000000000E+03  0.50000000000E+03  0.00000000000E+00 0.  1.
         11   -1    0    0    0    0 -0.00000000000E+00 -0.00000000000E+00 -0.50000000000E+03  0.50000000000E+03  0.00000000000E+00 0.  1.
        -11    1    1    2    0    0  0.87649925400E+01  0.25581331381E+01  0.48941147584E+03  0.48949664128E+03  0.00000000000E+00 0.  1.
         11    1    1    2    0    0 -0.73411650142E+01 -0.22982186022E+02 -0.40637136295E+03  0.40708691726E+03  0.00000000000E+00 0.  1.
        -15    1    1    2    0    0 -0.26104031026E+01 -0.11159200769E+02 -0.66873585467E+02  0.67871762379E+02  0.17770000000E+01 0. -1.
         15    1    1    2    0    0  0.11865755767E+01  0.31583253653E+02 -0.16166527422E+02  0.35544679078E+02  0.17770000000E+01 0.  1.
</event>
<event>
 6    1  0.2408691E-003  0.5420220E+03  0.7546771E-02  0.9310400E-01
        -11   -1    0    0    0    0  0.00000000000E+00  0.00000000000E+00  0.50000000000E+03  0.50000000000E+03  0.00000000000E+00 0.  1.
         11   -1    0    0    0    0 -0.00000000000E+00 -0.00000000000E+00 -0.50000000000E+03  0.50000000000E+03  0.00000000000E+00 0. -1.
        -11    1    1    2    0    0 -0.55054671424E+01 -0.34882752344E+01  0.45793165693E+03  0.45797803512E+03  0.00000000000E+00 0.  1.
         11    1    1    2    0    0  0.17629786633E+02 -0.54043762877E+00 -0.43205637819E+03  0.43241625245E+03  0.00000000000E+00 0. -1.
        -15    1    1    2    0    0  0.14745770701E+02  0.18278693070E+02  0.34619905972E+02  0.41871756501E+02  0.17770000000E+01 0. -1.
         15    1    1    2    0    0 -0.26870090192E+02 -0.14249980207E+02 -0.60495184719E+02  0.67733955931E+02  0.17770000000E+01 0.  1.
</event>
<event>
 6    1  0.2408691E-003  0.5014351E+03  0.7546771E-02  0.9396604E-01
        -11   -1    0    0    0    0  0.00000000000E+00  0.00000000000E+00  0.50000000000E+03  0.50000000000E+03  0.00000000000E+00 0. -1.
         11   -1    0    0    0    0 -0.00000000000E+00 -0.00000000000E+00 -0.50000000000E+03  0.50000000000E+03  0.00000000000E+00 0.  1.
        -11    1    1    2    0    0  0.12372084485E+01 -0.79740592150E+01  0.49849961330E+03  0.49856492131E+03  0.00000000000E+00 0. -1.
         11    1    1    2    0    0  0.56478559256E+01  0.40863432128E+01 -0.47058000483E+03  0.47063163665E+03  0.00000000000E+00 0.  1.
        -15    1    1    2    0    0 -0.18431391742E+00 -0.24156820859E+01 -0.33087808085E+01  0.44693680760E+01  0.17770000000E+01 0. -1.
         15    1    1    2    0    0 -0.67007504567E+01  0.63033980881E+01 -0.24610827660E+02  0.26334073959E+02  0.17770000000E+01 0. -1.
</event>
<event>
 6    1  0.2408691E-003  0.5086245E+03  0.7546771E-02  0.9380716E-01
        -11   -1    0    0    0    0  0.00000000000E+00  0.00000000000E+00  0.50000000000E+03  0.50000000000E+03  0.00000000000E+00 0.  1.
         11   -1    0    0    0    0 -0.00000000000E+00 -0.00000000000E+00 -0.50000000000E+03  0.50000000000E+03  0.00000000000E+00 0. -1.
        -11    1    1    2    0    0  0.79578974086E+01  0.76994867075E+01  0.40585377940E+03  0.40600480351E+03  0.00000000000E+00 0.  1.
         11    1    1    2    0    0  0.28726003573E+01 -0.67927703157E+01 -0.49132011543E+03  0.49137546682E+03  0.00000000000E+00 0. -1.
        -15    1    1    2    0    0 -0.20941198810E+02  0.16717801530E+02  0.18484711669E+02  0.32601548891E+02  0.17770000000E+01 0.  1.
         15    1    1    2    0    0  0.10110701044E+02 -0.17624517922E+02  0.66981624368E+02  0.70018180779E+02  0.17770000000E+01 0. -1.
</event>
<event>
 6    1  0.2408691E-003  0.5016603E+03  0.7546771E-02  0.9396102E-01
        -11   -1    0    0    0    0  0.00000000000E+00  0.00000000000E+00  0.50000000000E+03  0.50000000000E+03  0.00000000000E+00 0. -1.
         11   -1    0    0    0    0 -0.00000000000E+00 -0.00000000000E+00 -0.50000000000E+03  0.50000000000E+03  0.00000000000E+00 0.  1.
        -11    1    1    2    0    0 -0.48348639843E-01  0.58971032901E+01  0.32002812108E+03  0.32008245258E+03  0.00000000000E+00 0. -1.
         11    1    1    2    0    0  0.10941096439E+02 -0.97078302929E+00 -0.49821862692E+03  0.49833969360E+03  0.00000000000E+00 0.  1.
        -15    1    1    2    0    0  0.20123515980E+01  0.12512882926E+02  0.78718062457E+02  0.79751569791E+02  0.17770000000E+01 0. -1.
         15    1    1    2    0    0 -0.12905099397E+02 -0.17439203187E+02  0.99472443378E+02  0.10182628403E+03  0.17770000000E+01 0.  1.
</event>
<event>
 6    1  0.2408691E-003  0.5056881E+03  0.7546771E-02  0.9387171E-01
        -11   -1    0    0    0    0  0.00000000000E+00  0.00000000000E+00  0.50000000000E+03  0.50000000000E+03  0.00000000000E+00 0.  1.
         11   -1    0    0    0    0 -0.00000000000E+00 -0.00000000000E+00 -0.50000000000E+03  0.50000000000E+03  0.00000000000E+00 0.  1.
        -11    1    1    2    0    0  0.18782413665E+01 -0.85123428995E+01  0.42575184811E+03  0.42584107827E+03  0.00000000000E+00 0.  1.
         11    1    1    2    0    0 -0.15831163995E+02  0.18256849362E+02 -0.49372090719E+03  0.49431191822E+03  0.00000000000E+00 0.  1.
        -15    1    1    2    0    0  0.14368201492E+02 -0.18169082810E+02  0.67304779720E+02  0.71201487951E+02  0.17770000000E+01 0.  1.
         15    1    1    2    0    0 -0.41527886437E+00  0.84245763469E+01  0.66427936046E+00  0.86455155560E+01  0.17770000000E+01 0. -1.
</event>
<event>
 6    1  0.2408691E-003  0.5142882E+03  0.7546771E-02  0.9368394E-01
        -11   -1    0    0    0    0  0.00000000000E+00  0.00000000000E+00  0.50000000000E+03  0.50000000000E+03  0.00000000000E+00 0. -1.
         11   -1    0    0    0    0 -0.00000000000E+00 -0.00000000000E+00 -0.50000000000E+03  0.50000000000E+03  0.00000000000E+00 0. -1.
        -11    1    1    2    0    0 -0.14619977058E+01 -0.68746071695E+01  0.47750771389E+03  0.47755943555E+03  0.00000000000E+00 0. -1.
         11    1    1    2    0    0  0.74371086603E+01  0.35644976664E+01 -0.48564177291E+03  0.48571179502E+03  0.00000000000E+00 0. -1.
        -15    1    1    2    0    0 -0.35801689219E+01  0.24396464890E+01  0.22013432475E+02  0.22505964161E+02  0.17770000000E+01 0. -1.
         15    1    1    2    0    0 -0.23949420326E+01  0.87046301417E+00 -0.13879373457E+02  0.14222805270E+02  0.17770000000E+01 0.  1.
</event>
<event>
 6    1  0.2408691E-003  0.5024948E+03  0.7546771E-02  0.9394245E-01
        -11   -1    0    0    0    0  0.00000000000E+00  0.00000000000E+00  0.50000000000E+03  0.50000000000E+03  0.00000000000E+00 0.  1.
         11   -1    0    0    0    0 -0.00000000000E+00 -0.00000000000E+00 -0.50000000000E+03  0.50000000000E+03  0.00000000000E+00 0. -1.
        -11    1    1    2    0    0 -0.49515517453E+01 -0.60871594847E+01  0.42507757353E+03  0.42514999105E+03  0.00000000000E+00 0.  1.
         11    1    1    2    0    0  0.52317636447E+01  0.10156807322E+02 -0.49737395485E+03  0.49750515882E+03  0.00000000000E+00 0. -1.
        -15    1    1    2    0    0  0.12389068104E+02  0.12766085110E+01  0.23999832694E+02  0.27097387995E+02  0.17770000000E+01 0. -1.
         15    1    1    2    0    0 -0.12669280004E+02 -0.53462563487E+01  0.48296548631E+02  0.50247462139E+02  0.17770000000E+01 0.  1.
</event>
<event>
 6    1  0.2408691E-003  0.5006226E+03  0.7546771E-02  0.9398418E-01
        -11   -1    0    0    0    0  0.00000000000E+00  0.00000000000E+00  0.50000000000E+03  0.50000000000E+03  0.00000000000E+00 0. -1.
         11   -1    0    0    0    0 -0.00000000000E+00 -0.00000000000E+00 -0.50000000000E+03  0.50000000000E+03  0.00000000000E+00 0.  1.
        -11    1    1    2    0    0 -0.10917382860E+02 -0.52117097417E+01  0.49923087902E+03  0.49937743415E+03  0.00000000000E+00 0. -1.
         11    1    1    2    0    0 -0.59158776450E+01 -0.53518293656E+01 -0.20652681657E+03  0.20668083039E+03  0.00000000000E+00 0.  1.
        -15    1    1    2    0    0  0.15877307327E+02  0.81993998075E+01 -0.28587673755E+03  0.28644019594E+03  0.17770000000E+01 0. -1.
         15    1    1    2    0    0  0.95595317761E+00  0.23641392998E+01 -0.68273248972E+01  0.75015395326E+01  0.17770000000E+01 0.  1.
</event>
<event>
 6    1  0.2408691E-003  0.5093098E+03  0.7546771E-02  0.9379216E-01
        -11   -1    0    0    0    0  0.00000000000E+00  0.00000000000E+00  0.50000000000E+03  0.50000000000E+03  0.00000000000E+00 0.  1.
         11   -1    0    0    0    0 -0.00000000000E+00 -0.00000000000E+00 -0.50000000000E+03  0.50000000000E+03  0.00000000000E+00 0.  1.
        -11    1    1    2    0    0 -0.16135511036E+02  0.33763858617E+01  0.46145666052E+03  0.46175101974E+03  0.00000000000E+00 0.  1.
         11    1    1    2    0    0  0.73823408117E+01 -0.19393438174E+01 -0.49063084129E+03  0.49069021025E+03  0.00000000000E+00 0.  1.
        -15    1    1    2    0    0 -0.41114398841E+00 -0.17299917396E+02  0.21399995135E+02  0.27578500722E+02  0.17770000000E+01 0. -1.
         15    1    1    2    0    0  0.91643142127E+01  0.15862875352E+02  0.77741856376E+01  0.19980269286E+02  0.17770000000E+01 0.  1.
</event>
<event>
 6    1  0.2408691E-003  0.5096561E+03  0.7546771E-02  0.9378459E-01
        -11   -1    0    0    0    0  0.00000000000E+00  0.00000000000E+00  0.50000000000E+03  0.50000000000E+03  0.00000000000E+00 0.  1.
         11   -1    0    0    0    0 -0.00000000000E+00 -0.00000000000E+00 -0.50000000000E+03  0.50000000000E+03  0.00000000000E+00 0.  1.
        -11    1    1    2    0    0 -0.27500104543E+01  0.10926281189E+02  0.49021446504E+03  0.49034392819E+03  0.00000000000E+00 0.  1.
         11    1    1    2    0    0  0.48989057764E+00  0.19392275804E+02 -0.44986036516E+03  0.45027841220E+03  0.00000000000E+00 0.  1.
        -15    1    1    2    0    0 -0.10728695214E+02 -0.54319727259E+00 -0.12211276156E+02  0.16360713879E+02  0.17770000000E+01 0. -1.
         15    1    1    2    0    0  0.12988815091E+02 -0.29775359720E+02 -0.28142823724E+02  0.43016945732E+02  0.17770000000E+01 0.  1.
</event>
<event>
 6    1  0.2408691E-003  0.4751966E+03  0.7546771E-02  0.9457086E-01
        -11   -1    0    0    0    0  0.00000000000E+00  0.00000000000E+00  0.50000000000E+03  0.50000000000E+03  0.00000000000E+00 0.  1.
         11   -1    0    0    0    0 -0.00000000000E+00 -0.00000000000E+00 -0.50000000000E+03  0.50000000000E+03  0.00000000000E+00 0.  1.
        -11    1    1    2    0    0  0.15525670434E+01  0.67955612040E+01  0.48125357987E+03  0.48130406008E+03  0.00000000000E+00 0.  1.
         11    1    1    2    0    0 -0.22493302250E+02 -0.41243596834E+01 -0.46884705356E+03  0.46940442970E+03  0.00000000000E+00 0.  1.
        -15    1    1    2    0    0  0.17582384261E+02  0.48129421344E+00 -0.27900595907E+02  0.33029878313E+02  0.17770000000E+01 0.  1.
         15    1    1    2    0    0  0.33583509456E+01 -0.31524957341E+01  0.15494069599E+02  0.16261631904E+02  0.17770000000E+01 0. -1.
</event>
<event>
 6    1  0.2408691E-003  0.5015986E+03  0.7546771E-02  0.9396240E-01
        -11   -1    0    0    0    0  0.00000000000E+00  0.00000000000E+00  0.50000000000E+03  0.50000000000E+03  0.00000000000E+00 0.  1.
         11   -1    0    0    0    0 -0.00000000000E+00 -0.00000000000E+00 -0.50000000000E+03  0.50000000000E+03  0.00000000000E+00 0. -1.
        -11    1    1    2    0    0 -0.74510802980E+01 -0.11399491465E+02  0.49821530153E+03  0.49840139815E+03  0.00000000000E+00 0.  1.
         11    1    1    2    0    0 -0.13986256279E+02 -0.50683231868E+01 -0.20328111301E+03  0.20382471433E+03  0.00000000000E+00 0. -1.
        -15    1    1    2    0    0  0.43208508085E+01  0.69620492714E+00 -0.19844964474E+03  0.19850585301E+03  0.17770000000E+01 0.  1.
         15    1    1    2    0    0  0.17116485769E+02  0.15771609725E+02 -0.96484543772E+02  0.99268034504E+02  0.17770000000E+01 0. -1.
</event>
<event>
 6    1  0.2408691E-003  0.4413202E+03  0.7546771E-02  0.9541622E-01
        -11   -1    0    0    0    0  0.00000000000E+00  0.00000000000E+00  0.50000000000E+03  0.50000000000E+03  0.00000000000E+00 0.  1.
         11   -1    0    0    0    0 -0.00000000000E+00 -0.00000000000E+00 -0.50000000000E+03  0.50000000000E+03  0.00000000000E+00 0.  1.
        -11    1    1    2    0    0  0.35689419570E+01  0.11276631445E+02  0.45921110886E+03  0.45936340980E+03  0.00000000000E+00 0.  1.
         11    1    1    2    0    0 -0.52007649826E+02 -0.23228211459E+02 -0.42165366052E+03  0.42548343667E+03  0.00000000000E+00 0.  1.
        -15    1    1    2    0    0  0.41795728653E+02  0.26443673670E+02 -0.66002883172E+02  0.82496600699E+02  0.17770000000E+01 0. -1.
         15    1    1    2    0    0  0.66429792152E+01 -0.14492093655E+02  0.28445434835E+02  0.32656552839E+02  0.17770000000E+01 0.  1.
</event>
<event>
 6    1  0.2408691E-003  0.5237204E+03  0.7546771E-02  0.9348244E-01
        -11   -1    0    0    0    0  0.00000000000E+00  0.00000000000E+00  0.50000000000E+03  0.50000000000E+03  0.00000000000E+00 0.  1.
         11   -1    0    0    0    0 -0.00000000000E+00 -0.00000000000E+00 -0.50000000000E+03  0.50000000000E+03  0.00000000000E+00 0. -1.
        -11    1    1    2    0    0 -0.29237408968E+02  0.11734614449E+02  0.33302229853E+03  0.33450916067E+03  0.00000000000E+00 0.  1.
         11    1    1    2    0    0 -0.43166833495E+01 -0.63306594704E+01 -0.47621799739E+03  0.47627963640E+03  0.00000000000E+00 0. -1.
        -15    1    1    2    0    0  0.38592917191E+02 -0.58800275027E+01  0.16355412063E+03  0.16815794981E+03  0.17770000000E+01 0.  1.
         15    1    1    2    0    0 -0.50388248739E+01  0.47607252402E+00 -0.20358421764E+02  0.21053253119E+02  0.17770000000E+01 0. -1.
</event>
<event>
 6    1  0.2408691E-003  0.5068981E+03  0.7546771E-02  0.9384506E-01
        -11   -1    0    0    0    0  0.00000000000E+00  0.00000000000E+00  0.50000000000E+03  0.50000000000E+03  0.00000000000E+00 0. -1.
         11   -1    0    0    0    0 -0.00000000000E+00 -0.00000000000E+00 -0.50000000000E+03  0.50000000000E+03  0.00000000000E+00 0.  1.
        -11    1    1    2    0    0  0.48700493054E+01  0.23036826123E+02  0.49253944836E+03  0.49310193766E+03  0.00000000000E+00 0. -1.
         11    1    1    2    0    0  0.67271718373E+01 -0.15231644840E+02 -0.47572223287E+03  0.47601355096E+03  0.00000000000E+00 0.  1.
        -15    1    1    2    0    0 -0.14514810820E+02 -0.78405633652E+01 -0.20156404082E+02  0.26107326970E+02  0.17770000000E+01 0. -1.
         15    1    1    2    0    0  0.29175896772E+01  0.35382081960E-01  0.33391885988E+01  0.47771844128E+01  0.17770000000E+01 0.  1.
</event>
<event>
 6    1  0.2408691E-003  0.4000371E+03  0.7546771E-02  0.9656291E-01
        -11   -1    0    0    0    0  0.00000000000E+00  0.00000000000E+00  0.50000000000E+03  0.50000000000E+03  0.00000000000E+00 0.  1.
         11   -1    0    0    0    0 -0.00000000000E+00 -0.00000000000E+00 -0.50000000000E+03  0.50000000000E+03  0.00000000000E+00 0. -1.
        -11    1    1    2    0    0 -0.45613916809E+02  0.31014040329E+02  0.39252020304E+03  0.39637685339E+03  0.00000000000E+00 0.  1.
         11    1    1    2    0    0  0.52323509189E+02 -0.18151840850E+02 -0.40004895021E+03  0.40386433552E+03  0.00000000000E+00 0. -1.
        -15    1    1    2    0    0 -0.29937385609E+02  0.23814110363E+02  0.94814893848E+02  0.10225644593E+03  0.17770000000E+01 0.  1.
         15    1    1    2    0    0  0.23227793228E+02 -0.36676309842E+02 -0.87286146676E+02  0.97502365163E+02  0.17770000000E+01 0. -1.
</event>
<event>
 6    1  0.2408691E-003  0.5024528E+03  0.7546771E-02  0.9394338E-01
        -11   -1    0    0    0    0  0.00000000000E+00  0.00000000000E+00  0.50000000000E+03  0.50000000000E+03  0.00000000000E+00 0.  1.
         11   -1    0    0    0    0 -0.00000000000E+00 -0.00000000000E+00 -0.50000000000E+03  0.50000000000E+03  0.00000000000E+00 0. -1.
        -11    1    1    2    0    0  0.88175449219E+01  0.71700948010E+01  0.49741740516E+03  0.49754721818E+03  0.00000000000E+00 0.  1.
         11    1    1    2    0    0 -0.84291548687E+01 -0.28878478785E+00 -0.39044027868E+03  0.39053136271E+03  0.00000000000E+00 0. -1.
        -15    1    1    2    0    0  0.15490764641E+02 -0.53723955614E+01 -0.45979347503E+02  0.48847564412E+02  0.17770000000E+01 0.  1.
         15    1    1    2    0    0 -0.15879154694E+02 -0.15089144517E+01 -0.60997778981E+02  0.63073854696E+02  0.17770000000E+01 0. -1.
</event>
<event>
 6    1  0.2408691E-003  0.5026663E+03  0.7546771E-02  0.9393863E-01
        -11   -1    0    0    0    0  0.00000000000E+00  0.00000000000E+00  0.50000000000E+03  0.50000000000E+03  0.00000000000E+00 0.  1.
         11   -1    0    0    0    0 -0.00000000000E+00 -0.00000000000E+00 -0.50000000000E+03  0.50000000000E+03  0.00000000000E+00 0.  1.
        -11    1    1    2    0    0 -0.72958468968E+01  0.11750982071E+02  0.31662817131E+03  0.31693014030E+03  0.00000000000E+00 0.  1.
         11    1    1    2    0    0 -0.88864632541E+01 -0.18461752062E+02 -0.49691149860E+03  0.49733373398E+03  0.00000000000E+00 0.  1.
        -15    1    1    2    0    0  0.12047737030E+02 -0.13179404882E+02  0.38294470599E+02  0.42290293071E+02  0.17770000000E+01 0. -1.
         15    1    1    2    0    0  0.41345731213E+01  0.19890174873E+02  0.14198885669E+03  0.14344583265E+03  0.17770000000E+01 0.  1.
</event>
<event>
 6    1  0.2408691E-003  0.5122535E+03  0.7546771E-02  0.9372802E-01
        -11   -1    0    0    0    0  0.00000000000E+00  0.00000000000E+00  0.50000000000E+03  0.50000000000E+03  0.00000000000E+00 0. -1.
         11   -1    0    0    0    0 -0.00000000000E+00 -0.00000000000E+00 -0.50000000000E+03  0.50000000000E+03  0.00000000000E+00 0. -1.
        -11    1    1    2    0    0  0.58752611152E+01  0.12697984716E+02  0.47150086850E+03  0.47170841258E+03  0.00000000000E+00 0. -1.
         11    1    1    2    0    0 -0.51633728329E+01 -0.53020787512E+01 -0.48769039506E+03  0.48774654677E+03  0.00000000000E+00 0. -1.
        -15    1    1    2    0    0  0.13322270995E+02 -0.47083062882E+01 -0.48549033516E+01  0.15045892068E+02  0.17770000000E+01 0.  1.
         15    1    1    2    0    0 -0.14034159277E+02 -0.26875996770E+01  0.21044429914E+02  0.25499148575E+02  0.17770000000E+01 0. -1.
</event>
<event>
 6    1  0.2408691E-003  0.5019954E+03  0.7546771E-02  0.9395356E-01
        -11   -1    0    0    0    0  0.00000000000E+00  0.00000000000E+00  0.50000000000E+03  0.50000000000E+03  0.00000000000E+00 0.  1.
         11   -1    0    0    0    0 -0.00000000000E+00 -0.00000000000E+00 -0.50000000000E+03  0.50000000000E+03  0.00000000000E+00 0. -1.
        -11    1    1    2    0    0 -0.11920517255E+02  0.12355761795E+02  0.35033531576E+03  0.35075575127E+03  0.00000000000E+00 0.  1.
         11    1    1    2    0    0  0.83868961040E+01  0.21722903798E+01 -0.49792919231E+03  0.49800455764E+03  0.00000000000E+00 0. -1.
        -15    1    1    2    0    0  0.86831880088E+01 -0.36728987723E+01  0.12677179873E+03  0.12713431724E+03  0.17770000000E+01 0.  1.
         15    1    1    2    0    0 -0.51495668573E+01 -0.10855153403E+02  0.20822077823E+02  0.24105373842E+02  0.17770000000E+01 0. -1.
</event>
<event>
 6    1  0.2408691E-003  0.5153147E+03  0.7546771E-02  0.9366179E-01
        -11   -1    0    0    0    0  0.00000000000E+00  0.00000000000E+00  0.50000000000E+03  0.50000000000E+03  0.00000000000E+00 0. -1.
         11   -1    0    0    0    0 -0.00000000000E+00 -0.00000000000E+00 -0.50000000000E+03  0.50000000000E+03  0.00000000000E+00 0.  1.
        -11    1    1    2    0    0 -0.75110339538E+01  0.33300209739E+01  0.48461560963E+03  0.48468525227E+03  0.00000000000E+00 0. -1.
         11    1    1    2    0    0 -0.12763661867E+02  0.17681351398E+02 -0.39947449026E+03  0.40006925603E+03  0.00000000000E+00 0.  1.
        -15    1    1    2    0    0  0.17766682729E+02 -0.24400509229E+02 -0.25562740435E+00  0.30236781248E+02  0.17770000000E+01 0.  1.
         15    1    1    2    0    0  0.25080130918E+01  0.33891368572E+01 -0.84885491965E+02  0.85008710456E+02  0.17770000000E+01 0. -1.
</event>
<event>
 6    1  0.2408691E-003  0.5026442E+03  0.7546771E-02  0.9393912E-01
        -11   -1    0    0    0    0  0.00000000000E+00  0.00000000000E+00  0.50000000000E+03  0.50000000000E+03  0.00000000000E+00 0. -1.
         11   -1    0    0    0    0 -0.00000000000E+00 -0.00000000000E+00 -0.50000000000E+03  0.50000000000E+03  0.00000000000E+00 0. -1.
        -11    1    1    2    0    0 -0.16056409767E+02  0.14434564566E+01  0.37692547331E+03  0.37727006811E+03  0.00000000000E+00 0. -1.
         11    1    1    2    0    0 -0.82220141984E+01  0.41104904661E+01 -0.49727083322E+03  0.49735578736E+03  0.00000000000E+00 0. -1.
        -15    1    1    2    0    0  0.19369685622E+02 -0.12582369626E+02  0.58627991966E+02  0.63038876239E+02  0.17770000000E+01 0.  1.
         15    1    1    2    0    0  0.49087383432E+01  0.70284227033E+01  0.61717367941E+02  0.62335268287E+02  0.17770000000E+01 0. -1.
</event>
<event>
 6    1  0.2408691E-003  0.5013968E+03  0.7546771E-02  0.9396690E-01
        -11   -1    0    0    0    0  0.00000000000E+00  0.00000000000E+00  0.50000000000E+03  0.50000000000E+03  0.00000000000E+00 0. -1.
         11   -1    0    0    0    0 -0.00000000000E+00 -0.00000000000E+00 -0.50000000000E+03  0.50000000000E+03  0.00000000000E+00 0.  1.
        -11    1    1    2    0    0 -0.43357770389E+01  0.69961250870E+01  0.45286725480E+03  0.45294204397E+03  0.00000000000E+00 0. -1.
         11    1    1    2    0    0 -0.37794333856E+01 -0.92786229637E+01 -0.49850249726E+03  0.49860316559E+03  0.00000000000E+00 0.  1.
        -15    1    1    2    0    0  0.46864220868E+01  0.57286229437E+01  0.10659727152E+02  0.13098365729E+02  0.17770000000E+01 0.  1.
         15    1    1    2    0    0  0.34287883377E+01 -0.34461250670E+01  0.34975515312E+02  0.35356424703E+02  0.17770000000E+01 0. -1.
</event>
<event>
 6    1  0.2408691E-003  0.5027116E+03  0.7546771E-02  0.9393763E-01
        -11   -1    0    0    0    0  0.00000000000E+00  0.00000000000E+00  0.50000000000E+03  0.50000000000E+03  0.00000000000E+00 0.  1.
         11   -1    0    0    0    0 -0.00000000000E+00 -0.00000000000E+00 -0.50000000000E+03  0.50000000000E+03  0.00000000000E+00 0.  1.
        -11    1    1    2    0    0 -0.92819913423E+01 -0.13928360355E+01  0.49719983840E+03  0.49728842200E+03  0.00000000000E+00 0.  1.
         11    1    1    2    0    0  0.32143617585E+01  0.16010252743E+01 -0.19641290278E+03  0.19644572732E+03  0.00000000000E+00 0.  1.
        -15    1    1    2    0    0 -0.82449919356E+01 -0.47368867009E+01 -0.28193794550E+03  0.28210384760E+03  0.17770000000E+01 0.  1.
         15    1    1    2    0    0  0.14312621519E+02  0.45286974621E+01 -0.18848990118E+02  0.24162003082E+02  0.17770000000E+01 0. -1.
</event>
<event>
 6    1  0.2408691E-003  0.5025351E+03  0.7546771E-02  0.9394155E-01
        -11   -1    0    0    0    0  0.00000000000E+00  0.00000000000E+00  0.50000000000E+03  0.50000000000E+03  0.00000000000E+00 0. -1.
         11   -1    0    0    0    0 -0.00000000000E+00 -0.00000000000E+00 -0.50000000000E+03  0.50000000000E+03  0.00000000000E+00 0.  1.
        -11    1    1    2    0    0  0.37190583010E+00  0.70859096250E+01  0.49741428431E+03  0.49746489189E+03  0.00000000000E+00 0. -1.
         11    1    1    2    0    0  0.51891736008E+01 -0.10196230899E+02 -0.48126749068E+03  0.48140345681E+03  0.00000000000E+00 0.  1.
        -15    1    1    2    0    0 -0.13513926651E+01 -0.39701099019E+01 -0.27979999135E+01  0.53455184299E+01  0.17770000000E+01 0.  1.
         15    1    1    2    0    0 -0.42096867658E+01  0.70804311756E+01 -0.13348793715E+02  0.15786132869E+02  0.17770000000E+01 0. -1.
</event>
<event>
 6    1  0.2408691E-003  0.5055280E+03  0.7546771E-02  0.9387525E-01
        -11   -1    0    0    0    0  0.00000000000E+00  0.00000000000E+00  0.50000000000E+03  0.50000000000E+03  0.00000000000E+00 0.  1.
         11   -1    0    0    0    0 -0.00000000000E+00 -0.00000000000E+00 -0.50000000000E+03  0.50000000000E+03  0.00000000000E+00 0. -1.
        -11    1    1    2    0    0  0.15065690664E+02  0.12567415217E+02  0.44752790995E+03  0.44795774929E+03  0.00000000000E+00 0.  1.
         11    1    1    2    0    0  0.10525550325E+02 -0.34674045866E+01 -0.49434778352E+03  0.49447198219E+03  0.00000000000E+00 0. -1.
        -15    1    1    2    0    0 -0.31381235008E+01  0.53868135757E+01  0.12046868032E+02  0.13680290128E+02  0.17770000000E+01 0.  1.
         15    1    1    2    0    0 -0.22453117489E+02 -0.14486824206E+02  0.34773005532E+02  0.43889978392E+02  0.17770000000E+01 0. -1.
</event>
<event>
 6    1  0.2408691E-003  0.5003863E+03  0.7546771E-02  0.9398946E-01
        -11   -1    0    0    0    0  0.00000000000E+00  0.00000000000E+00  0.50000000000E+03  0.50000000000E+03  0.00000000000E+00 0. -1.
         11   -1    0    0    0    0 -0.00000000000E+00 -0.00000000000E+00 -0.50000000000E+03  0.50000000000E+03  0.00000000000E+00 0.  1.
        -11    1    1    2    0    0 -0.38555845718E+01  0.75059631077E+01  0.49954248064E+03  0.49961374579E+03  0.00000000000E+00 0. -1.
         11    1    1    2    0    0 -0.21128582099E+01  0.31977519007E+01 -0.24375771120E+03  0.24378784128E+03  0.00000000000E+00 0.  1.
        -15    1    1    2    0    0  0.31929398384E+01 -0.11542377675E+02 -0.24480217806E+03  0.24510137792E+03  0.17770000000E+01 0.  1.
         15    1    1    2    0    0  0.27755029433E+01  0.83866266685E+00 -0.10982591383E+02  0.11497035016E+02  0.17770000000E+01 0. -1.
</event>
<event>
 6    1  0.2408691E-003  0.4600764E+03  0.7546771E-02  0.9493859E-01
        -11   -1    0    0    0    0  0.00000000000E+00  0.00000000000E+00  0.50000000000E+03  0.50000000000E+03  0.00000000000E+00 0.  1.
         11   -1    0    0    0    0 -0.00000000000E+00 -0.00000000000E+00 -0.50000000000E+03  0.50000000000E+03  0.00000000000E+00 0.  1.
        -11    1    1    2    0    0 -0.14268318224E+02  0.72893398854E+01  0.46024595341E+03  0.46052476264E+03  0.00000000000E+00 0.  1.
         11    1    1    2    0    0 -0.50300989665E+00  0.96081398897E+01 -0.45980112702E+03  0.45990177841E+03  0.00000000000E+00 0.  1.
        -15    1    1    2    0    0  0.21983849205E+02 -0.18726123923E+01  0.34400542980E+02  0.40906617916E+02  0.17770000000E+01 0. -1.
         15    1    1    2    0    0 -0.72125210845E+01 -0.15024867383E+02 -0.34845369362E+02  0.38666841030E+02  0.17770000000E+01 0.  1.
</event>
<event>
 6    1  0.2408691E-003  0.5006287E+03  0.7546771E-02  0.9398404E-01
        -11   -1    0    0    0    0  0.00000000000E+00  0.00000000000E+00  0.50000000000E+03  0.50000000000E+03  0.00000000000E+00 0.  1.
         11   -1    0    0    0    0 -0.00000000000E+00 -0.00000000000E+00 -0.50000000000E+03  0.50000000000E+03  0.00000000000E+00 0.  1.
        -11    1    1    2    0    0 -0.29672087904E+00  0.73644828573E+01  0.49931690467E+03  0.49937129968E+03  0.00000000000E+00 0.  1.
         11    1    1    2    0    0  0.61947057593E+01  0.22427583254E+01 -0.41727487149E+03  0.41732687754E+03  0.00000000000E+00 0.  1.
        -15    1    1    2    0    0 -0.12924905529E+01 -0.43037090666E-01 -0.44105286487E+01  0.49277658205E+01  0.17770000000E+01 0.  1.
         15    1    1    2    0    0 -0.46054943274E+01 -0.95642040921E+01 -0.77631504536E+02  0.78374056954E+02  0.17770000000E+01 0.  1.
</event>
<event>
 6    1  0.2408691E-003  0.5012409E+03  0.7546771E-02  0.9397037E-01
        -11   -1    0    0    0    0  0.00000000000E+00  0.00000000000E+00  0.50000000000E+03  0.50000000000E+03  0.00000000000E+00 0.  1.
         11   -1    0    0    0    0 -0.00000000000E+00 -0.00000000000E+00 -0.50000000000E+03  0.50000000000E+03  0.00000000000E+00 0.  1.
        -11    1    1    2    0    0 -0.56663688710E+01  0.62390460057E+01  0.49868793100E+03  0.49875914624E+03  0.00000000000E+00 0.  1.
         11    1    1    2    0    0 -0.35563622580E+01 -0.81284212393E+01 -0.44085168114E+03  0.44094095263E+03  0.00000000000E+00 0.  1.
        -15    1    1    2    0    0  0.87161656611E+01  0.63661876453E+01 -0.27782490586E+02  0.29858405871E+02  0.17770000000E+01 0. -1.
         15    1    1    2    0    0  0.50656546783E+00 -0.44768124117E+01 -0.30053759279E+02  0.30441495261E+02  0.17770000000E+01 0.  1.
</event>
<event>
 6    1  0.2408691E-003  0.3312264E+03  0.7546771E-02  0.9884748E-01
        -11   -1    0    0    0    0  0.00000000000E+00  0.00000000000E+00  0.50000000000E+03  0.50000000000E+03  0.00000000000E+00 0.  1.
         11   -1    0    0    0    0 -0.00000000000E+00 -0.00000000000E+00 -0.50000000000E+03  0.50000000000E+03  0.00000000000E+00 0.  1.
        -11    1    1    2    0    0  0.92821132153E+01  0.91601833468E+02  0.13086842339E+03  0.16001124260E+03  0.00000000000E+00 0.  1.
         11    1    1    2    0    0  0.15506386616E+00  0.63314502861E+01 -0.32681233106E+03  0.32687369279E+03  0.00000000000E+00 0.  1.
        -15    1    1    2    0    0 -0.92536375363E+02 -0.16083055227E+03  0.30831245821E+03  0.35984604614E+03  0.17770000000E+01 0.  1.
         15    1    1    2    0    0  0.83099198282E+02  0.62897268513E+02 -0.11236855054E+03  0.15326901846E+03  0.17770000000E+01 0. -1.
</event>
<event>
 6    1  0.2408691E-003  0.5002220E+03  0.7546771E-02  0.9399313E-01
        -11   -1    0    0    0    0  0.00000000000E+00  0.00000000000E+00  0.50000000000E+03  0.50000000000E+03  0.00000000000E+00 0. -1.
         11   -1    0    0    0    0 -0.00000000000E+00 -0.00000000000E+00 -0.50000000000E+03  0.50000000000E+03  0.00000000000E+00 0.  1.
        -11    1    1    2    0    0 -0.38210262835E+01 -0.76468666693E+01  0.49970490181E+03  0.49977801442E+03  0.00000000000E+00 0. -1.
         11    1    1    2    0    0  0.22975887747E+01 -0.19782619016E+01 -0.19461054795E+03  0.19463416403E+03  0.00000000000E+00 0.  1.
        -15    1    1    2    0    0 -0.20873794058E+01  0.68665657183E+01 -0.61245429317E+02  0.61690090118E+02  0.17770000000E+01 0.  1.
         15    1    1    2    0    0  0.36108169146E+01  0.27585628526E+01 -0.24384892453E+03  0.24389773142E+03  0.17770000000E+01 0. -1.
</event>
<event>
 6    1  0.2408691E-003  0.5065046E+03  0.7546771E-02  0.9385372E-01
        -11   -1    0    0    0    0  0.00000000000E+00  0.00000000000E+00  0.50000000000E+03  0.50000000000E+03  0.00000000000E+00 0.  1.
         11   -1    0    0    0    0 -0.00000000000E+00 -0.00000000000E+00 -0.50000000000E+03  0.50000000000E+03  0.00000000000E+00 0. -1.
        -11    1    1    2    0    0  0.14931765332E+02  0.14446875867E+02  0.45991406045E+03  0.46038311528E+03  0.00000000000E+00 0.  1.
         11    1    1    2    0    0 -0.90537082030E+01  0.87862783822E+01 -0.49333415586E+03  0.49349544847E+03  0.00000000000E+00 0. -1.
        -15    1    1    2    0    0 -0.69404559978E+01 -0.12608210883E+02  0.32090913370E+02  0.35215356893E+02  0.17770000000E+01 0. -1.
         15    1    1    2    0    0  0.10623988691E+01 -0.10624943366E+02  0.13291820430E+01  0.10906079350E+02  0.17770000000E+01 0.  1.
</event>
<event>
 6    1  0.2408691E-003  0.5009892E+03  0.7546771E-02  0.9397599E-01
        -11   -1    0    0    0    0  0.00000000000E+00  0.00000000000E+00  0.50000000000E+03  0.50000000000E+03  0.00000000000E+00 0. -1.
         11   -1    0    0    0    0 -0.00000000000E+00 -0.00000000000E+00 -0.50000000000E+03  0.50000000000E+03  0.00000000000E+00 0. -1.
        -11    1    1    2    0    0 -0.89286036234E+01 -0.31167233027E+01  0.31667316313E+03  0.31681434022E+03  0.00000000000E+00 0. -1.
         11    1    1    2    0    0 -0.70628186777E+01 -0.83267919845E+01 -0.49889135580E+03  0.49901082529E+03  0.00000000000E+00 0. -1.
        -15    1    1    2    0    0 -0.32308719877E+01 -0.15523331219E+00  0.41745092043E+02  0.41907911781E+02  0.17770000000E+01 0. -1.
         15    1    1    2    0    0  0.19222294289E+02  0.11598748599E+02  0.14047310062E+03  0.14226692270E+03  0.17770000000E+01 0. -1.
</event>
<event>
 6    1  0.2408691E-003  0.5008114E+03  0.7546771E-02  0.9397996E-01
        -11   -1    0    0    0    0  0.00000000000E+00  0.00000000000E+00  0.50000000000E+03  0.50000000000E+03  0.00000000000E+00 0. -1.
         11   -1    0    0    0    0 -0.00000000000E+00 -0.00000000000E+00 -0.50000000000E+03  0.50000000000E+03  0.00000000000E+00 0.  1.
        -11    1    1    2    0    0  0.34762189749E+01  0.52668711183E+01  0.27842741029E+03  0.27849891711E+03  0.00000000000E+00 0. -1.
         11    1    1    2    0    0 -0.68964176110E+01  0.45776493914E+01 -0.49912000132E+03  0.49918863285E+03  0.00000000000E+00 0.  1.
        -15    1    1    2    0    0 -0.63196843743E+01 -0.52472768206E+00  0.15912758653E+03  0.15926380717E+03  0.17770000000E+01 0.  1.
         15    1    1    2    0    0  0.97398830104E+01 -0.93197928276E+01  0.61565004501E+02  0.63048642869E+02  0.17770000000E+01 0.  1.
</event>
<event>
 6    1  0.2408691E-003  0.5002899E+03  0.7546771E-02  0.9399161E-01
        -11   -1    0    0    0    0  0.00000000000E+00  0.00000000000E+00  0.50000000000E+03  0.50000000000E+03  0.00000000000E+00 0. -1.
         11   -1    0    0    0    0 -0.00000000000E+00 -0.00000000000E+00 -0.50000000000E+03  0.50000000000E+03  0.00000000000E+00 0. -1.
        -11    1    1    2    0    0  0.57841883925E+01 -0.10139114625E+02  0.49957371068E+03  0.49971006682E+03  0.00000000000E+00 0. -1.
         11    1    1    2    0    0  0.11358814036E+01  0.12214383055E+01 -0.10726768850E+03  0.10728065591E+03  0.00000000000E+00 0. -1.
        -15    1    1    2    0    0 -0.57735768974E+01  0.13800703074E+02 -0.35566109085E+03  0.35598000347E+03  0.17770000000E+01 0. -1.
         15    1    1    2    0    0 -0.11464928988E+01 -0.48830267546E+01 -0.36644931336E+02  0.37029273797E+02  0.17770000000E+01 0.  1.
</event>
<event>
 6    1  0.2408691E-003  0.5278080E+03  0.7546771E-02  0.9339651E-01
        -11   -1    0    0    0    0  0.00000000000E+00  0.00000000000E+00  0.50000000000E+03  0.50000000000E+03  0.00000000000E+00 0. -1.
         11   -1    0    0    0    0 -0.00000000000E+00 -0.00000000000E+00 -0.50000000000E+03  0.50000000000E+03  0.00000000000E+00 0.  1.
        -11    1    1    2    0    0 -0.10614746905E+01 -0.68031363608E+01  0.47214180608E+03  0.47219201014E+03  0.00000000000E+00 0. -1.
         11    1    1    2    0    0  0.47568014399E+01  0.53027522308E+01 -0.46549313467E+03  0.46554763963E+03  0.00000000000E+00 0.  1.
        -15    1    1    2    0    0 -0.90863125367E+01 -0.82525818292E+01 -0.32103701324E+02  0.34416152458E+02  0.17770000000E+01 0. -1.
         15    1    1    2    0    0  0.53909857874E+01  0.97529659592E+01  0.25455029912E+02  0.27844197772E+02  0.17770000000E+01 0.  1.
</event>
<event>
 6    1  0.2408691E-003  0.5300977E+03  0.7546771E-02  0.9334873E-01
        -11   -1    0    0    0    0  0.00000000000E+00  0.00000000000E+00  0.50000000000E+03  0.50000000000E+03  0.00000000000E+00 0. -1.
         11   -1    0    0    0    0 -0.00000000000E+00 -0.00000000000E+00 -0.50000000000E+03  0.50000000000E+03  0.00000000000E+00 0.  1.
        -11    1    1    2    0    0  0.18774377944E+02  0.17702702642E+02  0.46919328808E+03  0.46990233510E+03  0.00000000000E+00 0. -1.
         11    1    1    2    0    0 -0.33430475880E+01  0.92466442679E+01 -0.41586640310E+03  0.41598262178E+03  0.00000000000E+00 0.  1.
        -15    1    1    2    0    0 -0.74682053821E+01 -0.27892124278E+02  0.23240586814E+02  0.37108318378E+02  0.17770000000E+01 0. -1.
         15    1    1    2    0    0 -0.79631249739E+01  0.94277736777E+00 -0.76567471797E+02  0.77006724738E+02  0.17770000000E+01 0.  1.
</event>
<event>
 6    1  0.2408691E-003  0.4888973E+03  0.7546771E-02  0.9425001E-01
        -11   -1    0    0    0    0  0.00000000000E+00  0.00000000000E+00  0.50000000000E+03  0.50000000000E+03  0.00000000000E+00 0. -1.
         11   -1    0    0    0    0 -0.00000000000E+00 -0.00000000000E+00 -0.50000000000E+03  0.50000000000E+03  0.00000000000E+00 0.  1.
        -11    1    1    2    0    0 -0.52249271020E+01 -0.69219358218E+01  0.48646733494E+03  0.48654463415E+03  0.00000000000E+00 0. -1.
         11    1    1    2    0    0 -0.39719515511E+01 -0.65657154479E+01 -0.49133847359E+03  0.49139839301E+03  0.00000000000E+00 0.  1.
        -15    1    1    2    0    0  0.24741048110E+01  0.43239137317E+01 -0.47129298754E+01  0.70842685992E+01  0.17770000000E+01 0.  1.
         15    1    1    2    0    0  0.67227738421E+01  0.91637375380E+01  0.95840685291E+01  0.14972704244E+02  0.17770000000E+01 0. -1.
</event>
<event>
 6    1  0.2408691E-003  0.5021066E+03  0.7546771E-02  0.9395108E-01
        -11   -1    0    0    0    0  0.00000000000E+00  0.00000000000E+00  0.50000000000E+03  0.50000000000E+03  0.00000000000E+00 0. -1.
         11   -1    0    0    0    0 -0.00000000000E+00 -0.00000000000E+00 -0.50000000000E+03  0.50000000000E+03  0.00000000000E+00 0.  1.
        -11    1    1    2    0    0 -0.68542437513E+01 -0.17100838216E+01  0.41980803116E+03  0.41986746489E+03  0.00000000000E+00 0. -1.
         11    1    1    2    0    0 -0.70050711556E+01  0.43493546539E+01 -0.49782510949E+03  0.49789338974E+03  0.00000000000E+00 0.  1.
        -15    1    1    2    0    0 -0.12364852592E+01 -0.19867949963E+01  0.19605802873E+00  0.29448969259E+01  0.17770000000E+01 0.  1.
         15    1    1    2    0    0  0.15095800166E+02 -0.65247583602E+00  0.77821020297E+02  0.79294248445E+02  0.17770000000E+01 0.  1.
</event>
<event>
 6    1  0.2408691E-003  0.5067573E+03  0.7546771E-02  0.9384815E-01
        -11   -1    0    0    0    0  0.00000000000E+00  0.00000000000E+00  0.50000000000E+03  0.50000000000E+03  0.00000000000E+00 0.  1.
         11   -1    0    0    0    0 -0.00000000000E+00 -0.00000000000E+00 -0.50000000000E+03  0.50000000000E+03  0.00000000000E+00 0. -1.
        -11    1    1    2    0    0  0.77354791644E+00 -0.22107861044E+02  0.49274636090E+03  0.49324267057E+03  0.00000000000E+00 0.  1.
         11    1    1    2    0    0  0.39406293274E+01 -0.11291941655E+02 -0.33639682253E+03  0.33660935625E+03  0.00000000000E+00 0. -1.
        -15    1    1    2    0    0 -0.70405285109E+01  0.78087643741E+01  0.99456149301E+00  0.10709468910E+02  0.17770000000E+01 0. -1.
         15    1    1    2    0    0  0.23263512671E+01  0.25591038325E+02 -0.15734409986E+03  0.15943850426E+03  0.17770000000E+01 0.  1.
</event>
<event>
 6    1  0.2408691E-003  0.5062045E+03  0.7546771E-02  0.9386033E-01
        -11   -1    0    0    0    0  0.00000000000E+00  0.00000000000E+00  0.50000000000E+03  0.50000000000E+03  0.00000000000E+00 0.  1.
         11   -1    0    0    0    0 -0.00000000000E+00 -0.00000000000E+00 -0.50000000000E+03  0.50000000000E+03  0.00000000000E+00 0. -1.
        -11    1    1    2    0    0 -0.64617996721E+01 -0.68629541612E+00  0.36105728116E+03  0.36111575171E+03  0.00000000000E+00 0.  1.
         11    1    1    2    0    0  0.71501216040E+01  0.84329109424E+01 -0.49367168423E+03  0.49379547389E+03  0.00000000000E+00 0. -1.
        -15    1    1    2    0    0  0.76759435359E+01  0.47548209136E+01  0.12924526779E+03  0.12957247163E+03  0.17770000000E+01 0. -1.
         15    1    1    2    0    0 -0.83642654679E+01 -0.12501436440E+02  0.33691352890E+01  0.15516302764E+02  0.17770000000E+01 0.  1.
</event>
<event>
 6    1  0.2408691E-003  0.5516999E+03  0.7546771E-02  0.9291022E-01
        -11   -1    0    0    0    0  0.00000000000E+00  0.00000000000E+00  0.50000000000E+03  0.50000000000E+03  0.00000000000E+00 0. -1.
         11   -1    0    0    0    0 -0.00000000000E+00 -0.00000000000E+00 -0.50000000000E+03  0.50000000000E+03  0.00000000000E+00 0. -1.
        -11    1    1    2    0    0  0.47973718777E+00 -0.10412085895E+02  0.44817891507E+03  0.44830010216E+03  0.00000000000E+00 0. -1.
         11    1    1    2    0    0  0.38746601016E+01 -0.50630440957E+01 -0.39792530379E+03  0.39797637468E+03  0.00000000000E+00 0. -1.
        -15    1    1    2    0    0 -0.46335482149E+02 -0.21432790237E+02  0.27446040275E+02  0.57989518528E+02  0.17770000000E+01 0. -1.
         15    1    1    2    0    0  0.41981084860E+02  0.36907920227E+02 -0.77699651556E+02  0.95734004630E+02  0.17770000000E+01 0.  1.
</event>
<event>
 6    1  0.2453128E-003  0.4473424E+03  0.7546771E-02  0.9526015E-01
        -11   -1    0    0    0    0  0.00000000000E+00  0.00000000000E+00  0.50000000000E+03  0.50000000000E+03  0.00000000000E+00 0.  1.
         11   -1    0    0    0    0 -0.00000000000E+00 -0.00000000000E+00 -0.50000000000E+03  0.50000000000E+03  0.00000000000E+00 0.  1.
        -11    1    1    2    0    0  0.78431819771E+01 -0.10376646052E+02  0.43695387790E+03  0.43714743702E+03  0.00000000000E+00 0.  1.
         11    1    1    2    0    0  0.34749781250E+02 -0.31177477873E+02 -0.45736990748E+03  0.45974646784E+03  0.00000000000E+00 0.  1.
        -15    1    1    2    0    0 -0.38858596101E+02  0.29571032387E+02 -0.25748957241E+02  0.55232263899E+02  0.17770000000E+01 0. -1.
         15    1    1    2    0    0 -0.37343671260E+01  0.11983091538E+02  0.46164986819E+02  0.47873831240E+02  0.17770000000E+01 0. -1.
</event>
<event>
 6    1  0.2408691E-003  0.5029657E+03  0.7546771E-02  0.9393198E-01
        -11   -1    0    0    0    0  0.00000000000E+00  0.00000000000E+00  0.50000000000E+03  0.50000000000E+03  0.00000000000E+00 0. -1.
         11   -1    0    0    0    0 -0.00000000000E+00 -0.00000000000E+00 -0.50000000000E+03  0.50000000000E+03  0.00000000000E+00 0.  1.
        -11    1    1    2    0    0  0.26599683288E+01  0.74133206342E+01  0.28521879133E+03  0.28532751652E+03  0.00000000000E+00 0. -1.
         11    1    1    2    0    0 -0.75634854938E+01  0.37060821302E+01 -0.49696288847E+03  0.49703425825E+03  0.00000000000E+00 0.  1.
        -15    1    1    2    0    0 -0.11811184638E+00 -0.84096444763E+01  0.21148142940E+03  0.21165606247E+03  0.17770000000E+01 0.  1.
         15    1    1    2    0    0  0.50216290114E+01 -0.27097582882E+01  0.26266774275E+00  0.59821627570E+01  0.17770000000E+01 0. -1.
</event>
<event>
 6    1  0.2408691E-003  0.5016585E+03  0.7546771E-02  0.9396106E-01
        -11   -1    0    0    0    0  0.00000000000E+00  0.00000000000E+00  0.50000000000E+03  0.50000000000E+03  0.00000000000E+00 0.  1.
         11   -1    0    0    0    0 -0.00000000000E+00 -0.00000000000E+00 -0.50000000000E+03  0.50000000000E+03  0.00000000000E+00 0. -1.
        -11    1    1    2    0    0 -0.93594389995E+01  0.12248334504E+01  0.38239403956E+03  0.38251052379E+03  0.00000000000E+00 0.  1.
         11    1    1    2    0    0 -0.41511990520E+01 -0.66164825212E+01 -0.49828030572E+03  0.49834152282E+03  0.00000000000E+00 0. -1.
        -15    1    1    2    0    0  0.12414676053E+02 -0.32237472261E-01  0.24010092765E+02  0.27088143243E+02  0.17770000000E+01 0. -1.
         15    1    1    2    0    0  0.10959619988E+01  0.54238865430E+01  0.91876173397E+02  0.92059810151E+02  0.17770000000E+01 0.  1.
</event>
<event>
 6    1  0.2408691E-003  0.5087384E+03  0.7546771E-02  0.9380466E-01
        -11   -1    0    0    0    0  0.00000000000E+00  0.00000000000E+00  0.50000000000E+03  0.50000000000E+03  0.00000000000E+00 0. -1.
         11   -1    0    0    0    0 -0.00000000000E+00 -0.00000000000E+00 -0.50000000000E+03  0.50000000000E+03  0.00000000000E+00 0. -1.
        -11    1    1    2    0    0 -0.28931748854E+01 -0.90795355142E+01  0.49116919947E+03  0.49126163186E+03  0.00000000000E+00 0. -1.
         11    1    1    2    0    0  0.15733816553E+02  0.71730980289E+01 -0.42789297892E+03  0.42824223020E+03  0.00000000000E+00 0. -1.
        -15    1    1    2    0    0 -0.28379177480E+01  0.24592717942E+02 -0.29331528981E+02  0.38423324612E+02  0.17770000000E+01 0. -1.
         15    1    1    2    0    0 -0.10002723919E+02 -0.22686280456E+02 -0.33944691568E+02  0.42072813329E+02  0.17770000000E+01 0.  1.
</event>
<event>
 6    1  0.2408691E-003  0.4570767E+03  0.7546771E-02  0.9501333E-01
        -11   -1    0    0    0    0  0.00000000000E+00  0.00000000000E+00  0.50000000000E+03  0.50000000000E+03  0.00000000000E+00 0. -1.
         11   -1    0    0    0    0 -0.00000000000E+00 -0.00000000000E+00 -0.50000000000E+03  0.50000000000E+03  0.00000000000E+00 0.  1.
        -11    1    1    2    0    0  0.25043808238E+02  0.15794465082E+01  0.45264970570E+03  0.45334472872E+03  0.00000000000E+00 0. -1.
         11    1    1    2    0    0 -0.21027703116E+02  0.40948708553E+02 -0.45953224358E+03  0.46183205164E+03  0.00000000000E+00 0.  1.
        -15    1    1    2    0    0 -0.14018031785E+02 -0.12941705231E+02  0.36830645525E+02  0.41516829457E+02  0.17770000000E+01 0. -1.
         15    1    1    2    0    0  0.10001926662E+02 -0.29586449830E+02 -0.29948107643E+02  0.43306390186E+02  0.17770000000E+01 0.  1.
</event>
<event>
 6    1  0.2408691E-003  0.5103994E+03  0.7546771E-02  0.9376836E-01
        -11   -1    0    0    0    0  0.00000000000E+00  0.00000000000E+00  0.50000000000E+03  0.50000000000E+03  0.00000000000E+00 0.  1.
         11   -1    0    0    0    0 -0.00000000000E+00 -0.00000000000E+00 -0.50000000000E+03  0.50000000000E+03  0.00000000000E+00 0.  1.
        -11    1    1    2    0    0 -0.37446756273E+01  0.74358330561E+01  0.48952984289E+03  0.48960063449E+03  0.00000000000E+00 0.  1.
         11    1    1    2    0    0  0.73086686411E+01 -0.91553823893E+01 -0.47791549865E+03  0.47805905652E+03  0.00000000000E+00 0.  1.
        -15    1    1    2    0    0 -0.28602116336E+01  0.90998107727E+01 -0.19245758384E+02  0.21553290038E+02  0.17770000000E+01 0. -1.
         15    1    1    2    0    0 -0.70378138029E+00 -0.73802614394E+01  0.76314141426E+01  0.10787018956E+02  0.17770000000E+01 0.  1.
</event>
<event>
 6    1  0.2408691E-003  0.5295566E+03  0.7546771E-02  0.9336000E-01
        -11   -1    0    0    0    0  0.00000000000E+00  0.00000000000E+00  0.50000000000E+03  0.50000000000E+03  0.00000000000E+00 0.  1.
         11   -1    0    0    0    0 -0.00000000000E+00 -0.00000000000E+00 -0.50000000000E+03  0.50000000000E+03  0.00000000000E+00 0. -1.
        -11    1    1    2    0    0 -0.67778059914E+01 -0.84579622505E+01  0.47031847879E+03  0.47044335182E+03  0.00000000000E+00 0.  1.
         11    1    1    2    0    0  0.55261829105E+01 -0.17162951036E+02 -0.35183618014E+03  0.35229788992E+03  0.00000000000E+00 0. -1.
        -15    1    1    2    0    0  0.59336018622E+01  0.14895602299E+01  0.28001052315E+02  0.28716599389E+02  0.17770000000E+01 0.  1.
         15    1    1    2    0    0 -0.46819787812E+01  0.24131353057E+02 -0.14648335096E+03  0.14854215888E+03  0.17770000000E+01 0. -1.
</event>
<event>
 6    1  0.2408691E-003  0.5006747E+03  0.7546771E-02  0.9398301E-01
        -11   -1    0    0    0    0  0.00000000000E+00  0.00000000000E+00  0.50000000000E+03  0.50000000000E+03  0.00000000000E+00 0. -1.
         11   -1    0    0    0    0 -0.00000000000E+00 -0.00000000000E+00 -0.50000000000E+03  0.50000000000E+03  0.00000000000E+00 0. -1.
        -11    1    1    2    0    0  0.48490284151E+01  0.55556610196E+01  0.49927082048E+03  0.49932527538E+03  0.00000000000E+00 0. -1.
         11    1    1    2    0    0  0.36580727255E+01 -0.10748459045E+02 -0.37942091642E+03  0.37959075684E+03  0.00000000000E+00 0. -1.
        -15    1    1    2    0    0 -0.16610869572E+01 -0.84189444308E+00 -0.34049131802E+01  0.42683906683E+01  0.17770000000E+01 0. -1.
         15    1    1    2    0    0 -0.68460141835E+01  0.60346924681E+01 -0.11644499089E+03  0.11681557711E+03  0.17770000000E+01 0.  1.
</event>
<event>
 6    1  0.2408691E-003  0.5168869E+03  0.7546771E-02  0.9362797E-01
        -11   -1    0    0    0    0  0.00000000000E+00  0.00000000000E+00  0.50000000000E+03  0.50000000000E+03  0.00000000000E+00 0. -1.
         11   -1    0    0    0    0 -0.00000000000E+00 -0.00000000000E+00 -0.50000000000E+03  0.50000000000E+03  0.00000000000E+00 0.  1.
        -11    1    1    2    0    0  0.79015637087E+01  0.76216509076E+01  0.48298830079E+03  0.48311305402E+03  0.00000000000E+00 0. -1.
         11    1    1    2    0    0  0.62036876716E+01 -0.41478721503E+01 -0.45506621708E+03  0.45512740251E+03  0.00000000000E+00 0.  1.
        -15    1    1    2    0    0 -0.72877982322E+01 -0.52264094721E+01  0.15358824418E+02  0.17873963622E+02  0.17770000000E+01 0.  1.
         15    1    1    2    0    0 -0.68174531481E+01  0.17526307148E+01 -0.43280908121E+02  0.43885579849E+02  0.17770000000E+01 0.  1.
</event>
<event>
 6    1  0.2408691E-003  0.5174976E+03  0.7546771E-02  0.9361487E-01
        -11   -1    0    0    0    0  0.00000000000E+00  0.00000000000E+00  0.50000000000E+03  0.50000000000E+03  0.00000000000E+00 0. -1.
         11   -1    0    0    0    0 -0.00000000000E+00 -0.00000000000E+00 -0.50000000000E+03  0.50000000000E+03  0.00000000000E+00 0. -1.
        -11    1    1    2    0    0  0.17795127496E+01  0.94509552288E+01  0.44330890680E+03  0.44341320917E+03  0.00000000000E+00 0. -1.
         11    1    1    2    0    0 -0.18013842207E+02  0.30927710536E+00 -0.48216592788E+03  0.48250241054E+03  0.00000000000E+00 0. -1.
        -15    1    1    2    0    0 -0.27038421819E+01 -0.49016767508E+01  0.50777921055E+02  0.51116457166E+02  0.17770000000E+01 0.  1.
         15    1    1    2    0    0  0.18938171639E+02 -0.48585555834E+01 -0.11920899976E+02  0.22967923124E+02  0.17770000000E+01 0. -1.
</event>
<event>
 6    1  0.2408691E-003  0.5006890E+03  0.7546771E-02  0.9398269E-01
        -11   -1    0    0    0    0  0.00000000000E+00  0.00000000000E+00  0.50000000000E+03  0.50000000000E+03  0.00000000000E+00 0. -1.
         11   -1    0    0    0    0 -0.00000000000E+00 -0.00000000000E+00 -0.50000000000E+03  0.50000000000E+03  0.00000000000E+00 0.  1.
        -11    1    1    2    0    0 -0.32648045675E+01  0.14144849997E+02  0.49909994563E+03  0.49931101676E+03  0.00000000000E+00 0. -1.
         11    1    1    2    0    0 -0.13213774331E+00 -0.16149529238E+02 -0.18934221290E+03  0.19002973015E+03  0.00000000000E+00 0.  1.
        -15    1    1    2    0    0  0.12611560569E+02  0.51302938761E+01 -0.17252316189E+03  0.17306868721E+03  0.17770000000E+01 0.  1.
         15    1    1    2    0    0 -0.92146182585E+01 -0.31256146349E+01 -0.13723457084E+03  0.13759056588E+03  0.17770000000E+01 0. -1.
</event>
<event>
 6    1  0.2408691E-003  0.5018295E+03  0.7546771E-02  0.9395725E-01
        -11   -1    0    0    0    0  0.00000000000E+00  0.00000000000E+00  0.50000000000E+03  0.50000000000E+03  0.00000000000E+00 0. -1.
         11   -1    0    0    0    0 -0.00000000000E+00 -0.00000000000E+00 -0.50000000000E+03  0.50000000000E+03  0.00000000000E+00 0. -1.
        -11    1    1    2    0    0  0.12943576740E+02 -0.30776233046E+01  0.49799280939E+03  0.49817049907E+03  0.00000000000E+00 0. -1.
         11    1    1    2    0    0  0.69482631666E+01 -0.60169170989E+01 -0.29205253610E+03  0.29219713465E+03  0.00000000000E+00 0. -1.
        -15    1    1    2    0    0 -0.26463779389E+01  0.13779317493E+00 -0.15574156650E+03  0.15577424553E+03  0.17770000000E+01 0.  1.
         15    1    1    2    0    0 -0.17245461967E+02  0.89567472286E+01 -0.50198706785E+02  0.53858120755E+02  0.17770000000E+01 0. -1.
</event>
<event>
 6    1  0.2408691E-003  0.5037562E+03  0.7546771E-02  0.9391444E-01
        -11   -1    0    0    0    0  0.00000000000E+00  0.00000000000E+00  0.50000000000E+03  0.50000000000E+03  0.00000000000E+00 0.  1.
         11   -1    0    0    0    0 -0.00000000000E+00 -0.00000000000E+00 -0.50000000000E+03  0.50000000000E+03  0.00000000000E+00 0. -1.
        -11    1    1    2    0    0  0.40936094515E+01  0.70616683384E+01  0.49617662799E+03  0.49624376163E+03  0.00000000000E+00 0.  1.
         11    1    1    2    0    0  0.60577307232E+01 -0.23131191444E+01 -0.47191591219E+03  0.47196045894E+03  0.00000000000E+00 0. -1.
        -15    1    1    2    0    0 -0.22611757895E+01  0.58145959148E+01 -0.12300207475E+02  0.13905943856E+02  0.17770000000E+01 0.  1.
         15    1    1    2    0    0 -0.78901643852E+01 -0.10563145109E+02 -0.11960508323E+02  0.17889835577E+02  0.17770000000E+01 0. -1.
</event>
<event>
 6    1  0.2408691E-003  0.5014368E+03  0.7546771E-02  0.9396600E-01
        -11   -1    0    0    0    0  0.00000000000E+00  0.00000000000E+00  0.50000000000E+03  0.50000000000E+03  0.00000000000E+00 0. -1.
         11   -1    0    0    0    0 -0.00000000000E+00 -0.00000000000E+00 -0.50000000000E+03  0.50000000000E+03  0.00000000000E+00 0.  1.
        -11    1    1    2    0    0  0.11099800511E+01  0.21353604073E+01  0.12075349453E+03  0.12077747414E+03  0.00000000000E+00 0. -1.
         11    1    1    2    0    0 -0.20550695793E+02  0.11598111668E+02 -0.49800443555E+03  0.49856320073E+03  0.00000000000E+00 0.  1.
        -15    1    1    2    0    0  0.14281046810E+02 -0.66158869864E+01  0.36566350667E+03  0.36600638806E+03  0.17770000000E+01 0. -1.
         15    1    1    2    0    0  0.51596689316E+01 -0.71175850890E+01  0.11587434354E+02  0.14652937074E+02  0.17770000000E+01 0.  1.
</event>
<event>
 6    1  0.2408691E-003  0.5386596E+03  0.7546771E-02  0.9317233E-01
        -11   -1    0    0    0    0  0.00000000000E+00  0.00000000000E+00  0.50000000000E+03  0.50000000000E+03  0.00000000000E+00 0. -1.
         11   -1    0    0    0    0 -0.00000000000E+00 -0.00000000000E+00 -0.50000000000E+03  0.50000000000E+03  0.00000000000E+00 0. -1.
        -11    1    1    2    0    0  0.82392076432E+01  0.15737899531E+01  0.46126417552E+03  0.46134043934E+03  0.00000000000E+00 0. -1.
         11    1    1    2    0    0  0.19202233528E+02  0.85131296380E+01 -0.42854387498E+03  0.42905833162E+03  0.00000000000E+00 0. -1.
        -15    1    1    2    0    0 -0.17976142600E+02 -0.47549041942E+02 -0.46125263251E+02  0.68664042492E+02  0.17770000000E+01 0. -1.
         15    1    1    2    0    0 -0.94652985718E+01  0.37462122351E+02  0.13404962712E+02  0.40937186548E+02  0.17770000000E+01 0.  1.
</event>
<event>
 6    1  0.2408691E-003  0.5118935E+03  0.7546771E-02  0.9373584E-01
        -11   -1    0    0    0    0  0.00000000000E+00  0.00000000000E+00  0.50000000000E+03  0.50000000000E+03  0.00000000000E+00 0. -1.
         11   -1    0    0    0    0 -0.00000000000E+00 -0.00000000000E+00 -0.50000000000E+03  0.50000000000E+03  0.00000000000E+00 0. -1.
        -11    1    1    2    0    0 -0.24190556257E+02 -0.69055064521E+01  0.48320785435E+03  0.48386227332E+03  0.00000000000E+00 0. -1.
         11    1    1    2    0    0  0.20936500345E+02  0.10007856341E+01 -0.48765629372E+03  0.48810654516E+03  0.00000000000E+00 0. -1.
        -15    1    1    2    0    0  0.20252104018E+01  0.12303894520E+02  0.12347561887E+02  0.17638234353E+02  0.17770000000E+01 0. -1.
         15    1    1    2    0    0  0.12288455108E+01 -0.63991737022E+01 -0.78991225197E+01  0.10392947173E+02  0.17770000000E+01 0.  1.
</event>
<event>
 6    1  0.2408691E-003  0.5151295E+03  0.7546771E-02  0.9366579E-01
        -11   -1    0    0    0    0  0.00000000000E+00  0.00000000000E+00  0.50000000000E+03  0.50000000000E+03  0.00000000000E+00 0. -1.
         11   -1    0    0    0    0 -0.00000000000E+00 -0.00000000000E+00 -0.50000000000E+03  0.50000000000E+03  0.00000000000E+00 0.  1.
        -11    1    1    2    0    0  0.11113552957E+01 -0.23973959446E+02  0.48427620893E+03  0.48487053157E+03  0.00000000000E+00 0. -1.
         11    1    1    2    0    0  0.10426200314E+02 -0.17803447424E+00 -0.44909761758E+03  0.44921866330E+03  0.00000000000E+00 0.  1.
        -15    1    1    2    0    0 -0.20436607911E+02  0.19706328056E+02  0.88383411335E+00  0.28459325363E+02  0.17770000000E+01 0. -1.
         15    1    1    2    0    0  0.88990523013E+01  0.44456658647E+01 -0.36062425472E+02  0.37451479767E+02  0.17770000000E+01 0.  1.
</event>
<event>
 6    1  0.2408691E-003  0.5037207E+03  0.7546771E-02  0.9391523E-01
        -11   -1    0    0    0    0  0.00000000000E+00  0.00000000000E+00  0.50000000000E+03  0.50000000000E+03  0.00000000000E+00 0. -1.
         11   -1    0    0    0    0 -0.00000000000E+00 -0.00000000000E+00 -0.50000000000E+03  0.50000000000E+03  0.00000000000E+00 0.  1.
        -11    1    1    2    0    0 -0.68113532774E+01  0.57633190123E+01  0.49619909605E+03  0.49627930976E+03  0.00000000000E+00 0. -1.
         11    1    1    2    0    0 -0.32438249158E+01 -0.73867254071E+01 -0.48207795464E+03  0.48214545571E+03  0.00000000000E+00 0.  1.
        -15    1    1    2    0    0  0.36902383825E+01  0.14990004917E+01 -0.14313167264E+02  0.14962932464E+02  0.17770000000E+01 0. -1.
         15    1    1    2    0    0  0.63649398107E+01  0.12440590304E+00  0.19202585650E+00  0.66123020614E+01  0.17770000000E+01 0.  1.
</event>
<event>
 6    1  0.2408691E-003  0.5002812E+03  0.7546771E-02  0.9399181E-01
        -11   -1    0    0    0    0  0.00000000000E+00  0.00000000000E+00  0.50000000000E+03  0.50000000000E+03  0.00000000000E+00 0.  1.
         11   -1    0    0    0    0 -0.00000000000E+00 -0.00000000000E+00 -0.50000000000E+03  0.50000000000E+03  0.00000000000E+00 0. -1.
        -11    1    1    2    0    0  0.52641695317E+01 -0.85422930174E+01  0.49961807104E+03  0.49971882010E+03  0.00000000000E+00 0.  1.
         11    1    1    2    0    0 -0.34944628843E+01 -0.28571075199E+01 -0.17515116954E+03  0.17520932203E+03  0.00000000000E+00 0. -1.
        -15    1    1    2    0    0 -0.45243847763E+01 -0.24629546617E+01 -0.10730104741E+03  0.10743932571E+03  0.17770000000E+01 0. -1.
         15    1    1    2    0    0  0.27546781289E+01  0.13862355199E+02 -0.21716585409E+03  0.21763253216E+03  0.17770000000E+01 0.  1.
</event>
<event>
 6    1  0.2408691E-003  0.3334061E+03  0.7546771E-02  0.9876625E-01
        -11   -1    0    0    0    0  0.00000000000E+00  0.00000000000E+00  0.50000000000E+03  0.50000000000E+03  0.00000000000E+00 0. -1.
         11   -1    0    0    0    0 -0.00000000000E+00 -0.00000000000E+00 -0.50000000000E+03  0.50000000000E+03  0.00000000000E+00 0. -1.
        -11    1    1    2    0    0 -0.32371409728E+01  0.10719217206E+01  0.17807980851E+03  0.17811245408E+03  0.00000000000E+00 0. -1.
         11    1    1    2    0    0  0.45991507947E+02 -0.23148362580E+02 -0.40943523548E+03  0.41266000236E+03  0.00000000000E+00 0. -1.
        -15    1    1    2    0    0  0.33405578259E+02 -0.11802614436E+03 -0.65120324953E+01  0.12284814898E+03  0.17770000000E+01 0. -1.
         15    1    1    2    0    0 -0.76159945233E+02  0.14010258522E+03  0.23786745946E+03  0.28637939458E+03  0.17770000000E+01 0.  1.
</event>
<event>
 6    1  0.2408691E-003  0.4842752E+03  0.7546771E-02  0.9435699E-01
        -11   -1    0    0    0    0  0.00000000000E+00  0.00000000000E+00  0.50000000000E+03  0.50000000000E+03  0.00000000000E+00 0. -1.
         11   -1    0    0    0    0 -0.00000000000E+00 -0.00000000000E+00 -0.50000000000E+03  0.50000000000E+03  0.00000000000E+00 0. -1.
        -11    1    1    2    0    0  0.31441533002E+01 -0.18370838754E+02  0.48984247681E+03  0.49019692523E+03  0.00000000000E+00 0. -1.
         11    1    1    2    0    0  0.12231106317E+02  0.60352784137E+01 -0.47842700997E+03  0.47862138315E+03  0.00000000000E+00 0. -1.
        -15    1    1    2    0    0 -0.36263787125E+01 -0.65080962629E+00  0.54429442196E+01  0.68086376401E+01  0.17770000000E+01 0. -1.
         15    1    1    2    0    0 -0.11748880904E+02  0.12986369967E+02 -0.16858411066E+02  0.24373053976E+02  0.17770000000E+01 0.  1.
</event>
<event>
 6    1  0.2408691E-003  0.5049886E+03  0.7546771E-02  0.9388716E-01
        -11   -1    0    0    0    0  0.00000000000E+00  0.00000000000E+00  0.50000000000E+03  0.50000000000E+03  0.00000000000E+00 0.  1.
         11   -1    0    0    0    0 -0.00000000000E+00 -0.00000000000E+00 -0.50000000000E+03  0.50000000000E+03  0.00000000000E+00 0.  1.
        -11    1    1    2    0    0 -0.90806489176E+01 -0.50645576987E+01  0.48085006786E+03  0.48096246806E+03  0.00000000000E+00 0.  1.
         11    1    1    2    0    0 -0.16247971424E+01  0.68341447197E+01 -0.49496152918E+03  0.49501137449E+03  0.00000000000E+00 0.  1.
        -15    1    1    2    0    0  0.96997939655E+01  0.10194371955E+01  0.43895263372E+00  0.99234904940E+01  0.17770000000E+01 0.  1.
         15    1    1    2    0    0  0.10056520944E+01 -0.27890242165E+01  0.13672508694E+02  0.14102666954E+02  0.17770000000E+01 0. -1.
</event>
<event>
 6    1  0.2408691E-003  0.5016769E+03  0.7546771E-02  0.9396065E-01
        -11   -1    0    0    0    0  0.00000000000E+00  0.00000000000E+00  0.50000000000E+03  0.50000000000E+03  0.00000000000E+00 0. -1.
         11   -1    0    0    0    0 -0.00000000000E+00 -0.00000000000E+00 -0.50000000000E+03  0.50000000000E+03  0.00000000000E+00 0.  1.
        -11    1    1    2    0    0  0.23677632687E+02  0.27413076950E+02  0.49700480262E+03  0.49832306881E+03  0.00000000000E+00 0. -1.
         11    1    1    2    0    0 -0.79216749842E+01  0.34938392626E+01 -0.13682028701E+03  0.13709394875E+03  0.00000000000E+00 0.  1.
        -15    1    1    2    0    0  0.70802169291E+01 -0.35396666398E+01 -0.21223864141E+03  0.21239363773E+03  0.17770000000E+01 0.  1.
         15    1    1    2    0    0 -0.22836174632E+02 -0.27367249572E+02 -0.14794587420E+03  0.15218934471E+03  0.17770000000E+01 0. -1.
</event>
<event>
 6    1  0.2408691E-003  0.5138200E+03  0.7546771E-02  0.9369406E-01
        -11   -1    0    0    0    0  0.00000000000E+00  0.00000000000E+00  0.50000000000E+03  0.50000000000E+03  0.00000000000E+00 0.  1.
         11   -1    0    0    0    0 -0.00000000000E+00 -0.00000000000E+00 -0.50000000000E+03  0.50000000000E+03  0.00000000000E+00 0. -1.
        -11    1    1    2    0    0 -0.66293524175E+00  0.60245478312E+01  0.35309739995E+03  0.35314941386E+03  0.00000000000E+00 0.  1.
         11    1    1    2    0    0 -0.79125451854E+01 -0.16847853491E+02 -0.48582353799E+03  0.48617997553E+03  0.00000000000E+00 0. -1.
        -15    1    1    2    0    0  0.52651710987E+01  0.35573129577E+01 -0.13072209385E+02  0.14642980892E+02  0.17770000000E+01 0. -1.
         15    1    1    2    0    0  0.33103093284E+01  0.72659927024E+01  0.14579834743E+03  0.14602762972E+03  0.17770000000E+01 0.  1.
</event>
<event>
 6    1  0.2408691E-003  0.5472032E+03  0.7546771E-02  0.9299973E-01
        -11   -1    0    0    0    0  0.00000000000E+00  0.00000000000E+00  0.50000000000E+03  0.50000000000E+03  0.00000000000E+00 0. -1.
         11   -1    0    0    0    0 -0.00000000000E+00 -0.00000000000E+00 -0.50000000000E+03  0.50000000000E+03  0.00000000000E+00 0.  1.
        -11    1    1    2    0    0  0.70103988586E+01  0.58734228005E+01  0.45270444245E+03  0.45279681426E+03  0.00000000000E+00 0. -1.
         11    1    1    2    0    0  0.18173986675E+02 -0.15571078841E+02 -0.42964036888E+03  0.43030640113E+03  0.00000000000E+00 0.  1.
        -15    1    1    2    0    0  0.40491840210E+01 -0.62443306079E+00 -0.64756664031E+02  0.64910469674E+02  0.17770000000E+01 0. -1.
         15    1    1    2    0    0 -0.29233569555E+02  0.10322089101E+02  0.41692590454E+02  0.51986314931E+02  0.17770000000E+01 0.  1.
</event>
<event>
 6    1  0.2408691E-003  0.5083651E+03  0.7546771E-02  0.9381284E-01
        -11   -1    0    0    0    0  0.00000000000E+00  0.00000000000E+00  0.50000000000E+03  0.50000000000E+03  0.00000000000E+00 0.  1.
         11   -1    0    0    0    0 -0.00000000000E+00 -0.00000000000E+00 -0.50000000000E+03  0.50000000000E+03  0.00000000000E+00 0. -1.
        -11    1    1    2    0    0  0.10480745521E+01  0.71070899465E+01  0.26352299028E+03  0.26362089370E+03  0.00000000000E+00 0.  1.
         11    1    1    2    0    0  0.32136593407E+01  0.11942911682E+02 -0.49147930255E+03  0.49163489052E+03  0.00000000000E+00 0. -1.
        -15    1    1    2    0    0 -0.13534269841E+02 -0.26052262398E+02  0.18049489180E+02  0.34508529741E+02  0.17770000000E+01 0.  1.
         15    1    1    2    0    0  0.92725359483E+01  0.70022607701E+01  0.20990682309E+03  0.21023568604E+03  0.17770000000E+01 0. -1.
</event>
<event>
 6    1  0.2408691E-003  0.4672209E+03  0.7546771E-02  0.9476299E-01
        -11   -1    0    0    0    0  0.00000000000E+00  0.00000000000E+00  0.50000000000E+03  0.50000000000E+03  0.00000000000E+00 0.  1.
         11   -1    0    0    0    0 -0.00000000000E+00 -0.00000000000E+00 -0.50000000000E+03  0.50000000000E+03  0.00000000000E+00 0. -1.
        -11    1    1    2    0    0  0.36570396690E+01  0.71940536571E+01  0.47440852207E+03  0.47447715873E+03  0.00000000000E+00 0.  1.
         11    1    1    2    0    0  0.21413399315E+02 -0.17734947168E+02 -0.45963687546E+03  0.46047705622E+03  0.00000000000E+00 0. -1.
        -15    1    1    2    0    0  0.20613500711E+01 -0.42222006663E+01  0.18760115241E+02  0.19421014274E+02  0.17770000000E+01 0. -1.
         15    1    1    2    0    0 -0.27131789055E+02  0.14763094177E+02 -0.33531761847E+02  0.45624770778E+02  0.17770000000E+01 0.  1.
</event>
<event>
 6    1  0.2408691E-003  0.5010345E+03  0.7546771E-02  0.9397498E-01
        -11   -1    0    0    0    0  0.00000000000E+00  0.00000000000E+00  0.50000000000E+03  0.50000000000E+03  0.00000000000E+00 0.  1.
         11   -1    0    0    0    0 -0.00000000000E+00 -0.00000000000E+00 -0.50000000000E+03  0.50000000000E+03  0.00000000000E+00 0. -1.
        -11    1    1    2    0    0  0.73781180910E+01 -0.96056261247E+01  0.49881849706E+03  0.49896552756E+03  0.00000000000E+00 0.  1.
         11    1    1    2    0    0 -0.88286998539E+01  0.49136886386E+01 -0.41930875237E+03  0.41943047111E+03  0.00000000000E+00 0. -1.
        -15    1    1    2    0    0  0.27855228484E+01 -0.60953612501E+01 -0.39601153584E+02  0.40203503088E+02  0.17770000000E+01 0. -1.
         15    1    1    2    0    0 -0.13349410854E+01  0.10787298736E+02 -0.39908591106E+02  0.41400498243E+02  0.17770000000E+01 0.  1.
</event>
<event>
 6    1  0.2408691E-003  0.5277060E+03  0.7546771E-02  0.9339864E-01
        -11   -1    0    0    0    0  0.00000000000E+00  0.00000000000E+00  0.50000000000E+03  0.50000000000E+03  0.00000000000E+00 0.  1.
         11   -1    0    0    0    0 -0.00000000000E+00 -0.00000000000E+00 -0.50000000000E+03  0.50000000000E+03  0.00000000000E+00 0. -1.
        -11    1    1    2    0    0 -0.17340045689E+02  0.15918998121E+02  0.47170706174E+03  0.47229402260E+03  0.00000000000E+00 0.  1.
         11    1    1    2    0    0  0.24794477229E+01 -0.46861816963E+01 -0.27660551187E+03  0.27665631595E+03  0.00000000000E+00 0. -1.
        -15    1    1    2    0    0  0.70090205021E+01 -0.60288418808E+01  0.27075691309E+02  0.28665730266E+02  0.17770000000E+01 0. -1.
         15    1    1    2    0    0  0.78515774642E+01 -0.52039745444E+01 -0.22217724118E+03  0.22238393118E+03  0.17770000000E+01 0.  1.
</event>
<event>
 6    1  0.2408691E-003  0.5119403E+03  0.7546771E-02  0.9373482E-01
        -11   -1    0    0    0    0  0.00000000000E+00  0.00000000000E+00  0.50000000000E+03  0.50000000000E+03  0.00000000000E+00 0. -1.
         11   -1    0    0    0    0 -0.00000000000E+00 -0.00000000000E+00 -0.50000000000E+03  0.50000000000E+03  0.00000000000E+00 0. -1.
        -11    1    1    2    0    0  0.56116551635E+00 -0.32455094008E+01  0.11558676444E+02  0.12018786925E+02  0.00000000000E+00 0. -1.
         11    1    1    2    0    0 -0.26677307290E+02  0.99120505974E+01 -0.48076329336E+03  0.48160489171E+03  0.00000000000E+00 0. -1.
        -15    1    1    2    0    0 -0.68377823861E+02 -0.23634662605E+02  0.32615714745E+03  0.33408945903E+03  0.17770000000E+01 0. -1.
         15    1    1    2    0    0  0.94493965635E+02  0.16968121408E+02  0.14304746947E+03  0.17228686234E+03  0.17770000000E+01 0.  1.
</event>
<event>
 6    1  0.2408691E-003  0.5210226E+03  0.7546771E-02  0.9353961E-01
        -11   -1    0    0    0    0  0.00000000000E+00  0.00000000000E+00  0.50000000000E+03  0.50000000000E+03  0.00000000000E+00 0. -1.
         11   -1    0    0    0    0 -0.00000000000E+00 -0.00000000000E+00 -0.50000000000E+03  0.50000000000E+03  0.00000000000E+00 0. -1.
        -11    1    1    2    0    0  0.11747658073E+02  0.65628317235E+01  0.40989763704E+03  0.41011845982E+03  0.00000000000E+00 0. -1.
         11    1    1    2    0    0 -0.79218733380E+01 -0.12987936737E+01 -0.47891009545E+03  0.47897737156E+03  0.00000000000E+00 0. -1.
        -15    1    1    2    0    0  0.12043141691E+02 -0.10428272944E+01 -0.18321671479E+02  0.22021946447E+02  0.17770000000E+01 0. -1.
         15    1    1    2    0    0 -0.15868926426E+02 -0.42212107554E+01  0.87334129887E+02  0.88882222172E+02  0.17770000000E+01 0.  1.
</event>
<event>
 6    1  0.2408691E-003  0.5001749E+03  0.7546771E-02  0.9399419E-01
        -11   -1    0    0    0    0  0.00000000000E+00  0.00000000000E+00  0.50000000000E+03  0.50000000000E+03  0.00000000000E+00 0.  1.
         11   -1    0    0    0    0 -0.00000000000E+00 -0.00000000000E+00 -0.50000000000E+03  0.50000000000E+03  0.00000000000E+00 0.  1.
        -11    1    1    2    0    0  0.35216497356E+01 -0.65743424808E+01  0.49976948927E+03  0.49982513583E+03  0.00000000000E+00 0.  1.
         11    1    1    2    0    0  0.86699539901E+00  0.75228627656E+00 -0.25038885679E+02  0.25065183257E+02  0.00000000000E+00 0.  1.
        -15    1    1    2    0    0  0.11759697010E+01  0.78251271386E+01 -0.10004134631E+03  0.10036953830E+03  0.17770000000E+01 0.  1.
         15    1    1    2    0    0 -0.55646148356E+01 -0.20030709344E+01 -0.37468925729E+03  0.37474014261E+03  0.17770000000E+01 0. -1.
</event>
<event>
 6    1  0.2408691E-003  0.4242945E+03  0.7546771E-02  0.9587222E-01
        -11   -1    0    0    0    0  0.00000000000E+00  0.00000000000E+00  0.50000000000E+03  0.50000000000E+03  0.00000000000E+00 0. -1.
         11   -1    0    0    0    0 -0.00000000000E+00 -0.00000000000E+00 -0.50000000000E+03  0.50000000000E+03  0.00000000000E+00 0.  1.
        -11    1    1    2    0    0 -0.15770785960E+01 -0.39589311840E+00  0.84449535628E+02  0.84465187954E+02  0.00000000000E+00 0. -1.
         11    1    1    2    0    0 -0.18376949401E+01  0.11712373663E+02 -0.43411454850E+03  0.43427640742E+03  0.00000000000E+00 0.  1.
        -15    1    1    2    0    0  0.19400895315E+02 -0.89151884414E+01  0.41417565695E+03  0.41472943935E+03  0.17770000000E+01 0. -1.
         15    1    1    2    0    0 -0.15986121779E+02 -0.24012921032E+01 -0.64510644078E+02  0.66528965283E+02  0.17770000000E+01 0.  1.
</event>
<event>
 6    1  0.2408691E-003  0.5010286E+03  0.7546771E-02  0.9397511E-01
        -11   -1    0    0    0    0  0.00000000000E+00  0.00000000000E+00  0.50000000000E+03  0.50000000000E+03  0.00000000000E+00 0.  1.
         11   -1    0    0    0    0 -0.00000000000E+00 -0.00000000000E+00 -0.50000000000E+03  0.50000000000E+03  0.00000000000E+00 0. -1.
        -11    1    1    2    0    0 -0.32944728432E+00  0.68288273790E+01  0.31313001999E+03  0.31320464690E+03  0.00000000000E+00 0.  1.
         11    1    1    2    0    0 -0.81945662268E+00 -0.98484275770E+01 -0.49887356315E+03  0.49897143711E+03  0.00000000000E+00 0. -1.
        -15    1    1    2    0    0 -0.68623534319E+01  0.10516508904E+02  0.14616747086E+03  0.14671665250E+03  0.17770000000E+01 0.  1.
         15    1    1    2    0    0  0.80112573389E+01 -0.74969087059E+01  0.39576072301E+02  0.41107263495E+02  0.17770000000E+01 0. -1.
</event>
<event>
 6    1  0.2408691E-003  0.5007787E+03  0.7546771E-02  0.9398069E-01
        -11   -1    0    0    0    0  0.00000000000E+00  0.00000000000E+00  0.50000000000E+03  0.50000000000E+03  0.00000000000E+00 0.  1.
         11   -1    0    0    0    0 -0.00000000000E+00 -0.00000000000E+00 -0.50000000000E+03  0.50000000000E+03  0.00000000000E+00 0.  1.
        -11    1    1    2    0    0 -0.59711541327E+01  0.43392934836E+01  0.17205175590E+03  0.17221001962E+03  0.00000000000E+00 0.  1.
         11    1    1    2    0    0 -0.49228346651E+01  0.46083169080E+01 -0.49917572072E+03  0.49922126462E+03  0.00000000000E+00 0.  1.
        -15    1    1    2    0    0  0.36983664852E+01 -0.77995998894E+01  0.28075906284E+02  0.29426619170E+02  0.17770000000E+01 0. -1.
         15    1    1    2    0    0  0.71956223127E+01 -0.11480105022E+01  0.29904805854E+03  0.29914209659E+03  0.17770000000E+01 0.  1.
</event>
<event>
 6    1  0.2408691E-003  0.5638858E+03  0.7546771E-02  0.9267214E-01
        -11   -1    0    0    0    0  0.00000000000E+00  0.00000000000E+00  0.50000000000E+03  0.50000000000E+03  0.00000000000E+00 0.  1.
         11   -1    0    0    0    0 -0.00000000000E+00 -0.00000000000E+00 -0.50000000000E+03  0.50000000000E+03  0.00000000000E+00 0.  1.
        -11    1    1    2    0    0 -0.64893829743E+01 -0.43127465366E+01  0.43604457597E+03  0.43611418700E+03  0.00000000000E+00 0.  1.
         11    1    1    2    0    0  0.61012080819E+01  0.38414613681E+01 -0.27912412903E+03  0.27921722901E+03  0.00000000000E+00 0.  1.
        -15    1    1    2    0    0 -0.37526871989E+02 -0.73093868261E+02  0.24078311645E+02  0.85638207124E+02  0.17770000000E+01 0. -1.
         15    1    1    2    0    0  0.37915046882E+02  0.73565153430E+02 -0.18099875858E+03  0.19903037687E+03  0.17770000000E+01 0.  1.
</event>
<event>
 6    1  0.2408691E-003  0.5011055E+03  0.7546771E-02  0.9397340E-01
        -11   -1    0    0    0    0  0.00000000000E+00  0.00000000000E+00  0.50000000000E+03  0.50000000000E+03  0.00000000000E+00 0.  1.
         11   -1    0    0    0    0 -0.00000000000E+00 -0.00000000000E+00 -0.50000000000E+03  0.50000000000E+03  0.00000000000E+00 0.  1.
        -11    1    1    2    0    0 -0.26167722691E+01 -0.41469466673E+01  0.27112903546E+03  0.27117337357E+03  0.00000000000E+00 0.  1.
         11    1    1    2    0    0 -0.75240940935E+01  0.17368563995E+01 -0.49883478293E+03  0.49889454730E+03  0.00000000000E+00 0.  1.
        -15    1    1    2    0    0  0.72435208514E+00  0.20988621503E+01  0.98639088579E+00  0.30100837611E+01  0.17770000000E+01 0. -1.
         15    1    1    2    0    0  0.94165142775E+01  0.31122811745E+00  0.22671935658E+03  0.22692199537E+03  0.17770000000E+01 0.  1.
</event>
<event>
 6    1  0.2408691E-003  0.5021375E+03  0.7546771E-02  0.9395040E-01
        -11   -1    0    0    0    0  0.00000000000E+00  0.00000000000E+00  0.50000000000E+03  0.50000000000E+03  0.00000000000E+00 0. -1.
         11   -1    0    0    0    0 -0.00000000000E+00 -0.00000000000E+00 -0.50000000000E+03  0.50000000000E+03  0.00000000000E+00 0.  1.
        -11    1    1    2    0    0 -0.38085721249E+01 -0.11343179863E+02  0.49771872267E+03  0.49786253107E+03  0.00000000000E+00 0. -1.
         11    1    1    2    0    0  0.52935220099E+01 -0.37386923995E+01 -0.42655606113E+03  0.42660528886E+03  0.00000000000E+00 0.  1.
        -15    1    1    2    0    0  0.71871837036E+01  0.35200484991E+01 -0.11529238482E+02  0.14146639884E+02  0.17770000000E+01 0. -1.
         15    1    1    2    0    0 -0.86721335886E+01  0.11561823764E+02 -0.59633423053E+02  0.61385540184E+02  0.17770000000E+01 0.  1.
</event>
<event>
 6    1  0.2408691E-003  0.5069807E+03  0.7546771E-02  0.9384324E-01
        -11   -1    0    0    0    0  0.00000000000E+00  0.00000000000E+00  0.50000000000E+03  0.50000000000E+03  0.00000000000E+00 0.  1.
         11   -1    0    0    0    0 -0.00000000000E+00 -0.00000000000E+00 -0.50000000000E+03  0.50000000000E+03  0.00000000000E+00 0.  1.
        -11    1    1    2    0    0 -0.29588258384E+01  0.73416088474E+01  0.49295572643E+03  0.49301927152E+03  0.00000000000E+00 0.  1.
         11    1    1    2    0    0  0.25477475350E+01 -0.19045221463E+02 -0.45894937433E+03  0.45935143373E+03  0.00000000000E+00 0.  1.
        -15    1    1    2    0    0  0.11545207611E+02  0.13596078630E+01 -0.29376618096E+02  0.31643068310E+02  0.17770000000E+01 0.  1.
         15    1    1    2    0    0 -0.11134129308E+02  0.10344004753E+02 -0.46297340077E+01  0.15986226439E+02  0.17770000000E+01 0. -1.
</event>
<event>
 6    1  0.2408691E-003  0.4900991E+03  0.7546771E-02  0.9422240E-01
        -11   -1    0    0    0    0  0.00000000000E+00  0.00000000000E+00  0.50000000000E+03  0.50000000000E+03  0.00000000000E+00 0. -1.
         11   -1    0    0    0    0 -0.00000000000E+00 -0.00000000000E+00 -0.50000000000E+03  0.50000000000E+03  0.00000000000E+00 0.  1.
        -11    1    1    2    0    0 -0.73881476208E+01  0.38505470312E+01  0.48847453634E+03  0.48854558036E+03  0.00000000000E+00 0. -1.
         11    1    1    2    0    0 -0.99905354179E+01  0.46545702690E-01 -0.49171827859E+03  0.49181976217E+03  0.00000000000E+00 0.  1.
        -15    1    1    2    0    0  0.33139225999E+01 -0.37893351074E+00  0.33160511644E+01  0.50278820520E+01  0.17770000000E+01 0.  1.
         15    1    1    2    0    0  0.14064760439E+02 -0.35181592231E+01 -0.72308910857E-01  0.14606775418E+02  0.17770000000E+01 0. -1.
</event>
<event>
 6    1  0.2408691E-003  0.5020743E+03  0.7546771E-02  0.9395180E-01
        -11   -1    0    0    0    0  0.00000000000E+00  0.00000000000E+00  0.50000000000E+03  0.50000000000E+03  0.00000000000E+00 0. -1.
         11   -1    0    0    0    0 -0.00000000000E+00 -0.00000000000E+00 -0.50000000000E+03  0.50000000000E+03  0.00000000000E+00 0.  1.
        -11    1    1    2    0    0 -0.11919418472E+02  0.86616224174E+01  0.49770763937E+03  0.49792568776E+03  0.00000000000E+00 0. -1.
         11    1    1    2    0    0  0.71881614892E+01 -0.12144165224E+02 -0.41485605684E+03  0.41509601096E+03  0.00000000000E+00 0.  1.
        -15    1    1    2    0    0  0.11248776090E+02 -0.43750178638E+01 -0.21180620272E+02  0.24442834307E+02  0.17770000000E+01 0. -1.
         15    1    1    2    0    0 -0.65175191073E+01  0.78575606702E+01 -0.61670962258E+02  0.62535466975E+02  0.17770000000E+01 0.  1.
</event>
<event>
 6    1  0.2408691E-003  0.5044073E+03  0.7546771E-02  0.9390002E-01
        -11   -1    0    0    0    0  0.00000000000E+00  0.00000000000E+00  0.50000000000E+03  0.50000000000E+03  0.00000000000E+00 0.  1.
         11   -1    0    0    0    0 -0.00000000000E+00 -0.00000000000E+00 -0.50000000000E+03  0.50000000000E+03  0.00000000000E+00 0. -1.
        -11    1    1    2    0    0 -0.68789351426E+01  0.55771321897E+01  0.47659194834E+03  0.47667421723E+03  0.00000000000E+00 0.  1.
         11    1    1    2    0    0 -0.12949839789E+01  0.83612049059E+01 -0.49552052014E+03  0.49559274875E+03  0.00000000000E+00 0. -1.
        -15    1    1    2    0    0  0.66145544681E+01 -0.10555760460E+02  0.55868233015E+01  0.13767597223E+02  0.17770000000E+01 0. -1.
         15    1    1    2    0    0  0.15593646535E+01 -0.33825766356E+01  0.13341748499E+02  0.13965436793E+02  0.17770000000E+01 0.  1.
</event>
<event>
 6    1  0.2408691E-003  0.5236789E+03  0.7546771E-02  0.9348331E-01
        -11   -1    0    0    0    0  0.00000000000E+00  0.00000000000E+00  0.50000000000E+03  0.50000000000E+03  0.00000000000E+00 0. -1.
         11   -1    0    0    0    0 -0.00000000000E+00 -0.00000000000E+00 -0.50000000000E+03  0.50000000000E+03  0.00000000000E+00 0.  1.
        -11    1    1    2    0    0  0.76817359283E+01  0.43117926608E+01  0.47623958751E+03  0.47632105279E+03  0.00000000000E+00 0. -1.
         11    1    1    2    0    0 -0.17688360332E+01 -0.83618390865E+01 -0.46942426212E+03  0.46950206283E+03  0.00000000000E+00 0.  1.
        -15    1    1    2    0    0 -0.29964102375E+01  0.68234193012E+01 -0.29803018087E+02  0.30771986308E+02  0.17770000000E+01 0.  1.
         15    1    1    2    0    0 -0.29164896575E+01 -0.27733728754E+01  0.22987692702E+02  0.23404898072E+02  0.17770000000E+01 0. -1.
</event>
<event>
 6    1  0.2408691E-003  0.5062605E+03  0.7546771E-02  0.9385909E-01
        -11   -1    0    0    0    0  0.00000000000E+00  0.00000000000E+00  0.50000000000E+03  0.50000000000E+03  0.00000000000E+00 0. -1.
         11   -1    0    0    0    0 -0.00000000000E+00 -0.00000000000E+00 -0.50000000000E+03  0.50000000000E+03  0.00000000000E+00 0. -1.
        -11    1    1    2    0    0  0.54659739281E+01 -0.34009507364E+01  0.45675718149E+03  0.45680254616E+03  0.00000000000E+00 0. -1.
         11    1    1    2    0    0 -0.13588741499E+02 -0.88815067719E+01 -0.49347251865E+03  0.49373946745E+03  0.00000000000E+00 0. -1.
        -15    1    1    2    0    0  0.13670340322E+02  0.11088582605E+02  0.67936298416E+01  0.18951147832E+02  0.17770000000E+01 0. -1.
         15    1    1    2    0    0 -0.55475727514E+01  0.11938749031E+01  0.29921707323E+02  0.30506838558E+02  0.17770000000E+01 0.  1.
</event>
<event>
 6    1  0.2408691E-003  0.5001243E+03  0.7546771E-02  0.9399532E-01
        -11   -1    0    0    0    0  0.00000000000E+00  0.00000000000E+00  0.50000000000E+03  0.50000000000E+03  0.00000000000E+00 0.  1.
         11   -1    0    0    0    0 -0.00000000000E+00 -0.00000000000E+00 -0.50000000000E+03  0.50000000000E+03  0.00000000000E+00 0. -1.
        -11    1    1    2    0    0 -0.39417697427E+00  0.11434727981E+02  0.49974473117E+03  0.49987568926E+03  0.00000000000E+00 0.  1.
         11    1    1    2    0    0 -0.18352793379E+01 -0.12409097252E+01 -0.14149665450E+03  0.14151399698E+03  0.00000000000E+00 0. -1.
        -15    1    1    2    0    0  0.61868084734E+01 -0.47044596880E+01 -0.12294596312E+03  0.12320420495E+03  0.17770000000E+01 0. -1.
         15    1    1    2    0    0 -0.39573521612E+01 -0.54893585679E+01 -0.23530211356E+03  0.23540610882E+03  0.17770000000E+01 0.  1.
</event>
<event>
 6    1  0.2408691E-003  0.5021358E+03  0.7546771E-02  0.9395043E-01
        -11   -1    0    0    0    0  0.00000000000E+00  0.00000000000E+00  0.50000000000E+03  0.50000000000E+03  0.00000000000E+00 0.  1.
         11   -1    0    0    0    0 -0.00000000000E+00 -0.00000000000E+00 -0.50000000000E+03  0.50000000000E+03  0.00000000000E+00 0. -1.
        -11    1    1    2    0    0  0.22434912177E+01  0.95175500573E+01  0.41944112800E+03  0.41955509396E+03  0.00000000000E+00 0.  1.
         11    1    1    2    0    0  0.11165050278E+02 -0.19284177569E+02 -0.49736527788E+03  0.49786419583E+03  0.00000000000E+00 0. -1.
        -15    1    1    2    0    0 -0.25924560429E+01  0.66729363334E+01  0.53343475701E+01  0.91028512371E+01  0.17770000000E+01 0.  1.
         15    1    1    2    0    0 -0.10816085453E+02  0.30936911778E+01  0.72589802309E+02  0.73477858964E+02  0.17770000000E+01 0. -1.
</event>
<event>
 6    1  0.2408691E-003  0.5095451E+03  0.7546771E-02  0.9378701E-01
        -11   -1    0    0    0    0  0.00000000000E+00  0.00000000000E+00  0.50000000000E+03  0.50000000000E+03  0.00000000000E+00 0.  1.
         11   -1    0    0    0    0 -0.00000000000E+00 -0.00000000000E+00 -0.50000000000E+03  0.50000000000E+03  0.00000000000E+00 0.  1.
        -11    1    1    2    0    0  0.38708728271E+00  0.84165717652E+01  0.49038250265E+03  0.49045487807E+03  0.00000000000E+00 0.  1.
         11    1    1    2    0    0 -0.10573315183E+02  0.90730634680E+01 -0.47021796942E+03  0.47042433423E+03  0.00000000000E+00 0.  1.
        -15    1    1    2    0    0  0.73080503809E+01 -0.11255783799E+02  0.38554392163E+01  0.14075596252E+02  0.17770000000E+01 0.  1.
         15    1    1    2    0    0  0.28781775197E+01 -0.62338514339E+01 -0.24019972447E+02  0.25045191453E+02  0.17770000000E+01 0. -1.
</event>
<event>
 6    1  0.2408691E-003  0.4800442E+03  0.7546771E-02  0.9445604E-01
        -11   -1    0    0    0    0  0.00000000000E+00  0.00000000000E+00  0.50000000000E+03  0.50000000000E+03  0.00000000000E+00 0.  1.
         11   -1    0    0    0    0 -0.00000000000E+00 -0.00000000000E+00 -0.50000000000E+03  0.50000000000E+03  0.00000000000E+00 0. -1.
        -11    1    1    2    0    0  0.16973168631E+02  0.90665145149E+01  0.47828117466E+03  0.47866812321E+03  0.00000000000E+00 0.  1.
         11    1    1    2    0    0 -0.86355448788E+01  0.96487430799E+01 -0.48146996887E+03  0.48164406131E+03  0.00000000000E+00 0. -1.
        -15    1    1    2    0    0  0.17094305794E+01  0.91524977608E+01  0.32205391398E+01  0.10010992434E+02  0.17770000000E+01 0. -1.
         15    1    1    2    0    0 -0.10047054331E+02 -0.27867755356E+02 -0.31744936002E-01  0.29676823045E+02  0.17770000000E+01 0.  1.
</event>
<event>
 6    1  0.2408691E-003  0.5154179E+03  0.7546771E-02  0.9365957E-01
        -11   -1    0    0    0    0  0.00000000000E+00  0.00000000000E+00  0.50000000000E+03  0.50000000000E+03  0.00000000000E+00 0.  1.
         11   -1    0    0    0    0 -0.00000000000E+00 -0.00000000000E+00 -0.50000000000E+03  0.50000000000E+03  0.00000000000E+00 0. -1.
        -11    1    1    2    0    0  0.76460496584E+01 -0.84298442325E+01  0.37479547371E+03  0.37496822728E+03  0.00000000000E+00 0.  1.
         11    1    1    2    0    0 -0.56246170162E+00 -0.69896206972E+01 -0.48453135584E+03  0.48458209413E+03  0.00000000000E+00 0. -1.
        -15    1    1    2    0    0  0.26790656510E+02 -0.81060923666E+01  0.58327664605E+01  0.28646586241E+02  0.17770000000E+01 0.  1.
         15    1    1    2    0    0 -0.33874244467E+02  0.23525557296E+02  0.10390311567E+03  0.11180309235E+03  0.17770000000E+01 0. -1.
</event>
<event>
 6    1  0.2408691E-003  0.5087450E+03  0.7546771E-02  0.9380452E-01
        -11   -1    0    0    0    0  0.00000000000E+00  0.00000000000E+00  0.50000000000E+03  0.50000000000E+03  0.00000000000E+00 0. -1.
         11   -1    0    0    0    0 -0.00000000000E+00 -0.00000000000E+00 -0.50000000000E+03  0.50000000000E+03  0.00000000000E+00 0.  1.
        -11    1    1    2    0    0 -0.98708513376E+01  0.26028627655E+02  0.49046569680E+03  0.49125504873E+03  0.00000000000E+00 0. -1.
         11    1    1    2    0    0  0.11598257144E+02  0.78582476905E+01 -0.36287369733E+03  0.36314403732E+03  0.00000000000E+00 0.  1.
        -15    1    1    2    0    0 -0.64883775524E+01 -0.14648662931E+02 -0.12441009261E+03  0.12545003483E+03  0.17770000000E+01 0.  1.
         15    1    1    2    0    0  0.47609717458E+01 -0.19238212415E+02 -0.31819068604E+01  0.20150879116E+02  0.17770000000E+01 0. -1.
</event>
<event>
 6    1  0.2408691E-003  0.5008215E+03  0.7546771E-02  0.9397973E-01
        -11   -1    0    0    0    0  0.00000000000E+00  0.00000000000E+00  0.50000000000E+03  0.50000000000E+03  0.00000000000E+00 0.  1.
         11   -1    0    0    0    0 -0.00000000000E+00 -0.00000000000E+00 -0.50000000000E+03  0.50000000000E+03  0.00000000000E+00 0. -1.
        -11    1    1    2    0    0 -0.91492510689E+01  0.29876581111E+01  0.29078183851E+03  0.29094108081E+03  0.00000000000E+00 0.  1.
         11    1    1    2    0    0 -0.14883458854E+02 -0.22143566146E+01 -0.49895167908E+03  0.49917852396E+03  0.00000000000E+00 0. -1.
        -15    1    1    2    0    0  0.55494956598E+01 -0.49180169138E+01  0.52043749009E+02  0.52599366273E+02  0.17770000000E+01 0. -1.
         15    1    1    2    0    0  0.18483214263E+02  0.41447154173E+01  0.15612609156E+03  0.15728102896E+03  0.17770000000E+01 0.  1.
</event>
<event>
 6    1  0.2408691E-003  0.5920857E+03  0.7546771E-02  0.9214482E-01
        -11   -1    0    0    0    0  0.00000000000E+00  0.00000000000E+00  0.50000000000E+03  0.50000000000E+03  0.00000000000E+00 0.  1.
         11   -1    0    0    0    0 -0.00000000000E+00 -0.00000000000E+00 -0.50000000000E+03  0.50000000000E+03  0.00000000000E+00 0.  1.
        -11    1    1    2    0    0  0.69102483275E+01  0.85815209883E+01  0.28824477602E+03  0.28845527372E+03  0.00000000000E+00 0.  1.
         11    1    1    2    0    0  0.64815326515E+01 -0.80582303383E+01 -0.40778317128E+03  0.40791428035E+03  0.00000000000E+00 0.  1.
        -15    1    1    2    0    0 -0.87558514795E+01  0.16890367054E+02 -0.90660922689E+02  0.92652631189E+02  0.17770000000E+01 0. -1.
         15    1    1    2    0    0 -0.46359294995E+01 -0.17413657704E+02  0.21019931795E+03  0.21097781474E+03  0.17770000000E+01 0.  1.
</event>
<event>
 6    1  0.2408691E-003  0.4529252E+03  0.7546771E-02  0.9511778E-01
        -11   -1    0    0    0    0  0.00000000000E+00  0.00000000000E+00  0.50000000000E+03  0.50000000000E+03  0.00000000000E+00 0.  1.
         11   -1    0    0    0    0 -0.00000000000E+00 -0.00000000000E+00 -0.50000000000E+03  0.50000000000E+03  0.00000000000E+00 0.  1.
        -11    1    1    2    0    0  0.36640018101E+02  0.42351626780E+01  0.45689763315E+03  0.45838398173E+03  0.00000000000E+00 0.  1.
         11    1    1    2    0    0 -0.17657111249E+02  0.23131660664E+02 -0.44718476081E+03  0.44813062560E+03  0.00000000000E+00 0.  1.
        -15    1    1    2    0    0 -0.30539152937E+02 -0.94042698461E+01  0.32830387021E+02  0.45848360869E+02  0.17770000000E+01 0.  1.
         15    1    1    2    0    0  0.11556246084E+02 -0.17962553496E+02 -0.42543259368E+02  0.47637031796E+02  0.17770000000E+01 0. -1.
</event>
<event>
 6    1  0.2408691E-003  0.2582110E+03  0.7546771E-02  0.1020357E+00
        -11   -1    0    0    0    0  0.00000000000E+00  0.00000000000E+00  0.50000000000E+03  0.50000000000E+03  0.00000000000E+00 0.  1.
         11   -1    0    0    0    0 -0.00000000000E+00 -0.00000000000E+00 -0.50000000000E+03  0.50000000000E+03  0.00000000000E+00 0.  1.
        -11    1    1    2    0    0 -0.10188607050E+02 -0.60605748638E+01  0.31885411263E+03  0.31907441675E+03  0.00000000000E+00 0.  1.
         11    1    1    2    0    0  0.11373608854E+02  0.12681670682E+02 -0.29021968181E+03  0.29071919004E+03  0.00000000000E+00 0.  1.
        -15    1    1    2    0    0  0.95203797650E+01  0.26351227381E+01  0.18040346313E+03  0.18068245278E+03  0.17770000000E+01 0.  1.
         15    1    1    2    0    0 -0.10705381568E+02 -0.92562185560E+01 -0.20903789395E+03  0.20952394043E+03  0.17770000000E+01 0.  1.
</event>
<event>
 6    1  0.1756690E-002  0.5491874E+03  0.7546771E-02  0.9296012E-01
        -11   -1    0    0    0    0  0.00000000000E+00  0.00000000000E+00  0.50000000000E+03  0.50000000000E+03  0.00000000000E+00 0.  1.
         11   -1    0    0    0    0 -0.00000000000E+00 -0.00000000000E+00 -0.50000000000E+03  0.50000000000E+03  0.00000000000E+00 0. -1.
        -11    1    1    2    0    0  0.52713833772E+01 -0.40536054426E+01  0.45076356611E+03  0.45081261266E+03  0.00000000000E+00 0.  1.
         11    1    1    2    0    0  0.52735832698E+02  0.36600006418E+00 -0.32968755007E+03  0.33387884431E+03  0.00000000000E+00 0. -1.
        -15    1    1    2    0    0 -0.56805871962E+02 -0.40039387052E+01 -0.16297945039E+03  0.17265108628E+03  0.17770000000E+01 0.  1.
         15    1    1    2    0    0 -0.12013441139E+01  0.76915440836E+01  0.41903434344E+02  0.42657456756E+02  0.17770000000E+01 0. -1.
</event>
<event>
 6    1  0.2408691E-003  0.5034041E+03  0.7546771E-02  0.9392225E-01
        -11   -1    0    0    0    0  0.00000000000E+00  0.00000000000E+00  0.50000000000E+03  0.50000000000E+03  0.00000000000E+00 0. -1.
         11   -1    0    0    0    0 -0.00000000000E+00 -0.00000000000E+00 -0.50000000000E+03  0.50000000000E+03  0.00000000000E+00 0. -1.
        -11    1    1    2    0    0  0.25979850535E+01 -0.67118139117E+01  0.19531424149E+03  0.19544679813E+03  0.00000000000E+00 0. -1.
         11    1    1    2    0    0 -0.21779970189E+02  0.14096838337E+02 -0.49591777144E+03  0.49659593634E+03  0.00000000000E+00 0. -1.
        -15    1    1    2    0    0  0.32677364012E+02 -0.24113170993E+02  0.24440983562E+03  0.24776719034E+03  0.17770000000E+01 0. -1.
         15    1    1    2    0    0 -0.13495378876E+02  0.16728146567E+02  0.56193694336E+02  0.60190075184E+02  0.17770000000E+01 0.  1.
</event>
<event>
 6    1  0.2408691E-003  0.5148228E+03  0.7546771E-02  0.9367240E-01
        -11   -1    0    0    0    0  0.00000000000E+00  0.00000000000E+00  0.50000000000E+03  0.50000000000E+03  0.00000000000E+00 0. -1.
         11   -1    0    0    0    0 -0.00000000000E+00 -0.00000000000E+00 -0.50000000000E+03  0.50000000000E+03  0.00000000000E+00 0.  1.
        -11    1    1    2    0    0  0.30074492239E+02  0.35442250045E+01  0.48423120961E+03  0.48517718513E+03  0.00000000000E+00 0. -1.
         11    1    1    2    0    0 -0.46289807484E+01  0.20180824263E+02 -0.45194584631E+03  0.45241987260E+03  0.00000000000E+00 0.  1.
        -15    1    1    2    0    0 -0.98761395299E+01  0.32775137002E+01 -0.29177475758E+02  0.31028423239E+02  0.17770000000E+01 0. -1.
         15    1    1    2    0    0 -0.15569371961E+02 -0.27002562968E+02 -0.31078875460E+01  0.31374519025E+02  0.17770000000E+01 0.  1.
</event>
<event>
 6    1  0.2408691E-003  0.5048193E+03  0.7546771E-02  0.9389090E-01
        -11   -1    0    0    0    0  0.00000000000E+00  0.00000000000E+00  0.50000000000E+03  0.50000000000E+03  0.00000000000E+00 0. -1.
         11   -1    0    0    0    0 -0.00000000000E+00 -0.00000000000E+00 -0.50000000000E+03  0.50000000000E+03  0.00000000000E+00 0.  1.
        -11    1    1    2    0    0  0.33811320354E+01 -0.68692970422E+01  0.49512152217E+03  0.49518071551E+03  0.00000000000E+00 0. -1.
         11    1    1    2    0    0  0.26937852844E+01  0.38543844196E+01 -0.28670748569E+03  0.28674604637E+03  0.00000000000E+00 0.  1.
        -15    1    1    2    0    0 -0.51314958319E+01 -0.52361148607E+01 -0.20938885621E+03  0.20952470017E+03  0.17770000000E+01 0. -1.
         15    1    1    2    0    0 -0.94342148790E+00  0.82510274834E+01  0.97481972366E+00  0.85485379527E+01  0.17770000000E+01 0. -1.
</event>
<event>
 6    1  0.2408691E-003  0.5079026E+03  0.7546771E-02  0.9382299E-01
        -11   -1    0    0    0    0  0.00000000000E+00  0.00000000000E+00  0.50000000000E+03  0.50000000000E+03  0.00000000000E+00 0. -1.
         11   -1    0    0    0    0 -0.00000000000E+00 -0.00000000000E+00 -0.50000000000E+03  0.50000000000E+03  0.00000000000E+00 0.  1.
        -11    1    1    2    0    0 -0.27042415543E+02  0.32614965793E+01  0.49134296068E+03  0.49209738326E+03  0.00000000000E+00 0. -1.
         11    1    1    2    0    0  0.48923563215E+01 -0.28929784344E+00 -0.31261136554E+03  0.31264977963E+03  0.00000000000E+00 0.  1.
        -15    1    1    2    0    0  0.26224527560E+02 -0.13731502293E+02 -0.19268594689E+02  0.35365470042E+02  0.17770000000E+01 0. -1.
         15    1    1    2    0    0 -0.40744683387E+01  0.10759303557E+02 -0.15946300045E+03  0.15988736707E+03  0.17770000000E+01 0.  1.
</event>
<event>
 6    1  0.2408691E-003  0.5053768E+03  0.7546771E-02  0.9387858E-01
        -11   -1    0    0    0    0  0.00000000000E+00  0.00000000000E+00  0.50000000000E+03  0.50000000000E+03  0.00000000000E+00 0.  1.
         11   -1    0    0    0    0 -0.00000000000E+00 -0.00000000000E+00 -0.50000000000E+03  0.50000000000E+03  0.00000000000E+00 0.  1.
        -11    1    1    2    0    0 -0.10200235635E+02  0.85103904941E+01  0.34734381002E+03  0.34759774728E+03  0.00000000000E+00 0.  1.
         11    1    1    2    0    0 -0.44596155859E+01 -0.72376036830E+01 -0.49455011821E+03  0.49462318031E+03  0.00000000000E+00 0.  1.
        -15    1    1    2    0    0 -0.13532530017E+02  0.14884667748E+01  0.11064632455E+03  0.11149489570E+03  0.17770000000E+01 0.  1.
         15    1    1    2    0    0  0.28192381238E+02 -0.27612535859E+01  0.36559983638E+02  0.46284176711E+02  0.17770000000E+01 0. -1.
</event>
<event>
 6    1  0.2408691E-003  0.5016194E+03  0.7546771E-02  0.9396194E-01
        -11   -1    0    0    0    0  0.00000000000E+00  0.00000000000E+00  0.50000000000E+03  0.50000000000E+03  0.00000000000E+00 0. -1.
         11   -1    0    0    0    0 -0.00000000000E+00 -0.00000000000E+00 -0.50000000000E+03  0.50000000000E+03  0.00000000000E+00 0. -1.
        -11    1    1    2    0    0  0.58271261394E+01  0.55293734928E+01  0.47094792376E+03  0.47101642887E+03  0.00000000000E+00 0. -1.
         11    1    1    2    0    0 -0.78709812181E+01 -0.49081636596E+01 -0.49829431112E+03  0.49838064058E+03  0.00000000000E+00 0. -1.
        -15    1    1    2    0    0 -0.91839470947E+00 -0.18803565297E+01  0.26735193256E+02  0.26875778630E+02  0.17770000000E+01 0. -1.
         15    1    1    2    0    0  0.29622497882E+01  0.12591466965E+01  0.61119410179E+00  0.37271519208E+01  0.17770000000E+01 0.  1.
</event>
<event>
 6    1  0.2408691E-003  0.5017205E+03  0.7546771E-02  0.9395968E-01
        -11   -1    0    0    0    0  0.00000000000E+00  0.00000000000E+00  0.50000000000E+03  0.50000000000E+03  0.00000000000E+00 0. -1.
         11   -1    0    0    0    0 -0.00000000000E+00 -0.00000000000E+00 -0.50000000000E+03  0.50000000000E+03  0.00000000000E+00 0. -1.
        -11    1    1    2    0    0 -0.58408467101E-02  0.37041387328E+01  0.22544083542E+03  0.22547126414E+03  0.00000000000E+00 0. -1.
         11    1    1    2    0    0  0.24224476160E-01  0.14378560571E+02 -0.49807202904E+03  0.49827952968E+03  0.00000000000E+00 0. -1.
        -15    1    1    2    0    0  0.63803316622E+01 -0.17294612257E+02  0.46972511381E+02  0.50491452738E+02  0.17770000000E+01 0.  1.
         15    1    1    2    0    0 -0.63987152916E+01 -0.78808704780E+00  0.22565868224E+03  0.22575775344E+03  0.17770000000E+01 0. -1.
</event>
<event>
 6    1  0.2408691E-003  0.5029738E+03  0.7546771E-02  0.9393180E-01
        -11   -1    0    0    0    0  0.00000000000E+00  0.00000000000E+00  0.50000000000E+03  0.50000000000E+03  0.00000000000E+00 0.  1.
         11   -1    0    0    0    0 -0.00000000000E+00 -0.00000000000E+00 -0.50000000000E+03  0.50000000000E+03  0.00000000000E+00 0. -1.
        -11    1    1    2    0    0  0.10101180267E+01 -0.11883710957E+02  0.49688308538E+03  0.49702619998E+03  0.00000000000E+00 0.  1.
         11    1    1    2    0    0 -0.55876675194E+01 -0.61013036864E+01 -0.40426198940E+03  0.40434663842E+03  0.00000000000E+00 0. -1.
        -15    1    1    2    0    0  0.47062890162E+01  0.14395994574E+02 -0.16756516412E+02  0.22656839748E+02  0.17770000000E+01 0.  1.
         15    1    1    2    0    0 -0.12873952357E+00  0.35890200691E+01 -0.75864579576E+02  0.75970321851E+02  0.17770000000E+01 0. -1.
</event>
<event>
 6    1  0.2408691E-003  0.5005579E+03  0.7546771E-02  0.9398562E-01
        -11   -1    0    0    0    0  0.00000000000E+00  0.00000000000E+00  0.50000000000E+03  0.50000000000E+03  0.00000000000E+00 0. -1.
         11   -1    0    0    0    0 -0.00000000000E+00 -0.00000000000E+00 -0.50000000000E+03  0.50000000000E+03  0.00000000000E+00 0. -1.
        -11    1    1    2    0    0  0.10127791849E+02 -0.37910926427E+01  0.37723392749E+03  0.37738889836E+03  0.00000000000E+00 0. -1.
         11    1    1    2    0    0 -0.95976072444E+01  0.56812524616E+01 -0.49931754979E+03  0.49944209497E+03  0.00000000000E+00 0. -1.
        -15    1    1    2    0    0 -0.19158916741E+01 -0.36359060459E+01  0.90269900822E+01  0.10076444444E+02  0.17770000000E+01 0. -1.
         15    1    1    2    0    0  0.13857070698E+01  0.17457462270E+01  0.11305663222E+03  0.11309256223E+03  0.17770000000E+01 0.  1.
</event>
<event>
 6    1  0.2408691E-003  0.5092624E+03  0.7546771E-02  0.9379320E-01
        -11   -1    0    0    0    0  0.00000000000E+00  0.00000000000E+00  0.50000000000E+03  0.50000000000E+03  0.00000000000E+00 0. -1.
         11   -1    0    0    0    0 -0.00000000000E+00 -0.00000000000E+00 -0.50000000000E+03  0.50000000000E+03  0.00000000000E+00 0. -1.
        -11    1    1    2    0    0  0.53068853963E+01 -0.19120220426E+02  0.49033621064E+03  0.49073755239E+03  0.00000000000E+00 0. -1.
         11    1    1    2    0    0  0.87463166176E+01  0.47271460611E+01 -0.41546666236E+03  0.41558560068E+03  0.00000000000E+00 0. -1.
        -15    1    1    2    0    0  0.35533551176E+01 -0.15652947361E+02 -0.74740910125E+01  0.17794967242E+02  0.17770000000E+01 0. -1.
         15    1    1    2    0    0 -0.17606557132E+02  0.30046021725E+02 -0.67395457270E+02  0.75881879689E+02  0.17770000000E+01 0.  1.
</event>
<event>
 6    1  0.2408691E-003  0.5153465E+03  0.7546771E-02  0.9366111E-01
        -11   -1    0    0    0    0  0.00000000000E+00  0.00000000000E+00  0.50000000000E+03  0.50000000000E+03  0.00000000000E+00 0. -1.
         11   -1    0    0    0    0 -0.00000000000E+00 -0.00000000000E+00 -0.50000000000E+03  0.50000000000E+03  0.00000000000E+00 0.  1.
        -11    1    1    2    0    0 -0.90164112720E+00  0.19108951933E+02  0.48427584000E+03  0.48465354039E+03  0.00000000000E+00 0. -1.
         11    1    1    2    0    0  0.81194497308E+01 -0.11673580205E+01 -0.28876284524E+03  0.28887933290E+03  0.00000000000E+00 0.  1.
        -15    1    1    2    0    0 -0.42574899801E+00 -0.23195868154E+02  0.65829388019E+01  0.24181033351E+02  0.17770000000E+01 0.  1.
         15    1    1    2    0    0 -0.67920596056E+01  0.52542742416E+01 -0.20209593357E+03  0.20228609336E+03  0.17770000000E+01 0. -1.
</event>
<event>
 6    1  0.2408691E-003  0.5033578E+03  0.7546771E-02  0.9392328E-01
        -11   -1    0    0    0    0  0.00000000000E+00  0.00000000000E+00  0.50000000000E+03  0.50000000000E+03  0.00000000000E+00 0. -1.
         11   -1    0    0    0    0 -0.00000000000E+00 -0.00000000000E+00 -0.50000000000E+03  0.50000000000E+03  0.00000000000E+00 0. -1.
        -11    1    1    2    0    0 -0.41843410010E+01  0.10937824826E+02  0.47460199160E+03  0.47474645354E+03  0.00000000000E+00 0. -1.
         11    1    1    2    0    0 -0.44194053073E+01 -0.59337652138E+01 -0.49658707726E+03  0.49664219114E+03  0.00000000000E+00 0. -1.
        -15    1    1    2    0    0  0.10146757740E+02 -0.85221080001E+01  0.19680223883E+02  0.23791846471E+02  0.17770000000E+01 0.  1.
         15    1    1    2    0    0 -0.15430114322E+01  0.35180483881E+01  0.23048617812E+01  0.48195088517E+01  0.17770000000E+01 0. -1.
</event>
<event>
 6    1  0.2408691E-003  0.5014405E+03  0.7546771E-02  0.9396592E-01
        -11   -1    0    0    0    0  0.00000000000E+00  0.00000000000E+00  0.50000000000E+03  0.50000000000E+03  0.00000000000E+00 0.  1.
         11   -1    0    0    0    0 -0.00000000000E+00 -0.00000000000E+00 -0.50000000000E+03  0.50000000000E+03  0.00000000000E+00 0. -1.
        -11    1    1    2    0    0  0.24304784440E+02  0.24786270542E+01  0.49796052462E+03  0.49855947511E+03  0.00000000000E+00 0.  1.
         11    1    1    2    0    0  0.35265152786E+01  0.19144310733E+01 -0.22273853574E+03  0.22277467688E+03  0.00000000000E+00 0. -1.
        -15    1    1    2    0    0 -0.10138752611E+02 -0.16278307247E+01 -0.22628903497E+03  0.22652887059E+03  0.17770000000E+01 0. -1.
         15    1    1    2    0    0 -0.17692547107E+02 -0.27652274028E+01 -0.48932953921E+02  0.52136977417E+02  0.17770000000E+01 0.  1.
</event>
<event>
 6    1  0.2408691E-003  0.5005883E+03  0.7546771E-02  0.9398494E-01
        -11   -1    0    0    0    0  0.00000000000E+00  0.00000000000E+00  0.50000000000E+03  0.50000000000E+03  0.00000000000E+00 0.  1.
         11   -1    0    0    0    0 -0.00000000000E+00 -0.00000000000E+00 -0.50000000000E+03  0.50000000000E+03  0.00000000000E+00 0.  1.
        -11    1    1    2    0    0 -0.69469824909E+01  0.14113259168E+01  0.39435228273E+03  0.39441599270E+03  0.00000000000E+00 0.  1.
         11    1    1    2    0    0  0.43497837372E+00  0.67359971619E+01 -0.49936611040E+03  0.49941172901E+03  0.00000000000E+00 0.  1.
        -15    1    1    2    0    0  0.14656869358E+01 -0.89435313605E+01  0.46451398745E+02  0.47360586628E+02  0.17770000000E+01 0. -1.
         15    1    1    2    0    0  0.50463171813E+01  0.79620828185E+00  0.58562428925E+02  0.58811691655E+02  0.17770000000E+01 0.  1.
</event>
<event>
 6    1  0.2408691E-003  0.5055090E+03  0.7546771E-02  0.9387567E-01
        -11   -1    0    0    0    0  0.00000000000E+00  0.00000000000E+00  0.50000000000E+03  0.50000000000E+03  0.00000000000E+00 0. -1.
         11   -1    0    0    0    0 -0.00000000000E+00 -0.00000000000E+00 -0.50000000000E+03  0.50000000000E+03  0.00000000000E+00 0.  1.
        -11    1    1    2    0    0  0.10498689152E+01 -0.26017715823E+02  0.29507878569E+03  0.29622544375E+03  0.00000000000E+00 0. -1.
         11    1    1    2    0    0 -0.21801384109E+01 -0.88478445952E+01 -0.49440699421E+03  0.49449096380E+03  0.00000000000E+00 0.  1.
        -15    1    1    2    0    0  0.67987230981E+01  0.28381912791E+02  0.19828406863E+03  0.20042825452E+03  0.17770000000E+01 0. -1.
         15    1    1    2    0    0 -0.56684536023E+01  0.64836476271E+01  0.10441398900E+01  0.88553379328E+01  0.17770000000E+01 0.  1.
</event>
<event>
 6    1  0.2408691E-003  0.4916033E+03  0.7546771E-02  0.9418797E-01
        -11   -1    0    0    0    0  0.00000000000E+00  0.00000000000E+00  0.50000000000E+03  0.50000000000E+03  0.00000000000E+00 0.  1.
         11   -1    0    0    0    0 -0.00000000000E+00 -0.00000000000E+00 -0.50000000000E+03  0.50000000000E+03  0.00000000000E+00 0.  1.
        -11    1    1    2    0    0  0.65374890009E+01 -0.23410716214E+01  0.49182318216E+03  0.49187220077E+03  0.00000000000E+00 0.  1.
         11    1    1    2    0    0 -0.33160237826E+01 -0.77246584351E+01 -0.49131933785E+03  0.49139124749E+03  0.00000000000E+00 0.  1.
        -15    1    1    2    0    0 -0.60437939131E+01  0.78529057533E+01  0.38901512902E+01  0.10792894871E+02  0.17770000000E+01 0.  1.
         15    1    1    2    0    0  0.28223286947E+01  0.22128243032E+01 -0.43939955975E+01  0.59436568683E+01  0.17770000000E+01 0. -1.
</event>
<event>
 6    1  0.2408691E-003  0.5016319E+03  0.7546771E-02  0.9396166E-01
        -11   -1    0    0    0    0  0.00000000000E+00  0.00000000000E+00  0.50000000000E+03  0.50000000000E+03  0.00000000000E+00 0. -1.
         11   -1    0    0    0    0 -0.00000000000E+00 -0.00000000000E+00 -0.50000000000E+03  0.50000000000E+03  0.00000000000E+00 0.  1.
        -11    1    1    2    0    0 -0.15386262594E+01 -0.11851698863E+02  0.46561388674E+03  0.46576723979E+03  0.00000000000E+00 0. -1.
         11    1    1    2    0    0  0.43546654846E+01  0.15824369294E+02 -0.49809775307E+03  0.49836808223E+03  0.00000000000E+00 0.  1.
        -15    1    1    2    0    0 -0.42806453745E+01  0.38688517644E+01  0.20415086185E+02  0.21289091379E+02  0.17770000000E+01 0.  1.
         15    1    1    2    0    0  0.14646061493E+01 -0.78415221954E+01  0.12068780148E+02  0.14575586601E+02  0.17770000000E+01 0. -1.
</event>
<event>
 6    1  0.2408691E-003  0.5226628E+03  0.7546771E-02  0.9350481E-01
        -11   -1    0    0    0    0  0.00000000000E+00  0.00000000000E+00  0.50000000000E+03  0.50000000000E+03  0.00000000000E+00 0. -1.
         11   -1    0    0    0    0 -0.00000000000E+00 -0.00000000000E+00 -0.50000000000E+03  0.50000000000E+03  0.00000000000E+00 0.  1.
        -11    1    1    2    0    0  0.52616129473E+01  0.48974896372E+01  0.47728304429E+03  0.47733717050E+03  0.00000000000E+00 0. -1.
         11    1    1    2    0    0 -0.75938498764E+01  0.57436430844E+01 -0.32254045945E+03  0.32268096314E+03  0.00000000000E+00 0.  1.
        -15    1    1    2    0    0  0.51587584565E+02 -0.24590543748E+02 -0.13216690223E+03  0.14400424125E+03  0.17770000000E+01 0. -1.
         15    1    1    2    0    0 -0.49255347636E+02  0.13949411026E+02 -0.22575682610E+02  0.55977625111E+02  0.17770000000E+01 0.  1.
</event>
<event>
 6    1  0.2408691E-003  0.4854023E+03  0.7546771E-02  0.9433079E-01
        -11   -1    0    0    0    0  0.00000000000E+00  0.00000000000E+00  0.50000000000E+03  0.50000000000E+03  0.00000000000E+00 0.  1.
         11   -1    0    0    0    0 -0.00000000000E+00 -0.00000000000E+00 -0.50000000000E+03  0.50000000000E+03  0.00000000000E+00 0. -1.
        -11    1    1    2    0    0  0.76512036905E+01 -0.15782453687E+02  0.48129652255E+03  0.48161599784E+03  0.00000000000E+00 0.  1.
         11    1    1    2    0    0  0.72330935412E+01 -0.85431278662E+00 -0.48942495394E+03  0.48947914463E+03  0.00000000000E+00 0. -1.
        -15    1    1    2    0    0 -0.11057950089E+02  0.15109940517E+02  0.12545885927E+02  0.22608528154E+02  0.17770000000E+01 0. -1.
         15    1    1    2    0    0 -0.38263471424E+01  0.15268259559E+01 -0.44174545371E+01  0.62963293705E+01  0.17770000000E+01 0.  1.
</event>
<event>
 6    1  0.2408691E-003  0.5017693E+03  0.7546771E-02  0.9395859E-01
        -11   -1    0    0    0    0  0.00000000000E+00  0.00000000000E+00  0.50000000000E+03  0.50000000000E+03  0.00000000000E+00 0.  1.
         11   -1    0    0    0    0 -0.00000000000E+00 -0.00000000000E+00 -0.50000000000E+03  0.50000000000E+03  0.00000000000E+00 0. -1.
        -11    1    1    2    0    0 -0.37910676818E+01 -0.11793118869E+02  0.43665313650E+03  0.43682881254E+03  0.00000000000E+00 0.  1.
         11    1    1    2    0    0 -0.77488322362E-01  0.73927215098E+01 -0.49817581631E+03  0.49823067177E+03  0.00000000000E+00 0. -1.
        -15    1    1    2    0    0  0.53671087487E+01  0.93481650821E+01  0.56401579265E+02  0.57449890508E+02  0.17770000000E+01 0.  1.
         15    1    1    2    0    0 -0.14985527445E+01 -0.49477677228E+01  0.51211005456E+01  0.74906251785E+01  0.17770000000E+01 0. -1.
</event>
<event>
 6    1  0.2408691E-003  0.5004449E+03  0.7546771E-02  0.9398815E-01
        -11   -1    0    0    0    0  0.00000000000E+00  0.00000000000E+00  0.50000000000E+03  0.50000000000E+03  0.00000000000E+00 0.  1.
         11   -1    0    0    0    0 -0.00000000000E+00 -0.00000000000E+00 -0.50000000000E+03  0.50000000000E+03  0.00000000000E+00 0.  1.
        -11    1    1    2    0    0  0.46519136189E+01 -0.94232628263E+01  0.49944455081E+03  0.49955509958E+03  0.00000000000E+00 0.  1.
         11    1    1    2    0    0  0.47385982504E+01  0.41401314177E+01 -0.30405851384E+03  0.30412361769E+03  0.00000000000E+00 0.  1.
        -15    1    1    2    0    0 -0.11343187464E+02 -0.17076742692E+01 -0.11118246024E+03  0.11178676687E+03  0.17770000000E+01 0.  1.
         15    1    1    2    0    0  0.19526755948E+01  0.69908056778E+01 -0.84203576742E+02  0.84534515857E+02  0.17770000000E+01 0. -1.
</event>
<event>
 6    1  0.2408691E-003  0.5066206E+03  0.7546771E-02  0.9385116E-01
        -11   -1    0    0    0    0  0.00000000000E+00  0.00000000000E+00  0.50000000000E+03  0.50000000000E+03  0.00000000000E+00 0. -1.
         11   -1    0    0    0    0 -0.00000000000E+00 -0.00000000000E+00 -0.50000000000E+03  0.50000000000E+03  0.00000000000E+00 0. -1.
        -11    1    1    2    0    0  0.44639035809E+01  0.40921404781E+00  0.31450437832E+03  0.31453632203E+03  0.00000000000E+00 0. -1.
         11    1    1    2    0    0  0.76916736263E+01 -0.16509292130E+01 -0.49331672311E+03  0.49337944496E+03  0.00000000000E+00 0. -1.
        -15    1    1    2    0    0 -0.20260058027E+02  0.10166069215E+02  0.17845076913E+03  0.17989345082E+03  0.17770000000E+01 0. -1.
         15    1    1    2    0    0  0.81044808196E+01 -0.89243540495E+01  0.36157565791E+00  0.12190782194E+02  0.17770000000E+01 0.  1.
</event>
<event>
 6    1  0.2408691E-003  0.5159717E+03  0.7546771E-02  0.9364764E-01
        -11   -1    0    0    0    0  0.00000000000E+00  0.00000000000E+00  0.50000000000E+03  0.50000000000E+03  0.00000000000E+00 0. -1.
         11   -1    0    0    0    0 -0.00000000000E+00 -0.00000000000E+00 -0.50000000000E+03  0.50000000000E+03  0.00000000000E+00 0. -1.
        -11    1    1    2    0    0 -0.69308840742E+01 -0.69966335445E+01  0.33545990822E+03  0.33560443987E+03  0.00000000000E+00 0. -1.
         11    1    1    2    0    0 -0.78138543093E+01  0.17641732192E+02 -0.48364360739E+03  0.48402833182E+03  0.00000000000E+00 0. -1.
        -15    1    1    2    0    0 -0.81968679204E+01 -0.22158505487E+02  0.15245505170E+03  0.15428508848E+03  0.17770000000E+01 0.  1.
         15    1    1    2    0    0  0.22941606304E+02  0.11513406839E+02 -0.42713525304E+01  0.26082139833E+02  0.17770000000E+01 0. -1.
</event>
<event>
 6    1  0.2408691E-003  0.5173474E+03  0.7546771E-02  0.9361809E-01
        -11   -1    0    0    0    0  0.00000000000E+00  0.00000000000E+00  0.50000000000E+03  0.50000000000E+03  0.00000000000E+00 0. -1.
         11   -1    0    0    0    0 -0.00000000000E+00 -0.00000000000E+00 -0.50000000000E+03  0.50000000000E+03  0.00000000000E+00 0.  1.
        -11    1    1    2    0    0 -0.81715675611E+01  0.65278918106E+00  0.48258301309E+03  0.48265263407E+03  0.00000000000E+00 0. -1.
         11    1    1    2    0    0  0.11779500310E+02 -0.73583926071E+01 -0.46024510493E+03  0.46045462229E+03  0.00000000000E+00 0.  1.
        -15    1    1    2    0    0  0.92223696161E+01  0.51206757389E+01  0.14381395269E+02  0.17923606787E+02  0.17770000000E+01 0.  1.
         15    1    1    2    0    0 -0.12830302365E+02  0.15849276871E+01 -0.36719303425E+02  0.38969136860E+02  0.17770000000E+01 0. -1.
</event>
<event>
 6    1  0.2408691E-003  0.5032168E+03  0.7546771E-02  0.9392640E-01
        -11   -1    0    0    0    0  0.00000000000E+00  0.00000000000E+00  0.50000000000E+03  0.50000000000E+03  0.00000000000E+00 0. -1.
         11   -1    0    0    0    0 -0.00000000000E+00 -0.00000000000E+00 -0.50000000000E+03  0.50000000000E+03  0.00000000000E+00 0.  1.
        -11    1    1    2    0    0  0.10041445650E+02 -0.11420619049E+01  0.42927300995E+03  0.42939195615E+03  0.00000000000E+00 0. -1.
         11    1    1    2    0    0 -0.25795045075E+01 -0.96392880980E+01 -0.49668292697E+03  0.49678315155E+03  0.00000000000E+00 0.  1.
        -15    1    1    2    0    0 -0.90591634968E+01 -0.53680729929E+01  0.44048766955E+02  0.45324786267E+02  0.17770000000E+01 0. -1.
         15    1    1    2    0    0  0.15972223538E+01  0.16149422996E+02  0.23361150070E+02  0.28500106034E+02  0.17770000000E+01 0.  1.
</event>
<event>
 6    1  0.2408691E-003  0.5000792E+03  0.7546771E-02  0.9399632E-01
        -11   -1    0    0    0    0  0.00000000000E+00  0.00000000000E+00  0.50000000000E+03  0.50000000000E+03  0.00000000000E+00 0.  1.
         11   -1    0    0    0    0 -0.00000000000E+00 -0.00000000000E+00 -0.50000000000E+03  0.50000000000E+03  0.00000000000E+00 0. -1.
        -11    1    1    2    0    0  0.24598566417E+01  0.17365273982E+01  0.89882953749E+02  0.89933374210E+02  0.00000000000E+00 0.  1.
         11    1    1    2    0    0  0.68635541794E+01  0.11163927390E+01 -0.49987238759E+03  0.49992075230E+03  0.00000000000E+00 0. -1.
        -15    1    1    2    0    0 -0.59641868196E+01  0.50526833574E+00  0.23550803840E+03  0.23559079078E+03  0.17770000000E+01 0.  1.
         15    1    1    2    0    0 -0.33592240015E+01 -0.33581884730E+01  0.17448139544E+03  0.17455508271E+03  0.17770000000E+01 0.  1.
</event>
<event>
 6    1  0.2408691E-003  0.5017776E+03  0.7546771E-02  0.9395841E-01
        -11   -1    0    0    0    0  0.00000000000E+00  0.00000000000E+00  0.50000000000E+03  0.50000000000E+03  0.00000000000E+00 0.  1.
         11   -1    0    0    0    0 -0.00000000000E+00 -0.00000000000E+00 -0.50000000000E+03  0.50000000000E+03  0.00000000000E+00 0.  1.
        -11    1    1    2    0    0  0.81202433155E+01 -0.12373624401E+00  0.49815619037E+03  0.49822238375E+03  0.00000000000E+00 0.  1.
         11    1    1    2    0    0 -0.73782816659E+01 -0.23175387318E+01 -0.46117308612E+03  0.46123792709E+03  0.00000000000E+00 0.  1.
        -15    1    1    2    0    0  0.61029558178E+01 -0.73772135602E+00 -0.27772124794E+02  0.28499806089E+02  0.17770000000E+01 0. -1.
         15    1    1    2    0    0 -0.68449174674E+01  0.31789963318E+01 -0.92109794622E+01  0.12039883075E+02  0.17770000000E+01 0.  1.
</event>
<event>
 6    1  0.2408691E-003  0.5034866E+03  0.7546771E-02  0.9392042E-01
        -11   -1    0    0    0    0  0.00000000000E+00  0.00000000000E+00  0.50000000000E+03  0.50000000000E+03  0.00000000000E+00 0.  1.
         11   -1    0    0    0    0 -0.00000000000E+00 -0.00000000000E+00 -0.50000000000E+03  0.50000000000E+03  0.00000000000E+00 0. -1.
        -11    1    1    2    0    0  0.77370021187E+01  0.21375320435E+00  0.28717307075E+03  0.28727735633E+03  0.00000000000E+00 0.  1.
         11    1    1    2    0    0  0.15069981970E+02  0.74789481326E+00 -0.49628403680E+03  0.49651335218E+03  0.00000000000E+00 0. -1.
        -15    1    1    2    0    0 -0.54391999077E+01 -0.33504623074E+01  0.19036916256E+03  0.19048460903E+03  0.17770000000E+01 0.  1.
         15    1    1    2    0    0 -0.17367784181E+02  0.23888142898E+01  0.18741803488E+02  0.25724682467E+02  0.17770000000E+01 0. -1.
</event>
<event>
 6    1  0.2408691E-003  0.5009681E+03  0.7546771E-02  0.9397646E-01
        -11   -1    0    0    0    0  0.00000000000E+00  0.00000000000E+00  0.50000000000E+03  0.50000000000E+03  0.00000000000E+00 0. -1.
         11   -1    0    0    0    0 -0.00000000000E+00 -0.00000000000E+00 -0.50000000000E+03  0.50000000000E+03  0.00000000000E+00 0.  1.
        -11    1    1    2    0    0 -0.43203621108E+01  0.72908692442E+01  0.41335895614E+03  0.41344582345E+03  0.00000000000E+00 0. -1.
         11    1    1    2    0    0 -0.65372409921E+01  0.38615632812E+01 -0.49897409137E+03  0.49903185374E+03  0.00000000000E+00 0.  1.
        -15    1    1    2    0    0  0.20758826751E+01 -0.33835529281E+01  0.45046093581E+02  0.45255563141E+02  0.17770000000E+01 0. -1.
         15    1    1    2    0    0  0.87817204277E+01 -0.77688795972E+01  0.40569041648E+02  0.42266759671E+02  0.17770000000E+01 0.  1.
</event>
<event>
 6    1  0.2408691E-003  0.5036461E+03  0.7546771E-02  0.9391688E-01
        -11   -1    0    0    0    0  0.00000000000E+00  0.00000000000E+00  0.50000000000E+03  0.50000000000E+03  0.00000000000E+00 0.  1.
         11   -1    0    0    0    0 -0.00000000000E+00 -0.00000000000E+00 -0.50000000000E+03  0.50000000000E+03  0.00000000000E+00 0.  1.
        -11    1    1    2    0    0  0.41654208181E+01  0.48217659067E+01  0.39331469736E+03  0.39336630679E+03  0.00000000000E+00 0.  1.
         11    1    1    2    0    0 -0.10329626664E+02  0.22657106350E+02 -0.49572891127E+03  0.49635390511E+03  0.00000000000E+00 0.  1.
        -15    1    1    2    0    0  0.11832578713E+02 -0.62318360263E+01  0.15222720290E+02  0.20340468069E+02  0.17770000000E+01 0. -1.
         15    1    1    2    0    0 -0.56683728671E+01 -0.21247036230E+02  0.87191493617E+02  0.89939320031E+02  0.17770000000E+01 0.  1.
</event>
<event>
 6    1  0.2408691E-003  0.5108739E+03  0.7546771E-02  0.9375802E-01
        -11   -1    0    0    0    0  0.00000000000E+00  0.00000000000E+00  0.50000000000E+03  0.50000000000E+03  0.00000000000E+00 0.  1.
         11   -1    0    0    0    0 -0.00000000000E+00 -0.00000000000E+00 -0.50000000000E+03  0.50000000000E+03  0.00000000000E+00 0. -1.
        -11    1    1    2    0    0 -0.11123972095E+01 -0.83765059856E+01  0.48905309832E+03  0.48912609443E+03  0.00000000000E+00 0.  1.
         11    1    1    2    0    0  0.44784831011E+01  0.40801144290E+01 -0.44433534340E+03  0.44437664378E+03  0.00000000000E+00 0. -1.
        -15    1    1    2    0    0 -0.55134496083E+01 -0.23306631524E+01 -0.54221898796E+02  0.54580235941E+02  0.17770000000E+01 0. -1.
         15    1    1    2    0    0  0.21473637167E+01  0.66270547090E+01  0.95041438774E+01  0.11917025841E+02  0.17770000000E+01 0.  1.
</event>
<event>
 6    1  0.2408691E-003  0.4635410E+03  0.7546771E-02  0.9485301E-01
        -11   -1    0    0    0    0  0.00000000000E+00  0.00000000000E+00  0.50000000000E+03  0.50000000000E+03  0.00000000000E+00 0.  1.
         11   -1    0    0    0    0 -0.00000000000E+00 -0.00000000000E+00 -0.50000000000E+03  0.50000000000E+03  0.00000000000E+00 0.  1.
        -11    1    1    2    0    0  0.82833799641E+00  0.18399532948E+01  0.30711798477E+02  0.30778013868E+02  0.00000000000E+00 0.  1.
         11    1    1    2    0    0  0.59665850287E+01 -0.34254732222E+01 -0.47509835909E+03  0.47514817143E+03  0.00000000000E+00 0.  1.
        -15    1    1    2    0    0 -0.18924208346E+02  0.35489917954E+02 -0.73296564991E+01  0.40921162390E+02  0.17770000000E+01 0. -1.
         15    1    1    2    0    0  0.12129285321E+02 -0.33904398027E+02  0.45171621711E+03  0.45315265231E+03  0.17770000000E+01 0.  1.
</event>
<event>
 6    1  0.2408691E-003  0.5004974E+03  0.7546771E-02  0.9398697E-01
        -11   -1    0    0    0    0  0.00000000000E+00  0.00000000000E+00  0.50000000000E+03  0.50000000000E+03  0.00000000000E+00 0.  1.
         11   -1    0    0    0    0 -0.00000000000E+00 -0.00000000000E+00 -0.50000000000E+03  0.50000000000E+03  0.00000000000E+00 0.  1.
        -11    1    1    2    0    0  0.51351610887E+01 -0.22227880653E+01  0.21182646598E+03  0.21190035950E+03  0.00000000000E+00 0.  1.
         11    1    1    2    0    0  0.61912108160E+01 -0.53155310730E+01 -0.49943589540E+03  0.49950255212E+03  0.00000000000E+00 0.  1.
        -15    1    1    2    0    0 -0.85257245569E+01  0.67439222883E+01  0.28045573354E+03  0.28067195206E+03  0.17770000000E+01 0.  1.
         15    1    1    2    0    0 -0.28006473478E+01  0.79439685008E+00  0.71536958844E+01  0.79251363224E+01  0.17770000000E+01 0. -1.
</event>
<event>
 6    1  0.2408691E-003  0.5010194E+03  0.7546771E-02  0.9397532E-01
        -11   -1    0    0    0    0  0.00000000000E+00  0.00000000000E+00  0.50000000000E+03  0.50000000000E+03  0.00000000000E+00 0.  1.
         11   -1    0    0    0    0 -0.00000000000E+00 -0.00000000000E+00 -0.50000000000E+03  0.50000000000E+03  0.00000000000E+00 0. -1.
        -11    1    1    2    0    0 -0.17141388397E+01  0.82429666831E+01  0.23066940211E+03  0.23082300111E+03  0.00000000000E+00 0.  1.
         11    1    1    2    0    0  0.23109542283E+02 -0.13991383319E+02 -0.49824880667E+03  0.49898064401E+03  0.00000000000E+00 0. -1.
        -15    1    1    2    0    0  0.45845950667E+01 -0.69704913659E+01  0.62390466630E+02  0.62970900558E+02  0.17770000000E+01 0.  1.
         15    1    1    2    0    0 -0.25979998510E+02  0.12718908001E+02  0.20518893793E+03  0.20722545432E+03  0.17770000000E+01 0. -1.
</event>
<event>
 6    1  0.2408691E-003  0.5019761E+03  0.7546771E-02  0.9395399E-01
        -11   -1    0    0    0    0  0.00000000000E+00  0.00000000000E+00  0.50000000000E+03  0.50000000000E+03  0.00000000000E+00 0.  1.
         11   -1    0    0    0    0 -0.00000000000E+00 -0.00000000000E+00 -0.50000000000E+03  0.50000000000E+03  0.00000000000E+00 0.  1.
        -11    1    1    2    0    0  0.55045324858E+01 -0.90914635420E+01  0.14984441365E+03  0.15022084705E+03  0.00000000000E+00 0.  1.
         11    1    1    2    0    0  0.76231972356E+01 -0.31836152600E+01 -0.49795542331E+03  0.49802394737E+03  0.00000000000E+00 0.  1.
        -15    1    1    2    0    0  0.35733050538E+01 -0.20547578928E+01  0.19551540853E+01  0.48960081192E+01  0.17770000000E+01 0. -1.
         15    1    1    2    0    0 -0.16701034775E+02  0.14329836695E+02  0.34615585558E+03  0.34685919746E+03  0.17770000000E+01 0.  1.
</event>
<event>
 6    1  0.2408691E-003  0.5162670E+03  0.7546771E-02  0.9364129E-01
        -11   -1    0    0    0    0  0.00000000000E+00  0.00000000000E+00  0.50000000000E+03  0.50000000000E+03  0.00000000000E+00 0.  1.
         11   -1    0    0    0    0 -0.00000000000E+00 -0.00000000000E+00 -0.50000000000E+03  0.50000000000E+03  0.00000000000E+00 0. -1.
        -11    1    1    2    0    0  0.23721128392E+01  0.61785523161E+01  0.48368773931E+03  0.48373301581E+03  0.00000000000E+00 0.  1.
         11    1    1    2    0    0  0.22634748052E+01  0.13490740049E+02 -0.46692636165E+03  0.46712669650E+03  0.00000000000E+00 0. -1.
        -15    1    1    2    0    0 -0.73556223564E+01  0.16684743494E+00  0.11917970188E+02  0.14118383785E+02  0.17770000000E+01 0.  1.
         15    1    1    2    0    0  0.27200347121E+01 -0.19836139800E+02 -0.28679347848E+02  0.35021903903E+02  0.17770000000E+01 0. -1.
</event>
<event>
 6    1  0.2408691E-003  0.5004438E+03  0.7546771E-02  0.9398817E-01
        -11   -1    0    0    0    0  0.00000000000E+00  0.00000000000E+00  0.50000000000E+03  0.50000000000E+03  0.00000000000E+00 0. -1.
         11   -1    0    0    0    0 -0.00000000000E+00 -0.00000000000E+00 -0.50000000000E+03  0.50000000000E+03  0.00000000000E+00 0.  1.
        -11    1    1    2    0    0  0.78454797758E+01 -0.34095639625E+01  0.49948294295E+03  0.49955619001E+03  0.00000000000E+00 0. -1.
         11    1    1    2    0    0 -0.65928193194E+01 -0.76427341702E+00 -0.30164374176E+03  0.30171674850E+03  0.00000000000E+00 0.  1.
        -15    1    1    2    0    0  0.19063214945E+01  0.23746652566E+01 -0.18869041566E+03  0.18872335253E+03  0.17770000000E+01 0.  1.
         15    1    1    2    0    0 -0.31589819510E+01  0.17991721229E+01 -0.91487855270E+01  0.10003708958E+02  0.17770000000E+01 0. -1.
</event>
<event>
 6    1  0.2408691E-003  0.4871055E+03  0.7546771E-02  0.9429133E-01
        -11   -1    0    0    0    0  0.00000000000E+00  0.00000000000E+00  0.50000000000E+03  0.50000000000E+03  0.00000000000E+00 0.  1.
         11   -1    0    0    0    0 -0.00000000000E+00 -0.00000000000E+00 -0.50000000000E+03  0.50000000000E+03  0.00000000000E+00 0.  1.
        -11    1    1    2    0    0  0.39759763964E-01 -0.11087742848E+02  0.49121933101E+03  0.49134445228E+03  0.00000000000E+00 0.  1.
         11    1    1    2    0    0 -0.41596790381E+01 -0.79386257174E+01 -0.48301252619E+03  0.48309566875E+03  0.00000000000E+00 0.  1.
        -15    1    1    2    0    0  0.66055222296E+01  0.25219782966E+01 -0.37250251157E+01  0.81869920953E+01  0.17770000000E+01 0. -1.
         15    1    1    2    0    0 -0.24856029555E+01  0.16504390269E+02 -0.44817797093E+01  0.17372886881E+02  0.17770000000E+01 0.  1.
</event>
<event>
 6    1  0.2408691E-003  0.5084421E+03  0.7546771E-02  0.9381116E-01
        -11   -1    0    0    0    0  0.00000000000E+00  0.00000000000E+00  0.50000000000E+03  0.50000000000E+03  0.00000000000E+00 0. -1.
         11   -1    0    0    0    0 -0.00000000000E+00 -0.00000000000E+00 -0.50000000000E+03  0.50000000000E+03  0.00000000000E+00 0.  1.
        -11    1    1    2    0    0 -0.92171087979E+01  0.23351557796E+02  0.40246013414E+03  0.40324237119E+03  0.00000000000E+00 0. -1.
         11    1    1    2    0    0  0.46661516933E+00  0.82179589905E+01 -0.49148898027E+03  0.49155790128E+03  0.00000000000E+00 0.  1.
        -15    1    1    2    0    0  0.77877583772E+01  0.15243162738E+01  0.61697913033E+02  0.62231526755E+02  0.17770000000E+01 0.  1.
         15    1    1    2    0    0  0.96273525140E+00 -0.33093833060E+02  0.27330933094E+02  0.42968200783E+02  0.17770000000E+01 0. -1.
</event>
<event>
 6    1  0.2408691E-003  0.5064954E+03  0.7546771E-02  0.9385392E-01
        -11   -1    0    0    0    0  0.00000000000E+00  0.00000000000E+00  0.50000000000E+03  0.50000000000E+03  0.00000000000E+00 0. -1.
         11   -1    0    0    0    0 -0.00000000000E+00 -0.00000000000E+00 -0.50000000000E+03  0.50000000000E+03  0.00000000000E+00 0.  1.
        -11    1    1    2    0    0  0.11622114737E+02  0.90972314683E+01  0.40213487347E+03  0.40240562823E+03  0.00000000000E+00 0. -1.
         11    1    1    2    0    0  0.49290819984E+01  0.21051224398E+02 -0.49303073517E+03  0.49350456504E+03  0.00000000000E+00 0.  1.
        -15    1    1    2    0    0  0.10169071497E+02 -0.58562040598E+01  0.10142915799E+02  0.15612226331E+02  0.17770000000E+01 0. -1.
         15    1    1    2    0    0 -0.26720268232E+02 -0.24292251807E+02  0.80752945896E+02  0.88477580392E+02  0.17770000000E+01 0.  1.
</event>
<event>
 6    1  0.2408691E-003  0.5036741E+03  0.7546771E-02  0.9391626E-01
        -11   -1    0    0    0    0  0.00000000000E+00  0.00000000000E+00  0.50000000000E+03  0.50000000000E+03  0.00000000000E+00 0. -1.
         11   -1    0    0    0    0 -0.00000000000E+00 -0.00000000000E+00 -0.50000000000E+03  0.50000000000E+03  0.00000000000E+00 0.  1.
        -11    1    1    2    0    0  0.10377396548E+02 -0.26775338964E+01  0.49621020554E+03  0.49632592883E+03  0.00000000000E+00 0. -1.
         11    1    1    2    0    0 -0.50856256876E+01 -0.76161244577E+01 -0.43037841199E+03  0.43047583724E+03  0.00000000000E+00 0.  1.
        -15    1    1    2    0    0  0.31771221901E+01  0.17296131299E+02 -0.23368367957E+02  0.29299976337E+02  0.17770000000E+01 0.  1.
         15    1    1    2    0    0 -0.84688930506E+01 -0.70024729454E+01 -0.42463425600E+02  0.43898257591E+02  0.17770000000E+01 0. -1.
</event>
<event>
 6    1  0.2408691E-003  0.5228587E+03  0.7546771E-02  0.9350066E-01
        -11   -1    0    0    0    0  0.00000000000E+00  0.00000000000E+00  0.50000000000E+03  0.50000000000E+03  0.00000000000E+00 0.  1.
         11   -1    0    0    0    0 -0.00000000000E+00 -0.00000000000E+00 -0.50000000000E+03  0.50000000000E+03  0.00000000000E+00 0. -1.
        -11    1    1    2    0    0  0.24173681736E+02 -0.12623233386E+02  0.47636135307E+03  0.47714133295E+03  0.00000000000E+00 0.  1.
         11    1    1    2    0    0  0.51081577459E+01  0.13147874582E+02 -0.25144648427E+03  0.25184180418E+03  0.00000000000E+00 0. -1.
        -15    1    1    2    0    0 -0.45226611654E+01  0.33819894709E+02  0.73241500110E+01  0.34943392001E+02  0.17770000000E+01 0. -1.
         15    1    1    2    0    0 -0.24759178316E+02 -0.34344535905E+02 -0.23223901882E+03  0.23607347087E+03  0.17770000000E+01 0.  1.
</event>
<event>
 6    1  0.2408691E-003  0.5109279E+03  0.7546771E-02  0.9375684E-01
        -11   -1    0    0    0    0  0.00000000000E+00  0.00000000000E+00  0.50000000000E+03  0.50000000000E+03  0.00000000000E+00 0. -1.
         11   -1    0    0    0    0 -0.00000000000E+00 -0.00000000000E+00 -0.50000000000E+03  0.50000000000E+03  0.00000000000E+00 0. -1.
        -11    1    1    2    0    0 -0.58847222103E+01 -0.45168982556E+01  0.42174283934E+03  0.42180807823E+03  0.00000000000E+00 0. -1.
         11    1    1    2    0    0 -0.19333188739E+02  0.33990746904E+01 -0.48867798832E+03  0.48907208279E+03  0.00000000000E+00 0. -1.
        -15    1    1    2    0    0  0.33419818824E+01 -0.12983048015E+02 -0.35334187295E+01  0.13977523227E+02  0.17770000000E+01 0.  1.
         15    1    1    2    0    0  0.21875929067E+02  0.14100871580E+02  0.70468567710E+02  0.75142315748E+02  0.17770000000E+01 0. -1.
</event>
<event>
 6    1  0.2408691E-003  0.5050388E+03  0.7546771E-02  0.9388605E-01
        -11   -1    0    0    0    0  0.00000000000E+00  0.00000000000E+00  0.50000000000E+03  0.50000000000E+03  0.00000000000E+00 0.  1.
         11   -1    0    0    0    0 -0.00000000000E+00 -0.00000000000E+00 -0.50000000000E+03  0.50000000000E+03  0.00000000000E+00 0.  1.
        -11    1    1    2    0    0 -0.66813901715E+01  0.33208555877E+01  0.49490496526E+03  0.49496120423E+03  0.00000000000E+00 0.  1.
         11    1    1    2    0    0  0.53511036977E+01  0.99829497778E+00 -0.31095089630E+03  0.31099853829E+03  0.00000000000E+00 0.  1.
        -15    1    1    2    0    0  0.32624350058E+01 -0.13126462486E+02 -0.18433794513E+03  0.18484204944E+03  0.17770000000E+01 0.  1.
         15    1    1    2    0    0 -0.19321485319E+01  0.88073119203E+01  0.38387617085E+00  0.91982080388E+01  0.17770000000E+01 0. -1.
</event>
<event>
 6    1  0.2408691E-003  0.4472324E+03  0.7546771E-02  0.9526298E-01
        -11   -1    0    0    0    0  0.00000000000E+00  0.00000000000E+00  0.50000000000E+03  0.50000000000E+03  0.00000000000E+00 0. -1.
         11   -1    0    0    0    0 -0.00000000000E+00 -0.00000000000E+00 -0.50000000000E+03  0.50000000000E+03  0.00000000000E+00 0. -1.
        -11    1    1    2    0    0  0.98458169201E+01 -0.20567635791E+02  0.45185651833E+03  0.45243152069E+03  0.00000000000E+00 0. -1.
         11    1    1    2    0    0  0.44037928990E+01  0.49448105211E+01 -0.44228477200E+03  0.44233433519E+03  0.00000000000E+00 0. -1.
        -15    1    1    2    0    0 -0.20289472684E+01  0.20448265033E+02  0.44773069898E+02  0.49295371862E+02  0.17770000000E+01 0.  1.
         15    1    1    2    0    0 -0.12220662551E+02 -0.48254397636E+01 -0.54344816227E+02  0.55938772259E+02  0.17770000000E+01 0. -1.
</event>
<event>
 6    1  0.2408691E-003  0.5001171E+03  0.7546771E-02  0.9399548E-01
        -11   -1    0    0    0    0  0.00000000000E+00  0.00000000000E+00  0.50000000000E+03  0.50000000000E+03  0.00000000000E+00 0.  1.
         11   -1    0    0    0    0 -0.00000000000E+00 -0.00000000000E+00 -0.50000000000E+03  0.50000000000E+03  0.00000000000E+00 0. -1.
        -11    1    1    2    0    0  0.19460332847E+01 -0.19608437437E+01  0.20274238639E+03  0.20276120731E+03  0.00000000000E+00 0.  1.
         11    1    1    2    0    0 -0.68327824531E+01  0.46588330524E+01 -0.49981447944E+03  0.49988289178E+03  0.00000000000E+00 0. -1.
        -15    1    1    2    0    0  0.27056034850E+01 -0.47997801531E+01  0.26935655049E+03  0.26941875807E+03  0.17770000000E+01 0.  1.
         15    1    1    2    0    0  0.21811456834E+01  0.21017908444E+01  0.27715542564E+02  0.27937142836E+02  0.17770000000E+01 0.  1.
</event>
<event>
 6    1  0.2408691E-003  0.5032705E+03  0.7546771E-02  0.9392521E-01
        -11   -1    0    0    0    0  0.00000000000E+00  0.00000000000E+00  0.50000000000E+03  0.50000000000E+03  0.00000000000E+00 0.  1.
         11   -1    0    0    0    0 -0.00000000000E+00 -0.00000000000E+00 -0.50000000000E+03  0.50000000000E+03  0.00000000000E+00 0. -1.
        -11    1    1    2    0    0 -0.31509938771E+01  0.61280513319E+01  0.49668172201E+03  0.49672951871E+03  0.00000000000E+00 0.  1.
         11    1    1    2    0    0 -0.28475114643E+01 -0.76156959961E+01 -0.40270665759E+03  0.40278872776E+03  0.00000000000E+00 0. -1.
        -15    1    1    2    0    0 -0.72939667967E+01 -0.11471102232E+02 -0.20389264347E+02  0.24569655424E+02  0.17770000000E+01 0.  1.
         15    1    1    2    0    0  0.13292472138E+02  0.12958746897E+02 -0.73585800078E+02  0.75912098106E+02  0.17770000000E+01 0. -1.
</event>
<event>
 6    1  0.2408691E-003  0.5074545E+03  0.7546771E-02  0.9383282E-01
        -11   -1    0    0    0    0  0.00000000000E+00  0.00000000000E+00  0.50000000000E+03  0.50000000000E+03  0.00000000000E+00 0. -1.
         11   -1    0    0    0    0 -0.00000000000E+00 -0.00000000000E+00 -0.50000000000E+03  0.50000000000E+03  0.00000000000E+00 0. -1.
        -11    1    1    2    0    0 -0.40708087112E+01  0.26097404752E+01  0.29025321601E+03  0.29029349224E+03  0.00000000000E+00 0. -1.
         11    1    1    2    0    0 -0.41802839885E+01 -0.10522684498E+02 -0.49241532728E+03  0.49254548643E+03  0.00000000000E+00 0. -1.
        -15    1    1    2    0    0  0.24225235249E+01 -0.61804808001E+00  0.20598070237E+03  0.20600353900E+03  0.17770000000E+01 0. -1.
         15    1    1    2    0    0  0.58285691748E+01  0.85309921028E+01 -0.38185911110E+01  0.11157482331E+02  0.17770000000E+01 0.  1.
</event>
<event>
 6    1  0.2408691E-003  0.5041089E+03  0.7546771E-02  0.9390662E-01
        -11   -1    0    0    0    0  0.00000000000E+00  0.00000000000E+00  0.50000000000E+03  0.50000000000E+03  0.00000000000E+00 0.  1.
         11   -1    0    0    0    0 -0.00000000000E+00 -0.00000000000E+00 -0.50000000000E+03  0.50000000000E+03  0.00000000000E+00 0. -1.
        -11    1    1    2    0    0 -0.12138238074E+02 -0.67052867951E+01  0.48483772545E+03  0.48503599631E+03  0.00000000000E+00 0.  1.
         11    1    1    2    0    0  0.68392980586E+01  0.65662670752E+01 -0.49580046425E+03  0.49589110923E+03  0.00000000000E+00 0. -1.
        -15    1    1    2    0    0  0.23120288317E+01 -0.35664782670E+01  0.12851918137E+02  0.13652647119E+02  0.17770000000E+01 0. -1.
         15    1    1    2    0    0  0.29869111837E+01  0.37054979869E+01 -0.18891793381E+01  0.54202473488E+01  0.17770000000E+01 0.  1.
</event>
<event>
 6    1  0.2408691E-003  0.5003902E+03  0.7546771E-02  0.9398937E-01
        -11   -1    0    0    0    0  0.00000000000E+00  0.00000000000E+00  0.50000000000E+03  0.50000000000E+03  0.00000000000E+00 0.  1.
         11   -1    0    0    0    0 -0.00000000000E+00 -0.00000000000E+00 -0.50000000000E+03  0.50000000000E+03  0.00000000000E+00 0. -1.
        -11    1    1    2    0    0 -0.34605197781E+01  0.58891462488E+01  0.49956311014E+03  0.49960980600E+03  0.00000000000E+00 0.  1.
         11    1    1    2    0    0  0.52904518893E+01 -0.36026002846E+01 -0.41977259507E+03  0.41982138961E+03  0.00000000000E+00 0. -1.
        -15    1    1    2    0    0  0.97336149846E+00 -0.49640572322E+01 -0.22925699635E+02  0.23544314167E+02  0.17770000000E+01 0. -1.
         15    1    1    2    0    0 -0.28032936096E+01  0.26775112680E+01 -0.56864815434E+02  0.57024490222E+02  0.17770000000E+01 0.  1.
</event>
<event>
 6    1  0.2408691E-003  0.5088554E+03  0.7546771E-02  0.9380210E-01
        -11   -1    0    0    0    0  0.00000000000E+00  0.00000000000E+00  0.50000000000E+03  0.50000000000E+03  0.00000000000E+00 0. -1.
         11   -1    0    0    0    0 -0.00000000000E+00 -0.00000000000E+00 -0.50000000000E+03  0.50000000000E+03  0.00000000000E+00 0. -1.
        -11    1    1    2    0    0  0.48563334160E+01  0.94036438498E+01  0.43965269027E+03  0.43978005930E+03  0.00000000000E+00 0. -1.
         11    1    1    2    0    0  0.10126513185E+02 -0.99997025584E-01 -0.49104016388E+03  0.49114458036E+03  0.00000000000E+00 0. -1.
        -15    1    1    2    0    0 -0.26273652827E+02 -0.67295831551E+01  0.50470067373E+02  0.57323446791E+02  0.17770000000E+01 0. -1.
         15    1    1    2    0    0  0.11290806226E+02 -0.25740636691E+01  0.91740624024E+00  0.11751913555E+02  0.17770000000E+01 0.  1.
</event>
<event>
 6    1  0.2408691E-003  0.5027365E+03  0.7546771E-02  0.9393707E-01
        -11   -1    0    0    0    0  0.00000000000E+00  0.00000000000E+00  0.50000000000E+03  0.50000000000E+03  0.00000000000E+00 0. -1.
         11   -1    0    0    0    0 -0.00000000000E+00 -0.00000000000E+00 -0.50000000000E+03  0.50000000000E+03  0.00000000000E+00 0. -1.
        -11    1    1    2    0    0 -0.72912101788E+00 -0.80589918159E+01  0.49719762928E+03  0.49726347295E+03  0.00000000000E+00 0. -1.
         11    1    1    2    0    0 -0.65759578916E+01 -0.25938537038E+01 -0.47757192981E+03  0.47762424503E+03  0.00000000000E+00 0. -1.
        -15    1    1    2    0    0  0.82144484256E+01  0.94364462416E+01 -0.13195028114E+02  0.18269925466E+02  0.17770000000E+01 0.  1.
         15    1    1    2    0    0 -0.90936951616E+00  0.12163992781E+01 -0.64306713530E+01  0.68423565510E+01  0.17770000000E+01 0. -1.
</event>
<event>
 6    1  0.2408691E-003  0.5052812E+03  0.7546771E-02  0.9388070E-01
        -11   -1    0    0    0    0  0.00000000000E+00  0.00000000000E+00  0.50000000000E+03  0.50000000000E+03  0.00000000000E+00 0.  1.
         11   -1    0    0    0    0 -0.00000000000E+00 -0.00000000000E+00 -0.50000000000E+03  0.50000000000E+03  0.00000000000E+00 0. -1.
        -11    1    1    2    0    0  0.42039373228E+00  0.63873593790E+01  0.46418643157E+03  0.46423056593E+03  0.00000000000E+00 0.  1.
         11    1    1    2    0    0  0.27266125747E+01 -0.13579187785E+02 -0.49452487956E+03  0.49471879413E+03  0.00000000000E+00 0. -1.
        -15    1    1    2    0    0 -0.24083603727E+00  0.12419361534E+02  0.28563490614E+01  0.12869149228E+02  0.17770000000E+01 0.  1.
         15    1    1    2    0    0 -0.29061702697E+01 -0.52275331280E+01  0.27482098928E+02  0.28181490711E+02  0.17770000000E+01 0. -1.
</event>
<event>
 6    1  0.2408691E-003  0.5014694E+03  0.7546771E-02  0.9396528E-01
        -11   -1    0    0    0    0  0.00000000000E+00  0.00000000000E+00  0.50000000000E+03  0.50000000000E+03  0.00000000000E+00 0.  1.
         11   -1    0    0    0    0 -0.00000000000E+00 -0.00000000000E+00 -0.50000000000E+03  0.50000000000E+03  0.00000000000E+00 0. -1.
        -11    1    1    2    0    0  0.61748592035E+00 -0.24797114339E+01  0.13806924974E+03  0.13809289620E+03  0.00000000000E+00 0.  1.
         11    1    1    2    0    0  0.25576911717E+01 -0.70817616514E+01 -0.49847369593E+03  0.49853055941E+03  0.00000000000E+00 0. -1.
        -15    1    1    2    0    0  0.69792656885E+01  0.12491351254E+02  0.35790957648E+02  0.38586194216E+02  0.17770000000E+01 0. -1.
         15    1    1    2    0    0 -0.10154442781E+02 -0.29298781689E+01  0.32461348854E+03  0.32479035017E+03  0.17770000000E+01 0.  1.
</event>
<event>
 6    1  0.2408691E-003  0.5651793E+03  0.7546771E-02  0.9264725E-01
        -11   -1    0    0    0    0  0.00000000000E+00  0.00000000000E+00  0.50000000000E+03  0.50000000000E+03  0.00000000000E+00 0.  1.
         11   -1    0    0    0    0 -0.00000000000E+00 -0.00000000000E+00 -0.50000000000E+03  0.50000000000E+03  0.00000000000E+00 0. -1.
        -11    1    1    2    0    0 -0.62701978849E+01  0.66284383731E+01  0.29501227835E+03  0.29515334312E+03  0.00000000000E+00 0.  1.
         11    1    1    2    0    0  0.66494159106E+01  0.21365305847E+02 -0.43424461771E+03  0.43482074357E+03  0.00000000000E+00 0. -1.
        -15    1    1    2    0    0  0.29380746225E+02 -0.39245652090E+02 -0.54709941469E+02  0.73483228571E+02  0.17770000000E+01 0. -1.
         15    1    1    2    0    0 -0.29759964250E+02  0.11251907870E+02  0.19394228083E+03  0.19654268474E+03  0.17770000000E+01 0.  1.
</event>
<event>
 6    1  0.2408691E-003  0.5040480E+03  0.7546771E-02  0.9390797E-01
        -11   -1    0    0    0    0  0.00000000000E+00  0.00000000000E+00  0.50000000000E+03  0.50000000000E+03  0.00000000000E+00 0. -1.
         11   -1    0    0    0    0 -0.00000000000E+00 -0.00000000000E+00 -0.50000000000E+03  0.50000000000E+03  0.00000000000E+00 0.  1.
        -11    1    1    2    0    0 -0.10963696266E+02 -0.12928720518E+02  0.46304708365E+03  0.46335726619E+03  0.00000000000E+00 0. -1.
         11    1    1    2    0    0  0.66055835428E+01  0.58883856760E+01 -0.49587308690E+03  0.49595203914E+03  0.00000000000E+00 0.  1.
        -15    1    1    2    0    0 -0.28743565679E+01 -0.33025036457E+01 -0.74345100516E+00  0.47831897732E+01  0.17770000000E+01 0. -1.
         15    1    1    2    0    0  0.72324692908E+01  0.10342838488E+02  0.33569454250E+02  0.35907504893E+02  0.17770000000E+01 0.  1.
</event>
<event>
 6    1  0.2408691E-003  0.5061035E+03  0.7546771E-02  0.9386255E-01
        -11   -1    0    0    0    0  0.00000000000E+00  0.00000000000E+00  0.50000000000E+03  0.50000000000E+03  0.00000000000E+00 0.  1.
         11   -1    0    0    0    0 -0.00000000000E+00 -0.00000000000E+00 -0.50000000000E+03  0.50000000000E+03  0.00000000000E+00 0.  1.
        -11    1    1    2    0    0  0.10358959547E+02  0.97622699589E+01  0.49369130410E+03  0.49389646050E+03  0.00000000000E+00 0.  1.
         11    1    1    2    0    0  0.57980732517E+01  0.43721778379E+01 -0.46742842114E+03  0.46748482594E+03  0.00000000000E+00 0.  1.
        -15    1    1    2    0    0 -0.17567676533E+02 -0.44993838937E+01 -0.19119456418E+02  0.26411721960E+02  0.17770000000E+01 0.  1.
         15    1    1    2    0    0  0.14106437342E+01 -0.96350639031E+01 -0.71434265344E+01  0.12206991596E+02  0.17770000000E+01 0. -1.
</event>
<event>
 6    1  0.2408691E-003  0.4889585E+03  0.7546771E-02  0.9424861E-01
        -11   -1    0    0    0    0  0.00000000000E+00  0.00000000000E+00  0.50000000000E+03  0.50000000000E+03  0.00000000000E+00 0.  1.
         11   -1    0    0    0    0 -0.00000000000E+00 -0.00000000000E+00 -0.50000000000E+03  0.50000000000E+03  0.00000000000E+00 0. -1.
        -11    1    1    2    0    0  0.83743049420E+01  0.49647468391E+01  0.48763459444E+03  0.48773176582E+03  0.00000000000E+00 0.  1.
         11    1    1    2    0    0  0.86210156010E+01  0.31862756196E+00 -0.49027479796E+03  0.49035069180E+03  0.00000000000E+00 0. -1.
        -15    1    1    2    0    0  0.22370201789E+00  0.16136562606E+01 -0.14864725724E+01  0.28321826969E+01  0.17770000000E+01 0. -1.
         15    1    1    2    0    0 -0.17219022561E+02 -0.68970306616E+01  0.41266760926E+01  0.19085359689E+02  0.17770000000E+01 0.  1.
</event>
<event>
 6    1  0.2408691E-003  0.5005616E+03  0.7546771E-02  0.9398554E-01
        -11   -1    0    0    0    0  0.00000000000E+00  0.00000000000E+00  0.50000000000E+03  0.50000000000E+03  0.00000000000E+00 0.  1.
         11   -1    0    0    0    0 -0.00000000000E+00 -0.00000000000E+00 -0.50000000000E+03  0.50000000000E+03  0.00000000000E+00 0.  1.
        -11    1    1    2    0    0 -0.40821175577E+01  0.66850974781E+01  0.49937695534E+03  0.49943838232E+03  0.00000000000E+00 0.  1.
         11    1    1    2    0    0 -0.22005101591E+01  0.67773003655E+01 -0.22323682729E+03  0.22335052071E+03  0.00000000000E+00 0.  1.
        -15    1    1    2    0    0  0.12383610106E+02 -0.11422587213E+02 -0.22508646258E+03  0.22572306631E+03  0.17770000000E+01 0.  1.
         15    1    1    2    0    0 -0.61009823894E+01 -0.20398106307E+01 -0.51053665475E+02  0.51488030657E+02  0.17770000000E+01 0. -1.
</event>
<event>
 6    1  0.2408691E-003  0.4392866E+03  0.7546771E-02  0.9546952E-01
        -11   -1    0    0    0    0  0.00000000000E+00  0.00000000000E+00  0.50000000000E+03  0.50000000000E+03  0.00000000000E+00 0. -1.
         11   -1    0    0    0    0 -0.00000000000E+00 -0.00000000000E+00 -0.50000000000E+03  0.50000000000E+03  0.00000000000E+00 0.  1.
        -11    1    1    2    0    0  0.19333769061E+02 -0.17485564343E+02  0.44319114792E+03  0.44395712989E+03  0.00000000000E+00 0. -1.
         11    1    1    2    0    0 -0.33022833949E+02 -0.36872631290E+02 -0.43363846295E+03  0.43645436766E+03  0.00000000000E+00 0.  1.
        -15    1    1    2    0    0  0.22040588108E+02  0.22921029322E+02 -0.55069303411E+02  0.63615619281E+02  0.17770000000E+01 0. -1.
         15    1    1    2    0    0 -0.83515232198E+01  0.31437166312E+02  0.45516618442E+02  0.55972883159E+02  0.17770000000E+01 0.  1.
</event>
<event>
 6    1  0.2408691E-003  0.5058469E+03  0.7546771E-02  0.9386821E-01
        -11   -1    0    0    0    0  0.00000000000E+00  0.00000000000E+00  0.50000000000E+03  0.50000000000E+03  0.00000000000E+00 0.  1.
         11   -1    0    0    0    0 -0.00000000000E+00 -0.00000000000E+00 -0.50000000000E+03  0.50000000000E+03  0.00000000000E+00 0.  1.
        -11    1    1    2    0    0  0.94999995907E+01 -0.18697943431E+02  0.36763832513E+03  0.36823606719E+03  0.00000000000E+00 0.  1.
         11    1    1    2    0    0  0.43602663854E+01  0.17216031008E+02 -0.49383390010E+03  0.49415313875E+03  0.00000000000E+00 0.  1.
        -15    1    1    2    0    0 -0.35584133429E+01  0.15750773254E+02  0.80169103502E+01  0.18115676752E+02  0.17770000000E+01 0. -1.
         15    1    1    2    0    0 -0.10301852633E+02 -0.14268860831E+02  0.11817866463E+03  0.11949511730E+03  0.17770000000E+01 0.  1.
</event>
<event>
 6    1  0.2408691E-003  0.5001395E+03  0.7546771E-02  0.9399498E-01
        -11   -1    0    0    0    0  0.00000000000E+00  0.00000000000E+00  0.50000000000E+03  0.50000000000E+03  0.00000000000E+00 0. -1.
         11   -1    0    0    0    0 -0.00000000000E+00 -0.00000000000E+00 -0.50000000000E+03  0.50000000000E+03  0.00000000000E+00 0. -1.
        -11    1    1    2    0    0  0.15175961447E+01 -0.49187692146E+01  0.24170112530E+03  0.24175593345E+03  0.00000000000E+00 0. -1.
         11    1    1    2    0    0 -0.11750618424E+01  0.91474905972E+01 -0.49977544680E+03  0.49986053513E+03  0.00000000000E+00 0. -1.
        -15    1    1    2    0    0 -0.81501166412E+00  0.30055934668E+01  0.15406308816E+03  0.15410480427E+03  0.17770000000E+01 0. -1.
         15    1    1    2    0    0  0.47247736177E+00 -0.72343148494E+01  0.10401123334E+03  0.10427872715E+03  0.17770000000E+01 0.  1.
</event>
<event>
 6    1  0.2408691E-003  0.5026421E+03  0.7546771E-02  0.9393917E-01
        -11   -1    0    0    0    0  0.00000000000E+00  0.00000000000E+00  0.50000000000E+03  0.50000000000E+03  0.00000000000E+00 0. -1.
         11   -1    0    0    0    0 -0.00000000000E+00 -0.00000000000E+00 -0.50000000000E+03  0.50000000000E+03  0.00000000000E+00 0. -1.
        -11    1    1    2    0    0  0.82743818953E+01 -0.12755448346E+01  0.49728745151E+03  0.49735792126E+03  0.00000000000E+00 0. -1.
         11    1    1    2    0    0 -0.28009725341E+01 -0.97013911418E+01 -0.32987564322E+03  0.33003015381E+03  0.00000000000E+00 0. -1.
        -15    1    1    2    0    0 -0.65793351402E+00  0.12029652143E+02 -0.16690395608E+03  0.16734764322E+03  0.17770000000E+01 0. -1.
         15    1    1    2    0    0 -0.48154758472E+01 -0.10527161668E+01 -0.50785221589E+00  0.52642817018E+01  0.17770000000E+01 0.  1.
</event>
<event>
 6    1  0.2408691E-003  0.5003172E+03  0.7546771E-02  0.9399100E-01
        -11   -1    0    0    0    0  0.00000000000E+00  0.00000000000E+00  0.50000000000E+03  0.50000000000E+03  0.00000000000E+00 0. -1.
         11   -1    0    0    0    0 -0.00000000000E+00 -0.00000000000E+00 -0.50000000000E+03  0.50000000000E+03  0.00000000000E+00 0. -1.
        -11    1    1    2    0    0  0.51245559814E+01 -0.77411344302E+01  0.49959651982E+03  0.49968276821E+03  0.00000000000E+00 0. -1.
         11    1    1    2    0    0  0.57947154557E-01 -0.52439790999E+01 -0.16918067830E+03  0.16926194074E+03  0.00000000000E+00 0. -1.
        -15    1    1    2    0    0 -0.59834885687E+00  0.27554385525E+01 -0.12493473553E+02  0.12930393397E+02  0.17770000000E+01 0.  1.
         15    1    1    2    0    0 -0.45841542791E+01  0.10229674978E+02 -0.31792236797E+03  0.31812489765E+03  0.17770000000E+01 0. -1.
</event>
<event>
 6    1  0.2408691E-003  0.4849895E+03  0.7546771E-02  0.9434038E-01
        -11   -1    0    0    0    0  0.00000000000E+00  0.00000000000E+00  0.50000000000E+03  0.50000000000E+03  0.00000000000E+00 0.  1.
         11   -1    0    0    0    0 -0.00000000000E+00 -0.00000000000E+00 -0.50000000000E+03  0.50000000000E+03  0.00000000000E+00 0. -1.
        -11    1    1    2    0    0  0.98758104003E+01 -0.20595345848E+02  0.48148631142E+03  0.48202776682E+03  0.00000000000E+00 0.  1.
         11    1    1    2    0    0 -0.81919050537E+01  0.84696709171E+01 -0.48790751887E+03  0.48804978189E+03  0.00000000000E+00 0. -1.
        -15    1    1    2    0    0 -0.37687701259E+01  0.14216839381E+01 -0.95418630699E+01  0.10508553341E+02  0.17770000000E+01 0.  1.
         15    1    1    2    0    0  0.20848647792E+01  0.10703990992E+02  0.15963070520E+02  0.19413897953E+02  0.17770000000E+01 0. -1.
</event>
<event>
 6    1  0.2408691E-003  0.5032540E+03  0.7546771E-02  0.9392558E-01
        -11   -1    0    0    0    0  0.00000000000E+00  0.00000000000E+00  0.50000000000E+03  0.50000000000E+03  0.00000000000E+00 0.  1.
         11   -1    0    0    0    0 -0.00000000000E+00 -0.00000000000E+00 -0.50000000000E+03  0.50000000000E+03  0.00000000000E+00 0. -1.
        -11    1    1    2    0    0 -0.69983157756E+01 -0.31639883965E+01  0.31294866676E+03  0.31304289686E+03  0.00000000000E+00 0.  1.
         11    1    1    2    0    0  0.10166695625E+02  0.13776433913E+02 -0.49645082575E+03  0.49674598561E+03  0.00000000000E+00 0. -1.
        -15    1    1    2    0    0  0.13262117615E+02 -0.14376953011E+02  0.16018412051E+03  0.16138367555E+03  0.17770000000E+01 0.  1.
         15    1    1    2    0    0 -0.16430497465E+02  0.37645074949E+01  0.23318038474E+02  0.28827441977E+02  0.17770000000E+01 0. -1.
</event>
<event>
 6    1  0.2408691E-003  0.5518599E+03  0.7546771E-02  0.9290706E-01
        -11   -1    0    0    0    0  0.00000000000E+00  0.00000000000E+00  0.50000000000E+03  0.50000000000E+03  0.00000000000E+00 0.  1.
         11   -1    0    0    0    0 -0.00000000000E+00 -0.00000000000E+00 -0.50000000000E+03  0.50000000000E+03  0.00000000000E+00 0.  1.
        -11    1    1    2    0    0  0.69822230263E+01 -0.49825972507E+01  0.44805796915E+03  0.44814006899E+03  0.00000000000E+00 0.  1.
         11    1    1    2    0    0 -0.11453949745E+02 -0.16938611867E+02 -0.39880195172E+03  0.39932581464E+03  0.00000000000E+00 0.  1.
        -15    1    1    2    0    0  0.12695055420E+02  0.17515386096E+02 -0.99275753862E+02  0.10162079618E+03  0.17770000000E+01 0. -1.
         15    1    1    2    0    0 -0.82233287020E+01  0.44058230212E+01  0.50019736434E+02  0.50913320196E+02  0.17770000000E+01 0. -1.
</event>
<event>
 6    1  0.2408691E-003  0.5013140E+03  0.7546771E-02  0.9396874E-01
        -11   -1    0    0    0    0  0.00000000000E+00  0.00000000000E+00  0.50000000000E+03  0.50000000000E+03  0.00000000000E+00 0. -1.
         11   -1    0    0    0    0 -0.00000000000E+00 -0.00000000000E+00 -0.50000000000E+03  0.50000000000E+03  0.00000000000E+00 0. -1.
        -11    1    1    2    0    0 -0.45332804576E+00 -0.11580217701E+02  0.31240459592E+03  0.31261947876E+03  0.00000000000E+00 0. -1.
         11    1    1    2    0    0  0.81482392562E+00  0.71929881520E+01 -0.49863341232E+03  0.49868595619E+03  0.00000000000E+00 0. -1.
        -15    1    1    2    0    0  0.30695034077E+01  0.83167850641E+01  0.18056792566E+03  0.18079414888E+03  0.17770000000E+01 0. -1.
         15    1    1    2    0    0 -0.34309992876E+01 -0.39295555155E+01  0.56608907498E+01  0.79004161753E+01  0.17770000000E+01 0. -1.
</event>
<event>
 6    1  0.2408691E-003  0.2750783E+03  0.7546771E-02  0.1012058E+00
        -11   -1    0    0    0    0  0.00000000000E+00  0.00000000000E+00  0.50000000000E+03  0.50000000000E+03  0.00000000000E+00 0.  1.
         11   -1    0    0    0    0 -0.00000000000E+00 -0.00000000000E+00 -0.50000000000E+03  0.50000000000E+03  0.00000000000E+00 0. -1.
        -11    1    1    2    0    0  0.94430379961E+01  0.43826057619E+01  0.28148417148E+03  0.28167661776E+03  0.00000000000E+00 0.  1.
         11    1    1    2    0    0 -0.33595728564E+01 -0.43264515424E+01 -0.34761189754E+03  0.34765505350E+03  0.00000000000E+00 0. -1.
        -15    1    1    2    0    0  0.30091168968E+01  0.18431611187E+02 -0.15119980630E+03  0.15235917508E+03  0.17770000000E+01 0.  1.
         15    1    1    2    0    0 -0.90925820365E+01 -0.18487765406E+02  0.21732753236E+03  0.21830915366E+03  0.17770000000E+01 0. -1.
</event>
<event>
 6    1  0.2408691E-003  0.5003404E+03  0.7546771E-02  0.9399048E-01
        -11   -1    0    0    0    0  0.00000000000E+00  0.00000000000E+00  0.50000000000E+03  0.50000000000E+03  0.00000000000E+00 0.  1.
         11   -1    0    0    0    0 -0.00000000000E+00 -0.00000000000E+00 -0.50000000000E+03  0.50000000000E+03  0.00000000000E+00 0. -1.
        -11    1    1    2    0    0 -0.18462444378E+01 -0.10558206516E+01  0.11145199013E+03  0.11147228122E+03  0.00000000000E+00 0.  1.
         11    1    1    2    0    0  0.10225593953E+02  0.10818191821E+02 -0.49943775610E+03  0.49965955236E+03  0.00000000000E+00 0. -1.
        -15    1    1    2    0    0 -0.11812097046E+02 -0.11294462995E+02  0.37158737647E+03  0.37195083897E+03  0.17770000000E+01 0.  1.
         15    1    1    2    0    0  0.34327475299E+01  0.15320918255E+01  0.16398389496E+02  0.16917327449E+02  0.17770000000E+01 0. -1.
</event>
<event>
 6    1  0.2408691E-003  0.5043263E+03  0.7546771E-02  0.9390181E-01
        -11   -1    0    0    0    0  0.00000000000E+00  0.00000000000E+00  0.50000000000E+03  0.50000000000E+03  0.00000000000E+00 0.  1.
         11   -1    0    0    0    0 -0.00000000000E+00 -0.00000000000E+00 -0.50000000000E+03  0.50000000000E+03  0.00000000000E+00 0.  1.
        -11    1    1    2    0    0  0.55599190256E+01 -0.41922872102E+01  0.49562478941E+03  0.49567370301E+03  0.00000000000E+00 0.  1.
         11    1    1    2    0    0 -0.67169154311E+01 -0.75571643496E+01 -0.32066302196E+03  0.32082238285E+03  0.00000000000E+00 0.  1.
        -15    1    1    2    0    0  0.14190604164E+02  0.29686381288E+02 -0.11078723239E+03  0.11558383568E+03  0.17770000000E+01 0.  1.
         15    1    1    2    0    0 -0.13033607758E+02 -0.17936929728E+02 -0.64174535069E+02  0.67920078471E+02  0.17770000000E+01 0. -1.
</event>
<event>
 6    1  0.2408691E-003  0.5021883E+03  0.7546771E-02  0.9394927E-01
        -11   -1    0    0    0    0  0.00000000000E+00  0.00000000000E+00  0.50000000000E+03  0.50000000000E+03  0.00000000000E+00 0. -1.
         11   -1    0    0    0    0 -0.00000000000E+00 -0.00000000000E+00 -0.50000000000E+03  0.50000000000E+03  0.00000000000E+00 0.  1.
        -11    1    1    2    0    0 -0.82219990485E+01 -0.23398504806E+02  0.49719355357E+03  0.49781173250E+03  0.00000000000E+00 0. -1.
         11    1    1    2    0    0 -0.31794896706E+00  0.21863607266E+01 -0.13226246195E+03  0.13228091361E+03  0.00000000000E+00 0.  1.
        -15    1    1    2    0    0  0.38041981341E+01  0.24261534137E+02 -0.59161038340E+02  0.64080263331E+02  0.17770000000E+01 0.  1.
         15    1    1    2    0    0  0.47357498815E+01 -0.30493900576E+01 -0.30577005329E+03  0.30582709056E+03  0.17770000000E+01 0. -1.
</event>
<event>
 6    1  0.2408691E-003  0.5009102E+03  0.7546771E-02  0.9397775E-01
        -11   -1    0    0    0    0  0.00000000000E+00  0.00000000000E+00  0.50000000000E+03  0.50000000000E+03  0.00000000000E+00 0.  1.
         11   -1    0    0    0    0 -0.00000000000E+00 -0.00000000000E+00 -0.50000000000E+03  0.50000000000E+03  0.00000000000E+00 0. -1.
        -11    1    1    2    0    0  0.96885503776E+01  0.43804066700E+01  0.28500151334E+03  0.28519978713E+03  0.00000000000E+00 0.  1.
         11    1    1    2    0    0 -0.23328472586E+02 -0.28540977455E+01 -0.49853613012E+03  0.49908980809E+03  0.00000000000E+00 0. -1.
        -15    1    1    2    0    0 -0.72742519802E+01  0.30011134674E+01  0.86345217480E+02  0.86721253073E+02  0.17770000000E+01 0.  1.
         15    1    1    2    0    0  0.20914174188E+02 -0.45274223919E+01  0.12718939930E+03  0.12898915171E+03  0.17770000000E+01 0. -1.
</event>
<event>
 6    1  0.2408691E-003  0.4801900E+03  0.7546771E-02  0.9445261E-01
        -11   -1    0    0    0    0  0.00000000000E+00  0.00000000000E+00  0.50000000000E+03  0.50000000000E+03  0.00000000000E+00 0.  1.
         11   -1    0    0    0    0 -0.00000000000E+00 -0.00000000000E+00 -0.50000000000E+03  0.50000000000E+03  0.00000000000E+00 0.  1.
        -11    1    1    2    0    0  0.14955124419E+02 -0.18147964479E+01  0.47837147338E+03  0.47860862485E+03  0.00000000000E+00 0.  1.
         11    1    1    2    0    0  0.19967786327E+01  0.77224217150E+01 -0.48187948140E+03  0.48194549227E+03  0.00000000000E+00 0.  1.
        -15    1    1    2    0    0 -0.89866523954E+01 -0.59179786034E+01 -0.15389155671E+02  0.18861766442E+02  0.17770000000E+01 0. -1.
         15    1    1    2    0    0 -0.79652506559E+01  0.10353336249E-01  0.18897163690E+02  0.20584116442E+02  0.17770000000E+01 0.  1.
</event>
<event>
 6    1  0.2408691E-003  0.5074889E+03  0.7546771E-02  0.9383207E-01
        -11   -1    0    0    0    0  0.00000000000E+00  0.00000000000E+00  0.50000000000E+03  0.50000000000E+03  0.00000000000E+00 0. -1.
         11   -1    0    0    0    0 -0.00000000000E+00 -0.00000000000E+00 -0.50000000000E+03  0.50000000000E+03  0.00000000000E+00 0. -1.
        -11    1    1    2    0    0 -0.20011036259E+02 -0.36269425370E+02  0.49076600116E+03  0.49251109702E+03  0.00000000000E+00 0. -1.
         11    1    1    2    0    0 -0.46894810247E+01  0.22680239068E+02 -0.38308775388E+03  0.38378719579E+03  0.00000000000E+00 0. -1.
        -15    1    1    2    0    0  0.13614294700E+02  0.31605976466E+02 -0.40123364731E+02  0.52889780628E+02  0.17770000000E+01 0. -1.
         15    1    1    2    0    0  0.11086222584E+02 -0.18016790164E+02 -0.67554882550E+02  0.70811926568E+02  0.17770000000E+01 0.  1.
</event>
<event>
 6    1  0.2408691E-003  0.5100811E+03  0.7546771E-02  0.9377531E-01
        -11   -1    0    0    0    0  0.00000000000E+00  0.00000000000E+00  0.50000000000E+03  0.50000000000E+03  0.00000000000E+00 0. -1.
         11   -1    0    0    0    0 -0.00000000000E+00 -0.00000000000E+00 -0.50000000000E+03  0.50000000000E+03  0.00000000000E+00 0.  1.
        -11    1    1    2    0    0 -0.23568089312E+01 -0.78371178438E+01  0.48985052811E+03  0.48991888600E+03  0.00000000000E+00 0. -1.
         11    1    1    2    0    0  0.21787199696E+02  0.35176541037E+01 -0.43582347815E+03  0.43638189705E+03  0.00000000000E+00 0.  1.
        -15    1    1    2    0    0 -0.99739100876E+00  0.32607764624E+01  0.80441018499E+01  0.89158709913E+01  0.17770000000E+01 0. -1.
         15    1    1    2    0    0 -0.18432999756E+02  0.10586872776E+01 -0.62071151810E+02  0.64783345967E+02  0.17770000000E+01 0.  1.
</event>
<event>
 6    1  0.2408691E-003  0.5201409E+03  0.7546771E-02  0.9355837E-01
        -11   -1    0    0    0    0  0.00000000000E+00  0.00000000000E+00  0.50000000000E+03  0.50000000000E+03  0.00000000000E+00 0. -1.
         11   -1    0    0    0    0 -0.00000000000E+00 -0.00000000000E+00 -0.50000000000E+03  0.50000000000E+03  0.00000000000E+00 0.  1.
        -11    1    1    2    0    0  0.11394763429E+01 -0.12261056436E+02  0.44406931055E+03  0.44424000775E+03  0.00000000000E+00 0. -1.
         11    1    1    2    0    0 -0.34632100549E+02 -0.83389942325E+01 -0.47853513332E+03  0.47985914083E+03  0.00000000000E+00 0.  1.
        -15    1    1    2    0    0  0.41886651539E+02  0.18929667507E+02  0.63236786824E+01  0.46432429725E+02  0.17770000000E+01 0. -1.
         15    1    1    2    0    0 -0.83940273324E+01  0.16703831612E+01  0.28142144084E+02  0.29468421698E+02  0.17770000000E+01 0.  1.
</event>
<event>
 6    1  0.2408691E-003  0.5002038E+03  0.7546771E-02  0.9399354E-01
        -11   -1    0    0    0    0  0.00000000000E+00  0.00000000000E+00  0.50000000000E+03  0.50000000000E+03  0.00000000000E+00 0. -1.
         11   -1    0    0    0    0 -0.00000000000E+00 -0.00000000000E+00 -0.50000000000E+03  0.50000000000E+03  0.00000000000E+00 0. -1.
        -11    1    1    2    0    0 -0.32167746064E+01  0.22170302344E+01  0.14589551056E+03  0.14594780870E+03  0.00000000000E+00 0. -1.
         11    1    1    2    0    0 -0.54537481870E+01  0.39818717884E+01 -0.49975056705E+03  0.49979618640E+03  0.00000000000E+00 0. -1.
        -15    1    1    2    0    0  0.87249118396E+01 -0.18766983826E+01  0.31336923296E+03  0.31350132372E+03  0.17770000000E+01 0. -1.
         15    1    1    2    0    0 -0.54389046257E-01 -0.43222036402E+01  0.40485823527E+02  0.40754681180E+02  0.17770000000E+01 0.  1.
</event>
<event>
 6    1  0.2408691E-003  0.5001824E+03  0.7546771E-02  0.9399402E-01
        -11   -1    0    0    0    0  0.00000000000E+00  0.00000000000E+00  0.50000000000E+03  0.50000000000E+03  0.00000000000E+00 0.  1.
         11   -1    0    0    0    0 -0.00000000000E+00 -0.00000000000E+00 -0.50000000000E+03  0.50000000000E+03  0.00000000000E+00 0.  1.
        -11    1    1    2    0    0  0.53321202240E+01 -0.66775062055E+01  0.49974459196E+03  0.49981764454E+03  0.00000000000E+00 0.  1.
         11    1    1    2    0    0  0.18842842523E+01  0.11204261195E+01 -0.11374657739E+03  0.11376770082E+03  0.00000000000E+00 0.  1.
        -15    1    1    2    0    0 -0.45557528947E+01  0.35524341916E+01 -0.36675133162E+03  0.36680113365E+03  0.17770000000E+01 0.  1.
         15    1    1    2    0    0 -0.26606515816E+01  0.20046458945E+01 -0.19246682950E+02  0.19613520989E+02  0.17770000000E+01 0. -1.
</event>
<event>
 6    1  0.2408691E-003  0.5441157E+03  0.7546771E-02  0.9306171E-01
        -11   -1    0    0    0    0  0.00000000000E+00  0.00000000000E+00  0.50000000000E+03  0.50000000000E+03  0.00000000000E+00 0.  1.
         11   -1    0    0    0    0 -0.00000000000E+00 -0.00000000000E+00 -0.50000000000E+03  0.50000000000E+03  0.00000000000E+00 0. -1.
        -11    1    1    2    0    0  0.32703398054E+02  0.10189616513E+02  0.18967842600E+03  0.19274658445E+03  0.00000000000E+00 0.  1.
         11    1    1    2    0    0  0.63368718309E+02 -0.29226555769E+02 -0.45051156916E+03  0.45588426160E+03  0.00000000000E+00 0. -1.
        -15    1    1    2    0    0  0.49131358606E+01  0.19698933517E+02  0.24882109511E+03  0.24965432499E+03  0.17770000000E+01 0.  1.
         15    1    1    2    0    0 -0.10098525222E+03 -0.66199426160E+00  0.12012048056E+02  0.10171482896E+03  0.17770000000E+01 0. -1.
</event>
<event>
 6    1  0.2408691E-003  0.5005173E+03  0.7546771E-02  0.9398653E-01
        -11   -1    0    0    0    0  0.00000000000E+00  0.00000000000E+00  0.50000000000E+03  0.50000000000E+03  0.00000000000E+00 0. -1.
         11   -1    0    0    0    0 -0.00000000000E+00 -0.00000000000E+00 -0.50000000000E+03  0.50000000000E+03  0.00000000000E+00 0. -1.
        -11    1    1    2    0    0  0.70542629551E+00  0.76341964259E+01  0.16788682933E+03  0.16806179233E+03  0.00000000000E+00 0. -1.
         11    1    1    2    0    0  0.97826109411E+01 -0.55848806053E+01 -0.49935570806E+03  0.49948274598E+03  0.00000000000E+00 0. -1.
        -15    1    1    2    0    0 -0.60926537160E+01  0.15150301171E+01  0.22432339333E+02  0.23362005961E+02  0.17770000000E+01 0.  1.
         15    1    1    2    0    0 -0.43953835205E+01 -0.35643459377E+01  0.30903653940E+03  0.30909345572E+03  0.17770000000E+01 0. -1.
</event>
<event>
 6    1  0.2408691E-003  0.5031620E+03  0.7546771E-02  0.9392762E-01
        -11   -1    0    0    0    0  0.00000000000E+00  0.00000000000E+00  0.50000000000E+03  0.50000000000E+03  0.00000000000E+00 0. -1.
         11   -1    0    0    0    0 -0.00000000000E+00 -0.00000000000E+00 -0.50000000000E+03  0.50000000000E+03  0.00000000000E+00 0. -1.
        -11    1    1    2    0    0 -0.25071976383E+01 -0.93299221382E+01  0.49674408234E+03  0.49683801870E+03  0.00000000000E+00 0. -1.
         11    1    1    2    0    0 -0.14742085555E+02  0.43097505506E+01 -0.30744703239E+03  0.30783044158E+03  0.00000000000E+00 0. -1.
        -15    1    1    2    0    0  0.59639281771E+01 -0.38164426436E+01 -0.21250349066E+01  0.76031030578E+01  0.17770000000E+01 0.  1.
         15    1    1    2    0    0  0.11285355016E+02  0.88366142313E+01 -0.18717201504E+03  0.18772843666E+03  0.17770000000E+01 0. -1.
</event>
<event>
 6    1  0.2408691E-003  0.5027332E+03  0.7546771E-02  0.9393715E-01
        -11   -1    0    0    0    0  0.00000000000E+00  0.00000000000E+00  0.50000000000E+03  0.50000000000E+03  0.00000000000E+00 0. -1.
         11   -1    0    0    0    0 -0.00000000000E+00 -0.00000000000E+00 -0.50000000000E+03  0.50000000000E+03  0.00000000000E+00 0.  1.
        -11    1    1    2    0    0  0.17414948535E+02  0.88916043615E+01  0.40772858816E+03  0.40819718600E+03  0.00000000000E+00 0. -1.
         11    1    1    2    0    0 -0.63191752296E+01 -0.29279403848E+01 -0.49721807144E+03  0.49726684524E+03  0.00000000000E+00 0.  1.
        -15    1    1    2    0    0  0.67648405851E+01 -0.46184787621E+01  0.10066801227E+02  0.13099298843E+02  0.17770000000E+01 0.  1.
         15    1    1    2    0    0 -0.17860613891E+02 -0.13451852146E+01  0.79422682059E+02  0.81436669912E+02  0.17770000000E+01 0. -1.
</event>
<event>
 6    1  0.2408691E-003  0.5025812E+03  0.7546771E-02  0.9394053E-01
        -11   -1    0    0    0    0  0.00000000000E+00  0.00000000000E+00  0.50000000000E+03  0.50000000000E+03  0.00000000000E+00 0.  1.
         11   -1    0    0    0    0 -0.00000000000E+00 -0.00000000000E+00 -0.50000000000E+03  0.50000000000E+03  0.00000000000E+00 0.  1.
        -11    1    1    2    0    0  0.99032604650E+01  0.17799426065E+02  0.49700157618E+03  0.49741879825E+03  0.00000000000E+00 0.  1.
         11    1    1    2    0    0 -0.35861028218E+01  0.10234968526E+02 -0.40771708054E+03  0.40786129073E+03  0.00000000000E+00 0.  1.
        -15    1    1    2    0    0  0.19591595261E+01 -0.16264332586E+01 -0.17339452417E+02  0.17615275482E+02  0.17770000000E+01 0.  1.
         15    1    1    2    0    0 -0.82763171692E+01 -0.26407961332E+02 -0.71945043218E+02  0.77104635530E+02  0.17770000000E+01 0. -1.
</event>
<event>
 6    1  0.2408691E-003  0.5041358E+03  0.7546771E-02  0.9390603E-01
        -11   -1    0    0    0    0  0.00000000000E+00  0.00000000000E+00  0.50000000000E+03  0.50000000000E+03  0.00000000000E+00 0.  1.
         11   -1    0    0    0    0 -0.00000000000E+00 -0.00000000000E+00 -0.50000000000E+03  0.50000000000E+03  0.00000000000E+00 0.  1.
        -11    1    1    2    0    0  0.19931946035E+01 -0.46645932955E+01  0.35933256047E+03  0.35936836292E+03  0.00000000000E+00 0.  1.
         11    1    1    2    0    0  0.19657559709E+01  0.17967644722E+02 -0.49553462450E+03  0.49586415935E+03  0.00000000000E+00 0.  1.
        -15    1    1    2    0    0 -0.97954942064E+01 -0.25467747572E+00  0.12760440085E+03  0.12799241154E+03  0.17770000000E+01 0. -1.
         15    1    1    2    0    0  0.58365436320E+01 -0.13048373951E+02  0.85976631840E+01  0.16775066186E+02  0.17770000000E+01 0.  1.
</event>
<event>
 6    1  0.2408691E-003  0.5162692E+03  0.7546771E-02  0.9364124E-01
        -11   -1    0    0    0    0  0.00000000000E+00  0.00000000000E+00  0.50000000000E+03  0.50000000000E+03  0.00000000000E+00 0.  1.
         11   -1    0    0    0    0 -0.00000000000E+00 -0.00000000000E+00 -0.50000000000E+03  0.50000000000E+03  0.00000000000E+00 0. -1.
        -11    1    1    2    0    0  0.16578196770E+01 -0.14538251036E+02  0.45410893602E+03  0.45434462127E+03  0.00000000000E+00 0.  1.
         11    1    1    2    0    0 -0.13194934272E+02 -0.33285804468E+01 -0.48353936470E+03  0.48373081663E+03  0.00000000000E+00 0. -1.
        -15    1    1    2    0    0  0.13676043719E+02  0.11529284044E+02 -0.10888422280E+02  0.21016042233E+02  0.17770000000E+01 0.  1.
         15    1    1    2    0    0 -0.21389291232E+01  0.63375474387E+01  0.40318850968E+02  0.40908519867E+02  0.17770000000E+01 0. -1.
</event>
<event>
 6    1  0.2408691E-003  0.5159486E+03  0.7546771E-02  0.9364814E-01
        -11   -1    0    0    0    0  0.00000000000E+00  0.00000000000E+00  0.50000000000E+03  0.50000000000E+03  0.00000000000E+00 0.  1.
         11   -1    0    0    0    0 -0.00000000000E+00 -0.00000000000E+00 -0.50000000000E+03  0.50000000000E+03  0.00000000000E+00 0. -1.
        -11    1    1    2    0    0  0.64020278071E+01 -0.91363458033E+01  0.39765050049E+03  0.39780696237E+03  0.00000000000E+00 0.  1.
         11    1    1    2    0    0 -0.39946575315E+02 -0.37591554289E+02 -0.48093331986E+03  0.48405135263E+03  0.00000000000E+00 0. -1.
        -15    1    1    2    0    0  0.28975978795E+02  0.18497626343E+02  0.82594612802E+02  0.89480709208E+02  0.17770000000E+01 0.  1.
         15    1    1    2    0    0  0.45685687130E+01  0.28230273749E+02  0.68820656855E+00  0.28660975791E+02  0.17770000000E+01 0. -1.
</event>
<event>
 6    1  0.2408691E-003  0.5259384E+03  0.7546771E-02  0.9343571E-01
        -11   -1    0    0    0    0  0.00000000000E+00  0.00000000000E+00  0.50000000000E+03  0.50000000000E+03  0.00000000000E+00 0.  1.
         11   -1    0    0    0    0 -0.00000000000E+00 -0.00000000000E+00 -0.50000000000E+03  0.50000000000E+03  0.00000000000E+00 0. -1.
        -11    1    1    2    0    0  0.33383923097E+02  0.40696693521E+01  0.39460521946E+03  0.39603576575E+03  0.00000000000E+00 0.  1.
         11    1    1    2    0    0 -0.84954969695E+01  0.57987547034E+02 -0.47042502415E+03  0.47406163357E+03  0.00000000000E+00 0. -1.
        -15    1    1    2    0    0 -0.18479944895E+02 -0.48879707622E+02  0.93343840360E+02  0.10699048763E+03  0.17770000000E+01 0. -1.
         15    1    1    2    0    0 -0.64084812322E+01 -0.13177508764E+02 -0.17524035674E+02  0.22912113046E+02  0.17770000000E+01 0.  1.
</event>
<event>
 6    1  0.4509550E-003  0.5474587E+03  0.7546771E-02  0.9299462E-01
        -11   -1    0    0    0    0  0.00000000000E+00  0.00000000000E+00  0.50000000000E+03  0.50000000000E+03  0.00000000000E+00 0. -1.
         11   -1    0    0    0    0 -0.00000000000E+00 -0.00000000000E+00 -0.50000000000E+03  0.50000000000E+03  0.00000000000E+00 0. -1.
        -11    1    1    2    0    0 -0.97660653532E+01  0.24897018600E+02  0.45175032213E+03  0.45254125902E+03  0.00000000000E+00 0. -1.
         11    1    1    2    0    0  0.25143427020E+02 -0.17136448432E+02 -0.42573729242E+03  0.42682325610E+03  0.00000000000E+00 0. -1.
        -15    1    1    2    0    0  0.85817921078E+01 -0.10459287357E+02  0.44262270680E+02  0.46317925067E+02  0.17770000000E+01 0.  1.
         15    1    1    2    0    0 -0.23959153775E+02  0.26987171886E+01 -0.70275300385E+02  0.74317559817E+02  0.17770000000E+01 0. -1.
</event>
<event>
 6    1  0.2408691E-003  0.5091128E+03  0.7546771E-02  0.9379647E-01
        -11   -1    0    0    0    0  0.00000000000E+00  0.00000000000E+00  0.50000000000E+03  0.50000000000E+03  0.00000000000E+00 0.  1.
         11   -1    0    0    0    0 -0.00000000000E+00 -0.00000000000E+00 -0.50000000000E+03  0.50000000000E+03  0.00000000000E+00 0.  1.
        -11    1    1    2    0    0 -0.10266023290E+02  0.99737749594E+01  0.49067847940E+03  0.49088719434E+03  0.00000000000E+00 0.  1.
         11    1    1    2    0    0 -0.81749991207E+01 -0.96765770909E+00 -0.45667656956E+03  0.45675075934E+03  0.00000000000E+00 0.  1.
        -15    1    1    2    0    0  0.12835864989E+02 -0.78008602553E+01  0.25343520953E+01  0.15336020353E+02  0.17770000000E+01 0.  1.
         15    1    1    2    0    0  0.56051574218E+01 -0.12052569950E+01 -0.36536261928E+02  0.37026025966E+02  0.17770000000E+01 0. -1.
</event>
<event>
 6    1  0.2408691E-003  0.5009205E+03  0.7546771E-02  0.9397752E-01
        -11   -1    0    0    0    0  0.00000000000E+00  0.00000000000E+00  0.50000000000E+03  0.50000000000E+03  0.00000000000E+00 0. -1.
         11   -1    0    0    0    0 -0.00000000000E+00 -0.00000000000E+00 -0.50000000000E+03  0.50000000000E+03  0.00000000000E+00 0.  1.
        -11    1    1    2    0    0  0.22206707083E+01 -0.51716063285E+01  0.31343012651E+03  0.31348065506E+03  0.00000000000E+00 0. -1.
         11    1    1    2    0    0 -0.74221725603E+01 -0.19376555456E+01 -0.49902058711E+03  0.49907954227E+03  0.00000000000E+00 0.  1.
        -15    1    1    2    0    0  0.21357941417E+01  0.55376599674E+01  0.97200770773E+01  0.11526704729E+02  0.17770000000E+01 0.  1.
         15    1    1    2    0    0  0.30657077103E+01  0.15716019068E+01  0.17587038352E+03  0.17591309794E+03  0.17770000000E+01 0. -1.
</event>
<event>
 6    1  0.2408691E-003  0.5123236E+03  0.7546771E-02  0.9372649E-01
        -11   -1    0    0    0    0  0.00000000000E+00  0.00000000000E+00  0.50000000000E+03  0.50000000000E+03  0.00000000000E+00 0.  1.
         11   -1    0    0    0    0 -0.00000000000E+00 -0.00000000000E+00 -0.50000000000E+03  0.50000000000E+03  0.00000000000E+00 0. -1.
        -11    1    1    2    0    0  0.97057861432E+01  0.15741105405E+02  0.43187694761E+03  0.43227269468E+03  0.00000000000E+00 0.  1.
         11    1    1    2    0    0 -0.52297280136E+00 -0.29430877942E+02 -0.48678721935E+03  0.48767637528E+03  0.00000000000E+00 0. -1.
        -15    1    1    2    0    0 -0.28147339157E+02  0.43139713989E+01  0.97534050787E+01  0.30152440871E+02  0.17770000000E+01 0. -1.
         15    1    1    2    0    0  0.18964525815E+02  0.93758011387E+01  0.45156866663E+02  0.49898489177E+02  0.17770000000E+01 0.  1.
</event>
<event>
 6    1  0.2408691E-003  0.5151584E+03  0.7546771E-02  0.9366516E-01
        -11   -1    0    0    0    0  0.00000000000E+00  0.00000000000E+00  0.50000000000E+03  0.50000000000E+03  0.00000000000E+00 0. -1.
         11   -1    0    0    0    0 -0.00000000000E+00 -0.00000000000E+00 -0.50000000000E+03  0.50000000000E+03  0.00000000000E+00 0.  1.
        -11    1    1    2    0    0 -0.11351276346E+02  0.43732108652E+01  0.48468898314E+03  0.48484161004E+03  0.00000000000E+00 0. -1.
         11    1    1    2    0    0  0.29621013997E+01 -0.75694532495E+01 -0.44611396043E+03  0.44618800561E+03  0.00000000000E+00 0.  1.
        -15    1    1    2    0    0  0.12959865978E+01  0.87915879702E+01 -0.51948870332E+02  0.52733428280E+02  0.17770000000E+01 0.  1.
         15    1    1    2    0    0  0.70931883482E+01 -0.55953455859E+01  0.13373847619E+02  0.16236956066E+02  0.17770000000E+01 0. -1.
</event>
<event>
 6    1  0.2408691E-003  0.4806537E+03  0.7546771E-02  0.9444170E-01
        -11   -1    0    0    0    0  0.00000000000E+00  0.00000000000E+00  0.50000000000E+03  0.50000000000E+03  0.00000000000E+00 0.  1.
         11   -1    0    0    0    0 -0.00000000000E+00 -0.00000000000E+00 -0.50000000000E+03  0.50000000000E+03  0.00000000000E+00 0.  1.
        -11    1    1    2    0    0  0.10832471622E+02 -0.14714819325E+02  0.48024527542E+03  0.48059275162E+03  0.00000000000E+00 0.  1.
         11    1    1    2    0    0 -0.12521991221E+02 -0.56087836605E+01 -0.48073528095E+03  0.48093104399E+03  0.00000000000E+00 0.  1.
        -15    1    1    2    0    0 -0.77578688154E+01  0.13649243751E+02  0.13639649807E+02  0.20873048636E+02  0.17770000000E+01 0. -1.
         15    1    1    2    0    0  0.94473884149E+01  0.66743592348E+01 -0.13149644271E+02  0.17603155755E+02  0.17770000000E+01 0.  1.
</event>
<event>
 6    1  0.2408691E-003  0.4140616E+03  0.7546771E-02  0.9615742E-01
        -11   -1    0    0    0    0  0.00000000000E+00  0.00000000000E+00  0.50000000000E+03  0.50000000000E+03  0.00000000000E+00 0. -1.
         11   -1    0    0    0    0 -0.00000000000E+00 -0.00000000000E+00 -0.50000000000E+03  0.50000000000E+03  0.00000000000E+00 0.  1.
        -11    1    1    2    0    0  0.14552588798E+02 -0.53057472696E+02  0.40017018272E+03  0.40393446051E+03  0.00000000000E+00 0. -1.
         11    1    1    2    0    0 -0.44566122788E+02  0.36152724724E+02 -0.42128327196E+03  0.42517379274E+03  0.00000000000E+00 0.  1.
        -15    1    1    2    0    0  0.85424073076E+01  0.29671223002E+02 -0.69931798317E+02  0.76465471567E+02  0.17770000000E+01 0.  1.
         15    1    1    2    0    0  0.21471126683E+02 -0.12766475030E+02  0.91044887551E+02  0.94426275178E+02  0.17770000000E+01 0. -1.
</event>
<event>
 6    1  0.2408691E-003  0.5048390E+03  0.7546771E-02  0.9389047E-01
        -11   -1    0    0    0    0  0.00000000000E+00  0.00000000000E+00  0.50000000000E+03  0.50000000000E+03  0.00000000000E+00 0.  1.
         11   -1    0    0    0    0 -0.00000000000E+00 -0.00000000000E+00 -0.50000000000E+03  0.50000000000E+03  0.00000000000E+00 0.  1.
        -11    1    1    2    0    0  0.69420397013E+00 -0.78219036241E+01  0.48642773178E+03  0.48649111230E+03  0.00000000000E+00 0.  1.
         11    1    1    2    0    0  0.36072738002E+01  0.57746705398E+01 -0.49511421792E+03  0.49516103242E+03  0.00000000000E+00 0.  1.
        -15    1    1    2    0    0 -0.33022496747E+01 -0.16032583594E+01  0.12214321957E+02  0.12877215543E+02  0.17770000000E+01 0. -1.
         15    1    1    2    0    0 -0.99922809565E+00  0.36504914437E+01 -0.35278358254E+01  0.54706397413E+01  0.17770000000E+01 0.  1.
</event>
<event>
 6    1  0.2408691E-003  0.5365299E+03  0.7546771E-02  0.9321588E-01
        -11   -1    0    0    0    0  0.00000000000E+00  0.00000000000E+00  0.50000000000E+03  0.50000000000E+03  0.00000000000E+00 0.  1.
         11   -1    0    0    0    0 -0.00000000000E+00 -0.00000000000E+00 -0.50000000000E+03  0.50000000000E+03  0.00000000000E+00 0.  1.
        -11    1    1    2    0    0  0.11631893320E+02 -0.45550362382E+01  0.42034235558E+03  0.42052793628E+03  0.00000000000E+00 0.  1.
         11    1    1    2    0    0  0.28826056570E+02 -0.19488356325E+02 -0.46216205777E+03  0.46347006938E+03  0.00000000000E+00 0.  1.
        -15    1    1    2    0    0 -0.10149904181E+02 -0.90684567990E+01  0.64313189537E+02  0.65761702692E+02  0.17770000000E+01 0.  1.
         15    1    1    2    0    0 -0.30308045708E+02  0.33111849362E+02 -0.22493487348E+02  0.50240291648E+02  0.17770000000E+01 0. -1.
</event>
<event>
 6    1  0.2408691E-003  0.5078148E+03  0.7546771E-02  0.9382491E-01
        -11   -1    0    0    0    0  0.00000000000E+00  0.00000000000E+00  0.50000000000E+03  0.50000000000E+03  0.00000000000E+00 0. -1.
         11   -1    0    0    0    0 -0.00000000000E+00 -0.00000000000E+00 -0.50000000000E+03  0.50000000000E+03  0.00000000000E+00 0. -1.
        -11    1    1    2    0    0  0.72793514325E+01  0.96648585248E-01  0.43398308373E+03  0.43404413976E+03  0.00000000000E+00 0. -1.
         11    1    1    2    0    0  0.67008277684E+01 -0.17146651324E+02 -0.49184077801E+03  0.49218518837E+03  0.00000000000E+00 0. -1.
        -15    1    1    2    0    0 -0.59975371187E+01  0.20420454789E+02  0.74902524678E+01  0.22632433283E+02  0.17770000000E+01 0.  1.
         15    1    1    2    0    0 -0.79826420822E+01 -0.33704520499E+01  0.50367441813E+02  0.51138238584E+02  0.17770000000E+01 0. -1.
</event>
<event>
 6    1  0.2408691E-003  0.5052421E+03  0.7546771E-02  0.9388156E-01
        -11   -1    0    0    0    0  0.00000000000E+00  0.00000000000E+00  0.50000000000E+03  0.50000000000E+03  0.00000000000E+00 0. -1.
         11   -1    0    0    0    0 -0.00000000000E+00 -0.00000000000E+00 -0.50000000000E+03  0.50000000000E+03  0.00000000000E+00 0. -1.
        -11    1    1    2    0    0 -0.80936550259E+01  0.10255582198E+02  0.49458539947E+03  0.49475792220E+03  0.00000000000E+00 0. -1.
         11    1    1    2    0    0 -0.10190577385E+01  0.80858115336E+01 -0.34901349680E+03  0.34910863606E+03  0.00000000000E+00 0. -1.
        -15    1    1    2    0    0  0.14955643875E+02  0.17268666942E+01 -0.83294706684E+01  0.17297143201E+02  0.17770000000E+01 0.  1.
         15    1    1    2    0    0 -0.58429311110E+01 -0.20068260426E+02 -0.13724243200E+03  0.13883629853E+03  0.17770000000E+01 0. -1.
</event>
<event>
 6    1  0.2408691E-003  0.5076303E+03  0.7546771E-02  0.9382896E-01
        -11   -1    0    0    0    0  0.00000000000E+00  0.00000000000E+00  0.50000000000E+03  0.50000000000E+03  0.00000000000E+00 0. -1.
         11   -1    0    0    0    0 -0.00000000000E+00 -0.00000000000E+00 -0.50000000000E+03  0.50000000000E+03  0.00000000000E+00 0.  1.
        -11    1    1    2    0    0  0.19731550558E+01  0.64263762002E+01  0.21429716830E+03  0.21440258393E+03  0.00000000000E+00 0. -1.
         11    1    1    2    0    0  0.19268304904E-01  0.16015001448E+02 -0.49210921597E+03  0.49236974022E+03  0.00000000000E+00 0.  1.
        -15    1    1    2    0    0  0.15079656682E+02  0.11762781046E+01  0.14174142082E+01  0.15295308688E+02  0.17770000000E+01 0.  1.
         15    1    1    2    0    0 -0.17072080042E+02 -0.23617655753E+02  0.27639463346E+03  0.27793236716E+03  0.17770000000E+01 0. -1.
</event>
<event>
 6    1  0.2408691E-003  0.5004337E+03  0.7546771E-02  0.9398840E-01
        -11   -1    0    0    0    0  0.00000000000E+00  0.00000000000E+00  0.50000000000E+03  0.50000000000E+03  0.00000000000E+00 0. -1.
         11   -1    0    0    0    0 -0.00000000000E+00 -0.00000000000E+00 -0.50000000000E+03  0.50000000000E+03  0.00000000000E+00 0.  1.
        -11    1    1    2    0    0  0.73663635633E+01  0.93886692567E+00  0.49951113446E+03  0.49956633016E+03  0.00000000000E+00 0. -1.
         11    1    1    2    0    0 -0.27485244008E+01  0.36034531233E+01 -0.19010384124E+03  0.19015785472E+03  0.00000000000E+00 0.  1.
        -15    1    1    2    0    0 -0.25734453732E+01  0.84032420149E+01 -0.17197611534E+03  0.17220969506E+03  0.17770000000E+01 0.  1.
         15    1    1    2    0    0 -0.20443937894E+01 -0.12945562064E+02 -0.13743117788E+03  0.13806612005E+03  0.17770000000E+01 0. -1.
</event>
<event>
 6    1  0.2408691E-003  0.5020365E+03  0.7546771E-02  0.9395264E-01
        -11   -1    0    0    0    0  0.00000000000E+00  0.00000000000E+00  0.50000000000E+03  0.50000000000E+03  0.00000000000E+00 0.  1.
         11   -1    0    0    0    0 -0.00000000000E+00 -0.00000000000E+00 -0.50000000000E+03  0.50000000000E+03  0.00000000000E+00 0.  1.
        -11    1    1    2    0    0  0.15391418660E+02  0.13984548663E+01  0.49772361587E+03  0.49796350191E+03  0.00000000000E+00 0.  1.
         11    1    1    2    0    0 -0.78431418195E+01  0.77763240409E+01 -0.45264990741E+03  0.45278463398E+03  0.00000000000E+00 0.  1.
        -15    1    1    2    0    0  0.20315834442E+01  0.14096965628E+01 -0.15594026468E+01  0.34211169674E+01  0.17770000000E+01 0.  1.
         15    1    1    2    0    0 -0.95798602846E+01 -0.10584475470E+02 -0.43514305813E+02  0.45830747140E+02  0.17770000000E+01 0.  1.
</event>
<event>
 6    1  0.2408691E-003  0.5031955E+03  0.7546771E-02  0.9392688E-01
        -11   -1    0    0    0    0  0.00000000000E+00  0.00000000000E+00  0.50000000000E+03  0.50000000000E+03  0.00000000000E+00 0. -1.
         11   -1    0    0    0    0 -0.00000000000E+00 -0.00000000000E+00 -0.50000000000E+03  0.50000000000E+03  0.00000000000E+00 0.  1.
        -11    1    1    2    0    0 -0.37155722135E+01 -0.59146144722E+01  0.49675535598E+03  0.49680446036E+03  0.00000000000E+00 0. -1.
         11    1    1    2    0    0 -0.36984394824E+00  0.18115256975E+02 -0.45003823060E+03  0.45040282894E+03  0.00000000000E+00 0.  1.
        -15    1    1    2    0    0 -0.25133999509E+01 -0.92847276064E+01 -0.61579543098E+01  0.11558610484E+02  0.17770000000E+01 0. -1.
         15    1    1    2    0    0  0.65988161126E+01 -0.29159148966E+01 -0.40559171068E+02  0.41234100214E+02  0.17770000000E+01 0.  1.
</event>
<event>
 6    1  0.2408691E-003  0.5075675E+03  0.7546771E-02  0.9383034E-01
        -11   -1    0    0    0    0  0.00000000000E+00  0.00000000000E+00  0.50000000000E+03  0.50000000000E+03  0.00000000000E+00 0.  1.
         11   -1    0    0    0    0 -0.00000000000E+00 -0.00000000000E+00 -0.50000000000E+03  0.50000000000E+03  0.00000000000E+00 0.  1.
        -11    1    1    2    0    0 -0.89046880146E+01  0.49064128174E+01  0.44527418911E+03  0.44539024444E+03  0.00000000000E+00 0.  1.
         11    1    1    2    0    0 -0.11200181262E+02 -0.72339568218E+01 -0.49225200741E+03  0.49243254664E+03  0.00000000000E+00 0.  1.
        -15    1    1    2    0    0  0.46361446033E+01 -0.39406627421E+01 -0.46681204863E+01  0.78722129992E+01  0.17770000000E+01 0. -1.
         15    1    1    2    0    0  0.15468724673E+02  0.62682067465E+01  0.51645938790E+02  0.54304995915E+02  0.17770000000E+01 0.  1.
</event>
<event>
 6    1  0.2408691E-003  0.5089929E+03  0.7546771E-02  0.9379909E-01
        -11   -1    0    0    0    0  0.00000000000E+00  0.00000000000E+00  0.50000000000E+03  0.50000000000E+03  0.00000000000E+00 0.  1.
         11   -1    0    0    0    0 -0.00000000000E+00 -0.00000000000E+00 -0.50000000000E+03  0.50000000000E+03  0.00000000000E+00 0. -1.
        -11    1    1    2    0    0  0.76221884389E+01 -0.33557900648E+01  0.41130418511E+03  0.41138849251E+03  0.00000000000E+00 0.  1.
         11    1    1    2    0    0 -0.12174998062E+02 -0.51311105829E+01 -0.49082933966E+03  0.49100712780E+03  0.00000000000E+00 0. -1.
        -15    1    1    2    0    0 -0.29382244745E+01  0.17939135165E+02  0.11653652360E+01  0.18301954504E+02  0.17770000000E+01 0. -1.
         15    1    1    2    0    0  0.74910340975E+01 -0.94522345175E+01  0.78359789316E+02  0.79302425183E+02  0.17770000000E+01 0.  1.
</event>
<event>
 6    1  0.2408691E-003  0.5020498E+03  0.7546771E-02  0.9395235E-01
        -11   -1    0    0    0    0  0.00000000000E+00  0.00000000000E+00  0.50000000000E+03  0.50000000000E+03  0.00000000000E+00 0.  1.
         11   -1    0    0    0    0 -0.00000000000E+00 -0.00000000000E+00 -0.50000000000E+03  0.50000000000E+03  0.00000000000E+00 0.  1.
        -11    1    1    2    0    0  0.59948827495E-01 -0.16267007383E+02  0.32268457167E+03  0.32309433903E+03  0.00000000000E+00 0.  1.
         11    1    1    2    0    0 -0.79134264160E+01  0.67627882204E+01 -0.49784141775E+03  0.49795023331E+03  0.00000000000E+00 0.  1.
        -15    1    1    2    0    0  0.12639282313E+01 -0.57126030330E+01  0.47720404615E+01  0.77563810603E+01  0.17770000000E+01 0. -1.
         15    1    1    2    0    0  0.65895493572E+01  0.15216822195E+02  0.17038480562E+03  0.17119904659E+03  0.17770000000E+01 0.  1.
</event>
<event>
 6    1  0.2408691E-003  0.5014801E+03  0.7546771E-02  0.9396504E-01
        -11   -1    0    0    0    0  0.00000000000E+00  0.00000000000E+00  0.50000000000E+03  0.50000000000E+03  0.00000000000E+00 0. -1.
         11   -1    0    0    0    0 -0.00000000000E+00 -0.00000000000E+00 -0.50000000000E+03  0.50000000000E+03  0.00000000000E+00 0. -1.
        -11    1    1    2    0    0 -0.10511546121E+01 -0.15330727957E+02  0.36664287570E+03  0.36696475913E+03  0.00000000000E+00 0. -1.
         11    1    1    2    0    0  0.14633565282E+02 -0.40031107751E+01 -0.49828901430E+03  0.49851991725E+03  0.00000000000E+00 0. -1.
        -15    1    1    2    0    0  0.17255415567E+01  0.68311631951E+01  0.24828344353E+02  0.25869802793E+02  0.17770000000E+01 0. -1.
         15    1    1    2    0    0 -0.15307952227E+02  0.12502675537E+02  0.10681779425E+03  0.10864552082E+03  0.17770000000E+01 0.  1.
</event>
<event>
 6    1  0.2408691E-003  0.5001278E+03  0.7546771E-02  0.9399524E-01
        -11   -1    0    0    0    0  0.00000000000E+00  0.00000000000E+00  0.50000000000E+03  0.50000000000E+03  0.00000000000E+00 0. -1.
         11   -1    0    0    0    0 -0.00000000000E+00 -0.00000000000E+00 -0.50000000000E+03  0.50000000000E+03  0.00000000000E+00 0. -1.
        -11    1    1    2    0    0 -0.37134357900E+01  0.70111452470E+01  0.31588068252E+03  0.31598030215E+03  0.00000000000E+00 0. -1.
         11    1    1    2    0    0  0.95195418778E+00 -0.78128702197E+01 -0.49981020549E+03  0.49987217233E+03  0.00000000000E+00 0. -1.
        -15    1    1    2    0    0 -0.79066102976E+00  0.34755701831E+01  0.65230686429E+02  0.65352160744E+02  0.17770000000E+01 0.  1.
         15    1    1    2    0    0  0.35521426319E+01 -0.26738452104E+01  0.11869883654E+03  0.11879536477E+03  0.17770000000E+01 0. -1.
</event>
<event>
 6    1  0.2408691E-003  0.5003116E+03  0.7546771E-02  0.9399113E-01
        -11   -1    0    0    0    0  0.00000000000E+00  0.00000000000E+00  0.50000000000E+03  0.50000000000E+03  0.00000000000E+00 0.  1.
         11   -1    0    0    0    0 -0.00000000000E+00 -0.00000000000E+00 -0.50000000000E+03  0.50000000000E+03  0.00000000000E+00 0. -1.
        -11    1    1    2    0    0 -0.36746366037E+01 -0.93512987621E+00  0.20844487481E+03  0.20847935931E+03  0.00000000000E+00 0.  1.
         11    1    1    2    0    0 -0.59049608525E+01  0.34577458569E+01 -0.49964150911E+03  0.49968836508E+03  0.00000000000E+00 0. -1.
        -15    1    1    2    0    0  0.37568455750E+00 -0.32008838083E+01  0.13978124970E+02  0.14454497664E+02  0.17770000000E+01 0. -1.
         15    1    1    2    0    0  0.92039128987E+01  0.67826782762E+00  0.27721850932E+03  0.27737777795E+03  0.17770000000E+01 0.  1.
</event>
<event>
 6    1  0.2408691E-003  0.5069947E+03  0.7546771E-02  0.9384293E-01
        -11   -1    0    0    0    0  0.00000000000E+00  0.00000000000E+00  0.50000000000E+03  0.50000000000E+03  0.00000000000E+00 0. -1.
         11   -1    0    0    0    0 -0.00000000000E+00 -0.00000000000E+00 -0.50000000000E+03  0.50000000000E+03  0.00000000000E+00 0.  1.
        -11    1    1    2    0    0 -0.93328601890E+01  0.32986525862E+01  0.49290590832E+03  0.49300529190E+03  0.00000000000E+00 0. -1.
         11    1    1    2    0    0 -0.10737904494E+02 -0.21158730299E+01 -0.45977519059E+03  0.45990543092E+03  0.00000000000E+00 0.  1.
        -15    1    1    2    0    0  0.56564574301E+01 -0.41083713005E+01  0.31719550705E+01  0.78799272440E+01  0.17770000000E+01 0.  1.
         15    1    1    2    0    0  0.14414307253E+02  0.29255917441E+01 -0.36302672798E+02  0.39209349930E+02  0.17770000000E+01 0. -1.
</event>
<event>
 6    1  0.2408691E-003  0.5001944E+03  0.7546771E-02  0.9399375E-01
        -11   -1    0    0    0    0  0.00000000000E+00  0.00000000000E+00  0.50000000000E+03  0.50000000000E+03  0.00000000000E+00 0.  1.
         11   -1    0    0    0    0 -0.00000000000E+00 -0.00000000000E+00 -0.50000000000E+03  0.50000000000E+03  0.00000000000E+00 0. -1.
        -11    1    1    2    0    0  0.30840748208E+01  0.88197005388E+00  0.63511563822E+02  0.63592516288E+02  0.00000000000E+00 0.  1.
         11    1    1    2    0    0 -0.11505448487E+02  0.10275103704E+02 -0.49956753588E+03  0.49980563823E+03  0.00000000000E+00 0. -1.
        -15    1    1    2    0    0  0.75622682237E+01 -0.10297911061E+02  0.42965506333E+03  0.42984865482E+03  0.17770000000E+01 0.  1.
         15    1    1    2    0    0  0.85910544209E+00 -0.85916269685E+00  0.64009087218E+01  0.67531906655E+01  0.17770000000E+01 0.  1.
</event>
<event>
 6    1  0.2408691E-003  0.5006738E+03  0.7546771E-02  0.9398303E-01
        -11   -1    0    0    0    0  0.00000000000E+00  0.00000000000E+00  0.50000000000E+03  0.50000000000E+03  0.00000000000E+00 0.  1.
         11   -1    0    0    0    0 -0.00000000000E+00 -0.00000000000E+00 -0.50000000000E+03  0.50000000000E+03  0.00000000000E+00 0.  1.
        -11    1    1    2    0    0  0.31630017178E+00  0.71866625145E+00  0.42942435901E+02  0.42949613829E+02  0.00000000000E+00 0.  1.
         11    1    1    2    0    0  0.41637410456E+01 -0.69017749511E+01 -0.49926110398E+03  0.49932616713E+03  0.00000000000E+00 0.  1.
        -15    1    1    2    0    0 -0.14289744741E+01  0.59879956108E+01  0.45240200303E+03  0.45244737609E+03  0.17770000000E+01 0.  1.
         15    1    1    2    0    0 -0.30510667433E+01  0.19511308889E+00  0.39166650473E+01  0.52768429465E+01  0.17770000000E+01 0.  1.
</event>
<event>
 6    1  0.2408691E-003  0.5055767E+03  0.7546771E-02  0.9387417E-01
        -11   -1    0    0    0    0  0.00000000000E+00  0.00000000000E+00  0.50000000000E+03  0.50000000000E+03  0.00000000000E+00 0.  1.
         11   -1    0    0    0    0 -0.00000000000E+00 -0.00000000000E+00 -0.50000000000E+03  0.50000000000E+03  0.00000000000E+00 0.  1.
        -11    1    1    2    0    0  0.67111150225E+01  0.57732837970E+01  0.49434407081E+03  0.49442333098E+03  0.00000000000E+00 0.  1.
         11    1    1    2    0    0  0.26059576571E+02  0.70727017226E+01 -0.35593309609E+03  0.35695587057E+03  0.00000000000E+00 0.  1.
        -15    1    1    2    0    0 -0.22643759170E+02 -0.27422139739E+02 -0.80462906271E+02  0.87989491371E+02  0.17770000000E+01 0. -1.
         15    1    1    2    0    0 -0.10126932424E+02  0.14576154220E+02 -0.57948068449E+02  0.60631307079E+02  0.17770000000E+01 0.  1.
</event>
<event>
 6    1  0.2408691E-003  0.4900237E+03  0.7546771E-02  0.9422413E-01
        -11   -1    0    0    0    0  0.00000000000E+00  0.00000000000E+00  0.50000000000E+03  0.50000000000E+03  0.00000000000E+00 0.  1.
         11   -1    0    0    0    0 -0.00000000000E+00 -0.00000000000E+00 -0.50000000000E+03  0.50000000000E+03  0.00000000000E+00 0. -1.
        -11    1    1    2    0    0 -0.64741192248E+01 -0.74474812546E+01  0.49111847311E+03  0.49121760333E+03  0.00000000000E+00 0.  1.
         11    1    1    2    0    0  0.98853857978E+01 -0.63556172711E+00 -0.48877149206E+03  0.48887186076E+03  0.00000000000E+00 0. -1.
        -15    1    1    2    0    0  0.32857391807E+01  0.11307367535E+02 -0.28734260824E+01  0.12250181590E+02  0.17770000000E+01 0.  1.
         15    1    1    2    0    0 -0.66970057538E+01 -0.32243245534E+01  0.52644503550E+00  0.76603543173E+01  0.17770000000E+01 0. -1.
</event>
<event>
 6    1  0.2408691E-003  0.5012307E+03  0.7546771E-02  0.9397060E-01
        -11   -1    0    0    0    0  0.00000000000E+00  0.00000000000E+00  0.50000000000E+03  0.50000000000E+03  0.00000000000E+00 0. -1.
         11   -1    0    0    0    0 -0.00000000000E+00 -0.00000000000E+00 -0.50000000000E+03  0.50000000000E+03  0.00000000000E+00 0.  1.
        -11    1    1    2    0    0 -0.40618594513E+01 -0.27742586572E+01  0.21341792669E+03  0.21347460422E+03  0.00000000000E+00 0. -1.
         11    1    1    2    0    0 -0.82119583770E+01  0.36239603327E+01 -0.49868854443E+03  0.49876931912E+03  0.00000000000E+00 0.  1.
        -15    1    1    2    0    0 -0.94820877610E+01 -0.99666131803E+01  0.91139524590E+02  0.92189012567E+02  0.17770000000E+01 0.  1.
         15    1    1    2    0    0  0.21755905589E+02  0.91169115048E+01  0.19413109315E+03  0.19556706410E+03  0.17770000000E+01 0. -1.
</event>
<event>
 6    1  0.2408691E-003  0.5023853E+03  0.7546771E-02  0.9394488E-01
        -11   -1    0    0    0    0  0.00000000000E+00  0.00000000000E+00  0.50000000000E+03  0.50000000000E+03  0.00000000000E+00 0.  1.
         11   -1    0    0    0    0 -0.00000000000E+00 -0.00000000000E+00 -0.50000000000E+03  0.50000000000E+03  0.00000000000E+00 0.  1.
        -11    1    1    2    0    0 -0.57536916447E+01 -0.11122996540E+02  0.19865590139E+03  0.19905022777E+03  0.00000000000E+00 0.  1.
         11    1    1    2    0    0 -0.25183494781E+01  0.94455975457E+01 -0.49751867770E+03  0.49761470644E+03  0.00000000000E+00 0.  1.
        -15    1    1    2    0    0 -0.38341669504E+01  0.39114034965E+01  0.28354421398E+03  0.28360267792E+03  0.17770000000E+01 0.  1.
         15    1    1    2    0    0  0.12106208073E+02 -0.22340045022E+01  0.15318562336E+02  0.19732387871E+02  0.17770000000E+01 0. -1.
</event>
<event>
 6    1  0.2408691E-003  0.5014409E+03  0.7546771E-02  0.9396591E-01
        -11   -1    0    0    0    0  0.00000000000E+00  0.00000000000E+00  0.50000000000E+03  0.50000000000E+03  0.00000000000E+00 0. -1.
         11   -1    0    0    0    0 -0.00000000000E+00 -0.00000000000E+00 -0.50000000000E+03  0.50000000000E+03  0.00000000000E+00 0.  1.
        -11    1    1    2    0    0  0.19075242938E+01 -0.37691990149E+02  0.49712862733E+03  0.49855912075E+03  0.00000000000E+00 0. -1.
         11    1    1    2    0    0  0.36307392749E+01  0.60595187381E+01 -0.79417950248E+02  0.79731492251E+02  0.00000000000E+00 0.  1.
        -15    1    1    2    0    0 -0.14437273707E+02  0.32282357185E+02 -0.16144561820E+03  0.16528288122E+03  0.17770000000E+01 0. -1.
         15    1    1    2    0    0  0.88990101383E+01 -0.64988577429E+00 -0.25626505888E+03  0.25642650578E+03  0.17770000000E+01 0.  1.
</event>
<event>
 6    1  0.2408691E-003  0.5016522E+03  0.7546771E-02  0.9396120E-01
        -11   -1    0    0    0    0  0.00000000000E+00  0.00000000000E+00  0.50000000000E+03  0.50000000000E+03  0.00000000000E+00 0.  1.
         11   -1    0    0    0    0 -0.00000000000E+00 -0.00000000000E+00 -0.50000000000E+03  0.50000000000E+03  0.00000000000E+00 0.  1.
        -11    1    1    2    0    0 -0.72910596346E+01  0.16767255897E+01  0.47001494201E+03  0.47007447991E+03  0.00000000000E+00 0.  1.
         11    1    1    2    0    0  0.55006047513E+01 -0.65833352638E+01 -0.49827399900E+03  0.49834784542E+03  0.00000000000E+00 0.  1.
        -15    1    1    2    0    0  0.33695565148E+01 -0.26041077097E+01  0.18335682568E+02  0.18907413157E+02  0.17770000000E+01 0. -1.
         15    1    1    2    0    0 -0.15791016315E+01  0.75107173839E+01  0.99233744284E+01  0.12670261506E+02  0.17770000000E+01 0. -1.
</event>
<event>
 6    1  0.2408691E-003  0.4864827E+03  0.7546771E-02  0.9430574E-01
        -11   -1    0    0    0    0  0.00000000000E+00  0.00000000000E+00  0.50000000000E+03  0.50000000000E+03  0.00000000000E+00 0. -1.
         11   -1    0    0    0    0 -0.00000000000E+00 -0.00000000000E+00 -0.50000000000E+03  0.50000000000E+03  0.00000000000E+00 0. -1.
        -11    1    1    2    0    0  0.13283218919E+02  0.65552553281E+01  0.49334710709E+03  0.49356943114E+03  0.00000000000E+00 0. -1.
         11    1    1    2    0    0 -0.34924223541E+00  0.16816402831E+01 -0.38508348298E+02  0.38546631147E+02  0.00000000000E+00 0. -1.
        -15    1    1    2    0    0 -0.46857521801E+02  0.67462943112E+00 -0.40015747219E+03  0.40289606942E+03  0.17770000000E+01 0. -1.
         15    1    1    2    0    0  0.33923545117E+02 -0.89115250424E+01 -0.54681286605E+02  0.64987868296E+02  0.17770000000E+01 0.  1.
</event>
<event>
 6    1  0.2408691E-003  0.5022291E+03  0.7546771E-02  0.9394836E-01
        -11   -1    0    0    0    0  0.00000000000E+00  0.00000000000E+00  0.50000000000E+03  0.50000000000E+03  0.00000000000E+00 0.  1.
         11   -1    0    0    0    0 -0.00000000000E+00 -0.00000000000E+00 -0.50000000000E+03  0.50000000000E+03  0.00000000000E+00 0.  1.
        -11    1    1    2    0    0 -0.94090112237E+01  0.35290811281E+01  0.49766943794E+03  0.49777088441E+03  0.00000000000E+00 0.  1.
         11    1    1    2    0    0 -0.15484151072E+01 -0.76184327277E+01 -0.37510517932E+03  0.37518573222E+03  0.00000000000E+00 0.  1.
        -15    1    1    2    0    0  0.60469931423E+01  0.26827247143E+00 -0.24696617074E+01  0.67745888533E+01  0.17770000000E+01 0. -1.
         15    1    1    2    0    0  0.49104331887E+01  0.38210791282E+01 -0.12009459691E+03  0.12026879452E+03  0.17770000000E+01 0.  1.
</event>
<event>
 6    1  0.2408691E-003  0.5124620E+03  0.7546771E-02  0.9372349E-01
        -11   -1    0    0    0    0  0.00000000000E+00  0.00000000000E+00  0.50000000000E+03  0.50000000000E+03  0.00000000000E+00 0. -1.
         11   -1    0    0    0    0 -0.00000000000E+00 -0.00000000000E+00 -0.50000000000E+03  0.50000000000E+03  0.00000000000E+00 0.  1.
        -11    1    1    2    0    0 -0.71013642746E+01 -0.83018670358E+01  0.46930620318E+03  0.46943334214E+03  0.00000000000E+00 0. -1.
         11    1    1    2    0    0 -0.13711416465E+01  0.72928263298E+01 -0.48748153633E+03  0.48753801247E+03  0.00000000000E+00 0.  1.
        -15    1    1    2    0    0  0.42682849854E+01 -0.96915316746E+01 -0.86505411526E+01  0.13788895320E+02  0.17770000000E+01 0.  1.
         15    1    1    2    0    0  0.42042209356E+01  0.10700572381E+02  0.26825874304E+02  0.29239750069E+02  0.17770000000E+01 0. -1.
</event>
<event>
 6    1  0.2408691E-003  0.5005299E+03  0.7546771E-02  0.9398625E-01
        -11   -1    0    0    0    0  0.00000000000E+00  0.00000000000E+00  0.50000000000E+03  0.50000000000E+03  0.00000000000E+00 0.  1.
         11   -1    0    0    0    0 -0.00000000000E+00 -0.00000000000E+00 -0.50000000000E+03  0.50000000000E+03  0.00000000000E+00 0. -1.
        -11    1    1    2    0    0  0.32393804711E+01  0.37791514444E+01  0.31698519018E+02  0.32086939390E+02  0.00000000000E+00 0.  1.
         11    1    1    2    0    0 -0.82958861091E+01 -0.19421880168E+01 -0.49939739125E+03  0.49947006738E+03  0.00000000000E+00 0. -1.
        -15    1    1    2    0    0  0.11548589203E+02 -0.97825503660E+01  0.22122539180E+03  0.22174963339E+03  0.17770000000E+01 0.  1.
         15    1    1    2    0    0 -0.64920835650E+01  0.79455869384E+01  0.24647348044E+03  0.24669335984E+03  0.17770000000E+01 0. -1.
</event>
<event>
 6    1  0.2408691E-003  0.5116000E+03  0.7546771E-02  0.9374222E-01
        -11   -1    0    0    0    0  0.00000000000E+00  0.00000000000E+00  0.50000000000E+03  0.50000000000E+03  0.00000000000E+00 0.  1.
         11   -1    0    0    0    0 -0.00000000000E+00 -0.00000000000E+00 -0.50000000000E+03  0.50000000000E+03  0.00000000000E+00 0. -1.
        -11    1    1    2    0    0 -0.79758763907E+01 -0.10273495049E+02  0.45550878531E+03  0.45569442919E+03  0.00000000000E+00 0.  1.
         11    1    1    2    0    0 -0.13562239413E+02  0.18613073549E+02 -0.48785675516E+03  0.48840003522E+03  0.00000000000E+00 0. -1.
        -15    1    1    2    0    0  0.12533642171E+02 -0.85420624808E+01 -0.60494002237E+01  0.16425954754E+02  0.17770000000E+01 0. -1.
         15    1    1    2    0    0  0.90044736328E+01  0.20248398145E+00  0.38397370076E+02  0.39479580836E+02  0.17770000000E+01 0.  1.
</event>
<event>
 6    1  0.2408691E-003  0.5401241E+03  0.7546771E-02  0.9314250E-01
        -11   -1    0    0    0    0  0.00000000000E+00  0.00000000000E+00  0.50000000000E+03  0.50000000000E+03  0.00000000000E+00 0. -1.
         11   -1    0    0    0    0 -0.00000000000E+00 -0.00000000000E+00 -0.50000000000E+03  0.50000000000E+03  0.00000000000E+00 0.  1.
        -11    1    1    2    0    0  0.76905481577E+01  0.16371751626E+01  0.45980865739E+03  0.45987588139E+03  0.00000000000E+00 0. -1.
         11    1    1    2    0    0  0.17051999534E+02 -0.16344632739E+02 -0.42119194799E+03  0.42185373621E+03  0.00000000000E+00 0.  1.
        -15    1    1    2    0    0 -0.27465702735E+02  0.12602917115E+02 -0.75417690413E+02  0.81266131339E+02  0.17770000000E+01 0. -1.
         15    1    1    2    0    0  0.27231550430E+01  0.21045404611E+01  0.36800981009E+02  0.37004251055E+02  0.17770000000E+01 0.  1.
</event>
<event>
 6    1  0.2408691E-003  0.5017225E+03  0.7546771E-02  0.9395964E-01
        -11   -1    0    0    0    0  0.00000000000E+00  0.00000000000E+00  0.50000000000E+03  0.50000000000E+03  0.00000000000E+00 0. -1.
         11   -1    0    0    0    0 -0.00000000000E+00 -0.00000000000E+00 -0.50000000000E+03  0.50000000000E+03  0.00000000000E+00 0. -1.
        -11    1    1    2    0    0  0.77454723540E+01 -0.94217565556E+01  0.49812819558E+03  0.49827749404E+03  0.00000000000E+00 0. -1.
         11    1    1    2    0    0  0.10851897726E+02  0.12518968238E+02 -0.30411558421E+03  0.30456653922E+03  0.00000000000E+00 0. -1.
        -15    1    1    2    0    0 -0.77129527638E+01 -0.76400150192E+01 -0.16988850923E+03  0.17024430319E+03  0.17770000000E+01 0. -1.
         15    1    1    2    0    0 -0.10884417316E+02  0.45428033366E+01 -0.24124102131E+02  0.26911663551E+02  0.17770000000E+01 0.  1.
</event>
<event>
 6    1  0.2408691E-003  0.5213325E+03  0.7546771E-02  0.9353302E-01
        -11   -1    0    0    0    0  0.00000000000E+00  0.00000000000E+00  0.50000000000E+03  0.50000000000E+03  0.00000000000E+00 0.  1.
         11   -1    0    0    0    0 -0.00000000000E+00 -0.00000000000E+00 -0.50000000000E+03  0.50000000000E+03  0.00000000000E+00 0.  1.
        -11    1    1    2    0    0 -0.59041046088E+01  0.14545656287E+02  0.44447341497E+03  0.44475054939E+03  0.00000000000E+00 0.  1.
         11    1    1    2    0    0  0.15217489701E+02 -0.67488820394E+01 -0.47837790534E+03  0.47866746256E+03  0.00000000000E+00 0.  1.
        -15    1    1    2    0    0  0.21838886299E+02 -0.17403285716E+02 -0.20003367522E+01  0.28052992436E+02  0.17770000000E+01 0. -1.
         15    1    1    2    0    0 -0.31152271392E+02  0.96065114686E+01  0.35904827124E+02  0.48528995613E+02  0.17770000000E+01 0.  1.
</event>
<event>
 6    1  0.2408691E-003  0.5070008E+03  0.7546771E-02  0.9384280E-01
        -11   -1    0    0    0    0  0.00000000000E+00  0.00000000000E+00  0.50000000000E+03  0.50000000000E+03  0.00000000000E+00 0. -1.
         11   -1    0    0    0    0 -0.00000000000E+00 -0.00000000000E+00 -0.50000000000E+03  0.50000000000E+03  0.00000000000E+00 0.  1.
        -11    1    1    2    0    0 -0.36229153677E+02 -0.56916907145E+02  0.48836069533E+03  0.49299924405E+03  0.00000000000E+00 0. -1.
         11    1    1    2    0    0  0.79101052770E+01  0.10940285304E+02 -0.26837137235E+03  0.26871072384E+03  0.00000000000E+00 0.  1.
        -15    1    1    2    0    0  0.13401735629E+02  0.20869155986E+02 -0.20287594184E+03  0.20439406472E+03  0.17770000000E+01 0.  1.
         15    1    1    2    0    0  0.14917312771E+02  0.25107465856E+02 -0.17113381143E+02  0.33895967388E+02  0.17770000000E+01 0. -1.
</event>
<event>
 6    1  0.2408691E-003  0.5013644E+03  0.7546771E-02  0.9396762E-01
        -11   -1    0    0    0    0  0.00000000000E+00  0.00000000000E+00  0.50000000000E+03  0.50000000000E+03  0.00000000000E+00 0. -1.
         11   -1    0    0    0    0 -0.00000000000E+00 -0.00000000000E+00 -0.50000000000E+03  0.50000000000E+03  0.00000000000E+00 0. -1.
        -11    1    1    2    0    0 -0.48294015020E+01 -0.63289495792E+01  0.42270029795E+03  0.42277526017E+03  0.00000000000E+00 0. -1.
         11    1    1    2    0    0  0.16182377348E+00  0.77071759213E+01 -0.49857605322E+03  0.49863564613E+03  0.00000000000E+00 0. -1.
        -15    1    1    2    0    0 -0.22143341732E+01 -0.66328261547E+01  0.11271076020E+02  0.13382546180E+02  0.17770000000E+01 0. -1.
         15    1    1    2    0    0  0.68819119017E+01  0.52545998126E+01  0.64604679244E+02  0.65206547523E+02  0.17770000000E+01 0. -1.
</event>
<event>
 6    1  0.2408691E-003  0.5038564E+03  0.7546771E-02  0.9391222E-01
        -11   -1    0    0    0    0  0.00000000000E+00  0.00000000000E+00  0.50000000000E+03  0.50000000000E+03  0.00000000000E+00 0.  1.
         11   -1    0    0    0    0 -0.00000000000E+00 -0.00000000000E+00 -0.50000000000E+03  0.50000000000E+03  0.00000000000E+00 0. -1.
        -11    1    1    2    0    0 -0.13288653227E+02 -0.10124692373E+02  0.43088618985E+03  0.43120993298E+03  0.00000000000E+00 0.  1.
         11    1    1    2    0    0  0.58112610435E+01  0.56275747186E+01 -0.49607769021E+03  0.49614364359E+03  0.00000000000E+00 0. -1.
        -15    1    1    2    0    0 -0.11343138885E+02  0.37275218978E+01  0.16794801294E+02  0.20682947052E+02  0.17770000000E+01 0. -1.
         15    1    1    2    0    0  0.18820531068E+02  0.76959575682E+00  0.48396699069E+02  0.51963476377E+02  0.17770000000E+01 0.  1.
</event>
<event>
 6    1  0.2408691E-003  0.5043876E+03  0.7546771E-02  0.9390045E-01
        -11   -1    0    0    0    0  0.00000000000E+00  0.00000000000E+00  0.50000000000E+03  0.50000000000E+03  0.00000000000E+00 0.  1.
         11   -1    0    0    0    0 -0.00000000000E+00 -0.00000000000E+00 -0.50000000000E+03  0.50000000000E+03  0.00000000000E+00 0. -1.
        -11    1    1    2    0    0  0.82171973523E+00 -0.16862210091E+02  0.49532479239E+03  0.49561240835E+03  0.00000000000E+00 0.  1.
         11    1    1    2    0    0 -0.19407363887E+01  0.97823738800E+01 -0.45544553186E+03  0.45555470998E+03  0.00000000000E+00 0. -1.
        -15    1    1    2    0    0  0.43914969109E+01  0.11952702086E+02 -0.56249446744E+01  0.14033889834E+02  0.17770000000E+01 0. -1.
         15    1    1    2    0    0 -0.32724802574E+01 -0.48728658751E+01 -0.34254315861E+02  0.34798991839E+02  0.17770000000E+01 0.  1.
</event>
<event>
 6    1  0.2408691E-003  0.4691099E+03  0.7546771E-02  0.9471712E-01
        -11   -1    0    0    0    0  0.00000000000E+00  0.00000000000E+00  0.50000000000E+03  0.50000000000E+03  0.00000000000E+00 0.  1.
         11   -1    0    0    0    0 -0.00000000000E+00 -0.00000000000E+00 -0.50000000000E+03  0.50000000000E+03  0.00000000000E+00 0.  1.
        -11    1    1    2    0    0 -0.90213871509E+01  0.11255388071E+02  0.47186825747E+03  0.47208867980E+03  0.00000000000E+00 0.  1.
         11    1    1    2    0    0 -0.25301302096E+02 -0.63598176256E+01 -0.46605981087E+03  0.46678940699E+03  0.00000000000E+00 0.  1.
        -15    1    1    2    0    0  0.23855516953E+02 -0.24971199315E+01 -0.27693357702E+02  0.36679709471E+02  0.17770000000E+01 0.  1.
         15    1    1    2    0    0  0.10467172293E+02 -0.23984505139E+01  0.21884911101E+02  0.24442203738E+02  0.17770000000E+01 0. -1.
</event>
<event>
 6    1  0.2408691E-003  0.5172175E+03  0.7546771E-02  0.9362088E-01
        -11   -1    0    0    0    0  0.00000000000E+00  0.00000000000E+00  0.50000000000E+03  0.50000000000E+03  0.00000000000E+00 0. -1.
         11   -1    0    0    0    0 -0.00000000000E+00 -0.00000000000E+00 -0.50000000000E+03  0.50000000000E+03  0.00000000000E+00 0. -1.
        -11    1    1    2    0    0 -0.48947505965E+01 -0.23668576400E+02  0.48217715093E+03  0.48278252347E+03  0.00000000000E+00 0. -1.
         11    1    1    2    0    0  0.19772349788E+02  0.18071904004E+01 -0.44066019133E+03  0.44110726130E+03  0.00000000000E+00 0. -1.
        -15    1    1    2    0    0 -0.32313651770E+02  0.68213090041E+01 -0.41433565313E+02  0.53015096065E+02  0.17770000000E+01 0.  1.
         15    1    1    2    0    0  0.17436052578E+02  0.15040076995E+02 -0.83394288390E-01  0.23095119163E+02  0.17770000000E+01 0. -1.
</event>
<event>
 6    1  0.2408691E-003  0.5025779E+03  0.7546771E-02  0.9394060E-01
        -11   -1    0    0    0    0  0.00000000000E+00  0.00000000000E+00  0.50000000000E+03  0.50000000000E+03  0.00000000000E+00 0.  1.
         11   -1    0    0    0    0 -0.00000000000E+00 -0.00000000000E+00 -0.50000000000E+03  0.50000000000E+03  0.00000000000E+00 0.  1.
        -11    1    1    2    0    0  0.16102227160E+02 -0.73515917979E+00  0.49716081546E+03  0.49742205279E+03  0.00000000000E+00 0.  1.
         11    1    1    2    0    0  0.47282017512E+01  0.11587874823E+02 -0.36073988064E+03  0.36095691740E+03  0.00000000000E+00 0.  1.
        -15    1    1    2    0    0 -0.20030491244E+02 -0.13087695220E+02 -0.13656076610E+03  0.13865247532E+03  0.17770000000E+01 0.  1.
         15    1    1    2    0    0 -0.79993766730E+00  0.22349795770E+01  0.13983127903E+00  0.29685544913E+01  0.17770000000E+01 0. -1.
</event>
<event>
 6    1  0.2408691E-003  0.5008473E+03  0.7546771E-02  0.9397916E-01
        -11   -1    0    0    0    0  0.00000000000E+00  0.00000000000E+00  0.50000000000E+03  0.50000000000E+03  0.00000000000E+00 0. -1.
         11   -1    0    0    0    0 -0.00000000000E+00 -0.00000000000E+00 -0.50000000000E+03  0.50000000000E+03  0.00000000000E+00 0. -1.
        -11    1    1    2    0    0  0.43580976267E+01  0.24845939065E+00  0.29937284177E+03  0.29940466452E+03  0.00000000000E+00 0. -1.
         11    1    1    2    0    0 -0.62672920070E+01  0.42216859831E+01 -0.49909551228E+03  0.49915271407E+03  0.00000000000E+00 0. -1.
        -15    1    1    2    0    0 -0.92703201435E+01 -0.29919764938E+01  0.36440667932E+02  0.37762028113E+02  0.17770000000E+01 0.  1.
         15    1    1    2    0    0  0.11179514524E+02 -0.14781688799E+01  0.16328200258E+03  0.16368059330E+03  0.17770000000E+01 0. -1.
</event>
<event>
 6    1  0.2408691E-003  0.5520882E+03  0.7546771E-02  0.9290254E-01
        -11   -1    0    0    0    0  0.00000000000E+00  0.00000000000E+00  0.50000000000E+03  0.50000000000E+03  0.00000000000E+00 0. -1.
         11   -1    0    0    0    0 -0.00000000000E+00 -0.00000000000E+00 -0.50000000000E+03  0.50000000000E+03  0.00000000000E+00 0.  1.
        -11    1    1    2    0    0  0.60901164672E+02 -0.53688621425E+02  0.44049242909E+03  0.44791182170E+03  0.00000000000E+00 0. -1.
         11    1    1    2    0    0 -0.82209570671E+01  0.56004661530E+01 -0.37085193076E+03  0.37098531495E+03  0.00000000000E+00 0.  1.
        -15    1    1    2    0    0 -0.82981286328E+02  0.55869349872E+02  0.49741127769E+01  0.10017573390E+03  0.17770000000E+01 0.  1.
         15    1    1    2    0    0  0.30301078723E+02 -0.77811945999E+01 -0.74614611109E+02  0.80927129451E+02  0.17770000000E+01 0. -1.
</event>
<event>
 6    1  0.2408691E-003  0.5126969E+03  0.7546771E-02  0.9371839E-01
        -11   -1    0    0    0    0  0.00000000000E+00  0.00000000000E+00  0.50000000000E+03  0.50000000000E+03  0.00000000000E+00 0.  1.
         11   -1    0    0    0    0 -0.00000000000E+00 -0.00000000000E+00 -0.50000000000E+03  0.50000000000E+03  0.00000000000E+00 0. -1.
        -11    1    1    2    0    0  0.16501315935E+02  0.47199478010E+01  0.48700072485E+03  0.48730306519E+03  0.00000000000E+00 0.  1.
         11    1    1    2    0    0 -0.12056971678E+01 -0.87129249410E+01 -0.19287513628E+03  0.19307559908E+03  0.00000000000E+00 0. -1.
        -15    1    1    2    0    0  0.13266398610E+02  0.15455561298E+02 -0.28732635895E+03  0.28805288748E+03  0.17770000000E+01 0. -1.
         15    1    1    2    0    0 -0.28562017378E+02 -0.11462584158E+02 -0.67992296209E+01  0.31568448247E+02  0.17770000000E+01 0.  1.
</event>
<event>
 6    1  0.2408691E-003  0.5014540E+03  0.7546771E-02  0.9396562E-01
        -11   -1    0    0    0    0  0.00000000000E+00  0.00000000000E+00  0.50000000000E+03  0.50000000000E+03  0.00000000000E+00 0.  1.
         11   -1    0    0    0    0 -0.00000000000E+00 -0.00000000000E+00 -0.50000000000E+03  0.50000000000E+03  0.00000000000E+00 0. -1.
        -11    1    1    2    0    0 -0.29988469339E+01 -0.66703265977E+01  0.46348430975E+03  0.46354200643E+03  0.00000000000E+00 0.  1.
         11    1    1    2    0    0  0.52798751132E+01  0.47529824623E+01 -0.49849534154E+03  0.49854595922E+03  0.00000000000E+00 0. -1.
        -15    1    1    2    0    0 -0.32072821691E+01 -0.31645197046E+01  0.36135275298E+01  0.60428597603E+01  0.17770000000E+01 0. -1.
         15    1    1    2    0    0  0.92625398979E+00  0.50818638401E+01  0.31397504258E+02  0.31869174592E+02  0.17770000000E+01 0.  1.
</event>
<event>
 6    1  0.2408691E-003  0.5008899E+03  0.7546771E-02  0.9397821E-01
        -11   -1    0    0    0    0  0.00000000000E+00  0.00000000000E+00  0.50000000000E+03  0.50000000000E+03  0.00000000000E+00 0. -1.
         11   -1    0    0    0    0 -0.00000000000E+00 -0.00000000000E+00 -0.50000000000E+03  0.50000000000E+03  0.00000000000E+00 0.  1.
        -11    1    1    2    0    0 -0.40106860052E+01  0.11792567014E+02  0.49895467459E+03  0.49911012566E+03  0.00000000000E+00 0. -1.
         11    1    1    2    0    0  0.19159654723E+01  0.40278455341E+01 -0.13208414869E+03  0.13215943704E+03  0.00000000000E+00 0.  1.
        -15    1    1    2    0    0 -0.33111956764E+01 -0.86680199597E+01 -0.34359219328E+03  0.34372205574E+03  0.17770000000E+01 0.  1.
         15    1    1    2    0    0  0.54059162093E+01 -0.71523925884E+01 -0.23278332616E+02  0.25008381558E+02  0.17770000000E+01 0. -1.
</event>
<event>
 6    1  0.2408691E-003  0.4996374E+03  0.7546771E-02  0.9400621E-01
        -11   -1    0    0    0    0  0.00000000000E+00  0.00000000000E+00  0.50000000000E+03  0.50000000000E+03  0.00000000000E+00 0.  1.
         11   -1    0    0    0    0 -0.00000000000E+00 -0.00000000000E+00 -0.50000000000E+03  0.50000000000E+03  0.00000000000E+00 0.  1.
        -11    1    1    2    0    0  0.62490876810E+00 -0.22662659479E+00  0.34421374298E+01  0.35057353961E+01  0.00000000000E+00 0.  1.
         11    1    1    2    0    0 -0.85139952370E+00  0.10718786133E+02 -0.49845637696E+03  0.49857233877E+03  0.00000000000E+00 0.  1.
        -15    1    1    2    0    0 -0.61855952130E+01 -0.70849995876E+01  0.48649020442E+03  0.48658435603E+03  0.17770000000E+01 0.  1.
         15    1    1    2    0    0  0.64120859686E+01 -0.34071599510E+01  0.85240351166E+01  0.11337569804E+02  0.17770000000E+01 0. -1.
</event>
<event>
 6    1  0.2408691E-003  0.5057165E+03  0.7546771E-02  0.9387109E-01
        -11   -1    0    0    0    0  0.00000000000E+00  0.00000000000E+00  0.50000000000E+03  0.50000000000E+03  0.00000000000E+00 0.  1.
         11   -1    0    0    0    0 -0.00000000000E+00 -0.00000000000E+00 -0.50000000000E+03  0.50000000000E+03  0.00000000000E+00 0.  1.
        -11    1    1    2    0    0 -0.20062308721E+01 -0.11210556215E+02  0.49415231691E+03  0.49428353588E+03  0.00000000000E+00 0.  1.
         11    1    1    2    0    0  0.17521765844E+01  0.13600563604E+01 -0.96233108025E+02  0.96258666914E+02  0.00000000000E+00 0.  1.
        -15    1    1    2    0    0  0.57751104391E+01  0.11711328755E+02 -0.40194209247E+03  0.40215806663E+03  0.17770000000E+01 0.  1.
         15    1    1    2    0    0 -0.55210561514E+01 -0.18608289006E+01  0.40228835885E+01  0.72997305834E+01  0.17770000000E+01 0. -1.
</event>
<event>
 6    1  0.2408691E-003  0.5003839E+03  0.7546771E-02  0.9398951E-01
        -11   -1    0    0    0    0  0.00000000000E+00  0.00000000000E+00  0.50000000000E+03  0.50000000000E+03  0.00000000000E+00 0. -1.
         11   -1    0    0    0    0 -0.00000000000E+00 -0.00000000000E+00 -0.50000000000E+03  0.50000000000E+03  0.00000000000E+00 0.  1.
        -11    1    1    2    0    0  0.32665822489E+01  0.11343337063E+01  0.19028906217E+03  0.19032047828E+03  0.00000000000E+00 0. -1.
         11    1    1    2    0    0  0.78009199917E+01  0.22785830433E+01 -0.49955002230E+03  0.49961612371E+03  0.00000000000E+00 0.  1.
        -15    1    1    2    0    0  0.42807843679E+01 -0.13401258089E+01  0.14080730567E+03  0.14088994326E+03  0.17770000000E+01 0. -1.
         15    1    1    2    0    0 -0.15348286609E+02 -0.20727909407E+01  0.16845365446E+03  0.16917345475E+03  0.17770000000E+01 0.  1.
</event>
<event>
 6    1  0.2408691E-003  0.5059204E+03  0.7546771E-02  0.9386659E-01
        -11   -1    0    0    0    0  0.00000000000E+00  0.00000000000E+00  0.50000000000E+03  0.50000000000E+03  0.00000000000E+00 0. -1.
         11   -1    0    0    0    0 -0.00000000000E+00 -0.00000000000E+00 -0.50000000000E+03  0.50000000000E+03  0.00000000000E+00 0. -1.
        -11    1    1    2    0    0  0.26865297064E+01 -0.14891268920E+02  0.44530245180E+03  0.44555946955E+03  0.00000000000E+00 0. -1.
         11    1    1    2    0    0  0.64390201259E+01  0.30084324931E+01 -0.49402850621E+03  0.49407962576E+03  0.00000000000E+00 0. -1.
        -15    1    1    2    0    0 -0.65110648728E+01  0.74227296335E+01 -0.12292128156E+01  0.10107401948E+02  0.17770000000E+01 0.  1.
         15    1    1    2    0    0 -0.26144849595E+01  0.44601067931E+01  0.49955267230E+02  0.50253502736E+02  0.17770000000E+01 0. -1.
</event>
<event>
 6    1  0.2408691E-003  0.5003807E+03  0.7546771E-02  0.9398958E-01
        -11   -1    0    0    0    0  0.00000000000E+00  0.00000000000E+00  0.50000000000E+03  0.50000000000E+03  0.00000000000E+00 0. -1.
         11   -1    0    0    0    0 -0.00000000000E+00 -0.00000000000E+00 -0.50000000000E+03  0.50000000000E+03  0.00000000000E+00 0. -1.
        -11    1    1    2    0    0  0.76297529864E+01 -0.15738781297E+01  0.49955854280E+03  0.49961928296E+03  0.00000000000E+00 0. -1.
         11    1    1    2    0    0 -0.68980118361E+01  0.52172876394E+01 -0.31640205068E+03  0.31652023684E+03  0.00000000000E+00 0. -1.
        -15    1    1    2    0    0  0.17942650491E+01 -0.21796089283E+01 -0.17480332992E+03  0.17483515654E+03  0.17770000000E+01 0. -1.
         15    1    1    2    0    0 -0.25260061994E+01 -0.14638005814E+01 -0.83531621979E+01  0.90253236600E+01  0.17770000000E+01 0.  1.
</event>
<event>
 6    1  0.2408691E-003  0.5225133E+03  0.7546771E-02  0.9350797E-01
        -11   -1    0    0    0    0  0.00000000000E+00  0.00000000000E+00  0.50000000000E+03  0.50000000000E+03  0.00000000000E+00 0. -1.
         11   -1    0    0    0    0 -0.00000000000E+00 -0.00000000000E+00 -0.50000000000E+03  0.50000000000E+03  0.00000000000E+00 0. -1.
        -11    1    1    2    0    0  0.48856891815E+01 -0.78122300725E+01  0.45448884554E+03  0.45458223856E+03  0.00000000000E+00 0. -1.
         11    1    1    2    0    0 -0.24270650075E+02  0.25798501499E+02 -0.47617106748E+03  0.47748666227E+03  0.00000000000E+00 0. -1.
        -15    1    1    2    0    0  0.20221449061E+01  0.16476158978E+02  0.23995572087E+02  0.29231799354E+02  0.17770000000E+01 0.  1.
         15    1    1    2    0    0  0.17362815987E+02 -0.34462430405E+02 -0.23133501455E+01  0.38699299817E+02  0.17770000000E+01 0. -1.
</event>
<event>
 6    1  0.2408691E-003  0.5008563E+03  0.7546771E-02  0.9397896E-01
        -11   -1    0    0    0    0  0.00000000000E+00  0.00000000000E+00  0.50000000000E+03  0.50000000000E+03  0.00000000000E+00 0. -1.
         11   -1    0    0    0    0 -0.00000000000E+00 -0.00000000000E+00 -0.50000000000E+03  0.50000000000E+03  0.00000000000E+00 0.  1.
        -11    1    1    2    0    0  0.73439740229E+00 -0.46773061542E+01  0.74903444332E+02  0.75052931356E+02  0.00000000000E+00 0. -1.
         11    1    1    2    0    0  0.48633915283E+00  0.78508155791E+01 -0.49908166889E+03  0.49914365072E+03  0.00000000000E+00 0.  1.
        -15    1    1    2    0    0 -0.16804918599E+02 -0.10311625865E+02  0.20839727406E+03  0.20933541622E+03  0.17770000000E+01 0. -1.
         15    1    1    2    0    0  0.15584182044E+02  0.71381164405E+01  0.21578095050E+03  0.21646800171E+03  0.17770000000E+01 0.  1.
</event>
<event>
 6    1  0.2408691E-003  0.5419118E+03  0.7546771E-02  0.9310623E-01
        -11   -1    0    0    0    0  0.00000000000E+00  0.00000000000E+00  0.50000000000E+03  0.50000000000E+03  0.00000000000E+00 0.  1.
         11   -1    0    0    0    0 -0.00000000000E+00 -0.00000000000E+00 -0.50000000000E+03  0.50000000000E+03  0.00000000000E+00 0. -1.
        -11    1    1    2    0    0 -0.27347118134E+01  0.88337988609E+01  0.33916129822E+03  0.33928734262E+03  0.00000000000E+00 0.  1.
         11    1    1    2    0    0 -0.12259489036E+01  0.98672900977E+01 -0.45798025803E+03  0.45808818267E+03  0.00000000000E+00 0. -1.
        -15    1    1    2    0    0  0.97320171763E+01 -0.16728837661E+01  0.15860828438E+03  0.15892531674E+03  0.17770000000E+01 0. -1.
         15    1    1    2    0    0 -0.57713564593E+01 -0.17028205192E+02 -0.39789324576E+02  0.43699157963E+02  0.17770000000E+01 0.  1.
</event>
<event>
 6    1  0.4284088E-003  0.5375259E+03  0.7546771E-02  0.9319548E-01
        -11   -1    0    0    0    0  0.00000000000E+00  0.00000000000E+00  0.50000000000E+03  0.50000000000E+03  0.00000000000E+00 0.  1.
         11   -1    0    0    0    0 -0.00000000000E+00 -0.00000000000E+00 -0.50000000000E+03  0.50000000000E+03  0.00000000000E+00 0.  1.
        -11    1    1    2    0    0 -0.34462819898E+01  0.54234086808E+01  0.43979445140E+03  0.43984139154E+03  0.00000000000E+00 0.  1.
         11    1    1    2    0    0 -0.63115780642E+01  0.94257665847E+01 -0.46233499271E+03  0.46247413611E+03  0.00000000000E+00 0.  1.
        -15    1    1    2    0    0 -0.16334541867E+01 -0.11998819823E+01  0.57955333035E+02  0.58017982088E+02  0.17770000000E+01 0.  1.
         15    1    1    2    0    0  0.11391314241E+02 -0.13649293283E+02 -0.35414791733E+02  0.39666490263E+02  0.17770000000E+01 0. -1.
</event>
<event>
 6    1  0.2408691E-003  0.5073607E+03  0.7546771E-02  0.9383489E-01
        -11   -1    0    0    0    0  0.00000000000E+00  0.00000000000E+00  0.50000000000E+03  0.50000000000E+03  0.00000000000E+00 0.  1.
         11   -1    0    0    0    0 -0.00000000000E+00 -0.00000000000E+00 -0.50000000000E+03  0.50000000000E+03  0.00000000000E+00 0.  1.
        -11    1    1    2    0    0  0.21656821141E+01  0.78772511255E+01  0.44880572753E+03  0.44888007567E+03  0.00000000000E+00 0.  1.
         11    1    1    2    0    0  0.17168163574E+01 -0.19785693759E+02 -0.49223883294E+03  0.49263931004E+03  0.00000000000E+00 0.  1.
        -15    1    1    2    0    0  0.56728358481E+01 -0.18246404523E+01 -0.45031232042E+01  0.76776446214E+01  0.17770000000E+01 0.  1.
         15    1    1    2    0    0 -0.95553343196E+01  0.13733083086E+02  0.47936228615E+02  0.50802969676E+02  0.17770000000E+01 0. -1.
</event>
<event>
 6    1  0.2408691E-003  0.5319863E+03  0.7546771E-02  0.9330951E-01
        -11   -1    0    0    0    0  0.00000000000E+00  0.00000000000E+00  0.50000000000E+03  0.50000000000E+03  0.00000000000E+00 0. -1.
         11   -1    0    0    0    0 -0.00000000000E+00 -0.00000000000E+00 -0.50000000000E+03  0.50000000000E+03  0.00000000000E+00 0. -1.
        -11    1    1    2    0    0 -0.52734494320E+01  0.23629681215E+01  0.36171054959E+03  0.36175670633E+03  0.00000000000E+00 0. -1.
         11    1    1    2    0    0  0.10504366908E+02 -0.36234248237E+02 -0.46649063871E+03  0.46801365202E+03  0.00000000000E+00 0. -1.
        -15    1    1    2    0    0 -0.10881700486E+02  0.51024608787E+02 -0.10737624324E+02  0.53295181888E+02  0.17770000000E+01 0. -1.
         15    1    1    2    0    0  0.56507830104E+01 -0.17153328672E+02  0.11551771344E+03  0.11693445976E+03  0.17770000000E+01 0.  1.
</event>
<event>
 6    1  0.2408691E-003  0.5045539E+03  0.7546771E-02  0.9389677E-01
        -11   -1    0    0    0    0  0.00000000000E+00  0.00000000000E+00  0.50000000000E+03  0.50000000000E+03  0.00000000000E+00 0. -1.
         11   -1    0    0    0    0 -0.00000000000E+00 -0.00000000000E+00 -0.50000000000E+03  0.50000000000E+03  0.00000000000E+00 0. -1.
        -11    1    1    2    0    0  0.18024110525E+01  0.16469703278E+02  0.48008468272E+03  0.48037048452E+03  0.00000000000E+00 0. -1.
         11    1    1    2    0    0  0.88859174059E+00 -0.71618575332E+01 -0.49539354505E+03  0.49544610834E+03  0.00000000000E+00 0. -1.
        -15    1    1    2    0    0 -0.12744360719E+01  0.41460827678E+01  0.62217289042E+01  0.77898542462E+01  0.17770000000E+01 0.  1.
         15    1    1    2    0    0 -0.14165667212E+01 -0.13453928512E+02  0.90871334188E+01  0.16393552893E+02  0.17770000000E+01 0. -1.
</event>
<event>
 6    1  0.2408691E-003  0.4967563E+03  0.7546771E-02  0.9407097E-01
        -11   -1    0    0    0    0  0.00000000000E+00  0.00000000000E+00  0.50000000000E+03  0.50000000000E+03  0.00000000000E+00 0. -1.
         11   -1    0    0    0    0 -0.00000000000E+00 -0.00000000000E+00 -0.50000000000E+03  0.50000000000E+03  0.00000000000E+00 0.  1.
        -11    1    1    2    0    0 -0.16434995949E+02  0.14827928656E+02  0.49926162470E+03  0.49975208500E+03  0.00000000000E+00 0. -1.
         11    1    1    2    0    0  0.52678467494E+00  0.31846685932E+00 -0.69016504027E+01  0.69290476630E+01  0.00000000000E+00 0.  1.
        -15    1    1    2    0    0  0.43492861963E+00 -0.94916214771E+01 -0.32429965047E+03  0.32444367934E+03  0.17770000000E+01 0. -1.
         15    1    1    2    0    0  0.15473282655E+02 -0.56547740380E+01 -0.16806032383E+03  0.16887518800E+03  0.17770000000E+01 0.  1.
</event>
<event>
 6    1  0.2408691E-003  0.5025298E+03  0.7546771E-02  0.9394167E-01
        -11   -1    0    0    0    0  0.00000000000E+00  0.00000000000E+00  0.50000000000E+03  0.50000000000E+03  0.00000000000E+00 0.  1.
         11   -1    0    0    0    0 -0.00000000000E+00 -0.00000000000E+00 -0.50000000000E+03  0.50000000000E+03  0.00000000000E+00 0. -1.
        -11    1    1    2    0    0 -0.75634950811E+01 -0.25324291278E+01  0.49740629250E+03  0.49747023979E+03  0.00000000000E+00 0.  1.
         11    1    1    2    0    0  0.22627443110E+01  0.17357011605E+02 -0.44831363637E+03  0.44865521552E+03  0.00000000000E+00 0. -1.
        -15    1    1    2    0    0  0.70471345641E+01 -0.28606212315E+00 -0.13242579669E+02  0.15108526811E+02  0.17770000000E+01 0. -1.
         15    1    1    2    0    0 -0.17463837940E+01 -0.14538520354E+02 -0.35850076466E+02  0.38766017877E+02  0.17770000000E+01 0.  1.
</event>
<event>
 6    1  0.2408691E-003  0.5046966E+03  0.7546771E-02  0.9389362E-01
        -11   -1    0    0    0    0  0.00000000000E+00  0.00000000000E+00  0.50000000000E+03  0.50000000000E+03  0.00000000000E+00 0.  1.
         11   -1    0    0    0    0 -0.00000000000E+00 -0.00000000000E+00 -0.50000000000E+03  0.50000000000E+03  0.00000000000E+00 0. -1.
        -11    1    1    2    0    0 -0.24689306895E+01 -0.87245854734E+01  0.49522041714E+03  0.49530341768E+03  0.00000000000E+00 0.  1.
         11    1    1    2    0    0  0.66999523535E+01  0.45795767196E+01 -0.32983126798E+03  0.32993109466E+03  0.00000000000E+00 0. -1.
        -15    1    1    2    0    0 -0.22504062391E+02  0.10722425840E+01 -0.14654602195E+03  0.14827837606E+03  0.17770000000E+01 0.  1.
         15    1    1    2    0    0  0.18273040727E+02  0.30727661697E+01 -0.18843127206E+02  0.26487111606E+02  0.17770000000E+01 0. -1.
</event>
<event>
 6    1  0.2408691E-003  0.5033202E+03  0.7546771E-02  0.9392411E-01
        -11   -1    0    0    0    0  0.00000000000E+00  0.00000000000E+00  0.50000000000E+03  0.50000000000E+03  0.00000000000E+00 0. -1.
         11   -1    0    0    0    0 -0.00000000000E+00 -0.00000000000E+00 -0.50000000000E+03  0.50000000000E+03  0.00000000000E+00 0.  1.
        -11    1    1    2    0    0  0.56174942091E+01  0.58824564718E+01  0.41757179033E+03  0.41765100217E+03  0.00000000000E+00 0. -1.
         11    1    1    2    0    0 -0.41687563879E+01  0.12467569825E+02 -0.49650580147E+03  0.49667980603E+03  0.00000000000E+00 0.  1.
        -15    1    1    2    0    0  0.14894004661E+01 -0.59560139355E+01  0.75091728740E+00  0.64353726792E+01  0.17770000000E+01 0.  1.
         15    1    1    2    0    0 -0.29381382872E+01 -0.12394012361E+02  0.78183093852E+02  0.79233819120E+02  0.17770000000E+01 0. -1.
</event>
<event>
 6    1  0.2408691E-003  0.5053187E+03  0.7546771E-02  0.9387987E-01
        -11   -1    0    0    0    0  0.00000000000E+00  0.00000000000E+00  0.50000000000E+03  0.50000000000E+03  0.00000000000E+00 0. -1.
         11   -1    0    0    0    0 -0.00000000000E+00 -0.00000000000E+00 -0.50000000000E+03  0.50000000000E+03  0.00000000000E+00 0. -1.
        -11    1    1    2    0    0  0.21587360455E+01  0.17810370206E+02  0.18512117466E+03  0.18598849087E+03  0.00000000000E+00 0. -1.
         11    1    1    2    0    0 -0.94092515555E+01 -0.78706323027E+01 -0.49452914702E+03  0.49468126923E+03  0.00000000000E+00 0. -1.
        -15    1    1    2    0    0  0.21750564009E+02  0.42692515162E+01  0.22273480283E+02  0.31473468129E+02  0.17770000000E+01 0.  1.
         15    1    1    2    0    0 -0.14500048499E+02 -0.14208989419E+02  0.28713449208E+03  0.28785677178E+03  0.17770000000E+01 0. -1.
</event>
<event>
 6    1  0.2408691E-003  0.5004465E+03  0.7546771E-02  0.9398811E-01
        -11   -1    0    0    0    0  0.00000000000E+00  0.00000000000E+00  0.50000000000E+03  0.50000000000E+03  0.00000000000E+00 0.  1.
         11   -1    0    0    0    0 -0.00000000000E+00 -0.00000000000E+00 -0.50000000000E+03  0.50000000000E+03  0.00000000000E+00 0.  1.
        -11    1    1    2    0    0 -0.52463155446E+00  0.15985859006E+01  0.45307146475E+02  0.45338374881E+02  0.00000000000E+00 0.  1.
         11    1    1    2    0    0  0.10125165078E+02  0.47662074565E+01 -0.49942817364E+03  0.49955353699E+03  0.00000000000E+00 0.  1.
        -15    1    1    2    0    0  0.84684085145E+01 -0.25464189745E+01  0.24489831807E+03  0.24506436321E+03  0.17770000000E+01 0. -1.
         15    1    1    2    0    0 -0.18068942038E+02 -0.38183743825E+01  0.20922270909E+03  0.21004372492E+03  0.17770000000E+01 0.  1.
</event>
<event>
 6    1  0.2408691E-003  0.5066426E+03  0.7546771E-02  0.9385068E-01
        -11   -1    0    0    0    0  0.00000000000E+00  0.00000000000E+00  0.50000000000E+03  0.50000000000E+03  0.00000000000E+00 0. -1.
         11   -1    0    0    0    0 -0.00000000000E+00 -0.00000000000E+00 -0.50000000000E+03  0.50000000000E+03  0.00000000000E+00 0. -1.
        -11    1    1    2    0    0 -0.37697823722E+01  0.98665242688E+01  0.44032777031E+03  0.44045442995E+03  0.00000000000E+00 0. -1.
         11    1    1    2    0    0 -0.65104639755E+01 -0.81993961807E+01 -0.49324631428E+03  0.49335741891E+03  0.00000000000E+00 0. -1.
        -15    1    1    2    0    0  0.11158879057E+02 -0.55008002887E-01  0.58747205028E+02  0.59824037270E+02  0.17770000000E+01 0.  1.
         15    1    1    2    0    0 -0.87863270907E+00 -0.16121200853E+01 -0.58286610573E+01  0.63641138682E+01  0.17770000000E+01 0. -1.
</event>
<event>
 6    1  0.2408691E-003  0.5024850E+03  0.7546771E-02  0.9394266E-01
        -11   -1    0    0    0    0  0.00000000000E+00  0.00000000000E+00  0.50000000000E+03  0.50000000000E+03  0.00000000000E+00 0. -1.
         11   -1    0    0    0    0 -0.00000000000E+00 -0.00000000000E+00 -0.50000000000E+03  0.50000000000E+03  0.00000000000E+00 0. -1.
        -11    1    1    2    0    0 -0.10120243293E+02  0.32246545371E+01  0.36080601343E+03  0.36096232082E+03  0.00000000000E+00 0. -1.
         11    1    1    2    0    0  0.65218567538E+01  0.69060197487E+01 -0.49742428705E+03  0.49751497371E+03  0.00000000000E+00 0. -1.
        -15    1    1    2    0    0 -0.34343827893E+01 -0.30613923533E+01  0.42169897828E+00  0.49500169002E+01  0.17770000000E+01 0.  1.
         15    1    1    2    0    0  0.70327693281E+01 -0.70692819326E+01  0.13619657464E+03  0.13657268857E+03  0.17770000000E+01 0. -1.
</event>
<event>
 6    1  0.2408691E-003  0.5074984E+03  0.7546771E-02  0.9383186E-01
        -11   -1    0    0    0    0  0.00000000000E+00  0.00000000000E+00  0.50000000000E+03  0.50000000000E+03  0.00000000000E+00 0. -1.
         11   -1    0    0    0    0 -0.00000000000E+00 -0.00000000000E+00 -0.50000000000E+03  0.50000000000E+03  0.00000000000E+00 0.  1.
        -11    1    1    2    0    0 -0.28787326077E+02 -0.30848105986E+02  0.49069081153E+03  0.49250156173E+03  0.00000000000E+00 0. -1.
         11    1    1    2    0    0 -0.31201427483E+01  0.82388646953E+01 -0.35517309550E+03  0.35528234117E+03  0.00000000000E+00 0.  1.
        -15    1    1    2    0    0  0.26487599354E+02  0.27746479851E+02 -0.36756186931E+02  0.53156702967E+02  0.17770000000E+01 0.  1.
         15    1    1    2    0    0  0.54198694714E+01 -0.51372385604E+01 -0.98761529107E+02  0.99059394131E+02  0.17770000000E+01 0. -1.
</event>
<event>
 6    1  0.2408691E-003  0.5027025E+03  0.7546771E-02  0.9393783E-01
        -11   -1    0    0    0    0  0.00000000000E+00  0.00000000000E+00  0.50000000000E+03  0.50000000000E+03  0.00000000000E+00 0. -1.
         11   -1    0    0    0    0 -0.00000000000E+00 -0.00000000000E+00 -0.50000000000E+03  0.50000000000E+03  0.00000000000E+00 0. -1.
        -11    1    1    2    0    0  0.13585419087E+02 -0.76496533051E+00  0.49711126375E+03  0.49729745357E+03  0.00000000000E+00 0. -1.
         11    1    1    2    0    0  0.16403436733E+02 -0.12987123852E+02 -0.31229602723E+03  0.31299608104E+03  0.00000000000E+00 0. -1.
        -15    1    1    2    0    0 -0.23989876565E+02  0.18289622309E+02 -0.98134650273E+02  0.10268199343E+03  0.17770000000E+01 0. -1.
         15    1    1    2    0    0 -0.59989792547E+01 -0.45375331268E+01 -0.86680586245E+02  0.87024471959E+02  0.17770000000E+01 0.  1.
</event>
<event>
 6    1  0.2408691E-003  0.4821080E+03  0.7546771E-02  0.9440759E-01
        -11   -1    0    0    0    0  0.00000000000E+00  0.00000000000E+00  0.50000000000E+03  0.50000000000E+03  0.00000000000E+00 0.  1.
         11   -1    0    0    0    0 -0.00000000000E+00 -0.00000000000E+00 -0.50000000000E+03  0.50000000000E+03  0.00000000000E+00 0.  1.
        -11    1    1    2    0    0  0.63991781023E+01  0.14775210979E+01  0.48616332307E+03  0.48620768119E+03  0.00000000000E+00 0.  1.
         11    1    1    2    0    0 -0.22252731852E+02  0.92708159155E+01 -0.47762843714E+03  0.47823640187E+03  0.00000000000E+00 0.  1.
        -15    1    1    2    0    0  0.18123389070E+02 -0.17790667056E+02 -0.20195427591E+01  0.25538233056E+02  0.17770000000E+01 0.  1.
         15    1    1    2    0    0 -0.22698353202E+01  0.70423300423E+01 -0.65153431686E+01  0.10017683885E+02  0.17770000000E+01 0. -1.
</event>
<event>
 6    1  0.2408691E-003  0.5087829E+03  0.7546771E-02  0.9380369E-01
        -11   -1    0    0    0    0  0.00000000000E+00  0.00000000000E+00  0.50000000000E+03  0.50000000000E+03  0.00000000000E+00 0. -1.
         11   -1    0    0    0    0 -0.00000000000E+00 -0.00000000000E+00 -0.50000000000E+03  0.50000000000E+03  0.00000000000E+00 0.  1.
        -11    1    1    2    0    0  0.38834359622E+01  0.10886699984E+02  0.48177240005E+03  0.48191103615E+03  0.00000000000E+00 0. -1.
         11    1    1    2    0    0  0.26817944821E+01 -0.60789509305E+01 -0.49117217460E+03  0.49121711164E+03  0.00000000000E+00 0.  1.
        -15    1    1    2    0    0  0.28631381118E+00  0.14714520682E+01 -0.73090656145E+01  0.76698967363E+01  0.17770000000E+01 0.  1.
         15    1    1    2    0    0 -0.68515442555E+01 -0.62792011213E+01  0.16708840168E+02  0.19201955478E+02  0.17770000000E+01 0. -1.
</event>
<event>
 6    1  0.2408691E-003  0.3980950E+03  0.7546771E-02  0.9662046E-01
        -11   -1    0    0    0    0  0.00000000000E+00  0.00000000000E+00  0.50000000000E+03  0.50000000000E+03  0.00000000000E+00 0.  1.
         11   -1    0    0    0    0 -0.00000000000E+00 -0.00000000000E+00 -0.50000000000E+03  0.50000000000E+03  0.00000000000E+00 0. -1.
        -11    1    1    2    0    0 -0.19158874391E+01 -0.59296573396E+02  0.39862811218E+03  0.40301876639E+03  0.00000000000E+00 0.  1.
         11    1    1    2    0    0  0.25814507088E+02 -0.14738033962E+02 -0.39585322709E+03  0.39696772642E+03  0.00000000000E+00 0. -1.
        -15    1    1    2    0    0  0.88197820407E+01  0.23448731911E+02  0.87742443595E+02  0.91266235381E+02  0.17770000000E+01 0.  1.
         15    1    1    2    0    0 -0.32718401690E+02  0.50585875447E+02 -0.90517328689E+02  0.10874727181E+03  0.17770000000E+01 0. -1.
</event>
<event>
 6    1  0.2408691E-003  0.5103253E+03  0.7546771E-02  0.9376998E-01
        -11   -1    0    0    0    0  0.00000000000E+00  0.00000000000E+00  0.50000000000E+03  0.50000000000E+03  0.00000000000E+00 0.  1.
         11   -1    0    0    0    0 -0.00000000000E+00 -0.00000000000E+00 -0.50000000000E+03  0.50000000000E+03  0.00000000000E+00 0.  1.
        -11    1    1    2    0    0  0.62759513028E+01 -0.52969696039E+01  0.35675858950E+03  0.35685310232E+03  0.00000000000E+00 0.  1.
         11    1    1    2    0    0 -0.12515587817E+02  0.10581258622E+01 -0.48951362856E+03  0.48967474115E+03  0.00000000000E+00 0.  1.
        -15    1    1    2    0    0  0.13195228695E+02 -0.18240843661E+01 -0.57726809545E+01  0.14626104009E+02  0.17770000000E+01 0. -1.
         15    1    1    2    0    0 -0.69555921808E+01  0.60629281078E+01  0.13852772001E+03  0.13884605252E+03  0.17770000000E+01 0. -1.
</event>
<event>
 6    1  0.2408691E-003  0.2890060E+03  0.7546771E-02  0.1005676E+00
        -11   -1    0    0    0    0  0.00000000000E+00  0.00000000000E+00  0.50000000000E+03  0.50000000000E+03  0.00000000000E+00 0. -1.
         11   -1    0    0    0    0 -0.00000000000E+00 -0.00000000000E+00 -0.50000000000E+03  0.50000000000E+03  0.00000000000E+00 0. -1.
        -11    1    1    2    0    0  0.52082083494E+02  0.83414374037E+02  0.41728845641E+03  0.42871920539E+03  0.00000000000E+00 0. -1.
         11    1    1    2    0    0  0.10178163728E+03 -0.16233522942E+01 -0.10540913492E+03  0.14653744466E+03  0.00000000000E+00 0. -1.
        -15    1    1    2    0    0 -0.10737417269E+03 -0.14531550590E+03 -0.11885316634E+03  0.21627538485E+03  0.17770000000E+01 0.  1.
         15    1    1    2    0    0 -0.46489548085E+02  0.63524484159E+02 -0.19302615515E+03  0.20846796510E+03  0.17770000000E+01 0. -1.
</event>
<event>
 6    1  0.2408691E-003  0.5173125E+03  0.7546771E-02  0.9361884E-01
        -11   -1    0    0    0    0  0.00000000000E+00  0.00000000000E+00  0.50000000000E+03  0.50000000000E+03  0.00000000000E+00 0.  1.
         11   -1    0    0    0    0 -0.00000000000E+00 -0.00000000000E+00 -0.50000000000E+03  0.50000000000E+03  0.00000000000E+00 0. -1.
        -11    1    1    2    0    0 -0.22929705904E+01 -0.61685760302E+01  0.48264261633E+03  0.48268748083E+03  0.00000000000E+00 0.  1.
         11    1    1    2    0    0 -0.77896274145E+00  0.58739373475E+01 -0.36554231361E+03  0.36559033489E+03  0.00000000000E+00 0. -1.
        -15    1    1    2    0    0 -0.19997787789E+02 -0.88257939085E+01  0.86209848460E+01  0.23564491577E+02  0.17770000000E+01 0. -1.
         15    1    1    2    0    0  0.23069721121E+02  0.91204325912E+01 -0.12572128757E+03  0.12815769271E+03  0.17770000000E+01 0.  1.
</event>
<event>
 6    1  0.2408691E-003  0.5028264E+03  0.7546771E-02  0.9393508E-01
        -11   -1    0    0    0    0  0.00000000000E+00  0.00000000000E+00  0.50000000000E+03  0.50000000000E+03  0.00000000000E+00 0.  1.
         11   -1    0    0    0    0 -0.00000000000E+00 -0.00000000000E+00 -0.50000000000E+03  0.50000000000E+03  0.00000000000E+00 0. -1.
        -11    1    1    2    0    0 -0.79548281968E+01 -0.35164488676E+01  0.49709754085E+03  0.49717362140E+03  0.00000000000E+00 0.  1.
         11    1    1    2    0    0  0.11337793817E+02 -0.89284106314E+01 -0.46775272142E+03  0.46797528832E+03  0.00000000000E+00 0. -1.
        -15    1    1    2    0    0 -0.67899591853E+01  0.12470812724E+02 -0.26327751431E+02  0.29965529199E+02  0.17770000000E+01 0.  1.
         15    1    1    2    0    0  0.34069935647E+01 -0.25953224771E-01 -0.30170679975E+01  0.48855610754E+01  0.17770000000E+01 0. -1.
</event>
<event>
 6    1  0.2408691E-003  0.5024366E+03  0.7546771E-02  0.9394374E-01
        -11   -1    0    0    0    0  0.00000000000E+00  0.00000000000E+00  0.50000000000E+03  0.50000000000E+03  0.00000000000E+00 0. -1.
         11   -1    0    0    0    0 -0.00000000000E+00 -0.00000000000E+00 -0.50000000000E+03  0.50000000000E+03  0.00000000000E+00 0.  1.
        -11    1    1    2    0    0  0.24544568170E+02 -0.77973259436E+01  0.49689644825E+03  0.49756337727E+03  0.00000000000E+00 0. -1.
         11    1    1    2    0    0  0.34879985220E+01  0.68200469122E+01 -0.29220245228E+03  0.29230284346E+03  0.00000000000E+00 0.  1.
        -15    1    1    2    0    0 -0.71533065907E+01 -0.14802731165E+01 -0.16508437334E+03  0.16525546603E+03  0.17770000000E+01 0.  1.
         15    1    1    2    0    0 -0.20879260102E+02  0.24575521479E+01 -0.39609622635E+02  0.44878313239E+02  0.17770000000E+01 0. -1.
</event>
<event>
 6    1  0.2408691E-003  0.5030690E+03  0.7546771E-02  0.9392969E-01
        -11   -1    0    0    0    0  0.00000000000E+00  0.00000000000E+00  0.50000000000E+03  0.50000000000E+03  0.00000000000E+00 0.  1.
         11   -1    0    0    0    0 -0.00000000000E+00 -0.00000000000E+00 -0.50000000000E+03  0.50000000000E+03  0.00000000000E+00 0.  1.
        -11    1    1    2    0    0 -0.64895490953E+01  0.10392414532E+01  0.46541800535E+03  0.46546440678E+03  0.00000000000E+00 0.  1.
         11    1    1    2    0    0 -0.45382246924E+01 -0.95430018884E+01 -0.49681866766E+03  0.49693103436E+03  0.00000000000E+00 0.  1.
        -15    1    1    2    0    0  0.10181730691E+02  0.27826047003E+01  0.29310054561E+02  0.31203326043E+02  0.17770000000E+01 0.  1.
         15    1    1    2    0    0  0.84604309707E+00  0.57211557349E+01  0.20906077491E+01  0.64012328208E+01  0.17770000000E+01 0. -1.
</event>
<event>
 6    1  0.2408691E-003  0.5347566E+03  0.7546771E-02  0.9325230E-01
        -11   -1    0    0    0    0  0.00000000000E+00  0.00000000000E+00  0.50000000000E+03  0.50000000000E+03  0.00000000000E+00 0. -1.
         11   -1    0    0    0    0 -0.00000000000E+00 -0.00000000000E+00 -0.50000000000E+03  0.50000000000E+03  0.00000000000E+00 0.  1.
        -11    1    1    2    0    0 -0.97779960349E+01  0.35731089696E+02  0.41650283697E+03  0.41814702341E+03  0.00000000000E+00 0. -1.
         11    1    1    2    0    0  0.74682708685E+01 -0.39080700853E+01 -0.46516698956E+03  0.46524335165E+03  0.00000000000E+00 0.  1.
        -15    1    1    2    0    0 -0.33630474511E+02 -0.52507418987E+02  0.17747408286E+02  0.64854961988E+02  0.17770000000E+01 0.  1.
         15    1    1    2    0    0  0.35940199678E+02  0.20684399376E+02  0.30916744298E+02  0.51754662953E+02  0.17770000000E+01 0. -1.
</event>
<event>
 6    1  0.2408691E-003  0.4815833E+03  0.7546771E-02  0.9441988E-01
        -11   -1    0    0    0    0  0.00000000000E+00  0.00000000000E+00  0.50000000000E+03  0.50000000000E+03  0.00000000000E+00 0.  1.
         11   -1    0    0    0    0 -0.00000000000E+00 -0.00000000000E+00 -0.50000000000E+03  0.50000000000E+03  0.00000000000E+00 0.  1.
        -11    1    1    2    0    0 -0.82524658136E+01  0.74224822125E+01  0.48452087480E+03  0.48464799035E+03  0.00000000000E+00 0.  1.
         11    1    1    2    0    0 -0.19807010723E+02 -0.22292088231E+01 -0.47854492738E+03  0.47895984651E+03  0.00000000000E+00 0.  1.
        -15    1    1    2    0    0  0.21013774515E+02 -0.71887536333E+01  0.52321849810E+01  0.22886467330E+02  0.17770000000E+01 0.  1.
         15    1    1    2    0    0  0.70457020218E+01  0.19954802439E+01 -0.11208132398E+02  0.13505695807E+02  0.17770000000E+01 0. -1.
</event>
<event>
 6    1  0.2408691E-003  0.5014050E+03  0.7546771E-02  0.9396671E-01
        -11   -1    0    0    0    0  0.00000000000E+00  0.00000000000E+00  0.50000000000E+03  0.50000000000E+03  0.00000000000E+00 0. -1.
         11   -1    0    0    0    0 -0.00000000000E+00 -0.00000000000E+00 -0.50000000000E+03  0.50000000000E+03  0.00000000000E+00 0.  1.
        -11    1    1    2    0    0  0.27369159005E+01  0.85122871710E+00  0.14527536957E+03  0.14530364173E+03  0.00000000000E+00 0. -1.
         11    1    1    2    0    0 -0.94599004009E+00  0.73883795748E+01 -0.49853931922E+03  0.49859496172E+03  0.00000000000E+00 0.  1.
        -15    1    1    2    0    0 -0.10857419281E+02 -0.12283326602E+02  0.33355155691E+03  0.33395892339E+03  0.17770000000E+01 0.  1.
         15    1    1    2    0    0  0.90664934210E+01  0.40437183102E+01  0.19712392745E+02  0.22142473156E+02  0.17770000000E+01 0. -1.
</event>
<event>
 6    1  0.2408691E-003  0.4836305E+03  0.7546771E-02  0.9437202E-01
        -11   -1    0    0    0    0  0.00000000000E+00  0.00000000000E+00  0.50000000000E+03  0.50000000000E+03  0.00000000000E+00 0.  1.
         11   -1    0    0    0    0 -0.00000000000E+00 -0.00000000000E+00 -0.50000000000E+03  0.50000000000E+03  0.00000000000E+00 0. -1.
        -11    1    1    2    0    0 -0.69462613140E+01  0.57108881793E+01  0.48368542447E+03  0.48376900959E+03  0.00000000000E+00 0.  1.
         11    1    1    2    0    0 -0.26112294104E+01  0.16085745090E+02 -0.48351016908E+03  0.48378471795E+03  0.00000000000E+00 0. -1.
        -15    1    1    2    0    0  0.12780381381E+02 -0.16578601316E+02  0.76398549845E+01  0.22354267669E+02  0.17770000000E+01 0. -1.
         15    1    1    2    0    0 -0.32228906566E+01 -0.52180319539E+01 -0.78151103712E+01  0.10092004794E+02  0.17770000000E+01 0.  1.
</event>
<event>
 6    1  0.2408691E-003  0.5098102E+03  0.7546771E-02  0.9378122E-01
        -11   -1    0    0    0    0  0.00000000000E+00  0.00000000000E+00  0.50000000000E+03  0.50000000000E+03  0.00000000000E+00 0. -1.
         11   -1    0    0    0    0 -0.00000000000E+00 -0.00000000000E+00 -0.50000000000E+03  0.50000000000E+03  0.00000000000E+00 0.  1.
        -11    1    1    2    0    0 -0.21955645181E+00  0.66970248557E+01  0.49014400830E+03  0.49018980734E+03  0.00000000000E+00 0. -1.
         11    1    1    2    0    0 -0.30490793291E+01  0.17508674082E+02 -0.45239626401E+03  0.45274521559E+03  0.00000000000E+00 0.  1.
        -15    1    1    2    0    0  0.10403271971E+02  0.56981579382E+01 -0.11073466665E+02  0.16324106854E+02  0.17770000000E+01 0.  1.
         15    1    1    2    0    0 -0.71346361901E+01 -0.29903856876E+02 -0.26674277629E+02  0.40740870213E+02  0.17770000000E+01 0. -1.
</event>
<event>
 6    1  0.2408691E-003  0.5689525E+03  0.7546771E-02  0.9257503E-01
        -11   -1    0    0    0    0  0.00000000000E+00  0.00000000000E+00  0.50000000000E+03  0.50000000000E+03  0.00000000000E+00 0.  1.
         11   -1    0    0    0    0 -0.00000000000E+00 -0.00000000000E+00 -0.50000000000E+03  0.50000000000E+03  0.00000000000E+00 0. -1.
        -11    1    1    2    0    0  0.35363273056E+02  0.29929617695E+02  0.40192470287E+03  0.40458597340E+03  0.00000000000E+00 0.  1.
         11    1    1    2    0    0 -0.10499777531E+02 -0.54140622965E+02 -0.42750500916E+03  0.43104754406E+03  0.00000000000E+00 0. -1.
        -15    1    1    2    0    0 -0.25885340513E+02  0.65425747384E+02 -0.44334254334E+02  0.83182108116E+02  0.17770000000E+01 0. -1.
         15    1    1    2    0    0  0.10218449886E+01 -0.41214742114E+02  0.69914560623E+02  0.81184374425E+02  0.17770000000E+01 0.  1.
</event>
<event>
 6    1  0.2408691E-003  0.5050121E+03  0.7546771E-02  0.9388664E-01
        -11   -1    0    0    0    0  0.00000000000E+00  0.00000000000E+00  0.50000000000E+03  0.50000000000E+03  0.00000000000E+00 0.  1.
         11   -1    0    0    0    0 -0.00000000000E+00 -0.00000000000E+00 -0.50000000000E+03  0.50000000000E+03  0.00000000000E+00 0. -1.
        -11    1    1    2    0    0  0.62938440389E+00  0.34758153298E+02  0.49376559648E+03  0.49498786814E+03  0.00000000000E+00 0.  1.
         11    1    1    2    0    0  0.72269762329E-01 -0.43503662893E+01 -0.31847550041E+03  0.31850522016E+03  0.00000000000E+00 0. -1.
        -15    1    1    2    0    0 -0.15752519461E+02 -0.34146627780E+02 -0.64980397415E+02  0.75098227911E+02  0.17770000000E+01 0.  1.
         15    1    1    2    0    0  0.15050865295E+02  0.37388407720E+01 -0.11030969865E+03  0.11140868378E+03  0.17770000000E+01 0. -1.
</event>
<event>
 6    1  0.2408691E-003  0.5062264E+03  0.7546771E-02  0.9385985E-01
        -11   -1    0    0    0    0  0.00000000000E+00  0.00000000000E+00  0.50000000000E+03  0.50000000000E+03  0.00000000000E+00 0. -1.
         11   -1    0    0    0    0 -0.00000000000E+00 -0.00000000000E+00 -0.50000000000E+03  0.50000000000E+03  0.00000000000E+00 0. -1.
        -11    1    1    2    0    0 -0.13011186002E+02  0.75682940390E+01  0.43576376644E+03  0.43602365782E+03  0.00000000000E+00 0. -1.
         11    1    1    2    0    0 -0.14449898591E+02 -0.55473558425E+01 -0.49353097767E+03  0.49377363097E+03  0.00000000000E+00 0. -1.
        -15    1    1    2    0    0  0.50505256606E+00  0.10078854248E+02  0.16339013223E+02  0.19286250624E+02  0.17770000000E+01 0.  1.
         15    1    1    2    0    0  0.26956032028E+02 -0.12099792444E+02  0.41428198003E+02  0.50916460586E+02  0.17770000000E+01 0. -1.
</event>
<event>
 6    1  0.2408691E-003  0.5077141E+03  0.7546771E-02  0.9382712E-01
        -11   -1    0    0    0    0  0.00000000000E+00  0.00000000000E+00  0.50000000000E+03  0.50000000000E+03  0.00000000000E+00 0.  1.
         11   -1    0    0    0    0 -0.00000000000E+00 -0.00000000000E+00 -0.50000000000E+03  0.50000000000E+03  0.00000000000E+00 0. -1.
        -11    1    1    2    0    0 -0.21324012992E+01  0.16017807068E+02  0.47301560310E+03  0.47329153600E+03  0.00000000000E+00 0.  1.
         11    1    1    2    0    0  0.13780781017E+02 -0.84501504774E+01 -0.49202046291E+03  0.49228594423E+03  0.00000000000E+00 0. -1.
        -15    1    1    2    0    0 -0.56457363410E-01 -0.36772721505E+01  0.21442936531E+02  0.21828485380E+02  0.17770000000E+01 0.  1.
         15    1    1    2    0    0 -0.11591922354E+02 -0.38903844398E+01 -0.24380767194E+01  0.12594034383E+02  0.17770000000E+01 0. -1.
</event>
<event>
 6    1  0.2408691E-003  0.5007779E+03  0.7546771E-02  0.9398071E-01
        -11   -1    0    0    0    0  0.00000000000E+00  0.00000000000E+00  0.50000000000E+03  0.50000000000E+03  0.00000000000E+00 0.  1.
         11   -1    0    0    0    0 -0.00000000000E+00 -0.00000000000E+00 -0.50000000000E+03  0.50000000000E+03  0.00000000000E+00 0.  1.
        -11    1    1    2    0    0  0.10430195538E+02  0.10440391587E+01  0.49911203442E+03  0.49922209677E+03  0.00000000000E+00 0.  1.
         11    1    1    2    0    0 -0.39233679877E+01  0.22948100770E+01 -0.32024784958E+03  0.32028010261E+03  0.00000000000E+00 0.  1.
        -15    1    1    2    0    0 -0.10067351630E+02 -0.26241001600E+01 -0.17329345189E+03  0.17361456065E+03  0.17770000000E+01 0.  1.
         15    1    1    2    0    0  0.35605240800E+01 -0.71474907567E+00 -0.55707329492E+01  0.68832399753E+01  0.17770000000E+01 0.  1.
</event>
<event>
 6    1  0.2408691E-003  0.5133197E+03  0.7546771E-02  0.9370489E-01
        -11   -1    0    0    0    0  0.00000000000E+00  0.00000000000E+00  0.50000000000E+03  0.50000000000E+03  0.00000000000E+00 0. -1.
         11   -1    0    0    0    0 -0.00000000000E+00 -0.00000000000E+00 -0.50000000000E+03  0.50000000000E+03  0.00000000000E+00 0.  1.
        -11    1    1    2    0    0 -0.44927693246E+00 -0.84815912701E+01  0.45466511774E+03  0.45474444310E+03  0.00000000000E+00 0. -1.
         11    1    1    2    0    0  0.53723126337E+01  0.38099352010E+01 -0.48663578250E+03  0.48668034905E+03  0.00000000000E+00 0.  1.
        -15    1    1    2    0    0 -0.61780309135E+01 -0.33586660811E+01 -0.11892626222E+02  0.13929859700E+02  0.17770000000E+01 0.  1.
         15    1    1    2    0    0  0.12549952122E+01  0.80303221502E+01  0.43863290982E+02  0.44645348152E+02  0.17770000000E+01 0.  1.
</event>
<event>
 6    1  0.2408691E-003  0.5010095E+03  0.7546771E-02  0.9397554E-01
        -11   -1    0    0    0    0  0.00000000000E+00  0.00000000000E+00  0.50000000000E+03  0.50000000000E+03  0.00000000000E+00 0. -1.
         11   -1    0    0    0    0 -0.00000000000E+00 -0.00000000000E+00 -0.50000000000E+03  0.50000000000E+03  0.00000000000E+00 0. -1.
        -11    1    1    2    0    0  0.63352065771E+01  0.96090530086E+01  0.49885776321E+03  0.49899051760E+03  0.00000000000E+00 0. -1.
         11    1    1    2    0    0 -0.51939001447E+01 -0.10205835548E+02 -0.34186184510E+03  0.34205358764E+03  0.00000000000E+00 0. -1.
        -15    1    1    2    0    0  0.50349914200E+00 -0.11554187825E+02 -0.56483353822E+02  0.57682577575E+02  0.17770000000E+01 0. -1.
         15    1    1    2    0    0 -0.16448055744E+01  0.12150970364E+02 -0.10051256429E+03  0.10127331719E+03  0.17770000000E+01 0.  1.
</event>
<event>
 6    1  0.2408691E-003  0.5065445E+03  0.7546771E-02  0.9385284E-01
        -11   -1    0    0    0    0  0.00000000000E+00  0.00000000000E+00  0.50000000000E+03  0.50000000000E+03  0.00000000000E+00 0.  1.
         11   -1    0    0    0    0 -0.00000000000E+00 -0.00000000000E+00 -0.50000000000E+03  0.50000000000E+03  0.00000000000E+00 0. -1.
        -11    1    1    2    0    0 -0.12379782764E+02 -0.85303598426E+01  0.49322645921E+03  0.49345553612E+03  0.00000000000E+00 0.  1.
         11    1    1    2    0    0 -0.10840892813E+02  0.23325781708E+01 -0.38857086880E+03  0.38872906498E+03  0.00000000000E+00 0. -1.
        -15    1    1    2    0    0  0.20143660272E+02 -0.50387676062E+01 -0.10394004825E+03  0.10600871468E+03  0.17770000000E+01 0. -1.
         15    1    1    2    0    0  0.30770153044E+01  0.11236549278E+02 -0.71554215791E+00  0.11806684227E+02  0.17770000000E+01 0.  1.
</event>
<event>
 6    1  0.2408691E-003  0.5049373E+03  0.7546771E-02  0.9388829E-01
        -11   -1    0    0    0    0  0.00000000000E+00  0.00000000000E+00  0.50000000000E+03  0.50000000000E+03  0.00000000000E+00 0. -1.
         11   -1    0    0    0    0 -0.00000000000E+00 -0.00000000000E+00 -0.50000000000E+03  0.50000000000E+03  0.00000000000E+00 0.  1.
        -11    1    1    2    0    0  0.22061485820E+01  0.10441381533E+02  0.49494770446E+03  0.49506274319E+03  0.00000000000E+00 0. -1.
         11    1    1    2    0    0  0.52967319959E+01 -0.33995635219E+01 -0.43029195015E+03  0.43033797736E+03  0.00000000000E+00 0.  1.
        -15    1    1    2    0    0 -0.29628922495E+01 -0.11016166690E+02 -0.21080678724E+01  0.11736112566E+02  0.17770000000E+01 0. -1.
         15    1    1    2    0    0 -0.45399883284E+01  0.39743486783E+01 -0.62547686446E+02  0.62863166880E+02  0.17770000000E+01 0. -1.
</event>
<event>
 6    1  0.2408691E-003  0.5061814E+03  0.7546771E-02  0.9386084E-01
        -11   -1    0    0    0    0  0.00000000000E+00  0.00000000000E+00  0.50000000000E+03  0.50000000000E+03  0.00000000000E+00 0.  1.
         11   -1    0    0    0    0 -0.00000000000E+00 -0.00000000000E+00 -0.50000000000E+03  0.50000000000E+03  0.00000000000E+00 0.  1.
        -11    1    1    2    0    0  0.18295839429E+01  0.89201735817E+01  0.38323354387E+03  0.38334170921E+03  0.00000000000E+00 0.  1.
         11    1    1    2    0    0  0.55354605232E+01  0.12857613261E+02 -0.49362017040E+03  0.49381862275E+03  0.00000000000E+00 0.  1.
        -15    1    1    2    0    0 -0.11630250731E+01 -0.21861394622E+02  0.13590858585E+02  0.25829099253E+02  0.17770000000E+01 0. -1.
         15    1    1    2    0    0 -0.62020193930E+01  0.83607778414E-01  0.96795767950E+02  0.97010568790E+02  0.17770000000E+01 0.  1.
</event>
<event>
 6    1  0.2408691E-003  0.5009348E+03  0.7546771E-02  0.9397720E-01
        -11   -1    0    0    0    0  0.00000000000E+00  0.00000000000E+00  0.50000000000E+03  0.50000000000E+03  0.00000000000E+00 0. -1.
         11   -1    0    0    0    0 -0.00000000000E+00 -0.00000000000E+00 -0.50000000000E+03  0.50000000000E+03  0.00000000000E+00 0. -1.
        -11    1    1    2    0    0 -0.37540543785E+01 -0.27408825547E+01  0.13501198117E+03  0.13509197023E+03  0.00000000000E+00 0. -1.
         11    1    1    2    0    0  0.56423535553E+01  0.89542823584E+01 -0.49895297484E+03  0.49906521260E+03  0.00000000000E+00 0. -1.
        -15    1    1    2    0    0  0.35137987481E+01  0.97683129609E+01  0.28036113841E+03  0.28055889289E+03  0.17770000000E+01 0. -1.
         15    1    1    2    0    0 -0.54020979250E+01 -0.15981712765E+02  0.83579855260E+02  0.85283924271E+02  0.17770000000E+01 0.  1.
</event>
<event>
 6    1  0.2408691E-003  0.5007820E+03  0.7546771E-02  0.9398062E-01
        -11   -1    0    0    0    0  0.00000000000E+00  0.00000000000E+00  0.50000000000E+03  0.50000000000E+03  0.00000000000E+00 0.  1.
         11   -1    0    0    0    0 -0.00000000000E+00 -0.00000000000E+00 -0.50000000000E+03  0.50000000000E+03  0.00000000000E+00 0. -1.
        -11    1    1    2    0    0  0.26469201405E+01 -0.68070919020E+00  0.14562134507E+03  0.14564698999E+03  0.00000000000E+00 0.  1.
         11    1    1    2    0    0 -0.18374854758E+02 -0.15764211400E+02 -0.49863056858E+03  0.49921797801E+03  0.00000000000E+00 0. -1.
        -15    1    1    2    0    0  0.12229745379E+02  0.77299791818E+01  0.52840484079E+02  0.54814174598E+02  0.17770000000E+01 0. -1.
         15    1    1    2    0    0  0.34981892386E+01  0.87149414083E+01  0.30016873943E+03  0.30032085740E+03  0.17770000000E+01 0.  1.
</event>
<event>
 6    1  0.2408691E-003  0.5021756E+03  0.7546771E-02  0.9394955E-01
        -11   -1    0    0    0    0  0.00000000000E+00  0.00000000000E+00  0.50000000000E+03  0.50000000000E+03  0.00000000000E+00 0.  1.
         11   -1    0    0    0    0 -0.00000000000E+00 -0.00000000000E+00 -0.50000000000E+03  0.50000000000E+03  0.00000000000E+00 0. -1.
        -11    1    1    2    0    0  0.11589798217E+01 -0.69502081465E+01  0.49777454726E+03  0.49782441536E+03  0.00000000000E+00 0.  1.
         11    1    1    2    0    0  0.19004970304E+01  0.68418091938E+01 -0.30504731191E+03  0.30512994731E+03  0.00000000000E+00 0. -1.
        -15    1    1    2    0    0  0.11586351335E+02 -0.84673186516E+01 -0.15458810669E+03  0.15526293660E+03  0.17770000000E+01 0. -1.
         15    1    1    2    0    0 -0.14645828187E+02  0.85757176043E+01 -0.38139128664E+02  0.41782700726E+02  0.17770000000E+01 0.  1.
</event>
<event>
 6    1  0.2408691E-003  0.5008406E+03  0.7546771E-02  0.9397931E-01
        -11   -1    0    0    0    0  0.00000000000E+00  0.00000000000E+00  0.50000000000E+03  0.50000000000E+03  0.00000000000E+00 0.  1.
         11   -1    0    0    0    0 -0.00000000000E+00 -0.00000000000E+00 -0.50000000000E+03  0.50000000000E+03  0.00000000000E+00 0.  1.
        -11    1    1    2    0    0  0.10742868647E+01 -0.13209194000E+02  0.49898344717E+03  0.49915941085E+03  0.00000000000E+00 0.  1.
         11    1    1    2    0    0 -0.68607732355E+01  0.39761513271E+01 -0.31892238721E+03  0.31902095394E+03  0.00000000000E+00 0.  1.
        -15    1    1    2    0    0  0.46122989584E+01  0.21053201529E+00 -0.15531997616E+03  0.15539874629E+03  0.17770000000E+01 0. -1.
         15    1    1    2    0    0  0.11741874124E+01  0.90225106578E+01 -0.24741083793E+02  0.26420888912E+02  0.17770000000E+01 0.  1.
</event>
<event>
 6    1  0.2408691E-003  0.5010216E+03  0.7546771E-02  0.9397527E-01
        -11   -1    0    0    0    0  0.00000000000E+00  0.00000000000E+00  0.50000000000E+03  0.50000000000E+03  0.00000000000E+00 0.  1.
         11   -1    0    0    0    0 -0.00000000000E+00 -0.00000000000E+00 -0.50000000000E+03  0.50000000000E+03  0.00000000000E+00 0.  1.
        -11    1    1    2    0    0  0.61265955955E+01 -0.65543488399E+01  0.49889771555E+03  0.49897838154E+03  0.00000000000E+00 0.  1.
         11    1    1    2    0    0  0.73984423027E+01  0.54958579446E+01 -0.30767360667E+03  0.30781161389E+03  0.00000000000E+00 0.  1.
        -15    1    1    2    0    0 -0.11704638237E+02  0.74473401244E+00 -0.34823803028E+02  0.36788696244E+02  0.17770000000E+01 0. -1.
         15    1    1    2    0    0 -0.18203996614E+01  0.31375688279E+00 -0.15640030585E+03  0.15642130832E+03  0.17770000000E+01 0.  1.
</event>
<event>
 6    1  0.2408691E-003  0.5152652E+03  0.7546771E-02  0.9366286E-01
        -11   -1    0    0    0    0  0.00000000000E+00  0.00000000000E+00  0.50000000000E+03  0.50000000000E+03  0.00000000000E+00 0. -1.
         11   -1    0    0    0    0 -0.00000000000E+00 -0.00000000000E+00 -0.50000000000E+03  0.50000000000E+03  0.00000000000E+00 0.  1.
        -11    1    1    2    0    0 -0.47056102159E+01  0.97197282832E+01  0.47868820551E+03  0.47880999778E+03  0.00000000000E+00 0. -1.
         11    1    1    2    0    0 -0.37940078329E+01 -0.83126646150E+01 -0.48464863989E+03  0.48473477184E+03  0.00000000000E+00 0.  1.
        -15    1    1    2    0    0 -0.83657490706E+01 -0.10942688645E+02 -0.41955679683E+01  0.14508229109E+02  0.17770000000E+01 0. -1.
         15    1    1    2    0    0  0.16865367119E+02  0.95356249771E+01  0.10156002352E+02  0.21947001266E+02  0.17770000000E+01 0.  1.
</event>
<event>
 6    1  0.2408691E-003  0.5026876E+03  0.7546771E-02  0.9393816E-01
        -11   -1    0    0    0    0  0.00000000000E+00  0.00000000000E+00  0.50000000000E+03  0.50000000000E+03  0.00000000000E+00 0.  1.
         11   -1    0    0    0    0 -0.00000000000E+00 -0.00000000000E+00 -0.50000000000E+03  0.50000000000E+03  0.00000000000E+00 0.  1.
        -11    1    1    2    0    0 -0.28395066867E+01 -0.12015115890E+02  0.42666374099E+03  0.42684232884E+03  0.00000000000E+00 0.  1.
         11    1    1    2    0    0 -0.69789005297E+01 -0.80746085495E+01 -0.49719787275E+03  0.49731240586E+03  0.00000000000E+00 0.  1.
        -15    1    1    2    0    0  0.25557644950E+01  0.27552451474E+01  0.38030689782E+02  0.38257213728E+02  0.17770000000E+01 0.  1.
         15    1    1    2    0    0  0.72626427214E+01  0.17334479292E+02  0.32503441978E+02  0.37588051573E+02  0.17770000000E+01 0. -1.
</event>
<event>
 6    1  0.2408691E-003  0.5070937E+03  0.7546771E-02  0.9384075E-01
        -11   -1    0    0    0    0  0.00000000000E+00  0.00000000000E+00  0.50000000000E+03  0.50000000000E+03  0.00000000000E+00 0. -1.
         11   -1    0    0    0    0 -0.00000000000E+00 -0.00000000000E+00 -0.50000000000E+03  0.50000000000E+03  0.00000000000E+00 0.  1.
        -11    1    1    2    0    0  0.11066163713E+02  0.17814956345E+01  0.49277881135E+03  0.49290626961E+03  0.00000000000E+00 0. -1.
         11    1    1    2    0    0 -0.12678797196E+01  0.79660430696E+01 -0.44475642276E+03  0.44482956393E+03  0.00000000000E+00 0.  1.
        -15    1    1    2    0    0 -0.10264256177E+02 -0.12620773462E+02 -0.24294328309E+01  0.16543843282E+02  0.17770000000E+01 0. -1.
         15    1    1    2    0    0  0.46597218326E+00  0.28732347581E+01 -0.45592955759E+02  0.45720323182E+02  0.17770000000E+01 0.  1.
</event>
<event>
 6    1  0.2408691E-003  0.5003101E+03  0.7546771E-02  0.9399116E-01
        -11   -1    0    0    0    0  0.00000000000E+00  0.00000000000E+00  0.50000000000E+03  0.50000000000E+03  0.00000000000E+00 0. -1.
         11   -1    0    0    0    0 -0.00000000000E+00 -0.00000000000E+00 -0.50000000000E+03  0.50000000000E+03  0.00000000000E+00 0.  1.
        -11    1    1    2    0    0  0.14585318860E+02 -0.17416680689E+01  0.49947398139E+03  0.49968992687E+03  0.00000000000E+00 0. -1.
         11    1    1    2    0    0 -0.26516090290E+01  0.21624393984E+01 -0.22765008527E+03  0.22767579691E+03  0.00000000000E+00 0.  1.
        -15    1    1    2    0    0 -0.15387284484E+02  0.14807019085E+01 -0.16761633880E+03  0.16833703028E+03  0.17770000000E+01 0. -1.
         15    1    1    2    0    0  0.34535746526E+01 -0.19014732380E+01 -0.10420755732E+03  0.10429724594E+03  0.17770000000E+01 0.  1.
</event>
<event>
 6    1  0.2408691E-003  0.5070358E+03  0.7546771E-02  0.9384203E-01
        -11   -1    0    0    0    0  0.00000000000E+00  0.00000000000E+00  0.50000000000E+03  0.50000000000E+03  0.00000000000E+00 0.  1.
         11   -1    0    0    0    0 -0.00000000000E+00 -0.00000000000E+00 -0.50000000000E+03  0.50000000000E+03  0.00000000000E+00 0. -1.
        -11    1    1    2    0    0 -0.69261647596E+01  0.19013696303E+01  0.18919090387E+03  0.18932719052E+03  0.00000000000E+00 0.  1.
         11    1    1    2    0    0  0.56358727404E+01 -0.94076454298E+01 -0.49284218713E+03  0.49296418559E+03  0.00000000000E+00 0. -1.
        -15    1    1    2    0    0  0.70026447981E+01  0.41960254623E+01  0.30894730677E+03  0.30906025262E+03  0.17770000000E+01 0.  1.
         15    1    1    2    0    0 -0.57123527789E+01  0.33102503371E+01 -0.52960235020E+01  0.86483712628E+01  0.17770000000E+01 0. -1.
</event>
<event>
 6    1  0.2408691E-003  0.5145088E+03  0.7546771E-02  0.9367918E-01
        -11   -1    0    0    0    0  0.00000000000E+00  0.00000000000E+00  0.50000000000E+03  0.50000000000E+03  0.00000000000E+00 0. -1.
         11   -1    0    0    0    0 -0.00000000000E+00 -0.00000000000E+00 -0.50000000000E+03  0.50000000000E+03  0.00000000000E+00 0. -1.
        -11    1    1    2    0    0  0.98196051259E+01  0.19091545539E+02  0.32074467919E+03  0.32146237881E+03  0.00000000000E+00 0. -1.
         11    1    1    2    0    0  0.50576407908E+01 -0.90423139557E+01 -0.48538059211E+03  0.48549115581E+03  0.00000000000E+00 0. -1.
        -15    1    1    2    0    0 -0.31966438138E+02 -0.34173689228E+02  0.15497181078E+03  0.16189229156E+03  0.17770000000E+01 0. -1.
         15    1    1    2    0    0  0.17089192221E+02  0.24124457645E+02  0.96641021356E+01  0.31154173822E+02  0.17770000000E+01 0.  1.
</event>
<event>
 6    1  0.2408691E-003  0.5080595E+03  0.7546771E-02  0.9381954E-01
        -11   -1    0    0    0    0  0.00000000000E+00  0.00000000000E+00  0.50000000000E+03  0.50000000000E+03  0.00000000000E+00 0.  1.
         11   -1    0    0    0    0 -0.00000000000E+00 -0.00000000000E+00 -0.50000000000E+03  0.50000000000E+03  0.00000000000E+00 0.  1.
        -11    1    1    2    0    0 -0.17986233675E+02 -0.10836134890E+02  0.49149217056E+03  0.49194052500E+03  0.00000000000E+00 0.  1.
         11    1    1    2    0    0  0.59715277404E+01 -0.37536913085E+01 -0.44874819883E+03  0.44880362666E+03  0.00000000000E+00 0.  1.
        -15    1    1    2    0    0  0.94922236884E+01  0.15922460798E+02 -0.24046749846E+01  0.18776774462E+02  0.17770000000E+01 0. -1.
         15    1    1    2    0    0  0.25224822462E+01 -0.13326345991E+01 -0.40339296739E+02  0.40479073878E+02  0.17770000000E+01 0.  1.
</event>
<event>
 6    1  0.2408691E-003  0.5124247E+03  0.7546771E-02  0.9372430E-01
        -11   -1    0    0    0    0  0.00000000000E+00  0.00000000000E+00  0.50000000000E+03  0.50000000000E+03  0.00000000000E+00 0. -1.
         11   -1    0    0    0    0 -0.00000000000E+00 -0.00000000000E+00 -0.50000000000E+03  0.50000000000E+03  0.00000000000E+00 0.  1.
        -11    1    1    2    0    0  0.75522568408E+01  0.19808520794E+02  0.48711420950E+03  0.48757529386E+03  0.00000000000E+00 0. -1.
         11    1    1    2    0    0  0.12252412453E+01 -0.79322240566E+01 -0.46581147724E+03  0.46588062175E+03  0.00000000000E+00 0.  1.
        -15    1    1    2    0    0 -0.96631819065E+01  0.62149954525E+01 -0.25359601365E+02  0.27897497440E+02  0.17770000000E+01 0. -1.
         15    1    1    2    0    0  0.88568382042E+00 -0.18091292190E+02  0.40568691042E+01  0.18646586950E+02  0.17770000000E+01 0.  1.
</event>
<event>
 6    1  0.2408691E-003  0.5042194E+03  0.7546771E-02  0.9390418E-01
        -11   -1    0    0    0    0  0.00000000000E+00  0.00000000000E+00  0.50000000000E+03  0.50000000000E+03  0.00000000000E+00 0.  1.
         11   -1    0    0    0    0 -0.00000000000E+00 -0.00000000000E+00 -0.50000000000E+03  0.50000000000E+03  0.00000000000E+00 0. -1.
        -11    1    1    2    0    0  0.23757422692E+02  0.57706481427E+01  0.28286083100E+03  0.28391541915E+03  0.00000000000E+00 0.  1.
         11    1    1    2    0    0 -0.11436289123E+02  0.22235431932E+02 -0.49514963538E+03  0.49578056089E+03  0.00000000000E+00 0. -1.
        -15    1    1    2    0    0 -0.16413141989E+02  0.10258231060E+02  0.53891077916E+02  0.57288991459E+02  0.17770000000E+01 0. -1.
         15    1    1    2    0    0  0.40920084198E+01 -0.38264311134E+02  0.15839772646E+03  0.16301502850E+03  0.17770000000E+01 0.  1.
</event>
<event>
 6    1  0.2408691E-003  0.5047176E+03  0.7546771E-02  0.9389315E-01
        -11   -1    0    0    0    0  0.00000000000E+00  0.00000000000E+00  0.50000000000E+03  0.50000000000E+03  0.00000000000E+00 0.  1.
         11   -1    0    0    0    0 -0.00000000000E+00 -0.00000000000E+00 -0.50000000000E+03  0.50000000000E+03  0.00000000000E+00 0. -1.
        -11    1    1    2    0    0 -0.70002236383E+01 -0.23562096612E+01  0.43248408871E+03  0.43254715563E+03  0.00000000000E+00 0.  1.
         11    1    1    2    0    0  0.53838149869E+01 -0.12542592463E+02 -0.49509433115E+03  0.49528244349E+03  0.00000000000E+00 0. -1.
        -15    1    1    2    0    0 -0.94533275954E+01  0.10439284307E+02  0.57221471031E+02  0.58955903312E+02  0.17770000000E+01 0.  1.
         15    1    1    2    0    0  0.11069736247E+02  0.44595178173E+01  0.53887714049E+01  0.13214497569E+02  0.17770000000E+01 0. -1.
</event>
<event>
 6    1  0.2408691E-003  0.5048967E+03  0.7546771E-02  0.9388919E-01
        -11   -1    0    0    0    0  0.00000000000E+00  0.00000000000E+00  0.50000000000E+03  0.50000000000E+03  0.00000000000E+00 0. -1.
         11   -1    0    0    0    0 -0.00000000000E+00 -0.00000000000E+00 -0.50000000000E+03  0.50000000000E+03  0.00000000000E+00 0.  1.
        -11    1    1    2    0    0  0.59115572943E+01 -0.64854990918E+00  0.17126080288E+03  0.17136402695E+03  0.00000000000E+00 0. -1.
         11    1    1    2    0    0 -0.11806270345E+02  0.45159241377E+01 -0.49494190105E+03  0.49510328923E+03  0.00000000000E+00 0.  1.
        -15    1    1    2    0    0  0.19428678567E+02  0.11771906461E+02  0.23855360955E+02  0.32989199867E+02  0.17770000000E+01 0. -1.
         15    1    1    2    0    0 -0.13533965516E+02 -0.15639280689E+02  0.29982573721E+03  0.30054348396E+03  0.17770000000E+01 0.  1.
</event>
<event>
 6    1  0.2408691E-003  0.5210043E+03  0.7546771E-02  0.9354000E-01
        -11   -1    0    0    0    0  0.00000000000E+00  0.00000000000E+00  0.50000000000E+03  0.50000000000E+03  0.00000000000E+00 0.  1.
         11   -1    0    0    0    0 -0.00000000000E+00 -0.00000000000E+00 -0.50000000000E+03  0.50000000000E+03  0.00000000000E+00 0.  1.
        -11    1    1    2    0    0  0.53228583845E+02 -0.71114122050E+02  0.47068713721E+03  0.47899570105E+03  0.00000000000E+00 0.  1.
         11    1    1    2    0    0  0.30009372972E+01  0.80133585597E+00 -0.19791343450E+03  0.19793780669E+03  0.00000000000E+00 0.  1.
        -15    1    1    2    0    0 -0.72649313999E+01  0.15188276397E+02 -0.24290700693E+03  0.24349627248E+03  0.17770000000E+01 0.  1.
         15    1    1    2    0    0 -0.48964589742E+02  0.55124509798E+02 -0.29866695777E+02  0.79570219773E+02  0.17770000000E+01 0. -1.
</event>
<event>
 6    1  0.2408691E-003  0.5472982E+03  0.7546771E-02  0.9299783E-01
        -11   -1    0    0    0    0  0.00000000000E+00  0.00000000000E+00  0.50000000000E+03  0.50000000000E+03  0.00000000000E+00 0. -1.
         11   -1    0    0    0    0 -0.00000000000E+00 -0.00000000000E+00 -0.50000000000E+03  0.50000000000E+03  0.00000000000E+00 0.  1.
        -11    1    1    2    0    0  0.90671248856E+01 -0.41871518400E+01  0.45259166269E+03  0.45270184242E+03  0.00000000000E+00 0. -1.
         11    1    1    2    0    0 -0.84020992561E+01 -0.91295303809E+01 -0.27536477966E+03  0.27564416459E+03  0.00000000000E+00 0.  1.
        -15    1    1    2    0    0  0.12819214521E+02  0.30896718860E+01 -0.22270208159E+03  0.22309920037E+03  0.17770000000E+01 0. -1.
         15    1    1    2    0    0 -0.13484240151E+02  0.10227010335E+02  0.45475198557E+02  0.48554792612E+02  0.17770000000E+01 0.  1.
</event>
<event>
 6    1  0.2408691E-003  0.5027384E+03  0.7546771E-02  0.9393703E-01
        -11   -1    0    0    0    0  0.00000000000E+00  0.00000000000E+00  0.50000000000E+03  0.50000000000E+03  0.00000000000E+00 0.  1.
         11   -1    0    0    0    0 -0.00000000000E+00 -0.00000000000E+00 -0.50000000000E+03  0.50000000000E+03  0.00000000000E+00 0.  1.
        -11    1    1    2    0    0 -0.52479117389E+01  0.38028405347E+01  0.42425442006E+03  0.42430391833E+03  0.00000000000E+00 0.  1.
         11    1    1    2    0    0  0.13573309253E+02 -0.16326822016E+02 -0.49680809403E+03  0.49726158321E+03  0.00000000000E+00 0.  1.
        -15    1    1    2    0    0  0.48578205392E+01 -0.82634955467E+00  0.43430316160E+02  0.43745072462E+02  0.17770000000E+01 0. -1.
         15    1    1    2    0    0 -0.13183218054E+02  0.13350331036E+02  0.29123357811E+02  0.34689426000E+02  0.17770000000E+01 0. -1.
</event>
<event>
 6    1  0.2408691E-003  0.5490849E+03  0.7546771E-02  0.9296216E-01
        -11   -1    0    0    0    0  0.00000000000E+00  0.00000000000E+00  0.50000000000E+03  0.50000000000E+03  0.00000000000E+00 0.  1.
         11   -1    0    0    0    0 -0.00000000000E+00 -0.00000000000E+00 -0.50000000000E+03  0.50000000000E+03  0.00000000000E+00 0. -1.
        -11    1    1    2    0    0 -0.46176942990E+02 -0.32819614334E+01  0.37486785789E+03  0.37771549109E+03  0.00000000000E+00 0.  1.
         11    1    1    2    0    0  0.12759595135E+02  0.60456153426E+02 -0.44666166917E+03  0.45091507012E+03  0.00000000000E+00 0. -1.
        -15    1    1    2    0    0 -0.23463352985E+02 -0.27122767133E+02 -0.32753829080E+02  0.48601897891E+02  0.17770000000E+01 0.  1.
         15    1    1    2    0    0  0.56880700841E+02 -0.30051424859E+02  0.10454764036E+03  0.12276754090E+03  0.17770000000E+01 0. -1.
</event>
<event>
 6    1  0.2408691E-003  0.5014701E+03  0.7546771E-02  0.9396526E-01
        -11   -1    0    0    0    0  0.00000000000E+00  0.00000000000E+00  0.50000000000E+03  0.50000000000E+03  0.00000000000E+00 0.  1.
         11   -1    0    0    0    0 -0.00000000000E+00 -0.00000000000E+00 -0.50000000000E+03  0.50000000000E+03  0.00000000000E+00 0.  1.
        -11    1    1    2    0    0 -0.73128672143E+01  0.69922115352E+01  0.42185816388E+03  0.42197947756E+03  0.00000000000E+00 0.  1.
         11    1    1    2    0    0  0.36487509985E+01  0.73192342651E+01 -0.49846286030E+03  0.49852994661E+03  0.00000000000E+00 0.  1.
        -15    1    1    2    0    0  0.46101396358E+01  0.15519650002E+01  0.16382518838E+02  0.17181578370E+02  0.17770000000E+01 0.  1.
         15    1    1    2    0    0 -0.94602342004E+00 -0.15863410801E+02  0.60222177577E+02  0.62308997453E+02  0.17770000000E+01 0. -1.
</event>
<event>
 6    1  0.2408691E-003  0.4740973E+03  0.7546771E-02  0.9459710E-01
        -11   -1    0    0    0    0  0.00000000000E+00  0.00000000000E+00  0.50000000000E+03  0.50000000000E+03  0.00000000000E+00 0.  1.
         11   -1    0    0    0    0 -0.00000000000E+00 -0.00000000000E+00 -0.50000000000E+03  0.50000000000E+03  0.00000000000E+00 0.  1.
        -11    1    1    2    0    0 -0.18734490353E+02 -0.82642577928E+01  0.46566299615E+03  0.46611297458E+03  0.00000000000E+00 0.  1.
         11    1    1    2    0    0 -0.19017052981E+01 -0.88572368254E+01 -0.48252558395E+03  0.48261061560E+03  0.00000000000E+00 0.  1.
        -15    1    1    2    0    0  0.99848934571E+01  0.20324938237E+02  0.27579241907E+02  0.35729169104E+02  0.17770000000E+01 0. -1.
         15    1    1    2    0    0  0.10651302194E+02 -0.32034436187E+01 -0.10716654114E+02  0.15547240715E+02  0.17770000000E+01 0.  1.
</event>
<event>
 6    1  0.2408691E-003  0.4548838E+03  0.7546771E-02  0.9506836E-01
        -11   -1    0    0    0    0  0.00000000000E+00  0.00000000000E+00  0.50000000000E+03  0.50000000000E+03  0.00000000000E+00 0.  1.
         11   -1    0    0    0    0 -0.00000000000E+00 -0.00000000000E+00 -0.50000000000E+03  0.50000000000E+03  0.00000000000E+00 0. -1.
        -11    1    1    2    0    0 -0.14864766740E+02  0.39649990935E+02  0.44591652080E+03  0.44792256764E+03  0.00000000000E+00 0.  1.
         11    1    1    2    0    0  0.34222506695E+01  0.89588437569E+01 -0.46328074376E+03  0.46337999549E+03  0.00000000000E+00 0. -1.
        -15    1    1    2    0    0  0.15574821636E+02  0.12556709587E+02  0.18571043252E+02  0.27354842371E+02  0.17770000000E+01 0. -1.
         15    1    1    2    0    0 -0.41323055656E+01 -0.61165544279E+02 -0.12068202958E+01  0.61342594504E+02  0.17770000000E+01 0.  1.
</event>
<event>
 6    1  0.2408691E-003  0.5154442E+03  0.7546771E-02  0.9365900E-01
        -11   -1    0    0    0    0  0.00000000000E+00  0.00000000000E+00  0.50000000000E+03  0.50000000000E+03  0.00000000000E+00 0. -1.
         11   -1    0    0    0    0 -0.00000000000E+00 -0.00000000000E+00 -0.50000000000E+03  0.50000000000E+03  0.00000000000E+00 0. -1.
        -11    1    1    2    0    0  0.38094072906E+01  0.12725101223E+02  0.47255418689E+03  0.47274083739E+03  0.00000000000E+00 0. -1.
         11    1    1    2    0    0 -0.18087280294E+01 -0.26943418185E+02 -0.48380279996E+03  0.48455584665E+03  0.00000000000E+00 0. -1.
        -15    1    1    2    0    0 -0.12675369560E+02 -0.60214466927E+01 -0.45287589607E+01  0.14852279303E+02  0.17770000000E+01 0. -1.
         15    1    1    2    0    0  0.10674690299E+02  0.20239763655E+02  0.15777372028E+02  0.27851036657E+02  0.17770000000E+01 0.  1.
</event>
<event>
 6    1  0.2408691E-003  0.5308740E+03  0.7546771E-02  0.9333259E-01
        -11   -1    0    0    0    0  0.00000000000E+00  0.00000000000E+00  0.50000000000E+03  0.50000000000E+03  0.00000000000E+00 0. -1.
         11   -1    0    0    0    0 -0.00000000000E+00 -0.00000000000E+00 -0.50000000000E+03  0.50000000000E+03  0.00000000000E+00 0. -1.
        -11    1    1    2    0    0  0.49648964981E+01 -0.57907447219E+01  0.45907532521E+03  0.45913869053E+03  0.00000000000E+00 0. -1.
         11    1    1    2    0    0  0.64618701211E+01  0.11366808905E+02 -0.46894376991E+03  0.46912601660E+03  0.00000000000E+00 0. -1.
        -15    1    1    2    0    0 -0.83572733510E+01 -0.11590070895E+02 -0.28929132426E+02  0.32314488904E+02  0.17770000000E+01 0. -1.
         15    1    1    2    0    0 -0.30694932682E+01  0.60140067119E+01  0.38797577124E+02  0.39420803966E+02  0.17770000000E+01 0.  1.
</event>
<event>
 6    1  0.2408691E-003  0.5151607E+03  0.7546771E-02  0.9366511E-01
        -11   -1    0    0    0    0  0.00000000000E+00  0.00000000000E+00  0.50000000000E+03  0.50000000000E+03  0.00000000000E+00 0.  1.
         11   -1    0    0    0    0 -0.00000000000E+00 -0.00000000000E+00 -0.50000000000E+03  0.50000000000E+03  0.00000000000E+00 0. -1.
        -11    1    1    2    0    0  0.22867698428E+02 -0.11376955771E+02  0.48416607080E+03  0.48483930417E+03  0.00000000000E+00 0.  1.
         11    1    1    2    0    0 -0.10864092676E+02 -0.40944417985E+01 -0.45486770531E+03  0.45501584840E+03  0.00000000000E+00 0. -1.
        -15    1    1    2    0    0  0.18219051023E+02  0.11780179113E+02 -0.92862173806E+01  0.23666389720E+02  0.17770000000E+01 0.  1.
         15    1    1    2    0    0 -0.30222656776E+02  0.36912184564E+01 -0.20012148109E+02  0.36478457714E+02  0.17770000000E+01 0. -1.
</event>
<event>
 6    1  0.2408691E-003  0.5039392E+03  0.7546771E-02  0.9391038E-01
        -11   -1    0    0    0    0  0.00000000000E+00  0.00000000000E+00  0.50000000000E+03  0.50000000000E+03  0.00000000000E+00 0.  1.
         11   -1    0    0    0    0 -0.00000000000E+00 -0.00000000000E+00 -0.50000000000E+03  0.50000000000E+03  0.00000000000E+00 0.  1.
        -11    1    1    2    0    0 -0.98438277518E+01  0.25194602356E+01  0.16458735572E+03  0.16490071646E+03  0.00000000000E+00 0.  1.
         11    1    1    2    0    0  0.12976717556E+02  0.11985221054E+01 -0.49588959474E+03  0.49606080457E+03  0.00000000000E+00 0.  1.
        -15    1    1    2    0    0 -0.37464871031E+02 -0.86393687875E+00  0.17296124955E+03  0.17698337358E+03  0.17770000000E+01 0.  1.
         15    1    1    2    0    0  0.34331981226E+02 -0.28540454623E+01  0.15834098947E+03  0.16205510540E+03  0.17770000000E+01 0. -1.
</event>
<event>
 6    1  0.2408691E-003  0.5128281E+03  0.7546771E-02  0.9371555E-01
        -11   -1    0    0    0    0  0.00000000000E+00  0.00000000000E+00  0.50000000000E+03  0.50000000000E+03  0.00000000000E+00 0. -1.
         11   -1    0    0    0    0 -0.00000000000E+00 -0.00000000000E+00 -0.50000000000E+03  0.50000000000E+03  0.00000000000E+00 0.  1.
        -11    1    1    2    0    0 -0.75027896959E+01 -0.15628669615E+01  0.48711164118E+03  0.48717192589E+03  0.00000000000E+00 0. -1.
         11    1    1    2    0    0 -0.17594012684E+02  0.14893632254E+02 -0.45509436252E+03  0.45567779007E+03  0.00000000000E+00 0.  1.
        -15    1    1    2    0    0  0.87144618428E+01 -0.15068249082E+01 -0.35450471136E+02  0.36580131209E+02  0.17770000000E+01 0. -1.
         15    1    1    2    0    0  0.16382340537E+02 -0.11823940385E+02  0.34331924793E+01  0.20570152826E+02  0.17770000000E+01 0.  1.
</event>
<event>
 6    1  0.2408691E-003  0.5025983E+03  0.7546771E-02  0.9394014E-01
        -11   -1    0    0    0    0  0.00000000000E+00  0.00000000000E+00  0.50000000000E+03  0.50000000000E+03  0.00000000000E+00 0. -1.
         11   -1    0    0    0    0 -0.00000000000E+00 -0.00000000000E+00 -0.50000000000E+03  0.50000000000E+03  0.00000000000E+00 0.  1.
        -11    1    1    2    0    0  0.59274773312E+01 -0.37890098537E+01  0.49735192552E+03  0.49740167812E+03  0.00000000000E+00 0. -1.
         11    1    1    2    0    0 -0.20998939997E+01 -0.73770508616E+01 -0.46689156274E+03  0.46695456074E+03  0.00000000000E+00 0.  1.
        -15    1    1    2    0    0 -0.21975406664E+01  0.25244934504E+01  0.10295165015E+00  0.37908548117E+01  0.17770000000E+01 0.  1.
         15    1    1    2    0    0 -0.16300426651E+01  0.86415672649E+01 -0.30563314428E+02  0.31852906331E+02  0.17770000000E+01 0. -1.
</event>
<event>
 6    1  0.2408691E-003  0.5056584E+03  0.7546771E-02  0.9387237E-01
        -11   -1    0    0    0    0  0.00000000000E+00  0.00000000000E+00  0.50000000000E+03  0.50000000000E+03  0.00000000000E+00 0.  1.
         11   -1    0    0    0    0 -0.00000000000E+00 -0.00000000000E+00 -0.50000000000E+03  0.50000000000E+03  0.00000000000E+00 0.  1.
        -11    1    1    2    0    0 -0.49974626703E+01 -0.47449342635E+01  0.45177366016E+03  0.45182621554E+03  0.00000000000E+00 0.  1.
         11    1    1    2    0    0  0.10903461617E+01  0.75299793833E+01 -0.49428308631E+03  0.49434164184E+03  0.00000000000E+00 0.  1.
        -15    1    1    2    0    0 -0.11201051043E+02 -0.10463983342E+02  0.15322374974E+02  0.21746066212E+02  0.17770000000E+01 0. -1.
         15    1    1    2    0    0  0.15108167551E+02  0.76789382226E+01  0.27187051172E+02  0.32086076410E+02  0.17770000000E+01 0.  1.
</event>
<event>
 6    1  0.2408691E-003  0.5078951E+03  0.7546771E-02  0.9382315E-01
        -11   -1    0    0    0    0  0.00000000000E+00  0.00000000000E+00  0.50000000000E+03  0.50000000000E+03  0.00000000000E+00 0. -1.
         11   -1    0    0    0    0 -0.00000000000E+00 -0.00000000000E+00 -0.50000000000E+03  0.50000000000E+03  0.00000000000E+00 0. -1.
        -11    1    1    2    0    0  0.80217162220E+01 -0.47799100589E+01  0.46423417560E+03  0.46432807934E+03  0.00000000000E+00 0. -1.
         11    1    1    2    0    0 -0.25563116918E+01  0.14827851385E+02 -0.49187481329E+03  0.49210489924E+03  0.00000000000E+00 0. -1.
        -15    1    1    2    0    0 -0.89721207275E+01 -0.16612394056E+02  0.49187478380E+01  0.19591385758E+02  0.17770000000E+01 0. -1.
         15    1    1    2    0    0  0.35067161973E+01  0.65644527304E+01  0.22721889851E+02  0.23975635665E+02  0.17770000000E+01 0.  1.
</event>
<event>
 6    1  0.2408691E-003  0.5007052E+03  0.7546771E-02  0.9398233E-01
        -11   -1    0    0    0    0  0.00000000000E+00  0.00000000000E+00  0.50000000000E+03  0.50000000000E+03  0.00000000000E+00 0.  1.
         11   -1    0    0    0    0 -0.00000000000E+00 -0.00000000000E+00 -0.50000000000E+03  0.50000000000E+03  0.00000000000E+00 0. -1.
        -11    1    1    2    0    0 -0.14587648529E+01 -0.42066348583E+01  0.28569768813E+03  0.28573237964E+03  0.00000000000E+00 0.  1.
         11    1    1    2    0    0  0.20932326416E+01 -0.16382420640E+02 -0.49902161465E+03  0.49929483996E+03  0.00000000000E+00 0. -1.
        -15    1    1    2    0    0 -0.55088948951E+01  0.19096017446E+02  0.18934949524E+03  0.19039799075E+03  0.17770000000E+01 0. -1.
         15    1    1    2    0    0  0.48744271063E+01  0.14930380525E+01  0.23974431275E+02  0.24574789647E+02  0.17770000000E+01 0.  1.
</event>
<event>
 6    1  0.2408691E-003  0.4613786E+03  0.7546771E-02  0.9490633E-01
        -11   -1    0    0    0    0  0.00000000000E+00  0.00000000000E+00  0.50000000000E+03  0.50000000000E+03  0.00000000000E+00 0.  1.
         11   -1    0    0    0    0 -0.00000000000E+00 -0.00000000000E+00 -0.50000000000E+03  0.50000000000E+03  0.00000000000E+00 0.  1.
        -11    1    1    2    0    0 -0.10498705128E+02  0.62393640986E+01  0.46801157505E+03  0.46817089493E+03  0.00000000000E+00 0.  1.
         11    1    1    2    0    0 -0.33798336854E+01  0.11535481529E+02 -0.45479758268E+03  0.45495640650E+03  0.00000000000E+00 0.  1.
        -15    1    1    2    0    0  0.96673226166E+01 -0.24744755683E+02  0.25742193341E+02  0.37034825602E+02  0.17770000000E+01 0. -1.
         15    1    1    2    0    0  0.42112161967E+01  0.69699100556E+01 -0.38956185717E+02  0.39837872969E+02  0.17770000000E+01 0.  1.
</event>
<event>
 6    1  0.2408691E-003  0.5104471E+03  0.7546771E-02  0.9376732E-01
        -11   -1    0    0    0    0  0.00000000000E+00  0.00000000000E+00  0.50000000000E+03  0.50000000000E+03  0.00000000000E+00 0.  1.
         11   -1    0    0    0    0 -0.00000000000E+00 -0.00000000000E+00 -0.50000000000E+03  0.50000000000E+03  0.00000000000E+00 0.  1.
        -11    1    1    2    0    0  0.15231449545E+02  0.12188632949E+02  0.25592795504E+03  0.25667036837E+03  0.00000000000E+00 0.  1.
         11    1    1    2    0    0 -0.99959426649E+01  0.82308414597E+01 -0.48938162873E+03  0.48955290231E+03  0.00000000000E+00 0.  1.
        -15    1    1    2    0    0  0.29761709269E+02 -0.36005106849E+02  0.19068197690E+03  0.19632855396E+03  0.17770000000E+01 0.  1.
         15    1    1    2    0    0 -0.34997216149E+02  0.15585632440E+02  0.42771696795E+02  0.57448175362E+02  0.17770000000E+01 0. -1.
</event>
<event>
 6    1  0.2408691E-003  0.5202162E+03  0.7546771E-02  0.9355677E-01
        -11   -1    0    0    0    0  0.00000000000E+00  0.00000000000E+00  0.50000000000E+03  0.50000000000E+03  0.00000000000E+00 0.  1.
         11   -1    0    0    0    0 -0.00000000000E+00 -0.00000000000E+00 -0.50000000000E+03  0.50000000000E+03  0.00000000000E+00 0.  1.
        -11    1    1    2    0    0  0.63978944436E+01 -0.20285124276E+01  0.47973686474E+03  0.47978381310E+03  0.00000000000E+00 0.  1.
         11    1    1    2    0    0 -0.56875250791E+01  0.55791246425E+01 -0.47458989196E+03  0.47465676033E+03  0.00000000000E+00 0.  1.
        -15    1    1    2    0    0 -0.27313977601E+01 -0.81637268921E+00  0.19919649095E+02  0.20200919463E+02  0.17770000000E+01 0. -1.
         15    1    1    2    0    0  0.20210283957E+01 -0.27342395257E+01 -0.25066621876E+02  0.25358507110E+02  0.17770000000E+01 0.  1.
</event>
<event>
 6    1  0.2408691E-003  0.5065956E+03  0.7546771E-02  0.9385171E-01
        -11   -1    0    0    0    0  0.00000000000E+00  0.00000000000E+00  0.50000000000E+03  0.50000000000E+03  0.00000000000E+00 0. -1.
         11   -1    0    0    0    0 -0.00000000000E+00 -0.00000000000E+00 -0.50000000000E+03  0.50000000000E+03  0.00000000000E+00 0.  1.
        -11    1    1    2    0    0  0.53464423976E+01 -0.12322419624E+02  0.49322155805E+03  0.49340443026E+03  0.00000000000E+00 0. -1.
         11    1    1    2    0    0  0.27371100795E+01  0.34817491455E+01 -0.12950433958E+03  0.12958004599E+03  0.00000000000E+00 0.  1.
        -15    1    1    2    0    0 -0.73961314860E+01  0.39328448569E+00 -0.36749059484E+03  0.36756952058E+03  0.17770000000E+01 0.  1.
         15    1    1    2    0    0 -0.68742099109E+00  0.84473859924E+01  0.37733763677E+01  0.94460031726E+01  0.17770000000E+01 0. -1.
</event>
<event>
 6    1  0.2408691E-003  0.5010359E+03  0.7546771E-02  0.9397495E-01
        -11   -1    0    0    0    0  0.00000000000E+00  0.00000000000E+00  0.50000000000E+03  0.50000000000E+03  0.00000000000E+00 0.  1.
         11   -1    0    0    0    0 -0.00000000000E+00 -0.00000000000E+00 -0.50000000000E+03  0.50000000000E+03  0.00000000000E+00 0. -1.
        -11    1    1    2    0    0  0.73795961471E+01 -0.65821179193E+01  0.26441252896E+03  0.26459736996E+03  0.00000000000E+00 0.  1.
         11    1    1    2    0    0  0.21588627626E+01 -0.83599966403E+01 -0.49888935147E+03  0.49896406207E+03  0.00000000000E+00 0. -1.
        -15    1    1    2    0    0  0.18037309551E+00  0.74860628338E+00  0.75627435210E+00  0.20790925224E+01  0.17770000000E+01 0. -1.
         15    1    1    2    0    0 -0.97188320052E+01  0.14193508276E+02  0.23372054815E+03  0.23435947544E+03  0.17770000000E+01 0.  1.
</event>
<event>
 6    1  0.2408691E-003  0.5227604E+03  0.7546771E-02  0.9350274E-01
        -11   -1    0    0    0    0  0.00000000000E+00  0.00000000000E+00  0.50000000000E+03  0.50000000000E+03  0.00000000000E+00 0.  1.
         11   -1    0    0    0    0 -0.00000000000E+00 -0.00000000000E+00 -0.50000000000E+03  0.50000000000E+03  0.00000000000E+00 0. -1.
        -11    1    1    2    0    0  0.50531897183E+01 -0.67873667207E+01  0.47716454131E+03  0.47723956517E+03  0.00000000000E+00 0.  1.
         11    1    1    2    0    0 -0.51510470106E+00  0.26493999409E+02 -0.45722273059E+03  0.45798998101E+03  0.00000000000E+00 0. -1.
        -15    1    1    2    0    0 -0.39628100796E+01 -0.29962185496E+01  0.20396547600E+02  0.21067939442E+02  0.17770000000E+01 0.  1.
         15    1    1    2    0    0 -0.57527493761E+00 -0.16710414139E+02 -0.40338358329E+02  0.43702514385E+02  0.17770000000E+01 0. -1.
</event>
<event>
 6    1  0.2408691E-003  0.4077369E+03  0.7546771E-02  0.9633813E-01
        -11   -1    0    0    0    0  0.00000000000E+00  0.00000000000E+00  0.50000000000E+03  0.50000000000E+03  0.00000000000E+00 0. -1.
         11   -1    0    0    0    0 -0.00000000000E+00 -0.00000000000E+00 -0.50000000000E+03  0.50000000000E+03  0.00000000000E+00 0.  1.
        -11    1    1    2    0    0 -0.95415607782E+01  0.10786562421E+00  0.47208423611E+03  0.47218066352E+03  0.00000000000E+00 0. -1.
         11    1    1    2    0    0 -0.12396405587E+02  0.10141688557E+02 -0.54580160491E+02  0.56881619504E+02  0.00000000000E+00 0.  1.
        -15    1    1    2    0    0  0.72836643885E+02  0.60222364658E+02 -0.34503274953E+03  0.35774665040E+03  0.17770000000E+01 0.  1.
         15    1    1    2    0    0 -0.50898677520E+02 -0.70471918839E+02 -0.72471326090E+02  0.11319106658E+03  0.17770000000E+01 0. -1.
</event>
<event>
 6    1  0.2408691E-003  0.5184344E+03  0.7546771E-02  0.9359480E-01
        -11   -1    0    0    0    0  0.00000000000E+00  0.00000000000E+00  0.50000000000E+03  0.50000000000E+03  0.00000000000E+00 0.  1.
         11   -1    0    0    0    0 -0.00000000000E+00 -0.00000000000E+00 -0.50000000000E+03  0.50000000000E+03  0.00000000000E+00 0. -1.
        -11    1    1    2    0    0  0.39937044657E+00 -0.76177004997E+01  0.46296692917E+03  0.46302976833E+03  0.00000000000E+00 0.  1.
         11    1    1    2    0    0  0.10480829879E+01  0.16386180678E+02 -0.48128554915E+03  0.48156555651E+03  0.00000000000E+00 0. -1.
        -15    1    1    2    0    0  0.12270639863E+02  0.15230198226E+02 -0.37436114358E+01  0.19992495998E+02  0.17770000000E+01 0.  1.
         15    1    1    2    0    0 -0.13718093298E+02 -0.23998678404E+02  0.22062231416E+02  0.35412179161E+02  0.17770000000E+01 0. -1.
</event>
<event>
 6    1  0.2408691E-003  0.5076192E+03  0.7546771E-02  0.9382921E-01
        -11   -1    0    0    0    0  0.00000000000E+00  0.00000000000E+00  0.50000000000E+03  0.50000000000E+03  0.00000000000E+00 0.  1.
         11   -1    0    0    0    0 -0.00000000000E+00 -0.00000000000E+00 -0.50000000000E+03  0.50000000000E+03  0.00000000000E+00 0.  1.
        -11    1    1    2    0    0  0.30341351987E+02 -0.33846712416E+02  0.49027812749E+03  0.49238078748E+03  0.00000000000E+00 0.  1.
         11    1    1    2    0    0  0.83761448398E+01  0.28413050438E+01 -0.36549902942E+03  0.36560603568E+03  0.00000000000E+00 0.  1.
        -15    1    1    2    0    0 -0.35565985894E+02  0.31443668149E+02 -0.57282749672E+02  0.74418510858E+02  0.17770000000E+01 0.  1.
         15    1    1    2    0    0 -0.31515109322E+01 -0.43826077654E+00 -0.67496348398E+02  0.67594665986E+02  0.17770000000E+01 0. -1.
</event>
<event>
 6    1  0.2408691E-003  0.5087951E+03  0.7546771E-02  0.9380342E-01
        -11   -1    0    0    0    0  0.00000000000E+00  0.00000000000E+00  0.50000000000E+03  0.50000000000E+03  0.00000000000E+00 0. -1.
         11   -1    0    0    0    0 -0.00000000000E+00 -0.00000000000E+00 -0.50000000000E+03  0.50000000000E+03  0.00000000000E+00 0. -1.
        -11    1    1    2    0    0  0.50407970059E+01  0.17814788771E+01  0.10313457909E+03  0.10327305895E+03  0.00000000000E+00 0. -1.
         11    1    1    2    0    0  0.24605375814E+02  0.74159880212E+01 -0.49053223823E+03  0.49120494515E+03  0.00000000000E+00 0. -1.
        -15    1    1    2    0    0 -0.23590050036E+02 -0.15254392148E+02  0.12971419622E+02  0.30993586377E+02  0.17770000000E+01 0.  1.
         15    1    1    2    0    0 -0.60561227845E+01  0.60569252499E+01  0.37442623952E+03  0.37452840952E+03  0.17770000000E+01 0. -1.
</event>
<event>
 6    1  0.2408691E-003  0.5107966E+03  0.7546771E-02  0.9375970E-01
        -11   -1    0    0    0    0  0.00000000000E+00  0.00000000000E+00  0.50000000000E+03  0.50000000000E+03  0.00000000000E+00 0.  1.
         11   -1    0    0    0    0 -0.00000000000E+00 -0.00000000000E+00 -0.50000000000E+03  0.50000000000E+03  0.00000000000E+00 0.  1.
        -11    1    1    2    0    0 -0.15377322030E+02  0.42098071495E+01  0.48894355206E+03  0.48920341537E+03  0.00000000000E+00 0.  1.
         11    1    1    2    0    0 -0.82591973250E+01 -0.79437668187E+01 -0.45927597480E+03  0.45941891429E+03  0.00000000000E+00 0.  1.
        -15    1    1    2    0    0  0.33564964678E+01 -0.34834186035E+01 -0.29326367194E+02  0.29775725273E+02  0.17770000000E+01 0. -1.
         15    1    1    2    0    0  0.20280022887E+02  0.72173782727E+01 -0.34121006339E+00  0.21601945068E+02  0.17770000000E+01 0.  1.
</event>
<event>
 6    1  0.2408691E-003  0.5012582E+03  0.7546771E-02  0.9396999E-01
        -11   -1    0    0    0    0  0.00000000000E+00  0.00000000000E+00  0.50000000000E+03  0.50000000000E+03  0.00000000000E+00 0. -1.
         11   -1    0    0    0    0 -0.00000000000E+00 -0.00000000000E+00 -0.50000000000E+03  0.50000000000E+03  0.00000000000E+00 0.  1.
        -11    1    1    2    0    0  0.44740543460E+01 -0.10684283205E+02  0.49860731907E+03  0.49874184676E+03  0.00000000000E+00 0. -1.
         11    1    1    2    0    0 -0.11536578030E+02 -0.64739319943E+01 -0.36432297621E+03  0.36456307468E+03  0.00000000000E+00 0.  1.
        -15    1    1    2    0    0  0.60278896662E+01  0.59684923321E+01 -0.19390228043E+02  0.21239044873E+02  0.17770000000E+01 0. -1.
         15    1    1    2    0    0  0.10346340180E+01  0.11189722867E+02 -0.11489411483E+03  0.11545603369E+03  0.17770000000E+01 0.  1.
</event>
<event>
 6    1  0.2408691E-003  0.5299402E+03  0.7546771E-02  0.9335201E-01
        -11   -1    0    0    0    0  0.00000000000E+00  0.00000000000E+00  0.50000000000E+03  0.50000000000E+03  0.00000000000E+00 0. -1.
         11   -1    0    0    0    0 -0.00000000000E+00 -0.00000000000E+00 -0.50000000000E+03  0.50000000000E+03  0.00000000000E+00 0. -1.
        -11    1    1    2    0    0  0.21076336616E+02  0.32514054760E+02  0.46846004927E+03  0.47005977650E+03  0.00000000000E+00 0. -1.
         11    1    1    2    0    0  0.29861613562E+02  0.11085189843E+02 -0.36403391299E+03  0.36542480376E+03  0.00000000000E+00 0. -1.
        -15    1    1    2    0    0 -0.68825147111E+01  0.28570359526E+02 -0.64687232066E+02  0.71072006962E+02  0.17770000000E+01 0.  1.
         15    1    1    2    0    0 -0.44055435466E+02 -0.72169604129E+02 -0.39738904217E+02  0.93443412778E+02  0.17770000000E+01 0. -1.
</event>
<event>
 6    1  0.2408691E-003  0.5029005E+03  0.7546771E-02  0.9393343E-01
        -11   -1    0    0    0    0  0.00000000000E+00  0.00000000000E+00  0.50000000000E+03  0.50000000000E+03  0.00000000000E+00 0. -1.
         11   -1    0    0    0    0 -0.00000000000E+00 -0.00000000000E+00 -0.50000000000E+03  0.50000000000E+03  0.00000000000E+00 0. -1.
        -11    1    1    2    0    0 -0.11026260852E+02 -0.55217500380E+01  0.43149580107E+03  0.43167197557E+03  0.00000000000E+00 0. -1.
         11    1    1    2    0    0 -0.65959827398E+01  0.20386806328E+01 -0.49705156893E+03  0.49709951255E+03  0.00000000000E+00 0. -1.
        -15    1    1    2    0    0  0.11689376597E+01 -0.30058884945E+01  0.39591411594E+02  0.39762285924E+02  0.17770000000E+01 0. -1.
         15    1    1    2    0    0  0.16453305932E+02  0.64889578998E+01  0.25964356265E+02  0.31466225957E+02  0.17770000000E+01 0.  1.
</event>
<event>
 6    1  0.2408691E-003  0.5061935E+03  0.7546771E-02  0.9386057E-01
        -11   -1    0    0    0    0  0.00000000000E+00  0.00000000000E+00  0.50000000000E+03  0.50000000000E+03  0.00000000000E+00 0. -1.
         11   -1    0    0    0    0 -0.00000000000E+00 -0.00000000000E+00 -0.50000000000E+03  0.50000000000E+03  0.00000000000E+00 0.  1.
        -11    1    1    2    0    0 -0.22878139789E+01 -0.76320435451E+01  0.49374226162E+03  0.49380654419E+03  0.00000000000E+00 0. -1.
         11    1    1    2    0    0 -0.10064743766E+02  0.85623957470E+01 -0.45435102780E+03  0.45454314443E+03  0.00000000000E+00 0.  1.
        -15    1    1    2    0    0  0.34669029563E+01 -0.10686526185E+02 -0.14819784315E+01  0.11470625401E+02  0.17770000000E+01 0.  1.
         15    1    1    2    0    0  0.88856547883E+01  0.97561739835E+01 -0.37909255391E+02  0.40179685975E+02  0.17770000000E+01 0. -1.
</event>
<event>
 6    1  0.2408691E-003  0.4822056E+03  0.7546771E-02  0.9440531E-01
        -11   -1    0    0    0    0  0.00000000000E+00  0.00000000000E+00  0.50000000000E+03  0.50000000000E+03  0.00000000000E+00 0. -1.
         11   -1    0    0    0    0 -0.00000000000E+00 -0.00000000000E+00 -0.50000000000E+03  0.50000000000E+03  0.00000000000E+00 0.  1.
        -11    1    1    2    0    0  0.85094042737E+01 -0.11272498891E+02  0.48343369671E+03  0.48363996765E+03  0.00000000000E+00 0. -1.
         11    1    1    2    0    0 -0.97245321707E+00  0.73118895033E+01 -0.48075585259E+03  0.48081243660E+03  0.00000000000E+00 0.  1.
        -15    1    1    2    0    0 -0.15198987164E+02  0.15264182875E+02 -0.26580850570E+01  0.21776768237E+02  0.17770000000E+01 0. -1.
         15    1    1    2    0    0  0.76620361077E+01 -0.11303573487E+02 -0.19759061779E-01  0.13770827510E+02  0.17770000000E+01 0.  1.
</event>
<event>
 6    1  0.2408691E-003  0.5099854E+03  0.7546771E-02  0.9377740E-01
        -11   -1    0    0    0    0  0.00000000000E+00  0.00000000000E+00  0.50000000000E+03  0.50000000000E+03  0.00000000000E+00 0.  1.
         11   -1    0    0    0    0 -0.00000000000E+00 -0.00000000000E+00 -0.50000000000E+03  0.50000000000E+03  0.00000000000E+00 0.  1.
        -11    1    1    2    0    0  0.90090268992E+01  0.11979722823E+02  0.48208193355E+03  0.48231490438E+03  0.00000000000E+00 0.  1.
         11    1    1    2    0    0  0.15862550513E+01 -0.84428094038E+01 -0.48993930478E+03  0.49001461162E+03  0.00000000000E+00 0.  1.
        -15    1    1    2    0    0 -0.14142147472E+02 -0.57565099631E+01  0.13476451594E+02  0.20442852508E+02  0.17770000000E+01 0. -1.
         15    1    1    2    0    0  0.35468655215E+01  0.22195965438E+01 -0.56190803697E+01  0.72276314963E+01  0.17770000000E+01 0.  1.
</event>
<event>
 6    1  0.2408691E-003  0.5225230E+03  0.7546771E-02  0.9350777E-01
        -11   -1    0    0    0    0  0.00000000000E+00  0.00000000000E+00  0.50000000000E+03  0.50000000000E+03  0.00000000000E+00 0. -1.
         11   -1    0    0    0    0 -0.00000000000E+00 -0.00000000000E+00 -0.50000000000E+03  0.50000000000E+03  0.00000000000E+00 0.  1.
        -11    1    1    2    0    0  0.52372719766E+02 -0.49026234788E+01  0.47457068139E+03  0.47747698282E+03  0.00000000000E+00 0. -1.
         11    1    1    2    0    0 -0.16897722664E+01  0.47389360236E+01 -0.91705418294E+02  0.91843326320E+02  0.00000000000E+00 0.  1.
        -15    1    1    2    0    0 -0.39193621369E+02  0.11638173641E+02  0.60963443961E+01  0.41375236382E+02  0.17770000000E+01 0. -1.
         15    1    1    2    0    0 -0.11489326131E+02 -0.11474486186E+02 -0.38896160749E+03  0.38930445448E+03  0.17770000000E+01 0.  1.
</event>
<event>
 6    1  0.2408691E-003  0.5010989E+03  0.7546771E-02  0.9397354E-01
        -11   -1    0    0    0    0  0.00000000000E+00  0.00000000000E+00  0.50000000000E+03  0.50000000000E+03  0.00000000000E+00 0.  1.
         11   -1    0    0    0    0 -0.00000000000E+00 -0.00000000000E+00 -0.50000000000E+03  0.50000000000E+03  0.00000000000E+00 0. -1.
        -11    1    1    2    0    0  0.65434584417E+01  0.13864560786E+02  0.23741510669E+03  0.23790959581E+03  0.00000000000E+00 0.  1.
         11    1    1    2    0    0 -0.38391698296E+01 -0.12182767930E+02 -0.49873759438E+03  0.49890113961E+03  0.00000000000E+00 0. -1.
        -15    1    1    2    0    0 -0.36152561837E+01 -0.72434517145E+01  0.25209869407E+03  0.25223490431E+03  0.17770000000E+01 0.  1.
         15    1    1    2    0    0  0.91096757149E+00  0.55616588588E+01  0.92237936148E+01  0.10954360266E+02  0.17770000000E+01 0. -1.
</event>
<event>
 6    1  0.2408691E-003  0.4924459E+03  0.7546771E-02  0.9416873E-01
        -11   -1    0    0    0    0  0.00000000000E+00  0.00000000000E+00  0.50000000000E+03  0.50000000000E+03  0.00000000000E+00 0. -1.
         11   -1    0    0    0    0 -0.00000000000E+00 -0.00000000000E+00 -0.50000000000E+03  0.50000000000E+03  0.00000000000E+00 0.  1.
        -11    1    1    2    0    0 -0.36639678513E+01 -0.67155389247E+01  0.49904177052E+03  0.49910040257E+03  0.00000000000E+00 0. -1.
         11    1    1    2    0    0 -0.44646153873E+01  0.11455395011E+01 -0.15365368700E+02  0.16041808084E+02  0.00000000000E+00 0.  1.
        -15    1    1    2    0    0  0.15024199058E+02 -0.72546819499E+01 -0.16672624506E+03  0.16756836064E+03  0.17770000000E+01 0. -1.
         15    1    1    2    0    0 -0.68956158195E+01  0.12824681374E+02 -0.31695015676E+03  0.31728942871E+03  0.17770000000E+01 0.  1.
</event>
<event>
 6    1  0.2408691E-003  0.5107224E+03  0.7546771E-02  0.9376132E-01
        -11   -1    0    0    0    0  0.00000000000E+00  0.00000000000E+00  0.50000000000E+03  0.50000000000E+03  0.00000000000E+00 0. -1.
         11   -1    0    0    0    0 -0.00000000000E+00 -0.00000000000E+00 -0.50000000000E+03  0.50000000000E+03  0.00000000000E+00 0. -1.
        -11    1    1    2    0    0 -0.12834271738E+02 -0.44672783845E+01  0.48908886851E+03  0.48927762713E+03  0.00000000000E+00 0. -1.
         11    1    1    2    0    0 -0.17516708232E+02  0.47270621260E+01 -0.46469016897E+03  0.46504422728E+03  0.00000000000E+00 0. -1.
        -15    1    1    2    0    0  0.20206452464E+02 -0.32919094322E+01 -0.27659474730E+02  0.34457824369E+02  0.17770000000E+01 0.  1.
         15    1    1    2    0    0  0.10144527505E+02  0.30321256906E+01  0.32607751932E+01  0.11220321224E+02  0.17770000000E+01 0. -1.
</event>
<event>
 6    1  0.2408691E-003  0.5011750E+03  0.7546771E-02  0.9397184E-01
        -11   -1    0    0    0    0  0.00000000000E+00  0.00000000000E+00  0.50000000000E+03  0.50000000000E+03  0.00000000000E+00 0.  1.
         11   -1    0    0    0    0 -0.00000000000E+00 -0.00000000000E+00 -0.50000000000E+03  0.50000000000E+03  0.00000000000E+00 0. -1.
        -11    1    1    2    0    0 -0.62635997115E+01 -0.12530007437E+01  0.43182350733E+03  0.43187074939E+03  0.00000000000E+00 0.  1.
         11    1    1    2    0    0  0.43708736215E+01  0.66932575179E+01 -0.49876093848E+03  0.49882499735E+03  0.00000000000E+00 0. -1.
        -15    1    1    2    0    0 -0.51268382729E+01 -0.82458893034E+01  0.43796738333E+02  0.44895335824E+02  0.17770000000E+01 0. -1.
         15    1    1    2    0    0  0.70195643629E+01  0.28056325291E+01  0.23140692812E+02  0.24408917439E+02  0.17770000000E+01 0.  1.
</event>
<event>
 6    1  0.2408691E-003  0.5046534E+03  0.7546771E-02  0.9389457E-01
        -11   -1    0    0    0    0  0.00000000000E+00  0.00000000000E+00  0.50000000000E+03  0.50000000000E+03  0.00000000000E+00 0. -1.
         11   -1    0    0    0    0 -0.00000000000E+00 -0.00000000000E+00 -0.50000000000E+03  0.50000000000E+03  0.00000000000E+00 0.  1.
        -11    1    1    2    0    0  0.68762175500E+01 -0.27009785467E+01  0.49529152420E+03  0.49534661763E+03  0.00000000000E+00 0. -1.
         11    1    1    2    0    0 -0.72665755417E+01  0.38683525267E+01 -0.45802070702E+03  0.45809467944E+03  0.00000000000E+00 0.  1.
        -15    1    1    2    0    0 -0.78462096958E+00  0.34499530662E+01 -0.40396324867E+02  0.40589882952E+02  0.17770000000E+01 0. -1.
         15    1    1    2    0    0  0.11749789612E+01 -0.46173270462E+01  0.31255076881E+01  0.59688199771E+01  0.17770000000E+01 0.  1.
</event>
<event>
 6    1  0.2408691E-003  0.5025084E+03  0.7546771E-02  0.9394214E-01
        -11   -1    0    0    0    0  0.00000000000E+00  0.00000000000E+00  0.50000000000E+03  0.50000000000E+03  0.00000000000E+00 0. -1.
         11   -1    0    0    0    0 -0.00000000000E+00 -0.00000000000E+00 -0.50000000000E+03  0.50000000000E+03  0.00000000000E+00 0. -1.
        -11    1    1    2    0    0  0.34299394645E+01 -0.19091463035E+02  0.46600307841E+03  0.46640660108E+03  0.00000000000E+00 0. -1.
         11    1    1    2    0    0 -0.10090518236E+01  0.82365438410E+01 -0.49742242288E+03  0.49749163373E+03  0.00000000000E+00 0. -1.
        -15    1    1    2    0    0 -0.82153056218E+00 -0.15746426679E+01  0.32926348865E+00  0.25338814971E+01  0.17770000000E+01 0.  1.
         15    1    1    2    0    0 -0.15993570787E+01  0.12429561862E+02  0.31090080983E+02  0.33567883694E+02  0.17770000000E+01 0. -1.
</event>
<event>
 6    1  0.2408691E-003  0.5039266E+03  0.7546771E-02  0.9391066E-01
        -11   -1    0    0    0    0  0.00000000000E+00  0.00000000000E+00  0.50000000000E+03  0.50000000000E+03  0.00000000000E+00 0. -1.
         11   -1    0    0    0    0 -0.00000000000E+00 -0.00000000000E+00 -0.50000000000E+03  0.50000000000E+03  0.00000000000E+00 0. -1.
        -11    1    1    2    0    0 -0.10823499955E+00  0.59881870545E+00  0.43387877136E+02  0.43392144232E+02  0.00000000000E+00 0. -1.
         11    1    1    2    0    0  0.35790419205E+02 -0.15388786907E+02 -0.49454127351E+03  0.49607342206E+03  0.00000000000E+00 0. -1.
        -15    1    1    2    0    0 -0.26498021883E+02 -0.31592705331E+01  0.35793915307E+02  0.44682079809E+02  0.17770000000E+01 0.  1.
         15    1    1    2    0    0 -0.91841623221E+01  0.17949238735E+02  0.41535948106E+03  0.41585235390E+03  0.17770000000E+01 0. -1.
</event>
<event>
 6    1  0.2408691E-003  0.5173519E+03  0.7546771E-02  0.9361799E-01
        -11   -1    0    0    0    0  0.00000000000E+00  0.00000000000E+00  0.50000000000E+03  0.50000000000E+03  0.00000000000E+00 0.  1.
         11   -1    0    0    0    0 -0.00000000000E+00 -0.00000000000E+00 -0.50000000000E+03  0.50000000000E+03  0.00000000000E+00 0. -1.
        -11    1    1    2    0    0 -0.15899390479E+02  0.11033116538E+02  0.44761857515E+03  0.44803672740E+03  0.00000000000E+00 0.  1.
         11    1    1    2    0    0 -0.97674939534E+00  0.11155740744E+02 -0.48251816140E+03  0.48264809196E+03  0.00000000000E+00 0. -1.
        -15    1    1    2    0    0 -0.75760116434E+01 -0.10685000876E+02 -0.10208936538E+02  0.16701655917E+02  0.17770000000E+01 0. -1.
         15    1    1    2    0    0  0.24452151518E+02 -0.11503856407E+02  0.45108522789E+02  0.52613524719E+02  0.17770000000E+01 0.  1.
</event>
<event>
 6    1  0.2408691E-003  0.4837459E+03  0.7546771E-02  0.9436932E-01
        -11   -1    0    0    0    0  0.00000000000E+00  0.00000000000E+00  0.50000000000E+03  0.50000000000E+03  0.00000000000E+00 0.  1.
         11   -1    0    0    0    0 -0.00000000000E+00 -0.00000000000E+00 -0.50000000000E+03  0.50000000000E+03  0.00000000000E+00 0. -1.
        -11    1    1    2    0    0  0.99440287993E+01 -0.28236884462E+01  0.48467692953E+03  0.48478715220E+03  0.00000000000E+00 0.  1.
         11    1    1    2    0    0  0.10324783716E-01 -0.75736388230E+01 -0.48275423660E+03  0.48281364217E+03  0.00000000000E+00 0. -1.
        -15    1    1    2    0    0 -0.86435617241E+01  0.11061699521E+02  0.11836507560E+02  0.18448116321E+02  0.17770000000E+01 0. -1.
         15    1    1    2    0    0 -0.13107918590E+01 -0.66437225204E+00 -0.13759200485E+02  0.13951089304E+02  0.17770000000E+01 0.  1.
</event>
<event>
 6    1  0.2408691E-003  0.5009422E+03  0.7546771E-02  0.9397704E-01
        -11   -1    0    0    0    0  0.00000000000E+00  0.00000000000E+00  0.50000000000E+03  0.50000000000E+03  0.00000000000E+00 0.  1.
         11   -1    0    0    0    0 -0.00000000000E+00 -0.00000000000E+00 -0.50000000000E+03  0.50000000000E+03  0.00000000000E+00 0.  1.
        -11    1    1    2    0    0  0.18166306161E+01 -0.97204079860E+01  0.37809130195E+03  0.37822059580E+03  0.00000000000E+00 0.  1.
         11    1    1    2    0    0 -0.78867142068E+01 -0.16216884282E+01 -0.49899284743E+03  0.49905780419E+03  0.00000000000E+00 0.  1.
        -15    1    1    2    0    0 -0.24389856698E+01  0.41715341414E+01  0.83520454784E+02  0.83678996436E+02  0.17770000000E+01 0.  1.
         15    1    1    2    0    0  0.85090692604E+01  0.71705622728E+01  0.37381090701E+02  0.39042603576E+02  0.17770000000E+01 0. -1.
</event>
<event>
 6    1  0.2408691E-003  0.5104473E+03  0.7546771E-02  0.9376732E-01
        -11   -1    0    0    0    0  0.00000000000E+00  0.00000000000E+00  0.50000000000E+03  0.50000000000E+03  0.00000000000E+00 0. -1.
         11   -1    0    0    0    0 -0.00000000000E+00 -0.00000000000E+00 -0.50000000000E+03  0.50000000000E+03  0.00000000000E+00 0. -1.
        -11    1    1    2    0    0 -0.79392474119E+01  0.28643830688E+02  0.48864953582E+03  0.48955272397E+03  0.00000000000E+00 0. -1.
         11    1    1    2    0    0  0.59301180835E+01  0.14221370258E+02 -0.40883192191E+03  0.40912217496E+03  0.00000000000E+00 0. -1.
        -15    1    1    2    0    0 -0.33207287337E+01 -0.17023781509E+02 -0.71511387944E+02  0.73606200220E+02  0.17770000000E+01 0. -1.
         15    1    1    2    0    0  0.53298580621E+01 -0.25841419437E+02 -0.83062259724E+01  0.27718900851E+02  0.17770000000E+01 0.  1.
</event>
<event>
 6    1  0.2408691E-003  0.4785725E+03  0.7546771E-02  0.9449074E-01
        -11   -1    0    0    0    0  0.00000000000E+00  0.00000000000E+00  0.50000000000E+03  0.50000000000E+03  0.00000000000E+00 0.  1.
         11   -1    0    0    0    0 -0.00000000000E+00 -0.00000000000E+00 -0.50000000000E+03  0.50000000000E+03  0.00000000000E+00 0. -1.
        -11    1    1    2    0    0  0.26106277922E+02  0.38959415642E-01  0.47679659108E+03  0.47751076274E+03  0.00000000000E+00 0.  1.
         11    1    1    2    0    0 -0.12557258901E+02 -0.15941954309E+02 -0.47943665015E+03  0.47986595229E+03  0.00000000000E+00 0. -1.
        -15    1    1    2    0    0 -0.17322470977E+02  0.12063866824E+02 -0.13767032282E+02  0.25264476847E+02  0.17770000000E+01 0. -1.
         15    1    1    2    0    0  0.37734519565E+01  0.38391280695E+01  0.16407091351E+02  0.17358808127E+02  0.17770000000E+01 0.  1.
</event>
<event>
 6    1  0.2408691E-003  0.5106726E+03  0.7546771E-02  0.9376241E-01
        -11   -1    0    0    0    0  0.00000000000E+00  0.00000000000E+00  0.50000000000E+03  0.50000000000E+03  0.00000000000E+00 0. -1.
         11   -1    0    0    0    0 -0.00000000000E+00 -0.00000000000E+00 -0.50000000000E+03  0.50000000000E+03  0.00000000000E+00 0.  1.
        -11    1    1    2    0    0 -0.19209321848E+02  0.86221827858E+01  0.48887420617E+03  0.48932742570E+03  0.00000000000E+00 0. -1.
         11    1    1    2    0    0  0.11814093014E+02 -0.32265739300E+01 -0.48008892432E+03  0.48024510287E+03  0.00000000000E+00 0.  1.
        -15    1    1    2    0    0 -0.23823915855E+01  0.79239145152E+01 -0.10763118903E+02  0.13691846787E+02  0.17770000000E+01 0.  1.
         15    1    1    2    0    0  0.97776204190E+01 -0.13319523371E+02  0.19778370484E+01  0.16735624646E+02  0.17770000000E+01 0. -1.
</event>
<event>
 6    1  0.2408691E-003  0.5105828E+03  0.7546771E-02  0.9376436E-01
        -11   -1    0    0    0    0  0.00000000000E+00  0.00000000000E+00  0.50000000000E+03  0.50000000000E+03  0.00000000000E+00 0. -1.
         11   -1    0    0    0    0 -0.00000000000E+00 -0.00000000000E+00 -0.50000000000E+03  0.50000000000E+03  0.00000000000E+00 0. -1.
        -11    1    1    2    0    0 -0.58773506255E+01 -0.29966783233E+01  0.48937273099E+03  0.48941719746E+03  0.00000000000E+00 0. -1.
         11    1    1    2    0    0 -0.10140927743E+01  0.75588629853E+01 -0.46714332903E+03  0.46720558072E+03  0.00000000000E+00 0. -1.
        -15    1    1    2    0    0  0.69626716294E+01  0.58070924792E+01  0.74626111451E+01  0.11876422584E+02  0.17770000000E+01 0.  1.
         15    1    1    2    0    0 -0.71228229566E-01 -0.10369277141E+02 -0.29692013101E+02  0.31500799242E+02  0.17770000000E+01 0.  1.
</event>
<event>
 6    1  0.2408691E-003  0.5037659E+03  0.7546771E-02  0.9391422E-01
        -11   -1    0    0    0    0  0.00000000000E+00  0.00000000000E+00  0.50000000000E+03  0.50000000000E+03  0.00000000000E+00 0. -1.
         11   -1    0    0    0    0 -0.00000000000E+00 -0.00000000000E+00 -0.50000000000E+03  0.50000000000E+03  0.00000000000E+00 0. -1.
        -11    1    1    2    0    0 -0.25351777781E+01 -0.83764637237E+01  0.49615689666E+03  0.49623407619E+03  0.00000000000E+00 0. -1.
         11    1    1    2    0    0 -0.14490298605E+01  0.55859895967E+01 -0.41033771417E+03  0.41037829211E+03  0.00000000000E+00 0. -1.
        -15    1    1    2    0    0  0.73968247893E+01 -0.21398308461E+01 -0.58479380052E+00  0.79241154587E+01  0.17770000000E+01 0.  1.
         15    1    1    2    0    0 -0.34126171507E+01  0.49303049732E+01 -0.85234388695E+02  0.85463516240E+02  0.17770000000E+01 0. -1.
</event>
<event>
 6    1  0.2408691E-003  0.5162979E+03  0.7546771E-02  0.9364063E-01
        -11   -1    0    0    0    0  0.00000000000E+00  0.00000000000E+00  0.50000000000E+03  0.50000000000E+03  0.00000000000E+00 0. -1.
         11   -1    0    0    0    0 -0.00000000000E+00 -0.00000000000E+00 -0.50000000000E+03  0.50000000000E+03  0.00000000000E+00 0. -1.
        -11    1    1    2    0    0  0.82423924900E+01  0.19033703462E+01  0.45917946068E+03  0.45925737551E+03  0.00000000000E+00 0. -1.
         11    1    1    2    0    0 -0.65424122275E+01 -0.16415890695E+01 -0.48365501739E+03  0.48370205067E+03  0.00000000000E+00 0. -1.
        -15    1    1    2    0    0 -0.14294397661E+02  0.69435062114E+01  0.35365039827E+02  0.38812186926E+02  0.17770000000E+01 0. -1.
         15    1    1    2    0    0  0.12594417399E+02 -0.72052874881E+01 -0.10889483108E+02  0.18228386894E+02  0.17770000000E+01 0.  1.
</event>
<event>
 6    1  0.2408691E-003  0.5064884E+03  0.7546771E-02  0.9385407E-01
        -11   -1    0    0    0    0  0.00000000000E+00  0.00000000000E+00  0.50000000000E+03  0.50000000000E+03  0.00000000000E+00 0. -1.
         11   -1    0    0    0    0 -0.00000000000E+00 -0.00000000000E+00 -0.50000000000E+03  0.50000000000E+03  0.00000000000E+00 0.  1.
        -11    1    1    2    0    0 -0.23324580969E+01 -0.73102263366E+01  0.49345196974E+03  0.49351162723E+03  0.00000000000E+00 0. -1.
         11    1    1    2    0    0  0.11606960898E+01 -0.94955615047E+01 -0.47548723161E+03  0.47558345254E+03  0.00000000000E+00 0.  1.
        -15    1    1    2    0    0  0.75816385866E+01  0.14276640982E+02 -0.67166005837E+01  0.17594720054E+02  0.17770000000E+01 0.  1.
         15    1    1    2    0    0 -0.64098765795E+01  0.25291468590E+01 -0.11248137540E+02  0.13310200176E+02  0.17770000000E+01 0. -1.
</event>
<event>
 6    1  0.2408691E-003  0.5110918E+03  0.7546771E-02  0.9375327E-01
        -11   -1    0    0    0    0  0.00000000000E+00  0.00000000000E+00  0.50000000000E+03  0.50000000000E+03  0.00000000000E+00 0. -1.
         11   -1    0    0    0    0 -0.00000000000E+00 -0.00000000000E+00 -0.50000000000E+03  0.50000000000E+03  0.00000000000E+00 0.  1.
        -11    1    1    2    0    0 -0.66586812887E+01 -0.11634084847E+01  0.48886149803E+03  0.48890822842E+03  0.00000000000E+00 0. -1.
         11    1    1    2    0    0  0.64445115540E+01  0.68695169031E+01 -0.48020119396E+03  0.48029356510E+03  0.00000000000E+00 0.  1.
        -15    1    1    2    0    0 -0.67320704250E+01 -0.11538495787E+01 -0.17299330559E+02  0.18683594618E+02  0.17770000000E+01 0.  1.
         15    1    1    2    0    0  0.69462401596E+01 -0.45522588398E+01  0.86390264928E+01  0.12114611865E+02  0.17770000000E+01 0. -1.
</event>
<event>
 6    1  0.2408691E-003  0.5030260E+03  0.7546771E-02  0.9393064E-01
        -11   -1    0    0    0    0  0.00000000000E+00  0.00000000000E+00  0.50000000000E+03  0.50000000000E+03  0.00000000000E+00 0.  1.
         11   -1    0    0    0    0 -0.00000000000E+00 -0.00000000000E+00 -0.50000000000E+03  0.50000000000E+03  0.00000000000E+00 0. -1.
        -11    1    1    2    0    0 -0.62262534659E+00 -0.61637735002E+01  0.41953601842E+03  0.41958175665E+03  0.00000000000E+00 0.  1.
         11    1    1    2    0    0 -0.77891755993E+01  0.27660675578E+00 -0.49691287455E+03  0.49697399596E+03  0.00000000000E+00 0. -1.
        -15    1    1    2    0    0  0.90656357965E+01 -0.84295089099E+01  0.15559310310E+02  0.19962270392E+02  0.17770000000E+01 0. -1.
         15    1    1    2    0    0 -0.65383485065E+00  0.14316675654E+02  0.61817545827E+02  0.63481976992E+02  0.17770000000E+01 0.  1.
</event>
<event>
 6    1  0.2408691E-003  0.4606557E+03  0.7546771E-02  0.9492422E-01
        -11   -1    0    0    0    0  0.00000000000E+00  0.00000000000E+00  0.50000000000E+03  0.50000000000E+03  0.00000000000E+00 0. -1.
         11   -1    0    0    0    0 -0.00000000000E+00 -0.00000000000E+00 -0.50000000000E+03  0.50000000000E+03  0.00000000000E+00 0. -1.
        -11    1    1    2    0    0 -0.24183606272E+01 -0.30502731986E+02  0.45956101806E+03  0.46057854319E+03  0.00000000000E+00 0. -1.
         11    1    1    2    0    0  0.31796314924E+00  0.40664039328E+02 -0.45899356655E+03  0.46079144885E+03  0.00000000000E+00 0. -1.
        -15    1    1    2    0    0  0.24067565965E+02  0.26305332264E+02 -0.37914206295E+01  0.35899175985E+02  0.17770000000E+01 0. -1.
         15    1    1    2    0    0 -0.21967168488E+02 -0.36466639606E+02  0.32239691171E+01  0.42730831976E+02  0.17770000000E+01 0.  1.
</event>
<event>
 6    1  0.2408691E-003  0.5307927E+03  0.7546771E-02  0.9333428E-01
        -11   -1    0    0    0    0  0.00000000000E+00  0.00000000000E+00  0.50000000000E+03  0.50000000000E+03  0.00000000000E+00 0.  1.
         11   -1    0    0    0    0 -0.00000000000E+00 -0.00000000000E+00 -0.50000000000E+03  0.50000000000E+03  0.00000000000E+00 0. -1.
        -11    1    1    2    0    0  0.10962121012E+02 -0.48647642539E+01  0.46905403612E+03  0.46920733458E+03  0.00000000000E+00 0.  1.
         11    1    1    2    0    0 -0.57080539213E+01  0.11283220484E+02 -0.31442138905E+03  0.31467555170E+03  0.00000000000E+00 0. -1.
        -15    1    1    2    0    0 -0.71752778865E+02  0.42740207405E+01 -0.37759210465E+02  0.81213571723E+02  0.17770000000E+01 0.  1.
         15    1    1    2    0    0  0.66498711774E+02 -0.10692476971E+02 -0.11687343660E+03  0.13490354200E+03  0.17770000000E+01 0. -1.
</event>
<event>
 6    1  0.2408691E-003  0.5018654E+03  0.7546771E-02  0.9395645E-01
        -11   -1    0    0    0    0  0.00000000000E+00  0.00000000000E+00  0.50000000000E+03  0.50000000000E+03  0.00000000000E+00 0.  1.
         11   -1    0    0    0    0 -0.00000000000E+00 -0.00000000000E+00 -0.50000000000E+03  0.50000000000E+03  0.00000000000E+00 0. -1.
        -11    1    1    2    0    0 -0.67542804345E+01  0.33932260842E+01  0.47580224842E+03  0.47586228458E+03  0.00000000000E+00 0.  1.
         11    1    1    2    0    0  0.66172237811E+01  0.22963787340E+01 -0.49808538285E+03  0.49813463001E+03  0.00000000000E+00 0. -1.
        -15    1    1    2    0    0 -0.22316722072E+01  0.11567055311E+01  0.15870524114E+02  0.16166310438E+02  0.17770000000E+01 0.  1.
         15    1    1    2    0    0  0.23687288606E+01 -0.68463103493E+01  0.64126103180E+01  0.98367749748E+01  0.17770000000E+01 0. -1.
</event>
<event>
 6    1  0.2408691E-003  0.5004474E+03  0.7546771E-02  0.9398809E-01
        -11   -1    0    0    0    0  0.00000000000E+00  0.00000000000E+00  0.50000000000E+03  0.50000000000E+03  0.00000000000E+00 0. -1.
         11   -1    0    0    0    0 -0.00000000000E+00 -0.00000000000E+00 -0.50000000000E+03  0.50000000000E+03  0.00000000000E+00 0. -1.
        -11    1    1    2    0    0  0.32762641274E+01  0.62546658077E+01  0.26977326219E+03  0.26986564758E+03  0.00000000000E+00 0. -1.
         11    1    1    2    0    0 -0.35125856955E+01 -0.18464541023E+02 -0.49919885464E+03  0.49955257382E+03  0.00000000000E+00 0. -1.
        -15    1    1    2    0    0 -0.25720222549E+01  0.12001497263E+02  0.67990684987E+02  0.69112532938E+02  0.17770000000E+01 0.  1.
         15    1    1    2    0    0  0.28083438230E+01  0.20837795152E+00  0.16143490747E+03  0.16146924566E+03  0.17770000000E+01 0. -1.
</event>
<event>
 6    1  0.2408691E-003  0.5135494E+03  0.7546771E-02  0.9369992E-01
        -11   -1    0    0    0    0  0.00000000000E+00  0.00000000000E+00  0.50000000000E+03  0.50000000000E+03  0.00000000000E+00 0.  1.
         11   -1    0    0    0    0 -0.00000000000E+00 -0.00000000000E+00 -0.50000000000E+03  0.50000000000E+03  0.00000000000E+00 0.  1.
        -11    1    1    2    0    0 -0.56192840867E+01 -0.32909987855E+02  0.48530353772E+03  0.48645058061E+03  0.00000000000E+00 0.  1.
         11    1    1    2    0    0 -0.60939241832E+01 -0.74161278530E-01 -0.26929377862E+03  0.26936273056E+03  0.00000000000E+00 0.  1.
        -15    1    1    2    0    0  0.85865406468E+01 -0.38178976006E+02 -0.49898272590E+02  0.63437829610E+02  0.17770000000E+01 0. -1.
         15    1    1    2    0    0  0.31266676231E+01  0.71163125140E+02 -0.16611148651E+03  0.18074885922E+03  0.17770000000E+01 0.  1.
</event>
<event>
 6    1  0.2408691E-003  0.3731668E+03  0.7546771E-02  0.9739186E-01
        -11   -1    0    0    0    0  0.00000000000E+00  0.00000000000E+00  0.50000000000E+03  0.50000000000E+03  0.00000000000E+00 0.  1.
         11   -1    0    0    0    0 -0.00000000000E+00 -0.00000000000E+00 -0.50000000000E+03  0.50000000000E+03  0.00000000000E+00 0. -1.
        -11    1    1    2    0    0  0.42181577054E+02  0.30019212546E+01  0.42006177264E+03  0.42218501845E+03  0.00000000000E+00 0.  1.
         11    1    1    2    0    0  0.47850046336E+01  0.72561787250E+01 -0.15799001955E+03  0.15822893122E+03  0.00000000000E+00 0. -1.
        -15    1    1    2    0    0 -0.15447889757E+02  0.57723048580E+02  0.62491291475E+02  0.86480673416E+02  0.17770000000E+01 0.  1.
         15    1    1    2    0    0 -0.31518691930E+02 -0.67981148560E+02 -0.32456304457E+03  0.33310537691E+03  0.17770000000E+01 0. -1.
</event>
<event>
 6    1  0.2408691E-003  0.5005185E+03  0.7546771E-02  0.9398650E-01
        -11   -1    0    0    0    0  0.00000000000E+00  0.00000000000E+00  0.50000000000E+03  0.50000000000E+03  0.00000000000E+00 0.  1.
         11   -1    0    0    0    0 -0.00000000000E+00 -0.00000000000E+00 -0.50000000000E+03  0.50000000000E+03  0.00000000000E+00 0. -1.
        -11    1    1    2    0    0  0.45168716575E+01 -0.54821420844E+01  0.49943099208E+03  0.49948150302E+03  0.00000000000E+00 0.  1.
         11    1    1    2    0    0  0.25159764995E+01 -0.12575597733E+01 -0.14424766447E+03  0.14427508551E+03  0.00000000000E+00 0. -1.
        -15    1    1    2    0    0 -0.97676845054E+00  0.12483490052E+02 -0.86011452105E+02  0.86936294047E+02  0.17770000000E+01 0.  1.
         15    1    1    2    0    0 -0.60560797064E+01 -0.57437881938E+01 -0.26917187550E+03  0.26930711742E+03  0.17770000000E+01 0. -1.
</event>
<event>
 6    1  0.2408691E-003  0.5078127E+03  0.7546771E-02  0.9382496E-01
        -11   -1    0    0    0    0  0.00000000000E+00  0.00000000000E+00  0.50000000000E+03  0.50000000000E+03  0.00000000000E+00 0.  1.
         11   -1    0    0    0    0 -0.00000000000E+00 -0.00000000000E+00 -0.50000000000E+03  0.50000000000E+03  0.00000000000E+00 0.  1.
        -11    1    1    2    0    0  0.11243760930E+00 -0.14181664613E+02  0.49198290507E+03  0.49218727242E+03  0.00000000000E+00 0.  1.
         11    1    1    2    0    0 -0.75617983694E+01  0.71080428538E+01 -0.47844356868E+03  0.47855611320E+03  0.00000000000E+00 0.  1.
        -15    1    1    2    0    0  0.12618251563E+00  0.99113403025E+01  0.32950380088E+01  0.10595545908E+02  0.17770000000E+01 0.  1.
         15    1    1    2    0    0  0.73231782445E+01 -0.28377185434E+01 -0.16834374400E+02  0.18661068473E+02  0.17770000000E+01 0. -1.
</event>
<event>
 6    1  0.2408691E-003  0.5078163E+03  0.7546771E-02  0.9382488E-01
        -11   -1    0    0    0    0  0.00000000000E+00  0.00000000000E+00  0.50000000000E+03  0.50000000000E+03  0.00000000000E+00 0.  1.
         11   -1    0    0    0    0 -0.00000000000E+00 -0.00000000000E+00 -0.50000000000E+03  0.50000000000E+03  0.00000000000E+00 0.  1.
        -11    1    1    2    0    0 -0.46575276316E+01 -0.63114132736E+01  0.49212120896E+03  0.49218371653E+03  0.00000000000E+00 0.  1.
         11    1    1    2    0    0 -0.10817368502E+02  0.53901270832E+01 -0.47737904012E+03  0.47753200612E+03  0.00000000000E+00 0.  1.
        -15    1    1    2    0    0  0.89670850266E+01  0.87178019188E+01 -0.42224255545E+00  0.12639015070E+02  0.17770000000E+01 0.  1.
         15    1    1    2    0    0  0.65078111073E+01 -0.77965157285E+01 -0.14319926292E+02  0.17645262280E+02  0.17770000000E+01 0. -1.
</event>
<event>
 6    1  0.1053230E-002  0.5001520E+03  0.7546771E-02  0.9399470E-01
        -11   -1    0    0    0    0  0.00000000000E+00  0.00000000000E+00  0.50000000000E+03  0.50000000000E+03  0.00000000000E+00 0.  1.
         11   -1    0    0    0    0 -0.00000000000E+00 -0.00000000000E+00 -0.50000000000E+03  0.50000000000E+03  0.00000000000E+00 0.  1.
        -11    1    1    2    0    0 -0.49496267504E+01 -0.60278909022E+01  0.49978709543E+03  0.49984795191E+03  0.00000000000E+00 0.  1.
         11    1    1    2    0    0  0.18003974282E+00 -0.51692888096E+00 -0.35568041485E+02  0.35572253300E+02  0.00000000000E+00 0.  1.
        -15    1    1    2    0    0  0.82811750702E+01  0.55322574853E+01 -0.43019261275E+03  0.43031154473E+03  0.17770000000E+01 0.  1.
         15    1    1    2    0    0 -0.35115880627E+01  0.10125622979E+01 -0.34026441188E+02  0.34268250058E+02  0.17770000000E+01 0. -1.
</event>
<event>
 6    1  0.2408691E-003  0.5016879E+03  0.7546771E-02  0.9396041E-01
        -11   -1    0    0    0    0  0.00000000000E+00  0.00000000000E+00  0.50000000000E+03  0.50000000000E+03  0.00000000000E+00 0.  1.
         11   -1    0    0    0    0 -0.00000000000E+00 -0.00000000000E+00 -0.50000000000E+03  0.50000000000E+03  0.00000000000E+00 0.  1.
        -11    1    1    2    0    0  0.67697874624E+01 -0.21671227003E+01  0.49826139631E+03  0.49831209647E+03  0.00000000000E+00 0.  1.
         11    1    1    2    0    0 -0.10798382247E+02 -0.15401412354E+01 -0.41304698534E+03  0.41319098392E+03  0.00000000000E+00 0.  1.
        -15    1    1    2    0    0  0.13153324709E+02  0.24345913750E+01 -0.37141807467E+02  0.39517195966E+02  0.17770000000E+01 0.  1.
         15    1    1    2    0    0 -0.91247299247E+01  0.12726725608E+01 -0.48072603499E+02  0.48979723640E+02  0.17770000000E+01 0. -1.
</event>
<event>
 6    1  0.2408691E-003  0.5008336E+03  0.7546771E-02  0.9397946E-01
        -11   -1    0    0    0    0  0.00000000000E+00  0.00000000000E+00  0.50000000000E+03  0.50000000000E+03  0.00000000000E+00 0.  1.
         11   -1    0    0    0    0 -0.00000000000E+00 -0.00000000000E+00 -0.50000000000E+03  0.50000000000E+03  0.00000000000E+00 0. -1.
        -11    1    1    2    0    0 -0.92162183382E+01  0.25201666791E+01  0.49907494249E+03  0.49916639324E+03  0.00000000000E+00 0.  1.
         11    1    1    2    0    0 -0.35730596201E+01 -0.11251110867E+01 -0.85180473957E+02  0.85262804161E+02  0.00000000000E+00 0. -1.
        -15    1    1    2    0    0  0.14564775414E+02  0.35445753365E+00 -0.41128937944E+03  0.41155117506E+03  0.17770000000E+01 0. -1.
         15    1    1    2    0    0 -0.17754974555E+01 -0.17495131260E+01 -0.26050890953E+01  0.40196275433E+01  0.17770000000E+01 0.  1.
</event>
<event>
 6    1  0.2408691E-003  0.5365015E+03  0.7546771E-02  0.9321646E-01
        -11   -1    0    0    0    0  0.00000000000E+00  0.00000000000E+00  0.50000000000E+03  0.50000000000E+03  0.00000000000E+00 0. -1.
         11   -1    0    0    0    0 -0.00000000000E+00 -0.00000000000E+00 -0.50000000000E+03  0.50000000000E+03  0.00000000000E+00 0. -1.
        -11    1    1    2    0    0 -0.50103276575E+00 -0.16784357202E+02  0.17991883262E+03  0.18070072499E+03  0.00000000000E+00 0. -1.
         11    1    1    2    0    0  0.84552655521E+01 -0.21037977436E+01 -0.46341663709E+03  0.46349854047E+03  0.00000000000E+00 0. -1.
        -15    1    1    2    0    0  0.18807365987E+02  0.45533801915E+02  0.30723189383E+03  0.31116175608E+03  0.17770000000E+01 0. -1.
         15    1    1    2    0    0 -0.26761598773E+02 -0.26645646970E+02 -0.23734089358E+02  0.44638978460E+02  0.17770000000E+01 0.  1.
</event>
<event>
 6    1  0.2408691E-003  0.4788784E+03  0.7546771E-02  0.9448352E-01
        -11   -1    0    0    0    0  0.00000000000E+00  0.00000000000E+00  0.50000000000E+03  0.50000000000E+03  0.00000000000E+00 0.  1.
         11   -1    0    0    0    0 -0.00000000000E+00 -0.00000000000E+00 -0.50000000000E+03  0.50000000000E+03  0.00000000000E+00 0.  1.
        -11    1    1    2    0    0  0.10321484293E+02 -0.15774256900E+02  0.47972362341E+03  0.48009386070E+03  0.00000000000E+00 0.  1.
         11    1    1    2    0    0  0.10627363160E+02  0.10007853764E+01 -0.47788838740E+03  0.47800758700E+03  0.00000000000E+00 0.  1.
        -15    1    1    2    0    0 -0.78323161074E+01 -0.14564931470E+01 -0.15059813873E+02  0.17129572989E+02  0.17770000000E+01 0. -1.
         15    1    1    2    0    0 -0.13116531346E+02  0.16229964670E+02  0.13224577859E+02  0.24768979315E+02  0.17770000000E+01 0. -1.
</event>
<event>
 6    1  0.2408691E-003  0.5032900E+03  0.7546771E-02  0.9392478E-01
        -11   -1    0    0    0    0  0.00000000000E+00  0.00000000000E+00  0.50000000000E+03  0.50000000000E+03  0.00000000000E+00 0.  1.
         11   -1    0    0    0    0 -0.00000000000E+00 -0.00000000000E+00 -0.50000000000E+03  0.50000000000E+03  0.00000000000E+00 0. -1.
        -11    1    1    2    0    0  0.14171569937E+02 -0.10848959689E+02  0.49638925951E+03  0.49671000622E+03  0.00000000000E+00 0.  1.
         11    1    1    2    0    0 -0.15114679990E+02  0.23273242501E+02 -0.28093337080E+03  0.28230064860E+03  0.00000000000E+00 0. -1.
        -15    1    1    2    0    0 -0.84884435730E+01  0.93716800520E+01 -0.17812701397E+02  0.21916480588E+02  0.17770000000E+01 0.  1.
         15    1    1    2    0    0  0.94315536267E+01 -0.21795962865E+02 -0.19764318731E+03  0.19907286460E+03  0.17770000000E+01 0. -1.
</event>
<event>
 6    1  0.2408691E-003  0.5006937E+03  0.7546771E-02  0.9398259E-01
        -11   -1    0    0    0    0  0.00000000000E+00  0.00000000000E+00  0.50000000000E+03  0.50000000000E+03  0.00000000000E+00 0.  1.
         11   -1    0    0    0    0 -0.00000000000E+00 -0.00000000000E+00 -0.50000000000E+03  0.50000000000E+03  0.00000000000E+00 0.  1.
        -11    1    1    2    0    0  0.12234728053E+02 -0.62676596452E+01  0.33079241140E+03  0.33107792371E+03  0.00000000000E+00 0.  1.
         11    1    1    2    0    0 -0.11242938175E+01  0.79946279962E+01 -0.49924100715E+03  0.49930628009E+03  0.00000000000E+00 0.  1.
        -15    1    1    2    0    0  0.39392274288E+01 -0.16941092161E+01  0.33841028793E+02  0.34157875776E+02  0.17770000000E+01 0.  1.
         15    1    1    2    0    0 -0.15049661664E+02 -0.32859134908E-01  0.13460756695E+03  0.13545792043E+03  0.17770000000E+01 0. -1.
</event>
<event>
 6    1  0.2408691E-003  0.5129026E+03  0.7546771E-02  0.9371393E-01
        -11   -1    0    0    0    0  0.00000000000E+00  0.00000000000E+00  0.50000000000E+03  0.50000000000E+03  0.00000000000E+00 0. -1.
         11   -1    0    0    0    0 -0.00000000000E+00 -0.00000000000E+00 -0.50000000000E+03  0.50000000000E+03  0.00000000000E+00 0.  1.
        -11    1    1    2    0    0 -0.94861211999E+01 -0.82133576667E+00  0.46765785680E+03  0.46775477775E+03  0.00000000000E+00 0. -1.
         11    1    1    2    0    0 -0.66432390728E+01 -0.24353945219E+01 -0.48704595868E+03  0.48709735130E+03  0.00000000000E+00 0.  1.
        -15    1    1    2    0    0  0.14458901169E+02 -0.54559965902E+01  0.28397834861E+02  0.32379352612E+02  0.17770000000E+01 0. -1.
         15    1    1    2    0    0  0.16704591038E+01  0.87127268787E+01 -0.90097329749E+01  0.12768518338E+02  0.17770000000E+01 0.  1.
</event>
<event>
 6    1  0.2408691E-003  0.5001994E+03  0.7546771E-02  0.9399364E-01
        -11   -1    0    0    0    0  0.00000000000E+00  0.00000000000E+00  0.50000000000E+03  0.50000000000E+03  0.00000000000E+00 0.  1.
         11   -1    0    0    0    0 -0.00000000000E+00 -0.00000000000E+00 -0.50000000000E+03  0.50000000000E+03  0.00000000000E+00 0. -1.
        -11    1    1    2    0    0 -0.17117438239E+01 -0.37979771819E+01  0.27176038965E+03  0.27179231792E+03  0.00000000000E+00 0.  1.
         11    1    1    2    0    0  0.50630354382E+01  0.48308645326E+01 -0.49975163104E+03  0.49980062456E+03  0.00000000000E+00 0. -1.
        -15    1    1    2    0    0 -0.72900026415E+00  0.51435230089E+01  0.54230317756E+02  0.54507544094E+02  0.17770000000E+01 0. -1.
         15    1    1    2    0    0 -0.26222913501E+01 -0.61764103596E+01  0.17376092364E+03  0.17389951343E+03  0.17770000000E+01 0.  1.
</event>
<event>
 6    1  0.2408691E-003  0.5118676E+03  0.7546771E-02  0.9373640E-01
        -11   -1    0    0    0    0  0.00000000000E+00  0.00000000000E+00  0.50000000000E+03  0.50000000000E+03  0.00000000000E+00 0. -1.
         11   -1    0    0    0    0 -0.00000000000E+00 -0.00000000000E+00 -0.50000000000E+03  0.50000000000E+03  0.00000000000E+00 0.  1.
        -11    1    1    2    0    0  0.11716079842E+02 -0.85708105350E+01  0.36735240574E+03  0.36763911017E+03  0.00000000000E+00 0. -1.
         11    1    1    2    0    0 -0.62351374227E+02  0.51238374508E+01 -0.48410669472E+03  0.48813239951E+03  0.00000000000E+00 0.  1.
        -15    1    1    2    0    0 -0.59497789313E+01 -0.29776526330E+01  0.70514212611E+02  0.70849687323E+02  0.17770000000E+01 0. -1.
         15    1    1    2    0    0  0.56585073317E+02  0.64246257172E+01  0.46240076367E+02  0.73378802997E+02  0.17770000000E+01 0.  1.
</event>
<event>
 6    1  0.2408691E-003  0.4691303E+03  0.7546771E-02  0.9471662E-01
        -11   -1    0    0    0    0  0.00000000000E+00  0.00000000000E+00  0.50000000000E+03  0.50000000000E+03  0.00000000000E+00 0.  1.
         11   -1    0    0    0    0 -0.00000000000E+00 -0.00000000000E+00 -0.50000000000E+03  0.50000000000E+03  0.00000000000E+00 0.  1.
        -11    1    1    2    0    0  0.33619294130E-01  0.14144685906E+02  0.47674780005E+03  0.47695758525E+03  0.00000000000E+00 0.  1.
         11    1    1    2    0    0 -0.46699070831E+01  0.16658271063E+02 -0.46161774733E+03  0.46194182607E+03  0.00000000000E+00 0.  1.
        -15    1    1    2    0    0  0.11842513914E+02 -0.18279885268E+02 -0.32043042466E+02  0.38785482344E+02  0.17770000000E+01 0.  1.
         15    1    1    2    0    0 -0.72062261249E+01 -0.12523071701E+02  0.16912989741E+02  0.22315106336E+02  0.17770000000E+01 0. -1.
</event>
<event>
 6    1  0.2408691E-003  0.5034975E+03  0.7546771E-02  0.9392018E-01
        -11   -1    0    0    0    0  0.00000000000E+00  0.00000000000E+00  0.50000000000E+03  0.50000000000E+03  0.00000000000E+00 0.  1.
         11   -1    0    0    0    0 -0.00000000000E+00 -0.00000000000E+00 -0.50000000000E+03  0.50000000000E+03  0.00000000000E+00 0.  1.
        -11    1    1    2    0    0 -0.33606862725E+00 -0.83788946527E+01  0.40338064020E+03  0.40346779265E+03  0.00000000000E+00 0.  1.
         11    1    1    2    0    0  0.96014507053E+01 -0.58165160539E+00 -0.49640934910E+03  0.49650253579E+03  0.00000000000E+00 0.  1.
        -15    1    1    2    0    0  0.45470968803E+01  0.30999727417E+01  0.79616658375E+02  0.79826411299E+02  0.17770000000E+01 0.  1.
         15    1    1    2    0    0 -0.13812478958E+02  0.58605735163E+01  0.13412050521E+02  0.20203260259E+02  0.17770000000E+01 0. -1.
</event>
<event>
 6    1  0.2408691E-003  0.5035889E+03  0.7546771E-02  0.9391815E-01
        -11   -1    0    0    0    0  0.00000000000E+00  0.00000000000E+00  0.50000000000E+03  0.50000000000E+03  0.00000000000E+00 0. -1.
         11   -1    0    0    0    0 -0.00000000000E+00 -0.00000000000E+00 -0.50000000000E+03  0.50000000000E+03  0.00000000000E+00 0. -1.
        -11    1    1    2    0    0 -0.20171355288E+01 -0.62306801790E+01  0.43942494795E+03  0.43947374790E+03  0.00000000000E+00 0. -1.
         11    1    1    2    0    0 -0.85829062668E+01 -0.25656879372E+01 -0.49633022112E+03  0.49641105692E+03  0.00000000000E+00 0. -1.
        -15    1    1    2    0    0 -0.68248082904E+01  0.59907616081E+01  0.33458032090E+02  0.34714044322E+02  0.17770000000E+01 0. -1.
         15    1    1    2    0    0  0.17424850086E+02  0.28056065081E+01  0.23447241082E+02  0.29401150858E+02  0.17770000000E+01 0.  1.
</event>
<event>
 6    1  0.2408691E-003  0.4796368E+03  0.7546771E-02  0.9446563E-01
        -11   -1    0    0    0    0  0.00000000000E+00  0.00000000000E+00  0.50000000000E+03  0.50000000000E+03  0.00000000000E+00 0.  1.
         11   -1    0    0    0    0 -0.00000000000E+00 -0.00000000000E+00 -0.50000000000E+03  0.50000000000E+03  0.00000000000E+00 0.  1.
        -11    1    1    2    0    0  0.73745146403E+01  0.39877972725E+01  0.47893534755E+03  0.47900871926E+03  0.00000000000E+00 0.  1.
         11    1    1    2    0    0  0.66526362998E+01 -0.74310162796E+01 -0.48027095329E+03  0.48037450614E+03  0.00000000000E+00 0.  1.
        -15    1    1    2    0    0  0.15768972709E+01  0.14792274517E+02 -0.10145953705E+02  0.18094090084E+02  0.17770000000E+01 0.  1.
         15    1    1    2    0    0 -0.15604048211E+02 -0.11349055510E+02  0.11481559446E+02  0.22522684517E+02  0.17770000000E+01 0. -1.
</event>
<event>
 6    1  0.2408691E-003  0.5002960E+03  0.7546771E-02  0.9399148E-01
        -11   -1    0    0    0    0  0.00000000000E+00  0.00000000000E+00  0.50000000000E+03  0.50000000000E+03  0.00000000000E+00 0.  1.
         11   -1    0    0    0    0 -0.00000000000E+00 -0.00000000000E+00 -0.50000000000E+03  0.50000000000E+03  0.00000000000E+00 0.  1.
        -11    1    1    2    0    0 -0.35317327511E+01 -0.27438221597E+01  0.24080821232E+03  0.24084973908E+03  0.00000000000E+00 0.  1.
         11    1    1    2    0    0 -0.48114385676E+01  0.91653490456E+01 -0.49959675943E+03  0.49970398797E+03  0.00000000000E+00 0.  1.
        -15    1    1    2    0    0  0.25477673896E+01 -0.64579878179E+01  0.44607333802E+02  0.45179294852E+02  0.17770000000E+01 0.  1.
         15    1    1    2    0    0  0.57954039291E+01  0.36460931952E-01  0.21418121331E+03  0.21426697809E+03  0.17770000000E+01 0. -1.
</event>
<event>
 6    1  0.2408691E-003  0.5005251E+03  0.7546771E-02  0.9398635E-01
        -11   -1    0    0    0    0  0.00000000000E+00  0.00000000000E+00  0.50000000000E+03  0.50000000000E+03  0.00000000000E+00 0. -1.
         11   -1    0    0    0    0 -0.00000000000E+00 -0.00000000000E+00 -0.50000000000E+03  0.50000000000E+03  0.00000000000E+00 0.  1.
        -11    1    1    2    0    0  0.20869193556E+01  0.47829091311E+01  0.25944660134E+03  0.25949907591E+03  0.00000000000E+00 0. -1.
         11    1    1    2    0    0 -0.82224029361E+01 -0.18110168043E+01 -0.49940388596E+03  0.49947485322E+03  0.00000000000E+00 0.  1.
        -15    1    1    2    0    0 -0.13205628953E+01 -0.38156640876E+01  0.21139920353E+03  0.21144522733E+03  0.17770000000E+01 0. -1.
         15    1    1    2    0    0  0.74560464758E+01  0.84377176080E+00  0.28558081094E+02  0.29580843541E+02  0.17770000000E+01 0.  1.
</event>
<event>
 6    1  0.2408691E-003  0.5121274E+03  0.7546771E-02  0.9373075E-01
        -11   -1    0    0    0    0  0.00000000000E+00  0.00000000000E+00  0.50000000000E+03  0.50000000000E+03  0.00000000000E+00 0.  1.
         11   -1    0    0    0    0 -0.00000000000E+00 -0.00000000000E+00 -0.50000000000E+03  0.50000000000E+03  0.00000000000E+00 0.  1.
        -11    1    1    2    0    0  0.55477017215E+01  0.58207755050E+01  0.48780635107E+03  0.48787262125E+03  0.00000000000E+00 0.  1.
         11    1    1    2    0    0 -0.14191326564E+01 -0.78947832775E+01 -0.45490415276E+03  0.45497486715E+03  0.00000000000E+00 0.  1.
        -15    1    1    2    0    0  0.22686480049E+01 -0.26480312181E+01  0.11428142599E+02  0.12079693927E+02  0.17770000000E+01 0. -1.
         15    1    1    2    0    0 -0.63972170700E+01  0.47220389906E+01 -0.44330340912E+02  0.45072817672E+02  0.17770000000E+01 0.  1.
</event>
<event>
 6    1  0.2408691E-003  0.5011646E+03  0.7546771E-02  0.9397208E-01
        -11   -1    0    0    0    0  0.00000000000E+00  0.00000000000E+00  0.50000000000E+03  0.50000000000E+03  0.00000000000E+00 0.  1.
         11   -1    0    0    0    0 -0.00000000000E+00 -0.00000000000E+00 -0.50000000000E+03  0.50000000000E+03  0.00000000000E+00 0. -1.
        -11    1    1    2    0    0 -0.29529287963E+01 -0.26328530090E+01  0.20638719503E+03  0.20642510985E+03  0.00000000000E+00 0.  1.
         11    1    1    2    0    0 -0.61823615331E+01 -0.73872819622E+01 -0.49874242855E+03  0.49883544738E+03  0.00000000000E+00 0. -1.
        -15    1    1    2    0    0  0.56622894612E+01  0.14180767293E+01  0.27425570372E+03  0.27432357029E+03  0.17770000000E+01 0.  1.
         15    1    1    2    0    0  0.34730008682E+01  0.86020582419E+01  0.18099529801E+02  0.20415872479E+02  0.17770000000E+01 0. -1.
</event>
<event>
 6    1  0.2408691E-003  0.4561154E+03  0.7546771E-02  0.9503741E-01
        -11   -1    0    0    0    0  0.00000000000E+00  0.00000000000E+00  0.50000000000E+03  0.50000000000E+03  0.00000000000E+00 0.  1.
         11   -1    0    0    0    0 -0.00000000000E+00 -0.00000000000E+00 -0.50000000000E+03  0.50000000000E+03  0.00000000000E+00 0.  1.
        -11    1    1    2    0    0 -0.20406105509E+02  0.19912136917E+02  0.45072367070E+03  0.45162454503E+03  0.00000000000E+00 0.  1.
         11    1    1    2    0    0 -0.81772367507E+01 -0.32844461121E+01 -0.46118109219E+03  0.46126527572E+03  0.00000000000E+00 0.  1.
        -15    1    1    2    0    0 -0.85705915899E+01  0.16446787839E+01 -0.28727218534E+02  0.30076083891E+02  0.17770000000E+01 0.  1.
         15    1    1    2    0    0  0.37153933849E+02 -0.18272369588E+02  0.39184640026E+02  0.57034095363E+02  0.17770000000E+01 0. -1.
</event>
<event>
 6    1  0.2408691E-003  0.3947573E+03  0.7546771E-02  0.9672019E-01
        -11   -1    0    0    0    0  0.00000000000E+00  0.00000000000E+00  0.50000000000E+03  0.50000000000E+03  0.00000000000E+00 0.  1.
         11   -1    0    0    0    0 -0.00000000000E+00 -0.00000000000E+00 -0.50000000000E+03  0.50000000000E+03  0.00000000000E+00 0. -1.
        -11    1    1    2    0    0 -0.22359872872E+01  0.21929534027E+00  0.97348981519E+02  0.97374904017E+02  0.00000000000E+00 0.  1.
         11    1    1    2    0    0 -0.57322988300E+02 -0.27949760748E+02 -0.40025217622E+03  0.40530102231E+03  0.00000000000E+00 0. -1.
        -15    1    1    2    0    0  0.96630694981E+02 -0.45032025577E+02  0.37408212752E+03  0.38898068127E+03  0.17770000000E+01 0.  1.
         15    1    1    2    0    0 -0.37071719394E+02  0.72762490985E+02 -0.71178932817E+02  0.10834339241E+03  0.17770000000E+01 0. -1.
</event>
<event>
 6    1  0.2408691E-003  0.5059065E+03  0.7546771E-02  0.9386689E-01
        -11   -1    0    0    0    0  0.00000000000E+00  0.00000000000E+00  0.50000000000E+03  0.50000000000E+03  0.00000000000E+00 0.  1.
         11   -1    0    0    0    0 -0.00000000000E+00 -0.00000000000E+00 -0.50000000000E+03  0.50000000000E+03  0.00000000000E+00 0. -1.
        -11    1    1    2    0    0  0.92321701224E+01 -0.10147403323E+01  0.48726692684E+03  0.48735543565E+03  0.00000000000E+00 0.  1.
         11    1    1    2    0    0 -0.24811049539E+01  0.68399009600E+01 -0.49403987422E+03  0.49409345011E+03  0.00000000000E+00 0. -1.
        -15    1    1    2    0    0 -0.82683892527E+01  0.33159609827E+00  0.82313278245E+01  0.11806299317E+02  0.17770000000E+01 0. -1.
         15    1    1    2    0    0  0.15173240841E+01 -0.61567567260E+01 -0.14583804500E+01  0.67448149193E+01  0.17770000000E+01 0.  1.
</event>
<event>
 6    1  0.2408691E-003  0.5104671E+03  0.7546771E-02  0.9376689E-01
        -11   -1    0    0    0    0  0.00000000000E+00  0.00000000000E+00  0.50000000000E+03  0.50000000000E+03  0.00000000000E+00 0.  1.
         11   -1    0    0    0    0 -0.00000000000E+00 -0.00000000000E+00 -0.50000000000E+03  0.50000000000E+03  0.00000000000E+00 0.  1.
        -11    1    1    2    0    0 -0.15115908875E+02  0.19636450804E+02  0.48890530484E+03  0.48953291820E+03  0.00000000000E+00 0.  1.
         11    1    1    2    0    0  0.56025372287E+01 -0.53135604005E+01 -0.44819774744E+03  0.44826425594E+03  0.00000000000E+00 0.  1.
        -15    1    1    2    0    0  0.13203072982E+02 -0.17138075213E+02 -0.48399955882E+02  0.53044775582E+02  0.17770000000E+01 0. -1.
         15    1    1    2    0    0 -0.36897013351E+01  0.28151848100E+01  0.76923984807E+01  0.91580502751E+01  0.17770000000E+01 0.  1.
</event>
<event>
 6    1  0.2408691E-003  0.5029287E+03  0.7546771E-02  0.9393280E-01
        -11   -1    0    0    0    0  0.00000000000E+00  0.00000000000E+00  0.50000000000E+03  0.50000000000E+03  0.00000000000E+00 0. -1.
         11   -1    0    0    0    0 -0.00000000000E+00 -0.00000000000E+00 -0.50000000000E+03  0.50000000000E+03  0.00000000000E+00 0.  1.
        -11    1    1    2    0    0 -0.28304628875E+00 -0.91644773905E+01  0.49698675864E+03  0.49707132891E+03  0.00000000000E+00 0. -1.
         11    1    1    2    0    0  0.60775684626E+01  0.30696688975E+01 -0.99031229402E+02  0.99265019531E+02  0.00000000000E+00 0.  1.
        -15    1    1    2    0    0 -0.11390815712E+02  0.43601290343E+01 -0.10591164315E+02  0.16250904539E+02  0.17770000000E+01 0. -1.
         15    1    1    2    0    0  0.55962935384E+01  0.17346794588E+01 -0.38736436492E+03  0.38741274702E+03  0.17770000000E+01 0.  1.
</event>
<event>
 6    1  0.2408691E-003  0.5004572E+03  0.7546771E-02  0.9398787E-01
        -11   -1    0    0    0    0  0.00000000000E+00  0.00000000000E+00  0.50000000000E+03  0.50000000000E+03  0.00000000000E+00 0. -1.
         11   -1    0    0    0    0 -0.00000000000E+00 -0.00000000000E+00 -0.50000000000E+03  0.50000000000E+03  0.00000000000E+00 0. -1.
        -11    1    1    2    0    0  0.67252950924E+01 -0.42604941018E+01  0.49947937765E+03  0.49954282109E+03  0.00000000000E+00 0. -1.
         11    1    1    2    0    0  0.44540181053E+01  0.76899075740E+01 -0.33286827534E+03  0.33298687914E+03  0.00000000000E+00 0. -1.
        -15    1    1    2    0    0 -0.52801290842E+01 -0.35392527370E+01 -0.29874643291E+02  0.30595066822E+02  0.17770000000E+01 0. -1.
         15    1    1    2    0    0 -0.58991841135E+01  0.10983926480E+00 -0.13673645902E+03  0.13687523294E+03  0.17770000000E+01 0.  1.
</event>
<event>
 6    1  0.2408691E-003  0.5069135E+03  0.7546771E-02  0.9384472E-01
        -11   -1    0    0    0    0  0.00000000000E+00  0.00000000000E+00  0.50000000000E+03  0.50000000000E+03  0.00000000000E+00 0. -1.
         11   -1    0    0    0    0 -0.00000000000E+00 -0.00000000000E+00 -0.50000000000E+03  0.50000000000E+03  0.00000000000E+00 0. -1.
        -11    1    1    2    0    0 -0.63667940958E+01  0.63726007910E+01  0.39661156571E+03  0.39671385174E+03  0.00000000000E+00 0. -1.
         11    1    1    2    0    0  0.31970260647E+02 -0.21272851000E+02 -0.49158892150E+03  0.49308650306E+03  0.00000000000E+00 0. -1.
        -15    1    1    2    0    0 -0.10789176349E+02 -0.27213339048E+01  0.83786493081E+02  0.84540795692E+02  0.17770000000E+01 0.  1.
         15    1    1    2    0    0 -0.14814290202E+02  0.17621584114E+02  0.11190862710E+02  0.25658849508E+02  0.17770000000E+01 0. -1.
</event>
<event>
 6    1  0.2408691E-003  0.5001076E+03  0.7546771E-02  0.9399569E-01
        -11   -1    0    0    0    0  0.00000000000E+00  0.00000000000E+00  0.50000000000E+03  0.50000000000E+03  0.00000000000E+00 0.  1.
         11   -1    0    0    0    0 -0.00000000000E+00 -0.00000000000E+00 -0.50000000000E+03  0.50000000000E+03  0.00000000000E+00 0. -1.
        -11    1    1    2    0    0  0.84534301676E+01  0.10465753580E+02  0.49971136398E+03  0.49989242820E+03  0.00000000000E+00 0.  1.
         11    1    1    2    0    0 -0.68258961199E+00 -0.10470662893E+00 -0.12323445177E+02  0.12342778986E+02  0.00000000000E+00 0. -1.
        -15    1    1    2    0    0 -0.10864913732E+02 -0.98772669259E+01 -0.32427714240E+03  0.32461427813E+03  0.17770000000E+01 0. -1.
         15    1    1    2    0    0  0.30940731761E+01 -0.48378002517E+00 -0.16311077641E+03  0.16315051468E+03  0.17770000000E+01 0.  1.
</event>
<event>
 6    1  0.2408691E-003  0.5190295E+03  0.7546771E-02  0.9358208E-01
        -11   -1    0    0    0    0  0.00000000000E+00  0.00000000000E+00  0.50000000000E+03  0.50000000000E+03  0.00000000000E+00 0. -1.
         11   -1    0    0    0    0 -0.00000000000E+00 -0.00000000000E+00 -0.50000000000E+03  0.50000000000E+03  0.00000000000E+00 0. -1.
        -11    1    1    2    0    0  0.17539028244E+01 -0.10310406976E+02  0.48085682154E+03  0.48097054327E+03  0.00000000000E+00 0. -1.
         11    1    1    2    0    0 -0.12333674878E+02 -0.13610769983E+02 -0.44580950486E+03  0.44618772643E+03  0.00000000000E+00 0. -1.
        -15    1    1    2    0    0 -0.82451932312E+01  0.21854058569E+02  0.88179273161E+01  0.25029915272E+02  0.17770000000E+01 0. -1.
         15    1    1    2    0    0  0.18824965285E+02  0.20671183894E+01 -0.43865243996E+02  0.47811815027E+02  0.17770000000E+01 0.  1.
</event>
<event>
 6    1  0.2408691E-003  0.5091657E+03  0.7546771E-02  0.9379531E-01
        -11   -1    0    0    0    0  0.00000000000E+00  0.00000000000E+00  0.50000000000E+03  0.50000000000E+03  0.00000000000E+00 0.  1.
         11   -1    0    0    0    0 -0.00000000000E+00 -0.00000000000E+00 -0.50000000000E+03  0.50000000000E+03  0.00000000000E+00 0. -1.
        -11    1    1    2    0    0 -0.87508962127E+01 -0.83395423536E+01  0.44803199893E+03  0.44819504483E+03  0.00000000000E+00 0.  1.
         11    1    1    2    0    0 -0.19833503150E+02  0.15864407135E+01 -0.49043087577E+03  0.49083431884E+03  0.00000000000E+00 0. -1.
        -15    1    1    2    0    0  0.57300510235E+01  0.79777227817E+01  0.35682389703E+02  0.37052236227E+02  0.17770000000E+01 0. -1.
         15    1    1    2    0    0  0.22854348339E+02 -0.12246211416E+01  0.67164871369E+01  0.23918400101E+02  0.17770000000E+01 0.  1.
</event>
<event>
 6    1  0.2408691E-003  0.5020028E+03  0.7546771E-02  0.9395339E-01
        -11   -1    0    0    0    0  0.00000000000E+00  0.00000000000E+00  0.50000000000E+03  0.50000000000E+03  0.00000000000E+00 0.  1.
         11   -1    0    0    0    0 -0.00000000000E+00 -0.00000000000E+00 -0.50000000000E+03  0.50000000000E+03  0.00000000000E+00 0.  1.
        -11    1    1    2    0    0  0.14554321701E+01 -0.30374357129E+01  0.15509018570E+03  0.15512675462E+03  0.00000000000E+00 0.  1.
         11    1    1    2    0    0 -0.14449090616E+02 -0.22365777028E+02 -0.49728481847E+03  0.49799718361E+03  0.00000000000E+00 0.  1.
        -15    1    1    2    0    0  0.13924063367E+02  0.40245939382E+00  0.24861814187E+02  0.28553617071E+02  0.17770000000E+01 0. -1.
         15    1    1    2    0    0 -0.93040492050E+00  0.25000753347E+02  0.31733281858E+03  0.31832244470E+03  0.17770000000E+01 0.  1.
</event>
<event>
 6    1  0.2408691E-003  0.5027207E+03  0.7546771E-02  0.9393742E-01
        -11   -1    0    0    0    0  0.00000000000E+00  0.00000000000E+00  0.50000000000E+03  0.50000000000E+03  0.00000000000E+00 0. -1.
         11   -1    0    0    0    0 -0.00000000000E+00 -0.00000000000E+00 -0.50000000000E+03  0.50000000000E+03  0.00000000000E+00 0. -1.
        -11    1    1    2    0    0  0.27733695385E+02  0.12382256258E+02  0.49635090668E+03  0.49727929848E+03  0.00000000000E+00 0. -1.
         11    1    1    2    0    0 -0.67488274390E+01 -0.31312975225E+01 -0.23457321342E+03  0.23469116760E+03  0.00000000000E+00 0. -1.
        -15    1    1    2    0    0 -0.94835573486E+00  0.12732505809E+02 -0.18828671174E+03  0.18872747449E+03  0.17770000000E+01 0. -1.
         15    1    1    2    0    0 -0.20036512211E+02 -0.21983464545E+02 -0.73490981527E+02  0.79302059430E+02  0.17770000000E+01 0.  1.
</event>
<event>
 6    1  0.2408691E-003  0.5004746E+03  0.7546771E-02  0.9398748E-01
        -11   -1    0    0    0    0  0.00000000000E+00  0.00000000000E+00  0.50000000000E+03  0.50000000000E+03  0.00000000000E+00 0.  1.
         11   -1    0    0    0    0 -0.00000000000E+00 -0.00000000000E+00 -0.50000000000E+03  0.50000000000E+03  0.00000000000E+00 0. -1.
        -11    1    1    2    0    0  0.80849994440E+01 -0.10591476904E+02  0.49934766025E+03  0.49952540716E+03  0.00000000000E+00 0.  1.
         11    1    1    2    0    0 -0.33283435833E+01  0.38332368776E+01 -0.23337814281E+03  0.23343335049E+03  0.00000000000E+00 0. -1.
        -15    1    1    2    0    0  0.44493390596E+01 -0.30086221490E-01 -0.20043763328E+03  0.20049488794E+03  0.17770000000E+01 0. -1.
         15    1    1    2    0    0 -0.92059949204E+01  0.67883262481E+01 -0.65531884157E+02  0.66546354415E+02  0.17770000000E+01 0.  1.
</event>
<event>
 6    1  0.2408691E-003  0.5012992E+03  0.7546771E-02  0.9396907E-01
        -11   -1    0    0    0    0  0.00000000000E+00  0.00000000000E+00  0.50000000000E+03  0.50000000000E+03  0.00000000000E+00 0. -1.
         11   -1    0    0    0    0 -0.00000000000E+00 -0.00000000000E+00 -0.50000000000E+03  0.50000000000E+03  0.00000000000E+00 0.  1.
        -11    1    1    2    0    0 -0.78793769335E+01 -0.12569301791E+01  0.42070072025E+03  0.42077637823E+03  0.00000000000E+00 0. -1.
         11    1    1    2    0    0  0.42928434784E+01 -0.51939119378E+01 -0.49865528408E+03  0.49870080967E+03  0.00000000000E+00 0.  1.
        -15    1    1    2    0    0 -0.65092682711E+01  0.45935064295E+01  0.50551081947E+02  0.51205863822E+02  0.17770000000E+01 0. -1.
         15    1    1    2    0    0  0.10095801726E+02  0.18573356875E+01  0.27403481881E+02  0.29316948282E+02  0.17770000000E+01 0.  1.
</event>
<event>
 6    1  0.2408691E-003  0.5004071E+03  0.7546771E-02  0.9398899E-01
        -11   -1    0    0    0    0  0.00000000000E+00  0.00000000000E+00  0.50000000000E+03  0.50000000000E+03  0.00000000000E+00 0. -1.
         11   -1    0    0    0    0 -0.00000000000E+00 -0.00000000000E+00 -0.50000000000E+03  0.50000000000E+03  0.00000000000E+00 0.  1.
        -11    1    1    2    0    0  0.21034394237E+02 -0.66243512771E+01  0.49910595785E+03  0.49959291922E+03  0.00000000000E+00 0. -1.
         11    1    1    2    0    0  0.48237052052E+01  0.70266278281E+01 -0.14512723349E+03  0.14537728685E+03  0.00000000000E+00 0.  1.
        -15    1    1    2    0    0 -0.20544033975E+02  0.55679635849E+00 -0.30993442386E+03  0.31062014130E+03  0.17770000000E+01 0.  1.
         15    1    1    2    0    0 -0.53140654666E+01 -0.95907290947E+00 -0.44044300493E+02  0.44409652639E+02  0.17770000000E+01 0. -1.
</event>
<event>
 6    1  0.2408691E-003  0.5040366E+03  0.7546771E-02  0.9390823E-01
        -11   -1    0    0    0    0  0.00000000000E+00  0.00000000000E+00  0.50000000000E+03  0.50000000000E+03  0.00000000000E+00 0.  1.
         11   -1    0    0    0    0 -0.00000000000E+00 -0.00000000000E+00 -0.50000000000E+03  0.50000000000E+03  0.00000000000E+00 0. -1.
        -11    1    1    2    0    0 -0.52947929266E+01  0.77940637902E+01  0.49587392658E+03  0.49596343951E+03  0.00000000000E+00 0.  1.
         11    1    1    2    0    0  0.47310464303E+01  0.11932567748E+02 -0.33362275382E+03  0.33386960156E+03  0.00000000000E+00 0. -1.
        -15    1    1    2    0    0 -0.82177308308E+00 -0.20633410586E+01 -0.14609727728E+03  0.14612496312E+03  0.17770000000E+01 0. -1.
         15    1    1    2    0    0  0.13855195794E+01 -0.17663290479E+02 -0.16153895476E+02  0.24041995822E+02  0.17770000000E+01 0.  1.
</event>
<event>
 6    1  0.2408691E-003  0.5165340E+03  0.7546771E-02  0.9363555E-01
        -11   -1    0    0    0    0  0.00000000000E+00  0.00000000000E+00  0.50000000000E+03  0.50000000000E+03  0.00000000000E+00 0.  1.
         11   -1    0    0    0    0 -0.00000000000E+00 -0.00000000000E+00 -0.50000000000E+03  0.50000000000E+03  0.00000000000E+00 0.  1.
        -11    1    1    2    0    0 -0.54803869770E+01 -0.14447865439E+01  0.35763822712E+03  0.35768313288E+03  0.00000000000E+00 0.  1.
         11    1    1    2    0    0  0.13407119894E+02 -0.31150808032E+01 -0.48326998275E+03  0.48346595621E+03  0.00000000000E+00 0.  1.
        -15    1    1    2    0    0  0.15515928421E+01  0.38882421428E+01  0.14079497038E+03  0.14086840412E+03  0.17770000000E+01 0. -1.
         15    1    1    2    0    0 -0.94783257592E+01  0.67162520422E+00 -0.15163214752E+02  0.17982506784E+02  0.17770000000E+01 0.  1.
</event>
<event>
 6    1  0.2408691E-003  0.5130542E+03  0.7546771E-02  0.9371065E-01
        -11   -1    0    0    0    0  0.00000000000E+00  0.00000000000E+00  0.50000000000E+03  0.50000000000E+03  0.00000000000E+00 0.  1.
         11   -1    0    0    0    0 -0.00000000000E+00 -0.00000000000E+00 -0.50000000000E+03  0.50000000000E+03  0.00000000000E+00 0.  1.
        -11    1    1    2    0    0 -0.99964138143E+01  0.12895064428E+02  0.45722632905E+03  0.45751735153E+03  0.00000000000E+00 0.  1.
         11    1    1    2    0    0  0.25331848460E+02 -0.12699964077E+02 -0.48612062302E+03  0.48694584068E+03  0.00000000000E+00 0.  1.
        -15    1    1    2    0    0 -0.18832645299E+02  0.12585783869E+02 -0.10485522762E+01  0.22744838435E+02  0.17770000000E+01 0. -1.
         15    1    1    2    0    0  0.34972106533E+01 -0.12780884220E+02  0.29942846243E+02  0.32791969351E+02  0.17770000000E+01 0.  1.
</event>
<event>
 6    1  0.2408691E-003  0.5043595E+03  0.7546771E-02  0.9390108E-01
        -11   -1    0    0    0    0  0.00000000000E+00  0.00000000000E+00  0.50000000000E+03  0.50000000000E+03  0.00000000000E+00 0. -1.
         11   -1    0    0    0    0 -0.00000000000E+00 -0.00000000000E+00 -0.50000000000E+03  0.50000000000E+03  0.00000000000E+00 0. -1.
        -11    1    1    2    0    0  0.78502183776E+01  0.85989207701E+01  0.45758536219E+03  0.45773347164E+03  0.00000000000E+00 0. -1.
         11    1    1    2    0    0 -0.49578454299E+01  0.70285349814E+01 -0.49556590899E+03  0.49564054585E+03  0.00000000000E+00 0. -1.
        -15    1    1    2    0    0 -0.27522072100E+01 -0.17638121716E+02  0.39610208591E+02  0.43483379995E+02  0.17770000000E+01 0.  1.
         15    1    1    2    0    0 -0.14016573776E+00  0.20106659646E+01 -0.16296617853E+01  0.31426025186E+01  0.17770000000E+01 0.  1.
</event>
<event>
 6    1  0.2600958E-003  0.5278440E+03  0.7546771E-02  0.9339575E-01
        -11   -1    0    0    0    0  0.00000000000E+00  0.00000000000E+00  0.50000000000E+03  0.50000000000E+03  0.00000000000E+00 0. -1.
         11   -1    0    0    0    0 -0.00000000000E+00 -0.00000000000E+00 -0.50000000000E+03  0.50000000000E+03  0.00000000000E+00 0.  1.
        -11    1    1    2    0    0  0.76509553019E+01 -0.52901904133E+00  0.47209374131E+03  0.47215603095E+03  0.00000000000E+00 0. -1.
         11    1    1    2    0    0 -0.16027640208E+02  0.30792430678E+01 -0.43181121551E+03  0.43211953535E+03  0.00000000000E+00 0.  1.
        -15    1    1    2    0    0  0.16920361437E+02 -0.85036754725E+00 -0.66183244531E+02  0.68340334662E+02  0.17770000000E+01 0. -1.
         15    1    1    2    0    0 -0.85436765312E+01 -0.16998564792E+01  0.25900718725E+02  0.27384099039E+02  0.17770000000E+01 0. -1.
</event>
<event>
 6    1  0.2408691E-003  0.5021962E+03  0.7546771E-02  0.9394909E-01
        -11   -1    0    0    0    0  0.00000000000E+00  0.00000000000E+00  0.50000000000E+03  0.50000000000E+03  0.00000000000E+00 0. -1.
         11   -1    0    0    0    0 -0.00000000000E+00 -0.00000000000E+00 -0.50000000000E+03  0.50000000000E+03  0.00000000000E+00 0.  1.
        -11    1    1    2    0    0 -0.11851092658E+01  0.60039761627E+01  0.42497763256E+03  0.42502169402E+03  0.00000000000E+00 0. -1.
         11    1    1    2    0    0 -0.16612017368E+02 -0.28473288325E+01 -0.49751843767E+03  0.49780383910E+03  0.00000000000E+00 0.  1.
        -15    1    1    2    0    0  0.21262298401E+02 -0.52604101112E-01  0.57531706597E+02  0.61360761838E+02  0.17770000000E+01 0.  1.
         15    1    1    2    0    0 -0.34651717668E+01 -0.31040432291E+01  0.15009098513E+02  0.15813705034E+02  0.17770000000E+01 0. -1.
</event>
<event>
 6    1  0.2408691E-003  0.5051949E+03  0.7546771E-02  0.9388260E-01
        -11   -1    0    0    0    0  0.00000000000E+00  0.00000000000E+00  0.50000000000E+03  0.50000000000E+03  0.00000000000E+00 0. -1.
         11   -1    0    0    0    0 -0.00000000000E+00 -0.00000000000E+00 -0.50000000000E+03  0.50000000000E+03  0.00000000000E+00 0.  1.
        -11    1    1    2    0    0 -0.66632819690E+01 -0.29187950561E+01  0.46968495590E+03  0.46974128677E+03  0.00000000000E+00 0. -1.
         11    1    1    2    0    0  0.38739866294E+00  0.66853079415E+01 -0.49475982207E+03  0.49480513837E+03  0.00000000000E+00 0.  1.
        -15    1    1    2    0    0  0.66730255240E+00  0.95976567957E+00 -0.44752677673E+01  0.49550169974E+01  0.17770000000E+01 0. -1.
         15    1    1    2    0    0  0.56085807537E+01 -0.47262785650E+01  0.29550133937E+02  0.30498557865E+02  0.17770000000E+01 0.  1.
</event>
<event>
 6    1  0.2408691E-003  0.5020186E+03  0.7546771E-02  0.9395304E-01
        -11   -1    0    0    0    0  0.00000000000E+00  0.00000000000E+00  0.50000000000E+03  0.50000000000E+03  0.00000000000E+00 0.  1.
         11   -1    0    0    0    0 -0.00000000000E+00 -0.00000000000E+00 -0.50000000000E+03  0.50000000000E+03  0.00000000000E+00 0.  1.
        -11    1    1    2    0    0  0.40890750918E+01 -0.19610815188E+01  0.30830231199E+03  0.30833566442E+03  0.00000000000E+00 0.  1.
         11    1    1    2    0    0 -0.53967749886E+00  0.20040391320E+02 -0.49757771736E+03  0.49798141868E+03  0.00000000000E+00 0.  1.
        -15    1    1    2    0    0 -0.28794139113E+01 -0.37194727036E+01  0.13584249817E+01  0.52085073770E+01  0.17770000000E+01 0. -1.
         15    1    1    2    0    0 -0.66998368160E+00 -0.14359837098E+02  0.18791698038E+03  0.18847440952E+03  0.17770000000E+01 0.  1.
</event>
<event>
 6    1  0.2408691E-003  0.5017511E+03  0.7546771E-02  0.9395900E-01
        -11   -1    0    0    0    0  0.00000000000E+00  0.00000000000E+00  0.50000000000E+03  0.50000000000E+03  0.00000000000E+00 0.  1.
         11   -1    0    0    0    0 -0.00000000000E+00 -0.00000000000E+00 -0.50000000000E+03  0.50000000000E+03  0.00000000000E+00 0. -1.
        -11    1    1    2    0    0 -0.22962893482E+01 -0.75112690163E+01  0.41218173685E+03  0.41225656611E+03  0.00000000000E+00 0.  1.
         11    1    1    2    0    0  0.21897527610E+01  0.10188139139E+02 -0.49813991059E+03  0.49824889736E+03  0.00000000000E+00 0. -1.
        -15    1    1    2    0    0  0.57589806255E+01 -0.80429524427E+01  0.14807595880E+02  0.17896300360E+02  0.17770000000E+01 0. -1.
         15    1    1    2    0    0 -0.56524440382E+01  0.53660823203E+01  0.71150577864E+02  0.71598236169E+02  0.17770000000E+01 0.  1.
</event>
<event>
 6    1  0.2408691E-003  0.5074835E+03  0.7546771E-02  0.9383219E-01
        -11   -1    0    0    0    0  0.00000000000E+00  0.00000000000E+00  0.50000000000E+03  0.50000000000E+03  0.00000000000E+00 0.  1.
         11   -1    0    0    0    0 -0.00000000000E+00 -0.00000000000E+00 -0.50000000000E+03  0.50000000000E+03  0.00000000000E+00 0. -1.
        -11    1    1    2    0    0 -0.14515229151E+01  0.93094752251E+01  0.49242639067E+03  0.49251652102E+03  0.00000000000E+00 0.  1.
         11    1    1    2    0    0  0.12052767468E+02 -0.34923631442E+01 -0.44190882802E+03  0.44208695760E+03  0.00000000000E+00 0. -1.
        -15    1    1    2    0    0  0.71370781728E+01 -0.73938046347E+01  0.13613212608E+01  0.10517469106E+02  0.17770000000E+01 0. -1.
         15    1    1    2    0    0 -0.17738322726E+02  0.15766925537E+01 -0.51878883918E+02  0.54879052271E+02  0.17770000000E+01 0. -1.
</event>
<event>
 6    1  0.2408691E-003  0.5119634E+03  0.7546771E-02  0.9373431E-01
        -11   -1    0    0    0    0  0.00000000000E+00  0.00000000000E+00  0.50000000000E+03  0.50000000000E+03  0.00000000000E+00 0. -1.
         11   -1    0    0    0    0 -0.00000000000E+00 -0.00000000000E+00 -0.50000000000E+03  0.50000000000E+03  0.00000000000E+00 0.  1.
        -11    1    1    2    0    0 -0.88729057986E+01  0.68114631853E+01  0.47992072911E+03  0.48005107095E+03  0.00000000000E+00 0. -1.
         11    1    1    2    0    0  0.63177533249E+01  0.23361275520E+01 -0.48799008168E+03  0.48803656761E+03  0.00000000000E+00 0.  1.
        -15    1    1    2    0    0 -0.45902276090E+01  0.13043146516E-01 -0.95435821547E+01  0.10738158547E+02  0.17770000000E+01 0. -1.
         15    1    1    2    0    0  0.71453800827E+01 -0.91606338838E+01  0.17612934725E+02  0.21174202896E+02  0.17770000000E+01 0. -1.
</event>
<event>
 6    1  0.2408691E-003  0.5290331E+03  0.7546771E-02  0.9337091E-01
        -11   -1    0    0    0    0  0.00000000000E+00  0.00000000000E+00  0.50000000000E+03  0.50000000000E+03  0.00000000000E+00 0.  1.
         11   -1    0    0    0    0 -0.00000000000E+00 -0.00000000000E+00 -0.50000000000E+03  0.50000000000E+03  0.00000000000E+00 0. -1.
        -11    1    1    2    0    0 -0.70902627042E+01 -0.21120944225E+01  0.43815377315E+03  0.43821622710E+03  0.00000000000E+00 0.  1.
         11    1    1    2    0    0  0.71038988070E+01  0.44844135274E+01 -0.47089197979E+03  0.47096691176E+03  0.00000000000E+00 0. -1.
        -15    1    1    2    0    0 -0.62822391181E+01 -0.60375233434E+01 -0.28124455408E+02  0.29496795376E+02  0.17770000000E+01 0. -1.
         15    1    1    2    0    0  0.62686030153E+01  0.36652042385E+01  0.60862662046E+02  0.61320065771E+02  0.17770000000E+01 0.  1.
</event>
<event>
 6    1  0.2408691E-003  0.4873771E+03  0.7546771E-02  0.9428506E-01
        -11   -1    0    0    0    0  0.00000000000E+00  0.00000000000E+00  0.50000000000E+03  0.50000000000E+03  0.00000000000E+00 0. -1.
         11   -1    0    0    0    0 -0.00000000000E+00 -0.00000000000E+00 -0.50000000000E+03  0.50000000000E+03  0.00000000000E+00 0.  1.
        -11    1    1    2    0    0 -0.71470773057E+01 -0.59821978943E+01  0.48953656172E+03  0.48962527781E+03  0.00000000000E+00 0. -1.
         11    1    1    2    0    0  0.23079259790E+02  0.37795971344E+01 -0.48470960905E+03  0.48527347207E+03  0.00000000000E+00 0.  1.
        -15    1    1    2    0    0  0.15747832018E+00  0.60151120761E+01  0.27202796036E+01  0.68384225397E+01  0.17770000000E+01 0.  1.
         15    1    1    2    0    0 -0.16089660805E+02 -0.38125113162E+01 -0.75472322784E+01  0.18262827585E+02  0.17770000000E+01 0. -1.
</event>
<event>
 6    1  0.2408691E-003  0.5171788E+03  0.7546771E-02  0.9362170E-01
        -11   -1    0    0    0    0  0.00000000000E+00  0.00000000000E+00  0.50000000000E+03  0.50000000000E+03  0.00000000000E+00 0.  1.
         11   -1    0    0    0    0 -0.00000000000E+00 -0.00000000000E+00 -0.50000000000E+03  0.50000000000E+03  0.00000000000E+00 0.  1.
        -11    1    1    2    0    0  0.38931746216E+01 -0.88511244082E+01  0.48272431507E+03  0.48282115071E+03  0.00000000000E+00 0.  1.
         11    1    1    2    0    0  0.51421597799E+01  0.81434078399E+01 -0.46408908790E+03  0.46418901151E+03  0.00000000000E+00 0.  1.
        -15    1    1    2    0    0  0.38296957789E+01 -0.25650858501E+01 -0.32989684729E+02  0.33357506842E+02  0.17770000000E+01 0.  1.
         15    1    1    2    0    0 -0.12865030180E+02  0.32728024184E+01  0.14354457557E+02  0.19632330936E+02  0.17770000000E+01 0. -1.
</event>
<event>
 6    1  0.2408691E-003  0.5056234E+03  0.7546771E-02  0.9387314E-01
        -11   -1    0    0    0    0  0.00000000000E+00  0.00000000000E+00  0.50000000000E+03  0.50000000000E+03  0.00000000000E+00 0.  1.
         11   -1    0    0    0    0 -0.00000000000E+00 -0.00000000000E+00 -0.50000000000E+03  0.50000000000E+03  0.00000000000E+00 0. -1.
        -11    1    1    2    0    0  0.75626609638E+01 -0.35740130572E+01  0.49430579088E+03  0.49437655922E+03  0.00000000000E+00 0.  1.
         11    1    1    2    0    0 -0.54798104593E+00  0.37173988543E+01 -0.18763877987E+03  0.18767639982E+03  0.00000000000E+00 0. -1.
        -15    1    1    2    0    0 -0.32411540438E+01  0.14804307067E+01  0.49191652674E+01  0.63287179224E+01  0.17770000000E+01 0.  1.
         15    1    1    2    0    0 -0.37735258741E+01 -0.16238165038E+01 -0.31158617627E+03  0.31161832304E+03  0.17770000000E+01 0. -1.
</event>
<event>
 6    1  0.2408691E-003  0.5063316E+03  0.7546771E-02  0.9385753E-01
        -11   -1    0    0    0    0  0.00000000000E+00  0.00000000000E+00  0.50000000000E+03  0.50000000000E+03  0.00000000000E+00 0.  1.
         11   -1    0    0    0    0 -0.00000000000E+00 -0.00000000000E+00 -0.50000000000E+03  0.50000000000E+03  0.00000000000E+00 0. -1.
        -11    1    1    2    0    0  0.10711471495E+01 -0.11310415312E+02  0.38391267816E+03  0.38408074321E+03  0.00000000000E+00 0.  1.
         11    1    1    2    0    0  0.22881643534E+02 -0.10255111389E+02 -0.49303116619E+03  0.49366837832E+03  0.00000000000E+00 0. -1.
        -15    1    1    2    0    0  0.52342878208E+01  0.26584060892E+01 -0.14719976486E+01  0.63078837976E+01  0.17770000000E+01 0.  1.
         15    1    1    2    0    0 -0.29187078504E+02  0.18907120612E+02  0.11059048568E+03  0.11594299467E+03  0.17770000000E+01 0. -1.
</event>
<event>
 6    1  0.2408691E-003  0.5057012E+03  0.7546771E-02  0.9387142E-01
        -11   -1    0    0    0    0  0.00000000000E+00  0.00000000000E+00  0.50000000000E+03  0.50000000000E+03  0.00000000000E+00 0.  1.
         11   -1    0    0    0    0 -0.00000000000E+00 -0.00000000000E+00 -0.50000000000E+03  0.50000000000E+03  0.00000000000E+00 0.  1.
        -11    1    1    2    0    0 -0.92599093029E+01  0.13668950626E+02  0.33924657806E+03  0.33964809268E+03  0.00000000000E+00 0.  1.
         11    1    1    2    0    0 -0.98906622303E+01  0.82804235282E+01 -0.49413042308E+03  0.49429876150E+03  0.00000000000E+00 0.  1.
        -15    1    1    2    0    0  0.20410466262E+02  0.54716217763E+01  0.11881310476E+03  0.12069066811E+03  0.17770000000E+01 0. -1.
         15    1    1    2    0    0 -0.12598947293E+01 -0.27420995931E+02  0.36070740254E+02  0.45362477711E+02  0.17770000000E+01 0.  1.
</event>
<event>
 6    1  0.2408691E-003  0.5010527E+03  0.7546771E-02  0.9397457E-01
        -11   -1    0    0    0    0  0.00000000000E+00  0.00000000000E+00  0.50000000000E+03  0.50000000000E+03  0.00000000000E+00 0.  1.
         11   -1    0    0    0    0 -0.00000000000E+00 -0.00000000000E+00 -0.50000000000E+03  0.50000000000E+03  0.00000000000E+00 0.  1.
        -11    1    1    2    0    0  0.58763604004E+01  0.17816171170E+00  0.28453357302E+03  0.28459430341E+03  0.00000000000E+00 0.  1.
         11    1    1    2    0    0  0.59760935745E+01 -0.36919852807E+01 -0.49889780461E+03  0.49894725562E+03  0.00000000000E+00 0.  1.
        -15    1    1    2    0    0 -0.91713017609E+01 -0.14645031697E+01  0.20594601518E+03  0.20616298514E+03  0.17770000000E+01 0.  1.
         15    1    1    2    0    0 -0.26811522140E+01  0.49783267386E+01  0.84182164021E+01  0.10295455828E+02  0.17770000000E+01 0. -1.
</event>
<event>
 6    1  0.2408691E-003  0.5051260E+03  0.7546771E-02  0.9388412E-01
        -11   -1    0    0    0    0  0.00000000000E+00  0.00000000000E+00  0.50000000000E+03  0.50000000000E+03  0.00000000000E+00 0. -1.
         11   -1    0    0    0    0 -0.00000000000E+00 -0.00000000000E+00 -0.50000000000E+03  0.50000000000E+03  0.00000000000E+00 0. -1.
        -11    1    1    2    0    0  0.11919582608E+02 -0.56718853949E+01  0.49469787454E+03  0.49487395749E+03  0.00000000000E+00 0. -1.
         11    1    1    2    0    0  0.34360640240E+01  0.75333001073E+01 -0.46562334132E+03  0.46569695417E+03  0.00000000000E+00 0. -1.
        -15    1    1    2    0    0  0.37034304827E+01 -0.56524436826E+01 -0.60023681739E+01  0.92114966005E+01  0.17770000000E+01 0.  1.
         15    1    1    2    0    0 -0.19059077115E+02  0.37910289702E+01 -0.23072165047E+02  0.30217591732E+02  0.17770000000E+01 0. -1.
</event>
<event>
 6    1  0.2408691E-003  0.4749786E+03  0.7546771E-02  0.9457606E-01
        -11   -1    0    0    0    0  0.00000000000E+00  0.00000000000E+00  0.50000000000E+03  0.50000000000E+03  0.00000000000E+00 0. -1.
         11   -1    0    0    0    0 -0.00000000000E+00 -0.00000000000E+00 -0.50000000000E+03  0.50000000000E+03  0.00000000000E+00 0. -1.
        -11    1    1    2    0    0  0.58411884818E+01 -0.12437869098E+02  0.47465002785E+03  0.47484889071E+03  0.00000000000E+00 0. -1.
         11    1    1    2    0    0 -0.12414580321E+02 -0.20569486049E+01 -0.47507501164E+03  0.47524164331E+03  0.00000000000E+00 0. -1.
        -15    1    1    2    0    0  0.16800656780E+02  0.22121380720E+02 -0.13503934036E+02  0.30937542188E+02  0.17770000000E+01 0.  1.
         15    1    1    2    0    0 -0.10227264941E+02 -0.76265630173E+01  0.13928917836E+02  0.18971923801E+02  0.17770000000E+01 0. -1.
</event>
<event>
 6    1  0.2412855E-003  0.5100493E+03  0.7546771E-02  0.9377600E-01
        -11   -1    0    0    0    0  0.00000000000E+00  0.00000000000E+00  0.50000000000E+03  0.50000000000E+03  0.00000000000E+00 0.  1.
         11   -1    0    0    0    0 -0.00000000000E+00 -0.00000000000E+00 -0.50000000000E+03  0.50000000000E+03  0.00000000000E+00 0.  1.
        -11    1    1    2    0    0  0.62965589174E+01 -0.15871374188E+01  0.45266043340E+03  0.45270700638E+03  0.00000000000E+00 0.  1.
         11    1    1    2    0    0  0.18202748425E+02  0.13152305259E+02 -0.48943571218E+03  0.48995065011E+03  0.00000000000E+00 0.  1.
        -15    1    1    2    0    0 -0.34960572604E+01 -0.35194459920E+01  0.34234980368E+02  0.34638136876E+02  0.17770000000E+01 0.  1.
         15    1    1    2    0    0 -0.21003250082E+02 -0.80457218483E+01  0.25402984159E+01  0.22704206639E+02  0.17770000000E+01 0. -1.
</event>
<event>
 6    1  0.2408691E-003  0.5001728E+03  0.7546771E-02  0.9399423E-01
        -11   -1    0    0    0    0  0.00000000000E+00  0.00000000000E+00  0.50000000000E+03  0.50000000000E+03  0.00000000000E+00 0. -1.
         11   -1    0    0    0    0 -0.00000000000E+00 -0.00000000000E+00 -0.50000000000E+03  0.50000000000E+03  0.00000000000E+00 0.  1.
        -11    1    1    2    0    0 -0.57958617919E+01  0.10366289336E+02  0.49968603302E+03  0.49982715369E+03  0.00000000000E+00 0. -1.
         11    1    1    2    0    0 -0.15297495178E+01  0.69133248347E+00 -0.49829233356E+02  0.49857502655E+02  0.00000000000E+00 0.  1.
        -15    1    1    2    0    0  0.10350064273E+02 -0.99691739750E+01 -0.41745431065E+03  0.41770535963E+03  0.17770000000E+01 0.  1.
         15    1    1    2    0    0 -0.30244529636E+01 -0.10884478441E+01 -0.32402489017E+02  0.32609984022E+02  0.17770000000E+01 0. -1.
</event>
<event>
 6    1  0.2408691E-003  0.5122947E+03  0.7546771E-02  0.9372712E-01
        -11   -1    0    0    0    0  0.00000000000E+00  0.00000000000E+00  0.50000000000E+03  0.50000000000E+03  0.00000000000E+00 0.  1.
         11   -1    0    0    0    0 -0.00000000000E+00 -0.00000000000E+00 -0.50000000000E+03  0.50000000000E+03  0.00000000000E+00 0.  1.
        -11    1    1    2    0    0 -0.37430883999E+01 -0.83763792583E+01  0.48761896461E+03  0.48770526867E+03  0.00000000000E+00 0.  1.
         11    1    1    2    0    0  0.66514139128E+01  0.34544414946E+02 -0.45235329317E+03  0.45371914193E+03  0.00000000000E+00 0.  1.
        -15    1    1    2    0    0  0.69751730032E+01 -0.30150057373E+02 -0.36287832996E+02  0.47724663965E+02  0.17770000000E+01 0.  1.
         15    1    1    2    0    0 -0.98834985161E+01  0.39820216853E+01  0.10221615512E+01  0.10850925438E+02  0.17770000000E+01 0. -1.
</event>
<event>
 6    1  0.2408691E-003  0.5228168E+03  0.7546771E-02  0.9350155E-01
        -11   -1    0    0    0    0  0.00000000000E+00  0.00000000000E+00  0.50000000000E+03  0.50000000000E+03  0.00000000000E+00 0. -1.
         11   -1    0    0    0    0 -0.00000000000E+00 -0.00000000000E+00 -0.50000000000E+03  0.50000000000E+03  0.00000000000E+00 0.  1.
        -11    1    1    2    0    0 -0.30684490555E+02  0.84403799957E+02  0.46865580825E+03  0.47718319963E+03  0.00000000000E+00 0. -1.
         11    1    1    2    0    0  0.73409793130E+01 -0.78261269218E+01 -0.14351862189E+03  0.14391918937E+03  0.00000000000E+00 0.  1.
        -15    1    1    2    0    0  0.81367311450E+02 -0.43919700990E+02 -0.72169520944E+02  0.11730804316E+03  0.17770000000E+01 0. -1.
         15    1    1    2    0    0 -0.58023800208E+02 -0.32657972046E+02 -0.25296766541E+03  0.26158956784E+03  0.17770000000E+01 0.  1.
</event>
<event>
 6    1  0.2408691E-003  0.5220718E+03  0.7546771E-02  0.9351733E-01
        -11   -1    0    0    0    0  0.00000000000E+00  0.00000000000E+00  0.50000000000E+03  0.50000000000E+03  0.00000000000E+00 0. -1.
         11   -1    0    0    0    0 -0.00000000000E+00 -0.00000000000E+00 -0.50000000000E+03  0.50000000000E+03  0.00000000000E+00 0. -1.
        -11    1    1    2    0    0  0.82059818553E+01  0.43333724197E+00  0.47785756195E+03  0.47792821159E+03  0.00000000000E+00 0. -1.
         11    1    1    2    0    0  0.15597149528E+02  0.10664120517E+02 -0.41137621630E+03  0.41180989045E+03  0.00000000000E+00 0. -1.
        -15    1    1    2    0    0 -0.77469475333E+01 -0.73375157200E+00  0.20074768763E+02  0.21603417723E+02  0.17770000000E+01 0. -1.
         15    1    1    2    0    0 -0.16056183850E+02 -0.10363706187E+02 -0.86556114415E+02  0.88658480234E+02  0.17770000000E+01 0. -1.
</event>
<event>
 6    1  0.2408691E-003  0.4878431E+03  0.7546771E-02  0.9427430E-01
        -11   -1    0    0    0    0  0.00000000000E+00  0.00000000000E+00  0.50000000000E+03  0.50000000000E+03  0.00000000000E+00 0.  1.
         11   -1    0    0    0    0 -0.00000000000E+00 -0.00000000000E+00 -0.50000000000E+03  0.50000000000E+03  0.00000000000E+00 0. -1.
        -11    1    1    2    0    0  0.31252090803E+01  0.10433074849E+01  0.79858954372E+02  0.79926891693E+02  0.00000000000E+00 0.  1.
         11    1    1    2    0    0 -0.38043373071E+02  0.17222468078E+02 -0.46580239669E+03  0.46767059390E+03  0.00000000000E+00 0. -1.
        -15    1    1    2    0    0 -0.83155137352E+02 -0.41764373377E+02  0.26863813109E+03  0.28430378639E+03  0.17770000000E+01 0. -1.
         15    1    1    2    0    0  0.11807330134E+03  0.23498597814E+02  0.11730531123E+03  0.16809872801E+03  0.17770000000E+01 0.  1.
</event>
<event>
 6    1  0.2408691E-003  0.5007169E+03  0.7546771E-02  0.9398207E-01
        -11   -1    0    0    0    0  0.00000000000E+00  0.00000000000E+00  0.50000000000E+03  0.50000000000E+03  0.00000000000E+00 0. -1.
         11   -1    0    0    0    0 -0.00000000000E+00 -0.00000000000E+00 -0.50000000000E+03  0.50000000000E+03  0.00000000000E+00 0. -1.
        -11    1    1    2    0    0  0.99994216230E+01  0.24697246819E+01  0.43458659763E+03  0.43470863669E+03  0.00000000000E+00 0. -1.
         11    1    1    2    0    0 -0.10517352281E+02  0.17710783903E+01 -0.49916919745E+03  0.49928312519E+03  0.00000000000E+00 0. -1.
        -15    1    1    2    0    0  0.57096840289E+01 -0.49550683714E+01  0.44714671738E+02  0.45384058786E+02  0.17770000000E+01 0. -1.
         15    1    1    2    0    0 -0.51917533712E+01  0.71426529913E+00  0.19867928080E+02  0.20624179333E+02  0.17770000000E+01 0. -1.
</event>
<event>
 6    1  0.2408691E-003  0.5036497E+03  0.7546771E-02  0.9391680E-01
        -11   -1    0    0    0    0  0.00000000000E+00  0.00000000000E+00  0.50000000000E+03  0.50000000000E+03  0.00000000000E+00 0. -1.
         11   -1    0    0    0    0 -0.00000000000E+00 -0.00000000000E+00 -0.50000000000E+03  0.50000000000E+03  0.00000000000E+00 0.  1.
        -11    1    1    2    0    0  0.53179064587E+01  0.60111930117E+01  0.49628541554E+03  0.49635030800E+03  0.00000000000E+00 0. -1.
         11    1    1    2    0    0  0.10943977071E+02 -0.66554126248E-01 -0.45355587783E+03  0.45368789864E+03  0.00000000000E+00 0.  1.
        -15    1    1    2    0    0 -0.33352485167E+00  0.37459015080E+01 -0.10836274574E+01  0.42982548087E+01  0.17770000000E+01 0.  1.
         15    1    1    2    0    0 -0.15928358678E+02 -0.96905403934E+01 -0.41645910254E+02  0.45663538553E+02  0.17770000000E+01 0. -1.
</event>
<event>
 6    1  0.2408691E-003  0.5102180E+03  0.7546771E-02  0.9377232E-01
        -11   -1    0    0    0    0  0.00000000000E+00  0.00000000000E+00  0.50000000000E+03  0.50000000000E+03  0.00000000000E+00 0. -1.
         11   -1    0    0    0    0 -0.00000000000E+00 -0.00000000000E+00 -0.50000000000E+03  0.50000000000E+03  0.00000000000E+00 0. -1.
        -11    1    1    2    0    0  0.84976257533E+01  0.90162922196E+00  0.48970746067E+03  0.48978201234E+03  0.00000000000E+00 0. -1.
         11    1    1    2    0    0  0.51352138354E+01  0.36533822632E+01 -0.45915818294E+03  0.45920143139E+03  0.00000000000E+00 0. -1.
        -15    1    1    2    0    0 -0.15906040599E+02 -0.15616793139E+02 -0.48389612682E+01  0.22879240167E+02  0.17770000000E+01 0.  1.
         15    1    1    2    0    0  0.22732010104E+01  0.11061781654E+02 -0.25710316457E+02  0.28137316103E+02  0.17770000000E+01 0. -1.
</event>
<event>
 6    1  0.2408691E-003  0.5196638E+03  0.7546771E-02  0.9356855E-01
        -11   -1    0    0    0    0  0.00000000000E+00  0.00000000000E+00  0.50000000000E+03  0.50000000000E+03  0.00000000000E+00 0. -1.
         11   -1    0    0    0    0 -0.00000000000E+00 -0.00000000000E+00 -0.50000000000E+03  0.50000000000E+03  0.00000000000E+00 0.  1.
        -11    1    1    2    0    0  0.30180933022E+02 -0.22264516377E+02  0.47886981035E+03  0.48033622877E+03  0.00000000000E+00 0. -1.
         11    1    1    2    0    0  0.20059679925E+01  0.50629889693E+01 -0.38016808602E+03  0.38020709014E+03  0.00000000000E+00 0.  1.
        -15    1    1    2    0    0 -0.37712284482E+02  0.16328182381E+02 -0.55790844363E+00  0.41137512462E+02  0.17770000000E+01 0. -1.
         15    1    1    2    0    0  0.55253834677E+01  0.87334502673E+00 -0.98143815880E+02  0.98319168622E+02  0.17770000000E+01 0.  1.
</event>
<event>
 6    1  0.2408691E-003  0.5084238E+03  0.7546771E-02  0.9381156E-01
        -11   -1    0    0    0    0  0.00000000000E+00  0.00000000000E+00  0.50000000000E+03  0.50000000000E+03  0.00000000000E+00 0. -1.
         11   -1    0    0    0    0 -0.00000000000E+00 -0.00000000000E+00 -0.50000000000E+03  0.50000000000E+03  0.00000000000E+00 0.  1.
        -11    1    1    2    0    0  0.78918980985E+01  0.42386291314E+01  0.49149456137E+03  0.49157619134E+03  0.00000000000E+00 0. -1.
         11    1    1    2    0    0  0.11232652364E+02  0.98262039647E+01 -0.35345732883E+03  0.35377225735E+03  0.00000000000E+00 0.  1.
        -15    1    1    2    0    0 -0.19506056475E+02 -0.15552588368E+02 -0.14508384367E+03  0.14722380469E+03  0.17770000000E+01 0.  1.
         15    1    1    2    0    0  0.38150601192E+00  0.14877552720E+01  0.70466111308E+01  0.74277466310E+01  0.17770000000E+01 0. -1.
</event>
<event>
 6    1  0.2408691E-003  0.5003027E+03  0.7546771E-02  0.9399133E-01
        -11   -1    0    0    0    0  0.00000000000E+00  0.00000000000E+00  0.50000000000E+03  0.50000000000E+03  0.00000000000E+00 0.  1.
         11   -1    0    0    0    0 -0.00000000000E+00 -0.00000000000E+00 -0.50000000000E+03  0.50000000000E+03  0.00000000000E+00 0.  1.
        -11    1    1    2    0    0 -0.43969141579E+01  0.13022882687E+02  0.49950823243E+03  0.49969731097E+03  0.00000000000E+00 0.  1.
         11    1    1    2    0    0  0.18966887504E+01  0.26861696258E+01 -0.20257405224E+03  0.20260073933E+03  0.00000000000E+00 0.  1.
        -15    1    1    2    0    0  0.42942906084E+01 -0.17214414279E+02 -0.22400436623E+03  0.22471290753E+03  0.17770000000E+01 0. -1.
         15    1    1    2    0    0 -0.17940652008E+01  0.15053619665E+01 -0.72929813958E+02  0.72989042175E+02  0.17770000000E+01 0.  1.
</event>
<event>
 6    1  0.2408691E-003  0.5005650E+03  0.7546771E-02  0.9398546E-01
        -11   -1    0    0    0    0  0.00000000000E+00  0.00000000000E+00  0.50000000000E+03  0.50000000000E+03  0.00000000000E+00 0.  1.
         11   -1    0    0    0    0 -0.00000000000E+00 -0.00000000000E+00 -0.50000000000E+03  0.50000000000E+03  0.00000000000E+00 0. -1.
        -11    1    1    2    0    0  0.95917813209E+00 -0.61869767595E+01  0.36437407439E+03  0.36442785952E+03  0.00000000000E+00 0.  1.
         11    1    1    2    0    0  0.51028527158E+01 -0.48379901820E+01 -0.49938547192E+03  0.49943497556E+03  0.00000000000E+00 0. -1.
        -15    1    1    2    0    0 -0.25919256435E+01  0.96631877777E+01  0.12331882906E+03  0.12373676336E+03  0.17770000000E+01 0. -1.
         15    1    1    2    0    0 -0.34701052045E+01  0.13617791638E+01  0.11692568464E+02  0.12400401562E+02  0.17770000000E+01 0.  1.
</event>
<event>
 6    1  0.2408691E-003  0.5027312E+03  0.7546771E-02  0.9393719E-01
        -11   -1    0    0    0    0  0.00000000000E+00  0.00000000000E+00  0.50000000000E+03  0.50000000000E+03  0.00000000000E+00 0. -1.
         11   -1    0    0    0    0 -0.00000000000E+00 -0.00000000000E+00 -0.50000000000E+03  0.50000000000E+03  0.00000000000E+00 0. -1.
        -11    1    1    2    0    0  0.33990800772E+01  0.73663923295E+01  0.49720259780E+03  0.49726878118E+03  0.00000000000E+00 0. -1.
         11    1    1    2    0    0 -0.63377325650E+01  0.70266668009E+00 -0.39257422246E+03  0.39262600618E+03  0.00000000000E+00 0. -1.
        -15    1    1    2    0    0  0.44357764461E+01 -0.26670598678E+01 -0.10405276881E+03  0.10419657263E+03  0.17770000000E+01 0. -1.
         15    1    1    2    0    0 -0.14971239583E+01 -0.54019991418E+01 -0.57560652986E+00  0.59086400087E+01  0.17770000000E+01 0. -1.
</event>
<event>
 6    1  0.2408691E-003  0.5003975E+03  0.7546771E-02  0.9398921E-01
        -11   -1    0    0    0    0  0.00000000000E+00  0.00000000000E+00  0.50000000000E+03  0.50000000000E+03  0.00000000000E+00 0. -1.
         11   -1    0    0    0    0 -0.00000000000E+00 -0.00000000000E+00 -0.50000000000E+03  0.50000000000E+03  0.00000000000E+00 0.  1.
        -11    1    1    2    0    0 -0.51986183607E+01 -0.43020097578E+01  0.49955689190E+03  0.49960246313E+03  0.00000000000E+00 0. -1.
         11    1    1    2    0    0  0.81986163833E+00  0.10562094894E+02 -0.33289768440E+03  0.33306620709E+03  0.00000000000E+00 0.  1.
        -15    1    1    2    0    0 -0.21086330440E+01 -0.73575616504E+01 -0.72112347970E+02  0.72539151535E+02  0.17770000000E+01 0. -1.
         15    1    1    2    0    0  0.64873897664E+01  0.10974765143E+01 -0.94546859530E+02  0.94792178247E+02  0.17770000000E+01 0.  1.
</event>
<event>
 6    1  0.2408691E-003  0.5011818E+03  0.7546771E-02  0.9397169E-01
        -11   -1    0    0    0    0  0.00000000000E+00  0.00000000000E+00  0.50000000000E+03  0.50000000000E+03  0.00000000000E+00 0. -1.
         11   -1    0    0    0    0 -0.00000000000E+00 -0.00000000000E+00 -0.50000000000E+03  0.50000000000E+03  0.00000000000E+00 0.  1.
        -11    1    1    2    0    0  0.42545400061E+01 -0.99807450782E+01  0.49870019242E+03  0.49881820166E+03  0.00000000000E+00 0. -1.
         11    1    1    2    0    0 -0.25342391257E+01 -0.63811590046E+01 -0.30315171862E+03  0.30322946107E+03  0.00000000000E+00 0.  1.
        -15    1    1    2    0    0  0.27707115031E+01  0.86229617263E+01 -0.18554239057E+02  0.20723171262E+02  0.17770000000E+01 0. -1.
         15    1    1    2    0    0 -0.44910123835E+01  0.77389423564E+01 -0.17699423475E+03  0.17722916601E+03  0.17770000000E+01 0.  1.
</event>
<event>
 6    1  0.2408691E-003  0.5029508E+03  0.7546771E-02  0.9393231E-01
        -11   -1    0    0    0    0  0.00000000000E+00  0.00000000000E+00  0.50000000000E+03  0.50000000000E+03  0.00000000000E+00 0.  1.
         11   -1    0    0    0    0 -0.00000000000E+00 -0.00000000000E+00 -0.50000000000E+03  0.50000000000E+03  0.00000000000E+00 0.  1.
        -11    1    1    2    0    0  0.30526625564E+00  0.62663486511E+01  0.44951363390E+03  0.44955741277E+03  0.00000000000E+00 0.  1.
         11    1    1    2    0    0  0.14664714903E+02 -0.51808615266E+01 -0.49680582915E+03  0.49704921997E+03  0.00000000000E+00 0.  1.
        -15    1    1    2    0    0  0.63650086040E+00  0.25426996664E+01 -0.26531583685E+00  0.31778257397E+01  0.17770000000E+01 0. -1.
         15    1    1    2    0    0 -0.15606482019E+02 -0.36281867909E+01  0.47557511090E+02  0.50215541523E+02  0.17770000000E+01 0.  1.
</event>
<event>
 6    1  0.2408691E-003  0.5291326E+03  0.7546771E-02  0.9336883E-01
        -11   -1    0    0    0    0  0.00000000000E+00  0.00000000000E+00  0.50000000000E+03  0.50000000000E+03  0.00000000000E+00 0. -1.
         11   -1    0    0    0    0 -0.00000000000E+00 -0.00000000000E+00 -0.50000000000E+03  0.50000000000E+03  0.00000000000E+00 0. -1.
        -11    1    1    2    0    0 -0.18022140889E+02  0.14263173011E+00  0.43745406790E+03  0.43782516994E+03  0.00000000000E+00 0. -1.
         11    1    1    2    0    0  0.28816666862E+02 -0.10926610218E+01 -0.46998348661E+03  0.47086736124E+03  0.00000000000E+00 0. -1.
        -15    1    1    2    0    0 -0.51436093011E+01  0.11774133697E+02  0.59897799890E+02  0.61286141187E+02  0.17770000000E+01 0.  1.
         15    1    1    2    0    0 -0.56509166718E+01 -0.10824104405E+02 -0.27368381179E+02  0.30021327632E+02  0.17770000000E+01 0. -1.
</event>
<event>
 6    1  0.2408691E-003  0.5035504E+03  0.7546771E-02  0.9391900E-01
        -11   -1    0    0    0    0  0.00000000000E+00  0.00000000000E+00  0.50000000000E+03  0.50000000000E+03  0.00000000000E+00 0.  1.
         11   -1    0    0    0    0 -0.00000000000E+00 -0.00000000000E+00 -0.50000000000E+03  0.50000000000E+03  0.00000000000E+00 0. -1.
        -11    1    1    2    0    0 -0.12657314351E+02  0.13512758834E+02  0.49610425009E+03  0.49644962405E+03  0.00000000000E+00 0.  1.
         11    1    1    2    0    0 -0.64265306442E+01 -0.26260223035E+01 -0.31557937524E+03  0.31565572760E+03  0.00000000000E+00 0. -1.
        -15    1    1    2    0    0  0.24492842070E+01 -0.98113998526E+01 -0.47339417216E+01  0.11306214814E+02  0.17770000000E+01 0. -1.
         15    1    1    2    0    0  0.16634560788E+02 -0.10753366776E+01 -0.17579093313E+03  0.17658843354E+03  0.17770000000E+01 0.  1.
</event>
<event>
 6    1  0.5531754E-003  0.5359732E+03  0.7546771E-02  0.9322730E-01
        -11   -1    0    0    0    0  0.00000000000E+00  0.00000000000E+00  0.50000000000E+03  0.50000000000E+03  0.00000000000E+00 0.  1.
         11   -1    0    0    0    0 -0.00000000000E+00 -0.00000000000E+00 -0.50000000000E+03  0.50000000000E+03  0.00000000000E+00 0.  1.
        -11    1    1    2    0    0 -0.39983834701E+01 -0.46812077201E+01  0.45211097832E+03  0.45215289172E+03  0.00000000000E+00 0.  1.
         11    1    1    2    0    0  0.90471468984E+01  0.10440729481E+01 -0.46393739658E+03  0.46402677606E+03  0.00000000000E+00 0.  1.
        -15    1    1    2    0    0  0.82103373180E+00  0.22793545742E+01  0.47501528518E+02  0.47596454639E+02  0.17770000000E+01 0. -1.
         15    1    1    2    0    0 -0.58697971601E+01  0.13577801978E+01 -0.35675110261E+02  0.36223877580E+02  0.17770000000E+01 0.  1.
</event>
<event>
 6    1  0.2408691E-003  0.5004698E+03  0.7546771E-02  0.9398759E-01
        -11   -1    0    0    0    0  0.00000000000E+00  0.00000000000E+00  0.50000000000E+03  0.50000000000E+03  0.00000000000E+00 0. -1.
         11   -1    0    0    0    0 -0.00000000000E+00 -0.00000000000E+00 -0.50000000000E+03  0.50000000000E+03  0.00000000000E+00 0.  1.
        -11    1    1    2    0    0 -0.77053113837E+01  0.53388919720E+01  0.49944227585E+03  0.49953024183E+03  0.00000000000E+00 0. -1.
         11    1    1    2    0    0  0.19935940853E+01 -0.66047507146E+01 -0.36575108508E+03  0.36581614697E+03  0.00000000000E+00 0.  1.
        -15    1    1    2    0    0 -0.19452402134E+01  0.60074501490E+01 -0.42762839842E+02  0.43263051408E+02  0.17770000000E+01 0. -1.
         15    1    1    2    0    0  0.76569575118E+01 -0.47415914064E+01 -0.90928350934E+02  0.91390559797E+02  0.17770000000E+01 0.  1.
</event>
<event>
 6    1  0.2408691E-003  0.5002214E+03  0.7546771E-02  0.9399314E-01
        -11   -1    0    0    0    0  0.00000000000E+00  0.00000000000E+00  0.50000000000E+03  0.50000000000E+03  0.00000000000E+00 0.  1.
         11   -1    0    0    0    0 -0.00000000000E+00 -0.00000000000E+00 -0.50000000000E+03  0.50000000000E+03  0.00000000000E+00 0. -1.
        -11    1    1    2    0    0 -0.54833000404E+01  0.48848491631E+01  0.49972461293E+03  0.49977856806E+03  0.00000000000E+00 0.  1.
         11    1    1    2    0    0  0.14630113641E+00 -0.87750402746E+01 -0.17350478821E+03  0.17372660783E+03  0.00000000000E+00 0. -1.
        -15    1    1    2    0    0  0.65725977351E+01 -0.56253927220E+00 -0.10631682464E+03  0.10653609915E+03  0.17770000000E+01 0.  1.
         15    1    1    2    0    0 -0.12355988312E+01  0.44527303837E+01 -0.21990300008E+03  0.21995872496E+03  0.17770000000E+01 0. -1.
</event>
<event>
 6    1  0.2408691E-003  0.5172681E+03  0.7546771E-02  0.9361979E-01
        -11   -1    0    0    0    0  0.00000000000E+00  0.00000000000E+00  0.50000000000E+03  0.50000000000E+03  0.00000000000E+00 0. -1.
         11   -1    0    0    0    0 -0.00000000000E+00 -0.00000000000E+00 -0.50000000000E+03  0.50000000000E+03  0.00000000000E+00 0. -1.
        -11    1    1    2    0    0 -0.80317259013E+01 -0.16178997005E+02  0.13977036764E+03  0.14093269399E+03  0.00000000000E+00 0. -1.
         11    1    1    2    0    0 -0.50037211292E+02  0.24128567026E+02 -0.47952490398E+03  0.48273185497E+03  0.00000000000E+00 0. -1.
        -15    1    1    2    0    0  0.95792612825E+01 -0.57392182661E+02  0.45079432424E+02  0.73627018370E+02  0.17770000000E+01 0.  1.
         15    1    1    2    0    0  0.48489675911E+02  0.49442612640E+02  0.29467510391E+03  0.30270843267E+03  0.17770000000E+01 0. -1.
</event>
<event>
 6    1  0.2408691E-003  0.5186643E+03  0.7546771E-02  0.9358989E-01
        -11   -1    0    0    0    0  0.00000000000E+00  0.00000000000E+00  0.50000000000E+03  0.50000000000E+03  0.00000000000E+00 0.  1.
         11   -1    0    0    0    0 -0.00000000000E+00 -0.00000000000E+00 -0.50000000000E+03  0.50000000000E+03  0.00000000000E+00 0.  1.
        -11    1    1    2    0    0 -0.26792214280E+00  0.21291724425E+01  0.14496472454E+03  0.14498060739E+03  0.00000000000E+00 0.  1.
         11    1    1    2    0    0  0.10667990700E+03 -0.46852577963E+02 -0.46702067556E+03  0.48133572278E+03  0.00000000000E+00 0.  1.
        -15    1    1    2    0    0  0.80598451044E+01  0.70519408098E+02  0.10180570164E+03  0.12411892135E+03  0.17770000000E+01 0. -1.
         15    1    1    2    0    0 -0.11447182996E+03 -0.25796002578E+02  0.22025024939E+03  0.24956474849E+03  0.17770000000E+01 0.  1.
</event>
<event>
 6    1  0.2408691E-003  0.5013394E+03  0.7546771E-02  0.9396818E-01
        -11   -1    0    0    0    0  0.00000000000E+00  0.00000000000E+00  0.50000000000E+03  0.50000000000E+03  0.00000000000E+00 0.  1.
         11   -1    0    0    0    0 -0.00000000000E+00 -0.00000000000E+00 -0.50000000000E+03  0.50000000000E+03  0.00000000000E+00 0.  1.
        -11    1    1    2    0    0 -0.14423629347E+01 -0.59358695987E+01  0.42783572861E+03  0.42787933537E+03  0.00000000000E+00 0.  1.
         11    1    1    2    0    0  0.60447286759E+01  0.37844583011E+01 -0.49860959631E+03  0.49866059640E+03  0.00000000000E+00 0.  1.
        -15    1    1    2    0    0  0.49188254503E+01  0.32110518620E+01  0.51490398200E+02  0.51854840986E+02  0.17770000000E+01 0.  1.
         15    1    1    2    0    0 -0.95211911915E+01 -0.10596405644E+01  0.19283469494E+02  0.21605227251E+02  0.17770000000E+01 0. -1.
</event>
<event>
 6    1  0.2408691E-003  0.5029836E+03  0.7546771E-02  0.9393158E-01
        -11   -1    0    0    0    0  0.00000000000E+00  0.00000000000E+00  0.50000000000E+03  0.50000000000E+03  0.00000000000E+00 0.  1.
         11   -1    0    0    0    0 -0.00000000000E+00 -0.00000000000E+00 -0.50000000000E+03  0.50000000000E+03  0.00000000000E+00 0.  1.
        -11    1    1    2    0    0  0.13409783726E+02 -0.23557635177E+02  0.49627661552E+03  0.49701636149E+03  0.00000000000E+00 0.  1.
         11    1    1    2    0    0  0.92854610431E+01 -0.13186649309E+02 -0.29409799117E+03  0.29453987153E+03  0.00000000000E+00 0.  1.
        -15    1    1    2    0    0 -0.28004153627E+02  0.25177469385E+02 -0.14300858444E+03  0.14789438981E+03  0.17770000000E+01 0. -1.
         15    1    1    2    0    0  0.53089088578E+01  0.11566815101E+02 -0.59170039905E+02  0.60549377174E+02  0.17770000000E+01 0.  1.
</event>
<event>
 6    1  0.2408691E-003  0.5008116E+03  0.7546771E-02  0.9397996E-01
        -11   -1    0    0    0    0  0.00000000000E+00  0.00000000000E+00  0.50000000000E+03  0.50000000000E+03  0.00000000000E+00 0.  1.
         11   -1    0    0    0    0 -0.00000000000E+00 -0.00000000000E+00 -0.50000000000E+03  0.50000000000E+03  0.00000000000E+00 0. -1.
        -11    1    1    2    0    0  0.40373305788E+01  0.75820134357E+01  0.49911450979E+03  0.49918842219E+03  0.00000000000E+00 0.  1.
         11    1    1    2    0    0  0.93419315875E+00  0.26949110312E+00 -0.60907359674E+02  0.60915119672E+02  0.00000000000E+00 0. -1.
        -15    1    1    2    0    0 -0.72005280993E+01 -0.11568809712E+02 -0.43148098833E+03  0.43169976370E+03  0.17770000000E+01 0. -1.
         15    1    1    2    0    0  0.22290043618E+01  0.37173051729E+01 -0.67261617888E+01  0.81966944314E+01  0.17770000000E+01 0.  1.
</event>
<event>
 6    1  0.2408691E-003  0.6052903E+03  0.7546771E-02  0.9190847E-01
        -11   -1    0    0    0    0  0.00000000000E+00  0.00000000000E+00  0.50000000000E+03  0.50000000000E+03  0.00000000000E+00 0. -1.
         11   -1    0    0    0    0 -0.00000000000E+00 -0.00000000000E+00 -0.50000000000E+03  0.50000000000E+03  0.00000000000E+00 0.  1.
        -11    1    1    2    0    0  0.92177416868E-01  0.90233888084E+01  0.36148375804E+03  0.36159637356E+03  0.00000000000E+00 0. -1.
         11    1    1    2    0    0 -0.11779223167E+02 -0.11144638811E+02 -0.39437643677E+03  0.39470967425E+03  0.00000000000E+00 0.  1.
        -15    1    1    2    0    0 -0.71573911903E+01 -0.13173095823E+02  0.13646687429E+03  0.13729939625E+03  0.17770000000E+01 0. -1.
         15    1    1    2    0    0  0.18844436940E+02  0.15294345826E+02 -0.10357419556E+03  0.10639455594E+03  0.17770000000E+01 0.  1.
</event>
<event>
 6    1  0.2408691E-003  0.5042235E+03  0.7546771E-02  0.9390409E-01
        -11   -1    0    0    0    0  0.00000000000E+00  0.00000000000E+00  0.50000000000E+03  0.50000000000E+03  0.00000000000E+00 0. -1.
         11   -1    0    0    0    0 -0.00000000000E+00 -0.00000000000E+00 -0.50000000000E+03  0.50000000000E+03  0.00000000000E+00 0.  1.
        -11    1    1    2    0    0 -0.46031688212E+01  0.14768848092E+02  0.45307019177E+03  0.45333421083E+03  0.00000000000E+00 0. -1.
         11    1    1    2    0    0 -0.35859711324E+01 -0.10168351832E+02 -0.49565924419E+03  0.49577650299E+03  0.00000000000E+00 0.  1.
        -15    1    1    2    0    0  0.74678985768E+01  0.62268128898E+01  0.38296197268E+01  0.10600303023E+02  0.17770000000E+01 0.  1.
         15    1    1    2    0    0  0.72124137678E+00 -0.10827309150E+02  0.38759432689E+02  0.40288983158E+02  0.17770000000E+01 0. -1.
</event>
<event>
 6    1  0.2408691E-003  0.5057542E+03  0.7546771E-02  0.9387026E-01
        -11   -1    0    0    0    0  0.00000000000E+00  0.00000000000E+00  0.50000000000E+03  0.50000000000E+03  0.00000000000E+00 0. -1.
         11   -1    0    0    0    0 -0.00000000000E+00 -0.00000000000E+00 -0.50000000000E+03  0.50000000000E+03  0.00000000000E+00 0. -1.
        -11    1    1    2    0    0  0.28640689957E+01  0.60207294711E+01  0.49420084672E+03  0.49424581837E+03  0.00000000000E+00 0. -1.
         11    1    1    2    0    0  0.67972966729E+01  0.32074230989E+01 -0.36709362816E+03  0.36717056342E+03  0.00000000000E+00 0. -1.
        -15    1    1    2    0    0  0.21337263823E+02 -0.59212517643E+01 -0.36302803311E+02  0.42560442985E+02  0.17770000000E+01 0. -1.
         15    1    1    2    0    0 -0.30998629491E+02 -0.33069008057E+01 -0.90804415247E+02  0.96023175227E+02  0.17770000000E+01 0.  1.
</event>
<event>
 6    1  0.2408691E-003  0.5039689E+03  0.7546771E-02  0.9390973E-01
        -11   -1    0    0    0    0  0.00000000000E+00  0.00000000000E+00  0.50000000000E+03  0.50000000000E+03  0.00000000000E+00 0.  1.
         11   -1    0    0    0    0 -0.00000000000E+00 -0.00000000000E+00 -0.50000000000E+03  0.50000000000E+03  0.00000000000E+00 0.  1.
        -11    1    1    2    0    0 -0.12207916976E+02  0.16984760452E+01  0.49229102207E+03  0.49244529490E+03  0.00000000000E+00 0.  1.
         11    1    1    2    0    0  0.88065156745E+01  0.20047089610E+00 -0.49595291199E+03  0.49603113393E+03  0.00000000000E+00 0.  1.
        -15    1    1    2    0    0  0.44634007910E+01  0.10512589146E+01 -0.15772029111E+01  0.51645319197E+01  0.17770000000E+01 0. -1.
         15    1    1    2    0    0 -0.10619994897E+01 -0.29502058559E+01  0.52390928340E+01  0.63590392538E+01  0.17770000000E+01 0.  1.
</event>
<event>
 6    1  0.2408691E-003  0.5137129E+03  0.7546771E-02  0.9369638E-01
        -11   -1    0    0    0    0  0.00000000000E+00  0.00000000000E+00  0.50000000000E+03  0.50000000000E+03  0.00000000000E+00 0. -1.
         11   -1    0    0    0    0 -0.00000000000E+00 -0.00000000000E+00 -0.50000000000E+03  0.50000000000E+03  0.00000000000E+00 0. -1.
        -11    1    1    2    0    0 -0.10065930710E+02 -0.60144060190E+00  0.44547392201E+03  0.44558803831E+03  0.00000000000E+00 0. -1.
         11    1    1    2    0    0 -0.62350808209E+01 -0.59455534843E+01 -0.48621080853E+03  0.48628713346E+03  0.00000000000E+00 0. -1.
        -15    1    1    2    0    0  0.89036822827E+01  0.63111245862E+01 -0.11137984842E+02  0.15694530483E+02  0.17770000000E+01 0.  1.
         15    1    1    2    0    0  0.73973292481E+01  0.23586950003E+00  0.51874871357E+02  0.52430297746E+02  0.17770000000E+01 0.  1.
</event>
<event>
 6    1  0.2408691E-003  0.4669201E+03  0.7546771E-02  0.9477031E-01
        -11   -1    0    0    0    0  0.00000000000E+00  0.00000000000E+00  0.50000000000E+03  0.50000000000E+03  0.00000000000E+00 0. -1.
         11   -1    0    0    0    0 -0.00000000000E+00 -0.00000000000E+00 -0.50000000000E+03  0.50000000000E+03  0.00000000000E+00 0. -1.
        -11    1    1    2    0    0 -0.11946472163E+02 -0.14842697911E+02  0.46538415590E+03  0.46577401864E+03  0.00000000000E+00 0. -1.
         11    1    1    2    0    0 -0.15910909280E+02 -0.32230573946E+02 -0.46829393296E+03  0.46967134741E+03  0.00000000000E+00 0. -1.
        -15    1    1    2    0    0  0.26861662476E+02  0.40166328786E+02 -0.10365695907E+02  0.49451878223E+02  0.17770000000E+01 0. -1.
         15    1    1    2    0    0  0.99571896686E+00  0.69069430707E+01  0.13275472971E+02  0.15102755723E+02  0.17770000000E+01 0.  1.
</event>
<event>
 6    1  0.2408691E-003  0.5224391E+03  0.7546771E-02  0.9350955E-01
        -11   -1    0    0    0    0  0.00000000000E+00  0.00000000000E+00  0.50000000000E+03  0.50000000000E+03  0.00000000000E+00 0. -1.
         11   -1    0    0    0    0 -0.00000000000E+00 -0.00000000000E+00 -0.50000000000E+03  0.50000000000E+03  0.00000000000E+00 0. -1.
        -11    1    1    2    0    0  0.17665871240E+02  0.11566438782E+02  0.30980444640E+03  0.31052320448E+03  0.00000000000E+00 0. -1.
         11    1    1    2    0    0  0.53561431452E+02 -0.45190430695E+02 -0.47239119522E+03  0.47756093149E+03  0.00000000000E+00 0. -1.
        -15    1    1    2    0    0 -0.10351595990E+02 -0.38769009999E+02  0.36412473650E+02  0.54214551940E+02  0.17770000000E+01 0. -1.
         15    1    1    2    0    0 -0.60875706702E+02  0.72393001912E+02  0.12617427517E+03  0.15770131209E+03  0.17770000000E+01 0.  1.
</event>
<event>
 6    1  0.2408691E-003  0.5095133E+03  0.7546771E-02  0.9378771E-01
        -11   -1    0    0    0    0  0.00000000000E+00  0.00000000000E+00  0.50000000000E+03  0.50000000000E+03  0.00000000000E+00 0. -1.
         11   -1    0    0    0    0 -0.00000000000E+00 -0.00000000000E+00 -0.50000000000E+03  0.50000000000E+03  0.00000000000E+00 0. -1.
        -11    1    1    2    0    0  0.21958824026E+01 -0.24021660029E+01  0.90785669370E+02  0.90843987495E+02  0.00000000000E+00 0. -1.
         11    1    1    2    0    0  0.47538609157E+01  0.20251439448E+02 -0.49004536475E+03  0.49048667618E+03  0.00000000000E+00 0. -1.
        -15    1    1    2    0    0  0.20391439798E+02 -0.99126897600E+01  0.38692281833E+03  0.38759063109E+03  0.17770000000E+01 0. -1.
         15    1    1    2    0    0 -0.27341183116E+02 -0.79365836855E+01  0.12336877057E+02  0.31078705238E+02  0.17770000000E+01 0.  1.
</event>
<event>
 6    1  0.2408691E-003  0.5005960E+03  0.7546771E-02  0.9398477E-01
        -11   -1    0    0    0    0  0.00000000000E+00  0.00000000000E+00  0.50000000000E+03  0.50000000000E+03  0.00000000000E+00 0.  1.
         11   -1    0    0    0    0 -0.00000000000E+00 -0.00000000000E+00 -0.50000000000E+03  0.50000000000E+03  0.00000000000E+00 0. -1.
        -11    1    1    2    0    0  0.88315838961E-01 -0.10267671894E+01  0.71758382592E+02  0.71765782395E+02  0.00000000000E+00 0.  1.
         11    1    1    2    0    0 -0.16528649939E+02 -0.12694256693E+01 -0.49912879336E+03  0.49940400486E+03  0.00000000000E+00 0. -1.
        -15    1    1    2    0    0 -0.55622054282E+01  0.50709495313E+01  0.24289481246E+03  0.24301790120E+03  0.17770000000E+01 0. -1.
         15    1    1    2    0    0  0.22002539528E+02 -0.27747566726E+01  0.18447559831E+03  0.18581231154E+03  0.17770000000E+01 0.  1.
</event>
<event>
 6    1  0.2408691E-003  0.5602236E+03  0.7546771E-02  0.9274302E-01
        -11   -1    0    0    0    0  0.00000000000E+00  0.00000000000E+00  0.50000000000E+03  0.50000000000E+03  0.00000000000E+00 0. -1.
         11   -1    0    0    0    0 -0.00000000000E+00 -0.00000000000E+00 -0.50000000000E+03  0.50000000000E+03  0.00000000000E+00 0.  1.
        -11    1    1    2    0    0 -0.49700474113E+01 -0.60547233134E+02  0.33734674971E+03  0.34277324626E+03  0.00000000000E+00 0. -1.
         11    1    1    2    0    0 -0.12798178178E+02  0.13671061083E+02 -0.43937746202E+03  0.43977635840E+03  0.00000000000E+00 0.  1.
        -15    1    1    2    0    0  0.20189568462E+01  0.58682140270E+02  0.15240697721E+03  0.16333619993E+03  0.17770000000E+01 0. -1.
         15    1    1    2    0    0  0.15749268743E+02 -0.11805968219E+02 -0.50376264902E+02  0.54114195420E+02  0.17770000000E+01 0.  1.
</event>
<event>
 6    1  0.2408691E-003  0.4376859E+03  0.7546771E-02  0.9551170E-01
        -11   -1    0    0    0    0  0.00000000000E+00  0.00000000000E+00  0.50000000000E+03  0.50000000000E+03  0.00000000000E+00 0.  1.
         11   -1    0    0    0    0 -0.00000000000E+00 -0.00000000000E+00 -0.50000000000E+03  0.50000000000E+03  0.00000000000E+00 0.  1.
        -11    1    1    2    0    0  0.16268548342E+01 -0.64016360707E+00  0.53023754841E+02  0.53052568680E+02  0.00000000000E+00 0.  1.
         11    1    1    2    0    0  0.83840257707E+01  0.26462063140E+02 -0.46747215704E+03  0.46829558003E+03  0.00000000000E+00 0.  1.
        -15    1    1    2    0    0 -0.37930462064E+02  0.53829088301E+02  0.11395769288E+02  0.66852913073E+02  0.17770000000E+01 0. -1.
         15    1    1    2    0    0  0.27919581459E+02 -0.79650987834E+02  0.40305263291E+03  0.41179893821E+03  0.17770000000E+01 0.  1.
</event>
<event>
 6    1  0.2408691E-003  0.5159807E+03  0.7546771E-02  0.9364745E-01
        -11   -1    0    0    0    0  0.00000000000E+00  0.00000000000E+00  0.50000000000E+03  0.50000000000E+03  0.00000000000E+00 0. -1.
         11   -1    0    0    0    0 -0.00000000000E+00 -0.00000000000E+00 -0.50000000000E+03  0.50000000000E+03  0.00000000000E+00 0. -1.
        -11    1    1    2    0    0 -0.25924170119E+01 -0.56542790396E+01  0.40134853299E+03  0.40139673196E+03  0.00000000000E+00 0. -1.
         11    1    1    2    0    0  0.45647245966E+01  0.68455544334E+01 -0.48394936114E+03  0.48401929969E+03  0.00000000000E+00 0. -1.
        -15    1    1    2    0    0 -0.14775654070E+02  0.17707063655E+02  0.88059099768E+02  0.91046267565E+02  0.17770000000E+01 0.  1.
         15    1    1    2    0    0  0.12803346485E+02 -0.18898339049E+02 -0.54582716143E+01  0.23537700781E+02  0.17770000000E+01 0. -1.
</event>
<event>
 6    1  0.2408691E-003  0.5025261E+03  0.7546771E-02  0.9394175E-01
        -11   -1    0    0    0    0  0.00000000000E+00  0.00000000000E+00  0.50000000000E+03  0.50000000000E+03  0.00000000000E+00 0.  1.
         11   -1    0    0    0    0 -0.00000000000E+00 -0.00000000000E+00 -0.50000000000E+03  0.50000000000E+03  0.00000000000E+00 0.  1.
        -11    1    1    2    0    0  0.10646228390E+02 -0.13430395596E+02  0.49717856894E+03  0.49747386576E+03  0.00000000000E+00 0.  1.
         11    1    1    2    0    0 -0.64369066212E+01  0.50627848670E+01 -0.38085727909E+03  0.38094531444E+03  0.00000000000E+00 0.  1.
        -15    1    1    2    0    0  0.51164954080E+01  0.21598952198E+00 -0.10358282214E+03  0.10372455808E+03  0.17770000000E+01 0.  1.
         15    1    1    2    0    0 -0.93258171768E+01  0.81516212073E+01 -0.12738467706E+02  0.17856261726E+02  0.17770000000E+01 0. -1.
</event>
<event>
 6    1  0.2408691E-003  0.5184762E+03  0.7546771E-02  0.9359391E-01
        -11   -1    0    0    0    0  0.00000000000E+00  0.00000000000E+00  0.50000000000E+03  0.50000000000E+03  0.00000000000E+00 0.  1.
         11   -1    0    0    0    0 -0.00000000000E+00 -0.00000000000E+00 -0.50000000000E+03  0.50000000000E+03  0.00000000000E+00 0. -1.
        -11    1    1    2    0    0  0.31674691975E+02 -0.86845298439E+01  0.48040242374E+03  0.48152382693E+03  0.00000000000E+00 0.  1.
         11    1    1    2    0    0  0.78320572242E+01 -0.37327541746E+01 -0.43380079457E+03  0.43388754758E+03  0.00000000000E+00 0. -1.
        -15    1    1    2    0    0 -0.11653481870E+02  0.20634682261E+02  0.59702208150E+01  0.24502959358E+02  0.17770000000E+01 0.  1.
         15    1    1    2    0    0 -0.27853267329E+02 -0.82173982425E+01 -0.52571849982E+02  0.60085666130E+02  0.17770000000E+01 0. -1.
</event>
<event>
 6    1  0.2408691E-003  0.5049021E+03  0.7546771E-02  0.9388907E-01
        -11   -1    0    0    0    0  0.00000000000E+00  0.00000000000E+00  0.50000000000E+03  0.50000000000E+03  0.00000000000E+00 0.  1.
         11   -1    0    0    0    0 -0.00000000000E+00 -0.00000000000E+00 -0.50000000000E+03  0.50000000000E+03  0.00000000000E+00 0.  1.
        -11    1    1    2    0    0 -0.67891975914E+01 -0.54588792611E+00  0.49505102842E+03  0.49509788117E+03  0.00000000000E+00 0.  1.
         11    1    1    2    0    0  0.74573352027E+01 -0.39933837019E+01 -0.43622250429E+03  0.43630451775E+03  0.00000000000E+00 0.  1.
        -15    1    1    2    0    0  0.53804949897E+01 -0.12582599976E+02 -0.40284658515E+02  0.42582660663E+02  0.17770000000E+01 0. -1.
         15    1    1    2    0    0 -0.60486326011E+01  0.17121871604E+02 -0.18543865620E+02  0.26014940414E+02  0.17770000000E+01 0.  1.
</event>
<event>
 6    1  0.2408691E-003  0.5127285E+03  0.7546771E-02  0.9371771E-01
        -11   -1    0    0    0    0  0.00000000000E+00  0.00000000000E+00  0.50000000000E+03  0.50000000000E+03  0.00000000000E+00 0.  1.
         11   -1    0    0    0    0 -0.00000000000E+00 -0.00000000000E+00 -0.50000000000E+03  0.50000000000E+03  0.00000000000E+00 0.  1.
        -11    1    1    2    0    0 -0.72480591590E+01 -0.27582603663E+01  0.48720977172E+03  0.48727148903E+03  0.00000000000E+00 0.  1.
         11    1    1    2    0    0 -0.22852707214E+01  0.44558981964E+01 -0.36083659453E+03  0.36087134195E+03  0.00000000000E+00 0.  1.
        -15    1    1    2    0    0  0.21009965933E+01 -0.56424093194E+01 -0.13758432723E+03  0.13772746929E+03  0.17770000000E+01 0. -1.
         15    1    1    2    0    0  0.74323332871E+01  0.39447714893E+01  0.11211150032E+02  0.14129699722E+02  0.17770000000E+01 0. -1.
</event>
<event>
 6    1  0.2408691E-003  0.5035153E+03  0.7546771E-02  0.9391978E-01
        -11   -1    0    0    0    0  0.00000000000E+00  0.00000000000E+00  0.50000000000E+03  0.50000000000E+03  0.00000000000E+00 0. -1.
         11   -1    0    0    0    0 -0.00000000000E+00 -0.00000000000E+00 -0.50000000000E+03  0.50000000000E+03  0.00000000000E+00 0. -1.
        -11    1    1    2    0    0 -0.56059404498E+01  0.53211582159E+01  0.49642452498E+03  0.49648469292E+03  0.00000000000E+00 0. -1.
         11    1    1    2    0    0 -0.85189303162E+01 -0.98177179010E+00 -0.46719389618E+03  0.46727258926E+03  0.00000000000E+00 0. -1.
        -15    1    1    2    0    0 -0.21070753199E+01  0.17006461827E+01 -0.89284508543E+01  0.94977327558E+01  0.17770000000E+01 0. -1.
         15    1    1    2    0    0  0.16231946086E+02 -0.60400326085E+01 -0.20302177955E+02  0.26744985070E+02  0.17770000000E+01 0.  1.
</event>
<event>
 6    1  0.2408691E-003  0.5047414E+03  0.7546771E-02  0.9389262E-01
        -11   -1    0    0    0    0  0.00000000000E+00  0.00000000000E+00  0.50000000000E+03  0.50000000000E+03  0.00000000000E+00 0. -1.
         11   -1    0    0    0    0 -0.00000000000E+00 -0.00000000000E+00 -0.50000000000E+03  0.50000000000E+03  0.00000000000E+00 0.  1.
        -11    1    1    2    0    0 -0.46975398488E+01 -0.16130013240E+02  0.49497354059E+03  0.49525856893E+03  0.00000000000E+00 0. -1.
         11    1    1    2    0    0  0.70347994720E+01 -0.39062510395E+01 -0.45327299405E+03  0.45334441029E+03  0.00000000000E+00 0.  1.
        -15    1    1    2    0    0 -0.72622401953E+00  0.19252972745E+01 -0.29046565759E+02  0.29173530508E+02  0.17770000000E+01 0. -1.
         15    1    1    2    0    0 -0.16110356036E+01  0.18110967005E+02 -0.12653980780E+02  0.22223490278E+02  0.17770000000E+01 0.  1.
</event>
<event>
 6    1  0.2408691E-003  0.5005883E+03  0.7546771E-02  0.9398494E-01
        -11   -1    0    0    0    0  0.00000000000E+00  0.00000000000E+00  0.50000000000E+03  0.50000000000E+03  0.00000000000E+00 0. -1.
         11   -1    0    0    0    0 -0.00000000000E+00 -0.00000000000E+00 -0.50000000000E+03  0.50000000000E+03  0.00000000000E+00 0.  1.
        -11    1    1    2    0    0 -0.23704167522E+01 -0.25727458347E+01  0.23520542356E+03  0.23523143746E+03  0.00000000000E+00 0. -1.
         11    1    1    2    0    0 -0.60671278807E+01  0.46181811478E+01 -0.49935352189E+03  0.49941173140E+03  0.00000000000E+00 0.  1.
        -15    1    1    2    0    0  0.81088728866E+01  0.93588389643E+01  0.17789219201E+03  0.17833152103E+03  0.17770000000E+01 0. -1.
         15    1    1    2    0    0  0.32867174631E+00 -0.11404274277E+02  0.86255906313E+02  0.87025310111E+02  0.17770000000E+01 0.  1.
</event>
<event>
 6    1  0.2408691E-003  0.5124167E+03  0.7546771E-02  0.9372447E-01
        -11   -1    0    0    0    0  0.00000000000E+00  0.00000000000E+00  0.50000000000E+03  0.50000000000E+03  0.00000000000E+00 0.  1.
         11   -1    0    0    0    0 -0.00000000000E+00 -0.00000000000E+00 -0.50000000000E+03  0.50000000000E+03  0.00000000000E+00 0. -1.
        -11    1    1    2    0    0  0.85155353791E+01  0.55255306124E+01  0.48747758184E+03  0.48758326327E+03  0.00000000000E+00 0.  1.
         11    1    1    2    0    0 -0.83495468588E+01  0.13850691777E+01 -0.34455998006E+03  0.34466391342E+03  0.00000000000E+00 0. -1.
        -15    1    1    2    0    0 -0.77384456945E+01 -0.18766852283E+01  0.10922933283E+02  0.13633550151E+02  0.17770000000E+01 0. -1.
         15    1    1    2    0    0  0.75724571742E+01 -0.50339145618E+01 -0.15384053506E+03  0.15411927316E+03  0.17770000000E+01 0.  1.
</event>
<event>
 6    1  0.2408691E-003  0.5001160E+03  0.7546771E-02  0.9399550E-01
        -11   -1    0    0    0    0  0.00000000000E+00  0.00000000000E+00  0.50000000000E+03  0.50000000000E+03  0.00000000000E+00 0.  1.
         11   -1    0    0    0    0 -0.00000000000E+00 -0.00000000000E+00 -0.50000000000E+03  0.50000000000E+03  0.00000000000E+00 0. -1.
        -11    1    1    2    0    0  0.10945617643E+02  0.43127418248E+01  0.49974556008E+03  0.49988401766E+03  0.00000000000E+00 0.  1.
         11    1    1    2    0    0 -0.22020346098E+01 -0.32368495040E+01 -0.19311301181E+03  0.19315268955E+03  0.00000000000E+00 0. -1.
        -15    1    1    2    0    0 -0.52968734358E+00  0.37933164229E+01 -0.12494584041E+03  0.12501716115E+03  0.17770000000E+01 0. -1.
         15    1    1    2    0    0 -0.82138956899E+01 -0.48692087438E+01 -0.18168670786E+03  0.18194613164E+03  0.17770000000E+01 0.  1.
</event>
<event>
 6    1  0.2408691E-003  0.5003984E+03  0.7546771E-02  0.9398919E-01
        -11   -1    0    0    0    0  0.00000000000E+00  0.00000000000E+00  0.50000000000E+03  0.50000000000E+03  0.00000000000E+00 0.  1.
         11   -1    0    0    0    0 -0.00000000000E+00 -0.00000000000E+00 -0.50000000000E+03  0.50000000000E+03  0.00000000000E+00 0. -1.
        -11    1    1    2    0    0  0.30301995258E+01 -0.25649756685E+02  0.49893351448E+03  0.49960158526E+03  0.00000000000E+00 0.  1.
         11    1    1    2    0    0 -0.11358799789E+01  0.10623534781E+01 -0.35635668636E+02  0.35669590653E+02  0.00000000000E+00 0. -1.
        -15    1    1    2    0    0 -0.58107739312E+01  0.28886988599E+02 -0.33919257837E+03  0.34047464833E+03  0.17770000000E+01 0. -1.
         15    1    1    2    0    0  0.39164543843E+01 -0.42995853913E+01 -0.12410526747E+03  0.12425417575E+03  0.17770000000E+01 0.  1.
</event>
<event>
 6    1  0.2408691E-003  0.5070582E+03  0.7546771E-02  0.9384154E-01
        -11   -1    0    0    0    0  0.00000000000E+00  0.00000000000E+00  0.50000000000E+03  0.50000000000E+03  0.00000000000E+00 0.  1.
         11   -1    0    0    0    0 -0.00000000000E+00 -0.00000000000E+00 -0.50000000000E+03  0.50000000000E+03  0.00000000000E+00 0. -1.
        -11    1    1    2    0    0  0.42616765273E+01  0.58207032502E+01  0.42211933190E+03  0.42218097167E+03  0.00000000000E+00 0.  1.
         11    1    1    2    0    0 -0.23118092377E+02 -0.28860148400E+02 -0.49155291840E+03  0.49294180787E+03  0.00000000000E+00 0. -1.
        -15    1    1    2    0    0  0.22551294904E+02  0.30759951203E+02  0.64177968447E+02  0.74677338349E+02  0.17770000000E+01 0. -1.
         15    1    1    2    0    0 -0.36948790538E+01 -0.77205060539E+01  0.52556180559E+01  0.10199882112E+02  0.17770000000E+01 0.  1.
</event>
<event>
 6    1  0.2408691E-003  0.5071050E+03  0.7546771E-02  0.9384051E-01
        -11   -1    0    0    0    0  0.00000000000E+00  0.00000000000E+00  0.50000000000E+03  0.50000000000E+03  0.00000000000E+00 0. -1.
         11   -1    0    0    0    0 -0.00000000000E+00 -0.00000000000E+00 -0.50000000000E+03  0.50000000000E+03  0.00000000000E+00 0.  1.
        -11    1    1    2    0    0  0.22068114180E+02  0.11560711941E+02  0.49226502510E+03  0.49289502600E+03  0.00000000000E+00 0. -1.
         11    1    1    2    0    0 -0.14945919612E+02 -0.14316755465E+01 -0.21422984746E+03  0.21475534394E+03  0.00000000000E+00 0.  1.
        -15    1    1    2    0    0 -0.17792857540E+02 -0.18905591772E+02 -0.17312768061E+02  0.31255349089E+02  0.17770000000E+01 0. -1.
         15    1    1    2    0    0  0.10670662973E+02  0.87765553776E+01 -0.26072240958E+03  0.26109428097E+03  0.17770000000E+01 0.  1.
</event>
<event>
 6    1  0.2408691E-003  0.5009986E+03  0.7546771E-02  0.9397578E-01
        -11   -1    0    0    0    0  0.00000000000E+00  0.00000000000E+00  0.50000000000E+03  0.50000000000E+03  0.00000000000E+00 0.  1.
         11   -1    0    0    0    0 -0.00000000000E+00 -0.00000000000E+00 -0.50000000000E+03  0.50000000000E+03  0.00000000000E+00 0.  1.
        -11    1    1    2    0    0  0.19003205144E+01 -0.84644141838E+01  0.39600569550E+03  0.39610070487E+03  0.00000000000E+00 0.  1.
         11    1    1    2    0    0 -0.86313399265E+01  0.74808884790E+01 -0.49887068680E+03  0.49900142873E+03  0.00000000000E+00 0.  1.
        -15    1    1    2    0    0  0.94320095040E+01  0.13414958150E+01  0.22893664946E+02  0.24860411058E+02  0.17770000000E+01 0. -1.
         15    1    1    2    0    0 -0.27009900919E+01 -0.35797011018E+00  0.79971326354E+02  0.80037455344E+02  0.17770000000E+01 0.  1.
</event>
<event>
 6    1  0.2408691E-003  0.5039065E+03  0.7546771E-02  0.9391111E-01
        -11   -1    0    0    0    0  0.00000000000E+00  0.00000000000E+00  0.50000000000E+03  0.50000000000E+03  0.00000000000E+00 0.  1.
         11   -1    0    0    0    0 -0.00000000000E+00 -0.00000000000E+00 -0.50000000000E+03  0.50000000000E+03  0.00000000000E+00 0.  1.
        -11    1    1    2    0    0 -0.35748623036E+01  0.14344870603E+02  0.49587314969E+03  0.49609347460E+03  0.00000000000E+00 0.  1.
         11    1    1    2    0    0 -0.90337809516E+00  0.61710228277E+01 -0.45004566728E+03  0.45008888040E+03  0.00000000000E+00 0.  1.
        -15    1    1    2    0    0  0.44136914389E+01 -0.19308887589E+00 -0.14534137693E+01  0.49787645071E+01  0.17770000000E+01 0. -1.
         15    1    1    2    0    0  0.64548959801E-01 -0.20322804555E+02 -0.44374068640E+02  0.48838880498E+02  0.17770000000E+01 0. -1.
</event>
<event>
 6    1  0.2408691E-003  0.5005662E+03  0.7546771E-02  0.9398544E-01
        -11   -1    0    0    0    0  0.00000000000E+00  0.00000000000E+00  0.50000000000E+03  0.50000000000E+03  0.00000000000E+00 0. -1.
         11   -1    0    0    0    0 -0.00000000000E+00 -0.00000000000E+00 -0.50000000000E+03  0.50000000000E+03  0.00000000000E+00 0. -1.
        -11    1    1    2    0    0  0.10934998713E+02  0.16579318786E+01  0.49931132795E+03  0.49943380458E+03  0.00000000000E+00 0. -1.
         11    1    1    2    0    0 -0.52787108310E+01 -0.77734422778E+01 -0.32020702411E+03  0.32034486024E+03  0.00000000000E+00 0. -1.
        -15    1    1    2    0    0 -0.13013938332E+01  0.43595398123E+01 -0.10925415154E+02  0.11967524329E+02  0.17770000000E+01 0. -1.
         15    1    1    2    0    0 -0.43548940484E+01  0.17559705869E+01 -0.16817888869E+03  0.16825381084E+03  0.17770000000E+01 0.  1.
</event>
<event>
 6    1  0.2408691E-003  0.5074106E+03  0.7546771E-02  0.9383379E-01
        -11   -1    0    0    0    0  0.00000000000E+00  0.00000000000E+00  0.50000000000E+03  0.50000000000E+03  0.00000000000E+00 0. -1.
         11   -1    0    0    0    0 -0.00000000000E+00 -0.00000000000E+00 -0.50000000000E+03  0.50000000000E+03  0.00000000000E+00 0.  1.
        -11    1    1    2    0    0 -0.31403071013E+01  0.14308138386E+02  0.49237151644E+03  0.49258937723E+03  0.00000000000E+00 0. -1.
         11    1    1    2    0    0  0.60768200434E+01  0.23706506185E+00 -0.42527564415E+03  0.42531912424E+03  0.00000000000E+00 0.  1.
        -15    1    1    2    0    0 -0.10838858230E+02 -0.49450871541E+01 -0.68410035784E+02  0.69462403209E+02  0.17770000000E+01 0.  1.
         15    1    1    2    0    0  0.79023452880E+01 -0.96001162933E+01  0.13141634895E+01  0.12629095319E+02  0.17770000000E+01 0. -1.
</event>
<event>
 6    1  0.2408691E-003  0.5018563E+03  0.7546771E-02  0.9395666E-01
        -11   -1    0    0    0    0  0.00000000000E+00  0.00000000000E+00  0.50000000000E+03  0.50000000000E+03  0.00000000000E+00 0. -1.
         11   -1    0    0    0    0 -0.00000000000E+00 -0.00000000000E+00 -0.50000000000E+03  0.50000000000E+03  0.00000000000E+00 0. -1.
        -11    1    1    2    0    0 -0.81433142474E+01  0.84881990182E+00  0.40789376619E+03  0.40797592890E+03  0.00000000000E+00 0. -1.
         11    1    1    2    0    0 -0.87976386021E+01  0.11091556378E+02 -0.49794252573E+03  0.49814373428E+03  0.00000000000E+00 0. -1.
        -15    1    1    2    0    0  0.16779923441E+02 -0.82781747827E+01  0.46695268287E+02  0.50335870091E+02  0.17770000000E+01 0.  1.
         15    1    1    2    0    0  0.16102940838E+00 -0.36622014967E+01  0.43353491256E+02  0.43544466737E+02  0.17770000000E+01 0. -1.
</event>
<event>
 6    1  0.2408691E-003  0.5058975E+03  0.7546771E-02  0.9386710E-01
        -11   -1    0    0    0    0  0.00000000000E+00  0.00000000000E+00  0.50000000000E+03  0.50000000000E+03  0.00000000000E+00 0. -1.
         11   -1    0    0    0    0 -0.00000000000E+00 -0.00000000000E+00 -0.50000000000E+03  0.50000000000E+03  0.00000000000E+00 0. -1.
        -11    1    1    2    0    0 -0.12119074894E+02  0.11131806546E+02  0.49382842689E+03  0.49410252407E+03  0.00000000000E+00 0. -1.
         11    1    1    2    0    0 -0.77292308168E+01 -0.10479111274E+02 -0.33365292914E+03  0.33390691803E+03  0.00000000000E+00 0. -1.
        -15    1    1    2    0    0  0.26878913178E+02  0.23668309610E+02 -0.75303693020E+02  0.83405448053E+02  0.17770000000E+01 0.  1.
         15    1    1    2    0    0 -0.70306074665E+01 -0.24321004882E+02 -0.84871804727E+02  0.88585109846E+02  0.17770000000E+01 0. -1.
</event>
<event>
 6    1  0.2408691E-003  0.5049238E+03  0.7546771E-02  0.9388859E-01
        -11   -1    0    0    0    0  0.00000000000E+00  0.00000000000E+00  0.50000000000E+03  0.50000000000E+03  0.00000000000E+00 0.  1.
         11   -1    0    0    0    0 -0.00000000000E+00 -0.00000000000E+00 -0.50000000000E+03  0.50000000000E+03  0.00000000000E+00 0. -1.
        -11    1    1    2    0    0  0.66426977090E+01  0.21639348428E+01  0.49502691357E+03  0.49507620950E+03  0.00000000000E+00 0.  1.
         11    1    1    2    0    0  0.87101050780E+01  0.11303628853E+02 -0.42796261129E+03  0.42820046078E+03  0.00000000000E+00 0. -1.
        -15    1    1    2    0    0 -0.17948944488E+02 -0.10756310426E+02 -0.18515529006E+02  0.27997238535E+02  0.17770000000E+01 0.  1.
         15    1    1    2    0    0  0.25961417012E+01 -0.27112532699E+01 -0.48548773280E+02  0.48726091183E+02  0.17770000000E+01 0. -1.
</event>
<event>
 6    1  0.2408691E-003  0.5036044E+03  0.7546771E-02  0.9391780E-01
        -11   -1    0    0    0    0  0.00000000000E+00  0.00000000000E+00  0.50000000000E+03  0.50000000000E+03  0.00000000000E+00 0. -1.
         11   -1    0    0    0    0 -0.00000000000E+00 -0.00000000000E+00 -0.50000000000E+03  0.50000000000E+03  0.00000000000E+00 0.  1.
        -11    1    1    2    0    0  0.77353755857E+01 -0.41399842292E+01  0.49631803157E+03  0.49639557206E+03  0.00000000000E+00 0. -1.
         11    1    1    2    0    0 -0.13509367372E+02  0.41379022802E+01 -0.45832321337E+03  0.45854093946E+03  0.00000000000E+00 0.  1.
        -15    1    1    2    0    0 -0.49598839157E+01  0.16538474856E+01 -0.15627362928E-01  0.55221040535E+01  0.17770000000E+01 0. -1.
         15    1    1    2    0    0  0.10733875702E+02 -0.16517655366E+01 -0.37979190832E+02  0.39541384424E+02  0.17770000000E+01 0.  1.
</event>
<event>
 6    1  0.2408691E-003  0.5074374E+03  0.7546771E-02  0.9383320E-01
        -11   -1    0    0    0    0  0.00000000000E+00  0.00000000000E+00  0.50000000000E+03  0.50000000000E+03  0.00000000000E+00 0. -1.
         11   -1    0    0    0    0 -0.00000000000E+00 -0.00000000000E+00 -0.50000000000E+03  0.50000000000E+03  0.00000000000E+00 0.  1.
        -11    1    1    2    0    0  0.85297705910E+01 -0.16595225074E+01  0.49248597874E+03  0.49256263588E+03  0.00000000000E+00 0. -1.
         11    1    1    2    0    0  0.83726465482E+01 -0.15436452507E+02 -0.38892820172E+03  0.38932445514E+03  0.00000000000E+00 0.  1.
        -15    1    1    2    0    0  0.17848915381E+02  0.98191806965E+01 -0.28666769901E+02  0.35212803288E+02  0.17770000000E+01 0.  1.
         15    1    1    2    0    0 -0.34751332520E+02  0.72767943183E+01 -0.74891007125E+02  0.82900105697E+02  0.17770000000E+01 0. -1.
</event>
<event>
 6    1  0.2408691E-003  0.3256112E+03  0.7546771E-02  0.9905988E-01
        -11   -1    0    0    0    0  0.00000000000E+00  0.00000000000E+00  0.50000000000E+03  0.50000000000E+03  0.00000000000E+00 0.  1.
         11   -1    0    0    0    0 -0.00000000000E+00 -0.00000000000E+00 -0.50000000000E+03  0.50000000000E+03  0.00000000000E+00 0. -1.
        -11    1    1    2    0    0 -0.22474480506E+01  0.51447658705E+01  0.78765576617E+02  0.78965408239E+02  0.00000000000E+00 0.  1.
         11    1    1    2    0    0 -0.11897870123E+01  0.61303763995E+01 -0.24799988790E+03  0.24807849867E+03  0.00000000000E+00 0. -1.
        -15    1    1    2    0    0 -0.90803556318E+02  0.31324035781E+02  0.40460785058E+03  0.41585712875E+03  0.17770000000E+01 0.  1.
         15    1    1    2    0    0  0.94240791380E+02 -0.42599178051E+02 -0.23537353930E+03  0.25709896433E+03  0.17770000000E+01 0. -1.
</event>
<event>
 6    1  0.2408691E-003  0.5054543E+03  0.7546771E-02  0.9387687E-01
        -11   -1    0    0    0    0  0.00000000000E+00  0.00000000000E+00  0.50000000000E+03  0.50000000000E+03  0.00000000000E+00 0. -1.
         11   -1    0    0    0    0 -0.00000000000E+00 -0.00000000000E+00 -0.50000000000E+03  0.50000000000E+03  0.00000000000E+00 0. -1.
        -11    1    1    2    0    0  0.98158308300E+00 -0.46631647583E+01  0.18080669237E+03  0.18086947951E+03  0.00000000000E+00 0. -1.
         11    1    1    2    0    0  0.10686519914E+02 -0.72416245789E+01 -0.49437715174E+03  0.49454566119E+03  0.00000000000E+00 0. -1.
        -15    1    1    2    0    0 -0.15291181926E+02  0.58498322845E+01  0.69443025518E+01  0.17872376713E+02  0.17770000000E+01 0.  1.
         15    1    1    2    0    0  0.36230789285E+01  0.60549570528E+01  0.30662615682E+03  0.30671248259E+03  0.17770000000E+01 0. -1.
</event>
<event>
 6    1  0.2408691E-003  0.5009098E+03  0.7546771E-02  0.9397776E-01
        -11   -1    0    0    0    0  0.00000000000E+00  0.00000000000E+00  0.50000000000E+03  0.50000000000E+03  0.00000000000E+00 0. -1.
         11   -1    0    0    0    0 -0.00000000000E+00 -0.00000000000E+00 -0.50000000000E+03  0.50000000000E+03  0.00000000000E+00 0.  1.
        -11    1    1    2    0    0 -0.24332584218E+02 -0.18179598148E+02  0.49816506314E+03  0.49909017480E+03  0.00000000000E+00 0. -1.
         11    1    1    2    0    0 -0.41594622194E+00  0.62056427084E+01 -0.58368273068E+02  0.58698707939E+02  0.00000000000E+00 0.  1.
        -15    1    1    2    0    0  0.20379233167E+02  0.22491968399E+02 -0.21738297750E+03  0.21949878912E+03  0.17770000000E+01 0. -1.
         15    1    1    2    0    0  0.43692972724E+01 -0.10518012960E+02 -0.22241381257E+03  0.22271232814E+03  0.17770000000E+01 0.  1.
</event>
<event>
 6    1  0.2408691E-003  0.5028790E+03  0.7546771E-02  0.9393391E-01
        -11   -1    0    0    0    0  0.00000000000E+00  0.00000000000E+00  0.50000000000E+03  0.50000000000E+03  0.00000000000E+00 0. -1.
         11   -1    0    0    0    0 -0.00000000000E+00 -0.00000000000E+00 -0.50000000000E+03  0.50000000000E+03  0.00000000000E+00 0.  1.
        -11    1    1    2    0    0  0.67190486509E+01 -0.40456290907E+01  0.49705908062E+03  0.49712095345E+03  0.00000000000E+00 0. -1.
         11    1    1    2    0    0 -0.98373332947E+01 -0.11483975428E+02 -0.40964176026E+03  0.40992075645E+03  0.00000000000E+00 0.  1.
        -15    1    1    2    0    0  0.81933107030E+01  0.14934484087E+02 -0.85531008149E+02  0.87228895667E+02  0.17770000000E+01 0.  1.
         15    1    1    2    0    0 -0.50750260592E+01  0.59512043157E+00 -0.18863122149E+01  0.57293944358E+01  0.17770000000E+01 0. -1.
</event>
<event>
 6    1  0.2408691E-003  0.5009268E+03  0.7546771E-02  0.9397738E-01
        -11   -1    0    0    0    0  0.00000000000E+00  0.00000000000E+00  0.50000000000E+03  0.50000000000E+03  0.00000000000E+00 0. -1.
         11   -1    0    0    0    0 -0.00000000000E+00 -0.00000000000E+00 -0.50000000000E+03  0.50000000000E+03  0.00000000000E+00 0. -1.
        -11    1    1    2    0    0 -0.97933767241E+01  0.14856396434E+02  0.49875588104E+03  0.49907319264E+03  0.00000000000E+00 0. -1.
         11    1    1    2    0    0  0.16592202332E+00  0.37681142785E+01 -0.23451229853E+03  0.23454262806E+03  0.00000000000E+00 0. -1.
        -15    1    1    2    0    0  0.26232143192E+01 -0.21565605125E+02 -0.12236259181E+03  0.12428884979E+03  0.17770000000E+01 0.  1.
         15    1    1    2    0    0  0.70042403817E+01  0.29410944125E+01 -0.14188099069E+03  0.14209532951E+03  0.17770000000E+01 0. -1.
</event>
<event>
 6    1  0.2408691E-003  0.5033857E+03  0.7546771E-02  0.9392266E-01
        -11   -1    0    0    0    0  0.00000000000E+00  0.00000000000E+00  0.50000000000E+03  0.50000000000E+03  0.00000000000E+00 0. -1.
         11   -1    0    0    0    0 -0.00000000000E+00 -0.00000000000E+00 -0.50000000000E+03  0.50000000000E+03  0.00000000000E+00 0. -1.
        -11    1    1    2    0    0  0.87181189541E+01  0.58349251369E+00  0.49653738142E+03  0.49661425393E+03  0.00000000000E+00 0. -1.
         11    1    1    2    0    0 -0.86895447729E+01 -0.54510877445E+01 -0.48812072289E+03  0.48822849432E+03  0.00000000000E+00 0. -1.
        -15    1    1    2    0    0  0.51486271491E+01  0.45910365236E+01 -0.46400933838E+01  0.85014218512E+01  0.17770000000E+01 0.  1.
         15    1    1    2    0    0 -0.51772013303E+01  0.27655870721E+00 -0.37765651427E+01  0.66558298964E+01  0.17770000000E+01 0. -1.
</event>
<event>
 6    1  0.2408691E-003  0.4868137E+03  0.7546771E-02  0.9429808E-01
        -11   -1    0    0    0    0  0.00000000000E+00  0.00000000000E+00  0.50000000000E+03  0.50000000000E+03  0.00000000000E+00 0.  1.
         11   -1    0    0    0    0 -0.00000000000E+00 -0.00000000000E+00 -0.50000000000E+03  0.50000000000E+03  0.00000000000E+00 0.  1.
        -11    1    1    2    0    0 -0.84118840505E+01 -0.10984412109E+02  0.48947719733E+03  0.48967269048E+03  0.00000000000E+00 0.  1.
         11    1    1    2    0    0  0.21807612402E+01 -0.71847106558E+01 -0.48410085988E+03  0.48415908370E+03  0.00000000000E+00 0.  1.
        -15    1    1    2    0    0  0.99471945511E+01  0.16675522232E+02 -0.35139347086E+00  0.19501305790E+02  0.17770000000E+01 0.  1.
         15    1    1    2    0    0 -0.37160717408E+01  0.14936005329E+01 -0.50249439743E+01  0.66669200295E+01  0.17770000000E+01 0. -1.
</event>
<event>
 6    1  0.2408691E-003  0.5004734E+03  0.7546771E-02  0.9398751E-01
        -11   -1    0    0    0    0  0.00000000000E+00  0.00000000000E+00  0.50000000000E+03  0.50000000000E+03  0.00000000000E+00 0. -1.
         11   -1    0    0    0    0 -0.00000000000E+00 -0.00000000000E+00 -0.50000000000E+03  0.50000000000E+03  0.00000000000E+00 0.  1.
        -11    1    1    2    0    0  0.80978488704E+01 -0.22390203805E+01  0.38290401390E+03  0.38299617783E+03  0.00000000000E+00 0. -1.
         11    1    1    2    0    0 -0.73266697800E+01  0.10220208538E+02 -0.49936828113E+03  0.49952658883E+03  0.00000000000E+00 0.  1.
        -15    1    1    2    0    0 -0.49610939608E+01 -0.10643712932E+00  0.65172707034E+02  0.65385497270E+02  0.17770000000E+01 0.  1.
         15    1    1    2    0    0  0.41899148704E+01 -0.78747510278E+01  0.51291560197E+02  0.52091736070E+02  0.17770000000E+01 0. -1.
</event>
<event>
 6    1  0.2408691E-003  0.5038719E+03  0.7546771E-02  0.9391188E-01
        -11   -1    0    0    0    0  0.00000000000E+00  0.00000000000E+00  0.50000000000E+03  0.50000000000E+03  0.00000000000E+00 0. -1.
         11   -1    0    0    0    0 -0.00000000000E+00 -0.00000000000E+00 -0.50000000000E+03  0.50000000000E+03  0.00000000000E+00 0.  1.
        -11    1    1    2    0    0  0.96261333492E+01  0.95536660065E+01  0.49594270989E+03  0.49612811497E+03  0.00000000000E+00 0. -1.
         11    1    1    2    0    0 -0.12338431406E+01 -0.10888983916E+02 -0.33486397301E+03  0.33504324013E+03  0.00000000000E+00 0.  1.
        -15    1    1    2    0    0 -0.81486640911E+01 -0.21515454618E+02 -0.11582428803E+03  0.11810054590E+03  0.17770000000E+01 0.  1.
         15    1    1    2    0    0 -0.24362611748E+00  0.22850772528E+02 -0.45254448841E+02  0.50728098995E+02  0.17770000000E+01 0. -1.
</event>
<event>
 6    1  0.2408691E-003  0.5015154E+03  0.7546771E-02  0.9396425E-01
        -11   -1    0    0    0    0  0.00000000000E+00  0.00000000000E+00  0.50000000000E+03  0.50000000000E+03  0.00000000000E+00 0. -1.
         11   -1    0    0    0    0 -0.00000000000E+00 -0.00000000000E+00 -0.50000000000E+03  0.50000000000E+03  0.00000000000E+00 0. -1.
        -11    1    1    2    0    0  0.14949399729E+02  0.73455826018E+01  0.49820622912E+03  0.49848459241E+03  0.00000000000E+00 0. -1.
         11    1    1    2    0    0 -0.13718862527E+01 -0.14135372598E+02 -0.36190658614E+03  0.36218512935E+03  0.00000000000E+00 0. -1.
        -15    1    1    2    0    0  0.55356665568E+01 -0.93723646393E+00 -0.12555403514E+02  0.13867873046E+02  0.17770000000E+01 0. -1.
         15    1    1    2    0    0 -0.19113180033E+02  0.77270264601E+01 -0.12374423946E+03  0.12546240519E+03  0.17770000000E+01 0.  1.
</event>
<event>
 6    1  0.2408691E-003  0.5008655E+03  0.7546771E-02  0.9397875E-01
        -11   -1    0    0    0    0  0.00000000000E+00  0.00000000000E+00  0.50000000000E+03  0.50000000000E+03  0.00000000000E+00 0.  1.
         11   -1    0    0    0    0 -0.00000000000E+00 -0.00000000000E+00 -0.50000000000E+03  0.50000000000E+03  0.00000000000E+00 0.  1.
        -11    1    1    2    0    0 -0.16885248247E+01 -0.62352463769E+01  0.31980430048E+03  0.31986953594E+03  0.00000000000E+00 0.  1.
         11    1    1    2    0    0  0.49894138030E+01  0.11872887224E+02 -0.49896828940E+03  0.49913446437E+03  0.00000000000E+00 0.  1.
        -15    1    1    2    0    0  0.40238686941E+01 -0.13694863372E+02  0.11411714131E+03  0.11502008725E+03  0.17770000000E+01 0.  1.
         15    1    1    2    0    0 -0.73247576724E+01  0.80572225245E+01  0.65046847603E+02  0.65975912437E+02  0.17770000000E+01 0. -1.
</event>
<event>
 6    1  0.2408691E-003  0.3136896E+03  0.7546771E-02  0.9952648E-01
        -11   -1    0    0    0    0  0.00000000000E+00  0.00000000000E+00  0.50000000000E+03  0.50000000000E+03  0.00000000000E+00 0.  1.
         11   -1    0    0    0    0 -0.00000000000E+00 -0.00000000000E+00 -0.50000000000E+03  0.50000000000E+03  0.00000000000E+00 0.  1.
        -11    1    1    2    0    0  0.78719287237E+01  0.63746566294E+02  0.23231598738E+03  0.24103176133E+03  0.00000000000E+00 0.  1.
         11    1    1    2    0    0 -0.29296910736E+02  0.28796613357E+01 -0.11267873672E+03  0.11646071929E+03  0.00000000000E+00 0.  1.
        -15    1    1    2    0    0 -0.29660539006E+03 -0.51644497466E+01 -0.11610907406E+03  0.31856852287E+03  0.17770000000E+01 0. -1.
         15    1    1    2    0    0  0.31803037208E+03 -0.61461777883E+02 -0.35281765978E+01  0.32393899651E+03  0.17770000000E+01 0.  1.
</event>
<event>
 6    1  0.2408691E-003  0.5008025E+03  0.7546771E-02  0.9398016E-01
        -11   -1    0    0    0    0  0.00000000000E+00  0.00000000000E+00  0.50000000000E+03  0.50000000000E+03  0.00000000000E+00 0.  1.
         11   -1    0    0    0    0 -0.00000000000E+00 -0.00000000000E+00 -0.50000000000E+03  0.50000000000E+03  0.00000000000E+00 0.  1.
        -11    1    1    2    0    0 -0.16008932538E+01 -0.58664136374E+01  0.34924528614E+03  0.34929822152E+03  0.00000000000E+00 0.  1.
         11    1    1    2    0    0  0.58304105586E+01 -0.82862192212E+01 -0.49909467726E+03  0.49919750800E+03  0.00000000000E+00 0.  1.
        -15    1    1    2    0    0  0.53818708324E+00  0.12435566234E+02  0.13702909258E+03  0.13760473428E+03  0.17770000000E+01 0.  1.
         15    1    1    2    0    0 -0.47677043881E+01  0.17170666245E+01  0.12820298541E+02  0.13899536201E+02  0.17770000000E+01 0. -1.
</event>
<event>
 6    1  0.2408691E-003  0.4314434E+03  0.7546771E-02  0.9567802E-01
        -11   -1    0    0    0    0  0.00000000000E+00  0.00000000000E+00  0.50000000000E+03  0.50000000000E+03  0.00000000000E+00 0. -1.
         11   -1    0    0    0    0 -0.00000000000E+00 -0.00000000000E+00 -0.50000000000E+03  0.50000000000E+03  0.00000000000E+00 0.  1.
        -11    1    1    2    0    0 -0.28225306690E+02  0.88388470969E+01  0.44079448040E+03  0.44178565743E+03  0.00000000000E+00 0. -1.
         11    1    1    2    0    0 -0.19599127962E+02  0.19455370773E+02 -0.42218639557E+03  0.42308863122E+03  0.00000000000E+00 0.  1.
        -15    1    1    2    0    0  0.60302845836E+02 -0.56700350022E+02  0.20383851845E+02  0.85264424314E+02  0.17770000000E+01 0.  1.
         15    1    1    2    0    0 -0.12478411185E+02  0.28406132152E+02 -0.38991936681E+02  0.49861287034E+02  0.17770000000E+01 0. -1.
</event>
<event>
 6    1  0.2408691E-003  0.5104941E+03  0.7546771E-02  0.9376630E-01
        -11   -1    0    0    0    0  0.00000000000E+00  0.00000000000E+00  0.50000000000E+03  0.50000000000E+03  0.00000000000E+00 0. -1.
         11   -1    0    0    0    0 -0.00000000000E+00 -0.00000000000E+00 -0.50000000000E+03  0.50000000000E+03  0.00000000000E+00 0.  1.
        -11    1    1    2    0    0 -0.84942098100E+01  0.14664980249E+02  0.46876494507E+03  0.46907119606E+03  0.00000000000E+00 0. -1.
         11    1    1    2    0    0  0.80875606979E+01  0.87039810151E+01 -0.48936170042E+03  0.48950591596E+03  0.00000000000E+00 0.  1.
        -15    1    1    2    0    0  0.45213243874E+01  0.61588680250E+00 -0.43335639495E+01  0.65390516341E+01  0.17770000000E+01 0.  1.
         15    1    1    2    0    0 -0.41146752753E+01 -0.23984848066E+02  0.24930319296E+02  0.34883836352E+02  0.17770000000E+01 0. -1.
</event>
<event>
 6    1  0.2408691E-003  0.5175488E+03  0.7546771E-02  0.9361377E-01
        -11   -1    0    0    0    0  0.00000000000E+00  0.00000000000E+00  0.50000000000E+03  0.50000000000E+03  0.00000000000E+00 0.  1.
         11   -1    0    0    0    0 -0.00000000000E+00 -0.00000000000E+00 -0.50000000000E+03  0.50000000000E+03  0.00000000000E+00 0. -1.
        -11    1    1    2    0    0  0.66522312872E+01  0.55858331522E+01  0.46817538704E+03  0.46825596285E+03  0.00000000000E+00 0.  1.
         11    1    1    2    0    0  0.41821480883E+01  0.14577182158E+02 -0.48221277502E+03  0.48245118406E+03  0.00000000000E+00 0. -1.
        -15    1    1    2    0    0 -0.19986393866E+02 -0.13061767805E+02 -0.72302473216E+01  0.25009996468E+02  0.17770000000E+01 0.  1.
         15    1    1    2    0    0  0.91520144909E+01 -0.71012475046E+01  0.21267635307E+02  0.24282856626E+02  0.17770000000E+01 0. -1.
</event>
<event>
 6    1  0.2408691E-003  0.5015909E+03  0.7546771E-02  0.9396257E-01
        -11   -1    0    0    0    0  0.00000000000E+00  0.00000000000E+00  0.50000000000E+03  0.50000000000E+03  0.00000000000E+00 0. -1.
         11   -1    0    0    0    0 -0.00000000000E+00 -0.00000000000E+00 -0.50000000000E+03  0.50000000000E+03  0.00000000000E+00 0. -1.
        -11    1    1    2    0    0 -0.87345058815E+00  0.34367026804E+00  0.54086018997E+02  0.54094163051E+02  0.00000000000E+00 0. -1.
         11    1    1    2    0    0 -0.12000309944E+02  0.22108234557E+01 -0.49825966170E+03  0.49840905455E+03  0.00000000000E+00 0. -1.
        -15    1    1    2    0    0  0.15037148910E+02 -0.22623517550E+02  0.13837042450E+03  0.14102294671E+03  0.17770000000E+01 0.  1.
         15    1    1    2    0    0 -0.21633883777E+01  0.20069023827E+02  0.30580321820E+03  0.30647383568E+03  0.17770000000E+01 0. -1.
</event>
<event>
 6    1  0.2408691E-003  0.4704924E+03  0.7546771E-02  0.9468369E-01
        -11   -1    0    0    0    0  0.00000000000E+00  0.00000000000E+00  0.50000000000E+03  0.50000000000E+03  0.00000000000E+00 0.  1.
         11   -1    0    0    0    0 -0.00000000000E+00 -0.00000000000E+00 -0.50000000000E+03  0.50000000000E+03  0.00000000000E+00 0.  1.
        -11    1    1    2    0    0 -0.94595270446E+01 -0.15019923937E+02  0.47024918413E+03  0.47058407957E+03  0.00000000000E+00 0.  1.
         11    1    1    2    0    0  0.90518978274E+01 -0.12087634484E+02 -0.47054900254E+03  0.47079126113E+03  0.00000000000E+00 0.  1.
        -15    1    1    2    0    0 -0.18755117055E+02  0.32808226953E+02 -0.41697335761E+01  0.38061510462E+02  0.17770000000E+01 0. -1.
         15    1    1    2    0    0  0.19162746272E+02 -0.57006685317E+01  0.44695519812E+01  0.20563148842E+02  0.17770000000E+01 0.  1.
</event>
<event>
 6    1  0.2408691E-003  0.5068816E+03  0.7546771E-02  0.9384542E-01
        -11   -1    0    0    0    0  0.00000000000E+00  0.00000000000E+00  0.50000000000E+03  0.50000000000E+03  0.00000000000E+00 0.  1.
         11   -1    0    0    0    0 -0.00000000000E+00 -0.00000000000E+00 -0.50000000000E+03  0.50000000000E+03  0.00000000000E+00 0.  1.
        -11    1    1    2    0    0 -0.67992496075E+01  0.65810681904E+01  0.47142739822E+03  0.47152235583E+03  0.00000000000E+00 0.  1.
         11    1    1    2    0    0 -0.11166742917E+02  0.50467580818E+01 -0.49296606740E+03  0.49311835245E+03  0.00000000000E+00 0.  1.
        -15    1    1    2    0    0  0.53948289563E+01 -0.56476239798E+01  0.19623367778E+02  0.21195143973E+02  0.17770000000E+01 0.  1.
         15    1    1    2    0    0  0.12571163569E+02 -0.59802022925E+01  0.19153014037E+01  0.14164147747E+02  0.17770000000E+01 0.  1.
</event>
<event>
 6    1  0.2408691E-003  0.5209032E+03  0.7546771E-02  0.9354215E-01
        -11   -1    0    0    0    0  0.00000000000E+00  0.00000000000E+00  0.50000000000E+03  0.50000000000E+03  0.00000000000E+00 0.  1.
         11   -1    0    0    0    0 -0.00000000000E+00 -0.00000000000E+00 -0.50000000000E+03  0.50000000000E+03  0.00000000000E+00 0. -1.
        -11    1    1    2    0    0  0.65204456850E+01 -0.25752370344E+01  0.47904545820E+03  0.47909675336E+03  0.00000000000E+00 0.  1.
         11    1    1    2    0    0 -0.32571635687E+02  0.95625535718E+01 -0.40891389553E+03  0.41032051842E+03  0.00000000000E+00 0. -1.
        -15    1    1    2    0    0  0.88768620442E+00 -0.51433140851E+01 -0.82320902245E+02  0.82505335234E+02  0.17770000000E+01 0. -1.
         15    1    1    2    0    0  0.25163503797E+02 -0.18440024523E+01  0.12189339576E+02  0.28077392982E+02  0.17770000000E+01 0.  1.
</event>
<event>
 6    1  0.2408691E-003  0.4766338E+03  0.7546771E-02  0.9453667E-01
        -11   -1    0    0    0    0  0.00000000000E+00  0.00000000000E+00  0.50000000000E+03  0.50000000000E+03  0.00000000000E+00 0.  1.
         11   -1    0    0    0    0 -0.00000000000E+00 -0.00000000000E+00 -0.50000000000E+03  0.50000000000E+03  0.00000000000E+00 0. -1.
        -11    1    1    2    0    0 -0.54168117640E+01  0.18341006884E+02  0.47372426070E+03  0.47411012387E+03  0.00000000000E+00 0.  1.
         11    1    1    2    0    0  0.42726780653E+01 -0.58832458197E+01 -0.47920015021E+03  0.47925531016E+03  0.00000000000E+00 0. -1.
        -15    1    1    2    0    0 -0.13183163332E+01 -0.78234033791E+01 -0.19460224276E+02  0.21090321388E+02  0.17770000000E+01 0.  1.
         15    1    1    2    0    0  0.24624500318E+01 -0.46343576848E+01  0.24936113785E+02  0.25544244577E+02  0.17770000000E+01 0. -1.
</event>
<event>
 6    1  0.2408691E-003  0.5014121E+03  0.7546771E-02  0.9396656E-01
        -11   -1    0    0    0    0  0.00000000000E+00  0.00000000000E+00  0.50000000000E+03  0.50000000000E+03  0.00000000000E+00 0.  1.
         11   -1    0    0    0    0 -0.00000000000E+00 -0.00000000000E+00 -0.50000000000E+03  0.50000000000E+03  0.00000000000E+00 0. -1.
        -11    1    1    2    0    0  0.10422572517E+02  0.38262455263E+01  0.49846427046E+03  0.49858790509E+03  0.00000000000E+00 0.  1.
         11    1    1    2    0    0 -0.40070736831E+01 -0.10336797784E+00 -0.14593528501E+03  0.14599032411E+03  0.00000000000E+00 0. -1.
        -15    1    1    2    0    0 -0.11794874445E+02 -0.39966975877E+01 -0.26405282054E+02  0.29248748762E+02  0.17770000000E+01 0. -1.
         15    1    1    2    0    0  0.53793756102E+01  0.27382003923E+00 -0.32612370340E+03  0.32617302204E+03  0.17770000000E+01 0.  1.
</event>
<event>
 6    1  0.2408691E-003  0.4420007E+03  0.7546771E-02  0.9539845E-01
        -11   -1    0    0    0    0  0.00000000000E+00  0.00000000000E+00  0.50000000000E+03  0.50000000000E+03  0.00000000000E+00 0. -1.
         11   -1    0    0    0    0 -0.00000000000E+00 -0.00000000000E+00 -0.50000000000E+03  0.50000000000E+03  0.00000000000E+00 0. -1.
        -11    1    1    2    0    0 -0.52593513437E-01 -0.14111777307E+01  0.99466831561E+01  0.10046426951E+02  0.00000000000E+00 0. -1.
         11    1    1    2    0    0 -0.21496407781E+02 -0.44485463041E+01 -0.40838253265E+03  0.40897209940E+03  0.00000000000E+00 0. -1.
        -15    1    1    2    0    0 -0.76469547589E+01  0.63807167709E+02  0.47572566851E+03  0.48004989321E+03  0.17770000000E+01 0. -1.
         15    1    1    2    0    0  0.29195956054E+02 -0.57947443674E+02 -0.77289819014E+02  0.10093158044E+03  0.17770000000E+01 0.  1.
</event>
<event>
 6    1  0.2408691E-003  0.5072524E+03  0.7546771E-02  0.9383727E-01
        -11   -1    0    0    0    0  0.00000000000E+00  0.00000000000E+00  0.50000000000E+03  0.50000000000E+03  0.00000000000E+00 0. -1.
         11   -1    0    0    0    0 -0.00000000000E+00 -0.00000000000E+00 -0.50000000000E+03  0.50000000000E+03  0.00000000000E+00 0.  1.
        -11    1    1    2    0    0 -0.46380070943E+01 -0.16551702376E+02  0.37037952823E+03  0.37077818826E+03  0.00000000000E+00 0. -1.
         11    1    1    2    0    0  0.33800551462E+00  0.71505760794E+01 -0.49269561509E+03  0.49274761706E+03  0.00000000000E+00 0.  1.
        -15    1    1    2    0    0 -0.20217707447E+02 -0.12590176334E+02  0.75635331030E+02  0.79316639260E+02  0.17770000000E+01 0. -1.
         15    1    1    2    0    0  0.24517709026E+02  0.21991302630E+02  0.46680755835E+02  0.57157555420E+02  0.17770000000E+01 0.  1.
</event>
<event>
 6    1  0.2408691E-003  0.5008681E+03  0.7546771E-02  0.9397869E-01
        -11   -1    0    0    0    0  0.00000000000E+00  0.00000000000E+00  0.50000000000E+03  0.50000000000E+03  0.00000000000E+00 0. -1.
         11   -1    0    0    0    0 -0.00000000000E+00 -0.00000000000E+00 -0.50000000000E+03  0.50000000000E+03  0.00000000000E+00 0.  1.
        -11    1    1    2    0    0  0.93736240429E+01 -0.11117986468E+02  0.20386057627E+03  0.20437859235E+03  0.00000000000E+00 0. -1.
         11    1    1    2    0    0 -0.13188422095E+01  0.12208163509E+02 -0.49898086046E+03  0.49913192415E+03  0.00000000000E+00 0.  1.
        -15    1    1    2    0    0 -0.83573765587E+01 -0.11492471817E+02  0.23599083803E+03  0.23642494796E+03  0.17770000000E+01 0. -1.
         15    1    1    2    0    0  0.30259472536E+00  0.10402294776E+02  0.59129446147E+02  0.60064535550E+02  0.17770000000E+01 0.  1.
</event>
<event>
 6    1  0.2408691E-003  0.5072982E+03  0.7546771E-02  0.9383626E-01
        -11   -1    0    0    0    0  0.00000000000E+00  0.00000000000E+00  0.50000000000E+03  0.50000000000E+03  0.00000000000E+00 0.  1.
         11   -1    0    0    0    0 -0.00000000000E+00 -0.00000000000E+00 -0.50000000000E+03  0.50000000000E+03  0.00000000000E+00 0.  1.
        -11    1    1    2    0    0 -0.35810596300E+01 -0.12022589633E+02  0.41694443459E+03  0.41713310608E+03  0.00000000000E+00 0.  1.
         11    1    1    2    0    0  0.16087436234E+02  0.31360413214E+01 -0.49242910343E+03  0.49270179852E+03  0.00000000000E+00 0.  1.
        -15    1    1    2    0    0 -0.60121682082E+01  0.77419865534E+01  0.80861586212E+02  0.81472930328E+02  0.17770000000E+01 0. -1.
         15    1    1    2    0    0 -0.64942083959E+01  0.11445617579E+01 -0.53769173737E+01  0.86921650784E+01  0.17770000000E+01 0.  1.
</event>
<event>
 6    1  0.2408691E-003  0.5007901E+03  0.7546771E-02  0.9398044E-01
        -11   -1    0    0    0    0  0.00000000000E+00  0.00000000000E+00  0.50000000000E+03  0.50000000000E+03  0.00000000000E+00 0. -1.
         11   -1    0    0    0    0 -0.00000000000E+00 -0.00000000000E+00 -0.50000000000E+03  0.50000000000E+03  0.00000000000E+00 0.  1.
        -11    1    1    2    0    0 -0.10260626872E+02 -0.67361757847E+01  0.49905901088E+03  0.49920992865E+03  0.00000000000E+00 0. -1.
         11    1    1    2    0    0  0.32119892307E+01  0.13340999403E+01 -0.21453734665E+03  0.21456553732E+03  0.00000000000E+00 0.  1.
        -15    1    1    2    0    0 -0.73418441083E+01 -0.84123752553E+00 -0.22927892770E+02  0.24154841158E+02  0.17770000000E+01 0. -1.
         15    1    1    2    0    0  0.14390481749E+02  0.62433133700E+01 -0.26159377145E+03  0.26206969287E+03  0.17770000000E+01 0.  1.
</event>
<event>
 6    1  0.2408691E-003  0.5681505E+03  0.7546771E-02  0.9259033E-01
        -11   -1    0    0    0    0  0.00000000000E+00  0.00000000000E+00  0.50000000000E+03  0.50000000000E+03  0.00000000000E+00 0.  1.
         11   -1    0    0    0    0 -0.00000000000E+00 -0.00000000000E+00 -0.50000000000E+03  0.50000000000E+03  0.00000000000E+00 0.  1.
        -11    1    1    2    0    0 -0.49816116484E+01 -0.82426553258E+01  0.43174208867E+03  0.43184949804E+03  0.00000000000E+00 0.  1.
         11    1    1    2    0    0  0.70378732798E+01 -0.30118812352E+00 -0.40072396355E+03  0.40078587467E+03  0.00000000000E+00 0.  1.
        -15    1    1    2    0    0  0.23713624939E+01  0.13156333081E+02  0.67393473297E+02  0.68729545555E+02  0.17770000000E+01 0.  1.
         15    1    1    2    0    0 -0.44276241253E+01 -0.46124896312E+01 -0.98411598421E+02  0.98635081734E+02  0.17770000000E+01 0. -1.
</event>
<event>
 6    1  0.2408691E-003  0.5020820E+03  0.7546771E-02  0.9395163E-01
        -11   -1    0    0    0    0  0.00000000000E+00  0.00000000000E+00  0.50000000000E+03  0.50000000000E+03  0.00000000000E+00 0. -1.
         11   -1    0    0    0    0 -0.00000000000E+00 -0.00000000000E+00 -0.50000000000E+03  0.50000000000E+03  0.00000000000E+00 0.  1.
        -11    1    1    2    0    0  0.12192439808E+02  0.84283866024E+01  0.34380872546E+03  0.34412807643E+03  0.00000000000E+00 0. -1.
         11    1    1    2    0    0 -0.10566334441E+02  0.19826955422E+02 -0.49741091153E+03  0.49791803592E+03  0.00000000000E+00 0.  1.
        -15    1    1    2    0    0 -0.57653560129E+01  0.13295595597E+01  0.40090104045E+02  0.40563299051E+02  0.17770000000E+01 0.  1.
         15    1    1    2    0    0  0.41392506460E+01 -0.29584901585E+02  0.11351208203E+03  0.11739058860E+03  0.17770000000E+01 0. -1.
</event>
<event>
 6    1  0.2408691E-003  0.5044939E+03  0.7546771E-02  0.9389810E-01
        -11   -1    0    0    0    0  0.00000000000E+00  0.00000000000E+00  0.50000000000E+03  0.50000000000E+03  0.00000000000E+00 0.  1.
         11   -1    0    0    0    0 -0.00000000000E+00 -0.00000000000E+00 -0.50000000000E+03  0.50000000000E+03  0.00000000000E+00 0. -1.
        -11    1    1    2    0    0 -0.18572503607E+02 -0.16051904721E+02  0.29004736838E+03  0.29108431328E+03  0.00000000000E+00 0.  1.
         11    1    1    2    0    0 -0.18501907826E+00  0.79893276524E+01 -0.49544163612E+03  0.49550608310E+03  0.00000000000E+00 0. -1.
        -15    1    1    2    0    0  0.15032081588E+02 -0.66394111985E+01  0.14745423672E+02  0.22150180727E+02  0.17770000000E+01 0. -1.
         15    1    1    2    0    0  0.37254410970E+01  0.14701988267E+02  0.19064884407E+03  0.19125942289E+03  0.17770000000E+01 0.  1.
</event>
<event>
 6    1  0.2408691E-003  0.5133667E+03  0.7546771E-02  0.9370388E-01
        -11   -1    0    0    0    0  0.00000000000E+00  0.00000000000E+00  0.50000000000E+03  0.50000000000E+03  0.00000000000E+00 0.  1.
         11   -1    0    0    0    0 -0.00000000000E+00 -0.00000000000E+00 -0.50000000000E+03  0.50000000000E+03  0.00000000000E+00 0. -1.
        -11    1    1    2    0    0 -0.17982361255E+02 -0.11246213892E+02  0.40246548250E+03  0.40302395369E+03  0.00000000000E+00 0.  1.
         11    1    1    2    0    0 -0.91436217978E+01 -0.98402692135E+01 -0.48644786129E+03  0.48663328952E+03  0.00000000000E+00 0. -1.
        -15    1    1    2    0    0  0.43970298266E+02  0.11060084886E+02  0.77156683848E+02  0.89509911176E+02  0.17770000000E+01 0.  1.
         15    1    1    2    0    0 -0.16844315213E+02  0.10026398220E+02  0.68256949405E+01  0.20832845621E+02  0.17770000000E+01 0. -1.
</event>
<event>
 6    1  0.2408691E-003  0.5013225E+03  0.7546771E-02  0.9396855E-01
        -11   -1    0    0    0    0  0.00000000000E+00  0.00000000000E+00  0.50000000000E+03  0.50000000000E+03  0.00000000000E+00 0.  1.
         11   -1    0    0    0    0 -0.00000000000E+00 -0.00000000000E+00 -0.50000000000E+03  0.50000000000E+03  0.00000000000E+00 0.  1.
        -11    1    1    2    0    0 -0.95669356370E+01 -0.14453559343E+01  0.43315758868E+03  0.43326563670E+03  0.00000000000E+00 0.  1.
         11    1    1    2    0    0  0.12997166809E+02  0.50607031057E+01 -0.49848244104E+03  0.49867753217E+03  0.00000000000E+00 0.  1.
        -15    1    1    2    0    0 -0.70803420813E+01  0.40264854162E+01  0.47691659895E+02  0.48414832246E+02  0.17770000000E+01 0.  1.
         15    1    1    2    0    0  0.36501109089E+01 -0.76418325876E+01  0.17633192462E+02  0.19641998889E+02  0.17770000000E+01 0. -1.
</event>
<event>
 6    1  0.2408691E-003  0.5057510E+03  0.7546771E-02  0.9387032E-01
        -11   -1    0    0    0    0  0.00000000000E+00  0.00000000000E+00  0.50000000000E+03  0.50000000000E+03  0.00000000000E+00 0. -1.
         11   -1    0    0    0    0 -0.00000000000E+00 -0.00000000000E+00 -0.50000000000E+03  0.50000000000E+03  0.00000000000E+00 0.  1.
        -11    1    1    2    0    0  0.17616916564E+02 -0.59337203584E+01  0.44116062334E+03  0.44155210381E+03  0.00000000000E+00 0. -1.
         11    1    1    2    0    0 -0.46823798503E+01  0.59556603477E+01 -0.49419089846E+03  0.49424896428E+03  0.00000000000E+00 0.  1.
        -15    1    1    2    0    0 -0.87655069454E+01  0.12895114475E+02  0.90021576888E+01  0.18091839635E+02  0.17770000000E+01 0.  1.
         15    1    1    2    0    0 -0.41690297688E+01 -0.12917054464E+02  0.44028117426E+02  0.46107092278E+02  0.17770000000E+01 0. -1.
</event>
<event>
 6    1  0.2408691E-003  0.5052818E+03  0.7546771E-02  0.9388068E-01
        -11   -1    0    0    0    0  0.00000000000E+00  0.00000000000E+00  0.50000000000E+03  0.50000000000E+03  0.00000000000E+00 0. -1.
         11   -1    0    0    0    0 -0.00000000000E+00 -0.00000000000E+00 -0.50000000000E+03  0.50000000000E+03  0.00000000000E+00 0.  1.
        -11    1    1    2    0    0 -0.73419614948E+01 -0.13875838649E+01  0.73745435411E+02  0.74122999343E+02  0.00000000000E+00 0. -1.
         11    1    1    2    0    0 -0.83176413802E+01  0.19583069655E+01 -0.49464436801E+03  0.49471817121E+03  0.00000000000E+00 0.  1.
        -15    1    1    2    0    0  0.50969378880E+02  0.20500656688E+01  0.32364042299E+03  0.32764059802E+03  0.17770000000E+01 0.  1.
         15    1    1    2    0    0 -0.35309776005E+02 -0.26207887693E+01  0.97258509611E+02  0.10351823142E+03  0.17770000000E+01 0. -1.
</event>
<event>
 6    1  0.2408691E-003  0.5008448E+03  0.7546771E-02  0.9397921E-01
        -11   -1    0    0    0    0  0.00000000000E+00  0.00000000000E+00  0.50000000000E+03  0.50000000000E+03  0.00000000000E+00 0. -1.
         11   -1    0    0    0    0 -0.00000000000E+00 -0.00000000000E+00 -0.50000000000E+03  0.50000000000E+03  0.00000000000E+00 0.  1.
        -11    1    1    2    0    0  0.33904841225E+01 -0.59131930640E+01  0.49910862476E+03  0.49915516680E+03  0.00000000000E+00 0. -1.
         11    1    1    2    0    0  0.36448585551E+01 -0.31527765881E+01 -0.32918643145E+03  0.32922170591E+03  0.00000000000E+00 0.  1.
        -15    1    1    2    0    0 -0.10243350714E+01 -0.21579260926E+01 -0.12110546592E+03  0.12114205510E+03  0.17770000000E+01 0. -1.
         15    1    1    2    0    0 -0.60110076062E+01  0.11223895745E+02 -0.48816727387E+02  0.50481072194E+02  0.17770000000E+01 0.  1.
</event>
<event>
 6    1  0.2408691E-003  0.5219884E+03  0.7546771E-02  0.9351910E-01
        -11   -1    0    0    0    0  0.00000000000E+00  0.00000000000E+00  0.50000000000E+03  0.50000000000E+03  0.00000000000E+00 0.  1.
         11   -1    0    0    0    0 -0.00000000000E+00 -0.00000000000E+00 -0.50000000000E+03  0.50000000000E+03  0.00000000000E+00 0.  1.
        -11    1    1    2    0    0  0.16512774272E+02  0.12062931462E+01  0.37305803790E+03  0.37342526227E+03  0.00000000000E+00 0.  1.
         11    1    1    2    0    0  0.12059224083E+02  0.12981130704E+02 -0.47768308772E+03  0.47801157615E+03  0.00000000000E+00 0.  1.
        -15    1    1    2    0    0 -0.23947021089E+02 -0.18475649481E+02  0.12424087369E+03  0.12788182775E+03  0.17770000000E+01 0. -1.
         15    1    1    2    0    0 -0.46249772655E+01  0.42882256310E+01 -0.19615823871E+02  0.20681333828E+02  0.17770000000E+01 0.  1.
</event>
<event>
 6    1  0.2408691E-003  0.5072195E+03  0.7546771E-02  0.9383799E-01
        -11   -1    0    0    0    0  0.00000000000E+00  0.00000000000E+00  0.50000000000E+03  0.50000000000E+03  0.00000000000E+00 0.  1.
         11   -1    0    0    0    0 -0.00000000000E+00 -0.00000000000E+00 -0.50000000000E+03  0.50000000000E+03  0.00000000000E+00 0.  1.
        -11    1    1    2    0    0 -0.43375817523E+02  0.27048393670E+01  0.49086035262E+03  0.49278054292E+03  0.00000000000E+00 0.  1.
         11    1    1    2    0    0  0.59715512346E+01 -0.21130555160E+01 -0.26972655240E+03  0.26980092198E+03  0.00000000000E+00 0.  1.
        -15    1    1    2    0    0 -0.70118975339E+01  0.20994789558E+02 -0.18670619708E+02  0.29012026212E+02  0.17770000000E+01 0.  1.
         15    1    1    2    0    0  0.44416163823E+02 -0.21586573409E+02 -0.20246318051E+03  0.20840650890E+03  0.17770000000E+01 0. -1.
</event>
<event>
 6    1  0.2408691E-003  0.5001560E+03  0.7546771E-02  0.9399461E-01
        -11   -1    0    0    0    0  0.00000000000E+00  0.00000000000E+00  0.50000000000E+03  0.50000000000E+03  0.00000000000E+00 0. -1.
         11   -1    0    0    0    0 -0.00000000000E+00 -0.00000000000E+00 -0.50000000000E+03  0.50000000000E+03  0.00000000000E+00 0.  1.
        -11    1    1    2    0    0  0.16796203134E+01  0.37579094079E+01  0.30182142671E+03  0.30184949334E+03  0.00000000000E+00 0. -1.
         11    1    1    2    0    0 -0.29465519537E+01 -0.64698736248E+01 -0.49979348425E+03  0.49984404401E+03  0.00000000000E+00 0.  1.
        -15    1    1    2    0    0  0.15688643830E+01  0.46100544240E+01  0.42863269092E+02  0.43175589208E+02  0.17770000000E+01 0.  1.
         15    1    1    2    0    0 -0.30193274278E+00 -0.18980902071E+01  0.15510878845E+03  0.15513087343E+03  0.17770000000E+01 0. -1.
</event>
<event>
 6    1  0.2408691E-003  0.5123787E+03  0.7546771E-02  0.9372530E-01
        -11   -1    0    0    0    0  0.00000000000E+00  0.00000000000E+00  0.50000000000E+03  0.50000000000E+03  0.00000000000E+00 0. -1.
         11   -1    0    0    0    0 -0.00000000000E+00 -0.00000000000E+00 -0.50000000000E+03  0.50000000000E+03  0.00000000000E+00 0. -1.
        -11    1    1    2    0    0 -0.15819352853E+02 -0.13324671598E+02  0.48718240850E+03  0.48762126487E+03  0.00000000000E+00 0. -1.
         11    1    1    2    0    0 -0.48038978857E+01  0.46383347832E+01 -0.40651847061E+03  0.40657331262E+03  0.00000000000E+00 0. -1.
        -15    1    1    2    0    0  0.17343264422E+02  0.93267570821E+01  0.47281072283E+01  0.20329533822E+02  0.17770000000E+01 0. -1.
         15    1    1    2    0    0  0.32799863167E+01 -0.64042026704E+00 -0.85392045118E+02  0.85475888687E+02  0.17770000000E+01 0.  1.
</event>
<event>
 6    1  0.2408691E-003  0.5057458E+03  0.7546771E-02  0.9387044E-01
        -11   -1    0    0    0    0  0.00000000000E+00  0.00000000000E+00  0.50000000000E+03  0.50000000000E+03  0.00000000000E+00 0. -1.
         11   -1    0    0    0    0 -0.00000000000E+00 -0.00000000000E+00 -0.50000000000E+03  0.50000000000E+03  0.00000000000E+00 0. -1.
        -11    1    1    2    0    0  0.90391894692E+01  0.21414127932E+01  0.49416691826E+03  0.49425422173E+03  0.00000000000E+00 0. -1.
         11    1    1    2    0    0 -0.21197217956E+01  0.18898280289E+02 -0.45967689721E+03  0.46007009036E+03  0.00000000000E+00 0. -1.
        -15    1    1    2    0    0 -0.51272676693E+01 -0.54709789688E+01  0.49109683379E-01  0.77058825186E+01  0.17770000000E+01 0.  1.
         15    1    1    2    0    0 -0.17922000043E+01 -0.15568714113E+02 -0.34539130737E+02  0.37969805386E+02  0.17770000000E+01 0. -1.
</event>
<event>
 6    1  0.2408691E-003  0.5005694E+03  0.7546771E-02  0.9398537E-01
        -11   -1    0    0    0    0  0.00000000000E+00  0.00000000000E+00  0.50000000000E+03  0.50000000000E+03  0.00000000000E+00 0.  1.
         11   -1    0    0    0    0 -0.00000000000E+00 -0.00000000000E+00 -0.50000000000E+03  0.50000000000E+03  0.00000000000E+00 0. -1.
        -11    1    1    2    0    0  0.24113803194E+01 -0.42025580538E+01  0.34554146647E+03  0.34557543503E+03  0.00000000000E+00 0.  1.
         11    1    1    2    0    0  0.11252675141E+02 -0.19834652141E+01 -0.49929989578E+03  0.49943061856E+03  0.00000000000E+00 0. -1.
        -15    1    1    2    0    0 -0.82355426734E+01  0.64293008350E+01  0.13417922455E+03  0.13459711030E+03  0.17770000000E+01 0. -1.
         15    1    1    2    0    0 -0.54285127869E+01 -0.24327756706E+00  0.19579204757E+02  0.20396836101E+02  0.17770000000E+01 0.  1.
</event>
<event>
 6    1  0.2408691E-003  0.4904268E+03  0.7546771E-02  0.9421489E-01
        -11   -1    0    0    0    0  0.00000000000E+00  0.00000000000E+00  0.50000000000E+03  0.50000000000E+03  0.00000000000E+00 0. -1.
         11   -1    0    0    0    0 -0.00000000000E+00 -0.00000000000E+00 -0.50000000000E+03  0.50000000000E+03  0.00000000000E+00 0.  1.
        -11    1    1    2    0    0 -0.70159731234E+01 -0.12147963832E+01  0.49234447429E+03  0.49239595954E+03  0.00000000000E+00 0. -1.
         11    1    1    2    0    0 -0.75121872997E+01  0.22756245106E+01 -0.48851020818E+03  0.48857326464E+03  0.00000000000E+00 0.  1.
        -15    1    1    2    0    0  0.67891070679E+00  0.26304919154E+01  0.15754888841E+01  0.36083655149E+01  0.17770000000E+01 0.  1.
         15    1    1    2    0    0  0.13849249716E+02 -0.36913200427E+01 -0.54097549938E+01  0.15422410300E+02  0.17770000000E+01 0. -1.
</event>
<event>
 6    1  0.2408691E-003  0.5074448E+03  0.7546771E-02  0.9383304E-01
        -11   -1    0    0    0    0  0.00000000000E+00  0.00000000000E+00  0.50000000000E+03  0.50000000000E+03  0.00000000000E+00 0.  1.
         11   -1    0    0    0    0 -0.00000000000E+00 -0.00000000000E+00 -0.50000000000E+03  0.50000000000E+03  0.00000000000E+00 0.  1.
        -11    1    1    2    0    0  0.72534578795E+00 -0.88686590552E+01  0.45342067314E+03  0.45350797796E+03  0.00000000000E+00 0.  1.
         11    1    1    2    0    0 -0.25504242607E+01 -0.11276519332E+02 -0.49241951473E+03  0.49255521826E+03  0.00000000000E+00 0.  1.
        -15    1    1    2    0    0 -0.10450335314E+01  0.35339014087E+01  0.36587279658E+02  0.36815313608E+02  0.17770000000E+01 0.  1.
         15    1    1    2    0    0  0.28701120041E+01  0.16611276978E+02  0.24115619249E+01  0.17121490171E+02  0.17770000000E+01 0. -1.
</event>
<event>
 6    1  0.2408691E-003  0.5015868E+03  0.7546771E-02  0.9396266E-01
        -11   -1    0    0    0    0  0.00000000000E+00  0.00000000000E+00  0.50000000000E+03  0.50000000000E+03  0.00000000000E+00 0. -1.
         11   -1    0    0    0    0 -0.00000000000E+00 -0.00000000000E+00 -0.50000000000E+03  0.50000000000E+03  0.00000000000E+00 0. -1.
        -11    1    1    2    0    0  0.33601918376E+01 -0.17787069968E+01  0.24880681706E+03  0.24883586338E+03  0.00000000000E+00 0. -1.
         11    1    1    2    0    0  0.78747646803E+01  0.78003094013E+01 -0.49828994833E+03  0.49841321145E+03  0.00000000000E+00 0. -1.
        -15    1    1    2    0    0 -0.16694763751E+02 -0.18776253267E+02  0.18902979370E+03  0.19070050724E+03  0.17770000000E+01 0. -1.
         15    1    1    2    0    0  0.54598072329E+01  0.12754650863E+02  0.60453337567E+02  0.62050417933E+02  0.17770000000E+01 0.  1.
</event>
<event>
 6    1  0.2408691E-003  0.5076362E+03  0.7546771E-02  0.9382883E-01
        -11   -1    0    0    0    0  0.00000000000E+00  0.00000000000E+00  0.50000000000E+03  0.50000000000E+03  0.00000000000E+00 0. -1.
         11   -1    0    0    0    0 -0.00000000000E+00 -0.00000000000E+00 -0.50000000000E+03  0.50000000000E+03  0.00000000000E+00 0.  1.
        -11    1    1    2    0    0  0.58374296647E+01 -0.15560430004E+02  0.46423402669E+03  0.46453141347E+03  0.00000000000E+00 0. -1.
         11    1    1    2    0    0 -0.12956247043E+02 -0.80712085350E+01 -0.49212713371E+03  0.49236381313E+03  0.00000000000E+00 0.  1.
        -15    1    1    2    0    0  0.68100429551E+01  0.96010532768E+00  0.15852063391E+02  0.17370783806E+02  0.17770000000E+01 0.  1.
         15    1    1    2    0    0  0.30877442355E+00  0.22671533212E+02  0.12041043629E+02  0.25733989596E+02  0.17770000000E+01 0. -1.
</event>
<event>
 6    1  0.2408691E-003  0.5181432E+03  0.7546771E-02  0.9360104E-01
        -11   -1    0    0    0    0  0.00000000000E+00  0.00000000000E+00  0.50000000000E+03  0.50000000000E+03  0.00000000000E+00 0.  1.
         11   -1    0    0    0    0 -0.00000000000E+00 -0.00000000000E+00 -0.50000000000E+03  0.50000000000E+03  0.00000000000E+00 0.  1.
        -11    1    1    2    0    0  0.20081355004E+02 -0.23713616887E+01  0.48143230954E+03  0.48185677628E+03  0.00000000000E+00 0.  1.
         11    1    1    2    0    0 -0.92905482942E+01 -0.58812518161E+01 -0.47237669895E+03  0.47250465513E+03  0.00000000000E+00 0.  1.
        -15    1    1    2    0    0  0.42094535152E+01 -0.26420257769E+01  0.14603810439E+02  0.15528322750E+02  0.17770000000E+01 0.  1.
         15    1    1    2    0    0 -0.15000260225E+02  0.10894639282E+02 -0.23659421034E+02  0.30110245841E+02  0.17770000000E+01 0. -1.
</event>
<event>
 6    1  0.2408691E-003  0.4886819E+03  0.7546771E-02  0.9425497E-01
        -11   -1    0    0    0    0  0.00000000000E+00  0.00000000000E+00  0.50000000000E+03  0.50000000000E+03  0.00000000000E+00 0. -1.
         11   -1    0    0    0    0 -0.00000000000E+00 -0.00000000000E+00 -0.50000000000E+03  0.50000000000E+03  0.00000000000E+00 0.  1.
        -11    1    1    2    0    0  0.38906111051E+00  0.14066677604E+02  0.48723973008E+03  0.48744289651E+03  0.00000000000E+00 0. -1.
         11    1    1    2    0    0  0.29690806674E+01 -0.72901353129E+01 -0.48989053566E+03  0.48995377174E+03  0.00000000000E+00 0.  1.
        -15    1    1    2    0    0 -0.51204577854E+01 -0.10985040443E+02  0.85489545344E+01  0.14937622103E+02  0.17770000000E+01 0. -1.
         15    1    1    2    0    0  0.17623160074E+01  0.42084981518E+01 -0.58981489513E+01  0.76657096512E+01  0.17770000000E+01 0. -1.
</event>
<event>
 6    1  0.2408691E-003  0.4637837E+03  0.7546771E-02  0.9484705E-01
        -11   -1    0    0    0    0  0.00000000000E+00  0.00000000000E+00  0.50000000000E+03  0.50000000000E+03  0.00000000000E+00 0.  1.
         11   -1    0    0    0    0 -0.00000000000E+00 -0.00000000000E+00 -0.50000000000E+03  0.50000000000E+03  0.00000000000E+00 0.  1.
        -11    1    1    2    0    0 -0.14696312649E+02  0.22536318889E+01  0.47382405096E+03  0.47405726630E+03  0.00000000000E+00 0.  1.
         11    1    1    2    0    0 -0.15245120430E+02 -0.13432280635E+02 -0.45382148373E+03  0.45427610431E+03  0.00000000000E+00 0.  1.
        -15    1    1    2    0    0  0.81479790998E+01  0.28069357461E+02  0.99407821892E+01  0.30923377423E+02  0.17770000000E+01 0. -1.
         15    1    1    2    0    0  0.21793453979E+02 -0.16890708715E+02 -0.29943349421E+02  0.40743251966E+02  0.17770000000E+01 0.  1.
</event>
<event>
 6    1  0.2408691E-003  0.5337628E+03  0.7546771E-02  0.9327279E-01
        -11   -1    0    0    0    0  0.00000000000E+00  0.00000000000E+00  0.50000000000E+03  0.50000000000E+03  0.00000000000E+00 0. -1.
         11   -1    0    0    0    0 -0.00000000000E+00 -0.00000000000E+00 -0.50000000000E+03  0.50000000000E+03  0.00000000000E+00 0. -1.
        -11    1    1    2    0    0 -0.51369593361E+01 -0.26456988239E+02  0.46545761049E+03  0.46623722261E+03  0.00000000000E+00 0. -1.
         11    1    1    2    0    0 -0.93603371825E+01 -0.27305407301E+01 -0.40782706828E+03  0.40794361055E+03  0.00000000000E+00 0. -1.
        -15    1    1    2    0    0 -0.22974588258E+02  0.38471355661E+01  0.23358382277E+02  0.33036402789E+02  0.17770000000E+01 0.  1.
         15    1    1    2    0    0  0.37471884777E+02  0.25340393403E+02 -0.80988924489E+02  0.92782764054E+02  0.17770000000E+01 0. -1.
</event>
<event>
 6    1  0.2408691E-003  0.5470766E+03  0.7546771E-02  0.9300226E-01
        -11   -1    0    0    0    0  0.00000000000E+00  0.00000000000E+00  0.50000000000E+03  0.50000000000E+03  0.00000000000E+00 0.  1.
         11   -1    0    0    0    0 -0.00000000000E+00 -0.00000000000E+00 -0.50000000000E+03  0.50000000000E+03  0.00000000000E+00 0. -1.
        -11    1    1    2    0    0 -0.61773236883E+01 -0.74035981092E+01  0.45282077837E+03  0.45292342611E+03  0.00000000000E+00 0.  1.
         11    1    1    2    0    0  0.40320940368E+00  0.13186768528E+02 -0.40594799308E+03  0.40616231549E+03  0.00000000000E+00 0. -1.
        -15    1    1    2    0    0 -0.82023102838E+01 -0.16730531934E+02 -0.91215729172E+02  0.93116355009E+02  0.17770000000E+01 0. -1.
         15    1    1    2    0    0  0.13976424568E+02  0.10947361515E+02  0.44342943877E+02  0.47797903391E+02  0.17770000000E+01 0.  1.
</event>
<event>
 6    1  0.2408691E-003  0.5003061E+03  0.7546771E-02  0.9399125E-01
        -11   -1    0    0    0    0  0.00000000000E+00  0.00000000000E+00  0.50000000000E+03  0.50000000000E+03  0.00000000000E+00 0. -1.
         11   -1    0    0    0    0 -0.00000000000E+00 -0.00000000000E+00 -0.50000000000E+03  0.50000000000E+03  0.00000000000E+00 0. -1.
        -11    1    1    2    0    0  0.37365463224E+01 -0.53428464249E+01  0.25187492368E+03  0.25195929228E+03  0.00000000000E+00 0. -1.
         11    1    1    2    0    0 -0.76940229142E+01  0.57775525412E+00 -0.49963429220E+03  0.49969386401E+03  0.00000000000E+00 0. -1.
        -15    1    1    2    0    0 -0.44578631885E+00  0.86065339943E+01  0.20069790879E+03  0.20089071525E+03  0.17770000000E+01 0. -1.
         15    1    1    2    0    0  0.44032629106E+01 -0.38414428235E+01  0.47061459725E+02  0.47456128452E+02  0.17770000000E+01 0.  1.
</event>
<event>
 6    1  0.2408691E-003  0.5088051E+03  0.7546771E-02  0.9380320E-01
        -11   -1    0    0    0    0  0.00000000000E+00  0.00000000000E+00  0.50000000000E+03  0.50000000000E+03  0.00000000000E+00 0.  1.
         11   -1    0    0    0    0 -0.00000000000E+00 -0.00000000000E+00 -0.50000000000E+03  0.50000000000E+03  0.00000000000E+00 0. -1.
        -11    1    1    2    0    0  0.12849098985E+02  0.25457248579E+02  0.49036647960E+03  0.49119492583E+03  0.00000000000E+00 0.  1.
         11    1    1    2    0    0  0.96701600249E+01 -0.24262497632E+01 -0.44484593196E+03  0.44495764053E+03  0.00000000000E+00 0. -1.
        -15    1    1    2    0    0 -0.13636282009E+02 -0.22365575261E+02 -0.11549603918E+02  0.28683065098E+02  0.17770000000E+01 0.  1.
         15    1    1    2    0    0 -0.88829770007E+01 -0.66542355513E+00 -0.33970943717E+02  0.35164368542E+02  0.17770000000E+01 0.  1.
</event>
<event>
 6    1  0.2408691E-003  0.5225139E+03  0.7546771E-02  0.9350796E-01
        -11   -1    0    0    0    0  0.00000000000E+00  0.00000000000E+00  0.50000000000E+03  0.50000000000E+03  0.00000000000E+00 0.  1.
         11   -1    0    0    0    0 -0.00000000000E+00 -0.00000000000E+00 -0.50000000000E+03  0.50000000000E+03  0.00000000000E+00 0. -1.
        -11    1    1    2    0    0  0.74888639757E+01  0.90869020217E+01  0.47734092063E+03  0.47748613528E+03  0.00000000000E+00 0.  1.
         11    1    1    2    0    0  0.40685433132E+01 -0.72713774175E+01 -0.30903928195E+03  0.30915158703E+03  0.00000000000E+00 0. -1.
        -15    1    1    2    0    0 -0.24117702387E+02 -0.19876835394E+02 -0.18376577098E+03  0.18641289780E+03  0.17770000000E+01 0. -1.
         15    1    1    2    0    0  0.12560295098E+02  0.18061310790E+02  0.15464132289E+02  0.26949379897E+02  0.17770000000E+01 0.  1.
</event>
<event>
 6    1  0.2408691E-003  0.5029973E+03  0.7546771E-02  0.9393128E-01
        -11   -1    0    0    0    0  0.00000000000E+00  0.00000000000E+00  0.50000000000E+03  0.50000000000E+03  0.00000000000E+00 0. -1.
         11   -1    0    0    0    0 -0.00000000000E+00 -0.00000000000E+00 -0.50000000000E+03  0.50000000000E+03  0.00000000000E+00 0. -1.
        -11    1    1    2    0    0  0.81690737044E+01 -0.23424618968E+01  0.35040423580E+03  0.35050727433E+03  0.00000000000E+00 0. -1.
         11    1    1    2    0    0 -0.72836626609E+01  0.45760993804E+01 -0.49692822356E+03  0.49700266780E+03  0.00000000000E+00 0. -1.
        -15    1    1    2    0    0  0.52218401222E+01  0.26342380269E+00  0.14547159327E+03  0.14557636890E+03  0.17770000000E+01 0.  1.
         15    1    1    2    0    0 -0.61072511657E+01 -0.24970612862E+01  0.10523944944E+01  0.69136889603E+01  0.17770000000E+01 0. -1.
</event>
<event>
 6    1  0.2408691E-003  0.5115271E+03  0.7546771E-02  0.9374380E-01
        -11   -1    0    0    0    0  0.00000000000E+00  0.00000000000E+00  0.50000000000E+03  0.50000000000E+03  0.00000000000E+00 0.  1.
         11   -1    0    0    0    0 -0.00000000000E+00 -0.00000000000E+00 -0.50000000000E+03  0.50000000000E+03  0.00000000000E+00 0. -1.
        -11    1    1    2    0    0 -0.49581655591E+01  0.91756787805E+01  0.47610741293E+03  0.47622163446E+03  0.00000000000E+00 0.  1.
         11    1    1    2    0    0 -0.26311067613E+01 -0.13302293609E+02 -0.48828462102E+03  0.48847287014E+03  0.00000000000E+00 0. -1.
        -15    1    1    2    0    0  0.38931120354E+01 -0.53007972694E+01  0.20800020037E+02  0.21887287076E+02  0.17770000000E+01 0. -1.
         15    1    1    2    0    0  0.36961602851E+01  0.94274120977E+01 -0.86228119387E+01  0.13418208317E+02  0.17770000000E+01 0.  1.
</event>
<event>
 6    1  0.2408691E-003  0.5004179E+03  0.7546771E-02  0.9398875E-01
        -11   -1    0    0    0    0  0.00000000000E+00  0.00000000000E+00  0.50000000000E+03  0.50000000000E+03  0.00000000000E+00 0.  1.
         11   -1    0    0    0    0 -0.00000000000E+00 -0.00000000000E+00 -0.50000000000E+03  0.50000000000E+03  0.00000000000E+00 0. -1.
        -11    1    1    2    0    0  0.82118115217E-01  0.10036205915E+02  0.49948131373E+03  0.49958214033E+03  0.00000000000E+00 0.  1.
         11    1    1    2    0    0 -0.12719861683E+01  0.26689311454E+01 -0.24404266032E+02  0.24582704140E+02  0.00000000000E+00 0. -1.
        -15    1    1    2    0    0  0.10170648768E+02 -0.81451158259E+01 -0.37636168634E+03  0.37659137229E+03  0.17770000000E+01 0.  1.
         15    1    1    2    0    0 -0.89807807149E+01 -0.45600212349E+01 -0.98715361352E+02  0.99243783240E+02  0.17770000000E+01 0. -1.
</event>
<event>
 6    1  0.2408691E-003  0.5013454E+03  0.7546771E-02  0.9396804E-01
        -11   -1    0    0    0    0  0.00000000000E+00  0.00000000000E+00  0.50000000000E+03  0.50000000000E+03  0.00000000000E+00 0. -1.
         11   -1    0    0    0    0 -0.00000000000E+00 -0.00000000000E+00 -0.50000000000E+03  0.50000000000E+03  0.00000000000E+00 0.  1.
        -11    1    1    2    0    0  0.65428828330E+01 -0.89995745601E+00  0.44871429776E+03  0.44876289982E+03  0.00000000000E+00 0. -1.
         11    1    1    2    0    0 -0.45946662168E+00 -0.85182344518E+01 -0.49858162592E+03  0.49865459903E+03  0.00000000000E+00 0.  1.
        -15    1    1    2    0    0 -0.67172223151E+01  0.38665028699E+01  0.42133134168E+02  0.42876912714E+02  0.17770000000E+01 0. -1.
         15    1    1    2    0    0  0.63380610376E+00  0.55516890380E+01  0.77341939918E+01  0.97055884445E+01  0.17770000000E+01 0.  1.
</event>
<event>
 6    1  0.2408691E-003  0.5001341E+03  0.7546771E-02  0.9399510E-01
        -11   -1    0    0    0    0  0.00000000000E+00  0.00000000000E+00  0.50000000000E+03  0.50000000000E+03  0.00000000000E+00 0.  1.
         11   -1    0    0    0    0 -0.00000000000E+00 -0.00000000000E+00 -0.50000000000E+03  0.50000000000E+03  0.00000000000E+00 0. -1.
        -11    1    1    2    0    0  0.25069431931E+01 -0.23485683523E+01  0.82202140121E+02  0.82273886367E+02  0.00000000000E+00 0.  1.
         11    1    1    2    0    0 -0.68722032855E+01 -0.86848983125E+01 -0.49974318356E+03  0.49986588617E+03  0.00000000000E+00 0. -1.
        -15    1    1    2    0    0 -0.28659099098E+01  0.50378341332E+01  0.22538677285E+03  0.22546828672E+03  0.17770000000E+01 0. -1.
         15    1    1    2    0    0  0.72311700021E+01  0.59956325316E+01  0.19215427059E+03  0.19239194075E+03  0.17770000000E+01 0.  1.
</event>
<event>
 6    1  0.2408691E-003  0.5047688E+03  0.7546771E-02  0.9389202E-01
        -11   -1    0    0    0    0  0.00000000000E+00  0.00000000000E+00  0.50000000000E+03  0.50000000000E+03  0.00000000000E+00 0. -1.
         11   -1    0    0    0    0 -0.00000000000E+00 -0.00000000000E+00 -0.50000000000E+03  0.50000000000E+03  0.00000000000E+00 0.  1.
        -11    1    1    2    0    0 -0.45062794124E+01 -0.21412220183E+02  0.31875385557E+03  0.31950400650E+03  0.00000000000E+00 0. -1.
         11    1    1    2    0    0 -0.21614299597E+02 -0.17550581536E+02 -0.49444788384E+03  0.49523116895E+03  0.00000000000E+00 0.  1.
        -15    1    1    2    0    0  0.10738260176E+02  0.38732286257E+00  0.82564998843E+02  0.83280231829E+02  0.17770000000E+01 0. -1.
         15    1    1    2    0    0  0.15382318834E+02  0.38575478857E+02  0.93129029431E+02  0.10198459273E+03  0.17770000000E+01 0.  1.
</event>
<event>
 6    1  0.2408691E-003  0.5087331E+03  0.7546771E-02  0.9380478E-01
        -11   -1    0    0    0    0  0.00000000000E+00  0.00000000000E+00  0.50000000000E+03  0.50000000000E+03  0.00000000000E+00 0.  1.
         11   -1    0    0    0    0 -0.00000000000E+00 -0.00000000000E+00 -0.50000000000E+03  0.50000000000E+03  0.00000000000E+00 0.  1.
        -11    1    1    2    0    0 -0.12207186646E+02 -0.15974316529E+02  0.49085539011E+03  0.49126694189E+03  0.00000000000E+00 0.  1.
         11    1    1    2    0    0  0.16424665500E+01 -0.18781577110E+01 -0.16467555911E+03  0.16469445935E+03  0.00000000000E+00 0.  1.
        -15    1    1    2    0    0  0.12117527587E+02  0.20688616647E+02 -0.33427700570E+03  0.33514045951E+03  0.17770000000E+01 0. -1.
         15    1    1    2    0    0 -0.15528074917E+01 -0.28361424074E+01  0.80971747009E+01  0.88981392436E+01  0.17770000000E+01 0.  1.
</event>
<event>
 6    1  0.2408691E-003  0.5012570E+03  0.7546771E-02  0.9397002E-01
        -11   -1    0    0    0    0  0.00000000000E+00  0.00000000000E+00  0.50000000000E+03  0.50000000000E+03  0.00000000000E+00 0.  1.
         11   -1    0    0    0    0 -0.00000000000E+00 -0.00000000000E+00 -0.50000000000E+03  0.50000000000E+03  0.00000000000E+00 0. -1.
        -11    1    1    2    0    0  0.10969466065E+02 -0.23527990227E+00  0.49862232762E+03  0.49874303017E+03  0.00000000000E+00 0.  1.
         11    1    1    2    0    0  0.34622545290E+01 -0.15007572951E+01 -0.10377592657E+03  0.10384451076E+03  0.00000000000E+00 0. -1.
        -15    1    1    2    0    0  0.27400738907E+01 -0.52579120665E+01 -0.32691809385E+03  0.32697668336E+03  0.17770000000E+01 0.  1.
         15    1    1    2    0    0 -0.17171794484E+02  0.69939492639E+01 -0.67928307197E+02  0.70435775709E+02  0.17770000000E+01 0. -1.
</event>
<event>
 6    1  0.2408691E-003  0.5427656E+03  0.7546771E-02  0.9308896E-01
        -11   -1    0    0    0    0  0.00000000000E+00  0.00000000000E+00  0.50000000000E+03  0.50000000000E+03  0.00000000000E+00 0. -1.
         11   -1    0    0    0    0 -0.00000000000E+00 -0.00000000000E+00 -0.50000000000E+03  0.50000000000E+03  0.00000000000E+00 0. -1.
        -11    1    1    2    0    0 -0.30187613764E+02  0.47408869274E+01  0.37145471288E+03  0.37270950049E+03  0.00000000000E+00 0. -1.
         11    1    1    2    0    0  0.31816963823E+02  0.20605011497E+02 -0.45566042287E+03  0.45723441105E+03  0.00000000000E+00 0. -1.
        -15    1    1    2    0    0 -0.73955886319E+01  0.19370489432E+02  0.11406600493E+03  0.11594878956E+03  0.17770000000E+01 0. -1.
         15    1    1    2    0    0  0.57662385726E+01 -0.44716387857E+02 -0.29860294943E+02  0.54107298892E+02  0.17770000000E+01 0.  1.
</event>
<event>
 6    1  0.2408691E-003  0.5131191E+03  0.7546771E-02  0.9370924E-01
        -11   -1    0    0    0    0  0.00000000000E+00  0.00000000000E+00  0.50000000000E+03  0.50000000000E+03  0.00000000000E+00 0. -1.
         11   -1    0    0    0    0 -0.00000000000E+00 -0.00000000000E+00 -0.50000000000E+03  0.50000000000E+03  0.00000000000E+00 0. -1.
        -11    1    1    2    0    0 -0.38890294645E+01  0.99446123837E+01  0.42311517479E+03  0.42324989191E+03  0.00000000000E+00 0. -1.
         11    1    1    2    0    0  0.59212565043E+01 -0.41651924683E+01 -0.48682702509E+03  0.48688085038E+03  0.00000000000E+00 0. -1.
        -15    1    1    2    0    0  0.15426459190E+01  0.58472500012E+01 -0.11792214051E+02  0.13371018294E+02  0.17770000000E+01 0. -1.
         15    1    1    2    0    0 -0.35748729589E+01 -0.11626669917E+02  0.75504064359E+02  0.76498239416E+02  0.17770000000E+01 0.  1.
</event>
<event>
 6    1  0.2408691E-003  0.5458787E+03  0.7546771E-02  0.9302627E-01
        -11   -1    0    0    0    0  0.00000000000E+00  0.00000000000E+00  0.50000000000E+03  0.50000000000E+03  0.00000000000E+00 0.  1.
         11   -1    0    0    0    0 -0.00000000000E+00 -0.00000000000E+00 -0.50000000000E+03  0.50000000000E+03  0.00000000000E+00 0.  1.
        -11    1    1    2    0    0 -0.11061555127E+02  0.96419665966E+00  0.45398557169E+03  0.45412133509E+03  0.00000000000E+00 0.  1.
         11    1    1    2    0    0  0.59685810938E+02 -0.57874264221E+01 -0.22307866700E+03  0.23099779653E+03  0.00000000000E+00 0.  1.
        -15    1    1    2    0    0 -0.24892973669E+02 -0.46612144796E+02  0.20841531412E+02  0.56832027424E+02  0.17770000000E+01 0. -1.
         15    1    1    2    0    0 -0.23731282142E+02  0.51435374558E+02 -0.25174843610E+03  0.25804884095E+03  0.17770000000E+01 0.  1.
</event>
<event>
 6    1  0.2408691E-003  0.5035028E+03  0.7546771E-02  0.9392006E-01
        -11   -1    0    0    0    0  0.00000000000E+00  0.00000000000E+00  0.50000000000E+03  0.50000000000E+03  0.00000000000E+00 0. -1.
         11   -1    0    0    0    0 -0.00000000000E+00 -0.00000000000E+00 -0.50000000000E+03  0.50000000000E+03  0.00000000000E+00 0. -1.
        -11    1    1    2    0    0 -0.10786747454E+02  0.36448371401E+01  0.46832476377E+03  0.46846315022E+03  0.00000000000E+00 0. -1.
         11    1    1    2    0    0  0.11022805156E+02  0.25374928560E+01 -0.49636835141E+03  0.49649721186E+03  0.00000000000E+00 0. -1.
        -15    1    1    2    0    0 -0.83823490268E+01 -0.81382436075E+01  0.11933731030E+02  0.16794834013E+02  0.17770000000E+01 0.  1.
         15    1    1    2    0    0  0.81462913249E+01  0.19559136114E+01  0.16109856615E+02  0.18244803906E+02  0.17770000000E+01 0. -1.
</event>
<event>
 6    1  0.2408691E-003  0.4878496E+03  0.7546771E-02  0.9427415E-01
        -11   -1    0    0    0    0  0.00000000000E+00  0.00000000000E+00  0.50000000000E+03  0.50000000000E+03  0.00000000000E+00 0.  1.
         11   -1    0    0    0    0 -0.00000000000E+00 -0.00000000000E+00 -0.50000000000E+03  0.50000000000E+03  0.00000000000E+00 0.  1.
        -11    1    1    2    0    0  0.62178778557E+01  0.13841744191E+02  0.48972464628E+03  0.48995967698E+03  0.00000000000E+00 0.  1.
         11    1    1    2    0    0  0.10024282729E+02 -0.11692318023E+01 -0.48585987681E+03  0.48596468312E+03  0.00000000000E+00 0.  1.
        -15    1    1    2    0    0 -0.48347616006E+01  0.14660912626E+01 -0.20412363264E+01  0.57313801187E+01  0.17770000000E+01 0. -1.
         15    1    1    2    0    0 -0.11407398984E+02 -0.14138603651E+02 -0.18235331418E+01  0.18344259781E+02  0.17770000000E+01 0.  1.
</event>
<event>
 6    1  0.2408691E-003  0.5069230E+03  0.7546771E-02  0.9384451E-01
        -11   -1    0    0    0    0  0.00000000000E+00  0.00000000000E+00  0.50000000000E+03  0.50000000000E+03  0.00000000000E+00 0. -1.
         11   -1    0    0    0    0 -0.00000000000E+00 -0.00000000000E+00 -0.50000000000E+03  0.50000000000E+03  0.00000000000E+00 0. -1.
        -11    1    1    2    0    0 -0.39350985493E+01  0.56371046366E+01  0.48427707954E+03  0.48432587347E+03  0.00000000000E+00 0. -1.
         11    1    1    2    0    0  0.82730129943E+01 -0.14805415667E+01 -0.49300533056E+03  0.49307696226E+03  0.00000000000E+00 0. -1.
        -15    1    1    2    0    0 -0.77108370243E+01  0.26988699557E+01 -0.26558342064E+01  0.87722340931E+01  0.17770000000E+01 0.  1.
         15    1    1    2    0    0  0.33729225793E+01 -0.68554330257E+01  0.11384085233E+02  0.13824930173E+02  0.17770000000E+01 0. -1.
</event>
<event>
 6    1  0.2408691E-003  0.5018150E+03  0.7546771E-02  0.9395758E-01
        -11   -1    0    0    0    0  0.00000000000E+00  0.00000000000E+00  0.50000000000E+03  0.50000000000E+03  0.00000000000E+00 0.  1.
         11   -1    0    0    0    0 -0.00000000000E+00 -0.00000000000E+00 -0.50000000000E+03  0.50000000000E+03  0.00000000000E+00 0.  1.
        -11    1    1    2    0    0 -0.57884241355E+01  0.95102871395E+00  0.43033604842E+03  0.43037602731E+03  0.00000000000E+00 0.  1.
         11    1    1    2    0    0 -0.84990092546E+01  0.42786744372E+01 -0.49809412227E+03  0.49818500063E+03  0.00000000000E+00 0.  1.
        -15    1    1    2    0    0 -0.26172714331E+01 -0.96371877732E+00  0.25166236891E+02  0.25382593877E+02  0.17770000000E+01 0.  1.
         15    1    1    2    0    0  0.16904704823E+02 -0.42659843738E+01  0.42591836955E+02  0.46056378190E+02  0.17770000000E+01 0.  1.
</event>
<event>
 6    1  0.2408691E-003  0.5095280E+03  0.7546771E-02  0.9378739E-01
        -11   -1    0    0    0    0  0.00000000000E+00  0.00000000000E+00  0.50000000000E+03  0.50000000000E+03  0.00000000000E+00 0.  1.
         11   -1    0    0    0    0 -0.00000000000E+00 -0.00000000000E+00 -0.50000000000E+03  0.50000000000E+03  0.00000000000E+00 0.  1.
        -11    1    1    2    0    0  0.24686515181E+01  0.17422427518E+02  0.47005575285E+03  0.47038499764E+03  0.00000000000E+00 0.  1.
         11    1    1    2    0    0 -0.46476313922E+01 -0.62797781706E+01 -0.49040976472E+03  0.49047199046E+03  0.00000000000E+00 0.  1.
        -15    1    1    2    0    0  0.27314375363E+01  0.55814414166E+01 -0.53708231073E+01  0.84033748668E+01  0.17770000000E+01 0. -1.
         15    1    1    2    0    0 -0.55245766230E+00 -0.16724090764E+02  0.25724834978E+02  0.30739637035E+02  0.17770000000E+01 0.  1.
</event>
<event>
 6    1  0.2408691E-003  0.5005939E+03  0.7546771E-02  0.9398482E-01
        -11   -1    0    0    0    0  0.00000000000E+00  0.00000000000E+00  0.50000000000E+03  0.50000000000E+03  0.00000000000E+00 0.  1.
         11   -1    0    0    0    0 -0.00000000000E+00 -0.00000000000E+00 -0.50000000000E+03  0.50000000000E+03  0.00000000000E+00 0. -1.
        -11    1    1    2    0    0 -0.74711987598E+01  0.38788105289E+01  0.49933512822E+03  0.49940608152E+03  0.00000000000E+00 0.  1.
         11    1    1    2    0    0 -0.38965648445E+01 -0.47613241537E+01 -0.36636226135E+03  0.36641391891E+03  0.00000000000E+00 0. -1.
        -15    1    1    2    0    0  0.70480101478E+01 -0.15600058427E+01 -0.25083606558E+02  0.26162054817E+02  0.17770000000E+01 0.  1.
         15    1    1    2    0    0  0.43197534565E+01  0.24425194675E+01 -0.10788926031E+03  0.10801794476E+03  0.17770000000E+01 0. -1.
</event>
<event>
 6    1  0.2408691E-003  0.5020973E+03  0.7546771E-02  0.9395129E-01
        -11   -1    0    0    0    0  0.00000000000E+00  0.00000000000E+00  0.50000000000E+03  0.50000000000E+03  0.00000000000E+00 0. -1.
         11   -1    0    0    0    0 -0.00000000000E+00 -0.00000000000E+00 -0.50000000000E+03  0.50000000000E+03  0.00000000000E+00 0. -1.
        -11    1    1    2    0    0 -0.28068763954E+01 -0.61549062303E+01  0.49785676569E+03  0.49790272200E+03  0.00000000000E+00 0. -1.
         11    1    1    2    0    0 -0.78032567124E+01  0.78065630542E+01 -0.42996287242E+03  0.43010452788E+03  0.00000000000E+00 0. -1.
        -15    1    1    2    0    0 -0.25396535792E+01  0.18686930993E+01 -0.46057075359E+02  0.46199066807E+02  0.17770000000E+01 0.  1.
         15    1    1    2    0    0  0.13149786687E+02 -0.35203499231E+01 -0.21836817917E+02  0.25793683321E+02  0.17770000000E+01 0. -1.
</event>
<event>
 6    1  0.2408691E-003  0.5055243E+03  0.7546771E-02  0.9387533E-01
        -11   -1    0    0    0    0  0.00000000000E+00  0.00000000000E+00  0.50000000000E+03  0.50000000000E+03  0.00000000000E+00 0.  1.
         11   -1    0    0    0    0 -0.00000000000E+00 -0.00000000000E+00 -0.50000000000E+03  0.50000000000E+03  0.00000000000E+00 0. -1.
        -11    1    1    2    0    0 -0.46638440344E+01 -0.55590677261E+01  0.49442241519E+03  0.49447566099E+03  0.00000000000E+00 0.  1.
         11    1    1    2    0    0  0.39277067978E+01  0.77174397649E+01 -0.48684041741E+03  0.48691742399E+03  0.00000000000E+00 0. -1.
        -15    1    1    2    0    0  0.48871590563E+01 -0.34616247205E+01  0.30726810493E+01  0.69617718419E+01  0.17770000000E+01 0.  1.
         15    1    1    2    0    0 -0.41510218197E+01  0.13032526817E+01 -0.10654678823E+02  0.11645143173E+02  0.17770000000E+01 0. -1.
</event>
<event>
 6    1  0.2408691E-003  0.5059863E+03  0.7546771E-02  0.9386514E-01
        -11   -1    0    0    0    0  0.00000000000E+00  0.00000000000E+00  0.50000000000E+03  0.50000000000E+03  0.00000000000E+00 0. -1.
         11   -1    0    0    0    0 -0.00000000000E+00 -0.00000000000E+00 -0.50000000000E+03  0.50000000000E+03  0.00000000000E+00 0.  1.
        -11    1    1    2    0    0  0.10663667185E+02  0.51692078153E+01  0.49387151383E+03  0.49401367054E+03  0.00000000000E+00 0. -1.
         11    1    1    2    0    0  0.60830337231E+01  0.72797633902E+01 -0.44074493337E+03  0.44084701943E+03  0.00000000000E+00 0.  1.
        -15    1    1    2    0    0 -0.83196247171E+01 -0.15982829518E+02 -0.93379849721E+01  0.20372105614E+02  0.17770000000E+01 0. -1.
         15    1    1    2    0    0 -0.84270761908E+01  0.35338583120E+01 -0.43788595484E+02  0.44767204416E+02  0.17770000000E+01 0.  1.
</event>
<event>
 6    1  0.2408691E-003  0.5207376E+03  0.7546771E-02  0.9354567E-01
        -11   -1    0    0    0    0  0.00000000000E+00  0.00000000000E+00  0.50000000000E+03  0.50000000000E+03  0.00000000000E+00 0.  1.
         11   -1    0    0    0    0 -0.00000000000E+00 -0.00000000000E+00 -0.50000000000E+03  0.50000000000E+03  0.00000000000E+00 0. -1.
        -11    1    1    2    0    0 -0.38884047993E+02  0.15489581847E+02  0.42214206623E+03  0.42421199938E+03  0.00000000000E+00 0.  1.
         11    1    1    2    0    0 -0.60702260552E+01 -0.58918399717E+01 -0.47918775813E+03  0.47926242181E+03  0.00000000000E+00 0. -1.
        -15    1    1    2    0    0  0.22278707962E+01  0.73964372753E+00 -0.13263400901E+02  0.13586243542E+02  0.17770000000E+01 0.  1.
         15    1    1    2    0    0  0.42726403252E+02 -0.10337385603E+02  0.70309092794E+02  0.82939335267E+02  0.17770000000E+01 0. -1.
</event>
<event>
 6    1  0.2408691E-003  0.5059173E+03  0.7546771E-02  0.9386666E-01
        -11   -1    0    0    0    0  0.00000000000E+00  0.00000000000E+00  0.50000000000E+03  0.50000000000E+03  0.00000000000E+00 0.  1.
         11   -1    0    0    0    0 -0.00000000000E+00 -0.00000000000E+00 -0.50000000000E+03  0.50000000000E+03  0.00000000000E+00 0. -1.
        -11    1    1    2    0    0  0.10409788316E+02  0.10328926761E+01  0.49397193415E+03  0.49408268770E+03  0.00000000000E+00 0.  1.
         11    1    1    2    0    0  0.53618939212E+01 -0.17496865156E+02 -0.44030260398E+03  0.44068273538E+03  0.00000000000E+00 0. -1.
        -15    1    1    2    0    0 -0.12317810506E+02  0.22949118241E+02 -0.27176440896E+02  0.37684309102E+02  0.17770000000E+01 0. -1.
         15    1    1    2    0    0 -0.34538717316E+01 -0.64851457609E+01 -0.26492889276E+02  0.27550267815E+02  0.17770000000E+01 0.  1.
</event>
<event>
 6    1  0.2408691E-003  0.4873266E+03  0.7546771E-02  0.9428623E-01
        -11   -1    0    0    0    0  0.00000000000E+00  0.00000000000E+00  0.50000000000E+03  0.50000000000E+03  0.00000000000E+00 0. -1.
         11   -1    0    0    0    0 -0.00000000000E+00 -0.00000000000E+00 -0.50000000000E+03  0.50000000000E+03  0.00000000000E+00 0.  1.
        -11    1    1    2    0    0 -0.95568405848E+00 -0.68333205069E-02  0.39511739214E+02  0.39523295844E+02  0.00000000000E+00 0. -1.
         11    1    1    2    0    0  0.31097577654E+02  0.17528779052E+02 -0.49086427775E+03  0.49216060041E+03  0.00000000000E+00 0.  1.
        -15    1    1    2    0    0  0.22508874031E+02 -0.31660023627E+02  0.50336752968E+02  0.63607805611E+02  0.17770000000E+01 0.  1.
         15    1    1    2    0    0 -0.52650767627E+02  0.14138077896E+02  0.40101578556E+03  0.40470829813E+03  0.17770000000E+01 0. -1.
</event>
<event>
 6    1  0.2408691E-003  0.5056852E+03  0.7546771E-02  0.9387178E-01
        -11   -1    0    0    0    0  0.00000000000E+00  0.00000000000E+00  0.50000000000E+03  0.50000000000E+03  0.00000000000E+00 0. -1.
         11   -1    0    0    0    0 -0.00000000000E+00 -0.00000000000E+00 -0.50000000000E+03  0.50000000000E+03  0.00000000000E+00 0.  1.
        -11    1    1    2    0    0  0.36087758638E+01 -0.99671790499E+01  0.40859073937E+03  0.40872822293E+03  0.00000000000E+00 0. -1.
         11    1    1    2    0    0 -0.20464212685E+02  0.42369433332E+01 -0.49387287978E+03  0.49431483598E+03  0.00000000000E+00 0.  1.
        -15    1    1    2    0    0 -0.44685302822E+01  0.53127778904E+01  0.70693446786E+02  0.71055714192E+02  0.17770000000E+01 0. -1.
         15    1    1    2    0    0  0.21323967103E+02  0.41745782631E+00  0.14588693623E+02  0.25901226895E+02  0.17770000000E+01 0.  1.
</event>
<event>
 6    1  0.2408691E-003  0.4951593E+03  0.7546771E-02  0.9410707E-01
        -11   -1    0    0    0    0  0.00000000000E+00  0.00000000000E+00  0.50000000000E+03  0.50000000000E+03  0.00000000000E+00 0. -1.
         11   -1    0    0    0    0 -0.00000000000E+00 -0.00000000000E+00 -0.50000000000E+03  0.50000000000E+03  0.00000000000E+00 0.  1.
        -11    1    1    2    0    0 -0.16899650371E+02  0.14034343412E+02  0.49701110407E+03  0.49749633019E+03  0.00000000000E+00 0. -1.
         11    1    1    2    0    0 -0.15532437726E+01  0.11383246502E-01 -0.14274830189E+02  0.14359090247E+02  0.00000000000E+00 0.  1.
        -15    1    1    2    0    0  0.20788304891E+01  0.80961145528E+01 -0.41382515713E+03  0.41391338105E+03  0.17770000000E+01 0.  1.
         15    1    1    2    0    0  0.16374063655E+02 -0.22141841211E+02 -0.68911116748E+02  0.74231198517E+02  0.17770000000E+01 0. -1.
</event>
<event>
 6    1  0.2408691E-003  0.5176620E+03  0.7546771E-02  0.9361134E-01
        -11   -1    0    0    0    0  0.00000000000E+00  0.00000000000E+00  0.50000000000E+03  0.50000000000E+03  0.00000000000E+00 0. -1.
         11   -1    0    0    0    0 -0.00000000000E+00 -0.00000000000E+00 -0.50000000000E+03  0.50000000000E+03  0.00000000000E+00 0. -1.
        -11    1    1    2    0    0 -0.40749990100E+01  0.35979216853E+02  0.44147811232E+03  0.44296053246E+03  0.00000000000E+00 0. -1.
         11    1    1    2    0    0 -0.63573770531E+01 -0.76931062155E+01 -0.48223474466E+03  0.48233800294E+03  0.00000000000E+00 0. -1.
        -15    1    1    2    0    0  0.17381607445E+02 -0.15087739874E+02 -0.74113475173E+01  0.24245535112E+02  0.17770000000E+01 0. -1.
         15    1    1    2    0    0 -0.69492313815E+01 -0.13198370764E+02  0.48167979854E+02  0.50455929481E+02  0.17770000000E+01 0.  1.
</event>
<event>
 6    1  0.2408691E-003  0.5004104E+03  0.7546771E-02  0.9398892E-01
        -11   -1    0    0    0    0  0.00000000000E+00  0.00000000000E+00  0.50000000000E+03  0.50000000000E+03  0.00000000000E+00 0. -1.
         11   -1    0    0    0    0 -0.00000000000E+00 -0.00000000000E+00 -0.50000000000E+03  0.50000000000E+03  0.00000000000E+00 0. -1.
        -11    1    1    2    0    0  0.13562481576E+01 -0.28163087290E+01  0.16680382520E+03  0.16683311153E+03  0.00000000000E+00 0. -1.
         11    1    1    2    0    0  0.54650344248E+01  0.48217782890E+01 -0.49953641053E+03  0.49958957315E+03  0.00000000000E+00 0. -1.
        -15    1    1    2    0    0 -0.51710556835E+01 -0.88934611682E+01  0.73066276316E+02  0.73808345951E+02  0.17770000000E+01 0. -1.
         15    1    1    2    0    0 -0.16502268989E+01  0.68879916082E+01  0.25966630902E+03  0.25976896937E+03  0.17770000000E+01 0. -1.
</event>
<event>
 6    1  0.2408691E-003  0.5007204E+03  0.7546771E-02  0.9398199E-01
        -11   -1    0    0    0    0  0.00000000000E+00  0.00000000000E+00  0.50000000000E+03  0.50000000000E+03  0.00000000000E+00 0.  1.
         11   -1    0    0    0    0 -0.00000000000E+00 -0.00000000000E+00 -0.50000000000E+03  0.50000000000E+03  0.00000000000E+00 0. -1.
        -11    1    1    2    0    0  0.38625461593E+01  0.60601394029E+01  0.49922783702E+03  0.49927955877E+03  0.00000000000E+00 0.  1.
         11    1    1    2    0    0  0.21454160361E+01 -0.18677091027E+01 -0.14400679765E+03  0.14403488785E+03  0.00000000000E+00 0. -1.
        -15    1    1    2    0    0 -0.74491555729E+01  0.39872202597E+01 -0.26836553512E+02  0.28191242923E+02  0.17770000000E+01 0.  1.
         15    1    1    2    0    0  0.14411933775E+01 -0.81796505599E+01 -0.32838448586E+03  0.32849431045E+03  0.17770000000E+01 0. -1.
</event>
<event>
 6    1  0.2408691E-003  0.4330672E+03  0.7546771E-02  0.9563447E-01
        -11   -1    0    0    0    0  0.00000000000E+00  0.00000000000E+00  0.50000000000E+03  0.50000000000E+03  0.00000000000E+00 0. -1.
         11   -1    0    0    0    0 -0.00000000000E+00 -0.00000000000E+00 -0.50000000000E+03  0.50000000000E+03  0.00000000000E+00 0. -1.
        -11    1    1    2    0    0  0.18851535233E+02  0.42998569451E+01  0.44196516629E+03  0.44238792633E+03  0.00000000000E+00 0. -1.
         11    1    1    2    0    0  0.29749312512E+02  0.42777315144E+02 -0.42338991196E+03  0.42658403374E+03  0.00000000000E+00 0. -1.
        -15    1    1    2    0    0 -0.39151301851E+02 -0.11125765142E+02 -0.61780997036E+02  0.74004435072E+02  0.17770000000E+01 0. -1.
         15    1    1    2    0    0 -0.94495458935E+01 -0.35951406947E+02  0.43205742715E+02  0.57023604863E+02  0.17770000000E+01 0.  1.
</event>
<event>
 6    1  0.3125941E-003  0.5002298E+03  0.7546771E-02  0.9399296E-01
        -11   -1    0    0    0    0  0.00000000000E+00  0.00000000000E+00  0.50000000000E+03  0.50000000000E+03  0.00000000000E+00 0.  1.
         11   -1    0    0    0    0 -0.00000000000E+00 -0.00000000000E+00 -0.50000000000E+03  0.50000000000E+03  0.00000000000E+00 0.  1.
        -11    1    1    2    0    0  0.10464640571E+02 -0.12970219727E+01  0.49965892498E+03  0.49977017946E+03  0.00000000000E+00 0.  1.
         11    1    1    2    0    0  0.20104785578E+01  0.68142543111E+00 -0.15234865025E+03  0.15236343917E+03  0.00000000000E+00 0.  1.
        -15    1    1    2    0    0 -0.98728313710E+01  0.38955552222E+01 -0.31992665225E+03  0.32010758926E+03  0.17770000000E+01 0.  1.
         15    1    1    2    0    0 -0.26022877575E+01 -0.32799586806E+01 -0.27383622473E+02  0.27758792108E+02  0.17770000000E+01 0. -1.
</event>
<event>
 6    1  0.2408691E-003  0.5120256E+03  0.7546771E-02  0.9373296E-01
        -11   -1    0    0    0    0  0.00000000000E+00  0.00000000000E+00  0.50000000000E+03  0.50000000000E+03  0.00000000000E+00 0. -1.
         11   -1    0    0    0    0 -0.00000000000E+00 -0.00000000000E+00 -0.50000000000E+03  0.50000000000E+03  0.00000000000E+00 0. -1.
        -11    1    1    2    0    0  0.19071008766E+02 -0.53675115524E+01  0.29782707560E+03  0.29848531039E+03  0.00000000000E+00 0. -1.
         11    1    1    2    0    0  0.73859366019E+01  0.11075012264E+02 -0.48779279048E+03  0.48797439933E+03  0.00000000000E+00 0. -1.
        -15    1    1    2    0    0  0.33686289222E+02 -0.14383430476E+02  0.67630485860E+02  0.76933019572E+02  0.17770000000E+01 0. -1.
         15    1    1    2    0    0 -0.60143234589E+02  0.86759297642E+01  0.12233522902E+03  0.13660727071E+03  0.17770000000E+01 0.  1.
</event>
<event>
 6    1  0.2408691E-003  0.5024704E+03  0.7546771E-02  0.9394299E-01
        -11   -1    0    0    0    0  0.00000000000E+00  0.00000000000E+00  0.50000000000E+03  0.50000000000E+03  0.00000000000E+00 0. -1.
         11   -1    0    0    0    0 -0.00000000000E+00 -0.00000000000E+00 -0.50000000000E+03  0.50000000000E+03  0.00000000000E+00 0.  1.
        -11    1    1    2    0    0  0.11086527430E+02 -0.18640820741E+01  0.49740255271E+03  0.49752958237E+03  0.00000000000E+00 0. -1.
         11    1    1    2    0    0 -0.12419781311E+02  0.41444284417E+01 -0.39001065769E+03  0.39023036833E+03  0.00000000000E+00 0.  1.
        -15    1    1    2    0    0 -0.10729001721E+02 -0.28935095410E+01 -0.13578462109E+02  0.17635652458E+02  0.17770000000E+01 0.  1.
         15    1    1    2    0    0  0.12062255602E+02  0.61316317352E+00 -0.93813432903E+02  0.94604396840E+02  0.17770000000E+01 0. -1.
</event>
<event>
 6    1  0.2408691E-003  0.5003977E+03  0.7546771E-02  0.9398920E-01
        -11   -1    0    0    0    0  0.00000000000E+00  0.00000000000E+00  0.50000000000E+03  0.50000000000E+03  0.00000000000E+00 0.  1.
         11   -1    0    0    0    0 -0.00000000000E+00 -0.00000000000E+00 -0.50000000000E+03  0.50000000000E+03  0.00000000000E+00 0.  1.
        -11    1    1    2    0    0 -0.73968987753E+01  0.46382430220E+00  0.38461853330E+03  0.38468993411E+03  0.00000000000E+00 0.  1.
         11    1    1    2    0    0  0.83242597426E+01  0.18856867200E+01 -0.49952942016E+03  0.49960233258E+03  0.00000000000E+00 0.  1.
        -15    1    1    2    0    0  0.26586546241E+01  0.39922585154E+01  0.68912905178E+02  0.69102480430E+02  0.17770000000E+01 0.  1.
         15    1    1    2    0    0 -0.35860155915E+01 -0.63417695376E+01  0.45997981680E+02  0.46605252883E+02  0.17770000000E+01 0.  1.
</event>
<event>
 6    1  0.2408691E-003  0.5048808E+03  0.7546771E-02  0.9388954E-01
        -11   -1    0    0    0    0  0.00000000000E+00  0.00000000000E+00  0.50000000000E+03  0.50000000000E+03  0.00000000000E+00 0.  1.
         11   -1    0    0    0    0 -0.00000000000E+00 -0.00000000000E+00 -0.50000000000E+03  0.50000000000E+03  0.00000000000E+00 0.  1.
        -11    1    1    2    0    0  0.45615096127E+01 -0.79707242237E+01  0.45766209264E+03  0.45775422538E+03  0.00000000000E+00 0.  1.
         11    1    1    2    0    0  0.66367441386E+01 -0.14625490199E+01 -0.49507253169E+03  0.49511917460E+03  0.00000000000E+00 0.  1.
        -15    1    1    2    0    0 -0.11602057727E+01 -0.57633891873E+01  0.79475146701E+00  0.61929065271E+01  0.17770000000E+01 0. -1.
         15    1    1    2    0    0 -0.10038047979E+02  0.15196662431E+02  0.36615687584E+02  0.40933693487E+02  0.17770000000E+01 0.  1.
</event>
<event>
 6    1  0.2408691E-003  0.5010481E+03  0.7546771E-02  0.9397468E-01
        -11   -1    0    0    0    0  0.00000000000E+00  0.00000000000E+00  0.50000000000E+03  0.50000000000E+03  0.00000000000E+00 0.  1.
         11   -1    0    0    0    0 -0.00000000000E+00 -0.00000000000E+00 -0.50000000000E+03  0.50000000000E+03  0.00000000000E+00 0.  1.
        -11    1    1    2    0    0  0.55163728974E+01  0.41933403147E+01  0.39447904091E+03  0.39453989430E+03  0.00000000000E+00 0.  1.
         11    1    1    2    0    0  0.72398888979E+01 -0.86703319782E+01 -0.49882402775E+03  0.49895190280E+03  0.00000000000E+00 0.  1.
        -15    1    1    2    0    0 -0.15931708885E+02  0.59796867477E+01  0.91006568298E+02  0.92600913624E+02  0.17770000000E+01 0. -1.
         15    1    1    2    0    0  0.31754470899E+01 -0.15026950842E+01  0.13338418544E+02  0.13907289275E+02  0.17770000000E+01 0.  1.
</event>
<event>
 6    1  0.2408691E-003  0.5062984E+03  0.7546771E-02  0.9385826E-01
        -11   -1    0    0    0    0  0.00000000000E+00  0.00000000000E+00  0.50000000000E+03  0.50000000000E+03  0.00000000000E+00 0. -1.
         11   -1    0    0    0    0 -0.00000000000E+00 -0.00000000000E+00 -0.50000000000E+03  0.50000000000E+03  0.00000000000E+00 0.  1.
        -11    1    1    2    0    0 -0.68232326121E+01  0.19257859192E+02  0.26708187648E+03  0.26786218543E+03  0.00000000000E+00 0. -1.
         11    1    1    2    0    0 -0.10876065595E+01 -0.36733362983E+02 -0.49233197656E+03  0.49370162851E+03  0.00000000000E+00 0.  1.
        -15    1    1    2    0    0 -0.15118101636E+02 -0.19334551921E+02  0.14594646253E+03  0.14800645104E+03  0.17770000000E+01 0. -1.
         15    1    1    2    0    0  0.23028940808E+02  0.36810055711E+02  0.79303637555E+02  0.90429735013E+02  0.17770000000E+01 0.  1.
</event>
<event>
 6    1  0.2408691E-003  0.5007238E+03  0.7546771E-02  0.9398192E-01
        -11   -1    0    0    0    0  0.00000000000E+00  0.00000000000E+00  0.50000000000E+03  0.50000000000E+03  0.00000000000E+00 0.  1.
         11   -1    0    0    0    0 -0.00000000000E+00 -0.00000000000E+00 -0.50000000000E+03  0.50000000000E+03  0.00000000000E+00 0.  1.
        -11    1    1    2    0    0  0.94816532587E+01  0.42283047257E+00  0.49918593416E+03  0.49927615344E+03  0.00000000000E+00 0.  1.
         11    1    1    2    0    0 -0.95847059524E+01 -0.26876939472E+01 -0.37787819795E+03  0.37800928926E+03  0.00000000000E+00 0.  1.
        -15    1    1    2    0    0 -0.73562150348E+01 -0.17906260328E+01 -0.29850941912E+02  0.30847312740E+02  0.17770000000E+01 0. -1.
         15    1    1    2    0    0  0.74592677285E+01  0.40554895074E+01 -0.91456794299E+02  0.91867244557E+02  0.17770000000E+01 0.  1.
</event>
<event>
 6    1  0.2408691E-003  0.2968070E+03  0.7546771E-02  0.1002268E+00
        -11   -1    0    0    0    0  0.00000000000E+00  0.00000000000E+00  0.50000000000E+03  0.50000000000E+03  0.00000000000E+00 0. -1.
         11   -1    0    0    0    0 -0.00000000000E+00 -0.00000000000E+00 -0.50000000000E+03  0.50000000000E+03  0.00000000000E+00 0.  1.
        -11    1    1    2    0    0 -0.18504849183E+02  0.74004543096E+01  0.12647157873E+03  0.12803224747E+03  0.00000000000E+00 0. -1.
         11    1    1    2    0    0 -0.20556322766E+02 -0.99389620976E+02 -0.45036274280E+03  0.46165729634E+03  0.00000000000E+00 0.  1.
        -15    1    1    2    0    0 -0.83676625250E+02  0.97549467942E+02  0.15290261185E+03  0.19974995056E+03  0.17770000000E+01 0.  1.
         15    1    1    2    0    0  0.12273779720E+03 -0.55603012753E+01  0.17098855222E+03  0.21056050563E+03  0.17770000000E+01 0. -1.
</event>
<event>
 6    1  0.2408691E-003  0.5014527E+03  0.7546771E-02  0.9396565E-01
        -11   -1    0    0    0    0  0.00000000000E+00  0.00000000000E+00  0.50000000000E+03  0.50000000000E+03  0.00000000000E+00 0. -1.
         11   -1    0    0    0    0 -0.00000000000E+00 -0.00000000000E+00 -0.50000000000E+03  0.50000000000E+03  0.00000000000E+00 0.  1.
        -11    1    1    2    0    0  0.46687493052E+01 -0.76102072191E+01  0.49846737162E+03  0.49854732277E+03  0.00000000000E+00 0. -1.
         11    1    1    2    0    0  0.35053416130E+01 -0.77957840501E+01 -0.34916193466E+03  0.34926654332E+03  0.00000000000E+00 0.  1.
        -15    1    1    2    0    0 -0.35852700113E+01 -0.37128320726E+01 -0.92068177578E+01  0.10703387561E+02  0.17770000000E+01 0. -1.
         15    1    1    2    0    0 -0.45888209069E+01  0.19118823342E+02 -0.14009861920E+03  0.14148274635E+03  0.17770000000E+01 0.  1.
</event>
<event>
 6    1  0.2408691E-003  0.5032212E+03  0.7546771E-02  0.9392631E-01
        -11   -1    0    0    0    0  0.00000000000E+00  0.00000000000E+00  0.50000000000E+03  0.50000000000E+03  0.00000000000E+00 0.  1.
         11   -1    0    0    0    0 -0.00000000000E+00 -0.00000000000E+00 -0.50000000000E+03  0.50000000000E+03  0.00000000000E+00 0.  1.
        -11    1    1    2    0    0  0.67939271465E+01  0.11462281077E+02  0.49660009153E+03  0.49677881622E+03  0.00000000000E+00 0.  1.
         11    1    1    2    0    0  0.65622553646E+01  0.34300014676E+01 -0.44133494295E+03  0.44139705479E+03  0.00000000000E+00 0.  1.
        -15    1    1    2    0    0 -0.45336628925E+01 -0.10499355717E+02 -0.48195270734E+02  0.49565435737E+02  0.17770000000E+01 0. -1.
         15    1    1    2    0    0 -0.88225196187E+01 -0.43929268284E+01 -0.70698778473E+01  0.12258693255E+02  0.17770000000E+01 0.  1.
</event>
<event>
 6    1  0.2408691E-003  0.5013255E+03  0.7546771E-02  0.9396849E-01
        -11   -1    0    0    0    0  0.00000000000E+00  0.00000000000E+00  0.50000000000E+03  0.50000000000E+03  0.00000000000E+00 0. -1.
         11   -1    0    0    0    0 -0.00000000000E+00 -0.00000000000E+00 -0.50000000000E+03  0.50000000000E+03  0.00000000000E+00 0. -1.
        -11    1    1    2    0    0  0.44562379988E+01  0.65683267595E+01  0.49861131289E+03  0.49867448532E+03  0.00000000000E+00 0. -1.
         11    1    1    2    0    0  0.32487070418E+01 -0.13817929608E+02 -0.17496846569E+03  0.17554330879E+03  0.00000000000E+00 0. -1.
        -15    1    1    2    0    0 -0.17727755231E+02 -0.48636907924E+01 -0.10869853015E+03  0.11025632399E+03  0.17770000000E+01 0.  1.
         15    1    1    2    0    0  0.10022810190E+02  0.12113293641E+02 -0.21494431704E+03  0.21552588189E+03  0.17770000000E+01 0. -1.
</event>
<event>
 6    1  0.2408691E-003  0.5030543E+03  0.7546771E-02  0.9393001E-01
        -11   -1    0    0    0    0  0.00000000000E+00  0.00000000000E+00  0.50000000000E+03  0.50000000000E+03  0.00000000000E+00 0. -1.
         11   -1    0    0    0    0 -0.00000000000E+00 -0.00000000000E+00 -0.50000000000E+03  0.50000000000E+03  0.00000000000E+00 0.  1.
        -11    1    1    2    0    0 -0.47506980313E+01 -0.46265632952E+01  0.44067078797E+03  0.44072067978E+03  0.00000000000E+00 0. -1.
         11    1    1    2    0    0  0.72852821716E+01  0.71181213316E+00 -0.49689178518E+03  0.49694569944E+03  0.00000000000E+00 0.  1.
        -15    1    1    2    0    0 -0.56448685641E+01 -0.68424133096E+01  0.60159901646E+01  0.10864300606E+02  0.17770000000E+01 0. -1.
         15    1    1    2    0    0  0.31102844238E+01  0.10757164472E+02  0.50205007050E+02  0.51469320168E+02  0.17770000000E+01 0.  1.
</event>
<event>
 6    1  0.2408691E-003  0.5002732E+03  0.7546771E-02  0.9399199E-01
        -11   -1    0    0    0    0  0.00000000000E+00  0.00000000000E+00  0.50000000000E+03  0.50000000000E+03  0.00000000000E+00 0. -1.
         11   -1    0    0    0    0 -0.00000000000E+00 -0.00000000000E+00 -0.50000000000E+03  0.50000000000E+03  0.00000000000E+00 0. -1.
        -11    1    1    2    0    0  0.24525944091E+00 -0.36013657029E+01  0.19699446573E+03  0.19702753492E+03  0.00000000000E+00 0. -1.
         11    1    1    2    0    0 -0.79890876749E+01 -0.24719853860E+01 -0.49965684609E+03  0.49972682546E+03  0.00000000000E+00 0. -1.
        -15    1    1    2    0    0  0.96680731782E+01  0.97204166527E+01  0.25421890409E+03  0.25459451500E+03  0.17770000000E+01 0. -1.
         15    1    1    2    0    0 -0.19242449442E+01 -0.36470655639E+01  0.48443476265E+02  0.48651124627E+02  0.17770000000E+01 0.  1.
</event>
<event>
 6    1  0.2408691E-003  0.5007523E+03  0.7546771E-02  0.9398128E-01
        -11   -1    0    0    0    0  0.00000000000E+00  0.00000000000E+00  0.50000000000E+03  0.50000000000E+03  0.00000000000E+00 0. -1.
         11   -1    0    0    0    0 -0.00000000000E+00 -0.00000000000E+00 -0.50000000000E+03  0.50000000000E+03  0.00000000000E+00 0.  1.
        -11    1    1    2    0    0  0.19698418896E+01  0.37442653709E+01  0.21767430708E+03  0.21771541921E+03  0.00000000000E+00 0. -1.
         11    1    1    2    0    0  0.25058287269E+01  0.10264306622E+02 -0.49913589662E+03  0.49924771253E+03  0.00000000000E+00 0.  1.
        -15    1    1    2    0    0 -0.28298258774E+01 -0.89655631193E+01  0.29493302404E+02  0.31006480810E+02  0.17770000000E+01 0.  1.
         15    1    1    2    0    0 -0.16458447391E+01 -0.50430088736E+01  0.25196828714E+03  0.25203038744E+03  0.17770000000E+01 0. -1.
</event>
<event>
 6    1  0.2408691E-003  0.5001589E+03  0.7546771E-02  0.9399454E-01
        -11   -1    0    0    0    0  0.00000000000E+00  0.00000000000E+00  0.50000000000E+03  0.50000000000E+03  0.00000000000E+00 0. -1.
         11   -1    0    0    0    0 -0.00000000000E+00 -0.00000000000E+00 -0.50000000000E+03  0.50000000000E+03  0.00000000000E+00 0. -1.
        -11    1    1    2    0    0 -0.54860349440E+01 -0.84731789899E+00  0.30532476018E+03  0.30537521790E+03  0.00000000000E+00 0. -1.
         11    1    1    2    0    0  0.24104604034E+01 -0.64614044009E+01 -0.49979349855E+03  0.49984107600E+03  0.00000000000E+00 0. -1.
        -15    1    1    2    0    0  0.28208170341E+01  0.48045018585E+01  0.17259278028E+03  0.17269182314E+03  0.17770000000E+01 0. -1.
         15    1    1    2    0    0  0.25475750656E+00  0.25042204414E+01  0.21875958088E+02  0.22091882959E+02  0.17770000000E+01 0.  1.
</event>
<event>
 6    1  0.2408691E-003  0.5128512E+03  0.7546771E-02  0.9371505E-01
        -11   -1    0    0    0    0  0.00000000000E+00  0.00000000000E+00  0.50000000000E+03  0.50000000000E+03  0.00000000000E+00 0.  1.
         11   -1    0    0    0    0 -0.00000000000E+00 -0.00000000000E+00 -0.50000000000E+03  0.50000000000E+03  0.00000000000E+00 0.  1.
        -11    1    1    2    0    0  0.29425696396E+02 -0.16568548800E+01  0.40668396731E+03  0.40775049484E+03  0.00000000000E+00 0.  1.
         11    1    1    2    0    0 -0.69670128379E+01  0.37045113984E+01 -0.48708490415E+03  0.48714881353E+03  0.00000000000E+00 0.  1.
        -15    1    1    2    0    0 -0.31253224490E+02  0.15978897463E+01  0.83988383621E+01  0.32450200423E+02  0.17770000000E+01 0. -1.
         15    1    1    2    0    0  0.87945409316E+01 -0.36455462648E+01  0.72002098479E+02  0.72650491204E+02  0.17770000000E+01 0.  1.
</event>
<event>
 6    1  0.2408691E-003  0.5037147E+03  0.7546771E-02  0.9391536E-01
        -11   -1    0    0    0    0  0.00000000000E+00  0.00000000000E+00  0.50000000000E+03  0.50000000000E+03  0.00000000000E+00 0. -1.
         11   -1    0    0    0    0 -0.00000000000E+00 -0.00000000000E+00 -0.50000000000E+03  0.50000000000E+03  0.00000000000E+00 0.  1.
        -11    1    1    2    0    0  0.75614956785E+01  0.10379979628E+02  0.49611909847E+03  0.49628528093E+03  0.00000000000E+00 0. -1.
         11    1    1    2    0    0  0.23599076694E+01  0.60966190746E+01 -0.44247248179E+03  0.44252077360E+03  0.00000000000E+00 0.  1.
        -15    1    1    2    0    0  0.26523357755E+01 -0.57099463310E+01 -0.18661730970E+01  0.68028452280E+01  0.17770000000E+01 0. -1.
         15    1    1    2    0    0 -0.12573739123E+02 -0.10766652371E+02 -0.51780443588E+02  0.54391100246E+02  0.17770000000E+01 0.  1.
</event>
<event>
 6    1  0.2408691E-003  0.5003760E+03  0.7546771E-02  0.9398969E-01
        -11   -1    0    0    0    0  0.00000000000E+00  0.00000000000E+00  0.50000000000E+03  0.50000000000E+03  0.00000000000E+00 0. -1.
         11   -1    0    0    0    0 -0.00000000000E+00 -0.00000000000E+00 -0.50000000000E+03  0.50000000000E+03  0.00000000000E+00 0.  1.
        -11    1    1    2    0    0 -0.40434581539E+01  0.14786379559E+01  0.23922238869E+03  0.23926112759E+03  0.00000000000E+00 0. -1.
         11    1    1    2    0    0 -0.56349583098E+01 -0.74731343530E+01 -0.49953628908E+03  0.49962396320E+03  0.00000000000E+00 0.  1.
        -15    1    1    2    0    0 -0.10195270760E+01 -0.30340333495E+01  0.12768317710E+03  0.12773564983E+03  0.17770000000E+01 0. -1.
         15    1    1    2    0    0  0.10697943540E+02  0.90285297466E+01  0.13263072329E+03  0.13337925939E+03  0.17770000000E+01 0.  1.
</event>
<event>
 6    1  0.2408691E-003  0.5017394E+03  0.7546771E-02  0.9395926E-01
        -11   -1    0    0    0    0  0.00000000000E+00  0.00000000000E+00  0.50000000000E+03  0.50000000000E+03  0.00000000000E+00 0.  1.
         11   -1    0    0    0    0 -0.00000000000E+00 -0.00000000000E+00 -0.50000000000E+03  0.50000000000E+03  0.00000000000E+00 0. -1.
        -11    1    1    2    0    0  0.87657405962E+01 -0.26614167063E+02  0.49747207039E+03  0.49826058736E+03  0.00000000000E+00 0.  1.
         11    1    1    2    0    0 -0.81072075569E+01  0.16550898044E+01 -0.21530426974E+03  0.21546320963E+03  0.00000000000E+00 0. -1.
        -15    1    1    2    0    0 -0.30705249728E+01  0.23661860178E+01 -0.22034644348E+03  0.22038770348E+03  0.17770000000E+01 0. -1.
         15    1    1    2    0    0  0.24119919336E+01  0.22592891241E+02 -0.61821357169E+02  0.65888499535E+02  0.17770000000E+01 0.  1.
</event>
<event>
 6    1  0.2408691E-003  0.5047775E+03  0.7546771E-02  0.9389183E-01
        -11   -1    0    0    0    0  0.00000000000E+00  0.00000000000E+00  0.50000000000E+03  0.50000000000E+03  0.00000000000E+00 0. -1.
         11   -1    0    0    0    0 -0.00000000000E+00 -0.00000000000E+00 -0.50000000000E+03  0.50000000000E+03  0.00000000000E+00 0.  1.
        -11    1    1    2    0    0  0.67400704546E+01 -0.35264478144E+01  0.49516407998E+03  0.49522250604E+03  0.00000000000E+00 0. -1.
         11    1    1    2    0    0  0.69150145806E+01 -0.22996898909E+01 -0.44371719231E+03  0.44377703044E+03  0.00000000000E+00 0.  1.
        -15    1    1    2    0    0 -0.13819933914E+02  0.16529032669E+02 -0.30161397724E+02  0.37108855224E+02  0.17770000000E+01 0.  1.
         15    1    1    2    0    0  0.16484887894E+00 -0.10702894964E+02 -0.21285489945E+02  0.23891608296E+02  0.17770000000E+01 0. -1.
</event>
<event>
 6    1  0.2408691E-003  0.5020062E+03  0.7546771E-02  0.9395332E-01
        -11   -1    0    0    0    0  0.00000000000E+00  0.00000000000E+00  0.50000000000E+03  0.50000000000E+03  0.00000000000E+00 0.  1.
         11   -1    0    0    0    0 -0.00000000000E+00 -0.00000000000E+00 -0.50000000000E+03  0.50000000000E+03  0.00000000000E+00 0. -1.
        -11    1    1    2    0    0 -0.35733180676E+02  0.44488860450E+01  0.49669024914E+03  0.49799383166E+03  0.00000000000E+00 0.  1.
         11    1    1    2    0    0 -0.37740851139E+01 -0.35825744986E+01 -0.20513598712E+03  0.20520197799E+03  0.00000000000E+00 0. -1.
        -15    1    1    2    0    0 -0.88749237658E+00  0.85748738686E+01 -0.11898112971E+03  0.11930625742E+03  0.17770000000E+01 0. -1.
         15    1    1    2    0    0  0.40394758167E+02 -0.94411854151E+01 -0.17257313231E+03  0.17749793292E+03  0.17770000000E+01 0.  1.
</event>
<event>
 6    1  0.2408691E-003  0.5418814E+03  0.7546771E-02  0.9310684E-01
        -11   -1    0    0    0    0  0.00000000000E+00  0.00000000000E+00  0.50000000000E+03  0.50000000000E+03  0.00000000000E+00 0.  1.
         11   -1    0    0    0    0 -0.00000000000E+00 -0.00000000000E+00 -0.50000000000E+03  0.50000000000E+03  0.00000000000E+00 0. -1.
        -11    1    1    2    0    0 -0.68917366764E+01  0.15959537230E+01  0.45806394395E+03  0.45811856528E+03  0.00000000000E+00 0.  1.
         11    1    1    2    0    0 -0.94560051536E+01  0.39143768733E+01 -0.39738255005E+03  0.39751431353E+03  0.00000000000E+00 0. -1.
        -15    1    1    2    0    0 -0.10334143891E+02 -0.19937919431E+02  0.36308505625E+02  0.42729152471E+02  0.17770000000E+01 0.  1.
         15    1    1    2    0    0  0.26681885721E+02  0.14427588834E+02 -0.96989899533E+02  0.10163796872E+03  0.17770000000E+01 0. -1.
</event>
<event>
 6    1  0.2408691E-003  0.5065167E+03  0.7546771E-02  0.9385345E-01
        -11   -1    0    0    0    0  0.00000000000E+00  0.00000000000E+00  0.50000000000E+03  0.50000000000E+03  0.00000000000E+00 0.  1.
         11   -1    0    0    0    0 -0.00000000000E+00 -0.00000000000E+00 -0.50000000000E+03  0.50000000000E+03  0.00000000000E+00 0.  1.
        -11    1    1    2    0    0  0.49843360301E+01 -0.46379487171E+01  0.49343636622E+03  0.49348333475E+03  0.00000000000E+00 0.  1.
         11    1    1    2    0    0 -0.81284630556E+01 -0.11829457127E+02 -0.47106340677E+03  0.47128201872E+03  0.00000000000E+00 0.  1.
        -15    1    1    2    0    0  0.10815593225E+02  0.11197437083E+02 -0.69670748243E+01  0.17148105278E+02  0.17770000000E+01 0.  1.
         15    1    1    2    0    0 -0.76714661993E+01  0.52699687614E+01 -0.15405884620E+02  0.18086541248E+02  0.17770000000E+01 0. -1.
</event>
<event>
 6    1  0.2408691E-003  0.5065902E+03  0.7546771E-02  0.9385183E-01
        -11   -1    0    0    0    0  0.00000000000E+00  0.00000000000E+00  0.50000000000E+03  0.50000000000E+03  0.00000000000E+00 0. -1.
         11   -1    0    0    0    0 -0.00000000000E+00 -0.00000000000E+00 -0.50000000000E+03  0.50000000000E+03  0.00000000000E+00 0. -1.
        -11    1    1    2    0    0 -0.11956102308E+01 -0.19287325873E+01  0.14183684108E+02  0.14364065863E+02  0.00000000000E+00 0. -1.
         11    1    1    2    0    0 -0.10144187893E+02 -0.86646577068E+01 -0.49322943826E+03  0.49340982926E+03  0.00000000000E+00 0. -1.
        -15    1    1    2    0    0 -0.14799482455E+01  0.24819622871E+01 -0.60252911922E+01  0.69146400162E+01  0.17770000000E+01 0.  1.
         15    1    1    2    0    0  0.12819746369E+02  0.81114280070E+01  0.48507104535E+03  0.48531146486E+03  0.17770000000E+01 0. -1.
</event>
<event>
 6    1  0.2408691E-003  0.5198975E+03  0.7546771E-02  0.9356356E-01
        -11   -1    0    0    0    0  0.00000000000E+00  0.00000000000E+00  0.50000000000E+03  0.50000000000E+03  0.00000000000E+00 0.  1.
         11   -1    0    0    0    0 -0.00000000000E+00 -0.00000000000E+00 -0.50000000000E+03  0.50000000000E+03  0.00000000000E+00 0. -1.
        -11    1    1    2    0    0 -0.33190903829E+01 -0.58274666776E+01  0.43876680318E+03  0.43881805262E+03  0.00000000000E+00 0.  1.
         11    1    1    2    0    0 -0.90706224104E+01  0.11756663337E+02 -0.47987277047E+03  0.48010245903E+03  0.00000000000E+00 0. -1.
        -15    1    1    2    0    0  0.13014322774E+02 -0.14241616426E+02 -0.14892280507E+02  0.24436325079E+02  0.17770000000E+01 0. -1.
         15    1    1    2    0    0 -0.62460998040E+00  0.83124197662E+01  0.55998247800E+02  0.56643163274E+02  0.17770000000E+01 0.  1.
</event>
<event>
 6    1  0.2408691E-003  0.5025040E+03  0.7546771E-02  0.9394224E-01
        -11   -1    0    0    0    0  0.00000000000E+00  0.00000000000E+00  0.50000000000E+03  0.50000000000E+03  0.00000000000E+00 0. -1.
         11   -1    0    0    0    0 -0.00000000000E+00 -0.00000000000E+00 -0.50000000000E+03  0.50000000000E+03  0.00000000000E+00 0.  1.
        -11    1    1    2    0    0 -0.58834742000E+01  0.64121224015E+01  0.48139942363E+03  0.48147807391E+03  0.00000000000E+00 0. -1.
         11    1    1    2    0    0  0.61441654108E+01  0.31028746791E+01 -0.49744841630E+03  0.49749603564E+03  0.00000000000E+00 0.  1.
        -15    1    1    2    0    0 -0.36420389822E+01 -0.30636827858E+01  0.10609682058E+02  0.11763234357E+02  0.17770000000E+01 0.  1.
         15    1    1    2    0    0  0.33813477713E+01 -0.64513142948E+01  0.54393106133E+01  0.92626560893E+01  0.17770000000E+01 0. -1.
</event>
<event>
 6    1  0.2408691E-003  0.5019826E+03  0.7546771E-02  0.9395384E-01
        -11   -1    0    0    0    0  0.00000000000E+00  0.00000000000E+00  0.50000000000E+03  0.50000000000E+03  0.00000000000E+00 0.  1.
         11   -1    0    0    0    0 -0.00000000000E+00 -0.00000000000E+00 -0.50000000000E+03  0.50000000000E+03  0.00000000000E+00 0. -1.
        -11    1    1    2    0    0  0.92794154201E+01  0.86378755914E+01  0.49785596831E+03  0.49801735474E+03  0.00000000000E+00 0.  1.
         11    1    1    2    0    0 -0.64567932709E+01  0.55174019202E+01 -0.31990075875E+03  0.32001347995E+03  0.00000000000E+00 0. -1.
        -15    1    1    2    0    0  0.87789638773E+01 -0.12754127392E+02 -0.15806725886E+03  0.15883373075E+03  0.17770000000E+01 0.  1.
         15    1    1    2    0    0 -0.11601586027E+02 -0.14011501196E+01 -0.19887950699E+02  0.23135434554E+02  0.17770000000E+01 0. -1.
</event>
<event>
 6    1  0.2408691E-003  0.5063735E+03  0.7546771E-02  0.9385660E-01
        -11   -1    0    0    0    0  0.00000000000E+00  0.00000000000E+00  0.50000000000E+03  0.50000000000E+03  0.00000000000E+00 0.  1.
         11   -1    0    0    0    0 -0.00000000000E+00 -0.00000000000E+00 -0.50000000000E+03  0.50000000000E+03  0.00000000000E+00 0. -1.
        -11    1    1    2    0    0 -0.88042708219E+01 -0.18630895646E+00  0.45787324925E+03  0.45795792631E+03  0.00000000000E+00 0.  1.
         11    1    1    2    0    0 -0.47402140080E+01 -0.67187477964E+01 -0.49355804903E+03  0.49362653795E+03  0.00000000000E+00 0. -1.
        -15    1    1    2    0    0  0.20557253875E+02  0.66972622293E+01  0.14666858930E+02  0.26186418009E+02  0.17770000000E+01 0.  1.
         15    1    1    2    0    0 -0.70127690452E+01  0.20779452349E+00  0.21017940858E+02  0.22229117732E+02  0.17770000000E+01 0. -1.
</event>
<event>
 6    1  0.2408691E-003  0.5233516E+03  0.7546771E-02  0.9349023E-01
        -11   -1    0    0    0    0  0.00000000000E+00  0.00000000000E+00  0.50000000000E+03  0.50000000000E+03  0.00000000000E+00 0.  1.
         11   -1    0    0    0    0 -0.00000000000E+00 -0.00000000000E+00 -0.50000000000E+03  0.50000000000E+03  0.00000000000E+00 0. -1.
        -11    1    1    2    0    0 -0.95731208088E+01  0.53917199481E+01  0.38312565912E+03  0.38328316681E+03  0.00000000000E+00 0.  1.
         11    1    1    2    0    0  0.81388128498E+01  0.10035493988E+02 -0.47647326740E+03  0.47664843014E+03  0.00000000000E+00 0. -1.
        -15    1    1    2    0    0  0.24952326329E+01 -0.18909378849E+02 -0.19390861514E+02  0.27257183155E+02  0.17770000000E+01 0. -1.
         15    1    1    2    0    0 -0.10609246738E+01  0.34821649120E+01  0.11273846979E+03  0.11281121989E+03  0.17770000000E+01 0.  1.
</event>
<event>
 6    1  0.2408691E-003  0.5019279E+03  0.7546771E-02  0.9395506E-01
        -11   -1    0    0    0    0  0.00000000000E+00  0.00000000000E+00  0.50000000000E+03  0.50000000000E+03  0.00000000000E+00 0.  1.
         11   -1    0    0    0    0 -0.00000000000E+00 -0.00000000000E+00 -0.50000000000E+03  0.50000000000E+03  0.00000000000E+00 0.  1.
        -11    1    1    2    0    0  0.12808949154E+02  0.57731037639E+01  0.49787393246E+03  0.49807213386E+03  0.00000000000E+00 0.  1.
         11    1    1    2    0    0  0.91733441031E+01 -0.11836428373E+02 -0.31896652690E+03  0.31931786132E+03  0.00000000000E+00 0.  1.
        -15    1    1    2    0    0 -0.81011666339E+01 -0.20529140618E+01 -0.11016435192E+02  0.13941410628E+02  0.17770000000E+01 0. -1.
         15    1    1    2    0    0 -0.13881126624E+02  0.81162386712E+01 -0.16789097037E+03  0.16866859419E+03  0.17770000000E+01 0.  1.
</event>
<event>
 6    1  0.2408691E-003  0.4603428E+03  0.7546771E-02  0.9493198E-01
        -11   -1    0    0    0    0  0.00000000000E+00  0.00000000000E+00  0.50000000000E+03  0.50000000000E+03  0.00000000000E+00 0. -1.
         11   -1    0    0    0    0 -0.00000000000E+00 -0.00000000000E+00 -0.50000000000E+03  0.50000000000E+03  0.00000000000E+00 0. -1.
        -11    1    1    2    0    0  0.23237530609E+02 -0.17085813396E+02  0.46121761042E+03  0.46211859085E+03  0.00000000000E+00 0. -1.
         11    1    1    2    0    0 -0.68607091897E+02 -0.39810196935E+02 -0.45459388570E+03  0.46146222571E+03  0.00000000000E+00 0. -1.
        -15    1    1    2    0    0  0.38384788731E+02  0.57150867829E+02 -0.68206687611E+01  0.69204717692E+02  0.17770000000E+01 0. -1.
         15    1    1    2    0    0  0.69847725573E+01 -0.25485749864E+00  0.19694404191E+00  0.72144657444E+01  0.17770000000E+01 0.  1.
</event>
<event>
 6    1  0.2408691E-003  0.5027527E+03  0.7546771E-02  0.9393671E-01
        -11   -1    0    0    0    0  0.00000000000E+00  0.00000000000E+00  0.50000000000E+03  0.50000000000E+03  0.00000000000E+00 0. -1.
         11   -1    0    0    0    0 -0.00000000000E+00 -0.00000000000E+00 -0.50000000000E+03  0.50000000000E+03  0.00000000000E+00 0.  1.
        -11    1    1    2    0    0 -0.53211010804E+00 -0.87372467517E+01  0.49717027372E+03  0.49724732648E+03  0.00000000000E+00 0. -1.
         11    1    1    2    0    0 -0.67470691932E+01  0.81834343940E+01 -0.30782487740E+03  0.30800754323E+03  0.00000000000E+00 0.  1.
        -15    1    1    2    0    0  0.26426756857E+01 -0.58691248125E+01 -0.18574358625E+03  0.18586357341E+03  0.17770000000E+01 0. -1.
         15    1    1    2    0    0  0.46365036155E+01  0.64229371703E+01 -0.36018100722E+01  0.88815568718E+01  0.17770000000E+01 0.  1.
</event>
<event>
 6    1  0.2408691E-003  0.5066349E+03  0.7546771E-02  0.9385085E-01
        -11   -1    0    0    0    0  0.00000000000E+00  0.00000000000E+00  0.50000000000E+03  0.50000000000E+03  0.00000000000E+00 0.  1.
         11   -1    0    0    0    0 -0.00000000000E+00 -0.00000000000E+00 -0.50000000000E+03  0.50000000000E+03  0.00000000000E+00 0. -1.
        -11    1    1    2    0    0 -0.63390641617E+01 -0.82241570766E+01  0.49325578761E+03  0.49336507022E+03  0.00000000000E+00 0.  1.
         11    1    1    2    0    0 -0.42149103721E+01  0.37605513111E+01 -0.41418432060E+03  0.41422283695E+03  0.00000000000E+00 0. -1.
        -15    1    1    2    0    0  0.52138813562E+01 -0.29209546852E+01 -0.82334831544E+02  0.82570568300E+02  0.17770000000E+01 0.  1.
         15    1    1    2    0    0  0.53400931776E+01  0.73845604506E+01  0.32633645311E+01  0.98415245393E+01  0.17770000000E+01 0. -1.
</event>
<event>
 6    1  0.2408691E-003  0.5051863E+03  0.7546771E-02  0.9388279E-01
        -11   -1    0    0    0    0  0.00000000000E+00  0.00000000000E+00  0.50000000000E+03  0.50000000000E+03  0.00000000000E+00 0.  1.
         11   -1    0    0    0    0 -0.00000000000E+00 -0.00000000000E+00 -0.50000000000E+03  0.50000000000E+03  0.00000000000E+00 0. -1.
        -11    1    1    2    0    0 -0.45344451865E+01  0.74096673595E+01  0.47820346796E+03  0.47828236549E+03  0.00000000000E+00 0.  1.
         11    1    1    2    0    0 -0.78031314272E+01 -0.17946503089E+01 -0.49474890863E+03  0.49481369446E+03  0.00000000000E+00 0. -1.
        -15    1    1    2    0    0  0.20329828154E+01  0.65925044681E+00 -0.28579863945E+01  0.39866584392E+01  0.17770000000E+01 0.  1.
         15    1    1    2    0    0  0.10304593798E+02 -0.62742674974E+01  0.19403427061E+02  0.22917281616E+02  0.17770000000E+01 0. -1.
</event>
<event>
 6    1  0.2408691E-003  0.5037015E+03  0.7546771E-02  0.9391565E-01
        -11   -1    0    0    0    0  0.00000000000E+00  0.00000000000E+00  0.50000000000E+03  0.50000000000E+03  0.00000000000E+00 0. -1.
         11   -1    0    0    0    0 -0.00000000000E+00 -0.00000000000E+00 -0.50000000000E+03  0.50000000000E+03  0.00000000000E+00 0.  1.
        -11    1    1    2    0    0  0.10270676367E+02 -0.79453350691E+01  0.49612857189E+03  0.49629847369E+03  0.00000000000E+00 0. -1.
         11    1    1    2    0    0  0.89371793949E+01  0.52248758899E+01 -0.28406998153E+03  0.28425855644E+03  0.00000000000E+00 0.  1.
        -15    1    1    2    0    0 -0.12440858984E+02  0.78959082776E+01 -0.11709007666E+02  0.18904468501E+02  0.17770000000E+01 0. -1.
         15    1    1    2    0    0 -0.67669967775E+01 -0.51754490984E+01 -0.20034958269E+03  0.20053850137E+03  0.17770000000E+01 0.  1.
</event>
<event>
 6    1  0.2408691E-003  0.5018826E+03  0.7546771E-02  0.9395607E-01
        -11   -1    0    0    0    0  0.00000000000E+00  0.00000000000E+00  0.50000000000E+03  0.50000000000E+03  0.00000000000E+00 0. -1.
         11   -1    0    0    0    0 -0.00000000000E+00 -0.00000000000E+00 -0.50000000000E+03  0.50000000000E+03  0.00000000000E+00 0. -1.
        -11    1    1    2    0    0 -0.63957781997E+01 -0.23986945111E+01  0.21971387711E+03  0.21982003437E+03  0.00000000000E+00 0. -1.
         11    1    1    2    0    0 -0.53082331099E+01 -0.82519218587E+01 -0.49802070923E+03  0.49811735402E+03  0.00000000000E+00 0. -1.
        -15    1    1    2    0    0  0.56221788541E+01 -0.12595731333E+01  0.35950938090E+01  0.70198182342E+01  0.17770000000E+01 0.  1.
         15    1    1    2    0    0  0.60818324555E+01  0.11910189503E+02  0.27471173830E+03  0.27504279338E+03  0.17770000000E+01 0. -1.
</event>
<event>
 6    1  0.2408691E-003  0.5146316E+03  0.7546771E-02  0.9367653E-01
        -11   -1    0    0    0    0  0.00000000000E+00  0.00000000000E+00  0.50000000000E+03  0.50000000000E+03  0.00000000000E+00 0. -1.
         11   -1    0    0    0    0 -0.00000000000E+00 -0.00000000000E+00 -0.50000000000E+03  0.50000000000E+03  0.00000000000E+00 0. -1.
        -11    1    1    2    0    0  0.95280400156E+00  0.63242598764E+01  0.46507789560E+03  0.46512186906E+03  0.00000000000E+00 0. -1.
         11    1    1    2    0    0 -0.20419468403E+02  0.13138800998E+02 -0.48476066033E+03  0.48536839677E+03  0.00000000000E+00 0. -1.
        -15    1    1    2    0    0  0.46642741834E+01 -0.35208182549E+01 -0.10568154485E+02  0.12206360353E+02  0.17770000000E+01 0.  1.
         15    1    1    2    0    0  0.14802390218E+02 -0.15942242619E+02  0.30250919214E+02  0.37303373818E+02  0.17770000000E+01 0. -1.
</event>
<event>
 6    1  0.2408691E-003  0.5001158E+03  0.7546771E-02  0.9399551E-01
        -11   -1    0    0    0    0  0.00000000000E+00  0.00000000000E+00  0.50000000000E+03  0.50000000000E+03  0.00000000000E+00 0. -1.
         11   -1    0    0    0    0 -0.00000000000E+00 -0.00000000000E+00 -0.50000000000E+03  0.50000000000E+03  0.00000000000E+00 0.  1.
        -11    1    1    2    0    0 -0.14415163070E+01  0.42948408440E+01  0.20580910128E+03  0.20585895608E+03  0.00000000000E+00 0. -1.
         11    1    1    2    0    0  0.66886260179E+01 -0.17674284116E+01 -0.49983629787E+03  0.49988417278E+03  0.00000000000E+00 0.  1.
        -15    1    1    2    0    0 -0.75108344189E+00  0.34388009991E+01  0.97308414937E+02  0.97388268417E+02  0.17770000000E+01 0.  1.
         15    1    1    2    0    0 -0.44960262690E+01 -0.59662134315E+01  0.19671878166E+03  0.19686860273E+03  0.17770000000E+01 0. -1.
</event>
<event>
 6    1  0.2408691E-003  0.5061413E+03  0.7546771E-02  0.9386172E-01
        -11   -1    0    0    0    0  0.00000000000E+00  0.00000000000E+00  0.50000000000E+03  0.50000000000E+03  0.00000000000E+00 0. -1.
         11   -1    0    0    0    0 -0.00000000000E+00 -0.00000000000E+00 -0.50000000000E+03  0.50000000000E+03  0.00000000000E+00 0.  1.
        -11    1    1    2    0    0 -0.55879748507E+01  0.40328371077E+01  0.46766261238E+03  0.46771338259E+03  0.00000000000E+00 0. -1.
         11    1    1    2    0    0  0.19303769408E+01  0.11774732902E+02 -0.49371456784E+03  0.49385872999E+03  0.00000000000E+00 0.  1.
        -15    1    1    2    0    0 -0.15175478673E+01 -0.52802232375E+01 -0.33826655555E+01  0.66920747326E+01  0.17770000000E+01 0. -1.
         15    1    1    2    0    0  0.51751457771E+01 -0.10527346772E+02  0.29434621010E+02  0.31735812686E+02  0.17770000000E+01 0.  1.
</event>
<event>
 6    1  0.2408691E-003  0.5059756E+03  0.7546771E-02  0.9386537E-01
        -11   -1    0    0    0    0  0.00000000000E+00  0.00000000000E+00  0.50000000000E+03  0.50000000000E+03  0.00000000000E+00 0. -1.
         11   -1    0    0    0    0 -0.00000000000E+00 -0.00000000000E+00 -0.50000000000E+03  0.50000000000E+03  0.00000000000E+00 0.  1.
        -11    1    1    2    0    0  0.12360596017E+01  0.89057491619E+01  0.49394254527E+03  0.49402437008E+03  0.00000000000E+00 0. -1.
         11    1    1    2    0    0  0.99197247535E+01 -0.29757947860E+01 -0.40454098498E+03  0.40467352869E+03  0.00000000000E+00 0.  1.
        -15    1    1    2    0    0  0.49877131192E+01 -0.60196058200E+01  0.21668005123E+01  0.83045583777E+01  0.17770000000E+01 0. -1.
         15    1    1    2    0    0 -0.16143497474E+02  0.89651444127E-01 -0.91568360802E+02  0.92997542855E+02  0.17770000000E+01 0.  1.
</event>
<event>
 6    1  0.2408691E-003  0.5170799E+03  0.7546771E-02  0.9362383E-01
        -11   -1    0    0    0    0  0.00000000000E+00  0.00000000000E+00  0.50000000000E+03  0.50000000000E+03  0.00000000000E+00 0.  1.
         11   -1    0    0    0    0 -0.00000000000E+00 -0.00000000000E+00 -0.50000000000E+03  0.50000000000E+03  0.00000000000E+00 0. -1.
        -11    1    1    2    0    0 -0.63641301290E+01 -0.11560090385E+02  0.48273974208E+03  0.48292007250E+03  0.00000000000E+00 0.  1.
         11    1    1    2    0    0  0.24256136471E+02 -0.21342246633E+02 -0.29557240552E+03  0.29733297589E+03  0.00000000000E+00 0. -1.
        -15    1    1    2    0    0  0.12282625007E+02  0.10339472884E+02 -0.18076840428E+03  0.18148868089E+03  0.17770000000E+01 0.  1.
         15    1    1    2    0    0 -0.30174631349E+02  0.22562864134E+02 -0.63989322856E+01  0.38258270719E+02  0.17770000000E+01 0. -1.
</event>
<event>
 6    1  0.2408691E-003  0.5079935E+03  0.7546771E-02  0.9382099E-01
        -11   -1    0    0    0    0  0.00000000000E+00  0.00000000000E+00  0.50000000000E+03  0.50000000000E+03  0.00000000000E+00 0. -1.
         11   -1    0    0    0    0 -0.00000000000E+00 -0.00000000000E+00 -0.50000000000E+03  0.50000000000E+03  0.00000000000E+00 0.  1.
        -11    1    1    2    0    0 -0.51134213613E+01 -0.57848382052E+01  0.48074426847E+03  0.48080626358E+03  0.00000000000E+00 0. -1.
         11    1    1    2    0    0  0.21749603284E+01  0.64365432962E+01 -0.49195955884E+03  0.49200647056E+03  0.00000000000E+00 0.  1.
        -15    1    1    2    0    0 -0.67735263111E+00  0.80838171644E+01 -0.39752365677E+01  0.92069072606E+01  0.17770000000E+01 0. -1.
         15    1    1    2    0    0  0.36158136640E+01 -0.87355222555E+01  0.15190526942E+02  0.17980358598E+02  0.17770000000E+01 0.  1.
</event>
<event>
 6    1  0.2408691E-003  0.5004066E+03  0.7546771E-02  0.9398900E-01
        -11   -1    0    0    0    0  0.00000000000E+00  0.00000000000E+00  0.50000000000E+03  0.50000000000E+03  0.00000000000E+00 0.  1.
         11   -1    0    0    0    0 -0.00000000000E+00 -0.00000000000E+00 -0.50000000000E+03  0.50000000000E+03  0.00000000000E+00 0. -1.
        -11    1    1    2    0    0  0.53672992699E+01  0.87274778982E+01  0.46227559967E+03  0.46238912922E+03  0.00000000000E+00 0.  1.
         11    1    1    2    0    0 -0.48327000722E+01 -0.72818380472E+01 -0.49951693556E+03  0.49959338373E+03  0.00000000000E+00 0. -1.
        -15    1    1    2    0    0  0.13819850724E+01 -0.33404128604E+00  0.31783517489E+02  0.31864889444E+02  0.17770000000E+01 0. -1.
         15    1    1    2    0    0 -0.19165842701E+01 -0.11115985650E+01  0.54578183979E+01  0.61525976058E+01  0.17770000000E+01 0.  1.
</event>
<event>
 6    1  0.2408691E-003  0.5002287E+03  0.7546771E-02  0.9399298E-01
        -11   -1    0    0    0    0  0.00000000000E+00  0.00000000000E+00  0.50000000000E+03  0.50000000000E+03  0.00000000000E+00 0. -1.
         11   -1    0    0    0    0 -0.00000000000E+00 -0.00000000000E+00 -0.50000000000E+03  0.50000000000E+03  0.00000000000E+00 0.  1.
        -11    1    1    2    0    0 -0.11011483513E+02  0.39296113965E+01  0.49963456170E+03  0.49977133757E+03  0.00000000000E+00 0. -1.
         11    1    1    2    0    0  0.78559167969E-01 -0.61759094251E+01 -0.16492976783E+03  0.16504537662E+03  0.00000000000E+00 0.  1.
        -15    1    1    2    0    0  0.33801923625E+01  0.76285389626E+00 -0.19794795763E+02  0.20174224020E+02  0.17770000000E+01 0. -1.
         15    1    1    2    0    0  0.75527319825E+01  0.14834441324E+01 -0.31490999811E+03  0.31500906178E+03  0.17770000000E+01 0.  1.
</event>
<event>
 6    1  0.2408691E-003  0.5168714E+03  0.7546771E-02  0.9362830E-01
        -11   -1    0    0    0    0  0.00000000000E+00  0.00000000000E+00  0.50000000000E+03  0.50000000000E+03  0.00000000000E+00 0.  1.
         11   -1    0    0    0    0 -0.00000000000E+00 -0.00000000000E+00 -0.50000000000E+03  0.50000000000E+03  0.00000000000E+00 0. -1.
        -11    1    1    2    0    0 -0.45476837885E+01  0.48969126133E+01  0.47321307825E+03  0.47326026519E+03  0.00000000000E+00 0.  1.
         11    1    1    2    0    0  0.61411889918E+01 -0.44102047161E+01 -0.48306944973E+03  0.48312861370E+03  0.00000000000E+00 0. -1.
        -15    1    1    2    0    0  0.32054372209E+01 -0.30015723250E+01  0.26032208956E+02  0.26459741048E+02  0.17770000000E+01 0. -1.
         15    1    1    2    0    0 -0.47989424242E+01  0.25148644278E+01 -0.16175837468E+02  0.17151380069E+02  0.17770000000E+01 0.  1.
</event>
<event>
 6    1  0.2408691E-003  0.5734304E+03  0.7546771E-02  0.9249008E-01
        -11   -1    0    0    0    0  0.00000000000E+00  0.00000000000E+00  0.50000000000E+03  0.50000000000E+03  0.00000000000E+00 0. -1.
         11   -1    0    0    0    0 -0.00000000000E+00 -0.00000000000E+00 -0.50000000000E+03  0.50000000000E+03  0.00000000000E+00 0.  1.
        -11    1    1    2    0    0 -0.10477562762E+01 -0.86119511253E+01  0.42648134883E+03  0.42656957744E+03  0.00000000000E+00 0. -1.
         11    1    1    2    0    0  0.10794317511E+02 -0.62487415700E+01 -0.37881170513E+03  0.37901698116E+03  0.00000000000E+00 0.  1.
        -15    1    1    2    0    0 -0.33800214735E+02  0.36950662146E+02 -0.11174919206E+03  0.12246977425E+03  0.17770000000E+01 0.  1.
         15    1    1    2    0    0  0.24053653500E+02 -0.22089969450E+02  0.64079548359E+02  0.71943667157E+02  0.17770000000E+01 0. -1.
</event>
<event>
 6    1  0.2408691E-003  0.5212613E+03  0.7546771E-02  0.9353454E-01
        -11   -1    0    0    0    0  0.00000000000E+00  0.00000000000E+00  0.50000000000E+03  0.50000000000E+03  0.00000000000E+00 0. -1.
         11   -1    0    0    0    0 -0.00000000000E+00 -0.00000000000E+00 -0.50000000000E+03  0.50000000000E+03  0.00000000000E+00 0.  1.
        -11    1    1    2    0    0 -0.10313141445E+02  0.70580690568E+01  0.46280360136E+03  0.46297230010E+03  0.00000000000E+00 0. -1.
         11    1    1    2    0    0  0.37876387725E+01 -0.99534087121E+01 -0.47862021921E+03  0.47873868738E+03  0.00000000000E+00 0.  1.
        -15    1    1    2    0    0  0.86704495515E+01 -0.15750569673E+02  0.29777505294E+02  0.34829796023E+02  0.17770000000E+01 0.  1.
         15    1    1    2    0    0 -0.21449468787E+01  0.18645909328E+02 -0.13960887440E+02  0.23459216502E+02  0.17770000000E+01 0. -1.
</event>
<event>
 6    1  0.2408691E-003  0.4864629E+03  0.7546771E-02  0.9430620E-01
        -11   -1    0    0    0    0  0.00000000000E+00  0.00000000000E+00  0.50000000000E+03  0.50000000000E+03  0.00000000000E+00 0.  1.
         11   -1    0    0    0    0 -0.00000000000E+00 -0.00000000000E+00 -0.50000000000E+03  0.50000000000E+03  0.00000000000E+00 0.  1.
        -11    1    1    2    0    0  0.99398384250E+01  0.63969206236E+01  0.48383039966E+03  0.48397476857E+03  0.00000000000E+00 0.  1.
         11    1    1    2    0    0  0.54416921819E+01  0.38189393897E+01 -0.48909526793E+03  0.48914044754E+03  0.00000000000E+00 0.  1.
        -15    1    1    2    0    0 -0.14841763941E+02 -0.85592153467E+01  0.11133843645E+02  0.20509956790E+02  0.17770000000E+01 0.  1.
         15    1    1    2    0    0 -0.53976666592E+00 -0.16566446666E+01 -0.58689753751E+01  0.63748271003E+01  0.17770000000E+01 0. -1.
</event>
<event>
 6    1  0.2408691E-003  0.5284293E+03  0.7546771E-02  0.9338352E-01
        -11   -1    0    0    0    0  0.00000000000E+00  0.00000000000E+00  0.50000000000E+03  0.50000000000E+03  0.00000000000E+00 0.  1.
         11   -1    0    0    0    0 -0.00000000000E+00 -0.00000000000E+00 -0.50000000000E+03  0.50000000000E+03  0.00000000000E+00 0.  1.
        -11    1    1    2    0    0 -0.93476911194E+01  0.75782394310E+01  0.45925097421E+03  0.45940860501E+03  0.00000000000E+00 0.  1.
         11    1    1    2    0    0  0.23623905778E+01 -0.69680858520E+01 -0.47151334119E+03  0.47157074340E+03  0.00000000000E+00 0.  1.
        -15    1    1    2    0    0 -0.39217519681E+01 -0.32572616246E+02  0.12629611756E+02  0.35199720023E+02  0.17770000000E+01 0.  1.
         15    1    1    2    0    0  0.10907052510E+02  0.31962462667E+02 -0.36724477450E+00  0.33820931565E+02  0.17770000000E+01 0. -1.
</event>
<event>
 6    1  0.2408691E-003  0.5110047E+03  0.7546771E-02  0.9375517E-01
        -11   -1    0    0    0    0  0.00000000000E+00  0.00000000000E+00  0.50000000000E+03  0.50000000000E+03  0.00000000000E+00 0.  1.
         11   -1    0    0    0    0 -0.00000000000E+00 -0.00000000000E+00 -0.50000000000E+03  0.50000000000E+03  0.00000000000E+00 0.  1.
        -11    1    1    2    0    0 -0.47451152197E+01 -0.51402543923E+01  0.46975935229E+03  0.46981143813E+03  0.00000000000E+00 0.  1.
         11    1    1    2    0    0 -0.18578414380E+02  0.84877256928E+01 -0.48856855258E+03  0.48899532670E+03  0.00000000000E+00 0.  1.
        -15    1    1    2    0    0  0.12057818530E+02  0.67946180398E+00  0.24840503925E+02  0.27677807360E+02  0.17770000000E+01 0. -1.
         15    1    1    2    0    0  0.11265711070E+02 -0.40269331045E+01 -0.60313036434E+01  0.13515427806E+02  0.17770000000E+01 0.  1.
</event>
<event>
 6    1  0.2408691E-003  0.5003384E+03  0.7546771E-02  0.9399053E-01
        -11   -1    0    0    0    0  0.00000000000E+00  0.00000000000E+00  0.50000000000E+03  0.50000000000E+03  0.00000000000E+00 0. -1.
         11   -1    0    0    0    0 -0.00000000000E+00 -0.00000000000E+00 -0.50000000000E+03  0.50000000000E+03  0.00000000000E+00 0. -1.
        -11    1    1    2    0    0 -0.45893265592E+01  0.72486874199E+01  0.23654124367E+03  0.23669677932E+03  0.00000000000E+00 0. -1.
         11    1    1    2    0    0  0.47561951970E+01 -0.95070756179E+01 -0.49954853423E+03  0.49966162943E+03  0.00000000000E+00 0. -1.
        -15    1    1    2    0    0  0.51067649863E+01  0.83996423929E+01  0.14352557074E+03  0.14387279182E+03  0.17770000000E+01 0.  1.
         15    1    1    2    0    0 -0.52736336241E+01 -0.61412541949E+01  0.11948171982E+03  0.11976879942E+03  0.17770000000E+01 0. -1.
</event>
<event>
 6    1  0.2408691E-003  0.5008153E+03  0.7546771E-02  0.9397987E-01
        -11   -1    0    0    0    0  0.00000000000E+00  0.00000000000E+00  0.50000000000E+03  0.50000000000E+03  0.00000000000E+00 0.  1.
         11   -1    0    0    0    0 -0.00000000000E+00 -0.00000000000E+00 -0.50000000000E+03  0.50000000000E+03  0.00000000000E+00 0. -1.
        -11    1    1    2    0    0 -0.48691890894E+01  0.90907070961E+01  0.49907811572E+03  0.49918465075E+03  0.00000000000E+00 0.  1.
         11    1    1    2    0    0 -0.40206109437E+01  0.44099210194E+01 -0.27178220858E+03  0.27184771769E+03  0.00000000000E+00 0. -1.
        -15    1    1    2    0    0 -0.68351237385E+01 -0.24029666556E+01 -0.41131207006E+02  0.41802237788E+02  0.17770000000E+01 0.  1.
         15    1    1    2    0    0  0.15724923772E+02 -0.11097661460E+02 -0.18616470013E+03  0.18716539376E+03  0.17770000000E+01 0. -1.
</event>
<event>
 6    1  0.2408691E-003  0.5000872E+03  0.7546771E-02  0.9399615E-01
        -11   -1    0    0    0    0  0.00000000000E+00  0.00000000000E+00  0.50000000000E+03  0.50000000000E+03  0.00000000000E+00 0.  1.
         11   -1    0    0    0    0 -0.00000000000E+00 -0.00000000000E+00 -0.50000000000E+03  0.50000000000E+03  0.00000000000E+00 0.  1.
        -11    1    1    2    0    0 -0.15014946904E+01  0.72974946419E+00  0.77345347112E+02  0.77363361745E+02  0.00000000000E+00 0.  1.
         11    1    1    2    0    0  0.10728261740E+02 -0.40443407572E+00 -0.49979754050E+03  0.49991283306E+03  0.00000000000E+00 0.  1.
        -15    1    1    2    0    0  0.21802180339E+01  0.17203923956E+01  0.11768070199E+03  0.11772688075E+03  0.17770000000E+01 0.  1.
         15    1    1    2    0    0 -0.11406985084E+02 -0.20457077840E+01  0.30477149140E+03  0.30499692445E+03  0.17770000000E+01 0.  1.
</event>
<event>
 6    1  0.2408691E-003  0.4833397E+03  0.7546771E-02  0.9437880E-01
        -11   -1    0    0    0    0  0.00000000000E+00  0.00000000000E+00  0.50000000000E+03  0.50000000000E+03  0.00000000000E+00 0. -1.
         11   -1    0    0    0    0 -0.00000000000E+00 -0.00000000000E+00 -0.50000000000E+03  0.50000000000E+03  0.00000000000E+00 0. -1.
        -11    1    1    2    0    0  0.12441730300E+02 -0.53207197714E+01  0.48039913914E+03  0.48058967904E+03  0.00000000000E+00 0. -1.
         11    1    1    2    0    0  0.58927522379E+01  0.16495634251E+02 -0.48602904645E+03  0.48634459437E+03  0.00000000000E+00 0. -1.
        -15    1    1    2    0    0 -0.14618359016E+02 -0.18529889181E+02  0.66219867808E+01  0.24577665701E+02  0.17770000000E+01 0.  1.
         15    1    1    2    0    0 -0.37161235226E+01  0.73549747022E+01 -0.99207947054E+00  0.84880608846E+01  0.17770000000E+01 0. -1.
</event>
<event>
 6    1  0.2408691E-003  0.5029063E+03  0.7546771E-02  0.9393330E-01
        -11   -1    0    0    0    0  0.00000000000E+00  0.00000000000E+00  0.50000000000E+03  0.50000000000E+03  0.00000000000E+00 0. -1.
         11   -1    0    0    0    0 -0.00000000000E+00 -0.00000000000E+00 -0.50000000000E+03  0.50000000000E+03  0.00000000000E+00 0.  1.
        -11    1    1    2    0    0  0.20309506295E+02 -0.22366845955E+02  0.49617476405E+03  0.49709370175E+03  0.00000000000E+00 0. -1.
         11    1    1    2    0    0 -0.71070263485E+01  0.78232609149E+01 -0.42359216726E+03  0.42372401088E+03  0.00000000000E+00 0.  1.
        -15    1    1    2    0    0  0.10987439422E+00 -0.53651200125E+01 -0.27778707883E+02  0.28348032132E+02  0.17770000000E+01 0.  1.
         15    1    1    2    0    0 -0.13312354341E+02  0.19908705053E+02 -0.44803888907E+02  0.50834255234E+02  0.17770000000E+01 0. -1.
</event>
<event>
 6    1  0.2408691E-003  0.4809901E+03  0.7546771E-02  0.9443380E-01
        -11   -1    0    0    0    0  0.00000000000E+00  0.00000000000E+00  0.50000000000E+03  0.50000000000E+03  0.00000000000E+00 0.  1.
         11   -1    0    0    0    0 -0.00000000000E+00 -0.00000000000E+00 -0.50000000000E+03  0.50000000000E+03  0.00000000000E+00 0. -1.
        -11    1    1    2    0    0  0.16937513809E+01  0.72994370491E+01  0.47847304492E+03  0.47853171817E+03  0.00000000000E+00 0.  1.
         11    1    1    2    0    0 -0.12594161289E+02  0.15148991334E+02 -0.48338333716E+03  0.48378461682E+03  0.00000000000E+00 0. -1.
        -15    1    1    2    0    0  0.25912307437E+01 -0.10317847715E+01  0.12884462010E+02  0.13302110617E+02  0.17770000000E+01 0. -1.
         15    1    1    2    0    0  0.83091791647E+01 -0.21416643612E+02 -0.79741697751E+01  0.24381554393E+02  0.17770000000E+01 0.  1.
</event>
<event>
 6    1  0.2408691E-003  0.5033458E+03  0.7546771E-02  0.9392354E-01
        -11   -1    0    0    0    0  0.00000000000E+00  0.00000000000E+00  0.50000000000E+03  0.50000000000E+03  0.00000000000E+00 0.  1.
         11   -1    0    0    0    0 -0.00000000000E+00 -0.00000000000E+00 -0.50000000000E+03  0.50000000000E+03  0.00000000000E+00 0.  1.
        -11    1    1    2    0    0 -0.79761737469E+01  0.35936211770E+01  0.49657717573E+03  0.49665423075E+03  0.00000000000E+00 0.  1.
         11    1    1    2    0    0  0.23043625956E+01 -0.10847640983E+02 -0.48796263455E+03  0.48808863346E+03  0.00000000000E+00 0.  1.
        -15    1    1    2    0    0  0.45048592667E+01  0.87442544561E+01 -0.68969163789E+01  0.12144172575E+02  0.17770000000E+01 0. -1.
         15    1    1    2    0    0  0.11669518846E+01 -0.14902346506E+01 -0.17176248051E+01  0.31129632163E+01  0.17770000000E+01 0.  1.
</event>
<event>
 6    1  0.2408691E-003  0.5148884E+03  0.7546771E-02  0.9367098E-01
        -11   -1    0    0    0    0  0.00000000000E+00  0.00000000000E+00  0.50000000000E+03  0.50000000000E+03  0.00000000000E+00 0. -1.
         11   -1    0    0    0    0 -0.00000000000E+00 -0.00000000000E+00 -0.50000000000E+03  0.50000000000E+03  0.00000000000E+00 0. -1.
        -11    1    1    2    0    0 -0.24415176581E+02 -0.16920458787E+02  0.48420126103E+03  0.48511159948E+03  0.00000000000E+00 0. -1.
         11    1    1    2    0    0 -0.66736787470E+01  0.22978159575E+01 -0.43112500872E+03  0.43118278153E+03  0.00000000000E+00 0. -1.
        -15    1    1    2    0    0  0.35806371218E+02  0.55339293850E+01 -0.60770842401E+02  0.70774102674E+02  0.17770000000E+01 0.  1.
         15    1    1    2    0    0 -0.47175158898E+01  0.90887134445E+01  0.76945900960E+01  0.12931516307E+02  0.17770000000E+01 0. -1.
</event>
<event>
 6    1  0.2408691E-003  0.5004832E+03  0.7546771E-02  0.9398729E-01
        -11   -1    0    0    0    0  0.00000000000E+00  0.00000000000E+00  0.50000000000E+03  0.50000000000E+03  0.00000000000E+00 0. -1.
         11   -1    0    0    0    0 -0.00000000000E+00 -0.00000000000E+00 -0.50000000000E+03  0.50000000000E+03  0.00000000000E+00 0. -1.
        -11    1    1    2    0    0  0.41591587473E+01  0.10517422498E+02  0.49938874996E+03  0.49951680488E+03  0.00000000000E+00 0. -1.
         11    1    1    2    0    0 -0.33453097938E+00  0.15966436018E+01 -0.10352112888E+03  0.10353398141E+03  0.00000000000E+00 0. -1.
        -15    1    1    2    0    0  0.26317632085E+01 -0.53274793038E+01 -0.35212478039E+03  0.35217939592E+03  0.17770000000E+01 0. -1.
         15    1    1    2    0    0 -0.64563909765E+01 -0.67865867963E+01 -0.43742840679E+02  0.44769817785E+02  0.17770000000E+01 0.  1.
</event>
<event>
 6    1  0.2408691E-003  0.5001855E+03  0.7546771E-02  0.9399395E-01
        -11   -1    0    0    0    0  0.00000000000E+00  0.00000000000E+00  0.50000000000E+03  0.50000000000E+03  0.00000000000E+00 0.  1.
         11   -1    0    0    0    0 -0.00000000000E+00 -0.00000000000E+00 -0.50000000000E+03  0.50000000000E+03  0.00000000000E+00 0. -1.
        -11    1    1    2    0    0 -0.15852816246E+01 -0.54930892861E+00  0.10134692458E+03  0.10136081087E+03  0.00000000000E+00 0.  1.
         11    1    1    2    0    0  0.38360865860E+01  0.63691464096E+01 -0.49975914681E+03  0.49981445198E+03  0.00000000000E+00 0. -1.
        -15    1    1    2    0    0 -0.45333116586E+01  0.45932675325E+01  0.20648744493E+03  0.20659591396E+03  0.17770000000E+01 0.  1.
         15    1    1    2    0    0  0.22825066972E+01 -0.10413105014E+02  0.19192477730E+03  0.19222882319E+03  0.17770000000E+01 0. -1.
</event>
<event>
 6    1  0.2408691E-003  0.5041148E+03  0.7546771E-02  0.9390649E-01
        -11   -1    0    0    0    0  0.00000000000E+00  0.00000000000E+00  0.50000000000E+03  0.50000000000E+03  0.00000000000E+00 0. -1.
         11   -1    0    0    0    0 -0.00000000000E+00 -0.00000000000E+00 -0.50000000000E+03  0.50000000000E+03  0.00000000000E+00 0. -1.
        -11    1    1    2    0    0  0.21483322264E+01  0.20418117937E+02  0.49546001900E+03  0.49588521384E+03  0.00000000000E+00 0. -1.
         11    1    1    2    0    0  0.34883938901E+01 -0.40816683089E+01 -0.34336635210E+03  0.34340832934E+03  0.00000000000E+00 0. -1.
        -15    1    1    2    0    0 -0.20010929272E+01  0.31350274325E+01 -0.13323613113E+03  0.13329987674E+03  0.17770000000E+01 0. -1.
         15    1    1    2    0    0 -0.36356331893E+01 -0.19471477060E+02 -0.18857535769E+02  0.27406580084E+02  0.17770000000E+01 0.  1.
</event>
<event>
 6    1  0.2408691E-003  0.5068568E+03  0.7546771E-02  0.9384596E-01
        -11   -1    0    0    0    0  0.00000000000E+00  0.00000000000E+00  0.50000000000E+03  0.50000000000E+03  0.00000000000E+00 0.  1.
         11   -1    0    0    0    0 -0.00000000000E+00 -0.00000000000E+00 -0.50000000000E+03  0.50000000000E+03  0.00000000000E+00 0. -1.
        -11    1    1    2    0    0  0.48242103037E+01  0.98663858470E+01  0.49302087999E+03  0.49314319085E+03  0.00000000000E+00 0.  1.
         11    1    1    2    0    0 -0.56253871945E+01  0.73886898095E+01 -0.47721058219E+03  0.47730092968E+03  0.00000000000E+00 0. -1.
        -15    1    1    2    0    0 -0.30355304540E+01 -0.16098976942E+02 -0.18209493515E+02  0.24558804669E+02  0.17770000000E+01 0.  1.
         15    1    1    2    0    0  0.38367073449E+01 -0.11560987141E+01  0.23991957187E+01  0.49970748027E+01  0.17770000000E+01 0. -1.
</event>
<event>
 6    1  0.2408691E-003  0.5061889E+03  0.7546771E-02  0.9386067E-01
        -11   -1    0    0    0    0  0.00000000000E+00  0.00000000000E+00  0.50000000000E+03  0.50000000000E+03  0.00000000000E+00 0. -1.
         11   -1    0    0    0    0 -0.00000000000E+00 -0.00000000000E+00 -0.50000000000E+03  0.50000000000E+03  0.00000000000E+00 0.  1.
        -11    1    1    2    0    0 -0.98277318647E+01  0.64108649665E+01  0.44383214556E+03  0.44398722609E+03  0.00000000000E+00 0. -1.
         11    1    1    2    0    0  0.58059026975E+01  0.13663966372E+02 -0.49358791191E+03  0.49381113725E+03  0.00000000000E+00 0.  1.
        -15    1    1    2    0    0 -0.11513678018E+01  0.58739792487E+01  0.50408366823E+00  0.62642724537E+01  0.17770000000E+01 0. -1.
         15    1    1    2    0    0  0.51731969690E+01 -0.25948810588E+02  0.49251682688E+02  0.55937364206E+02  0.17770000000E+01 0. -1.
</event>
<event>
 6    1  0.2408691E-003  0.4711339E+03  0.7546771E-02  0.9466822E-01
        -11   -1    0    0    0    0  0.00000000000E+00  0.00000000000E+00  0.50000000000E+03  0.50000000000E+03  0.00000000000E+00 0.  1.
         11   -1    0    0    0    0 -0.00000000000E+00 -0.00000000000E+00 -0.50000000000E+03  0.50000000000E+03  0.00000000000E+00 0.  1.
        -11    1    1    2    0    0  0.73462347842E+01  0.52527808999E+01  0.47488313868E+03  0.47496900349E+03  0.00000000000E+00 0.  1.
         11    1    1    2    0    0  0.70031749255E+01 -0.19793408493E+01 -0.46738680351E+03  0.46744345791E+03  0.00000000000E+00 0.  1.
        -15    1    1    2    0    0 -0.12663313304E+02  0.20894346277E+01  0.23069043909E+02  0.26458717973E+02  0.17770000000E+01 0.  1.
         15    1    1    2    0    0 -0.16860964059E+01 -0.53628746782E+01 -0.30565379080E+02  0.31128820620E+02  0.17770000000E+01 0. -1.
</event>
<event>
 6    1  0.2408691E-003  0.5006832E+03  0.7546771E-02  0.9398282E-01
        -11   -1    0    0    0    0  0.00000000000E+00  0.00000000000E+00  0.50000000000E+03  0.50000000000E+03  0.00000000000E+00 0.  1.
         11   -1    0    0    0    0 -0.00000000000E+00 -0.00000000000E+00 -0.50000000000E+03  0.50000000000E+03  0.00000000000E+00 0.  1.
        -11    1    1    2    0    0  0.15512033233E+01  0.46283270656E+01  0.24793438664E+03  0.24798243430E+03  0.00000000000E+00 0.  1.
         11    1    1    2    0    0  0.78369270518E+01  0.98567706239E+01 -0.49915798101E+03  0.49931679659E+03  0.00000000000E+00 0.  1.
        -15    1    1    2    0    0 -0.57400666342E+01 -0.87410119420E+01  0.40692481923E+02  0.42052223113E+02  0.17770000000E+01 0. -1.
         15    1    1    2    0    0 -0.36480637409E+01 -0.57440857475E+01  0.21053111245E+03  0.21064854599E+03  0.17770000000E+01 0.  1.
</event>
<event>
 6    1  0.2408691E-003  0.5002895E+03  0.7546771E-02  0.9399162E-01
        -11   -1    0    0    0    0  0.00000000000E+00  0.00000000000E+00  0.50000000000E+03  0.50000000000E+03  0.00000000000E+00 0. -1.
         11   -1    0    0    0    0 -0.00000000000E+00 -0.00000000000E+00 -0.50000000000E+03  0.50000000000E+03  0.00000000000E+00 0. -1.
        -11    1    1    2    0    0 -0.12579217290E+01 -0.51164798361E+00  0.96070146725E+02  0.96079744184E+02  0.00000000000E+00 0. -1.
         11    1    1    2    0    0 -0.71107368815E+01 -0.27099757828E+00 -0.49965985652E+03  0.49971052444E+03  0.00000000000E+00 0. -1.
        -15    1    1    2    0    0  0.26844885348E+01  0.42704478597E+01  0.36286108562E+03  0.36290049378E+03  0.17770000000E+01 0. -1.
         15    1    1    2    0    0  0.56841700757E+01 -0.34878022978E+01  0.40728624178E+02  0.41309237596E+02  0.17770000000E+01 0.  1.
</event>
<event>
 6    1  0.2408691E-003  0.5043861E+03  0.7546771E-02  0.9390049E-01
        -11   -1    0    0    0    0  0.00000000000E+00  0.00000000000E+00  0.50000000000E+03  0.50000000000E+03  0.00000000000E+00 0. -1.
         11   -1    0    0    0    0 -0.00000000000E+00 -0.00000000000E+00 -0.50000000000E+03  0.50000000000E+03  0.00000000000E+00 0.  1.
        -11    1    1    2    0    0  0.15435222927E+02  0.11904331554E+02  0.38819093838E+03  0.38868002760E+03  0.00000000000E+00 0. -1.
         11    1    1    2    0    0 -0.19284094214E+02 -0.10446193361E+02 -0.49512838718E+03  0.49561388100E+03  0.00000000000E+00 0.  1.
        -15    1    1    2    0    0 -0.11377405817E+02 -0.16204570041E+01  0.96410557861E+02  0.97109343732E+02  0.17770000000E+01 0. -1.
         15    1    1    2    0    0  0.15226277104E+02  0.16231881092E+00  0.10526890946E+02  0.18596747668E+02  0.17770000000E+01 0.  1.
</event>
<event>
 6    1  0.2408691E-003  0.5038629E+03  0.7546771E-02  0.9391207E-01
        -11   -1    0    0    0    0  0.00000000000E+00  0.00000000000E+00  0.50000000000E+03  0.50000000000E+03  0.00000000000E+00 0.  1.
         11   -1    0    0    0    0 -0.00000000000E+00 -0.00000000000E+00 -0.50000000000E+03  0.50000000000E+03  0.00000000000E+00 0.  1.
        -11    1    1    2    0    0 -0.97175257905E+01  0.78785847250E+01  0.49597937901E+03  0.49613712500E+03  0.00000000000E+00 0.  1.
         11    1    1    2    0    0  0.59627301768E+01  0.11026094039E+02 -0.43530962113E+03  0.43549006320E+03  0.00000000000E+00 0.  1.
        -15    1    1    2    0    0  0.72943322184E+01  0.32319096516E+01 -0.24031796587E+02  0.25383803866E+02  0.17770000000E+01 0.  1.
         15    1    1    2    0    0 -0.35395366046E+01 -0.22136588415E+02 -0.36637961295E+02  0.42989007931E+02  0.17770000000E+01 0. -1.
</event>
<event>
 6    1  0.2408691E-003  0.5000838E+03  0.7546771E-02  0.9399622E-01
        -11   -1    0    0    0    0  0.00000000000E+00  0.00000000000E+00  0.50000000000E+03  0.50000000000E+03  0.00000000000E+00 0.  1.
         11   -1    0    0    0    0 -0.00000000000E+00 -0.00000000000E+00 -0.50000000000E+03  0.50000000000E+03  0.00000000000E+00 0.  1.
        -11    1    1    2    0    0  0.10434448925E+01  0.95362875164E+01  0.49982419038E+03  0.49991624383E+03  0.00000000000E+00 0.  1.
         11    1    1    2    0    0 -0.33653520826E+01 -0.25053754192E+01 -0.10548105627E+03  0.10556446245E+03  0.00000000000E+00 0.  1.
        -15    1    1    2    0    0 -0.94718865003E+00 -0.62600490848E+01 -0.14704387837E+03  0.14719084644E+03  0.17770000000E+01 0. -1.
         15    1    1    2    0    0  0.32690958402E+01 -0.77086301228E+00 -0.24729925573E+03  0.24732844728E+03  0.17770000000E+01 0.  1.
</event>
<event>
 6    1  0.2408691E-003  0.5009673E+03  0.7546771E-02  0.9397648E-01
        -11   -1    0    0    0    0  0.00000000000E+00  0.00000000000E+00  0.50000000000E+03  0.50000000000E+03  0.00000000000E+00 0. -1.
         11   -1    0    0    0    0 -0.00000000000E+00 -0.00000000000E+00 -0.50000000000E+03  0.50000000000E+03  0.00000000000E+00 0.  1.
        -11    1    1    2    0    0 -0.76041617118E+01  0.16262165173E+00  0.28638877699E+03  0.28648975777E+03  0.00000000000E+00 0. -1.
         11    1    1    2    0    0  0.12816285067E+02 -0.15095673633E+02 -0.49863969143E+03  0.49903274281E+03  0.00000000000E+00 0.  1.
        -15    1    1    2    0    0  0.78821692937E+01  0.90207017687E+01  0.15320183262E+03  0.15367973484E+03  0.17770000000E+01 0. -1.
         15    1    1    2    0    0 -0.13094292648E+02  0.59123502126E+01  0.59049081821E+02  0.60797764580E+02  0.17770000000E+01 0.  1.
</event>
<event>
 6    1  0.2408691E-003  0.4869430E+03  0.7546771E-02  0.9429509E-01
        -11   -1    0    0    0    0  0.00000000000E+00  0.00000000000E+00  0.50000000000E+03  0.50000000000E+03  0.00000000000E+00 0. -1.
         11   -1    0    0    0    0 -0.00000000000E+00 -0.00000000000E+00 -0.50000000000E+03  0.50000000000E+03  0.00000000000E+00 0. -1.
        -11    1    1    2    0    0  0.76256645137E+01 -0.10375846653E+02  0.48994855514E+03  0.49011773651E+03  0.00000000000E+00 0. -1.
         11    1    1    2    0    0  0.51455420880E+01  0.48710512995E+01 -0.48383493976E+03  0.48388681804E+03  0.00000000000E+00 0. -1.
        -15    1    1    2    0    0 -0.40887405941E+01 -0.37893809027E+01 -0.10834060979E+02  0.12313074903E+02  0.17770000000E+01 0.  1.
         15    1    1    2    0    0 -0.86824660076E+01  0.92941762562E+01  0.47204455952E+01  0.13682370550E+02  0.17770000000E+01 0. -1.
</event>
<event>
 6    1  0.2408691E-003  0.5034003E+03  0.7546771E-02  0.9392233E-01
        -11   -1    0    0    0    0  0.00000000000E+00  0.00000000000E+00  0.50000000000E+03  0.50000000000E+03  0.00000000000E+00 0. -1.
         11   -1    0    0    0    0 -0.00000000000E+00 -0.00000000000E+00 -0.50000000000E+03  0.50000000000E+03  0.00000000000E+00 0. -1.
        -11    1    1    2    0    0  0.70699183258E+01  0.14483111137E+01  0.49654723407E+03  0.49659967480E+03  0.00000000000E+00 0. -1.
         11    1    1    2    0    0 -0.10554778137E+01 -0.93438785867E+01 -0.46868166680E+03  0.46877598797E+03  0.00000000000E+00 0. -1.
        -15    1    1    2    0    0 -0.34905983903E+01 -0.35368631903E+01 -0.11490945243E+01  0.54010948496E+01  0.17770000000E+01 0. -1.
         15    1    1    2    0    0 -0.25238421218E+01  0.11432430663E+02 -0.26716472749E+02  0.29223242378E+02  0.17770000000E+01 0.  1.
</event>
<event>
 6    1  0.2408691E-003  0.5071307E+03  0.7546771E-02  0.9383994E-01
        -11   -1    0    0    0    0  0.00000000000E+00  0.00000000000E+00  0.50000000000E+03  0.50000000000E+03  0.00000000000E+00 0. -1.
         11   -1    0    0    0    0 -0.00000000000E+00 -0.00000000000E+00 -0.50000000000E+03  0.50000000000E+03  0.00000000000E+00 0. -1.
        -11    1    1    2    0    0  0.71228503525E+01 -0.15059554238E+01  0.41887554096E+03  0.41893880426E+03  0.00000000000E+00 0. -1.
         11    1    1    2    0    0 -0.11631419993E+02  0.12986912746E+02 -0.49256087117E+03  0.49286931497E+03  0.00000000000E+00 0. -1.
        -15    1    1    2    0    0  0.17475566995E+02  0.56356582430E+01  0.10049960828E+02  0.21007511211E+02  0.17770000000E+01 0.  1.
         15    1    1    2    0    0 -0.12966997354E+02 -0.17116615565E+02  0.63635369374E+02  0.67184369560E+02  0.17770000000E+01 0. -1.
</event>
<event>
 6    1  0.2408691E-003  0.5080392E+03  0.7546771E-02  0.9381999E-01
        -11   -1    0    0    0    0  0.00000000000E+00  0.00000000000E+00  0.50000000000E+03  0.50000000000E+03  0.00000000000E+00 0. -1.
         11   -1    0    0    0    0 -0.00000000000E+00 -0.00000000000E+00 -0.50000000000E+03  0.50000000000E+03  0.00000000000E+00 0.  1.
        -11    1    1    2    0    0  0.12200631905E+02  0.78705193753E+01  0.43290918019E+03  0.43315258142E+03  0.00000000000E+00 0. -1.
         11    1    1    2    0    0  0.14651297180E+02  0.82746283272E+01 -0.49167294721E+03  0.49196078808E+03  0.00000000000E+00 0.  1.
        -15    1    1    2    0    0 -0.31456239924E+02 -0.39021538489E+01  0.49326103396E+02  0.58659560517E+02  0.17770000000E+01 0.  1.
         15    1    1    2    0    0  0.46043108388E+01 -0.12242993854E+02  0.94376636264E+01  0.16227069992E+02  0.17770000000E+01 0. -1.
</event>
<event>
 6    1  0.2408691E-003  0.5016702E+03  0.7546771E-02  0.9396080E-01
        -11   -1    0    0    0    0  0.00000000000E+00  0.00000000000E+00  0.50000000000E+03  0.50000000000E+03  0.00000000000E+00 0.  1.
         11   -1    0    0    0    0 -0.00000000000E+00 -0.00000000000E+00 -0.50000000000E+03  0.50000000000E+03  0.00000000000E+00 0.  1.
        -11    1    1    2    0    0  0.66136072442E+01  0.49503476017E+01  0.49826129210E+03  0.49832977129E+03  0.00000000000E+00 0.  1.
         11    1    1    2    0    0 -0.51288899362E+01 -0.36579195707E+01 -0.40714507479E+03  0.40719380867E+03  0.00000000000E+00 0.  1.
        -15    1    1    2    0    0  0.43469026422E+01 -0.49292324180E+01 -0.84495784357E+02  0.84769618366E+02  0.17770000000E+01 0. -1.
         15    1    1    2    0    0 -0.58316199502E+01  0.36368043871E+01 -0.66204329528E+01  0.97068016810E+01  0.17770000000E+01 0.  1.
</event>
<event>
 6    1  0.2502785E-003  0.5000898E+03  0.7546771E-02  0.9399609E-01
        -11   -1    0    0    0    0  0.00000000000E+00  0.00000000000E+00  0.50000000000E+03  0.50000000000E+03  0.00000000000E+00 0. -1.
         11   -1    0    0    0    0 -0.00000000000E+00 -0.00000000000E+00 -0.50000000000E+03  0.50000000000E+03  0.00000000000E+00 0.  1.
        -11    1    1    2    0    0  0.48238836238E+01 -0.10890481473E+02  0.49976826916E+03  0.49991018723E+03  0.00000000000E+00 0. -1.
         11    1    1    2    0    0 -0.11099686024E+01  0.37186294269E+00 -0.67526769048E+02  0.67536914724E+02  0.00000000000E+00 0.  1.
        -15    1    1    2    0    0 -0.16244063417E+01  0.43785545528E+01 -0.49345704335E+02  0.49598051385E+02  0.17770000000E+01 0. -1.
         15    1    1    2    0    0 -0.20895086797E+01  0.61400639773E+01 -0.38289579577E+03  0.38295484666E+03  0.17770000000E+01 0.  1.
</event>
<event>
 6    1  0.2408691E-003  0.5019393E+03  0.7546771E-02  0.9395481E-01
        -11   -1    0    0    0    0  0.00000000000E+00  0.00000000000E+00  0.50000000000E+03  0.50000000000E+03  0.00000000000E+00 0. -1.
         11   -1    0    0    0    0 -0.00000000000E+00 -0.00000000000E+00 -0.50000000000E+03  0.50000000000E+03  0.00000000000E+00 0.  1.
        -11    1    1    2    0    0  0.15018925373E+02  0.37319156766E+01  0.36988324755E+03  0.37020685047E+03  0.00000000000E+00 0. -1.
         11    1    1    2    0    0  0.47338848772E+01 -0.70808047122E+01 -0.49798782893E+03  0.49806066420E+03  0.00000000000E+00 0.  1.
        -15    1    1    2    0    0 -0.19788767795E+02  0.84393492045E+01  0.67025027460E+02  0.70415410109E+02  0.17770000000E+01 0. -1.
         15    1    1    2    0    0  0.35957545142E-01 -0.50904601689E+01  0.61079553917E+02  0.61317075218E+02  0.17770000000E+01 0.  1.
</event>
<event>
 6    1  0.2408691E-003  0.5022125E+03  0.7546771E-02  0.9394873E-01
        -11   -1    0    0    0    0  0.00000000000E+00  0.00000000000E+00  0.50000000000E+03  0.50000000000E+03  0.00000000000E+00 0.  1.
         11   -1    0    0    0    0 -0.00000000000E+00 -0.00000000000E+00 -0.50000000000E+03  0.50000000000E+03  0.00000000000E+00 0. -1.
        -11    1    1    2    0    0 -0.74890383077E+01 -0.14793303911E+02  0.49751124010E+03  0.49778746625E+03  0.00000000000E+00 0.  1.
         11    1    1    2    0    0  0.16586209525E+01  0.75113593868E+01 -0.42275766560E+03  0.42282764263E+03  0.00000000000E+00 0. -1.
        -15    1    1    2    0    0  0.10990116651E+02  0.74299486492E+00 -0.66820559443E+02  0.67745698009E+02  0.17770000000E+01 0. -1.
         15    1    1    2    0    0 -0.51596992956E+01  0.65389496597E+01 -0.79330150534E+01  0.11639193112E+02  0.17770000000E+01 0.  1.
</event>
<event>
 6    1  0.2408691E-003  0.4380423E+03  0.7546771E-02  0.9550229E-01
        -11   -1    0    0    0    0  0.00000000000E+00  0.00000000000E+00  0.50000000000E+03  0.50000000000E+03  0.00000000000E+00 0.  1.
         11   -1    0    0    0    0 -0.00000000000E+00 -0.00000000000E+00 -0.50000000000E+03  0.50000000000E+03  0.00000000000E+00 0. -1.
        -11    1    1    2    0    0 -0.19415397201E+02 -0.56232437545E+02  0.43888457552E+03  0.44289808683E+03  0.00000000000E+00 0.  1.
         11    1    1    2    0    0 -0.93675246408E+01 -0.10293615254E+02 -0.43596277591E+03  0.43618488169E+03  0.00000000000E+00 0. -1.
        -15    1    1    2    0    0  0.64061105923E+02  0.33234181537E+02 -0.47169792765E+01  0.72344617886E+02  0.17770000000E+01 0.  1.
         15    1    1    2    0    0 -0.35278184081E+02  0.33291871262E+02  0.17951796602E+01  0.48572413603E+02  0.17770000000E+01 0. -1.
</event>
<event>
 6    1  0.2408691E-003  0.5046016E+03  0.7546771E-02  0.9389572E-01
        -11   -1    0    0    0    0  0.00000000000E+00  0.00000000000E+00  0.50000000000E+03  0.50000000000E+03  0.00000000000E+00 0. -1.
         11   -1    0    0    0    0 -0.00000000000E+00 -0.00000000000E+00 -0.50000000000E+03  0.50000000000E+03  0.00000000000E+00 0.  1.
        -11    1    1    2    0    0  0.39763177745E+01  0.71536316694E+01  0.42091252301E+03  0.42099208731E+03  0.00000000000E+00 0. -1.
         11    1    1    2    0    0 -0.63401342089E+01  0.33286977802E+01 -0.49534665612E+03  0.49539841265E+03  0.00000000000E+00 0.  1.
        -15    1    1    2    0    0 -0.92564949447E+01 -0.27676149115E+01  0.66977120029E+02  0.67693683068E+02  0.17770000000E+01 0.  1.
         15    1    1    2    0    0  0.11620311379E+02 -0.77147145382E+01  0.74570130782E+01  0.15915816976E+02  0.17770000000E+01 0. -1.
</event>
<event>
 6    1  0.2408691E-003  0.4802410E+03  0.7546771E-02  0.9445141E-01
        -11   -1    0    0    0    0  0.00000000000E+00  0.00000000000E+00  0.50000000000E+03  0.50000000000E+03  0.00000000000E+00 0.  1.
         11   -1    0    0    0    0 -0.00000000000E+00 -0.00000000000E+00 -0.50000000000E+03  0.50000000000E+03  0.00000000000E+00 0. -1.
        -11    1    1    2    0    0  0.49534377337E+01 -0.13439235280E+02  0.47226733646E+03  0.47248448300E+03  0.00000000000E+00 0.  1.
         11    1    1    2    0    0  0.73429411227E+01 -0.11578581888E+02 -0.48834399102E+03  0.48853642230E+03  0.00000000000E+00 0. -1.
        -15    1    1    2    0    0  0.39280882411E+01  0.41790392651E+01 -0.26415462468E+01  0.65597059373E+01  0.17770000000E+01 0.  1.
         15    1    1    2    0    0 -0.16224467098E+02  0.20838777903E+02  0.18718200813E+02  0.32419388763E+02  0.17770000000E+01 0. -1.
</event>
<event>
 6    1  0.2408691E-003  0.5018997E+03  0.7546771E-02  0.9395569E-01
        -11   -1    0    0    0    0  0.00000000000E+00  0.00000000000E+00  0.50000000000E+03  0.50000000000E+03  0.00000000000E+00 0. -1.
         11   -1    0    0    0    0 -0.00000000000E+00 -0.00000000000E+00 -0.50000000000E+03  0.50000000000E+03  0.00000000000E+00 0.  1.
        -11    1    1    2    0    0  0.64573456930E+01  0.46777159295E+01  0.49803650978E+03  0.49810033469E+03  0.00000000000E+00 0. -1.
         11    1    1    2    0    0 -0.42200129533E+01  0.93944523527E+01 -0.45660283285E+03  0.45671896305E+03  0.00000000000E+00 0.  1.
        -15    1    1    2    0    0 -0.29553123958E+01 -0.50573439418E+01 -0.60123742834E+01  0.85800333698E+01  0.17770000000E+01 0.  1.
         15    1    1    2    0    0  0.71797965606E+00 -0.90148243404E+01 -0.35421302648E+02  0.36600668886E+02  0.17770000000E+01 0. -1.
</event>
<event>
 6    1  0.2408691E-003  0.5061473E+03  0.7546771E-02  0.9386159E-01
        -11   -1    0    0    0    0  0.00000000000E+00  0.00000000000E+00  0.50000000000E+03  0.50000000000E+03  0.00000000000E+00 0.  1.
         11   -1    0    0    0    0 -0.00000000000E+00 -0.00000000000E+00 -0.50000000000E+03  0.50000000000E+03  0.00000000000E+00 0.  1.
        -11    1    1    2    0    0  0.85261673178E+01  0.14919985733E+02  0.41950958050E+02  0.45334141491E+02  0.00000000000E+00 0.  1.
         11    1    1    2    0    0 -0.97494245373E+00  0.12158003640E+02 -0.49370202928E+03  0.49385267163E+03  0.00000000000E+00 0.  1.
        -15    1    1    2    0    0  0.29731456585E+02 -0.15319883543E+01  0.66074065945E+02  0.72493078418E+02  0.17770000000E+01 0. -1.
         15    1    1    2    0    0 -0.37282681449E+02 -0.25546001018E+02  0.38567700528E+03  0.38832010846E+03  0.17770000000E+01 0.  1.
</event>
<event>
 6    1  0.2408691E-003  0.5073439E+03  0.7546771E-02  0.9383525E-01
        -11   -1    0    0    0    0  0.00000000000E+00  0.00000000000E+00  0.50000000000E+03  0.50000000000E+03  0.00000000000E+00 0. -1.
         11   -1    0    0    0    0 -0.00000000000E+00 -0.00000000000E+00 -0.50000000000E+03  0.50000000000E+03  0.00000000000E+00 0.  1.
        -11    1    1    2    0    0  0.70263210598E+01  0.55067920176E+01  0.49257516252E+03  0.49265605109E+03  0.00000000000E+00 0. -1.
         11    1    1    2    0    0 -0.11233142177E+02 -0.11391690031E+02 -0.43901071339E+03  0.43930212902E+03  0.00000000000E+00 0.  1.
        -15    1    1    2    0    0 -0.16475678384E+02  0.54642729675E+01 -0.10846697849E+02  0.20545433568E+02  0.17770000000E+01 0.  1.
         15    1    1    2    0    0  0.20682499501E+02  0.42062504564E+00 -0.42717751274E+02  0.47496386326E+02  0.17770000000E+01 0. -1.
</event>
<event>
 6    1  0.2408691E-003  0.5038093E+03  0.7546771E-02  0.9391326E-01
        -11   -1    0    0    0    0  0.00000000000E+00  0.00000000000E+00  0.50000000000E+03  0.50000000000E+03  0.00000000000E+00 0.  1.
         11   -1    0    0    0    0 -0.00000000000E+00 -0.00000000000E+00 -0.50000000000E+03  0.50000000000E+03  0.00000000000E+00 0.  1.
        -11    1    1    2    0    0  0.70579698123E+01  0.29522449962E+01  0.49613172820E+03  0.49619071174E+03  0.00000000000E+00 0.  1.
         11    1    1    2    0    0 -0.63623567941E+01 -0.51075605964E+01 -0.48003529150E+03  0.48010462177E+03  0.00000000000E+00 0.  1.
        -15    1    1    2    0    0  0.17515597722E+00  0.47277709892E+01  0.19140753394E+01  0.54040643545E+01  0.17770000000E+01 0. -1.
         15    1    1    2    0    0 -0.87076899535E+00 -0.25724553891E+01 -0.18010512043E+02  0.18300602133E+02  0.17770000000E+01 0. -1.
</event>
<event>
 6    1  0.2408691E-003  0.5044401E+03  0.7546771E-02  0.9389929E-01
        -11   -1    0    0    0    0  0.00000000000E+00  0.00000000000E+00  0.50000000000E+03  0.50000000000E+03  0.00000000000E+00 0. -1.
         11   -1    0    0    0    0 -0.00000000000E+00 -0.00000000000E+00 -0.50000000000E+03  0.50000000000E+03  0.00000000000E+00 0. -1.
        -11    1    1    2    0    0  0.33642732672E+01  0.12791348357E+02  0.35863535641E+03  0.35887916601E+03  0.00000000000E+00 0. -1.
         11    1    1    2    0    0 -0.13321906496E+02 -0.10882979349E+02 -0.49526128227E+03  0.49555993598E+03  0.00000000000E+00 0. -1.
        -15    1    1    2    0    0  0.42956051686E+01  0.74558424706E+01  0.13384248869E+03  0.13413057562E+03  0.17770000000E+01 0.  1.
         15    1    1    2    0    0  0.56620280600E+01 -0.93642114788E+01  0.27834371791E+01  0.11430322388E+02  0.17770000000E+01 0. -1.
</event>
<event>
 6    1  0.2408691E-003  0.5005504E+03  0.7546771E-02  0.9398579E-01
        -11   -1    0    0    0    0  0.00000000000E+00  0.00000000000E+00  0.50000000000E+03  0.50000000000E+03  0.00000000000E+00 0. -1.
         11   -1    0    0    0    0 -0.00000000000E+00 -0.00000000000E+00 -0.50000000000E+03  0.50000000000E+03  0.00000000000E+00 0. -1.
        -11    1    1    2    0    0  0.54026875477E+01  0.71948059226E+01  0.49936853946E+03  0.49944958952E+03  0.00000000000E+00 0. -1.
         11    1    1    2    0    0 -0.69952193923E+01 -0.20922799238E+01 -0.42178837606E+03  0.42185156739E+03  0.00000000000E+00 0. -1.
        -15    1    1    2    0    0  0.10114381189E+01  0.20911056525E+01 -0.54358936140E+01  0.61727140142E+01  0.17770000000E+01 0. -1.
         15    1    1    2    0    0  0.58109372572E+00 -0.71936316514E+01 -0.72144269791E+02  0.72526129078E+02  0.17770000000E+01 0. -1.
</event>
<event>
 6    1  0.2408691E-003  0.4442823E+03  0.7546771E-02  0.9533913E-01
        -11   -1    0    0    0    0  0.00000000000E+00  0.00000000000E+00  0.50000000000E+03  0.50000000000E+03  0.00000000000E+00 0.  1.
         11   -1    0    0    0    0 -0.00000000000E+00 -0.00000000000E+00 -0.50000000000E+03  0.50000000000E+03  0.00000000000E+00 0.  1.
        -11    1    1    2    0    0  0.15599559783E+02  0.28427083257E+02  0.44549372464E+03  0.44667225571E+03  0.00000000000E+00 0.  1.
         11    1    1    2    0    0  0.16927180275E+02 -0.48834782283E+02 -0.43971314797E+03  0.44274035042E+03  0.00000000000E+00 0.  1.
        -15    1    1    2    0    0 -0.76465970028E+01 -0.90237108249E+01  0.45142665947E+02  0.46700276451E+02  0.17770000000E+01 0.  1.
         15    1    1    2    0    0 -0.24880143055E+02  0.29431409851E+02 -0.50923242614E+02  0.63887117415E+02  0.17770000000E+01 0. -1.
</event>
<event>
 6    1  0.2408691E-003  0.4798257E+03  0.7546771E-02  0.9446118E-01
        -11   -1    0    0    0    0  0.00000000000E+00  0.00000000000E+00  0.50000000000E+03  0.50000000000E+03  0.00000000000E+00 0. -1.
         11   -1    0    0    0    0 -0.00000000000E+00 -0.00000000000E+00 -0.50000000000E+03  0.50000000000E+03  0.00000000000E+00 0. -1.
        -11    1    1    2    0    0  0.63848929176E+01  0.34309298656E+01  0.48099026757E+03  0.48104487902E+03  0.00000000000E+00 0. -1.
         11    1    1    2    0    0  0.12794874961E+02 -0.49273602391E+00 -0.47863422613E+03  0.47880546575E+03  0.00000000000E+00 0. -1.
        -15    1    1    2    0    0 -0.51569246378E+01  0.35577689610E+01 -0.17357273762E+02  0.18538723611E+02  0.17770000000E+01 0. -1.
         15    1    1    2    0    0 -0.14022843241E+02 -0.64959628026E+01  0.15001232321E+02  0.21610931619E+02  0.17770000000E+01 0.  1.
</event>
<event>
 6    1  0.2408691E-003  0.5065762E+03  0.7546771E-02  0.9385214E-01
        -11   -1    0    0    0    0  0.00000000000E+00  0.00000000000E+00  0.50000000000E+03  0.50000000000E+03  0.00000000000E+00 0. -1.
         11   -1    0    0    0    0 -0.00000000000E+00 -0.00000000000E+00 -0.50000000000E+03  0.50000000000E+03  0.00000000000E+00 0. -1.
        -11    1    1    2    0    0 -0.27192172004E+01  0.17319074951E+02  0.49311224148E+03  0.49342378054E+03  0.00000000000E+00 0. -1.
         11    1    1    2    0    0 -0.15819375304E+02  0.11252917811E+01 -0.22818360406E+03  0.22873407284E+03  0.00000000000E+00 0. -1.
        -15    1    1    2    0    0  0.45244550978E+02 -0.30257737644E+02 -0.17084589340E+03  0.17931557964E+03  0.17770000000E+01 0. -1.
         15    1    1    2    0    0 -0.26705958474E+02  0.11813370912E+02 -0.94082744026E+02  0.98526566990E+02  0.17770000000E+01 0.  1.
</event>
<event>
 6    1  0.2408691E-003  0.5009388E+03  0.7546771E-02  0.9397712E-01
        -11   -1    0    0    0    0  0.00000000000E+00  0.00000000000E+00  0.50000000000E+03  0.50000000000E+03  0.00000000000E+00 0.  1.
         11   -1    0    0    0    0 -0.00000000000E+00 -0.00000000000E+00 -0.50000000000E+03  0.50000000000E+03  0.00000000000E+00 0.  1.
        -11    1    1    2    0    0  0.56207894829E+00  0.49211649120E+00  0.49673205439E+02  0.49678822952E+02  0.00000000000E+00 0.  1.
         11    1    1    2    0    0  0.73006834299E+01 -0.20934136929E+02 -0.49856850652E+03  0.49906121244E+03  0.00000000000E+00 0.  1.
        -15    1    1    2    0    0 -0.37351034554E+01  0.33124026008E+01  0.38270058886E+03  0.38273727471E+03  0.17770000000E+01 0.  1.
         15    1    1    2    0    0 -0.41276589228E+01  0.17129617837E+02  0.66194712224E+02  0.68522689898E+02  0.17770000000E+01 0. -1.
</event>
<event>
 6    1  0.2408691E-003  0.4856611E+03  0.7546771E-02  0.9432478E-01
        -11   -1    0    0    0    0  0.00000000000E+00  0.00000000000E+00  0.50000000000E+03  0.50000000000E+03  0.00000000000E+00 0.  1.
         11   -1    0    0    0    0 -0.00000000000E+00 -0.00000000000E+00 -0.50000000000E+03  0.50000000000E+03  0.00000000000E+00 0.  1.
        -11    1    1    2    0    0  0.81543378490E+01  0.42315484393E+01  0.48857239475E+03  0.48865876042E+03  0.00000000000E+00 0.  1.
         11    1    1    2    0    0  0.71397774032E+01  0.11938595759E+01 -0.48276204956E+03  0.48281631933E+03  0.00000000000E+00 0.  1.
        -15    1    1    2    0    0 -0.21586493589E+01  0.82256289325E+01 -0.21034854326E+00  0.86903805382E+01  0.17770000000E+01 0.  1.
         15    1    1    2    0    0 -0.13135465893E+02 -0.13651036948E+02 -0.55999966475E+01  0.19834539708E+02  0.17770000000E+01 0. -1.
</event>
<event>
 6    1  0.2408691E-003  0.5038716E+03  0.7546771E-02  0.9391188E-01
        -11   -1    0    0    0    0  0.00000000000E+00  0.00000000000E+00  0.50000000000E+03  0.50000000000E+03  0.00000000000E+00 0. -1.
         11   -1    0    0    0    0 -0.00000000000E+00 -0.00000000000E+00 -0.50000000000E+03  0.50000000000E+03  0.00000000000E+00 0. -1.
        -11    1    1    2    0    0 -0.76455742802E+01  0.10460391790E+02  0.49595918515E+03  0.49612839864E+03  0.00000000000E+00 0. -1.
         11    1    1    2    0    0  0.91139237846E+01 -0.72969241172E+01 -0.40384710752E+03  0.40401583503E+03  0.00000000000E+00 0. -1.
        -15    1    1    2    0    0  0.14365838819E+02 -0.54237885871E+01 -0.74127479118E+02  0.75722095171E+02  0.17770000000E+01 0. -1.
         15    1    1    2    0    0 -0.15834188323E+02  0.22603209138E+01 -0.17984598516E+02  0.24133671152E+02  0.17770000000E+01 0.  1.
</event>
<event>
 6    1  0.2408691E-003  0.5075716E+03  0.7546771E-02  0.9383025E-01
        -11   -1    0    0    0    0  0.00000000000E+00  0.00000000000E+00  0.50000000000E+03  0.50000000000E+03  0.00000000000E+00 0. -1.
         11   -1    0    0    0    0 -0.00000000000E+00 -0.00000000000E+00 -0.50000000000E+03  0.50000000000E+03  0.00000000000E+00 0. -1.
        -11    1    1    2    0    0 -0.20344772147E+01  0.15012704514E+02  0.49219529791E+03  0.49242840259E+03  0.00000000000E+00 0. -1.
         11    1    1    2    0    0  0.38109566793E+01  0.14312674571E+02 -0.41503542616E+03  0.41529962799E+03  0.00000000000E+00 0. -1.
        -15    1    1    2    0    0 -0.48792614864E+01 -0.59811487987E+01 -0.65421245740E+02  0.65899001941E+02  0.17770000000E+01 0.  1.
         15    1    1    2    0    0  0.31027820219E+01 -0.23344230286E+02 -0.11738626010E+02  0.26372967477E+02  0.17770000000E+01 0. -1.
</event>
<event>
 6    1  0.2408691E-003  0.5126671E+03  0.7546771E-02  0.9371904E-01
        -11   -1    0    0    0    0  0.00000000000E+00  0.00000000000E+00  0.50000000000E+03  0.50000000000E+03  0.00000000000E+00 0. -1.
         11   -1    0    0    0    0 -0.00000000000E+00 -0.00000000000E+00 -0.50000000000E+03  0.50000000000E+03  0.00000000000E+00 0. -1.
        -11    1    1    2    0    0 -0.12780971720E+02 -0.14278654998E+02  0.39978999158E+03  0.40024901073E+03  0.00000000000E+00 0. -1.
         11    1    1    2    0    0  0.29668633761E+01  0.20699381361E+02 -0.48688401598E+03  0.48733285513E+03  0.00000000000E+00 0. -1.
        -15    1    1    2    0    0  0.58463228771E+01 -0.24015532785E+02  0.13910150544E+01  0.24819709063E+02  0.17770000000E+01 0. -1.
         15    1    1    2    0    0  0.39677854667E+01  0.17594806422E+02  0.85703009354E+02  0.87598425077E+02  0.17770000000E+01 0.  1.
</event>
<event>
 6    1  0.2408691E-003  0.5127846E+03  0.7546771E-02  0.9371649E-01
        -11   -1    0    0    0    0  0.00000000000E+00  0.00000000000E+00  0.50000000000E+03  0.50000000000E+03  0.00000000000E+00 0. -1.
         11   -1    0    0    0    0 -0.00000000000E+00 -0.00000000000E+00 -0.50000000000E+03  0.50000000000E+03  0.00000000000E+00 0.  1.
        -11    1    1    2    0    0  0.48207574249E+01  0.13034836543E+02  0.43793569020E+03  0.43815615415E+03  0.00000000000E+00 0. -1.
         11    1    1    2    0    0  0.47140563236E+01  0.48530929837E+01 -0.48716846478E+03  0.48721544302E+03  0.00000000000E+00 0.  1.
        -15    1    1    2    0    0 -0.97243975822E+01 -0.39431935675E+01 -0.94819242719E+01  0.14254027527E+02  0.17770000000E+01 0. -1.
         15    1    1    2    0    0  0.18958383374E+00 -0.13944735959E+02  0.58714698851E+02  0.60374375302E+02  0.17770000000E+01 0.  1.
</event>
<event>
 6    1  0.2408691E-003  0.4495415E+03  0.7546771E-02  0.9520381E-01
        -11   -1    0    0    0    0  0.00000000000E+00  0.00000000000E+00  0.50000000000E+03  0.50000000000E+03  0.00000000000E+00 0. -1.
         11   -1    0    0    0    0 -0.00000000000E+00 -0.00000000000E+00 -0.50000000000E+03  0.50000000000E+03  0.00000000000E+00 0.  1.
        -11    1    1    2    0    0 -0.49235744177E+01 -0.12532689867E+02  0.45198810005E+03  0.45218862490E+03  0.00000000000E+00 0. -1.
         11    1    1    2    0    0  0.15825504171E+02  0.27907306861E+02 -0.44595951630E+03  0.44711201564E+03  0.00000000000E+00 0.  1.
        -15    1    1    2    0    0  0.25835823753E+02  0.19143675029E+02 -0.30748477849E+02  0.44526359627E+02  0.17770000000E+01 0.  1.
         15    1    1    2    0    0 -0.36737753506E+02 -0.34518292023E+02  0.24719894093E+02  0.56172999829E+02  0.17770000000E+01 0. -1.
</event>
<event>
 6    1  0.2408691E-003  0.5238916E+03  0.7546771E-02  0.9347882E-01
        -11   -1    0    0    0    0  0.00000000000E+00  0.00000000000E+00  0.50000000000E+03  0.50000000000E+03  0.00000000000E+00 0. -1.
         11   -1    0    0    0    0 -0.00000000000E+00 -0.00000000000E+00 -0.50000000000E+03  0.50000000000E+03  0.00000000000E+00 0. -1.
        -11    1    1    2    0    0 -0.96052230007E+01  0.13321874535E+02  0.47582500486E+03  0.47610835730E+03  0.00000000000E+00 0. -1.
         11    1    1    2    0    0 -0.14201714379E+02 -0.19692935099E+02 -0.37261745785E+03  0.37340764625E+03  0.00000000000E+00 0. -1.
        -15    1    1    2    0    0 -0.16399751215E+02 -0.38829783627E+02 -0.17759977357E+02  0.45774211748E+02  0.17770000000E+01 0.  1.
         15    1    1    2    0    0  0.40206688594E+02  0.45200844191E+02 -0.85447569646E+02  0.10470978469E+03  0.17770000000E+01 0. -1.
</event>
<event>
 6    1  0.2408691E-003  0.5004203E+03  0.7546771E-02  0.9398870E-01
        -11   -1    0    0    0    0  0.00000000000E+00  0.00000000000E+00  0.50000000000E+03  0.50000000000E+03  0.00000000000E+00 0.  1.
         11   -1    0    0    0    0 -0.00000000000E+00 -0.00000000000E+00 -0.50000000000E+03  0.50000000000E+03  0.00000000000E+00 0. -1.
        -11    1    1    2    0    0 -0.48506509115E+01  0.24477521745E+01  0.35766286537E+03  0.35770413133E+03  0.00000000000E+00 0.  1.
         11    1    1    2    0    0  0.91540447300E+01 -0.30656702532E+01 -0.49948642924E+03  0.49957971122E+03  0.00000000000E+00 0. -1.
        -15    1    1    2    0    0 -0.30774697434E+01  0.62976743143E+01  0.36042632295E+02  0.36760856812E+02  0.17770000000E+01 0. -1.
         15    1    1    2    0    0 -0.12259240751E+01 -0.56797562356E+01  0.10578093157E+03  0.10595530064E+03  0.17770000000E+01 0.  1.
</event>
<event>
 6    1  0.2408691E-003  0.5005782E+03  0.7546771E-02  0.9398517E-01
        -11   -1    0    0    0    0  0.00000000000E+00  0.00000000000E+00  0.50000000000E+03  0.50000000000E+03  0.00000000000E+00 0. -1.
         11   -1    0    0    0    0 -0.00000000000E+00 -0.00000000000E+00 -0.50000000000E+03  0.50000000000E+03  0.00000000000E+00 0.  1.
        -11    1    1    2    0    0  0.14247797431E+01  0.76017651752E+01  0.36489650915E+03  0.36497846405E+03  0.00000000000E+00 0. -1.
         11    1    1    2    0    0  0.80523692953E+01  0.63958006378E+01 -0.49931588390E+03  0.49942176447E+03  0.00000000000E+00 0.  1.
        -15    1    1    2    0    0 -0.16239896479E+01 -0.12448096668E+01  0.24832689053E+02  0.24980133469E+02  0.17770000000E+01 0. -1.
         15    1    1    2    0    0 -0.78531593905E+01 -0.12752756146E+02  0.10958668570E+03  0.11061963801E+03  0.17770000000E+01 0.  1.
</event>
<event>
 6    1  0.2408691E-003  0.5024569E+03  0.7546771E-02  0.9394329E-01
        -11   -1    0    0    0    0  0.00000000000E+00  0.00000000000E+00  0.50000000000E+03  0.50000000000E+03  0.00000000000E+00 0. -1.
         11   -1    0    0    0    0 -0.00000000000E+00 -0.00000000000E+00 -0.50000000000E+03  0.50000000000E+03  0.00000000000E+00 0. -1.
        -11    1    1    2    0    0  0.11132947214E+01 -0.70509344519E+01  0.40631960425E+03  0.40638230264E+03  0.00000000000E+00 0. -1.
         11    1    1    2    0    0 -0.14802091940E+02  0.10014547052E+02 -0.49722206210E+03  0.49754313593E+03  0.00000000000E+00 0. -1.
        -15    1    1    2    0    0  0.10320408667E+02 -0.12316596346E+02  0.27718469922E+02  0.32088637933E+02  0.17770000000E+01 0.  1.
         15    1    1    2    0    0  0.33683885516E+01  0.93529837461E+01  0.63183987923E+02  0.63985923493E+02  0.17770000000E+01 0. -1.
</event>
<event>
 6    1  0.2408691E-003  0.5081067E+03  0.7546771E-02  0.9381851E-01
        -11   -1    0    0    0    0  0.00000000000E+00  0.00000000000E+00  0.50000000000E+03  0.50000000000E+03  0.00000000000E+00 0.  1.
         11   -1    0    0    0    0 -0.00000000000E+00 -0.00000000000E+00 -0.50000000000E+03  0.50000000000E+03  0.00000000000E+00 0.  1.
        -11    1    1    2    0    0  0.13288602603E+02 -0.96249154334E+01  0.49161953624E+03  0.49189327538E+03  0.00000000000E+00 0.  1.
         11    1    1    2    0    0  0.10249485455E+02 -0.10082537993E+02 -0.32594601013E+03  0.32626294770E+03  0.00000000000E+00 0.  1.
        -15    1    1    2    0    0 -0.12873592027E+02  0.15562808717E+02 -0.16866947013E+03  0.16988371985E+03  0.17770000000E+01 0.  1.
         15    1    1    2    0    0 -0.10664496031E+02  0.41446447089E+01  0.29959440221E+01  0.11960057062E+02  0.17770000000E+01 0. -1.
</event>
<event>
 6    1  0.2408691E-003  0.5003466E+03  0.7546771E-02  0.9399034E-01
        -11   -1    0    0    0    0  0.00000000000E+00  0.00000000000E+00  0.50000000000E+03  0.50000000000E+03  0.00000000000E+00 0.  1.
         11   -1    0    0    0    0 -0.00000000000E+00 -0.00000000000E+00 -0.50000000000E+03  0.50000000000E+03  0.00000000000E+00 0. -1.
        -11    1    1    2    0    0 -0.43819120230E+01  0.18852544314E+01  0.29481146168E+03  0.29485005219E+03  0.00000000000E+00 0.  1.
         11    1    1    2    0    0  0.14448122336E+02  0.16810618966E+01 -0.49944159452E+03  0.49965336038E+03  0.00000000000E+00 0. -1.
        -15    1    1    2    0    0  0.17430162691E+01 -0.95703593195E+00  0.11564877008E+03  0.11567951320E+03  0.17770000000E+01 0.  1.
         15    1    1    2    0    0 -0.11809226582E+02 -0.26092803960E+01  0.88981362751E+02  0.89817074227E+02  0.17770000000E+01 0. -1.
</event>
<event>
 6    1  0.2408691E-003  0.5072769E+03  0.7546771E-02  0.9383673E-01
        -11   -1    0    0    0    0  0.00000000000E+00  0.00000000000E+00  0.50000000000E+03  0.50000000000E+03  0.00000000000E+00 0.  1.
         11   -1    0    0    0    0 -0.00000000000E+00 -0.00000000000E+00 -0.50000000000E+03  0.50000000000E+03  0.00000000000E+00 0.  1.
        -11    1    1    2    0    0 -0.56200686572E+01 -0.10486158848E+02  0.49257946390E+03  0.49272311997E+03  0.00000000000E+00 0.  1.
         11    1    1    2    0    0  0.60450647039E+01  0.11404414385E+01 -0.38756981884E+03  0.38761863718E+03  0.00000000000E+00 0.  1.
        -15    1    1    2    0    0  0.57205793571E+01  0.11100276415E+02  0.17133583429E+01  0.12729276904E+02  0.17770000000E+01 0.  1.
         15    1    1    2    0    0 -0.61455754039E+01 -0.17545590057E+01 -0.10672300341E+03  0.10692896595E+03  0.17770000000E+01 0.  1.
</event>
<event>
 6    1  0.2408691E-003  0.5063133E+03  0.7546771E-02  0.9385793E-01
        -11   -1    0    0    0    0  0.00000000000E+00  0.00000000000E+00  0.50000000000E+03  0.50000000000E+03  0.00000000000E+00 0.  1.
         11   -1    0    0    0    0 -0.00000000000E+00 -0.00000000000E+00 -0.50000000000E+03  0.50000000000E+03  0.00000000000E+00 0. -1.
        -11    1    1    2    0    0  0.26287289301E+00  0.73658414243E+01  0.49363171989E+03  0.49368674238E+03  0.00000000000E+00 0.  1.
         11    1    1    2    0    0  0.14816405179E+02 -0.19180667898E+02 -0.30766720952E+03  0.30862037472E+03  0.00000000000E+00 0. -1.
        -15    1    1    2    0    0  0.17160303056E+02 -0.59141215807E+01 -0.17596816605E+02  0.25342819864E+02  0.17770000000E+01 0.  1.
         15    1    1    2    0    0 -0.32239581128E+02  0.17728948055E+02 -0.16836769377E+03  0.17235006303E+03  0.17770000000E+01 0. -1.
</event>
<event>
 6    1  0.2408691E-003  0.5098228E+03  0.7546771E-02  0.9378095E-01
        -11   -1    0    0    0    0  0.00000000000E+00  0.00000000000E+00  0.50000000000E+03  0.50000000000E+03  0.00000000000E+00 0.  1.
         11   -1    0    0    0    0 -0.00000000000E+00 -0.00000000000E+00 -0.50000000000E+03  0.50000000000E+03  0.00000000000E+00 0. -1.
        -11    1    1    2    0    0  0.71267321281E+00 -0.12241466767E+02  0.49002382444E+03  0.49017722298E+03  0.00000000000E+00 0.  1.
         11    1    1    2    0    0 -0.36711090679E+01  0.43350782231E+01 -0.36463933786E+03  0.36468358430E+03  0.00000000000E+00 0. -1.
        -15    1    1    2    0    0  0.78529134144E+01 -0.65151774964E+01 -0.12897613391E+03  0.12939133137E+03  0.17770000000E+01 0.  1.
         15    1    1    2    0    0 -0.48944775594E+01  0.14421566041E+02  0.35916473184E+01  0.15747861350E+02  0.17770000000E+01 0. -1.
</event>
<event>
 6    1  0.2408691E-003  0.5614050E+03  0.7546771E-02  0.9272009E-01
        -11   -1    0    0    0    0  0.00000000000E+00  0.00000000000E+00  0.50000000000E+03  0.50000000000E+03  0.00000000000E+00 0. -1.
         11   -1    0    0    0    0 -0.00000000000E+00 -0.00000000000E+00 -0.50000000000E+03  0.50000000000E+03  0.00000000000E+00 0. -1.
        -11    1    1    2    0    0  0.18470690569E+02  0.47786704860E+02  0.27475534261E+03  0.27949102645E+03  0.00000000000E+00 0. -1.
         11    1    1    2    0    0 -0.58232318515E+01  0.44396612047E+02 -0.43630335061E+03  0.43859501017E+03  0.00000000000E+00 0. -1.
        -15    1    1    2    0    0  0.41067652579E+02 -0.38756045220E+02 -0.38250479390E+02  0.68226388091E+02  0.17770000000E+01 0.  1.
         15    1    1    2    0    0 -0.53715111297E+02 -0.53427271687E+02  0.19979848739E+03  0.21368757529E+03  0.17770000000E+01 0. -1.
</event>
<event>
 6    1  0.2686912E-003  0.5194457E+03  0.7546771E-02  0.9357320E-01
        -11   -1    0    0    0    0  0.00000000000E+00  0.00000000000E+00  0.50000000000E+03  0.50000000000E+03  0.00000000000E+00 0.  1.
         11   -1    0    0    0    0 -0.00000000000E+00 -0.00000000000E+00 -0.50000000000E+03  0.50000000000E+03  0.00000000000E+00 0.  1.
        -11    1    1    2    0    0  0.64618987028E+01  0.13671083578E+01  0.48050893849E+03  0.48055433105E+03  0.00000000000E+00 0.  1.
         11    1    1    2    0    0  0.27369722113E+01 -0.52792558401E+01 -0.37519966867E+03  0.37524678937E+03  0.00000000000E+00 0.  1.
        -15    1    1    2    0    0 -0.22840356649E+01 -0.27569084475E+01  0.19045777920E+02  0.19460646153E+02  0.17770000000E+01 0.  1.
         15    1    1    2    0    0 -0.69148352491E+01  0.66690559298E+01 -0.12435504774E+03  0.12473823343E+03  0.17770000000E+01 0. -1.
</event>
<event>
 6    1  0.2408691E-003  0.5211669E+03  0.7546771E-02  0.9353654E-01
        -11   -1    0    0    0    0  0.00000000000E+00  0.00000000000E+00  0.50000000000E+03  0.50000000000E+03  0.00000000000E+00 0. -1.
         11   -1    0    0    0    0 -0.00000000000E+00 -0.00000000000E+00 -0.50000000000E+03  0.50000000000E+03  0.00000000000E+00 0.  1.
        -11    1    1    2    0    0  0.12617161150E+02  0.83301229844E+01  0.47859435965E+03  0.47883310746E+03  0.00000000000E+00 0. -1.
         11    1    1    2    0    0 -0.88661346833E+01 -0.91955562891E+01 -0.47377264552E+03  0.47394481350E+03  0.00000000000E+00 0.  1.
        -15    1    1    2    0    0  0.78219741070E+01  0.10308613998E+02 -0.21252642997E+02  0.24945608127E+02  0.17770000000E+01 0. -1.
         15    1    1    2    0    0 -0.11573000574E+02 -0.94431806930E+01  0.16430928867E+02  0.22276470913E+02  0.17770000000E+01 0. -1.
</event>
<event>
 6    1  0.2408691E-003  0.5034245E+03  0.7546771E-02  0.9392179E-01
        -11   -1    0    0    0    0  0.00000000000E+00  0.00000000000E+00  0.50000000000E+03  0.50000000000E+03  0.00000000000E+00 0. -1.
         11   -1    0    0    0    0 -0.00000000000E+00 -0.00000000000E+00 -0.50000000000E+03  0.50000000000E+03  0.00000000000E+00 0.  1.
        -11    1    1    2    0    0 -0.78406888476E+01 -0.36711203683E+01  0.49649998862E+03  0.49657546478E+03  0.00000000000E+00 0. -1.
         11    1    1    2    0    0 -0.22605280441E+01 -0.20808838831E+00 -0.12905582685E+03  0.12907579065E+03  0.00000000000E+00 0.  1.
        -15    1    1    2    0    0 -0.26480938319E+02  0.18243251708E+02 -0.16106821135E+03  0.16425645425E+03  0.17770000000E+01 0.  1.
         15    1    1    2    0    0  0.36582155211E+02 -0.14364042952E+02 -0.20637595042E+03  0.21009229031E+03  0.17770000000E+01 0. -1.
</event>
<event>
 6    1  0.2408691E-003  0.5062687E+03  0.7546771E-02  0.9385891E-01
        -11   -1    0    0    0    0  0.00000000000E+00  0.00000000000E+00  0.50000000000E+03  0.50000000000E+03  0.00000000000E+00 0.  1.
         11   -1    0    0    0    0 -0.00000000000E+00 -0.00000000000E+00 -0.50000000000E+03  0.50000000000E+03  0.00000000000E+00 0. -1.
        -11    1    1    2    0    0  0.62155947045E+01  0.34817912344E+01  0.34249191003E+03  0.34256600083E+03  0.00000000000E+00 0.  1.
         11    1    1    2    0    0 -0.15374020360E+02 -0.47377672836E+02 -0.49121237670E+03  0.49373130689E+03  0.00000000000E+00 0. -1.
        -15    1    1    2    0    0 -0.79436291870E+01 -0.14731257331E+00  0.79264085189E+02  0.79681088569E+02  0.17770000000E+01 0. -1.
         15    1    1    2    0    0  0.17102054843E+02  0.44043194175E+02  0.69456381478E+02  0.84021603710E+02  0.17770000000E+01 0.  1.
</event>
<event>
 6    1  0.2408691E-003  0.5014085E+03  0.7546771E-02  0.9396664E-01
        -11   -1    0    0    0    0  0.00000000000E+00  0.00000000000E+00  0.50000000000E+03  0.50000000000E+03  0.00000000000E+00 0.  1.
         11   -1    0    0    0    0 -0.00000000000E+00 -0.00000000000E+00 -0.50000000000E+03  0.50000000000E+03  0.00000000000E+00 0. -1.
        -11    1    1    2    0    0 -0.77681525154E+01 -0.18699201847E+01  0.49852751233E+03  0.49859153758E+03  0.00000000000E+00 0.  1.
         11    1    1    2    0    0  0.17430678298E+01 -0.21414906730E+01 -0.19052661318E+03  0.19054662054E+03  0.00000000000E+00 0. -1.
        -15    1    1    2    0    0  0.84633518532E+01  0.92611223893E+01 -0.27317315587E+02  0.30112956885E+02  0.17770000000E+01 0. -1.
         15    1    1    2    0    0 -0.24382671675E+01 -0.52497115315E+01 -0.28068358356E+03  0.28074888500E+03  0.17770000000E+01 0.  1.
</event>
<event>
 6    1  0.2408691E-003  0.5017333E+03  0.7546771E-02  0.9395940E-01
        -11   -1    0    0    0    0  0.00000000000E+00  0.00000000000E+00  0.50000000000E+03  0.50000000000E+03  0.00000000000E+00 0. -1.
         11   -1    0    0    0    0 -0.00000000000E+00 -0.00000000000E+00 -0.50000000000E+03  0.50000000000E+03  0.00000000000E+00 0. -1.
        -11    1    1    2    0    0 -0.56167669584E+01  0.45333757845E+01  0.49821445015E+03  0.49826673370E+03  0.00000000000E+00 0. -1.
         11    1    1    2    0    0 -0.66740838360E+01 -0.24712871281E+01 -0.41767191632E+03  0.41773254642E+03  0.00000000000E+00 0. -1.
        -15    1    1    2    0    0  0.72931589510E+01 -0.60812009653E+01 -0.13346683057E+02  0.16476129712E+02  0.17770000000E+01 0. -1.
         15    1    1    2    0    0  0.49976918434E+01  0.40191123090E+01 -0.67195850773E+02  0.67524590170E+02  0.17770000000E+01 0. -1.
</event>
<event>
 6    1  0.2408691E-003  0.5439455E+03  0.7546771E-02  0.9306514E-01
        -11   -1    0    0    0    0  0.00000000000E+00  0.00000000000E+00  0.50000000000E+03  0.50000000000E+03  0.00000000000E+00 0.  1.
         11   -1    0    0    0    0 -0.00000000000E+00 -0.00000000000E+00 -0.50000000000E+03  0.50000000000E+03  0.00000000000E+00 0. -1.
        -11    1    1    2    0    0 -0.79966612499E+01 -0.67449252237E+01  0.18038808686E+03  0.18069117988E+03  0.00000000000E+00 0.  1.
         11    1    1    2    0    0  0.23374438495E+02  0.74128324870E+02 -0.44938217312E+03  0.45605450381E+03  0.00000000000E+00 0. -1.
        -15    1    1    2    0    0  0.36832671142E+02 -0.56781121029E+02  0.29589737190E+03  0.30354431933E+03  0.17770000000E+01 0.  1.
         15    1    1    2    0    0 -0.52210448387E+02 -0.10602278617E+02 -0.26903285637E+02  0.59709996983E+02  0.17770000000E+01 0. -1.
</event>
<event>
 6    1  0.2408691E-003  0.5072812E+03  0.7546771E-02  0.9383663E-01
        -11   -1    0    0    0    0  0.00000000000E+00  0.00000000000E+00  0.50000000000E+03  0.50000000000E+03  0.00000000000E+00 0.  1.
         11   -1    0    0    0    0 -0.00000000000E+00 -0.00000000000E+00 -0.50000000000E+03  0.50000000000E+03  0.00000000000E+00 0.  1.
        -11    1    1    2    0    0 -0.14777668633E+02  0.10377812127E+02  0.33801893308E+03  0.33850092702E+03  0.00000000000E+00 0.  1.
         11    1    1    2    0    0  0.13872498930E+02  0.16420039296E+02 -0.49224972888E+03  0.49271884427E+03  0.00000000000E+00 0.  1.
        -15    1    1    2    0    0 -0.17800962629E+02 -0.10679876630E+02  0.13710195967E+03  0.13867602212E+03  0.17770000000E+01 0.  1.
         15    1    1    2    0    0  0.18706132332E+02 -0.16117974793E+02  0.17128836131E+02  0.30104206591E+02  0.17770000000E+01 0. -1.
</event>
<event>
 6    1  0.2408691E-003  0.5066870E+03  0.7546771E-02  0.9384970E-01
        -11   -1    0    0    0    0  0.00000000000E+00  0.00000000000E+00  0.50000000000E+03  0.50000000000E+03  0.00000000000E+00 0.  1.
         11   -1    0    0    0    0 -0.00000000000E+00 -0.00000000000E+00 -0.50000000000E+03  0.50000000000E+03  0.00000000000E+00 0. -1.
        -11    1    1    2    0    0  0.85914289507E+00 -0.11408439453E+02  0.42968608418E+03  0.42983836678E+03  0.00000000000E+00 0.  1.
         11    1    1    2    0    0  0.13125572301E+02  0.23403233381E+02 -0.49258265903E+03  0.49331295134E+03  0.00000000000E+00 0. -1.
        -15    1    1    2    0    0  0.52544151599E+01  0.98497773477E+01  0.33852060515E+02  0.35689588434E+02  0.17770000000E+01 0. -1.
         15    1    1    2    0    0 -0.19239130356E+02 -0.21844571275E+02  0.29044514336E+02  0.41159093444E+02  0.17770000000E+01 0.  1.
</event>
<event>
 6    1  0.2408691E-003  0.5049867E+03  0.7546771E-02  0.9388720E-01
        -11   -1    0    0    0    0  0.00000000000E+00  0.00000000000E+00  0.50000000000E+03  0.50000000000E+03  0.00000000000E+00 0.  1.
         11   -1    0    0    0    0 -0.00000000000E+00 -0.00000000000E+00 -0.50000000000E+03  0.50000000000E+03  0.00000000000E+00 0.  1.
        -11    1    1    2    0    0  0.25611930852E+02 -0.27655422110E+01  0.49434255128E+03  0.49501331016E+03  0.00000000000E+00 0.  1.
         11    1    1    2    0    0  0.88060130901E+00  0.77238121104E+01 -0.45711649988E+03  0.45718259722E+03  0.00000000000E+00 0.  1.
        -15    1    1    2    0    0 -0.14839801355E+02  0.26395639495E+01 -0.24755131044E+02  0.29037238920E+02  0.17770000000E+01 0. -1.
         15    1    1    2    0    0 -0.11652730806E+02 -0.75978338488E+01 -0.12470920356E+02  0.18766853704E+02  0.17770000000E+01 0.  1.
</event>
<event>
 6    1  0.2408691E-003  0.5018951E+03  0.7546771E-02  0.9395579E-01
        -11   -1    0    0    0    0  0.00000000000E+00  0.00000000000E+00  0.50000000000E+03  0.50000000000E+03  0.00000000000E+00 0.  1.
         11   -1    0    0    0    0 -0.00000000000E+00 -0.00000000000E+00 -0.50000000000E+03  0.50000000000E+03  0.00000000000E+00 0.  1.
        -11    1    1    2    0    0 -0.19470365057E+02 -0.20849897143E+02  0.49728728671E+03  0.49810486732E+03  0.00000000000E+00 0.  1.
         11    1    1    2    0    0  0.28851664485E+01  0.11615689073E+02 -0.39724865069E+03  0.39742891049E+03  0.00000000000E+00 0.  1.
        -15    1    1    2    0    0  0.19534335849E+02  0.12463593233E+02 -0.63408368627E+02  0.67533031728E+02  0.17770000000E+01 0.  1.
         15    1    1    2    0    0 -0.29491372407E+01 -0.32293851637E+01 -0.36630267392E+02  0.36933190455E+02  0.17770000000E+01 0. -1.
</event>
<event>
 6    1  0.2408691E-003  0.4808043E+03  0.7546771E-02  0.9443816E-01
        -11   -1    0    0    0    0  0.00000000000E+00  0.00000000000E+00  0.50000000000E+03  0.50000000000E+03  0.00000000000E+00 0. -1.
         11   -1    0    0    0    0 -0.00000000000E+00 -0.00000000000E+00 -0.50000000000E+03  0.50000000000E+03  0.00000000000E+00 0. -1.
        -11    1    1    2    0    0  0.15185609512E+02  0.94669469058E-01  0.48636484607E+03  0.48660186517E+03  0.00000000000E+00 0. -1.
         11    1    1    2    0    0 -0.57858893440E+00 -0.18853779352E+02 -0.47499352364E+03  0.47536790727E+03  0.00000000000E+00 0. -1.
        -15    1    1    2    0    0 -0.10513392832E+02  0.23250756504E+02 -0.66011905604E+00  0.25587547617E+02  0.17770000000E+01 0. -1.
         15    1    1    2    0    0 -0.40936277451E+01 -0.44916466214E+01 -0.10711203374E+02  0.12442679945E+02  0.17770000000E+01 0.  1.
</event>
<event>
 6    1  0.2408691E-003  0.5071690E+03  0.7546771E-02  0.9383910E-01
        -11   -1    0    0    0    0  0.00000000000E+00  0.00000000000E+00  0.50000000000E+03  0.50000000000E+03  0.00000000000E+00 0. -1.
         11   -1    0    0    0    0 -0.00000000000E+00 -0.00000000000E+00 -0.50000000000E+03  0.50000000000E+03  0.00000000000E+00 0.  1.
        -11    1    1    2    0    0 -0.75517508036E+01  0.42256208535E+01  0.49275498607E+03  0.49283096607E+03  0.00000000000E+00 0. -1.
         11    1    1    2    0    0 -0.31203203322E+01 -0.12906713929E+02 -0.44298195332E+03  0.44318092314E+03  0.00000000000E+00 0.  1.
        -15    1    1    2    0    0  0.41678029530E+01  0.23298883089E+02 -0.25259009345E+02  0.34660984070E+02  0.17770000000E+01 0. -1.
         15    1    1    2    0    0  0.65042681828E+01 -0.14617790013E+02 -0.24514023409E+02  0.29327126728E+02  0.17770000000E+01 0.  1.
</event>
<event>
 6    1  0.2408691E-003  0.5025830E+03  0.7546771E-02  0.9394049E-01
        -11   -1    0    0    0    0  0.00000000000E+00  0.00000000000E+00  0.50000000000E+03  0.50000000000E+03  0.00000000000E+00 0. -1.
         11   -1    0    0    0    0 -0.00000000000E+00 -0.00000000000E+00 -0.50000000000E+03  0.50000000000E+03  0.00000000000E+00 0.  1.
        -11    1    1    2    0    0  0.33027800896E+01  0.11853645969E+02  0.30839740962E+03  0.30864280251E+03  0.00000000000E+00 0. -1.
         11    1    1    2    0    0 -0.58461545386E+01 -0.10206380613E+02 -0.49727794426E+03  0.49741702984E+03  0.00000000000E+00 0.  1.
        -15    1    1    2    0    0  0.88221540257E+01  0.54962621861E+01  0.91849143589E+01  0.13984265460E+02  0.17770000000E+01 0. -1.
         15    1    1    2    0    0 -0.62787795767E+01 -0.71435275425E+01  0.17969562028E+03  0.17995590219E+03  0.17770000000E+01 0.  1.
</event>
<event>
 6    1  0.2408691E-003  0.5115904E+03  0.7546771E-02  0.9374242E-01
        -11   -1    0    0    0    0  0.00000000000E+00  0.00000000000E+00  0.50000000000E+03  0.50000000000E+03  0.00000000000E+00 0.  1.
         11   -1    0    0    0    0 -0.00000000000E+00 -0.00000000000E+00 -0.50000000000E+03  0.50000000000E+03  0.00000000000E+00 0.  1.
        -11    1    1    2    0    0 -0.99010623428E+01 -0.24460009034E+02  0.48769627896E+03  0.48840964732E+03  0.00000000000E+00 0.  1.
         11    1    1    2    0    0  0.12954832281E+02 -0.11899298312E+02 -0.39437828846E+03  0.39477038312E+03  0.00000000000E+00 0.  1.
        -15    1    1    2    0    0  0.71000810148E+01  0.30084971256E+02 -0.98606983153E+01  0.32494734130E+02  0.17770000000E+01 0. -1.
         15    1    1    2    0    0 -0.10153850953E+02  0.62743360896E+01 -0.83457292183E+02  0.84325235429E+02  0.17770000000E+01 0.  1.
</event>
<event>
 6    1  0.2408691E-003  0.5007076E+03  0.7546771E-02  0.9398228E-01
        -11   -1    0    0    0    0  0.00000000000E+00  0.00000000000E+00  0.50000000000E+03  0.50000000000E+03  0.00000000000E+00 0. -1.
         11   -1    0    0    0    0 -0.00000000000E+00 -0.00000000000E+00 -0.50000000000E+03  0.50000000000E+03  0.00000000000E+00 0. -1.
        -11    1    1    2    0    0  0.83798716914E+01  0.10617569598E+01  0.49922098851E+03  0.49929244431E+03  0.00000000000E+00 0. -1.
         11    1    1    2    0    0 -0.33132885820E+01  0.80391192266E+01 -0.31509361772E+03  0.31521356768E+03  0.00000000000E+00 0. -1.
        -15    1    1    2    0    0  0.40022376625E+01 -0.21308186895E+01 -0.13230676350E+03  0.13239635830E+03  0.17770000000E+01 0. -1.
         15    1    1    2    0    0 -0.90688207719E+01 -0.69700574969E+01 -0.51820607286E+02  0.53097629704E+02  0.17770000000E+01 0.  1.
</event>
<event>
 6    1  0.2408691E-003  0.5020474E+03  0.7546771E-02  0.9395240E-01
        -11   -1    0    0    0    0  0.00000000000E+00  0.00000000000E+00  0.50000000000E+03  0.50000000000E+03  0.00000000000E+00 0. -1.
         11   -1    0    0    0    0 -0.00000000000E+00 -0.00000000000E+00 -0.50000000000E+03  0.50000000000E+03  0.00000000000E+00 0.  1.
        -11    1    1    2    0    0 -0.24708023361E+01  0.12609221060E+02  0.44069870753E+03  0.44088598088E+03  0.00000000000E+00 0. -1.
         11    1    1    2    0    0  0.10209749905E+02 -0.37140416320E+00 -0.49784774341E+03  0.49795256055E+03  0.00000000000E+00 0.  1.
        -15    1    1    2    0    0 -0.72822096704E+01 -0.11496207980E+02  0.21820986671E+02  0.25778024825E+02  0.17770000000E+01 0.  1.
         15    1    1    2    0    0 -0.45673789811E+00 -0.74160891733E+00  0.35328049211E+02  0.35383433741E+02  0.17770000000E+01 0. -1.
</event>
<event>
 6    1  0.2408691E-003  0.5008247E+03  0.7546771E-02  0.9397966E-01
        -11   -1    0    0    0    0  0.00000000000E+00  0.00000000000E+00  0.50000000000E+03  0.50000000000E+03  0.00000000000E+00 0.  1.
         11   -1    0    0    0    0 -0.00000000000E+00 -0.00000000000E+00 -0.50000000000E+03  0.50000000000E+03  0.00000000000E+00 0.  1.
        -11    1    1    2    0    0 -0.79581148382E+01 -0.10354268865E+02  0.49900440430E+03  0.49917525778E+03  0.00000000000E+00 0.  1.
         11    1    1    2    0    0  0.83102638314E+01  0.12222066713E+02 -0.24557776963E+03  0.24602211351E+03  0.00000000000E+00 0.  1.
        -15    1    1    2    0    0  0.74670861849E-01 -0.10032985267E+02 -0.22339253618E+03  0.22362479585E+03  0.17770000000E+01 0.  1.
         15    1    1    2    0    0 -0.42681985506E+00  0.81651874198E+01 -0.30034098490E+02  0.31177832860E+02  0.17770000000E+01 0. -1.
</event>
<event>
 6    1  0.2408691E-003  0.4919084E+03  0.7546771E-02  0.9418100E-01
        -11   -1    0    0    0    0  0.00000000000E+00  0.00000000000E+00  0.50000000000E+03  0.50000000000E+03  0.00000000000E+00 0. -1.
         11   -1    0    0    0    0 -0.00000000000E+00 -0.00000000000E+00 -0.50000000000E+03  0.50000000000E+03  0.00000000000E+00 0. -1.
        -11    1    1    2    0    0 -0.91779504157E+01  0.51143608609E+01  0.49429364699E+03  0.49440530025E+03  0.00000000000E+00 0. -1.
         11    1    1    2    0    0  0.65636663025E+01  0.43732414323E+01 -0.48940922407E+03  0.48947277306E+03  0.00000000000E+00 0. -1.
        -15    1    1    2    0    0  0.12992422387E+01 -0.98151207392E+01 -0.75983834105E+01  0.12606259754E+02  0.17770000000E+01 0.  1.
         15    1    1    2    0    0  0.13150418745E+01  0.32751844602E+00  0.27139604887E+01  0.35156669351E+01  0.17770000000E+01 0. -1.
</event>
<event>
 6    1  0.2408691E-003  0.5010710E+03  0.7546771E-02  0.9397416E-01
        -11   -1    0    0    0    0  0.00000000000E+00  0.00000000000E+00  0.50000000000E+03  0.50000000000E+03  0.00000000000E+00 0. -1.
         11   -1    0    0    0    0 -0.00000000000E+00 -0.00000000000E+00 -0.50000000000E+03  0.50000000000E+03  0.00000000000E+00 0. -1.
        -11    1    1    2    0    0  0.32968387156E+01 -0.26543957446E+01  0.28271062962E+03  0.28274231212E+03  0.00000000000E+00 0. -1.
         11    1    1    2    0    0 -0.16107467193E+02  0.59613099391E+01 -0.49863325843E+03  0.49892896702E+03  0.00000000000E+00 0. -1.
        -15    1    1    2    0    0  0.22201222900E+02 -0.70031386467E+00  0.13993566335E+03  0.14169873798E+03  0.17770000000E+01 0. -1.
         15    1    1    2    0    0 -0.93905944222E+01 -0.26066003298E+01  0.75986965453E+02  0.76629982883E+02  0.17770000000E+01 0.  1.
</event>
<event>
 6    1  0.2408691E-003  0.5086170E+03  0.7546771E-02  0.9380732E-01
        -11   -1    0    0    0    0  0.00000000000E+00  0.00000000000E+00  0.50000000000E+03  0.50000000000E+03  0.00000000000E+00 0.  1.
         11   -1    0    0    0    0 -0.00000000000E+00 -0.00000000000E+00 -0.50000000000E+03  0.50000000000E+03  0.00000000000E+00 0.  1.
        -11    1    1    2    0    0 -0.70670275810E+01 -0.20014356902E+00  0.49133211352E+03  0.49138297560E+03  0.00000000000E+00 0.  1.
         11    1    1    2    0    0  0.67683333433E+01  0.16792482424E+02 -0.44763827905E+03  0.44800427082E+03  0.00000000000E+00 0.  1.
        -15    1    1    2    0    0  0.17668909567E+01 -0.13858973329E+02  0.24802522613E+01  0.14300434457E+02  0.17770000000E+01 0. -1.
         15    1    1    2    0    0 -0.14681967190E+01 -0.27333655260E+01 -0.46174086729E+02  0.46312319127E+02  0.17770000000E+01 0.  1.
</event>
<event>
 6    1  0.2408691E-003  0.5029189E+03  0.7546771E-02  0.9393302E-01
        -11   -1    0    0    0    0  0.00000000000E+00  0.00000000000E+00  0.50000000000E+03  0.50000000000E+03  0.00000000000E+00 0. -1.
         11   -1    0    0    0    0 -0.00000000000E+00 -0.00000000000E+00 -0.50000000000E+03  0.50000000000E+03  0.00000000000E+00 0. -1.
        -11    1    1    2    0    0  0.54897188788E+01 -0.48655566576E+00  0.25800848085E+03  0.25806733606E+03  0.00000000000E+00 0. -1.
         11    1    1    2    0    0  0.74082709331E+00  0.98967746301E+01 -0.49698203718E+03  0.49708112040E+03  0.00000000000E+00 0. -1.
        -15    1    1    2    0    0 -0.13368962790E+02 -0.47019732021E+01  0.23468907553E+03  0.23512328175E+03  0.17770000000E+01 0. -1.
         15    1    1    2    0    0  0.71384168181E+01 -0.47082457622E+01  0.42844807984E+01  0.97282617942E+01  0.17770000000E+01 0.  1.
</event>
<event>
 6    1  0.2408691E-003  0.5042022E+03  0.7546771E-02  0.9390456E-01
        -11   -1    0    0    0    0  0.00000000000E+00  0.00000000000E+00  0.50000000000E+03  0.50000000000E+03  0.00000000000E+00 0. -1.
         11   -1    0    0    0    0 -0.00000000000E+00 -0.00000000000E+00 -0.50000000000E+03  0.50000000000E+03  0.00000000000E+00 0.  1.
        -11    1    1    2    0    0 -0.17750011432E+01 -0.10427495881E+02  0.49568496863E+03  0.49579781305E+03  0.00000000000E+00 0. -1.
         11    1    1    2    0    0 -0.74757625446E+01 -0.40083617155E+01 -0.46045925108E+03  0.46053737731E+03  0.00000000000E+00 0.  1.
        -15    1    1    2    0    0  0.36633429552E+01  0.18560868189E+01  0.12431989120E+01  0.46441804898E+01  0.17770000000E+01 0. -1.
         15    1    1    2    0    0  0.55874207326E+01  0.12579770778E+02 -0.36468916454E+02  0.39020629154E+02  0.17770000000E+01 0.  1.
</event>
<event>
 6    1  0.2408691E-003  0.5167079E+03  0.7546771E-02  0.9363182E-01
        -11   -1    0    0    0    0  0.00000000000E+00  0.00000000000E+00  0.50000000000E+03  0.50000000000E+03  0.00000000000E+00 0. -1.
         11   -1    0    0    0    0 -0.00000000000E+00 -0.00000000000E+00 -0.50000000000E+03  0.50000000000E+03  0.00000000000E+00 0.  1.
        -11    1    1    2    0    0 -0.68703203933E+01 -0.15978295818E+01  0.47169925178E+03  0.47175198833E+03  0.00000000000E+00 0. -1.
         11    1    1    2    0    0 -0.47809037740E+01  0.10985036125E+02 -0.48314361601E+03  0.48329212879E+03  0.00000000000E+00 0.  1.
        -15    1    1    2    0    0  0.38715216899E+01 -0.23808148299E+01 -0.15364238126E+02  0.16120623488E+02  0.17770000000E+01 0. -1.
         15    1    1    2    0    0  0.77797024774E+01 -0.70063917135E+01  0.26808602351E+02  0.28835259397E+02  0.17770000000E+01 0.  1.
</event>
<event>
 6    1  0.2408691E-003  0.5874133E+03  0.7546771E-02  0.9223002E-01
        -11   -1    0    0    0    0  0.00000000000E+00  0.00000000000E+00  0.50000000000E+03  0.50000000000E+03  0.00000000000E+00 0. -1.
         11   -1    0    0    0    0 -0.00000000000E+00 -0.00000000000E+00 -0.50000000000E+03  0.50000000000E+03  0.00000000000E+00 0.  1.
        -11    1    1    2    0    0  0.31153107860E+01 -0.44910449293E+01  0.35804431861E+03  0.35808603538E+03  0.00000000000E+00 0. -1.
         11    1    1    2    0    0  0.40201607440E+01  0.17133933737E+02 -0.41221118675E+03  0.41258671314E+03  0.00000000000E+00 0.  1.
        -15    1    1    2    0    0 -0.12712558124E+01 -0.14587726918E+02 -0.86885383193E+02  0.88128573173E+02  0.17770000000E+01 0.  1.
         15    1    1    2    0    0 -0.58642157175E+01  0.19448381106E+01  0.14105225133E+03  0.14119867831E+03  0.17770000000E+01 0. -1.
</event>
<event>
 6    1  0.2408691E-003  0.5007920E+03  0.7546771E-02  0.9398039E-01
        -11   -1    0    0    0    0  0.00000000000E+00  0.00000000000E+00  0.50000000000E+03  0.50000000000E+03  0.00000000000E+00 0.  1.
         11   -1    0    0    0    0 -0.00000000000E+00 -0.00000000000E+00 -0.50000000000E+03  0.50000000000E+03  0.00000000000E+00 0. -1.
        -11    1    1    2    0    0 -0.60699882790E+01  0.10849832088E+02  0.49905321486E+03  0.49920804768E+03  0.00000000000E+00 0.  1.
         11    1    1    2    0    0 -0.50645068368E+01 -0.31935550099E+01 -0.29108810980E+03  0.29114967919E+03  0.00000000000E+00 0. -1.
        -15    1    1    2    0    0 -0.19948839851E+01  0.48390230730E+01 -0.18613983355E+02  0.19417358517E+02  0.17770000000E+01 0. -1.
         15    1    1    2    0    0  0.13129379101E+02 -0.12495300151E+02 -0.18935112170E+03  0.19022491461E+03  0.17770000000E+01 0.  1.
</event>
<event>
 6    1  0.2408691E-003  0.5002203E+03  0.7546771E-02  0.9399317E-01
        -11   -1    0    0    0    0  0.00000000000E+00  0.00000000000E+00  0.50000000000E+03  0.50000000000E+03  0.00000000000E+00 0. -1.
         11   -1    0    0    0    0 -0.00000000000E+00 -0.00000000000E+00 -0.50000000000E+03  0.50000000000E+03  0.00000000000E+00 0. -1.
        -11    1    1    2    0    0 -0.11372685172E+01  0.79195489345E+00  0.60817906094E+02  0.60833693574E+02  0.00000000000E+00 0. -1.
         11    1    1    2    0    0  0.17330222614E+02 -0.11485861335E+01 -0.49947778991E+03  0.49977966993E+03  0.00000000000E+00 0. -1.
        -15    1    1    2    0    0 -0.74429939656E+01 -0.70871403579E+00  0.47045853022E+02  0.47669386931E+02  0.17770000000E+01 0.  1.
         15    1    1    2    0    0 -0.87499601316E+01  0.10653452759E+01  0.39161403079E+03  0.39171724956E+03  0.17770000000E+01 0. -1.
</event>
<event>
 6    1  0.2408691E-003  0.5005713E+03  0.7546771E-02  0.9398532E-01
        -11   -1    0    0    0    0  0.00000000000E+00  0.00000000000E+00  0.50000000000E+03  0.50000000000E+03  0.00000000000E+00 0.  1.
         11   -1    0    0    0    0 -0.00000000000E+00 -0.00000000000E+00 -0.50000000000E+03  0.50000000000E+03  0.00000000000E+00 0. -1.
        -11    1    1    2    0    0 -0.38289113611E+01  0.57333197497E+01  0.49938112180E+03  0.49942870996E+03  0.00000000000E+00 0.  1.
         11    1    1    2    0    0  0.29748672935E+01 -0.59532785093E+01 -0.42955606681E+03  0.42960761852E+03  0.00000000000E+00 0. -1.
        -15    1    1    2    0    0 -0.17317357403E+01  0.57404489358E+01 -0.31268387763E+02  0.31887638121E+02  0.17770000000E+01 0.  1.
         15    1    1    2    0    0  0.25857798079E+01 -0.55204901761E+01 -0.38556667235E+02  0.39076033400E+02  0.17770000000E+01 0. -1.
</event>
<event>
 6    1  0.2408691E-003  0.4550831E+03  0.7546771E-02  0.9506334E-01
        -11   -1    0    0    0    0  0.00000000000E+00  0.00000000000E+00  0.50000000000E+03  0.50000000000E+03  0.00000000000E+00 0.  1.
         11   -1    0    0    0    0 -0.00000000000E+00 -0.00000000000E+00 -0.50000000000E+03  0.50000000000E+03  0.00000000000E+00 0.  1.
        -11    1    1    2    0    0  0.17902659020E+02  0.39350241341E+01  0.46873503658E+03  0.46909330003E+03  0.00000000000E+00 0.  1.
         11    1    1    2    0    0  0.36042780572E+02  0.48066195261E+01 -0.44162061408E+03  0.44311505549E+03  0.00000000000E+00 0.  1.
        -15    1    1    2    0    0 -0.51406083779E+02 -0.44477584685E+01 -0.45402337030E+02  0.68752439533E+02  0.17770000000E+01 0. -1.
         15    1    1    2    0    0 -0.25393558130E+01 -0.42938851916E+01  0.18287914535E+02  0.19039204947E+02  0.17770000000E+01 0.  1.
</event>
<event>
 6    1  0.2408691E-003  0.5056249E+03  0.7546771E-02  0.9387311E-01
        -11   -1    0    0    0    0  0.00000000000E+00  0.00000000000E+00  0.50000000000E+03  0.50000000000E+03  0.00000000000E+00 0. -1.
         11   -1    0    0    0    0 -0.00000000000E+00 -0.00000000000E+00 -0.50000000000E+03  0.50000000000E+03  0.00000000000E+00 0. -1.
        -11    1    1    2    0    0  0.69006764936E+01 -0.62395988236E+01  0.49428751269E+03  0.49437505715E+03  0.00000000000E+00 0. -1.
         11    1    1    2    0    0 -0.10053580242E+02  0.57374936008E+01 -0.48987037095E+03  0.49000711591E+03  0.00000000000E+00 0. -1.
        -15    1    1    2    0    0 -0.26655779916E+01 -0.92475715888E+00 -0.78209228952E+01  0.85020612656E+01  0.17770000000E+01 0. -1.
         15    1    1    2    0    0  0.58184817401E+01  0.14268623817E+01  0.34037811552E+01  0.71157656769E+01  0.17770000000E+01 0.  1.
</event>
<event>
 6    1  0.2408691E-003  0.4867033E+03  0.7546771E-02  0.9430064E-01
        -11   -1    0    0    0    0  0.00000000000E+00  0.00000000000E+00  0.50000000000E+03  0.50000000000E+03  0.00000000000E+00 0.  1.
         11   -1    0    0    0    0 -0.00000000000E+00 -0.00000000000E+00 -0.50000000000E+03  0.50000000000E+03  0.00000000000E+00 0. -1.
        -11    1    1    2    0    0  0.64672280676E+01  0.47772807577E+01  0.48746777459E+03  0.48753407954E+03  0.00000000000E+00 0.  1.
         11    1    1    2    0    0 -0.21289284884E+01  0.75501225840E+01 -0.48589823858E+03  0.48596155706E+03  0.00000000000E+00 0. -1.
        -15    1    1    2    0    0 -0.49729945818E+01 -0.49081196704E+01  0.10183926196E+02  0.12477595745E+02  0.17770000000E+01 0. -1.
         15    1    1    2    0    0  0.63469500259E+00 -0.74192836713E+01 -0.11753462209E+02  0.14026767655E+02  0.17770000000E+01 0.  1.
</event>
<event>
 6    1  0.2408691E-003  0.5003546E+03  0.7546771E-02  0.9399017E-01
        -11   -1    0    0    0    0  0.00000000000E+00  0.00000000000E+00  0.50000000000E+03  0.50000000000E+03  0.00000000000E+00 0. -1.
         11   -1    0    0    0    0 -0.00000000000E+00 -0.00000000000E+00 -0.50000000000E+03  0.50000000000E+03  0.00000000000E+00 0.  1.
        -11    1    1    2    0    0  0.71427642793E+01 -0.27231971027E+00  0.49959422231E+03  0.49964535443E+03  0.00000000000E+00 0. -1.
         11    1    1    2    0    0  0.24365308848E+01  0.62073275562E+00 -0.90992683183E+02  0.91027415566E+02  0.00000000000E+00 0.  1.
        -15    1    1    2    0    0  0.30159433644E+01  0.59275744624E+01 -0.24942567640E+03  0.24952065612E+03  0.17770000000E+01 0.  1.
         15    1    1    2    0    0 -0.12595238529E+02 -0.62759875077E+01 -0.15917586272E+03  0.15980657388E+03  0.17770000000E+01 0.  1.
</event>
<event>
 6    1  0.2408691E-003  0.5046983E+03  0.7546771E-02  0.9389358E-01
        -11   -1    0    0    0    0  0.00000000000E+00  0.00000000000E+00  0.50000000000E+03  0.50000000000E+03  0.00000000000E+00 0. -1.
         11   -1    0    0    0    0 -0.00000000000E+00 -0.00000000000E+00 -0.50000000000E+03  0.50000000000E+03  0.00000000000E+00 0.  1.
        -11    1    1    2    0    0  0.71972087544E+01 -0.69471300700E+01  0.24197486508E+03  0.24218153885E+03  0.00000000000E+00 0. -1.
         11    1    1    2    0    0  0.51396986683E+01 -0.11699244818E+02 -0.49513684647E+03  0.49530171165E+03  0.00000000000E+00 0.  1.
        -15    1    1    2    0    0 -0.29554769978E+02  0.21108939847E+02  0.73468197371E+02  0.81974419936E+02  0.17770000000E+01 0.  1.
         15    1    1    2    0    0  0.17217862555E+02 -0.24625649586E+01  0.17969378402E+03  0.18054232956E+03  0.17770000000E+01 0. -1.
</event>
<event>
 6    1  0.2408691E-003  0.5044996E+03  0.7546771E-02  0.9389797E-01
        -11   -1    0    0    0    0  0.00000000000E+00  0.00000000000E+00  0.50000000000E+03  0.50000000000E+03  0.00000000000E+00 0.  1.
         11   -1    0    0    0    0 -0.00000000000E+00 -0.00000000000E+00 -0.50000000000E+03  0.50000000000E+03  0.00000000000E+00 0.  1.
        -11    1    1    2    0    0  0.65518171588E+01  0.69445204938E+01  0.49540838277E+03  0.49550037174E+03  0.00000000000E+00 0.  1.
         11    1    1    2    0    0 -0.69488677023E+01  0.28826436568E+01 -0.41575478981E+03  0.41582284887E+03  0.00000000000E+00 0.  1.
        -15    1    1    2    0    0  0.83580027324E+01  0.59099617199E+01 -0.42623725477E+01  0.11229844431E+02  0.17770000000E+01 0.  1.
         15    1    1    2    0    0 -0.79609521888E+01 -0.15737125871E+02 -0.75391220415E+02  0.77446934962E+02  0.17770000000E+01 0. -1.
</event>
<event>
 6    1  0.2408691E-003  0.3805297E+03  0.7546771E-02  0.9715746E-01
        -11   -1    0    0    0    0  0.00000000000E+00  0.00000000000E+00  0.50000000000E+03  0.50000000000E+03  0.00000000000E+00 0. -1.
         11   -1    0    0    0    0 -0.00000000000E+00 -0.00000000000E+00 -0.50000000000E+03  0.50000000000E+03  0.00000000000E+00 0.  1.
        -11    1    1    2    0    0  0.21763276061E+01 -0.94580139338E+01  0.47088235410E+03  0.47098235830E+03  0.00000000000E+00 0. -1.
         11    1    1    2    0    0 -0.56184585908E+01  0.20805022165E+02 -0.97321781743E+02  0.99679211604E+02  0.00000000000E+00 0.  1.
        -15    1    1    2    0    0 -0.83559459598E+02 -0.32426397746E+02 -0.30107633521E+03  0.31413973310E+03  0.17770000000E+01 0.  1.
         15    1    1    2    0    0  0.87001590583E+02  0.21079389515E+02 -0.72484237143E+02  0.11519869700E+03  0.17770000000E+01 0. -1.
</event>
<event>
 6    1  0.2408691E-003  0.5016172E+03  0.7546771E-02  0.9396198E-01
        -11   -1    0    0    0    0  0.00000000000E+00  0.00000000000E+00  0.50000000000E+03  0.50000000000E+03  0.00000000000E+00 0. -1.
         11   -1    0    0    0    0 -0.00000000000E+00 -0.00000000000E+00 -0.50000000000E+03  0.50000000000E+03  0.00000000000E+00 0.  1.
        -11    1    1    2    0    0  0.57547162412E+01 -0.10184402998E+02  0.49824551860E+03  0.49838282036E+03  0.00000000000E+00 0. -1.
         11    1    1    2    0    0  0.60838033728E+01  0.29139040874E+01 -0.30457384540E+03  0.30464853652E+03  0.00000000000E+00 0.  1.
        -15    1    1    2    0    0 -0.27653055530E+00  0.77266417635E+01 -0.17323467818E+03  0.17341623025E+03  0.17770000000E+01 0.  1.
         15    1    1    2    0    0 -0.11561989059E+02 -0.45614285322E+00 -0.20436995024E+02  0.23552412868E+02  0.17770000000E+01 0. -1.
</event>
<event>
 6    1  0.2408691E-003  0.5062634E+03  0.7546771E-02  0.9385903E-01
        -11   -1    0    0    0    0  0.00000000000E+00  0.00000000000E+00  0.50000000000E+03  0.50000000000E+03  0.00000000000E+00 0.  1.
         11   -1    0    0    0    0 -0.00000000000E+00 -0.00000000000E+00 -0.50000000000E+03  0.50000000000E+03  0.00000000000E+00 0. -1.
        -11    1    1    2    0    0 -0.59861650201E+01 -0.37497250854E+01  0.25667091804E+03  0.25676809533E+03  0.00000000000E+00 0.  1.
         11    1    1    2    0    0 -0.13722870406E+02  0.21330526310E+02 -0.49308473149E+03  0.49373663116E+03  0.00000000000E+00 0. -1.
        -15    1    1    2    0    0 -0.72861082004E+01 -0.13396017125E+02  0.45380464957E+01  0.16009129974E+02  0.17770000000E+01 0.  1.
         15    1    1    2    0    0  0.26995143626E+02 -0.41847840999E+01  0.23187576695E+03  0.23348614354E+03  0.17770000000E+01 0. -1.
</event>
<event>
 6    1  0.2408691E-003  0.5001641E+03  0.7546771E-02  0.9399443E-01
        -11   -1    0    0    0    0  0.00000000000E+00  0.00000000000E+00  0.50000000000E+03  0.50000000000E+03  0.00000000000E+00 0.  1.
         11   -1    0    0    0    0 -0.00000000000E+00 -0.00000000000E+00 -0.50000000000E+03  0.50000000000E+03  0.00000000000E+00 0. -1.
        -11    1    1    2    0    0 -0.80418371257E+01  0.56700706404E+01  0.49973907037E+03  0.49983593239E+03  0.00000000000E+00 0.  1.
         11    1    1    2    0    0  0.58561027169E+01 -0.51848418231E+01 -0.30032459779E+03  0.30042643120E+03  0.00000000000E+00 0. -1.
        -15    1    1    2    0    0  0.52170591270E+01 -0.32521898107E+01 -0.87428830565E+02  0.87662720626E+02  0.17770000000E+01 0.  1.
         15    1    1    2    0    0 -0.30313247183E+01  0.27669609935E+01 -0.11198564202E+03  0.11207491579E+03  0.17770000000E+01 0. -1.
</event>
<event>
 6    1  0.2408691E-003  0.5037718E+03  0.7546771E-02  0.9391409E-01
        -11   -1    0    0    0    0  0.00000000000E+00  0.00000000000E+00  0.50000000000E+03  0.50000000000E+03  0.00000000000E+00 0.  1.
         11   -1    0    0    0    0 -0.00000000000E+00 -0.00000000000E+00 -0.50000000000E+03  0.50000000000E+03  0.00000000000E+00 0. -1.
        -11    1    1    2    0    0 -0.10379589004E+02 -0.14187317903E+01  0.49611761441E+03  0.49622820960E+03  0.00000000000E+00 0.  1.
         11    1    1    2    0    0  0.24747705653E+01  0.16613697605E+02 -0.41974327303E+03  0.42007922431E+03  0.00000000000E+00 0. -1.
        -15    1    1    2    0    0  0.33657169564E+01 -0.14897113226E+02 -0.77220328658E+02  0.78736198284E+02  0.17770000000E+01 0. -1.
         15    1    1    2    0    0  0.45391014824E+01 -0.29785258922E+00  0.84598727706E+00  0.49563678137E+01  0.17770000000E+01 0.  1.
</event>
<event>
 6    1  0.2408691E-003  0.5006795E+03  0.7546771E-02  0.9398291E-01
        -11   -1    0    0    0    0  0.00000000000E+00  0.00000000000E+00  0.50000000000E+03  0.50000000000E+03  0.00000000000E+00 0.  1.
         11   -1    0    0    0    0 -0.00000000000E+00 -0.00000000000E+00 -0.50000000000E+03  0.50000000000E+03  0.00000000000E+00 0.  1.
        -11    1    1    2    0    0 -0.57984838543E+01  0.44360736620E+01  0.49926710582E+03  0.49932048237E+03  0.00000000000E+00 0.  1.
         11    1    1    2    0    0 -0.64810365651E+01  0.32037939089E-01 -0.35485669688E+03  0.35491587761E+03  0.00000000000E+00 0.  1.
        -15    1    1    2    0    0  0.14193303916E+02  0.28858466523E+00 -0.98490859362E+02  0.99524571157E+02  0.17770000000E+01 0.  1.
         15    1    1    2    0    0 -0.19137834966E+01 -0.47566962663E+01 -0.45919549575E+02  0.46239068857E+02  0.17770000000E+01 0. -1.
</event>
<event>
 6    1  0.2408691E-003  0.5126871E+03  0.7546771E-02  0.9371860E-01
        -11   -1    0    0    0    0  0.00000000000E+00  0.00000000000E+00  0.50000000000E+03  0.50000000000E+03  0.00000000000E+00 0. -1.
         11   -1    0    0    0    0 -0.00000000000E+00 -0.00000000000E+00 -0.50000000000E+03  0.50000000000E+03  0.00000000000E+00 0.  1.
        -11    1    1    2    0    0 -0.13973439643E+02 -0.67988955992E-01  0.37896867280E+03  0.37922620769E+03  0.00000000000E+00 0. -1.
         11    1    1    2    0    0  0.57147740718E+01  0.14230846242E+02 -0.48707156860E+03  0.48731292673E+03  0.00000000000E+00 0.  1.
        -15    1    1    2    0    0 -0.15022603738E+02  0.58511972506E+00  0.10452248923E+03  0.10561311222E+03  0.17770000000E+01 0. -1.
         15    1    1    2    0    0  0.23281269309E+02 -0.14747977011E+02  0.35804065610E+01  0.27847753351E+02  0.17770000000E+01 0.  1.
</event>
<event>
 6    1  0.2408691E-003  0.5007733E+03  0.7546771E-02  0.9398081E-01
        -11   -1    0    0    0    0  0.00000000000E+00  0.00000000000E+00  0.50000000000E+03  0.50000000000E+03  0.00000000000E+00 0. -1.
         11   -1    0    0    0    0 -0.00000000000E+00 -0.00000000000E+00 -0.50000000000E+03  0.50000000000E+03  0.00000000000E+00 0. -1.
        -11    1    1    2    0    0  0.48764204799E+00  0.73545694975E+01  0.49917229196E+03  0.49922670657E+03  0.00000000000E+00 0. -1.
         11    1    1    2    0    0  0.70703342788E+01  0.24892030382E+01 -0.35117534079E+03  0.35125532841E+03  0.00000000000E+00 0. -1.
        -15    1    1    2    0    0 -0.31595120470E+01 -0.59615979248E+01 -0.16978676982E+02  0.18356371298E+02  0.17770000000E+01 0.  1.
         15    1    1    2    0    0 -0.43984642797E+01 -0.38821746109E+01 -0.13101827419E+03  0.13116159373E+03  0.17770000000E+01 0. -1.
</event>
<event>
 6    1  0.2408691E-003  0.5013784E+03  0.7546771E-02  0.9396731E-01
        -11   -1    0    0    0    0  0.00000000000E+00  0.00000000000E+00  0.50000000000E+03  0.50000000000E+03  0.00000000000E+00 0.  1.
         11   -1    0    0    0    0 -0.00000000000E+00 -0.00000000000E+00 -0.50000000000E+03  0.50000000000E+03  0.00000000000E+00 0. -1.
        -11    1    1    2    0    0 -0.63173439336E+01 -0.31330765319E+01  0.49857173491E+03  0.49862159987E+03  0.00000000000E+00 0.  1.
         11    1    1    2    0    0  0.36225186933E+01 -0.60763600681E+01 -0.14013798912E+03  0.14031643093E+03  0.00000000000E+00 0. -1.
        -15    1    1    2    0    0  0.69728656108E+01  0.43381875248E+01 -0.12491605769E+02  0.15054523224E+02  0.17770000000E+01 0.  1.
         15    1    1    2    0    0 -0.42780403705E+01  0.48712490753E+01 -0.34594214002E+03  0.34600744598E+03  0.17770000000E+01 0. -1.
</event>
<event>
 6    1  0.2408691E-003  0.4830937E+03  0.7546771E-02  0.9438454E-01
        -11   -1    0    0    0    0  0.00000000000E+00  0.00000000000E+00  0.50000000000E+03  0.50000000000E+03  0.00000000000E+00 0.  1.
         11   -1    0    0    0    0 -0.00000000000E+00 -0.00000000000E+00 -0.50000000000E+03  0.50000000000E+03  0.00000000000E+00 0. -1.
        -11    1    1    2    0    0  0.13301803274E+02  0.60843600542E+01  0.48481178636E+03  0.48503239645E+03  0.00000000000E+00 0.  1.
         11    1    1    2    0    0  0.29080502930E+01  0.62939080769E+01 -0.48132668809E+03  0.48137662044E+03  0.00000000000E+00 0. -1.
        -15    1    1    2    0    0  0.70659810221E+01 -0.52740455801E+01 -0.49996391440E+00  0.90084037155E+01  0.17770000000E+01 0.  1.
         15    1    1    2    0    0 -0.23275834589E+02 -0.71042225510E+01 -0.29851343588E+01  0.24582579401E+02  0.17770000000E+01 0. -1.
</event>
<event>
 6    1  0.2408691E-003  0.5015175E+03  0.7546771E-02  0.9396420E-01
        -11   -1    0    0    0    0  0.00000000000E+00  0.00000000000E+00  0.50000000000E+03  0.50000000000E+03  0.00000000000E+00 0. -1.
         11   -1    0    0    0    0 -0.00000000000E+00 -0.00000000000E+00 -0.50000000000E+03  0.50000000000E+03  0.00000000000E+00 0.  1.
        -11    1    1    2    0    0 -0.86262184489E+01 -0.55935829450E+00  0.29372088405E+03  0.29384805981E+03  0.00000000000E+00 0. -1.
         11    1    1    2    0    0  0.36835923833E+01  0.10209824540E+02 -0.49836427267E+03  0.49848245470E+03  0.00000000000E+00 0.  1.
        -15    1    1    2    0    0  0.25147365584E+01 -0.96785441937E+01  0.20439850441E+03  0.20465068886E+03  0.17770000000E+01 0. -1.
         15    1    1    2    0    0  0.24278895072E+01  0.28077948625E-01  0.24488420738E+00  0.30187966320E+01  0.17770000000E+01 0.  1.
</event>
<event>
 6    1  0.3622737E-003  0.5000914E+03  0.7546771E-02  0.9399605E-01
        -11   -1    0    0    0    0  0.00000000000E+00  0.00000000000E+00  0.50000000000E+03  0.50000000000E+03  0.00000000000E+00 0. -1.
         11   -1    0    0    0    0 -0.00000000000E+00 -0.00000000000E+00 -0.50000000000E+03  0.50000000000E+03  0.00000000000E+00 0.  1.
        -11    1    1    2    0    0 -0.79336381029E+01  0.23525578458E+01  0.49984012624E+03  0.49990862059E+03  0.00000000000E+00 0. -1.
         11    1    1    2    0    0  0.11698644758E+01 -0.90115653243E+00 -0.36828710330E+02  0.36858303956E+02  0.00000000000E+00 0.  1.
        -15    1    1    2    0    0 -0.12816461966E+00 -0.99852291682E+00 -0.12541406351E+02  0.12706615460E+02  0.17770000000E+01 0. -1.
         15    1    1    2    0    0  0.68919382468E+01 -0.45287839655E+00 -0.45047000956E+03  0.45052645999E+03  0.17770000000E+01 0.  1.
</event>
<event>
 6    1  0.2408691E-003  0.5011604E+03  0.7546771E-02  0.9397217E-01
        -11   -1    0    0    0    0  0.00000000000E+00  0.00000000000E+00  0.50000000000E+03  0.50000000000E+03  0.00000000000E+00 0.  1.
         11   -1    0    0    0    0 -0.00000000000E+00 -0.00000000000E+00 -0.50000000000E+03  0.50000000000E+03  0.00000000000E+00 0. -1.
        -11    1    1    2    0    0  0.14224840067E+02 -0.28847249270E+01  0.49862841095E+03  0.49883961342E+03  0.00000000000E+00 0.  1.
         11    1    1    2    0    0 -0.52932080673E+01 -0.38703456906E+01 -0.19477263835E+03  0.19488298612E+03  0.00000000000E+00 0. -1.
        -15    1    1    2    0    0 -0.12492241857E+02  0.65551721144E+01 -0.41077063293E+02  0.43468485663E+02  0.17770000000E+01 0.  1.
         15    1    1    2    0    0  0.35606098572E+01  0.19989850325E+00 -0.26277870930E+03  0.26280891479E+03  0.17770000000E+01 0. -1.
</event>
<event>
 6    1  0.2408691E-003  0.5009081E+03  0.7546771E-02  0.9397780E-01
        -11   -1    0    0    0    0  0.00000000000E+00  0.00000000000E+00  0.50000000000E+03  0.50000000000E+03  0.00000000000E+00 0. -1.
         11   -1    0    0    0    0 -0.00000000000E+00 -0.00000000000E+00 -0.50000000000E+03  0.50000000000E+03  0.00000000000E+00 0.  1.
        -11    1    1    2    0    0 -0.97231019079E+01  0.33057594183E+01  0.49898621493E+03  0.49909188477E+03  0.00000000000E+00 0. -1.
         11    1    1    2    0    0 -0.39015546110E+01  0.28489708025E+01 -0.29542907070E+03  0.29546856783E+03  0.00000000000E+00 0.  1.
        -15    1    1    2    0    0  0.12677766083E+02 -0.13890972131E+02 -0.11713050376E+03  0.11864399479E+03  0.17770000000E+01 0.  1.
         15    1    1    2    0    0  0.94689043571E+00  0.77362419103E+01 -0.86426640471E+02  0.86795552608E+02  0.17770000000E+01 0.  1.
</event>
<event>
 6    1  0.2408691E-003  0.5038323E+03  0.7546771E-02  0.9391275E-01
        -11   -1    0    0    0    0  0.00000000000E+00  0.00000000000E+00  0.50000000000E+03  0.50000000000E+03  0.00000000000E+00 0.  1.
         11   -1    0    0    0    0 -0.00000000000E+00 -0.00000000000E+00 -0.50000000000E+03  0.50000000000E+03  0.00000000000E+00 0.  1.
        -11    1    1    2    0    0 -0.27198077077E+01 -0.58871767015E+01  0.47875418917E+03  0.47879810970E+03  0.00000000000E+00 0.  1.
         11    1    1    2    0    0  0.15727502326E+01 -0.98402592185E+01 -0.49606763174E+03  0.49616771308E+03  0.00000000000E+00 0.  1.
        -15    1    1    2    0    0  0.41745405829E+01  0.11433975413E+02  0.13713656748E+02  0.18422396511E+02  0.17770000000E+01 0.  1.
         15    1    1    2    0    0 -0.30274831078E+01  0.42934605071E+01  0.35997858236E+01  0.66117807034E+01  0.17770000000E+01 0. -1.
</event>
<event>
 6    1  0.2408691E-003  0.5035799E+03  0.7546771E-02  0.9391835E-01
        -11   -1    0    0    0    0  0.00000000000E+00  0.00000000000E+00  0.50000000000E+03  0.50000000000E+03  0.00000000000E+00 0. -1.
         11   -1    0    0    0    0 -0.00000000000E+00 -0.00000000000E+00 -0.50000000000E+03  0.50000000000E+03  0.00000000000E+00 0. -1.
        -11    1    1    2    0    0 -0.11100988235E+02  0.40324851846E+01  0.49627962859E+03  0.49642014729E+03  0.00000000000E+00 0. -1.
         11    1    1    2    0    0 -0.10023407670E+02 -0.64488335865E+01 -0.44270512870E+03  0.44286554070E+03  0.00000000000E+00 0. -1.
        -15    1    1    2    0    0  0.24098127568E+02 -0.19529804565E+00 -0.46788590664E+02  0.52660116207E+02  0.17770000000E+01 0. -1.
         15    1    1    2    0    0 -0.29737316628E+01  0.26116464475E+01 -0.67859092251E+01  0.80541958121E+01  0.17770000000E+01 0.  1.
</event>
<event>
 6    1  0.2408691E-003  0.5007109E+03  0.7546771E-02  0.9398220E-01
        -11   -1    0    0    0    0  0.00000000000E+00  0.00000000000E+00  0.50000000000E+03  0.50000000000E+03  0.00000000000E+00 0.  1.
         11   -1    0    0    0    0 -0.00000000000E+00 -0.00000000000E+00 -0.50000000000E+03  0.50000000000E+03  0.00000000000E+00 0. -1.
        -11    1    1    2    0    0 -0.16257920143E+01 -0.79397686370E+01  0.13018676409E+03  0.13043878515E+03  0.00000000000E+00 0.  1.
         11    1    1    2    0    0 -0.73407730797E+01  0.94124897477E+00 -0.49923420449E+03  0.49928905840E+03  0.00000000000E+00 0. -1.
        -15    1    1    2    0    0  0.25094055055E+01  0.16926235242E+02  0.26015812040E+03  0.26072629306E+03  0.17770000000E+01 0.  1.
         15    1    1    2    0    0  0.64571595886E+01 -0.99277155800E+01  0.10888932001E+03  0.10954586340E+03  0.17770000000E+01 0. -1.
</event>
<event>
 6    1  0.2408691E-003  0.5137298E+03  0.7546771E-02  0.9369602E-01
        -11   -1    0    0    0    0  0.00000000000E+00  0.00000000000E+00  0.50000000000E+03  0.50000000000E+03  0.00000000000E+00 0. -1.
         11   -1    0    0    0    0 -0.00000000000E+00 -0.00000000000E+00 -0.50000000000E+03  0.50000000000E+03  0.00000000000E+00 0.  1.
        -11    1    1    2    0    0  0.37011284567E+01 -0.71182032892E+01  0.48620405272E+03  0.48627024179E+03  0.00000000000E+00 0. -1.
         11    1    1    2    0    0 -0.59530053803E+01 -0.42818009459E+01 -0.47345249214E+03  0.47350927594E+03  0.00000000000E+00 0.  1.
        -15    1    1    2    0    0  0.95775474918E+01  0.15051948457E+02  0.66227393536E+01  0.19113057679E+02  0.17770000000E+01 0. -1.
         15    1    1    2    0    0 -0.73256705682E+01 -0.36519442218E+01 -0.19374299932E+02  0.21107424587E+02  0.17770000000E+01 0.  1.
</event>
<event>
 6    1  0.2408691E-003  0.5000980E+03  0.7546771E-02  0.9399590E-01
        -11   -1    0    0    0    0  0.00000000000E+00  0.00000000000E+00  0.50000000000E+03  0.50000000000E+03  0.00000000000E+00 0. -1.
         11   -1    0    0    0    0 -0.00000000000E+00 -0.00000000000E+00 -0.50000000000E+03  0.50000000000E+03  0.00000000000E+00 0. -1.
        -11    1    1    2    0    0 -0.25811494584E+01 -0.82898180174E+00  0.12448643553E+03  0.12451595148E+03  0.00000000000E+00 0. -1.
         11    1    1    2    0    0 -0.79416656362E+01  0.15591267612E+01 -0.49983643770E+03  0.49990195576E+03  0.00000000000E+00 0. -1.
        -15    1    1    2    0    0  0.35912148303E+00  0.90143266392E+00  0.12203900386E+03  0.12205579766E+03  0.17770000000E+01 0. -1.
         15    1    1    2    0    0  0.10163693612E+02 -0.16315776233E+01  0.25331099830E+03  0.25352629509E+03  0.17770000000E+01 0. -1.
</event>
<event>
 6    1  0.2408691E-003  0.5108415E+03  0.7546771E-02  0.9375873E-01
        -11   -1    0    0    0    0  0.00000000000E+00  0.00000000000E+00  0.50000000000E+03  0.50000000000E+03  0.00000000000E+00 0. -1.
         11   -1    0    0    0    0 -0.00000000000E+00 -0.00000000000E+00 -0.50000000000E+03  0.50000000000E+03  0.00000000000E+00 0.  1.
        -11    1    1    2    0    0  0.36600755165E+01 -0.93747026188E+01  0.44910159184E+03  0.44921433748E+03  0.00000000000E+00 0. -1.
         11    1    1    2    0    0 -0.23467948760E+02 -0.25734636168E+02 -0.48791702054E+03  0.48915849686E+03  0.00000000000E+00 0.  1.
        -15    1    1    2    0    0  0.16659954282E+02  0.97031660728E+01  0.66333573153E+01  0.20466183493E+02  0.17770000000E+01 0. -1.
         15    1    1    2    0    0  0.31479189611E+01  0.25406172714E+02  0.32182071379E+02  0.41160982168E+02  0.17770000000E+01 0.  1.
</event>
<event>
 6    1  0.2408691E-003  0.5166801E+03  0.7546771E-02  0.9363241E-01
        -11   -1    0    0    0    0  0.00000000000E+00  0.00000000000E+00  0.50000000000E+03  0.50000000000E+03  0.00000000000E+00 0. -1.
         11   -1    0    0    0    0 -0.00000000000E+00 -0.00000000000E+00 -0.50000000000E+03  0.50000000000E+03  0.00000000000E+00 0. -1.
        -11    1    1    2    0    0  0.15825417513E+02  0.10314638354E+02  0.48295065807E+03  0.48331994965E+03  0.00000000000E+00 0. -1.
         11    1    1    2    0    0 -0.61638400492E+01 -0.63954933023E+00 -0.45616700934E+03  0.45620909938E+03  0.00000000000E+00 0. -1.
        -15    1    1    2    0    0  0.11054348611E+01  0.86352434403E+01 -0.36122572754E+02  0.37199293096E+02  0.17770000000E+01 0. -1.
         15    1    1    2    0    0 -0.10767012325E+02 -0.18310332464E+02  0.93389240231E+01  0.23271657875E+02  0.17770000000E+01 0.  1.
</event>
<event>
 6    1  0.2408691E-003  0.5040186E+03  0.7546771E-02  0.9390862E-01
        -11   -1    0    0    0    0  0.00000000000E+00  0.00000000000E+00  0.50000000000E+03  0.50000000000E+03  0.00000000000E+00 0. -1.
         11   -1    0    0    0    0 -0.00000000000E+00 -0.00000000000E+00 -0.50000000000E+03  0.50000000000E+03  0.00000000000E+00 0. -1.
        -11    1    1    2    0    0 -0.47064799970E+01 -0.28222581857E+01  0.83142228691E+02  0.83323143765E+02  0.00000000000E+00 0. -1.
         11    1    1    2    0    0  0.70453237164E+01 -0.26441933444E+01 -0.49592429569E+03  0.49598138615E+03  0.00000000000E+00 0. -1.
        -15    1    1    2    0    0 -0.13669558404E+02 -0.50392628678E-02  0.84597188864E+01  0.16173479063E+02  0.17770000000E+01 0.  1.
         15    1    1    2    0    0  0.11330714685E+02  0.54714907930E+01  0.40432234812E+03  0.40452199102E+03  0.17770000000E+01 0. -1.
</event>
<event>
 6    1  0.2408691E-003  0.5020361E+03  0.7546771E-02  0.9395265E-01
        -11   -1    0    0    0    0  0.00000000000E+00  0.00000000000E+00  0.50000000000E+03  0.50000000000E+03  0.00000000000E+00 0.  1.
         11   -1    0    0    0    0 -0.00000000000E+00 -0.00000000000E+00 -0.50000000000E+03  0.50000000000E+03  0.00000000000E+00 0. -1.
        -11    1    1    2    0    0  0.55776119436E+01 -0.33312245201E+02  0.49681706868E+03  0.49796386934E+03  0.00000000000E+00 0.  1.
         11    1    1    2    0    0 -0.12810952476E+01  0.76991140915E+01 -0.30195715564E+03  0.30205801000E+03  0.00000000000E+00 0. -1.
        -15    1    1    2    0    0 -0.17987952098E+02  0.25260376146E+02 -0.12918094892E+03  0.13286281766E+03  0.17770000000E+01 0.  1.
         15    1    1    2    0    0  0.13691435402E+02  0.35275496359E+00 -0.65678964127E+02  0.67115303003E+02  0.17770000000E+01 0. -1.
</event>
<event>
 6    1  0.2408691E-003  0.5021800E+03  0.7546771E-02  0.9394945E-01
        -11   -1    0    0    0    0  0.00000000000E+00  0.00000000000E+00  0.50000000000E+03  0.50000000000E+03  0.00000000000E+00 0.  1.
         11   -1    0    0    0    0 -0.00000000000E+00 -0.00000000000E+00 -0.50000000000E+03  0.50000000000E+03  0.00000000000E+00 0.  1.
        -11    1    1    2    0    0  0.10112431930E+01 -0.92848335107E+01  0.39732656866E+03  0.39743632561E+03  0.00000000000E+00 0.  1.
         11    1    1    2    0    0  0.13988209848E+02  0.46694877363E+01 -0.49760150765E+03  0.49781998207E+03  0.00000000000E+00 0.  1.
        -15    1    1    2    0    0 -0.78774494050E+01  0.11662932692E+02  0.86290640428E+02  0.87448902581E+02  0.17770000000E+01 0.  1.
         15    1    1    2    0    0 -0.71220036361E+01 -0.70475869179E+01  0.13984298560E+02  0.17294789747E+02  0.17770000000E+01 0. -1.
</event>
<event>
 6    1  0.2408691E-003  0.5053443E+03  0.7546771E-02  0.9387930E-01
        -11   -1    0    0    0    0  0.00000000000E+00  0.00000000000E+00  0.50000000000E+03  0.50000000000E+03  0.00000000000E+00 0. -1.
         11   -1    0    0    0    0 -0.00000000000E+00 -0.00000000000E+00 -0.50000000000E+03  0.50000000000E+03  0.00000000000E+00 0. -1.
        -11    1    1    2    0    0  0.71955690648E+01  0.24863165705E+01  0.49459715559E+03  0.49465574322E+03  0.00000000000E+00 0. -1.
         11    1    1    2    0    0  0.39788934927E+00  0.83851268202E+01 -0.48626834084E+03  0.48634079407E+03  0.00000000000E+00 0. -1.
        -15    1    1    2    0    0 -0.66878742882E+01 -0.19505854037E+01 -0.94243033750E+00  0.72510930109E+01  0.17770000000E+01 0. -1.
         15    1    1    2    0    0 -0.90558412589E+00 -0.89208579870E+01 -0.73863844131E+01  0.11752369699E+02  0.17770000000E+01 0. -1.
</event>
<event>
 6    1  0.2408691E-003  0.5020912E+03  0.7546771E-02  0.9395143E-01
        -11   -1    0    0    0    0  0.00000000000E+00  0.00000000000E+00  0.50000000000E+03  0.50000000000E+03  0.00000000000E+00 0. -1.
         11   -1    0    0    0    0 -0.00000000000E+00 -0.00000000000E+00 -0.50000000000E+03  0.50000000000E+03  0.00000000000E+00 0. -1.
        -11    1    1    2    0    0 -0.82510327592E+01  0.10780500671E+01  0.43763200824E+03  0.43771111063E+03  0.00000000000E+00 0. -1.
         11    1    1    2    0    0 -0.77479877323E+01  0.25095734520E+01 -0.49784221711E+03  0.49790882941E+03  0.00000000000E+00 0. -1.
        -15    1    1    2    0    0  0.10899390266E+01 -0.25718895331E+01  0.12648915704E+01  0.35440460687E+01  0.17770000000E+01 0. -1.
         15    1    1    2    0    0  0.14909081465E+02 -0.10157339861E+01  0.58945317301E+02  0.60836013893E+02  0.17770000000E+01 0.  1.
</event>
<event>
 6    1  0.2408691E-003  0.5028641E+03  0.7546771E-02  0.9393424E-01
        -11   -1    0    0    0    0  0.00000000000E+00  0.00000000000E+00  0.50000000000E+03  0.50000000000E+03  0.00000000000E+00 0.  1.
         11   -1    0    0    0    0 -0.00000000000E+00 -0.00000000000E+00 -0.50000000000E+03  0.50000000000E+03  0.00000000000E+00 0.  1.
        -11    1    1    2    0    0  0.29492552671E+01  0.78994952282E+01  0.49706438885E+03  0.49713590375E+03  0.00000000000E+00 0.  1.
         11    1    1    2    0    0  0.38334071663E+01 -0.57401968071E+01 -0.36989870165E+03  0.36996309863E+03  0.00000000000E+00 0.  1.
        -15    1    1    2    0    0 -0.13455334242E+02 -0.17274598911E+02 -0.69608967575E+02  0.72993313961E+02  0.17770000000E+01 0. -1.
         15    1    1    2    0    0  0.66726718085E+01  0.15115300490E+02 -0.57556719629E+02  0.59907683659E+02  0.17770000000E+01 0.  1.
</event>
<event>
 6    1  0.2408691E-003  0.5017588E+03  0.7546771E-02  0.9395883E-01
        -11   -1    0    0    0    0  0.00000000000E+00  0.00000000000E+00  0.50000000000E+03  0.50000000000E+03  0.00000000000E+00 0.  1.
         11   -1    0    0    0    0 -0.00000000000E+00 -0.00000000000E+00 -0.50000000000E+03  0.50000000000E+03  0.00000000000E+00 0.  1.
        -11    1    1    2    0    0 -0.95297251835E+01  0.30567465028E+02  0.49721132944E+03  0.49824119832E+03  0.00000000000E+00 0.  1.
         11    1    1    2    0    0  0.56359445744E+01  0.18058690523E+01 -0.33078028685E+03  0.33083322566E+03  0.00000000000E+00 0.  1.
        -15    1    1    2    0    0  0.97063945034E+01 -0.54913286024E+01 -0.43374097871E+02  0.44820072280E+02  0.17770000000E+01 0.  1.
         15    1    1    2    0    0 -0.58126138943E+01 -0.26882005478E+02 -0.12305694473E+03  0.12610550374E+03  0.17770000000E+01 0. -1.
</event>
<event>
 6    1  0.2408691E-003  0.5078634E+03  0.7546771E-02  0.9382385E-01
        -11   -1    0    0    0    0  0.00000000000E+00  0.00000000000E+00  0.50000000000E+03  0.50000000000E+03  0.00000000000E+00 0. -1.
         11   -1    0    0    0    0 -0.00000000000E+00 -0.00000000000E+00 -0.50000000000E+03  0.50000000000E+03  0.00000000000E+00 0.  1.
        -11    1    1    2    0    0  0.15703474677E+01  0.67591989438E+01  0.47469436734E+03  0.47474508438E+03  0.00000000000E+00 0. -1.
         11    1    1    2    0    0  0.11417417890E+02 -0.97072741586E+01 -0.49190840235E+03  0.49213663235E+03  0.00000000000E+00 0.  1.
        -15    1    1    2    0    0 -0.38778138384E+01 -0.10492568864E+02  0.36907111400E+01  0.11912620167E+02  0.17770000000E+01 0.  1.
         15    1    1    2    0    0 -0.91099515194E+01  0.13440644079E+02  0.13523323871E+02  0.21205663098E+02  0.17770000000E+01 0. -1.
</event>
<event>
 6    1  0.2408691E-003  0.5049256E+03  0.7546771E-02  0.9388855E-01
        -11   -1    0    0    0    0  0.00000000000E+00  0.00000000000E+00  0.50000000000E+03  0.50000000000E+03  0.00000000000E+00 0.  1.
         11   -1    0    0    0    0 -0.00000000000E+00 -0.00000000000E+00 -0.50000000000E+03  0.50000000000E+03  0.00000000000E+00 0. -1.
        -11    1    1    2    0    0  0.70006029030E+01 -0.74147034859E+01  0.49496936446E+03  0.49507439645E+03  0.00000000000E+00 0.  1.
         11    1    1    2    0    0 -0.58174275950E+01 -0.63560004566E+01 -0.47059690488E+03  0.47067577810E+03  0.00000000000E+00 0. -1.
        -15    1    1    2    0    0 -0.75249915801E+01  0.70965158980E+01 -0.30067923132E+01  0.10917168368E+02  0.17770000000E+01 0.  1.
         15    1    1    2    0    0  0.63418162721E+01  0.66741880445E+01 -0.21365667265E+02  0.23332657079E+02  0.17770000000E+01 0. -1.
</event>
<event>
 6    1  0.2408691E-003  0.5046760E+03  0.7546771E-02  0.9389407E-01
        -11   -1    0    0    0    0  0.00000000000E+00  0.00000000000E+00  0.50000000000E+03  0.50000000000E+03  0.00000000000E+00 0. -1.
         11   -1    0    0    0    0 -0.00000000000E+00 -0.00000000000E+00 -0.50000000000E+03  0.50000000000E+03  0.00000000000E+00 0. -1.
        -11    1    1    2    0    0  0.90538253505E+00 -0.37819243844E+01  0.28106720968E+03  0.28109411062E+03  0.00000000000E+00 0. -1.
         11    1    1    2    0    0 -0.10940094513E+02  0.38060820774E+01 -0.49518850422E+03  0.49532396130E+03  0.00000000000E+00 0. -1.
        -15    1    1    2    0    0 -0.40339387538E+01 -0.37596764852E+01 -0.26105417261E+01  0.63545642059E+01  0.17770000000E+01 0.  1.
         15    1    1    2    0    0  0.14068650732E+02  0.37355187922E+01  0.21673183627E+03  0.21722736387E+03  0.17770000000E+01 0. -1.
</event>
<event>
 6    1  0.2408691E-003  0.5046572E+03  0.7546771E-02  0.9389449E-01
        -11   -1    0    0    0    0  0.00000000000E+00  0.00000000000E+00  0.50000000000E+03  0.50000000000E+03  0.00000000000E+00 0.  1.
         11   -1    0    0    0    0 -0.00000000000E+00 -0.00000000000E+00 -0.50000000000E+03  0.50000000000E+03  0.00000000000E+00 0. -1.
        -11    1    1    2    0    0  0.55692467567E+01  0.51525447475E+01  0.49528464268E+03  0.49534275255E+03  0.00000000000E+00 0.  1.
         11    1    1    2    0    0 -0.54810052924E+01 -0.68659212395E+01 -0.23587453850E+03  0.23603809059E+03  0.00000000000E+00 0. -1.
        -15    1    1    2    0    0 -0.61164585460E+01  0.35794001680E+01  0.16389513975E+01  0.74877941605E+01  0.17770000000E+01 0.  1.
         15    1    1    2    0    0  0.60282170816E+01 -0.18660236760E+01 -0.26104905557E+03  0.26113136271E+03  0.17770000000E+01 0. -1.
</event>
<event>
 6    1  0.2408691E-003  0.5002944E+03  0.7546771E-02  0.9399151E-01
        -11   -1    0    0    0    0  0.00000000000E+00  0.00000000000E+00  0.50000000000E+03  0.50000000000E+03  0.00000000000E+00 0.  1.
         11   -1    0    0    0    0 -0.00000000000E+00 -0.00000000000E+00 -0.50000000000E+03  0.50000000000E+03  0.00000000000E+00 0.  1.
        -11    1    1    2    0    0  0.65421213579E+01  0.56979126244E+01  0.49963024365E+03  0.49970555923E+03  0.00000000000E+00 0.  1.
         11    1    1    2    0    0  0.41251122873E+01  0.33428591277E-01 -0.22329211756E+03  0.22333022060E+03  0.00000000000E+00 0.  1.
        -15    1    1    2    0    0 -0.69601132462E+01 -0.31066819280E+01 -0.53181231367E+02  0.53754030060E+02  0.17770000000E+01 0. -1.
         15    1    1    2    0    0 -0.37071203990E+01 -0.26246592877E+01 -0.22315689472E+03  0.22321019011E+03  0.17770000000E+01 0. -1.
</event>
<event>
 6    1  0.2408691E-003  0.5009297E+03  0.7546771E-02  0.9397732E-01
        -11   -1    0    0    0    0  0.00000000000E+00  0.00000000000E+00  0.50000000000E+03  0.50000000000E+03  0.00000000000E+00 0. -1.
         11   -1    0    0    0    0 -0.00000000000E+00 -0.00000000000E+00 -0.50000000000E+03  0.50000000000E+03  0.00000000000E+00 0.  1.
        -11    1    1    2    0    0  0.17953971381E+01 -0.29483242339E+01  0.20112740917E+03  0.20115703016E+03  0.00000000000E+00 0. -1.
         11    1    1    2    0    0 -0.11462241334E+02  0.11842651738E+01 -0.49893723859E+03  0.49907028915E+03  0.00000000000E+00 0.  1.
        -15    1    1    2    0    0  0.13017836661E+02  0.19237873086E+01  0.44608548095E+02  0.46542940615E+02  0.17770000000E+01 0.  1.
         15    1    1    2    0    0 -0.33509924654E+01 -0.15972824858E+00  0.25320128133E+03  0.25322974007E+03  0.17770000000E+01 0. -1.
</event>
<event>
 6    1  0.2408691E-003  0.5009120E+03  0.7546771E-02  0.9397771E-01
        -11   -1    0    0    0    0  0.00000000000E+00  0.00000000000E+00  0.50000000000E+03  0.50000000000E+03  0.00000000000E+00 0.  1.
         11   -1    0    0    0    0 -0.00000000000E+00 -0.00000000000E+00 -0.50000000000E+03  0.50000000000E+03  0.00000000000E+00 0. -1.
        -11    1    1    2    0    0 -0.80916930949E+01 -0.23360348931E+02  0.49847528700E+03  0.49908796134E+03  0.00000000000E+00 0.  1.
         11    1    1    2    0    0 -0.78322507755E+01 -0.65734075359E+00 -0.13957093201E+03  0.13979206455E+03  0.00000000000E+00 0. -1.
        -15    1    1    2    0    0  0.13826120539E+02  0.13357851892E+02 -0.32274517943E+03  0.32332213408E+03  0.17770000000E+01 0. -1.
         15    1    1    2    0    0  0.20978233309E+01  0.10659837792E+02 -0.36159175568E+02  0.37797840034E+02  0.17770000000E+01 0.  1.
</event>
<event>
 6    1  0.2408691E-003  0.5008767E+03  0.7546771E-02  0.9397850E-01
        -11   -1    0    0    0    0  0.00000000000E+00  0.00000000000E+00  0.50000000000E+03  0.50000000000E+03  0.00000000000E+00 0.  1.
         11   -1    0    0    0    0 -0.00000000000E+00 -0.00000000000E+00 -0.50000000000E+03  0.50000000000E+03  0.00000000000E+00 0.  1.
        -11    1    1    2    0    0  0.92418131518E+01  0.18883684557E+01  0.29667872190E+03  0.29682863924E+03  0.00000000000E+00 0.  1.
         11    1    1    2    0    0 -0.90672463811E+01 -0.73482788916E+01 -0.49898685796E+03  0.49912332802E+03  0.00000000000E+00 0.  1.
        -15    1    1    2    0    0 -0.85090190562E+01  0.77316726379E+01  0.17421662566E+03  0.17460461778E+03  0.17770000000E+01 0.  1.
         15    1    1    2    0    0  0.83344522856E+01 -0.22717622020E+01  0.28091510398E+02  0.29443414949E+02  0.17770000000E+01 0. -1.
</event>
<event>
 6    1  0.2408691E-003  0.5048284E+03  0.7546771E-02  0.9389070E-01
        -11   -1    0    0    0    0  0.00000000000E+00  0.00000000000E+00  0.50000000000E+03  0.50000000000E+03  0.00000000000E+00 0. -1.
         11   -1    0    0    0    0 -0.00000000000E+00 -0.00000000000E+00 -0.50000000000E+03  0.50000000000E+03  0.00000000000E+00 0. -1.
        -11    1    1    2    0    0 -0.56401578994E+01 -0.84678325919E+01  0.41649267843E+03  0.41661693048E+03  0.00000000000E+00 0. -1.
         11    1    1    2    0    0 -0.20292821870E+02  0.17454529253E+00 -0.49475560005E+03  0.49517161960E+03  0.00000000000E+00 0. -1.
        -15    1    1    2    0    0  0.70176462329E+01 -0.25319675552E+01  0.57660410476E+02  0.58168194777E+02  0.17770000000E+01 0.  1.
         15    1    1    2    0    0  0.18915333536E+02  0.10825254855E+02  0.20602511134E+02  0.30043255141E+02  0.17770000000E+01 0. -1.
</event>
<event>
 6    1  0.2408691E-003  0.5149159E+03  0.7546771E-02  0.9367039E-01
        -11   -1    0    0    0    0  0.00000000000E+00  0.00000000000E+00  0.50000000000E+03  0.50000000000E+03  0.00000000000E+00 0. -1.
         11   -1    0    0    0    0 -0.00000000000E+00 -0.00000000000E+00 -0.50000000000E+03  0.50000000000E+03  0.00000000000E+00 0.  1.
        -11    1    1    2    0    0  0.98096867074E+01 -0.44838936050E+01  0.48496419185E+03  0.48508411913E+03  0.00000000000E+00 0. -1.
         11    1    1    2    0    0 -0.22610974928E+01 -0.84334121863E+01 -0.39769979321E+03  0.39779562657E+03  0.00000000000E+00 0.  1.
        -15    1    1    2    0    0 -0.57677924574E+01  0.19592285037E+01 -0.99960386809E+02  0.10016158279E+03  0.17770000000E+01 0.  1.
         15    1    1    2    0    0 -0.17807967572E+01  0.10958077288E+02  0.12695988169E+02  0.16958671514E+02  0.17770000000E+01 0. -1.
</event>
<event>
 6    1  0.2408691E-003  0.5567804E+03  0.7546771E-02  0.9281018E-01
        -11   -1    0    0    0    0  0.00000000000E+00  0.00000000000E+00  0.50000000000E+03  0.50000000000E+03  0.00000000000E+00 0.  1.
         11   -1    0    0    0    0 -0.00000000000E+00 -0.00000000000E+00 -0.50000000000E+03  0.50000000000E+03  0.00000000000E+00 0.  1.
        -11    1    1    2    0    0 -0.58615624082E+01  0.16801675047E+01  0.30193515695E+03  0.30199672163E+03  0.00000000000E+00 0.  1.
         11    1    1    2    0    0  0.71962931013E+02  0.64664139509E+01 -0.43729068404E+03  0.44321960730E+03  0.00000000000E+00 0.  1.
        -15    1    1    2    0    0 -0.68322409277E+02  0.38495951599E+01 -0.39807764789E+02  0.79187037189E+02  0.17770000000E+01 0. -1.
         15    1    1    2    0    0  0.22210406720E+01 -0.11996176615E+02  0.17516329188E+03  0.17559663387E+03  0.17770000000E+01 0.  1.
</event>
<event>
 6    1  0.2408691E-003  0.5293586E+03  0.7546771E-02  0.9336412E-01
        -11   -1    0    0    0    0  0.00000000000E+00  0.00000000000E+00  0.50000000000E+03  0.50000000000E+03  0.00000000000E+00 0.  1.
         11   -1    0    0    0    0 -0.00000000000E+00 -0.00000000000E+00 -0.50000000000E+03  0.50000000000E+03  0.00000000000E+00 0.  1.
        -11    1    1    2    0    0  0.28985319968E+02  0.48712677100E+02  0.46721543686E+03  0.47064141140E+03  0.00000000000E+00 0.  1.
         11    1    1    2    0    0 -0.87285247114E+01 -0.14543226251E+01 -0.43487534186E+03  0.43496536087E+03  0.00000000000E+00 0.  1.
        -15    1    1    2    0    0  0.26157846872E+02 -0.16045526475E+02 -0.21181878286E+02  0.37329901816E+02  0.17770000000E+01 0. -1.
         15    1    1    2    0    0 -0.46414642128E+02 -0.31212827999E+02 -0.11158216715E+02  0.57063325919E+02  0.17770000000E+01 0.  1.
</event>
<event>
 6    1  0.2408691E-003  0.5004526E+03  0.7546771E-02  0.9398797E-01
        -11   -1    0    0    0    0  0.00000000000E+00  0.00000000000E+00  0.50000000000E+03  0.50000000000E+03  0.00000000000E+00 0. -1.
         11   -1    0    0    0    0 -0.00000000000E+00 -0.00000000000E+00 -0.50000000000E+03  0.50000000000E+03  0.00000000000E+00 0.  1.
        -11    1    1    2    0    0 -0.52970967233E+00  0.10861156345E+01  0.88895584810E+02  0.88903797660E+02  0.00000000000E+00 0. -1.
         11    1    1    2    0    0  0.14655248085E+02  0.82142668571E+01 -0.49926477811E+03  0.49954736425E+03  0.00000000000E+00 0.  1.
        -15    1    1    2    0    0  0.35520728734E+00 -0.10667740694E+02  0.67085934453E+02  0.67952977817E+02  0.17770000000E+01 0.  1.
         15    1    1    2    0    0 -0.14480745700E+02  0.13673582020E+01  0.34328325884E+03  0.34359586027E+03  0.17770000000E+01 0. -1.
</event>
<event>
 6    1  0.2408691E-003  0.5010681E+03  0.7546771E-02  0.9397423E-01
        -11   -1    0    0    0    0  0.00000000000E+00  0.00000000000E+00  0.50000000000E+03  0.50000000000E+03  0.00000000000E+00 0.  1.
         11   -1    0    0    0    0 -0.00000000000E+00 -0.00000000000E+00 -0.50000000000E+03  0.50000000000E+03  0.00000000000E+00 0.  1.
        -11    1    1    2    0    0  0.31865026130E+01  0.63807926091E+01  0.49888088588E+03  0.49893186569E+03  0.00000000000E+00 0.  1.
         11    1    1    2    0    0 -0.25118205939E+01  0.19236897946E+01 -0.18665795004E+03  0.18668476140E+03  0.00000000000E+00 0.  1.
        -15    1    1    2    0    0  0.29239293911E+01 -0.80220702328E+01 -0.16762617444E+02  0.18895662107E+02  0.17770000000E+01 0. -1.
         15    1    1    2    0    0 -0.35986114102E+01 -0.28241217097E+00 -0.29546031839E+03  0.29548771080E+03  0.17770000000E+01 0.  1.
</event>
<event>
 6    1  0.2408691E-003  0.5013068E+03  0.7546771E-02  0.9396890E-01
        -11   -1    0    0    0    0  0.00000000000E+00  0.00000000000E+00  0.50000000000E+03  0.50000000000E+03  0.00000000000E+00 0. -1.
         11   -1    0    0    0    0 -0.00000000000E+00 -0.00000000000E+00 -0.50000000000E+03  0.50000000000E+03  0.00000000000E+00 0. -1.
        -11    1    1    2    0    0 -0.15724443837E+02 -0.16527049920E+01  0.38096680884E+03  0.38129476656E+03  0.00000000000E+00 0. -1.
         11    1    1    2    0    0 -0.80483689330E+00 -0.76042937479E+01 -0.49863456415E+03  0.49869319387E+03  0.00000000000E+00 0. -1.
        -15    1    1    2    0    0  0.18182508958E+02  0.82831779654E+01  0.89360166547E+02  0.91583905592E+02  0.17770000000E+01 0.  1.
         15    1    1    2    0    0 -0.16532282281E+01  0.97382077443E+00  0.28307588767E+02  0.28428133975E+02  0.17770000000E+01 0. -1.
</event>
<event>
 6    1  0.2408691E-003  0.5006671E+03  0.7546771E-02  0.9398318E-01
        -11   -1    0    0    0    0  0.00000000000E+00  0.00000000000E+00  0.50000000000E+03  0.50000000000E+03  0.00000000000E+00 0. -1.
         11   -1    0    0    0    0 -0.00000000000E+00 -0.00000000000E+00 -0.50000000000E+03  0.50000000000E+03  0.00000000000E+00 0. -1.
        -11    1    1    2    0    0  0.10685763738E+00  0.48368370589E+01  0.16021248050E+03  0.16028551188E+03  0.00000000000E+00 0. -1.
         11    1    1    2    0    0 -0.73366207089E+01  0.46086538890E+01 -0.49925772770E+03  0.49933289934E+03  0.00000000000E+00 0. -1.
        -15    1    1    2    0    0  0.17506213662E+02 -0.78577477039E+01  0.24146803527E+03  0.24223579732E+03  0.17770000000E+01 0. -1.
         15    1    1    2    0    0 -0.10276450590E+02 -0.15877432440E+01  0.97577211924E+02  0.98145791459E+02  0.17770000000E+01 0.  1.
</event>
<event>
 6    1  0.2408691E-003  0.5009189E+03  0.7546771E-02  0.9397756E-01
        -11   -1    0    0    0    0  0.00000000000E+00  0.00000000000E+00  0.50000000000E+03  0.50000000000E+03  0.00000000000E+00 0.  1.
         11   -1    0    0    0    0 -0.00000000000E+00 -0.00000000000E+00 -0.50000000000E+03  0.50000000000E+03  0.00000000000E+00 0.  1.
        -11    1    1    2    0    0  0.66246964061E+01 -0.83369441501E+00  0.27124400887E+03  0.27132617640E+03  0.00000000000E+00 0.  1.
         11    1    1    2    0    0  0.12530299533E+02  0.34072225931E+01 -0.49891212645E+03  0.49908108309E+03  0.00000000000E+00 0.  1.
        -15    1    1    2    0    0 -0.98896883773E+01 -0.21414339291E+01  0.30214584497E+02  0.31913484937E+02  0.17770000000E+01 0. -1.
         15    1    1    2    0    0 -0.92653075620E+01 -0.43209424899E+00  0.19745353309E+03  0.19767925558E+03  0.17770000000E+01 0.  1.
</event>
<event>
 6    1  0.2408691E-003  0.5013019E+03  0.7546771E-02  0.9396901E-01
        -11   -1    0    0    0    0  0.00000000000E+00  0.00000000000E+00  0.50000000000E+03  0.50000000000E+03  0.00000000000E+00 0.  1.
         11   -1    0    0    0    0 -0.00000000000E+00 -0.00000000000E+00 -0.50000000000E+03  0.50000000000E+03  0.00000000000E+00 0.  1.
        -11    1    1    2    0    0  0.68044136092E+01 -0.28865941559E+01  0.36664240408E+03  0.36671690026E+03  0.00000000000E+00 0.  1.
         11    1    1    2    0    0  0.86118796523E+01 -0.23232654399E+01 -0.49861828395E+03  0.49869806007E+03  0.00000000000E+00 0.  1.
        -15    1    1    2    0    0 -0.18705373286E+02 -0.56849028653E+00  0.81360440409E+02  0.83503851189E+02  0.17770000000E+01 0. -1.
         15    1    1    2    0    0  0.32890800241E+01  0.57783498823E+01  0.50615439462E+02  0.51081188472E+02  0.17770000000E+01 0.  1.
</event>
<event>
 6    1  0.2408691E-003  0.4895387E+03  0.7546771E-02  0.9423527E-01
        -11   -1    0    0    0    0  0.00000000000E+00  0.00000000000E+00  0.50000000000E+03  0.50000000000E+03  0.00000000000E+00 0.  1.
         11   -1    0    0    0    0 -0.00000000000E+00 -0.00000000000E+00 -0.50000000000E+03  0.50000000000E+03  0.00000000000E+00 0. -1.
        -11    1    1    2    0    0 -0.15753456825E+01  0.31680228313E+01  0.47686830897E+01  0.59378801847E+01  0.00000000000E+00 0.  1.
         11    1    1    2    0    0  0.29909917124E+01  0.11663328546E+02 -0.48547893062E+03  0.48562822338E+03  0.00000000000E+00 0. -1.
        -15    1    1    2    0    0  0.54473603738E+01 -0.55484888757E+01 -0.12639604181E+02  0.14945794950E+02  0.17770000000E+01 0. -1.
         15    1    1    2    0    0 -0.68630064037E+01 -0.92828625019E+01  0.49334985171E+03  0.49348810149E+03  0.17770000000E+01 0.  1.
</event>
<event>
 6    1  0.2408691E-003  0.5001648E+03  0.7546771E-02  0.9399441E-01
        -11   -1    0    0    0    0  0.00000000000E+00  0.00000000000E+00  0.50000000000E+03  0.50000000000E+03  0.00000000000E+00 0.  1.
         11   -1    0    0    0    0 -0.00000000000E+00 -0.00000000000E+00 -0.50000000000E+03  0.50000000000E+03  0.00000000000E+00 0. -1.
        -11    1    1    2    0    0 -0.24303423269E+01  0.88050971492E+01  0.49975172231E+03  0.49983519309E+03  0.00000000000E+00 0.  1.
         11    1    1    2    0    0  0.40997559981E+01  0.24565476584E+01 -0.19372091706E+03  0.19377986565E+03  0.00000000000E+00 0. -1.
        -15    1    1    2    0    0 -0.70309651851E+00 -0.93837444332E+01 -0.28650783098E+03  0.28666782859E+03  0.17770000000E+01 0. -1.
         15    1    1    2    0    0 -0.96631715266E+00 -0.18779003744E+01 -0.19522974269E+02  0.19717112668E+02  0.17770000000E+01 0.  1.
</event>
<event>
 6    1  0.2408691E-003  0.4747977E+03  0.7546771E-02  0.9458038E-01
        -11   -1    0    0    0    0  0.00000000000E+00  0.00000000000E+00  0.50000000000E+03  0.50000000000E+03  0.00000000000E+00 0.  1.
         11   -1    0    0    0    0 -0.00000000000E+00 -0.00000000000E+00 -0.50000000000E+03  0.50000000000E+03  0.00000000000E+00 0. -1.
        -11    1    1    2    0    0  0.32911291924E+01  0.20485400904E+02  0.47546319141E+03  0.47591567485E+03  0.00000000000E+00 0.  1.
         11    1    1    2    0    0 -0.96485857009E+01  0.74406682179E+01 -0.47395605781E+03  0.47411264851E+03  0.00000000000E+00 0. -1.
        -15    1    1    2    0    0  0.43595683448E+01 -0.13277774797E+01 -0.17938339122E+02  0.18593293647E+02  0.17770000000E+01 0.  1.
         15    1    1    2    0    0  0.19978881637E+01 -0.26598291642E+02  0.16431205521E+02  0.31378382993E+02  0.17770000000E+01 0. -1.
</event>
<event>
 6    1  0.2408691E-003  0.5020275E+03  0.7546771E-02  0.9395284E-01
        -11   -1    0    0    0    0  0.00000000000E+00  0.00000000000E+00  0.50000000000E+03  0.50000000000E+03  0.00000000000E+00 0.  1.
         11   -1    0    0    0    0 -0.00000000000E+00 -0.00000000000E+00 -0.50000000000E+03  0.50000000000E+03  0.00000000000E+00 0. -1.
        -11    1    1    2    0    0 -0.21668284077E+01 -0.60756153694E+01  0.46107782026E+03  0.46112293869E+03  0.00000000000E+00 0.  1.
         11    1    1    2    0    0 -0.21694047039E+01  0.67155613635E+01 -0.49792248489E+03  0.49797249527E+03  0.00000000000E+00 0. -1.
        -15    1    1    2    0    0 -0.26858999404E+01  0.11496123955E+01  0.31599842553E+02  0.31784327042E+02  0.17770000000E+01 0.  1.
         15    1    1    2    0    0  0.70221330520E+01 -0.17895583896E+01  0.52448220806E+01  0.91202390038E+01  0.17770000000E+01 0. -1.
</event>
<event>
 6    1  0.2408691E-003  0.5136084E+03  0.7546771E-02  0.9369864E-01
        -11   -1    0    0    0    0  0.00000000000E+00  0.00000000000E+00  0.50000000000E+03  0.50000000000E+03  0.00000000000E+00 0. -1.
         11   -1    0    0    0    0 -0.00000000000E+00 -0.00000000000E+00 -0.50000000000E+03  0.50000000000E+03  0.00000000000E+00 0.  1.
        -11    1    1    2    0    0 -0.10765309589E+02 -0.54692762450E+01  0.40625828371E+03  0.40643769259E+03  0.00000000000E+00 0. -1.
         11    1    1    2    0    0  0.74916930100E+01 -0.16785156345E+02 -0.48604420197E+03  0.48639164590E+03  0.00000000000E+00 0.  1.
        -15    1    1    2    0    0 -0.50011485557E+01  0.15720163069E+02 -0.82207489768E+01  0.18516842510E+02  0.17770000000E+01 0. -1.
         15    1    1    2    0    0  0.82747651346E+01  0.65342695209E+01  0.88006667235E+02  0.88653818999E+02  0.17770000000E+01 0.  1.
</event>
<event>
 6    1  0.2408691E-003  0.5025089E+03  0.7546771E-02  0.9394213E-01
        -11   -1    0    0    0    0  0.00000000000E+00  0.00000000000E+00  0.50000000000E+03  0.50000000000E+03  0.00000000000E+00 0. -1.
         11   -1    0    0    0    0 -0.00000000000E+00 -0.00000000000E+00 -0.50000000000E+03  0.50000000000E+03  0.00000000000E+00 0. -1.
        -11    1    1    2    0    0  0.13614959884E+01 -0.18414201753E+02  0.49714834898E+03  0.49749112292E+03  0.00000000000E+00 0. -1.
         11    1    1    2    0    0  0.10861402655E+01  0.49184971621E+01 -0.14082520323E+03  0.14091525531E+03  0.00000000000E+00 0. -1.
        -15    1    1    2    0    0  0.11080337587E+02  0.67667682389E+01 -0.14944196496E+02  0.19875859010E+02  0.17770000000E+01 0.  1.
         15    1    1    2    0    0 -0.13527973841E+02  0.67289363520E+01 -0.34137894925E+03  0.34171776275E+03  0.17770000000E+01 0. -1.
</event>
<event>
 6    1  0.2408691E-003  0.5064830E+03  0.7546771E-02  0.9385419E-01
        -11   -1    0    0    0    0  0.00000000000E+00  0.00000000000E+00  0.50000000000E+03  0.50000000000E+03  0.00000000000E+00 0.  1.
         11   -1    0    0    0    0 -0.00000000000E+00 -0.00000000000E+00 -0.50000000000E+03  0.50000000000E+03  0.00000000000E+00 0.  1.
        -11    1    1    2    0    0 -0.10793132368E+02  0.12326290093E+02  0.49324496664E+03  0.49351699692E+03  0.00000000000E+00 0.  1.
         11    1    1    2    0    0 -0.81481659960E+01  0.72688423884E+01 -0.44125897750E+03  0.44139405739E+03  0.00000000000E+00 0.  1.
        -15    1    1    2    0    0  0.46882750329E+00 -0.15754141258E+01 -0.32785351741E+02  0.32874591202E+02  0.17770000000E+01 0. -1.
         15    1    1    2    0    0  0.18472470861E+02 -0.18019718356E+02 -0.19200637405E+02  0.32214354488E+02  0.17770000000E+01 0.  1.
</event>
<event>
 6    1  0.2408691E-003  0.3300630E+03  0.7546771E-02  0.9889112E-01
        -11   -1    0    0    0    0  0.00000000000E+00  0.00000000000E+00  0.50000000000E+03  0.50000000000E+03  0.00000000000E+00 0. -1.
         11   -1    0    0    0    0 -0.00000000000E+00 -0.00000000000E+00 -0.50000000000E+03  0.50000000000E+03  0.00000000000E+00 0.  1.
        -11    1    1    2    0    0  0.36273863342E+01  0.56180756263E+01  0.21187474039E+03  0.21198024984E+03  0.00000000000E+00 0. -1.
         11    1    1    2    0    0 -0.26035357346E+02 -0.35543416381E-01 -0.38649596214E+03  0.38737187539E+03  0.00000000000E+00 0.  1.
        -15    1    1    2    0    0 -0.24992770720E+02  0.49578891682E+01  0.28180712684E+03  0.28296224787E+03  0.17770000000E+01 0. -1.
         15    1    1    2    0    0  0.47400741733E+02 -0.10540421378E+02 -0.10718590509E+03  0.11768562690E+03  0.17770000000E+01 0.  1.
</event>
<event>
 6    1  0.2408691E-003  0.5015463E+03  0.7546771E-02  0.9396356E-01
        -11   -1    0    0    0    0  0.00000000000E+00  0.00000000000E+00  0.50000000000E+03  0.50000000000E+03  0.00000000000E+00 0. -1.
         11   -1    0    0    0    0 -0.00000000000E+00 -0.00000000000E+00 -0.50000000000E+03  0.50000000000E+03  0.00000000000E+00 0. -1.
        -11    1    1    2    0    0 -0.25229993750E+01  0.65669887437E+01  0.49840401981E+03  0.49845366668E+03  0.00000000000E+00 0. -1.
         11    1    1    2    0    0  0.11272516436E+02 -0.60034633156E+01 -0.43260856254E+03  0.43279704202E+03  0.00000000000E+00 0. -1.
        -15    1    1    2    0    0 -0.13900139942E+02  0.10178201483E+01 -0.42038361349E+02  0.44324162735E+02  0.17770000000E+01 0. -1.
         15    1    1    2    0    0  0.51506228814E+01 -0.15813455764E+01 -0.23757095914E+02  0.24425128560E+02  0.17770000000E+01 0.  1.
</event>
<event>
 6    1  0.2408691E-003  0.5033682E+03  0.7546771E-02  0.9392305E-01
        -11   -1    0    0    0    0  0.00000000000E+00  0.00000000000E+00  0.50000000000E+03  0.50000000000E+03  0.00000000000E+00 0. -1.
         11   -1    0    0    0    0 -0.00000000000E+00 -0.00000000000E+00 -0.50000000000E+03  0.50000000000E+03  0.00000000000E+00 0. -1.
        -11    1    1    2    0    0  0.52789860201E+01  0.42866855005E+01  0.44213399633E+03  0.44218628888E+03  0.00000000000E+00 0. -1.
         11    1    1    2    0    0  0.98340380206E+01  0.95112667531E+00 -0.49653355279E+03  0.49663183747E+03  0.00000000000E+00 0. -1.
        -15    1    1    2    0    0 -0.62361676649E+01  0.51540126609E+00  0.84009834083E+00  0.65588809893E+01  0.17770000000E+01 0.  1.
         15    1    1    2    0    0 -0.88768563757E+01 -0.57532134419E+01  0.53559458116E+02  0.54622992656E+02  0.17770000000E+01 0. -1.
</event>
<event>
 6    1  0.2408691E-003  0.5123251E+03  0.7546771E-02  0.9372646E-01
        -11   -1    0    0    0    0  0.00000000000E+00  0.00000000000E+00  0.50000000000E+03  0.50000000000E+03  0.00000000000E+00 0.  1.
         11   -1    0    0    0    0 -0.00000000000E+00 -0.00000000000E+00 -0.50000000000E+03  0.50000000000E+03  0.00000000000E+00 0.  1.
        -11    1    1    2    0    0 -0.41136355684E+02  0.27859514151E+01  0.45019660418E+03  0.45208068273E+03  0.00000000000E+00 0.  1.
         11    1    1    2    0    0  0.28667878854E+02 -0.19312948573E+02 -0.48644832588E+03  0.48767490299E+03  0.00000000000E+00 0.  1.
        -15    1    1    2    0    0  0.27143987227E+02  0.45903890586E+01  0.13843940125E+02  0.30865516705E+02  0.17770000000E+01 0.  1.
         15    1    1    2    0    0 -0.14675510398E+02  0.11936608099E+02  0.22407781576E+02  0.29378897571E+02  0.17770000000E+01 0. -1.
</event>
<event>
 6    1  0.2408691E-003  0.5021620E+03  0.7546771E-02  0.9394985E-01
        -11   -1    0    0    0    0  0.00000000000E+00  0.00000000000E+00  0.50000000000E+03  0.50000000000E+03  0.00000000000E+00 0. -1.
         11   -1    0    0    0    0 -0.00000000000E+00 -0.00000000000E+00 -0.50000000000E+03  0.50000000000E+03  0.00000000000E+00 0. -1.
        -11    1    1    2    0    0 -0.61498905662E+01 -0.80411517555E+01  0.49773507837E+03  0.49783801533E+03  0.00000000000E+00 0. -1.
         11    1    1    2    0    0 -0.41365508214E+01 -0.15656388903E+01 -0.32262609991E+03  0.32265641574E+03  0.00000000000E+00 0. -1.
        -15    1    1    2    0    0  0.61823674700E+01  0.12932923386E+02 -0.22140668778E+02  0.26435754533E+02  0.17770000000E+01 0.  1.
         15    1    1    2    0    0  0.41040739177E+01 -0.33261327400E+01 -0.15296830968E+03  0.15306981439E+03  0.17770000000E+01 0. -1.
</event>
<event>
 6    1  0.2408691E-003  0.5414240E+03  0.7546771E-02  0.9311611E-01
        -11   -1    0    0    0    0  0.00000000000E+00  0.00000000000E+00  0.50000000000E+03  0.50000000000E+03  0.00000000000E+00 0. -1.
         11   -1    0    0    0    0 -0.00000000000E+00 -0.00000000000E+00 -0.50000000000E+03  0.50000000000E+03  0.00000000000E+00 0. -1.
        -11    1    1    2    0    0  0.10646602142E+02 -0.99173309332E+01  0.42698585490E+03  0.42723368766E+03  0.00000000000E+00 0. -1.
         11    1    1    2    0    0  0.25640292067E+02  0.19933479297E+02 -0.45742453458E+03  0.45857602752E+03  0.00000000000E+00 0. -1.
        -15    1    1    2    0    0 -0.16345654066E+02  0.26272623859E+02  0.57058533314E+02  0.64932773884E+02  0.17770000000E+01 0.  1.
         15    1    1    2    0    0 -0.19941240143E+02 -0.36288772222E+02 -0.26619853626E+02  0.49257510939E+02  0.17770000000E+01 0. -1.
</event>
<event>
 6    1  0.2408691E-003  0.5086041E+03  0.7546771E-02  0.9380761E-01
        -11   -1    0    0    0    0  0.00000000000E+00  0.00000000000E+00  0.50000000000E+03  0.50000000000E+03  0.00000000000E+00 0. -1.
         11   -1    0    0    0    0 -0.00000000000E+00 -0.00000000000E+00 -0.50000000000E+03  0.50000000000E+03  0.00000000000E+00 0. -1.
        -11    1    1    2    0    0  0.43851556343E+01 -0.64578383635E+01  0.47421118985E+03  0.47427543247E+03  0.00000000000E+00 0. -1.
         11    1    1    2    0    0  0.65817630662E+01  0.18866019517E+01 -0.49134818555E+03  0.49139588756E+03  0.00000000000E+00 0. -1.
        -15    1    1    2    0    0 -0.14369622146E+01  0.48465202228E+01  0.22580322781E+02  0.23207376512E+02  0.17770000000E+01 0.  1.
         15    1    1    2    0    0 -0.95299564859E+01 -0.27528381100E+00 -0.54433270834E+01  0.11121303455E+02  0.17770000000E+01 0.  1.
</event>
<event>
 6    1  0.2408691E-003  0.5137034E+03  0.7546771E-02  0.9369659E-01
        -11   -1    0    0    0    0  0.00000000000E+00  0.00000000000E+00  0.50000000000E+03  0.50000000000E+03  0.00000000000E+00 0. -1.
         11   -1    0    0    0    0 -0.00000000000E+00 -0.00000000000E+00 -0.50000000000E+03  0.50000000000E+03  0.00000000000E+00 0.  1.
        -11    1    1    2    0    0 -0.77818191730E+01 -0.18229966388E+01  0.48623093057E+03  0.48629661511E+03  0.00000000000E+00 0. -1.
         11    1    1    2    0    0 -0.42166410948E+02  0.17092731580E+00 -0.42710366464E+03  0.42918012044E+03  0.00000000000E+00 0.  1.
        -15    1    1    2    0    0  0.45499095508E+02  0.19656510054E+01 -0.63409829393E+02  0.78089664288E+02  0.17770000000E+01 0.  1.
         15    1    1    2    0    0  0.44491346124E+01 -0.31358168238E+00  0.42825634652E+01  0.64336001666E+01  0.17770000000E+01 0. -1.
</event>
<event>
 6    1  0.2408691E-003  0.5014063E+03  0.7546771E-02  0.9396668E-01
        -11   -1    0    0    0    0  0.00000000000E+00  0.00000000000E+00  0.50000000000E+03  0.50000000000E+03  0.00000000000E+00 0.  1.
         11   -1    0    0    0    0 -0.00000000000E+00 -0.00000000000E+00 -0.50000000000E+03  0.50000000000E+03  0.00000000000E+00 0.  1.
        -11    1    1    2    0    0 -0.73034088574E+01 -0.27895511179E+01  0.49853236746E+03  0.49859366500E+03  0.00000000000E+00 0.  1.
         11    1    1    2    0    0 -0.67180143417E+01  0.86211228951E-01 -0.27705066211E+03  0.27713211385E+03  0.00000000000E+00 0.  1.
        -15    1    1    2    0    0  0.63095362235E+01  0.59477472057E+01 -0.13662340757E+02  0.16278919747E+02  0.17770000000E+01 0. -1.
         15    1    1    2    0    0  0.77118869756E+01 -0.32444073168E+01 -0.20781936459E+03  0.20799530140E+03  0.17770000000E+01 0.  1.
</event>
<event>
 6    1  0.2408691E-003  0.4838191E+03  0.7546771E-02  0.9436762E-01
        -11   -1    0    0    0    0  0.00000000000E+00  0.00000000000E+00  0.50000000000E+03  0.50000000000E+03  0.00000000000E+00 0.  1.
         11   -1    0    0    0    0 -0.00000000000E+00 -0.00000000000E+00 -0.50000000000E+03  0.50000000000E+03  0.00000000000E+00 0.  1.
        -11    1    1    2    0    0  0.65336838302E+01  0.52262276412E+01  0.48102218519E+03  0.48109494398E+03  0.00000000000E+00 0.  1.
         11    1    1    2    0    0  0.61774440869E+01  0.68999626245E+01 -0.48663092288E+03  0.48671904155E+03  0.00000000000E+00 0.  1.
        -15    1    1    2    0    0 -0.17581417411E+02 -0.49122940605E+01 -0.43407474062E+01  0.18847723687E+02  0.17770000000E+01 0.  1.
         15    1    1    2    0    0  0.48702894940E+01 -0.72138962052E+01  0.99494851019E+01  0.13338290783E+02  0.17770000000E+01 0. -1.
</event>
<event>
 6    1  0.2408691E-003  0.5164310E+03  0.7546771E-02  0.9363777E-01
        -11   -1    0    0    0    0  0.00000000000E+00  0.00000000000E+00  0.50000000000E+03  0.50000000000E+03  0.00000000000E+00 0. -1.
         11   -1    0    0    0    0 -0.00000000000E+00 -0.00000000000E+00 -0.50000000000E+03  0.50000000000E+03  0.00000000000E+00 0.  1.
        -11    1    1    2    0    0 -0.19718625584E+02  0.46680878961E+02  0.23301780636E+03  0.23846430915E+03  0.00000000000E+00 0. -1.
         11    1    1    2    0    0 -0.65271076559E+01 -0.59286716516E+01 -0.48348860955E+03  0.48356901043E+03  0.00000000000E+00 0.  1.
        -15    1    1    2    0    0  0.21144913016E+02 -0.43891075342E+02  0.26111365478E+03  0.26562573724E+03  0.17770000000E+01 0. -1.
         15    1    1    2    0    0  0.51008202236E+01  0.31388680328E+01 -0.10642851597E+02  0.12340943181E+02  0.17770000000E+01 0. -1.
</event>
<event>
 6    1  0.2408691E-003  0.5030761E+03  0.7546771E-02  0.9392953E-01
        -11   -1    0    0    0    0  0.00000000000E+00  0.00000000000E+00  0.50000000000E+03  0.50000000000E+03  0.00000000000E+00 0. -1.
         11   -1    0    0    0    0 -0.00000000000E+00 -0.00000000000E+00 -0.50000000000E+03  0.50000000000E+03  0.00000000000E+00 0. -1.
        -11    1    1    2    0    0  0.28235863803E+01  0.13093535895E+02  0.43169501802E+03  0.43190276904E+03  0.00000000000E+00 0. -1.
         11    1    1    2    0    0 -0.27427979333E+01  0.90849721421E+01 -0.49683332056E+03  0.49692394597E+03  0.00000000000E+00 0. -1.
        -15    1    1    2    0    0 -0.16724861817E+01 -0.18878409598E+02  0.64243155329E+02  0.67003972230E+02  0.17770000000E+01 0. -1.
         15    1    1    2    0    0  0.15916977347E+01 -0.33000984393E+01  0.89514721064E+00  0.41693127631E+01  0.17770000000E+01 0.  1.
</event>
<event>
 6    1  0.2408691E-003  0.5496940E+03  0.7546771E-02  0.9295004E-01
        -11   -1    0    0    0    0  0.00000000000E+00  0.00000000000E+00  0.50000000000E+03  0.50000000000E+03  0.00000000000E+00 0. -1.
         11   -1    0    0    0    0 -0.00000000000E+00 -0.00000000000E+00 -0.50000000000E+03  0.50000000000E+03  0.00000000000E+00 0. -1.
        -11    1    1    2    0    0  0.10071272065E+02  0.10783644951E+02  0.45006420731E+03  0.45030601620E+03  0.00000000000E+00 0. -1.
         11    1    1    2    0    0 -0.29290651170E+01 -0.66138606612E+01 -0.39828891152E+03  0.39835459030E+03  0.00000000000E+00 0. -1.
        -15    1    1    2    0    0  0.94971964484E+01 -0.15707403866E+02  0.47003173345E+02  0.50491338961E+02  0.17770000000E+01 0. -1.
         15    1    1    2    0    0 -0.16639403396E+02  0.11537619576E+02 -0.98778469134E+02  0.10084805454E+03  0.17770000000E+01 0.  1.
</event>
<event>
 6    1  0.2408691E-003  0.5033146E+03  0.7546771E-02  0.9392423E-01
        -11   -1    0    0    0    0  0.00000000000E+00  0.00000000000E+00  0.50000000000E+03  0.50000000000E+03  0.00000000000E+00 0. -1.
         11   -1    0    0    0    0 -0.00000000000E+00 -0.00000000000E+00 -0.50000000000E+03  0.50000000000E+03  0.00000000000E+00 0.  1.
        -11    1    1    2    0    0 -0.84120610659E+01  0.43762650301E+01  0.47742436124E+03  0.47751851815E+03  0.00000000000E+00 0. -1.
         11    1    1    2    0    0  0.88099506649E+01  0.37207665916E+01 -0.49659330196E+03  0.49668538018E+03  0.00000000000E+00 0.  1.
        -15    1    1    2    0    0  0.24218721525E+01 -0.26904982288E+01 -0.14001344712E+01  0.42687645730E+01  0.17770000000E+01 0. -1.
         15    1    1    2    0    0 -0.28197617515E+01 -0.54065333930E+01  0.20569075185E+02  0.21527337101E+02  0.17770000000E+01 0.  1.
</event>
<event>
 6    1  0.2408691E-003  0.5019449E+03  0.7546771E-02  0.9395468E-01
        -11   -1    0    0    0    0  0.00000000000E+00  0.00000000000E+00  0.50000000000E+03  0.50000000000E+03  0.00000000000E+00 0.  1.
         11   -1    0    0    0    0 -0.00000000000E+00 -0.00000000000E+00 -0.50000000000E+03  0.50000000000E+03  0.00000000000E+00 0. -1.
        -11    1    1    2    0    0  0.12295945728E+02 -0.32603749434E+01  0.49789258671E+03  0.49805506546E+03  0.00000000000E+00 0.  1.
         11    1    1    2    0    0 -0.50743034090E+00  0.53251457751E+01 -0.33561425129E+03  0.33565687887E+03  0.00000000000E+00 0. -1.
        -15    1    1    2    0    0 -0.22730981532E+02  0.30241673147E+01 -0.85172709247E+02  0.88223529961E+02  0.17770000000E+01 0.  1.
         15    1    1    2    0    0  0.10942466145E+02 -0.50889381463E+01 -0.77105626174E+02  0.78064525705E+02  0.17770000000E+01 0. -1.
</event>
<event>
 6    1  0.2408691E-003  0.5489133E+03  0.7546771E-02  0.9296558E-01
        -11   -1    0    0    0    0  0.00000000000E+00  0.00000000000E+00  0.50000000000E+03  0.50000000000E+03  0.00000000000E+00 0.  1.
         11   -1    0    0    0    0 -0.00000000000E+00 -0.00000000000E+00 -0.50000000000E+03  0.50000000000E+03  0.00000000000E+00 0. -1.
        -11    1    1    2    0    0  0.28430372803E+01 -0.59697065327E+01  0.45103821851E+03  0.45108668215E+03  0.00000000000E+00 0.  1.
         11    1    1    2    0    0 -0.12481002113E+02  0.20271541219E+02 -0.23790000778E+03  0.23908811032E+03  0.00000000000E+00 0. -1.
        -15    1    1    2    0    0 -0.84575219896E+01  0.47739472548E+01  0.47167078839E+02  0.48189327716E+02  0.17770000000E+01 0.  1.
         15    1    1    2    0    0  0.18095486822E+02 -0.19075781941E+02 -0.26030528957E+03  0.26163587982E+03  0.17770000000E+01 0. -1.
</event>
<event>
 6    1  0.2408691E-003  0.5010699E+03  0.7546771E-02  0.9397419E-01
        -11   -1    0    0    0    0  0.00000000000E+00  0.00000000000E+00  0.50000000000E+03  0.50000000000E+03  0.00000000000E+00 0. -1.
         11   -1    0    0    0    0 -0.00000000000E+00 -0.00000000000E+00 -0.50000000000E+03  0.50000000000E+03  0.00000000000E+00 0.  1.
        -11    1    1    2    0    0  0.51508519523E+01  0.73595947933E+01  0.29057426246E+03  0.29071308349E+03  0.00000000000E+00 0. -1.
         11    1    1    2    0    0 -0.49292670172E+01  0.13866743549E+02 -0.49871302093E+03  0.49893011684E+03  0.00000000000E+00 0.  1.
        -15    1    1    2    0    0  0.22662615798E+01 -0.50328380058E+01  0.14458434771E+03  0.14470057613E+03  0.17770000000E+01 0. -1.
         15    1    1    2    0    0 -0.24878465149E+01 -0.16193500337E+02  0.63554410756E+02  0.65656223536E+02  0.17770000000E+01 0.  1.
</event>
<event>
 6    1  0.2408691E-003  0.5032646E+03  0.7546771E-02  0.9392534E-01
        -11   -1    0    0    0    0  0.00000000000E+00  0.00000000000E+00  0.50000000000E+03  0.50000000000E+03  0.00000000000E+00 0. -1.
         11   -1    0    0    0    0 -0.00000000000E+00 -0.00000000000E+00 -0.50000000000E+03  0.50000000000E+03  0.00000000000E+00 0.  1.
        -11    1    1    2    0    0 -0.20115897096E+02  0.33912255637E+02  0.49516801243E+03  0.49673539328E+03  0.00000000000E+00 0. -1.
         11    1    1    2    0    0  0.40859572194E+01  0.34821849668E+01 -0.19755965423E+03  0.19763258243E+03  0.00000000000E+00 0.  1.
        -15    1    1    2    0    0  0.94163395398E+01  0.10270310076E+02 -0.23917034418E+02  0.27736780342E+02  0.17770000000E+01 0. -1.
         15    1    1    2    0    0  0.66136003372E+01 -0.47664750680E+02 -0.27369132378E+03  0.27789524395E+03  0.17770000000E+01 0.  1.
</event>
<event>
 6    1  0.2408691E-003  0.5026143E+03  0.7546771E-02  0.9393979E-01
        -11   -1    0    0    0    0  0.00000000000E+00  0.00000000000E+00  0.50000000000E+03  0.50000000000E+03  0.00000000000E+00 0.  1.
         11   -1    0    0    0    0 -0.00000000000E+00 -0.00000000000E+00 -0.50000000000E+03  0.50000000000E+03  0.00000000000E+00 0.  1.
        -11    1    1    2    0    0 -0.14813371336E+02 -0.52888556841E+00  0.49716473284E+03  0.49738565245E+03  0.00000000000E+00 0.  1.
         11    1    1    2    0    0 -0.18836546944E+01 -0.58102334293E+01 -0.43472782854E+03  0.43477073484E+03  0.00000000000E+00 0.  1.
        -15    1    1    2    0    0  0.57576453736E+01  0.12194628121E+02 -0.38344193782E+02  0.40685308909E+02  0.17770000000E+01 0.  1.
         15    1    1    2    0    0  0.10939380657E+02 -0.58555091229E+01 -0.24092710517E+02  0.27158303800E+02  0.17770000000E+01 0. -1.
</event>
<event>
 6    1  0.2408691E-003  0.5048034E+03  0.7546771E-02  0.9389125E-01
        -11   -1    0    0    0    0  0.00000000000E+00  0.00000000000E+00  0.50000000000E+03  0.50000000000E+03  0.00000000000E+00 0. -1.
         11   -1    0    0    0    0 -0.00000000000E+00 -0.00000000000E+00 -0.50000000000E+03  0.50000000000E+03  0.00000000000E+00 0.  1.
        -11    1    1    2    0    0 -0.45547084535E+00 -0.87458466603E+01  0.39361176139E+03  0.39370917692E+03  0.00000000000E+00 0. -1.
         11    1    1    2    0    0 -0.32476193412E+01 -0.10983355846E+02 -0.49506415436E+03  0.49519662566E+03  0.00000000000E+00 0.  1.
        -15    1    1    2    0    0  0.80009874614E+01  0.12646164779E+02  0.76324778089E+01  0.16892416360E+02  0.17770000000E+01 0.  1.
         15    1    1    2    0    0 -0.42978972748E+01  0.70830377273E+01  0.93819915157E+02  0.94201781052E+02  0.17770000000E+01 0. -1.
</event>
<event>
 6    1  0.2408691E-003  0.5009881E+03  0.7546771E-02  0.9397601E-01
        -11   -1    0    0    0    0  0.00000000000E+00  0.00000000000E+00  0.50000000000E+03  0.50000000000E+03  0.00000000000E+00 0. -1.
         11   -1    0    0    0    0 -0.00000000000E+00 -0.00000000000E+00 -0.50000000000E+03  0.50000000000E+03  0.00000000000E+00 0.  1.
        -11    1    1    2    0    0 -0.34604858755E+01 -0.12391888265E+02  0.49884598979E+03  0.49901187901E+03  0.00000000000E+00 0. -1.
         11    1    1    2    0    0 -0.17207096076E+01 -0.13875443715E+01 -0.15868310829E+03  0.15869850338E+03  0.00000000000E+00 0.  1.
        -15    1    1    2    0    0  0.31078734167E+00  0.73588604496E+01 -0.32447624345E+03  0.32456469264E+03  0.17770000000E+01 0.  1.
         15    1    1    2    0    0  0.48704081415E+01  0.64205721867E+01 -0.15686638059E+02  0.17724924972E+02  0.17770000000E+01 0. -1.
</event>
